 TITLE = "Mineral Area" 
VARIABLES = "X"          "Y"              "Z"            "Forsterite"     "Enstatite(alph" "Anorthite"      "Ferropargasite" "Anhydrite"      "Clinochlore"    "Albite(low)"    "Fayalite"       "Epidote"        "Kaolinite"      "Muscovite(orde" "Sudoite"        "Saponite(Mg)"   "Scolecite"      "Pyrite"         "Quartz(alpha)" 
 ZONE I=         100 , J=           1 , K=           1  F=POINT
   1.75000000E+01   5.00000000E-01   5.00000000E-01   9.99996712E-02   9.99999687E-02   9.99978812E-02   9.99991595E-02   9.86122210E-02   2.67278386E+03   9.99898653E-02   9.99965172E-02   9.99999997E-02   9.99794696E-02   1.60749204E+02   0.00000000E+00   1.49520233E+02   9.96383328E-02   0.00000000E+00   3.10869466E+00
   5.25000000E+01   5.00000000E-01   5.00000000E-01   9.99996712E-02   9.99999687E-02   9.99978812E-02   9.99991595E-02   9.96525410E-02   1.61722987E+03   9.99924744E-02   9.99965174E-02   9.99999998E-02   9.99795649E-02   1.74285414E+02   0.00000000E+00   1.53261494E+02   9.96384571E-02   0.00000000E+00   3.67074144E+00
   8.75000000E+01   5.00000000E-01   5.00000000E-01   9.99996712E-02   9.99999687E-02   9.99978812E-02   9.99991595E-02   9.99217607E-02   1.25933987E+03   9.99936584E-02   9.99965177E-02   9.99999998E-02   9.99796072E-02   1.69059392E+02   0.00000000E+00   1.74074605E+02   9.96384916E-02   0.00000000E+00   3.91036489E+00
   1.22500000E+02   5.00000000E-01   5.00000000E-01   9.99996712E-02   9.99999687E-02   9.99978812E-02   9.99991595E-02   9.99880380E-02   1.11297515E+03   9.99942493E-02   9.99965180E-02   9.99999997E-02   9.99796466E-02   1.64744585E+02   0.00000000E+00   1.82226146E+02   9.96385099E-02   0.00000000E+00   4.00895868E+00
   1.57500000E+02   5.00000000E-01   5.00000000E-01   9.99996712E-02   9.99999687E-02   9.99978812E-02   9.99991595E-02   1.00005104E-01   1.05065855E+03   9.99945374E-02   9.99965184E-02   9.99999996E-02   9.99796890E-02   1.62101263E+02   0.00000000E+00   1.86656173E+02   9.96385258E-02   0.00000000E+00   4.03552940E+00
   1.92500000E+02   5.00000000E-01   5.00000000E-01   9.99996712E-02   9.99999687E-02   9.99978812E-02   9.99991595E-02   1.00010494E-01   1.02889035E+03   9.99946558E-02   9.99965188E-02   9.99999996E-02   9.99797358E-02   1.60687161E+02   0.00000000E+00   1.89720630E+02   9.96385420E-02   0.00000000E+00   4.02203996E+00
   2.27500000E+02   5.00000000E-01   5.00000000E-01   9.99996712E-02   9.99999687E-02   9.99978812E-02   9.99991595E-02   1.00013064E-01   1.02929579E+03   9.99946730E-02   9.99965193E-02   9.99999995E-02   9.99797869E-02   1.60083031E+02   0.00000000E+00   1.92215371E+02   9.96385588E-02   0.00000000E+00   3.98511330E+00
   2.62500000E+02   5.00000000E-01   5.00000000E-01   9.99996712E-02   9.99999687E-02   9.99978812E-02   9.99991595E-02   1.00014863E-01   1.04295822E+03   9.99946269E-02   9.99965198E-02   9.99999994E-02   9.99798422E-02   1.59997975E+02   0.00000000E+00   1.94463350E+02   9.96385758E-02   0.00000000E+00   3.93403154E+00
   2.97500000E+02   5.00000000E-01   5.00000000E-01   9.99996712E-02   9.99999687E-02   9.99978812E-02   9.99991595E-02   1.00016364E-01   1.06515136E+03   9.99945394E-02   9.99965203E-02   9.99999993E-02   9.99799018E-02   1.60240892E+02   0.00000000E+00   1.96611572E+02   9.96385928E-02   0.00000000E+00   3.87422908E+00
   3.32500000E+02   5.00000000E-01   5.00000000E-01   9.99996712E-02   9.99999687E-02   9.99978812E-02   9.99991595E-02   1.00017678E-01   1.09320819E+03   9.99944239E-02   9.99965208E-02   9.99999992E-02   9.99799655E-02   1.60687045E+02   0.00000000E+00   1.98731797E+02   9.96386095E-02   0.00000000E+00   3.80899770E+00
   3.67500000E+02   5.00000000E-01   5.00000000E-01   9.99996712E-02   9.99999687E-02   9.99978812E-02   9.99991595E-02   1.00018838E-01   1.12551946E+03   9.99942888E-02   9.99965214E-02   9.99999992E-02   9.99800334E-02   1.61255214E+02   0.00000000E+00   2.00862056E+02   9.96386258E-02   0.00000000E+00   3.74038014E+00
   4.02500000E+02   5.00000000E-01   5.00000000E-01   9.99996712E-02   9.99999687E-02   9.99978812E-02   9.99991595E-02   1.00019856E-01   1.16104701E+03   9.99941396E-02   9.99965219E-02   9.99999990E-02   9.99801055E-02   1.61892590E+02   0.00000000E+00   2.03023372E+02   9.96386415E-02   0.00000000E+00   3.66966814E+00
   4.37500000E+02   5.00000000E-01   5.00000000E-01   9.99996712E-02   9.99999687E-02   9.99978812E-02   9.99991595E-02   1.00020744E-01   1.19877786E+03   9.99939796E-02   9.99965224E-02   9.99999989E-02   9.99801817E-02   1.62574820E+02   0.00000000E+00   2.05253861E+02   9.96386565E-02   0.00000000E+00   3.59763912E+00
   4.72500000E+02   5.00000000E-01   5.00000000E-01   9.99996712E-02   9.99999687E-02   9.99978812E-02   9.99991595E-02   1.00021511E-01   1.23774046E+03   9.99938112E-02   9.99965230E-02   9.99999988E-02   9.99802624E-02   1.63297030E+02   0.00000000E+00   2.07597199E+02   9.96386708E-02   0.00000000E+00   3.52472672E+00
   5.07500000E+02   5.00000000E-01   5.00000000E-01   9.99996712E-02   9.99999687E-02   9.99978812E-02   9.99991595E-02   1.00022167E-01   1.27869746E+03   9.99936362E-02   9.99965235E-02   9.99999987E-02   9.99803474E-02   1.64010942E+02   0.00000000E+00   2.09937971E+02   9.96386843E-02   0.00000000E+00   3.45143658E+00
   5.42500000E+02   5.00000000E-01   5.00000000E-01   9.99996712E-02   9.99999687E-02   9.99978812E-02   9.99991595E-02   1.00022719E-01   1.32131268E+03   9.99934563E-02   9.99965240E-02   9.99999986E-02   9.99804366E-02   1.64701421E+02   0.00000000E+00   2.12287358E+02   9.96386968E-02   0.00000000E+00   3.37808870E+00
   5.77500000E+02   5.00000000E-01   5.00000000E-01   9.99996712E-02   9.99999687E-02   9.99978812E-02   9.99991595E-02   1.00023178E-01   1.36536634E+03   9.99932729E-02   9.99965244E-02   9.99999985E-02   9.99805300E-02   1.65357300E+02   0.00000000E+00   2.14628408E+02   9.96387084E-02   0.00000000E+00   3.30493058E+00
   6.12500000E+02   5.00000000E-01   5.00000000E-01   9.99996712E-02   9.99999687E-02   9.99978812E-02   9.99991595E-02   1.00023550E-01   1.41067248E+03   9.99930870E-02   9.99965249E-02   9.99999984E-02   9.99806278E-02   1.65969776E+02   0.00000000E+00   2.16940469E+02   9.96387189E-02   0.00000000E+00   3.23216750E+00
   6.47500000E+02   5.00000000E-01   5.00000000E-01   9.99996712E-02   9.99999687E-02   9.99978812E-02   9.99991595E-02   1.00023845E-01   1.45670070E+03   9.99928982E-02   9.99965253E-02   9.99999983E-02   9.99807290E-02   1.66443990E+02   1.92428049E+00   2.19207416E+02   9.96387281E-02   0.00000000E+00   3.16011280E+00
   6.82500000E+02   5.00000000E-01   5.00000000E-01   9.99996712E-02   9.99999688E-02   9.99978812E-02   9.99991595E-02   1.00024068E-01   1.50350567E+03   9.99927090E-02   9.99965257E-02   9.99999983E-02   9.99808342E-02   1.66850203E+02   3.16942649E+00   2.21408206E+02   9.96387362E-02   0.00000000E+00   3.08889242E+00
   7.17500000E+02   5.00000000E-01   5.00000000E-01   9.99996712E-02   9.99999688E-02   9.99978812E-02   9.99991595E-02   1.00024228E-01   1.55091492E+03   9.99925206E-02   9.99965261E-02   9.99999981E-02   9.99809434E-02   1.67185520E+02   4.30562502E+00   2.23511029E+02   9.96387433E-02   0.00000000E+00   3.01864581E+00
   7.52500000E+02   5.00000000E-01   5.00000000E-01   9.99996712E-02   9.99999688E-02   9.99978812E-02   9.99991595E-02   1.00024330E-01   1.59874095E+03   9.99923336E-02   9.99965265E-02   9.99999980E-02   9.99810566E-02   1.67447696E+02   5.40505390E+00   2.25488890E+02   9.96387492E-02   0.00000000E+00   2.94951542E+00
   7.87500000E+02   5.00000000E-01   5.00000000E-01   9.99996712E-02   9.99999688E-02   9.99978812E-02   9.99991595E-02   1.00024381E-01   1.64677841E+03   9.99921490E-02   9.99965268E-02   9.99999979E-02   9.99811737E-02   1.67635924E+02   6.49647575E+00   2.27315371E+02   9.96387540E-02   0.00000000E+00   2.88164554E+00
   8.22500000E+02   5.00000000E-01   5.00000000E-01   9.99996712E-02   9.99999688E-02   9.99978812E-02   9.99991595E-02   1.00024386E-01   1.69480934E+03   9.99919675E-02   9.99965270E-02   9.99999978E-02   9.99812947E-02   1.67750644E+02   7.59507034E+00   2.28964545E+02   9.96387577E-02   0.00000000E+00   2.81518357E+00
   8.57500000E+02   5.00000000E-01   5.00000000E-01   9.99996712E-02   9.99999688E-02   9.99978812E-02   9.99991595E-02   1.00024351E-01   1.74260335E+03   9.99917900E-02   9.99965273E-02   9.99999977E-02   9.99814196E-02   1.67793778E+02   8.70939941E+00   2.30411545E+02   9.96387604E-02   0.00000000E+00   2.75027273E+00
   8.92500000E+02   5.00000000E-01   5.00000000E-01   9.99996712E-02   9.99999688E-02   9.99978812E-02   9.99991595E-02   1.00024279E-01   1.78992102E+03   9.99916172E-02   9.99965275E-02   9.99999978E-02   9.99815483E-02   1.67768592E+02   9.84488376E+00   2.31633038E+02   9.96387621E-02   0.00000000E+00   2.68705388E+00
   9.27500000E+02   5.00000000E-01   5.00000000E-01   9.99996712E-02   9.99999688E-02   9.99978812E-02   9.99991595E-02   1.00024175E-01   1.83652236E+03   9.99914499E-02   9.99965277E-02   9.99999978E-02   9.99816810E-02   1.67679512E+02   1.10047986E+01   2.32608022E+02   9.96387628E-02   0.00000000E+00   2.62565656E+00
   9.62500000E+02   5.00000000E-01   5.00000000E-01   9.99996712E-02   9.99999688E-02   9.99978812E-02   9.99991595E-02   1.00024044E-01   1.88216986E+03   9.99912885E-02   9.99965278E-02   9.99999978E-02   9.99818177E-02   1.67532047E+02   1.21911065E+01   2.33317552E+02   9.96387626E-02   0.00000000E+00   2.56620238E+00
   9.97500000E+02   5.00000000E-01   5.00000000E-01   9.99996712E-02   9.99999688E-02   9.99978812E-02   9.99991595E-02   1.00023889E-01   1.92663930E+03   9.99911338E-02   9.99965279E-02   9.99999979E-02   9.99819584E-02   1.67332360E+02   1.34048661E+01   2.33745084E+02   9.96387615E-02   0.00000000E+00   2.50879578E+00
   1.03250000E+03   5.00000000E-01   5.00000000E-01   9.99996712E-02   9.99999688E-02   9.99978812E-02   9.99991595E-02   1.00023713E-01   1.96970934E+03   9.99909861E-02   9.99965280E-02   9.99999980E-02   9.99821033E-02   1.67087799E+02   1.46462233E+01   2.33877711E+02   9.96387596E-02   0.00000000E+00   2.45352771E+00
   1.06750000E+03   5.00000000E-01   5.00000000E-01   9.99996712E-02   9.99999688E-02   9.99978812E-02   9.99991595E-02   1.00023518E-01   2.01119300E+03   9.99908459E-02   9.99965280E-02   9.99999981E-02   9.99822526E-02   1.66805351E+02   1.59150766E+01   2.33705332E+02   9.96387571E-02   0.00000000E+00   2.40045943E+00
   1.10250000E+03   5.00000000E-01   5.00000000E-01   9.99996713E-02   9.99999688E-02   9.99978812E-02   9.99991595E-02   1.00023308E-01   2.05090497E+03   9.99907134E-02   9.99965280E-02   9.99999981E-02   9.99824065E-02   1.66493084E+02   1.72109505E+01   2.33222495E+02   9.96387538E-02   0.00000000E+00   2.34963232E+00
   1.13750000E+03   5.00000000E-01   5.00000000E-01   9.99996713E-02   9.99999688E-02   9.99978812E-02   9.99991595E-02   1.00023086E-01   2.08871127E+03   9.99905887E-02   9.99965280E-02   9.99999982E-02   9.99825650E-02   1.66158000E+02   1.85327917E+01   2.32426128E+02   9.96387499E-02   0.00000000E+00   2.30105001E+00
   1.17250000E+03   5.00000000E-01   5.00000000E-01   9.99996713E-02   9.99999688E-02   9.99978812E-02   9.99991595E-02   1.00022852E-01   2.12448115E+03   9.99904720E-02   9.99965279E-02   9.99999983E-02   9.99827285E-02   1.65807559E+02   1.98806301E+01   2.31318853E+02   9.96387455E-02   0.00000000E+00   2.25469712E+00
   1.20750000E+03   5.00000000E-01   5.00000000E-01   9.99996713E-02   9.99999688E-02   9.99978812E-02   9.99991595E-02   1.00022610E-01   2.15814911E+03   9.99903632E-02   9.99965278E-02   9.99999984E-02   9.99828972E-02   1.65447553E+02   2.12532827E+01   2.29905322E+02   9.96387405E-02   0.00000000E+00   2.21050000E+00
   1.24250000E+03   5.00000000E-01   5.00000000E-01   9.99996713E-02   9.99999688E-02   9.99978812E-02   9.99991595E-02   1.00022360E-01   2.18965458E+03   9.99902621E-02   9.99965277E-02   9.99999985E-02   9.99830713E-02   1.65083975E+02   2.26507370E+01   2.28196168E+02   9.96387351E-02   0.00000000E+00   2.16843204E+00
   1.27750000E+03   5.00000000E-01   5.00000000E-01   9.99996714E-02   9.99999688E-02   9.99978812E-02   9.99991595E-02   1.00022105E-01   2.21903841E+03   9.99901685E-02   9.99965276E-02   9.99999985E-02   9.99832509E-02   1.64719274E+02   2.40718108E+01   2.26201514E+02   9.96387293E-02   0.00000000E+00   2.12849099E+00
   1.31250000E+03   5.00000000E-01   5.00000000E-01   9.99996715E-02   9.99999689E-02   9.99978812E-02   9.99991595E-02   1.00021845E-01   2.24636367E+03   9.99900819E-02   9.99965274E-02   9.99999986E-02   9.99834363E-02   1.64355338E+02   2.55154642E+01   2.23935299E+02   9.96387231E-02   0.00000000E+00   2.09059487E+00
   1.34750000E+03   5.00000000E-01   5.00000000E-01   9.99996716E-02   9.99999689E-02   9.99978812E-02   9.99991595E-02   1.00021582E-01   2.27172595E+03   9.99900021E-02   9.99965272E-02   9.99999987E-02   9.99836276E-02   1.63992709E+02   2.69812188E+01   2.21414351E+02   9.96387165E-02   0.00000000E+00   2.05463969E+00
   1.38250000E+03   5.00000000E-01   5.00000000E-01   9.99996717E-02   9.99999689E-02   9.99978812E-02   9.99991595E-02   1.00021318E-01   2.29523985E+03   9.99899284E-02   9.99965270E-02   9.99999987E-02   9.99838248E-02   1.63631349E+02   2.84685413E+01   2.18658432E+02   9.96387095E-02   0.00000000E+00   2.02052350E+00
   1.41750000E+03   5.00000000E-01   5.00000000E-01   9.99996719E-02   9.99999689E-02   9.99978812E-02   9.99991595E-02   1.00021052E-01   2.31704078E+03   9.99898604E-02   9.99965268E-02   9.99999986E-02   9.99840281E-02   1.63270325E+02   2.99772733E+01   2.15689376E+02   9.96387022E-02   0.00000000E+00   1.98813332E+00
   1.45250000E+03   5.00000000E-01   5.00000000E-01   9.99996722E-02   9.99999689E-02   9.99978812E-02   9.99991595E-02   1.00020785E-01   2.33728064E+03   9.99897974E-02   9.99965266E-02   9.99999985E-02   9.99842375E-02   1.62908066E+02   3.15072925E+01   2.12530367E+02   9.96386946E-02   0.00000000E+00   1.95733487E+00
   1.48750000E+03   5.00000000E-01   5.00000000E-01   9.99996727E-02   9.99999689E-02   9.99978812E-02   9.99991595E-02   1.00020519E-01   2.35614226E+03   9.99897388E-02   9.99965263E-02   9.99999983E-02   9.99844528E-02   1.62541519E+02   3.30587465E+01   2.09203630E+02   9.96386866E-02   0.00000000E+00   1.92800339E+00
   1.52250000E+03   5.00000000E-01   5.00000000E-01   9.99996732E-02   9.99999690E-02   9.99978812E-02   9.99991595E-02   1.00020254E-01   2.37379851E+03   9.99896840E-02   9.99965261E-02   9.99999979E-02   9.99846741E-02   1.62167941E+02   3.46320845E+01   2.05732253E+02   9.96386783E-02   0.00000000E+00   1.90000118E+00
   1.55750000E+03   5.00000000E-01   5.00000000E-01   9.99996740E-02   9.99999690E-02   9.99978812E-02   9.99991595E-02   1.00019991E-01   2.39043383E+03   9.99896323E-02   9.99965259E-02   9.99999973E-02   9.99849012E-02   1.61783897E+02   3.62278687E+01   2.02137759E+02   9.96386697E-02   0.00000000E+00   1.87318304E+00
   1.59250000E+03   5.00000000E-01   5.00000000E-01   9.99996750E-02   9.99999690E-02   9.99978812E-02   9.99991595E-02   1.00019729E-01   2.40622245E+03   9.99895832E-02   9.99965256E-02   9.99999964E-02   9.99851339E-02   1.61386108E+02   3.78469319E+01   1.98440772E+02   9.96386607E-02   0.00000000E+00   1.84740767E+00
   1.62750000E+03   5.00000000E-01   5.00000000E-01   9.99996763E-02   9.99999690E-02   9.99978812E-02   9.99991595E-02   1.00019470E-01   2.42132250E+03   9.99895359E-02   9.99965254E-02   9.99999951E-02   9.99853720E-02   1.60971733E+02   3.94901672E+01   1.94661059E+02   9.96386514E-02   0.00000000E+00   1.82254091E+00
   1.66250000E+03   5.00000000E-01   5.00000000E-01   9.99996778E-02   9.99999691E-02   9.99978812E-02   9.99991595E-02   1.00019213E-01   2.43588532E+03   9.99894901E-02   9.99965252E-02   9.99999932E-02   9.99856153E-02   1.60537723E+02   4.11588158E+01   1.90816319E+02   9.96386418E-02   0.00000000E+00   1.79845824E+00
   1.69750000E+03   5.00000000E-01   5.00000000E-01   9.99996797E-02   9.99999691E-02   9.99978812E-02   9.99991595E-02   1.00018960E-01   2.45004159E+03   9.99894451E-02   9.99965250E-02   9.99999906E-02   9.99858635E-02   1.60081521E+02   4.28541158E+01   1.86923281E+02   9.96386319E-02   0.00000000E+00   1.77504185E+00
   1.73250000E+03   5.00000000E-01   5.00000000E-01   9.99996820E-02   9.99999691E-02   9.99978812E-02   9.99991595E-02   1.00018709E-01   2.46390324E+03   9.99894005E-02   9.99965248E-02   9.99999870E-02   9.99861164E-02   1.59600859E+02   4.45774861E+01   1.82997226E+02   9.96386217E-02   0.00000000E+00   1.75217801E+00
   1.76750000E+03   5.00000000E-01   5.00000000E-01   9.99996845E-02   9.99999691E-02   9.99978812E-02   9.99991595E-02   1.00018462E-01   2.47756751E+03   9.99893560E-02   9.99965246E-02   9.99999822E-02   9.99863736E-02   1.59093632E+02   4.63302963E+01   1.79051988E+02   9.96386112E-02   0.00000000E+00   1.72977111E+00
   1.80250000E+03   5.00000000E-01   5.00000000E-01   9.99996874E-02   9.99999691E-02   9.99978812E-02   9.99991595E-02   1.00018217E-01   2.49111356E+03   9.99893112E-02   9.99965245E-02   9.99999759E-02   9.99866349E-02   1.58558031E+02   4.81138356E+01   1.75099959E+02   9.96386004E-02   0.00000000E+00   1.70773014E+00
   1.83750000E+03   5.00000000E-01   5.00000000E-01   9.99996906E-02   9.99999692E-02   9.99978812E-02   9.99991595E-02   1.00017977E-01   2.50460510E+03   9.99892657E-02   9.99965244E-02   9.99999677E-02   9.99868999E-02   1.57992493E+02   4.99293381E+01   1.71152113E+02   9.96385893E-02   0.00000000E+00   1.68597798E+00
   1.87250000E+03   5.00000000E-01   5.00000000E-01   9.99996940E-02   9.99999692E-02   9.99978812E-02   9.99991595E-02   1.00017740E-01   2.51808799E+03   9.99892193E-02   9.99965243E-02   9.99999572E-02   9.99871683E-02   1.57395763E+02   5.17779097E+01   1.67218641E+02   9.96385780E-02   0.00000000E+00   1.66444810E+00
   1.90750000E+03   5.00000000E-01   5.00000000E-01   9.99996977E-02   9.99999692E-02   9.99978812E-02   9.99991595E-02   1.00017507E-01   2.53159826E+03   9.99891719E-02   9.99965242E-02   9.99999440E-02   9.99874398E-02   1.56766745E+02   5.36604448E+01   1.63307825E+02   9.96385665E-02   0.00000000E+00   1.64308497E+00
   1.94250000E+03   5.00000000E-01   5.00000000E-01   9.99997016E-02   9.99999692E-02   9.99978812E-02   9.99991595E-02   1.00017277E-01   2.54516703E+03   9.99891233E-02   9.99965241E-02   9.99999276E-02   9.99877139E-02   1.56104210E+02   5.55775582E+01   1.59426752E+02   9.96385548E-02   0.00000000E+00   1.62183591E+00
   1.97750000E+03   5.00000000E-01   5.00000000E-01   9.99997057E-02   9.99999692E-02   9.99978812E-02   9.99991595E-02   1.00017051E-01   2.55880754E+03   9.99890733E-02   9.99965241E-02   9.99999074E-02   9.99879903E-02   1.55407457E+02   5.75296800E+01   1.55582375E+02   9.96385429E-02   0.00000000E+00   1.60066239E+00
   2.01250000E+03   5.00000000E-01   5.00000000E-01   9.99997101E-02   9.99999692E-02   9.99978812E-02   9.99991595E-02   1.00016829E-01   2.57253907E+03   9.99890219E-02   9.99965241E-02   9.99998829E-02   9.99882686E-02   1.54675243E+02   5.95169673E+01   1.51780069E+02   9.96385309E-02   0.00000000E+00   1.57953030E+00
   2.04750000E+03   5.00000000E-01   5.00000000E-01   9.99997145E-02   9.99999692E-02   9.99978812E-02   9.99991595E-02   1.00016611E-01   2.58636871E+03   9.99889691E-02   9.99965241E-02   9.99998533E-02   9.99885484E-02   1.53906768E+02   6.15391631E+01   1.48025525E+02   9.96385187E-02   0.00000000E+00   1.55841451E+00
   2.08250000E+03   5.00000000E-01   5.00000000E-01   9.99997192E-02   9.99999692E-02   9.99978812E-02   9.99991595E-02   1.00016397E-01   2.60030098E+03   9.99889148E-02   9.99965242E-02   9.99998180E-02   9.99888292E-02   1.53101162E+02   6.35958589E+01   1.44323929E+02   9.96385064E-02   0.00000000E+00   1.53729949E+00
   2.11750000E+03   5.00000000E-01   5.00000000E-01   9.99997240E-02   9.99999692E-02   9.99978812E-02   9.99991595E-02   1.00016186E-01   2.61434639E+03   9.99888590E-02   9.99965243E-02   9.99997762E-02   9.99891106E-02   1.52257294E+02   6.56862600E+01   1.40678795E+02   9.96384940E-02   0.00000000E+00   1.51616197E+00
   2.15250000E+03   5.00000000E-01   5.00000000E-01   9.99997289E-02   9.99999693E-02   9.99978812E-02   9.99991595E-02   1.00015979E-01   2.62069785E+03   9.99888014E-02   9.99965244E-02   9.99997270E-02   9.99894100E-02   1.51608531E+02   6.79503833E+01   1.38334462E+02   9.96384818E-02   0.00000000E+00   1.49460513E+00
   2.18750000E+03   5.00000000E-01   5.00000000E-01   9.99997339E-02   9.99999693E-02   9.99978812E-02   9.99991595E-02   1.00015775E-01   2.62099628E+03   9.99887414E-02   9.99965246E-02   9.99996698E-02   9.99897233E-02   1.51095247E+02   7.04369042E+01   1.36800767E+02   9.96384697E-02   0.00000000E+00   1.47245923E+00
   2.22250000E+03   5.00000000E-01   5.00000000E-01   9.99997390E-02   9.99999693E-02   9.99978812E-02   9.99991595E-02   1.00015575E-01   2.62024168E+03   9.99886784E-02   9.99965248E-02   9.99996038E-02   9.99900389E-02   1.50556409E+02   7.30676788E+01   1.35387950E+02   9.96384575E-02   0.00000000E+00   1.44979386E+00
   2.25750000E+03   5.00000000E-01   5.00000000E-01   9.99997443E-02   9.99999693E-02   9.99978812E-02   9.99991595E-02   1.00015379E-01   2.61927409E+03   9.99886126E-02   9.99965251E-02   9.99995283E-02   9.99903537E-02   1.49955448E+02   7.58127212E+01   1.34111201E+02   9.96384452E-02   0.00000000E+00   1.42665984E+00
   2.29250000E+03   5.00000000E-01   5.00000000E-01   9.99997496E-02   9.99999693E-02   9.99978813E-02   9.99991595E-02   1.00015187E-01   2.61894586E+03   9.99885442E-02   9.99965254E-02   9.99994429E-02   9.99906645E-02   1.49262693E+02   7.86483743E+01   1.32861814E+02   9.96384328E-02   0.00000000E+00   1.40313224E+00
   2.32750000E+03   5.00000000E-01   5.00000000E-01   9.99997551E-02   9.99999693E-02   9.99978813E-02   9.99991595E-02   1.00014999E-01   2.61938785E+03   9.99884736E-02   9.99965257E-02   9.99993474E-02   9.99909702E-02   1.48472279E+02   8.15593912E+01   1.31645635E+02   9.96384204E-02   0.00000000E+00   1.37927039E+00
   2.36250000E+03   5.00000000E-01   5.00000000E-01   9.99997607E-02   9.99999693E-02   9.99978813E-02   9.99991595E-02   1.00014814E-01   2.61973903E+03   9.99884009E-02   9.99965260E-02   9.99992420E-02   9.99912726E-02   1.47611168E+02   8.45468513E+01   1.30606218E+02   9.96384079E-02   0.00000000E+00   1.35514370E+00
   2.39750000E+03   5.00000000E-01   5.00000000E-01   9.99997665E-02   9.99999693E-02   9.99978813E-02   9.99991595E-02   1.00014632E-01   2.61933973E+03   9.99883265E-02   9.99965264E-02   9.99991274E-02   9.99915729E-02   1.46699979E+02   8.76161084E+01   1.29825350E+02   9.96383955E-02   0.00000000E+00   1.33091147E+00
   2.43250000E+03   5.00000000E-01   5.00000000E-01   9.99997726E-02   9.99999693E-02   9.99978813E-02   9.99991595E-02   1.00014454E-01   2.61941141E+03   9.99882504E-02   9.99965269E-02   9.99990053E-02   9.99918670E-02   1.45701551E+02   9.07446672E+01   1.29087004E+02   9.96383831E-02   0.00000000E+00   1.30660916E+00
   2.46750000E+03   5.00000000E-01   5.00000000E-01   9.99997791E-02   9.99999693E-02   9.99978813E-02   9.99991595E-02   1.00014280E-01   2.62009134E+03   9.99881728E-02   9.99965273E-02   9.99988781E-02   9.99921532E-02   1.44609623E+02   9.39204856E+01   1.28399059E+02   9.96383708E-02   0.00000000E+00   1.28227538E+00
   2.50250000E+03   5.00000000E-01   5.00000000E-01   9.99997862E-02   9.99999693E-02   9.99978813E-02   9.99991595E-02   1.00014109E-01   2.62130605E+03   9.99880940E-02   9.99965278E-02   9.99987489E-02   9.99924311E-02   1.43426999E+02   9.71373618E+01   1.27767065E+02   9.96383586E-02   0.00000000E+00   1.25793193E+00
   2.53750000E+03   5.00000000E-01   5.00000000E-01   9.99997940E-02   9.99999693E-02   9.99978813E-02   9.99991595E-02   1.00013942E-01   2.62299064E+03   9.99880141E-02   9.99965283E-02   9.99986218E-02   9.99926999E-02   1.42155774E+02   1.00388816E+02   1.27196870E+02   9.96383465E-02   0.00000000E+00   1.23360165E+00
   2.57250000E+03   5.00000000E-01   5.00000000E-01   9.99998027E-02   9.99999693E-02   9.99978813E-02   9.99991595E-02   1.00013778E-01   2.62496507E+03   9.99879334E-02   9.99965287E-02   9.99985019E-02   9.99929594E-02   1.40800163E+02   1.03675940E+02   1.26694687E+02   9.96383345E-02   0.00000000E+00   1.20931041E+00
   2.60750000E+03   5.00000000E-01   5.00000000E-01   9.99998125E-02   9.99999693E-02   9.99978813E-02   9.99991595E-02   1.00013617E-01   2.62710768E+03   9.99878519E-02   9.99965291E-02   9.99983951E-02   9.99932093E-02   1.39359631E+02   1.07000608E+02   1.26266844E+02   9.96383227E-02   0.00000000E+00   1.18507334E+00
   2.64250000E+03   5.00000000E-01   5.00000000E-01   9.99998236E-02   9.99999694E-02   9.99978813E-02   9.99991595E-02   1.00013460E-01   2.62922403E+03   9.99877699E-02   9.99965295E-02   9.99983077E-02   9.99934493E-02   1.37837646E+02   1.10365907E+02   1.25919546E+02   9.96383111E-02   0.00000000E+00   1.16089245E+00
   2.67750000E+03   5.00000000E-01   5.00000000E-01   9.99998364E-02   9.99999694E-02   9.99978813E-02   9.99991595E-02   1.00013306E-01   2.62861022E+03   9.99876873E-02   9.99965297E-02   9.99982465E-02   9.99936875E-02   1.36307464E+02   1.13818823E+02   1.26081737E+02   9.96382998E-02   0.00000000E+00   1.13661404E+00
   2.71250000E+03   5.00000000E-01   5.00000000E-01   9.99998508E-02   9.99999694E-02   9.99978813E-02   9.99991595E-02   1.00013155E-01   2.62678371E+03   9.99876043E-02   9.99965299E-02   9.99982179E-02   9.99939183E-02   1.34723260E+02   1.17345727E+02   1.26407161E+02   9.96382886E-02   0.00000000E+00   1.11226736E+00
   2.74750000E+03   5.00000000E-01   5.00000000E-01   9.99998619E-02   9.99999694E-02   9.99978813E-02   9.99991595E-02   1.00013007E-01   2.62620998E+03   9.99875205E-02   9.99965300E-02   9.99981941E-02   9.99941334E-02   1.33044471E+02   1.20833111E+02   1.26820123E+02   9.96382777E-02   0.00000000E+00   1.08770472E+00
   2.78250000E+03   5.00000000E-01   5.00000000E-01   9.99998731E-02   9.99999694E-02   9.99978813E-02   9.99991595E-02   1.00012862E-01   2.62643132E+03   9.99874364E-02   9.99965301E-02   9.99981670E-02   9.99943336E-02   1.31276628E+02   1.24302821E+02   1.27325714E+02   9.96382669E-02   0.00000000E+00   1.06329505E+00
   2.81750000E+03   5.00000000E-01   5.00000000E-01   9.99998847E-02   9.99999694E-02   9.99978813E-02   9.99991595E-02   1.00012721E-01   2.62716074E+03   9.99873520E-02   9.99965302E-02   9.99981456E-02   9.99945188E-02   1.29427792E+02   1.27760410E+02   1.27927994E+02   9.96382564E-02   0.00000000E+00   1.03875718E+00
   2.85250000E+03   5.00000000E-01   5.00000000E-01   9.99998966E-02   9.99999694E-02   9.99978813E-02   9.99991595E-02   1.00012583E-01   2.62860318E+03   9.99872675E-02   9.99965303E-02   9.99981425E-02   9.99946879E-02   1.27500066E+02   1.31183713E+02   1.28631097E+02   9.96382462E-02   0.00000000E+00   1.01392054E+00
   2.88750000E+03   5.00000000E-01   5.00000000E-01   9.99999087E-02   9.99999694E-02   9.99978813E-02   9.99991595E-02   1.00012447E-01   2.63103886E+03   9.99871831E-02   9.99965304E-02   9.99981659E-02   9.99948397E-02   1.25494997E+02   1.34547623E+02   1.29439350E+02   9.96382362E-02   0.00000000E+00   9.88840537E-01
   2.92250000E+03   5.00000000E-01   5.00000000E-01   9.99999209E-02   9.99999694E-02   9.99978813E-02   9.99991595E-02   1.00012315E-01   2.63466900E+03   9.99870987E-02   9.99965303E-02   9.99982189E-02   9.99949737E-02   1.23415388E+02   1.37833176E+02   1.30357160E+02   9.96382265E-02   0.00000000E+00   9.64720075E-01
   2.95750000E+03   5.00000000E-01   5.00000000E-01   9.99999331E-02   9.99999695E-02   9.99978813E-02   9.99991595E-02   1.00012185E-01   2.63970001E+03   9.99870146E-02   9.99965303E-02   9.99983000E-02   9.99950890E-02   1.21265170E+02   1.41021492E+02   1.31388835E+02   9.96382171E-02   0.00000000E+00   9.40319298E-01
   2.99250000E+03   5.00000000E-01   5.00000000E-01   9.99999453E-02   9.99999695E-02   9.99978813E-02   9.99991595E-02   1.00012059E-01   2.64625143E+03   9.99869308E-02   9.99965301E-02   9.99984057E-02   9.99951855E-02   1.19049180E+02   1.44099700E+02   1.32538370E+02   9.96382080E-02   0.00000000E+00   9.15644685E-01
   3.02750000E+03   5.00000000E-01   5.00000000E-01   9.99999574E-02   9.99999695E-02   9.99978813E-02   9.99991595E-02   1.00011935E-01   2.65446212E+03   9.99868475E-02   9.99965299E-02   9.99985308E-02   9.99952626E-02   1.16771770E+02   1.47054966E+02   1.33809204E+02   9.96381992E-02   0.00000000E+00   8.90700726E-01
   3.06250000E+03   5.00000000E-01   5.00000000E-01   9.99999693E-02   9.99999695E-02   9.99978813E-02   9.99991595E-02   1.00011814E-01   2.66446863E+03   9.99867646E-02   9.99965297E-02   9.99986694E-02   9.99953202E-02   1.14437420E+02   1.49875006E+02   1.35203950E+02   9.96381906E-02   0.00000000E+00   8.65489323E-01
   3.09750000E+03   5.00000000E-01   5.00000000E-01   9.99999809E-02   9.99999695E-02   9.99978813E-02   9.99991595E-02   1.00011695E-01   2.67640050E+03   9.99866824E-02   9.99965294E-02   9.99988153E-02   9.99953581E-02   1.12051145E+02   1.52547910E+02   1.36724118E+02   9.96381824E-02   0.00000000E+00   8.40009204E-01
   3.13250000E+03   5.00000000E-01   5.00000000E-01   9.99999923E-02   9.99999695E-02   9.99978813E-02   9.99991595E-02   1.00011580E-01   2.69038814E+03   9.99866008E-02   9.99965290E-02   9.99989626E-02   9.99953761E-02   1.09618003E+02   1.55061854E+02   1.38369848E+02   9.96381745E-02   0.00000000E+00   8.14549942E-01
   3.16750000E+03   5.00000000E-01   5.00000000E-01   1.00000003E-01   9.99999695E-02   9.99978813E-02   9.99991595E-02   1.00011467E-01   2.70655442E+03   9.99865199E-02   9.99965286E-02   9.99991053E-02   9.99953743E-02   1.07142295E+02   1.57406424E+02   1.40139665E+02   9.96381668E-02   0.00000000E+00   7.90985810E-01