 TITLE = "Mineral Area" 
VARIABLES = "X"          "Y"              "Z"            "Forsterite"     "Enstatite(alph" "Anorthite"      "Ferropargasite" "Anhydrite"      "Clinochlore"    "Albite(low)"    "Fayalite"       "Epidote"        "Kaolinite"      "Muscovite(orde" "Sudoite"        "Saponite(Mg)"   "Scolecite"      "Pyrite"         "Quartz(alpha)" 
 ZONE I=         100 , J=           1 , K=           1  F=POINT
   1.75000000E+01   5.00000000E-01   5.00000000E-01   9.99934248E-02   9.99993743E-02   9.99576284E-02   9.99831898E-02   7.17904462E-02   1.94033242E+04   9.97979968E-02   9.99303561E-02   9.99999997E-02   9.95897840E-02   1.18254423E+03   0.00000000E+00   1.11276369E+03   9.28882165E-02   0.00000000E+00   2.28987074E+01
   5.25000000E+01   5.00000000E-01   5.00000000E-01   9.99934248E-02   9.99993743E-02   9.99576284E-02   9.99831898E-02   9.28490285E-02   1.13563164E+04   9.98514784E-02   9.99303600E-02   9.99999998E-02   9.95917067E-02   1.28259845E+03   0.00000000E+00   1.14812378E+03   9.28907530E-02   0.00000000E+00   2.71669101E+01
   8.75000000E+01   5.00000000E-01   5.00000000E-01   9.99934248E-02   9.99993744E-02   9.99576284E-02   9.99831898E-02   9.89552020E-02   8.48652476E+03   9.98763584E-02   9.99303656E-02   9.99999998E-02   9.95925583E-02   1.24264234E+03   0.00000000E+00   1.30623501E+03   9.28914684E-02   0.00000000E+00   2.90398383E+01
   1.22500000E+02   5.00000000E-01   5.00000000E-01   9.99934248E-02   9.99993744E-02   9.99576284E-02   9.99831898E-02   1.00477143E-01   7.20794030E+03   9.98892576E-02   9.99303729E-02   9.99999997E-02   9.95933484E-02   1.20939523E+03   0.00000000E+00   1.36992753E+03   9.28918351E-02   0.00000000E+00   2.98584503E+01
   1.57500000E+02   5.00000000E-01   5.00000000E-01   9.99934248E-02   9.99993744E-02   9.99576284E-02   9.99831898E-02   1.00848129E-01   6.57259152E+03   9.98959816E-02   9.99303817E-02   9.99999996E-02   9.95942042E-02   1.18886388E+03   0.00000000E+00   1.40584619E+03   9.28921492E-02   0.00000000E+00   3.01337628E+01
   1.92500000E+02   5.00000000E-01   5.00000000E-01   9.99934248E-02   9.99993744E-02   9.99576284E-02   9.99831898E-02   1.00945040E-01   6.25362930E+03   9.98992084E-02   9.99303918E-02   9.99999996E-02   9.95951495E-02   1.17789281E+03   0.00000000E+00   1.43156945E+03   9.28924702E-02   0.00000000E+00   3.01033352E+01
   2.27500000E+02   5.00000000E-01   5.00000000E-01   9.99934248E-02   9.99993745E-02   9.99576284E-02   9.99831898E-02   1.00975755E-01   6.11042069E+03   9.99003235E-02   9.99304031E-02   9.99999995E-02   9.95961881E-02   1.17339701E+03   0.00000000E+00   1.45305260E+03   9.28928047E-02   0.00000000E+00   2.98916165E+01
   2.62500000E+02   5.00000000E-01   5.00000000E-01   9.99934248E-02   9.99993745E-02   9.99576284E-02   9.99831898E-02   1.00988650E-01   6.07325149E+03   9.99001003E-02   9.99304155E-02   9.99999994E-02   9.95973198E-02   1.17319713E+03   0.00000000E+00   1.47270876E+03   9.28931487E-02   0.00000000E+00   2.95688308E+01
   2.97500000E+02   5.00000000E-01   5.00000000E-01   9.99934248E-02   9.99993745E-02   9.99576284E-02   9.99831898E-02   1.00994949E-01   6.10419462E+03   9.98989949E-02   9.99304289E-02   9.99999993E-02   9.95985442E-02   1.17584280E+03   0.00000000E+00   1.49164441E+03   9.28934968E-02   0.00000000E+00   2.91765890E+01
   3.32500000E+02   5.00000000E-01   5.00000000E-01   9.99934248E-02   9.99993746E-02   9.99576284E-02   9.99831898E-02   1.00997362E-01   6.18126210E+03   9.98972873E-02   9.99304431E-02   9.99999992E-02   9.95998615E-02   1.18037716E+03   0.00000000E+00   1.51040579E+03   9.28938445E-02   0.00000000E+00   2.87404201E+01
   3.67500000E+02   5.00000000E-01   5.00000000E-01   9.99934248E-02   9.99993746E-02   9.99576284E-02   9.99831898E-02   1.00996683E-01   6.29109583E+03   9.98951555E-02   9.99304581E-02   9.99999992E-02   9.96012726E-02   1.18616422E+03   0.00000000E+00   1.52926662E+03   9.28941883E-02   0.00000000E+00   2.82764222E+01
   4.02500000E+02   5.00000000E-01   5.00000000E-01   9.99934248E-02   9.99993746E-02   9.99576284E-02   9.99831898E-02   1.00993284E-01   6.42527067E+03   9.98927163E-02   9.99304737E-02   9.99999990E-02   9.96027791E-02   1.19277467E+03   0.00000000E+00   1.54835152E+03   9.28945254E-02   0.00000000E+00   2.77949990E+01
   4.37500000E+02   5.00000000E-01   5.00000000E-01   9.99934248E-02   9.99993747E-02   9.99576284E-02   9.99831898E-02   1.00987436E-01   6.57815994E+03   9.98900488E-02   9.99304898E-02   9.99999989E-02   9.96043828E-02   1.19991622E+03   0.00000000E+00   1.56770387E+03   9.28948536E-02   0.00000000E+00   2.73030272E+01
   4.72500000E+02   5.00000000E-01   5.00000000E-01   9.99934248E-02   9.99993747E-02   9.99576284E-02   9.99831898E-02   1.00979389E-01   6.74584484E+03   9.98872087E-02   9.99305064E-02   9.99999988E-02   9.96060857E-02   1.20738591E+03   0.00000000E+00   1.58731042E+03   9.28951712E-02   0.00000000E+00   2.68051737E+01
   5.07500000E+02   5.00000000E-01   5.00000000E-01   9.99934248E-02   9.99993748E-02   9.99576284E-02   9.99831898E-02   1.00969376E-01   6.92618242E+03   9.98842379E-02   9.99305234E-02   9.99999987E-02   9.96078897E-02   1.21501889E+03   0.00000000E+00   1.60705797E+03   9.28954766E-02   0.00000000E+00   2.63048189E+01
   5.42500000E+02   5.00000000E-01   5.00000000E-01   9.99934248E-02   9.99993748E-02   9.99576284E-02   9.99831898E-02   1.00957620E-01   7.11718420E+03   9.98811690E-02   9.99305407E-02   9.99999986E-02   9.96097970E-02   1.22269873E+03   0.00000000E+00   1.62684673E+03   9.28957687E-02   0.00000000E+00   2.58044480E+01
   5.77500000E+02   5.00000000E-01   5.00000000E-01   9.99934248E-02   9.99993748E-02   9.99576284E-02   9.99831898E-02   1.00944331E-01   7.31726949E+03   9.98780288E-02   9.99305583E-02   9.99999985E-02   9.96118095E-02   1.23033551E+03   0.00000000E+00   1.64654131E+03   9.28960465E-02   0.00000000E+00   2.53059986E+01
   6.12500000E+02   5.00000000E-01   5.00000000E-01   9.99934248E-02   9.99993749E-02   9.99576284E-02   9.99831898E-02   1.00929708E-01   7.52505670E+03   9.98748411E-02   9.99305760E-02   9.99999984E-02   9.96139294E-02   1.23785828E+03   0.00000000E+00   1.66598484E+03   9.28963091E-02   0.00000000E+00   2.48110670E+01
   6.47500000E+02   5.00000000E-01   5.00000000E-01   9.99934248E-02   9.99993749E-02   9.99576284E-02   9.99831898E-02   1.00913936E-01   7.73844931E+03   9.98716193E-02   9.99305939E-02   9.99999983E-02   9.96161545E-02   1.24505030E+03   5.62104960E+00   1.68501788E+03   9.28965543E-02   0.00000000E+00   2.43212755E+01
   6.82500000E+02   5.00000000E-01   5.00000000E-01   9.99934248E-02   9.99993750E-02   9.99576284E-02   9.99831898E-02   1.00897186E-01   7.95411519E+03   9.98683677E-02   9.99306118E-02   9.99999983E-02   9.96184766E-02   1.25149883E+03   1.70392065E+01   1.70350739E+03   9.28967778E-02   0.00000000E+00   2.38385165E+01
   7.17500000E+02   5.00000000E-01   5.00000000E-01   9.99934248E-02   9.99993750E-02   9.99576284E-02   9.99831898E-02   1.00879617E-01   8.17229546E+03   9.98651338E-02   9.99306297E-02   9.99999981E-02   9.96209075E-02   1.25760349E+03   2.61796858E+01   1.72127169E+03   9.28969835E-02   0.00000000E+00   2.33637061E+01
   7.52500000E+02   5.00000000E-01   5.00000000E-01   9.99934248E-02   9.99993751E-02   9.99576284E-02   9.99831898E-02   1.00861375E-01   8.39159181E+03   9.98619352E-02   9.99306476E-02   9.99999980E-02   9.96234489E-02   1.26334398E+03   3.47340554E+01   1.73807825E+03   9.28971715E-02   0.00000000E+00   2.28978390E+01
   7.87500000E+02   5.00000000E-01   5.00000000E-01   9.99934248E-02   9.99993751E-02   9.99576284E-02   9.99831898E-02   1.00842593E-01   8.61045296E+03   9.98587890E-02   9.99306653E-02   9.99999979E-02   9.96261026E-02   1.26870528E+03   4.31178976E+01   1.75373129E+03   9.28973416E-02   0.00000000E+00   2.24419074E+01
   8.22500000E+02   5.00000000E-01   5.00000000E-01   9.99934248E-02   9.99993752E-02   9.99576284E-02   9.99831898E-02   1.00823391E-01   8.82719631E+03   9.98557125E-02   9.99306828E-02   9.99999978E-02   9.96288708E-02   1.27368097E+03   5.15145106E+01   1.76804003E+03   9.28974939E-02   0.00000000E+00   2.19968930E+01
   8.57500000E+02   5.00000000E-01   5.00000000E-01   9.99934248E-02   9.99993752E-02   9.99576284E-02   9.99831898E-02   1.00803879E-01   9.04002509E+03   9.98527221E-02   9.99307000E-02   9.99999977E-02   9.96317557E-02   1.27827346E+03   6.00233477E+01   1.78082220E+03   9.28976287E-02   0.00000000E+00   2.15637532E+01
   8.92500000E+02   5.00000000E-01   5.00000000E-01   9.99934248E-02   9.99993753E-02   9.99576284E-02   9.99831898E-02   1.00784156E-01   9.24705505E+03   9.98498338E-02   9.99307167E-02   9.99999978E-02   9.96347602E-02   1.28249371E+03   6.87042832E+01   1.79190750E+03   9.28977464E-02   0.00000000E+00   2.11434078E+01
   9.27500000E+02   5.00000000E-01   5.00000000E-01   9.99934248E-02   9.99993753E-02   9.99576284E-02   9.99831898E-02   1.00764310E-01   9.44635101E+03   9.98470627E-02   9.99307331E-02   9.99999978E-02   9.96378876E-02   1.28636070E+03   7.75949303E+01   1.80114112E+03   9.28978476E-02   0.00000000E+00   2.07367215E+01
   9.62500000E+02   5.00000000E-01   5.00000000E-01   9.99934248E-02   9.99993754E-02   9.99576284E-02   9.99831898E-02   1.00744420E-01   9.63596767E+03   9.98444224E-02   9.99307488E-02   9.99999978E-02   9.96411419E-02   1.28990048E+03   8.67189248E+01   1.80838665E+03   9.28979330E-02   0.00000000E+00   2.03444890E+01
   9.97500000E+02   5.00000000E-01   5.00000000E-01   9.99934248E-02   9.99993755E-02   9.99576284E-02   9.99831898E-02   1.00724555E-01   9.81399905E+03   9.98419254E-02   9.99307639E-02   9.99999979E-02   9.96445275E-02   1.29314479E+03   9.60903266E+01   1.81352887E+03   9.28980031E-02   0.00000000E+00   1.99674161E+01
   1.03250000E+03   5.00000000E-01   5.00000000E-01   9.99934248E-02   9.99993755E-02   9.99576284E-02   9.99831898E-02   1.00704778E-01   9.97862218E+03   9.98395822E-02   9.99307782E-02   9.99999980E-02   9.96480496E-02   1.29612966E+03   1.05716126E+02   1.81647672E+03   9.28980589E-02   0.00000000E+00   1.96061063E+01
   1.06750000E+03   5.00000000E-01   5.00000000E-01   9.99934248E-02   9.99993756E-02   9.99576284E-02   9.99831898E-02   1.00685142E-01   1.01281609E+04   9.98374018E-02   9.99307917E-02   9.99999980E-02   9.96517138E-02   1.29889309E+03   1.15598112E+02   1.81716512E+03   9.28981012E-02   0.00000000E+00   1.92610402E+01
   1.10250000E+03   5.00000000E-01   5.00000000E-01   9.99934248E-02   9.99993757E-02   9.99576284E-02   9.99831898E-02   1.00665694E-01   1.02611203E+04   9.98353908E-02   9.99308043E-02   9.99999981E-02   9.96555263E-02   1.30147361E+03   1.25733965E+02   1.81555750E+03   9.28981307E-02   0.00000000E+00   1.89325673E+01
   1.13750000E+03   5.00000000E-01   5.00000000E-01   9.99934248E-02   9.99993757E-02   9.99576284E-02   9.99831898E-02   1.00646476E-01   1.03762549E+04   9.98335538E-02   9.99308158E-02   9.99999981E-02   9.96594935E-02   1.30390751E+03   1.36118040E+02   1.81164648E+03   9.28981481E-02   0.00000000E+00   1.86208889E+01
   1.17250000E+03   5.00000000E-01   5.00000000E-01   9.99934248E-02   9.99993758E-02   9.99576284E-02   9.99831898E-02   1.00627523E-01   1.04725866E+04   9.98318931E-02   9.99308262E-02   9.99999982E-02   9.96636221E-02   1.30622751E+03   1.46742674E+02   1.80545611E+03   9.28981543E-02   0.00000000E+00   1.83260568E+01
   1.20750000E+03   5.00000000E-01   5.00000000E-01   9.99934248E-02   9.99993759E-02   9.99576285E-02   9.99831898E-02   1.00608864E-01   1.05494649E+04   9.98304087E-02   9.99308354E-02   9.99999983E-02   9.96679189E-02   1.30846041E+03   1.57597941E+02   1.79704113E+03   9.28981497E-02   0.00000000E+00   1.80479548E+01
   1.24250000E+03   5.00000000E-01   5.00000000E-01   9.99934249E-02   9.99993760E-02   9.99576285E-02   9.99831898E-02   1.00590525E-01   1.06065613E+04   9.98290981E-02   9.99308434E-02   9.99999984E-02   9.96723902E-02   1.31062645E+03   1.68673061E+02   1.78648840E+03   9.28981348E-02   0.00000000E+00   1.77863339E+01
   1.27750000E+03   5.00000000E-01   5.00000000E-01   9.99934249E-02   9.99993760E-02   9.99576285E-02   9.99831898E-02   1.00572526E-01   1.06439230E+04   9.98279569E-02   9.99308502E-02   9.99999985E-02   9.96770423E-02   1.31273714E+03   1.79956043E+02   1.77391385E+03   9.28981100E-02   0.00000000E+00   1.75408067E+01
   1.31250000E+03   5.00000000E-01   5.00000000E-01   9.99934250E-02   9.99993761E-02   9.99576285E-02   9.99831898E-02   1.00554885E-01   1.06619347E+04   9.98269782E-02   9.99308556E-02   9.99999985E-02   9.96818805E-02   1.31479600E+03   1.91434649E+02   1.75946263E+03   9.28980755E-02   0.00000000E+00   1.73108172E+01
   1.34750000E+03   5.00000000E-01   5.00000000E-01   9.99934251E-02   9.99993762E-02   9.99576285E-02   9.99831898E-02   1.00537616E-01   1.06613083E+04   9.98261534E-02   9.99308597E-02   9.99999986E-02   9.96869095E-02   1.31679848E+03   2.03097011E+02   1.74330642E+03   9.28980312E-02   0.00000000E+00   1.70956708E+01
   1.38250000E+03   5.00000000E-01   5.00000000E-01   9.99934253E-02   9.99993763E-02   9.99576285E-02   9.99831898E-02   1.00520728E-01   1.06430496E+04   9.98254719E-02   9.99308624E-02   9.99999986E-02   9.96921330E-02   1.31873284E+03   2.14931848E+02   1.72564042E+03   9.28979774E-02   0.00000000E+00   1.68945570E+01
   1.41750000E+03   5.00000000E-01   5.00000000E-01   9.99934255E-02   9.99993764E-02   9.99576285E-02   9.99831898E-02   1.00504230E-01   1.06084213E+04   9.98249218E-02   9.99308639E-02   9.99999985E-02   9.96975537E-02   1.32058107E+03   2.26929041E+02   1.70667902E+03   9.28979137E-02   0.00000000E+00   1.67065616E+01
   1.45250000E+03   5.00000000E-01   5.00000000E-01   9.99934258E-02   9.99993765E-02   9.99576285E-02   9.99831898E-02   1.00488126E-01   1.05588963E+04   9.98244899E-02   9.99308640E-02   9.99999984E-02   9.97031732E-02   1.32232037E+03   2.39079885E+02   1.68665099E+03   9.28978401E-02   0.00000000E+00   1.65306831E+01
   1.48750000E+03   5.00000000E-01   5.00000000E-01   9.99934262E-02   9.99993766E-02   9.99576285E-02   9.99831898E-02   1.00472421E-01   1.04961129E+04   9.98241623E-02   9.99308628E-02   9.99999981E-02   9.97089916E-02   1.32392429E+03   2.51377489E+02   1.66579353E+03   9.28977563E-02   0.00000000E+00   1.63658656E+01
   1.52250000E+03   5.00000000E-01   5.00000000E-01   9.99934268E-02   9.99993767E-02   9.99576286E-02   9.99831898E-02   1.00457116E-01   1.04218030E+04   9.98239243E-02   9.99308605E-02   9.99999977E-02   9.97150084E-02   1.32536490E+03   2.63817018E+02   1.64434748E+03   9.28976621E-02   0.00000000E+00   1.62110127E+01
   1.55750000E+03   5.00000000E-01   5.00000000E-01   9.99934275E-02   9.99993768E-02   9.99576286E-02   9.99831898E-02   1.00442209E-01   1.03377497E+04   9.98237612E-02   9.99308570E-02   9.99999971E-02   9.97212218E-02   1.32661387E+03   2.76395775E+02   1.62255108E+03   9.28975573E-02   0.00000000E+00   1.60650129E+01
   1.59250000E+03   5.00000000E-01   5.00000000E-01   9.99934285E-02   9.99993769E-02   9.99576286E-02   9.99831898E-02   1.00427700E-01   1.02457275E+04   9.98236583E-02   9.99308523E-02   9.99999962E-02   9.97276289E-02   1.32764402E+03   2.89113296E+02   1.60063507E+03   9.28974417E-02   0.00000000E+00   1.59267648E+01
   1.62750000E+03   5.00000000E-01   5.00000000E-01   9.99934298E-02   9.99993770E-02   9.99576286E-02   9.99831898E-02   1.00413585E-01   1.01474558E+04   9.98236013E-02   9.99308467E-02   9.99999948E-02   9.97342262E-02   1.32843041E+03   3.01971215E+02   1.57881807E+03   9.28973153E-02   0.00000000E+00   1.57951975E+01
   1.66250000E+03   5.00000000E-01   5.00000000E-01   9.99934314E-02   9.99993771E-02   9.99576286E-02   9.99831898E-02   1.00399861E-01   1.00445670E+04   9.98235767E-02   9.99308400E-02   9.99999929E-02   9.97410094E-02   1.32895083E+03   3.14973208E+02   1.55730237E+03   9.28971780E-02   0.00000000E+00   1.56692890E+01
   1.69750000E+03   5.00000000E-01   5.00000000E-01   9.99934333E-02   9.99993773E-02   9.99576287E-02   9.99831898E-02   1.00386521E-01   9.93857090E+03   9.98235716E-02   9.99308325E-02   9.99999902E-02   9.97479735E-02   1.32918644E+03   3.28124629E+02   1.53627125E+03   9.28970298E-02   0.00000000E+00   1.55480787E+01
   1.73250000E+03   5.00000000E-01   5.00000000E-01   9.99934355E-02   9.99993774E-02   9.99576287E-02   9.99831898E-02   1.00373561E-01   9.83083503E+03   9.98235744E-02   9.99308241E-02   9.99999866E-02   9.97551132E-02   1.32912190E+03   3.41432269E+02   1.51588691E+03   9.28968708E-02   0.00000000E+00   1.54306776E+01
   1.76750000E+03   5.00000000E-01   5.00000000E-01   9.99934381E-02   9.99993775E-02   9.99576287E-02   9.99831898E-02   1.00360974E-01   9.72257440E+03   9.98235743E-02   9.99308151E-02   9.99999817E-02   9.97624227E-02   1.32874523E+03   3.54903926E+02   1.49628934E+03   9.28967013E-02   0.00000000E+00   1.53162800E+01
   1.80250000E+03   5.00000000E-01   5.00000000E-01   9.99934409E-02   9.99993776E-02   9.99576288E-02   9.99831898E-02   1.00348753E-01   9.61484411E+03   9.98235620E-02   9.99308053E-02   9.99999753E-02   9.97698958E-02   1.32804764E+03   3.68548019E+02   1.47759628E+03   9.28965215E-02   0.00000000E+00   1.52041633E+01
   1.83750000E+03   5.00000000E-01   5.00000000E-01   9.99934441E-02   9.99993777E-02   9.99576288E-02   9.99831898E-02   1.00336890E-01   9.50854123E+03   9.98235292E-02   9.99307950E-02   9.99999670E-02   9.97775262E-02   1.32702315E+03   3.82373235E+02   1.45990382E+03   9.28963318E-02   0.00000000E+00   1.50936924E+01
   1.87250000E+03   5.00000000E-01   5.00000000E-01   9.99934475E-02   9.99993778E-02   9.99576288E-02   9.99831898E-02   1.00325379E-01   9.40440902E+03   9.98234689E-02   9.99307841E-02   9.99999564E-02   9.97853072E-02   1.32566818E+03   3.96388144E+02   1.44328795E+03   9.28961326E-02   0.00000000E+00   1.49843170E+01
   1.90750000E+03   5.00000000E-01   5.00000000E-01   9.99934512E-02   9.99993780E-02   9.99576289E-02   9.99831898E-02   1.00314210E-01   9.30304994E+03   9.98233752E-02   9.99307728E-02   9.99999431E-02   9.97932322E-02   1.32398108E+03   4.10600847E+02   1.42780595E+03   9.28959243E-02   0.00000000E+00   1.48755689E+01
   1.94250000E+03   5.00000000E-01   5.00000000E-01   9.99934551E-02   9.99993781E-02   9.99576289E-02   9.99831898E-02   1.00303377E-01   9.20493981E+03   9.98232433E-02   9.99307611E-02   9.99999265E-02   9.98012939E-02   1.32196156E+03   4.25018674E+02   1.41349877E+03   9.28957075E-02   0.00000000E+00   1.47670543E+01
   1.97750000E+03   5.00000000E-01   5.00000000E-01   9.99934593E-02   9.99993782E-02   9.99576289E-02   9.99831898E-02   1.00292872E-01   9.11043406E+03   9.98230693E-02   9.99307491E-02   9.99999062E-02   9.98094854E-02   1.31961056E+03   4.39647985E+02   1.40039365E+03   9.28954827E-02   0.00000000E+00   1.46584517E+01
   2.01250000E+03   5.00000000E-01   5.00000000E-01   9.99934636E-02   9.99993783E-02   9.99576290E-02   9.99831898E-02   1.00282686E-01   9.01979387E+03   9.98228504E-02   9.99307369E-02   9.99998815E-02   9.98177991E-02   1.31692951E+03   4.54493945E+02   1.38850603E+03   9.28952504E-02   0.00000000E+00   1.45495020E+01
   2.04750000E+03   5.00000000E-01   5.00000000E-01   9.99934681E-02   9.99993784E-02   9.99576290E-02   9.99831898E-02   1.00272811E-01   8.93319032E+03   9.98225845E-02   9.99307244E-02   9.99998517E-02   9.98262275E-02   1.31392039E+03   4.69560344E+02   1.37784246E+03   9.28950114E-02   0.00000000E+00   1.44400034E+01
   2.08250000E+03   5.00000000E-01   5.00000000E-01   9.99934727E-02   9.99993786E-02   9.99576291E-02   9.99831898E-02   1.00263239E-01   8.85072252E+03   9.98222701E-02   9.99307119E-02   9.99998162E-02   9.98347627E-02   1.31058532E+03   4.84849592E+02   1.36840255E+03   9.28947662E-02   0.00000000E+00   1.43298039E+01
   2.11750000E+03   5.00000000E-01   5.00000000E-01   9.99934775E-02   9.99993787E-02   9.99576291E-02   9.99831898E-02   1.00253964E-01   8.77243465E+03   9.98219065E-02   9.99306993E-02   9.99997742E-02   9.98433966E-02   1.30692630E+03   5.00362588E+02   1.36018056E+03   9.28945154E-02   0.00000000E+00   1.42187895E+01
   2.15250000E+03   5.00000000E-01   5.00000000E-01   9.99934824E-02   9.99993788E-02   9.99576292E-02   9.99831898E-02   1.00244976E-01   8.69403006E+03   9.98214931E-02   9.99306866E-02   9.99997247E-02   9.98521385E-02   1.30302516E+03   5.16149888E+02   1.35356346E+03   9.28942600E-02   0.00000000E+00   1.41067585E+01
   2.18750000E+03   5.00000000E-01   5.00000000E-01   9.99934875E-02   9.99993789E-02   9.99576292E-02   9.99831898E-02   1.00236269E-01   8.61629695E+03   9.98210292E-02   9.99306740E-02   9.99996672E-02   9.98609763E-02   1.29886346E+03   5.32227818E+02   1.34837633E+03   9.28940003E-02   0.00000000E+00   1.39936119E+01
   2.22250000E+03   5.00000000E-01   5.00000000E-01   9.99934926E-02   9.99993791E-02   9.99576293E-02   9.99831898E-02   1.00227835E-01   8.54188696E+03   9.98205148E-02   9.99306615E-02   9.99996008E-02   9.98698896E-02   1.29438803E+03   5.48565458E+02   1.34438563E+03   9.28937370E-02   0.00000000E+00   1.38793509E+01
   2.25750000E+03   5.00000000E-01   5.00000000E-01   9.99934978E-02   9.99993792E-02   9.99576293E-02   9.99831898E-02   1.00219668E-01   8.47116950E+03   9.98199507E-02   9.99306491E-02   9.99995249E-02   9.98788667E-02   1.28958792E+03   5.65147988E+02   1.34158528E+03   9.28934705E-02   0.00000000E+00   1.37639878E+01
   2.29250000E+03   5.00000000E-01   5.00000000E-01   9.99935031E-02   9.99993794E-02   9.99576294E-02   9.99831898E-02   1.00211759E-01   8.40451520E+03   9.98193379E-02   9.99306368E-02   9.99994391E-02   9.98878951E-02   1.28445424E+03   5.81961593E+02   1.33993219E+03   9.28932014E-02   0.00000000E+00   1.36475547E+01
   2.32750000E+03   5.00000000E-01   5.00000000E-01   9.99935086E-02   9.99993795E-02   9.99576295E-02   9.99831898E-02   1.00204103E-01   8.34188991E+03   9.98186777E-02   9.99306248E-02   9.99993430E-02   9.98969642E-02   1.27898595E+03   5.98994330E+02   1.33942251E+03   9.28929304E-02   0.00000000E+00   1.35300870E+01
   2.36250000E+03   5.00000000E-01   5.00000000E-01   9.99935142E-02   9.99993796E-02   9.99576295E-02   9.99831898E-02   1.00196693E-01   8.28269940E+03   9.98179716E-02   9.99306130E-02   9.99992370E-02   9.99060658E-02   1.27319296E+03   6.16239206E+02   1.34009867E+03   9.28926581E-02   0.00000000E+00   1.34116284E+01
   2.39750000E+03   5.00000000E-01   5.00000000E-01   9.99935200E-02   9.99993798E-02   9.99576296E-02   9.99831898E-02   1.00189522E-01   8.22645666E+03   9.98172208E-02   9.99306015E-02   9.99991217E-02   9.99151910E-02   1.26708279E+03   6.33689908E+02   1.34198682E+03   9.28923850E-02   0.00000000E+00   1.32922525E+01
   2.43250000E+03   5.00000000E-01   5.00000000E-01   9.99935262E-02   9.99993799E-02   9.99576297E-02   9.99831898E-02   1.00182584E-01   8.17373853E+03   9.98164265E-02   9.99305902E-02   9.99989989E-02   9.99243249E-02   1.26064312E+03   6.51328948E+02   1.34502442E+03   9.28921117E-02   0.00000000E+00   1.31719931E+01
   2.46750000E+03   5.00000000E-01   5.00000000E-01   9.99935327E-02   9.99993801E-02   9.99576297E-02   9.99831898E-02   1.00175873E-01   8.12452149E+03   9.98155900E-02   9.99305793E-02   9.99988708E-02   9.99334549E-02   1.25387198E+03   6.69141913E+02   1.34922298E+03   9.28918388E-02   0.00000000E+00   1.30508822E+01
   2.50250000E+03   5.00000000E-01   5.00000000E-01   9.99935398E-02   9.99993803E-02   9.99576298E-02   9.99831898E-02   1.00169383E-01   8.07867107E+03   9.98147127E-02   9.99305687E-02   9.99987406E-02   9.99425690E-02   1.24677038E+03   6.87115901E+02   1.35459721E+03   9.28915667E-02   0.00000000E+00   1.29289423E+01
   2.53750000E+03   5.00000000E-01   5.00000000E-01   9.99935475E-02   9.99993804E-02   9.99576299E-02   9.99831898E-02   1.00163107E-01   8.03606674E+03   9.98137957E-02   9.99305584E-02   9.99986124E-02   9.99516547E-02   1.23933898E+03   7.05237351E+02   1.36116562E+03   9.28912959E-02   0.00000000E+00   1.28061904E+01
   2.57250000E+03   5.00000000E-01   5.00000000E-01   9.99935562E-02   9.99993806E-02   9.99576300E-02   9.99831898E-02   1.00157042E-01   7.99653232E+03   9.98128401E-02   9.99305484E-02   9.99984913E-02   9.99606994E-02   1.23157908E+03   7.23495102E+02   1.36895027E+03   9.28910269E-02   0.00000000E+00   1.26826380E+01
   2.60750000E+03   5.00000000E-01   5.00000000E-01   9.99935660E-02   9.99993808E-02   9.99576301E-02   9.99831898E-02   1.00151180E-01   7.95993551E+03   9.98118469E-02   9.99305388E-02   9.99983831E-02   9.99696902E-02   1.22349029E+03   7.41877941E+02   1.37797628E+03   9.28907602E-02   0.00000000E+00   1.25582856E+01
   2.64250000E+03   5.00000000E-01   5.00000000E-01   9.99935772E-02   9.99993809E-02   9.99576301E-02   9.99831898E-02   1.00145516E-01   7.92611346E+03   9.98108169E-02   9.99305295E-02   9.99982941E-02   9.99786138E-02   1.21507355E+03   7.60374847E+02   1.38827134E+03   9.28904961E-02   0.00000000E+00   1.24331214E+01
   2.67750000E+03   5.00000000E-01   5.00000000E-01   9.99935900E-02   9.99993811E-02   9.99576302E-02   9.99831898E-02   1.00140046E-01   7.89346650E+03   9.98097510E-02   9.99305204E-02   9.99982311E-02   9.99874648E-02   1.20635320E+03   7.78991376E+02   1.39999183E+03   9.28902352E-02   0.00000000E+00   1.23070781E+01
   2.71250000E+03   5.00000000E-01   5.00000000E-01   9.99936044E-02   9.99993813E-02   9.99576303E-02   9.99831898E-02   1.00134763E-01   7.86283642E+03   9.98086495E-02   9.99305116E-02   9.99982005E-02   9.99962236E-02   1.19731344E+03   7.97709923E+02   1.41306190E+03   9.28899777E-02   0.00000000E+00   1.21801359E+01
   2.74750000E+03   5.00000000E-01   5.00000000E-01   9.99936155E-02   9.99993815E-02   9.99576304E-02   9.99831898E-02   1.00129662E-01   7.83563378E+03   9.98075129E-02   9.99305032E-02   9.99981745E-02   1.00004868E-01   1.18794041E+03   8.16474309E+02   1.42748849E+03   9.28897240E-02   0.00000000E+00   1.20522131E+01
   2.78250000E+03   5.00000000E-01   5.00000000E-01   9.99936267E-02   9.99993817E-02   9.99576305E-02   9.99831898E-02   1.00124740E-01   7.81159575E+03   9.98063418E-02   9.99304951E-02   9.99981448E-02   1.00013382E-01   1.17823580E+03   8.35279998E+02   1.44330262E+03   9.28894744E-02   0.00000000E+00   1.19233747E+01
   2.81750000E+03   5.00000000E-01   5.00000000E-01   9.99936383E-02   9.99993819E-02   9.99576306E-02   9.99831898E-02   1.00119989E-01   7.79056850E+03   9.98051367E-02   9.99304874E-02   9.99981206E-02   1.00021752E-01   1.16820218E+03   8.54116228E+02   1.46053390E+03   9.28892291E-02   0.00000000E+00   1.17934822E+01
   2.85250000E+03   5.00000000E-01   5.00000000E-01   9.99936502E-02   9.99993821E-02   9.99576307E-02   9.99831898E-02   1.00115407E-01   7.77269433E+03   9.98038979E-02   9.99304800E-02   9.99981143E-02   1.00029961E-01   1.15784027E+03   8.72961543E+02   1.47920985E+03   9.28889885E-02   0.00000000E+00   1.16624237E+01
   2.88750000E+03   5.00000000E-01   5.00000000E-01   9.99936623E-02   9.99993823E-02   9.99576308E-02   9.99831898E-02   1.00110987E-01   7.75817060E+03   9.98026258E-02   9.99304730E-02   9.99981343E-02   1.00037993E-01   1.14715074E+03   8.91793318E+02   1.49935494E+03   9.28887527E-02   0.00000000E+00   1.15301479E+01
   2.92250000E+03   5.00000000E-01   5.00000000E-01   9.99936745E-02   9.99993825E-02   9.99576309E-02   9.99831898E-02   1.00106725E-01   7.74715924E+03   9.98013207E-02   9.99304663E-02   9.99981833E-02   1.00045829E-01   1.13613492E+03   9.10591318E+02   1.52098944E+03   9.28885221E-02   0.00000000E+00   1.13969301E+01
   2.95750000E+03   5.00000000E-01   5.00000000E-01   9.99936867E-02   9.99993827E-02   9.99576310E-02   9.99831898E-02   1.00102617E-01   7.73983472E+03   9.97999828E-02   9.99304598E-02   9.99982602E-02   1.00053455E-01   1.12479476E+03   9.29335400E+02   1.54412827E+03   9.28882968E-02   0.00000000E+00   1.12623251E+01
   2.99250000E+03   5.00000000E-01   5.00000000E-01   9.99936989E-02   9.99993829E-02   9.99576311E-02   9.99831898E-02   1.00098656E-01   7.73632934E+03   9.97986124E-02   9.99304537E-02   9.99983611E-02   1.00060853E-01   1.11313289E+03   9.48007842E+02   1.56877979E+03   9.28880769E-02   0.00000000E+00   1.11262506E+01
   3.02750000E+03   5.00000000E-01   5.00000000E-01   9.99937110E-02   9.99993831E-02   9.99576312E-02   9.99831898E-02   1.00094840E-01   7.73679397E+03   9.97972098E-02   9.99304478E-02   9.99984808E-02   1.00068006E-01   1.10115218E+03   9.66591058E+02   1.59494461E+03   9.28878627E-02   0.00000000E+00   1.09886200E+01
   3.06250000E+03   5.00000000E-01   5.00000000E-01   9.99937229E-02   9.99993833E-02   9.99576313E-02   9.99831898E-02   1.00091163E-01   7.74138432E+03   9.97957754E-02   9.99304422E-02   9.99986136E-02   1.00074898E-01   1.08885607E+03   9.85067802E+02   1.62261439E+03   9.28876541E-02   0.00000000E+00   1.08493442E+01
   3.09750000E+03   5.00000000E-01   5.00000000E-01   9.99937346E-02   9.99993835E-02   9.99576314E-02   9.99831898E-02   1.00087620E-01   7.75025692E+03   9.97943095E-02   9.99304369E-02   9.99987531E-02   1.00081513E-01   1.07624881E+03   1.00342113E+03   1.65177069E+03   9.28874514E-02   0.00000000E+00   1.07083325E+01
   3.13250000E+03   5.00000000E-01   5.00000000E-01   9.99937460E-02   9.99993838E-02   9.99576316E-02   9.99831898E-02   1.00084208E-01   7.76357238E+03   9.97928126E-02   9.99304317E-02   9.99988933E-02   1.00087835E-01   1.06333537E+03   1.02163428E+03   1.68238386E+03   9.28872547E-02   0.00000000E+00   1.05655759E+01
   3.16750000E+03   5.00000000E-01   5.00000000E-01   9.99937571E-02   9.99993840E-02   9.99576317E-02   9.99831898E-02   1.00080921E-01   7.78148898E+03   9.97912853E-02   9.99304268E-02   9.99990283E-02   1.00093849E-01   1.05012134E+03   1.03969125E+03   1.71441210E+03   9.28870638E-02   0.00000000E+00   1.04215010E+01