 TITLE = "Mineral Area" 
VARIABLES = "X"          "Y"              "Z"            "Forsterite"     "Enstatite(alph" "Anorthite"      "Ferropargasite" "Anhydrite"      "Clinochlore"    "Albite(low)"    "Fayalite"       "Epidote"        "Kaolinite"      "Muscovite(orde"
 ZONE I=          10 , J=           1 , K=           1  F=POINT
   1.75000000E+02   5.00000000E-01   5.00000000E-01   9.99996712E-02   9.99999688E-02   9.99697333E-02   9.99991595E-02   9.99963201E-02   2.05885316E+02   9.99962706E-02   9.99965907E-02   9.99991057E-02   0.00000000E+00   0.00000000E+00
   5.25000000E+02   5.00000000E-01   5.00000000E-01   9.99996714E-02   9.99999690E-02   9.99697333E-02   9.99991595E-02   9.99969851E-02   2.36785635E+02   9.99952112E-02   9.99965465E-02   9.99963115E-02   0.00000000E+00   0.00000000E+00
   8.75000000E+02   5.00000000E-01   5.00000000E-01   9.99996762E-02   9.99999699E-02   9.99697333E-02   9.99991595E-02   9.99980313E-02   2.71874392E+02   9.99934411E-02   9.99965517E-02   9.99913651E-02   0.00000000E+00   2.68172065E+01
   1.22500000E+03   5.00000000E-01   5.00000000E-01   9.99997064E-02   9.99999712E-02   9.99697333E-02   9.99991595E-02   9.99995578E-02   2.94112316E+02   9.99916563E-02   9.99965916E-02   9.99818309E-02   0.00000000E+00   5.47818684E+01
   1.57500000E+03   5.00000000E-01   5.00000000E-01   9.99997720E-02   9.99999727E-02   9.99697333E-02   9.99991595E-02   1.00001582E-01   3.01894905E+02   9.99900641E-02   9.99966557E-02   9.99627421E-02   0.00000000E+00   8.44469677E+01
   1.92500000E+03   5.00000000E-01   5.00000000E-01   9.99998802E-02   9.99999738E-02   9.99697333E-02   9.99991595E-02   1.00003936E-01   3.00225741E+02   9.99885814E-02   9.99966864E-02   9.99138525E-02   0.00000000E+00   1.14403428E+02
   2.27500000E+03   5.00000000E-01   5.00000000E-01   1.00000010E-01   9.99999737E-02   9.99697333E-02   9.99991595E-02   1.00006234E-01   2.96281747E+02   9.99873357E-02   9.99966601E-02   9.97601518E-02   0.00000000E+00   1.38437924E+02
   2.62500000E+03   5.00000000E-01   5.00000000E-01   1.00000124E-01   9.99999725E-02   9.99697333E-02   9.99991595E-02   1.00008028E-01   2.99133734E+02   9.99863431E-02   9.99966013E-02   9.92079729E-02   1.10538706E+01   1.50593103E+02
   2.97500000E+03   5.00000000E-01   5.00000000E-01   1.00000196E-01   9.99999718E-02   9.99697333E-02   9.99991595E-02   1.00009081E-01   3.16970503E+02   9.99856131E-02   9.99965535E-02   9.72573497E-02   1.63958127E+01   1.49184163E+02
   3.32500000E+03   5.00000000E-01   5.00000000E-01   1.00000238E-01   9.99999715E-02   9.99697333E-02   9.99991595E-02   1.00009474E-01   3.52639594E+02   9.99850767E-02   9.99965284E-02   9.18526078E-02   1.89334262E+01   1.32589425E+02
