 TITLE = "Mineral Area" 
VARIABLES = "X"          "Y"              "Z"            "Forsterite"     "Enstatite(alph" "Anorthite"      "Ferropargasite" "Anhydrite"      "Clinochlore"    "Albite(low)"    "Fayalite"       "Epidote"        "Kaolinite"      "Muscovite(orde" "Sudoite"        "Saponite(Mg)"   "Scolecite"      "Pyrite"         "Quartz(alpha)" 
 ZONE I=         100 , J=           1 , K=           1  F=POINT
   1.75000000E+01   5.00000000E-01   5.00000000E-01   9.99654824E-02   9.99967152E-02   9.97776491E-02   9.99117620E-02   0.00000000E+00   5.87360955E+04   9.89268961E-02   9.96346408E-02   9.99999999E-02   9.78542431E-02   3.44130986E+03   0.00000000E+00   3.34527098E+03   6.55755616E-02   0.00000000E+00   6.86183767E+01
   5.25000000E+01   5.00000000E-01   5.00000000E-01   9.99654824E-02   9.99967153E-02   9.97776491E-02   9.99117620E-02   5.09150185E-03   3.39961331E+04   9.92092518E-02   9.96346618E-02   9.99999999E-02   9.78644106E-02   3.76906200E+03   0.00000000E+00   3.43751603E+03   6.55894499E-02   0.00000000E+00   8.18534267E+01
   8.75000000E+01   5.00000000E-01   5.00000000E-01   9.99654824E-02   9.99967154E-02   9.97776491E-02   9.99117620E-02   6.14355100E-02   2.50587103E+04   9.93415749E-02   9.96346908E-02   9.99999998E-02   9.78688349E-02   3.64918980E+03   0.00000000E+00   3.92873643E+03   6.55968595E-02   0.00000000E+00   8.78081365E+01
   1.22500000E+02   5.00000000E-01   5.00000000E-01   9.99654824E-02   9.99967156E-02   9.97776491E-02   9.99117620E-02   9.34896255E-02   2.11475757E+04   9.94090955E-02   9.96347285E-02   9.99999997E-02   9.78728225E-02   3.54711916E+03   0.00000000E+00   4.13262901E+03   6.55997954E-02   0.00000000E+00   9.03721834E+01
   1.57500000E+02   5.00000000E-01   5.00000000E-01   9.99654824E-02   9.99967157E-02   9.97776491E-02   9.99117620E-02   1.02468764E-01   1.92141204E+04   9.94441067E-02   9.96347744E-02   9.99999996E-02   9.78771330E-02   3.48449011E+03   0.00000000E+00   4.24433465E+03   6.56014661E-02   0.00000000E+00   9.12339460E+01
   1.92500000E+02   5.00000000E-01   5.00000000E-01   9.99654824E-02   9.99967159E-02   9.97776491E-02   9.99117620E-02   1.04601385E-01   1.82341941E+04   9.94610025E-02   9.96348276E-02   9.99999996E-02   9.78819027E-02   3.45104192E+03   0.00000000E+00   4.32285583E+03   6.56029133E-02   0.00000000E+00   9.11594276E+01
   2.27500000E+02   5.00000000E-01   5.00000000E-01   9.99654824E-02   9.99967160E-02   9.97776491E-02   9.99117620E-02   1.05120114E-01   1.77812885E+04   9.94669860E-02   9.96348873E-02   9.99999995E-02   9.78871510E-02   3.43724259E+03   0.00000000E+00   4.38819001E+03   6.56043624E-02   0.00000000E+00   9.05331448E+01
   2.62500000E+02   5.00000000E-01   5.00000000E-01   9.99654824E-02   9.99967162E-02   9.97776491E-02   9.99117620E-02   1.05262287E-01   1.76470563E+04   9.94660306E-02   9.96349527E-02   9.99999994E-02   9.78928769E-02   3.43651366E+03   0.00000000E+00   4.44802022E+03   6.56058420E-02   0.00000000E+00   8.95680107E+01
   2.97500000E+02   5.00000000E-01   5.00000000E-01   9.99654824E-02   9.99967164E-02   9.97776491E-02   9.99117620E-02   1.05307094E-01   1.77184517E+04   9.94604753E-02   9.96350234E-02   9.99999993E-02   9.78990785E-02   3.44449723E+03   0.00000000E+00   4.50572966E+03   6.56073399E-02   0.00000000E+00   8.83897204E+01
   3.32500000E+02   5.00000000E-01   5.00000000E-01   9.99654824E-02   9.99967165E-02   9.97776491E-02   9.99117620E-02   1.05318032E-01   1.79297440E+04   9.94517618E-02   9.96350985E-02   9.99999992E-02   9.79057571E-02   3.45830941E+03   0.00000000E+00   4.56295099E+03   6.56088385E-02   0.00000000E+00   8.70756276E+01
   3.67500000E+02   5.00000000E-01   5.00000000E-01   9.99654824E-02   9.99967167E-02   9.97776491E-02   9.99117620E-02   1.05310100E-01   1.82408200E+04   9.94408113E-02   9.96351777E-02   9.99999991E-02   9.79129175E-02   3.47602108E+03   0.00000000E+00   4.62048942E+03   6.56103228E-02   0.00000000E+00   8.56747984E+01
   4.02500000E+02   5.00000000E-01   5.00000000E-01   9.99654824E-02   9.99967169E-02   9.97776491E-02   9.99117620E-02   1.05287566E-01   1.86262735E+04   9.94282323E-02   9.96352603E-02   9.99999990E-02   9.79205669E-02   3.49631971E+03   0.00000000E+00   4.67870320E+03   6.56117805E-02   0.00000000E+00   8.42191679E+01
   4.37500000E+02   5.00000000E-01   5.00000000E-01   9.99654824E-02   9.99967171E-02   9.97776491E-02   9.99117620E-02   1.05252346E-01   1.90693961E+04   9.94144407E-02   9.96353459E-02   9.99999989E-02   9.79287144E-02   3.51829480E+03   0.00000000E+00   4.73768449E+03   6.56132017E-02   0.00000000E+00   8.27300517E+01
   4.72500000E+02   5.00000000E-01   5.00000000E-01   9.99654824E-02   9.99967173E-02   9.97776491E-02   9.99117620E-02   1.05205823E-01   1.95587911E+04   9.93997320E-02   9.96354341E-02   9.99999988E-02   9.79373701E-02   3.54129888E+03   0.00000000E+00   4.79734552E+03   6.56145786E-02   0.00000000E+00   8.12220896E+01
   5.07500000E+02   5.00000000E-01   5.00000000E-01   9.99654824E-02   9.99967175E-02   9.97776491E-02   9.99117620E-02   1.05149227E-01   2.00867524E+04   9.93843269E-02   9.96355245E-02   9.99999987E-02   9.79465443E-02   3.56484655E+03   0.00000000E+00   4.85743405E+03   6.56159045E-02   0.00000000E+00   7.97057533E+01
   5.42500000E+02   5.00000000E-01   5.00000000E-01   9.99654824E-02   9.99967177E-02   9.97776491E-02   9.99117620E-02   1.05083712E-01   2.06472716E+04   9.93683983E-02   9.96356167E-02   9.99999986E-02   9.79562478E-02   3.58857527E+03   0.00000000E+00   4.91762361E+03   6.56171740E-02   0.00000000E+00   7.81888166E+01
   5.77500000E+02   5.00000000E-01   5.00000000E-01   9.99654824E-02   9.99967179E-02   9.97776491E-02   9.99117620E-02   1.05010365E-01   2.12355134E+04   9.93520896E-02   9.96357104E-02   9.99999985E-02   9.79664909E-02   3.61220379E+03   0.00000000E+00   4.97750257E+03   6.56183825E-02   0.00000000E+00   7.66773508E+01
   6.12500000E+02   5.00000000E-01   5.00000000E-01   9.99654824E-02   9.99967182E-02   9.97776492E-02   9.99117620E-02   1.04930209E-01   2.18472485E+04   9.93355261E-02   9.96358052E-02   9.99999984E-02   9.79772844E-02   3.63550993E+03   0.00000000E+00   5.03659583E+03   6.56195263E-02   0.00000000E+00   7.51763530E+01
   6.47500000E+02   5.00000000E-01   5.00000000E-01   9.99654824E-02   9.99967184E-02   9.97776492E-02   9.99117620E-02   1.04844196E-01   2.24784842E+04   9.93188218E-02   9.96359009E-02   9.99999983E-02   9.79886386E-02   3.65831660E+03   0.00000000E+00   5.09437895E+03   6.56206023E-02   0.00000000E+00   7.36901462E+01
   6.82500000E+02   5.00000000E-01   5.00000000E-01   9.99654824E-02   9.99967186E-02   9.97776492E-02   9.99117620E-02   1.04753210E-01   2.31172642E+04   9.93019464E-02   9.96359971E-02   9.99999982E-02   9.80004921E-02   3.67890716E+03   3.71714066E+01   5.15043341E+03   6.56215851E-02   0.00000000E+00   7.22248553E+01
   7.17500000E+02   5.00000000E-01   5.00000000E-01   9.99654824E-02   9.99967189E-02   9.97776492E-02   9.99117620E-02   1.04658069E-01   2.37621832E+04   9.92851182E-02   9.96360934E-02   9.99999981E-02   9.80128870E-02   3.69808073E+03   6.66571238E+01   5.20428871E+03   6.56224859E-02   0.00000000E+00   7.07840298E+01
   7.52500000E+02   5.00000000E-01   5.00000000E-01   9.99654824E-02   9.99967192E-02   9.97776492E-02   9.99117620E-02   1.04559523E-01   2.44104357E+04   9.92684760E-02   9.96361895E-02   9.99999980E-02   9.80258495E-02   3.71615545E+03   9.30622799E+01   5.25525920E+03   6.56233098E-02   0.00000000E+00   6.93706136E+01
   7.87500000E+02   5.00000000E-01   5.00000000E-01   9.99654824E-02   9.99967194E-02   9.97776492E-02   9.99117620E-02   1.04458256E-01   2.50573589E+04   9.92521107E-02   9.96362849E-02   9.99999979E-02   9.80393891E-02   3.73308810E+03   1.18499966E+02   5.30271839E+03   6.56240566E-02   0.00000000E+00   6.79876140E+01
   8.22500000E+02   5.00000000E-01   5.00000000E-01   9.99654824E-02   9.99967197E-02   9.97776492E-02   9.99117620E-02   1.04354893E-01   2.56978704E+04   9.92361116E-02   9.96363794E-02   9.99999978E-02   9.80535166E-02   3.74885875E+03   1.43748035E+02   5.34609018E+03   6.56247269E-02   0.00000000E+00   6.66380026E+01
   8.57500000E+02   5.00000000E-01   5.00000000E-01   9.99654824E-02   9.99967200E-02   9.97776492E-02   9.99117620E-02   1.04249997E-01   2.63265335E+04   9.92205657E-02   9.96364723E-02   9.99999976E-02   9.80682446E-02   3.76347423E+03   1.69196100E+02   5.38482462E+03   6.56253216E-02   0.00000000E+00   6.53246772E+01
   8.92500000E+02   5.00000000E-01   5.00000000E-01   9.99654824E-02   9.99967203E-02   9.97776492E-02   9.99117620E-02   1.04144077E-01   2.69376367E+04   9.92055563E-02   9.96365634E-02   9.99999977E-02   9.80835880E-02   3.77696760E+03   1.95068658E+02   5.41840831E+03   6.56258425E-02   0.00000000E+00   6.40504195E+01
   9.27500000E+02   5.00000000E-01   5.00000000E-01   9.99654824E-02   9.99967206E-02   9.97776492E-02   9.99117620E-02   1.04037588E-01   2.75252999E+04   9.91911620E-02   9.96366521E-02   9.99999977E-02   9.80995644E-02   3.78939647E+03   2.21503972E+02   5.44637451E+03   6.56262921E-02   0.00000000E+00   6.28178460E+01
   9.62500000E+02   5.00000000E-01   5.00000000E-01   9.99654824E-02   9.99967209E-02   9.97776493E-02   9.99117620E-02   1.03930937E-01   2.80835985E+04   9.91774552E-02   9.96367378E-02   9.99999977E-02   9.81161943E-02   3.80084018E+03   2.48588792E+02   5.46831240E+03   6.56266731E-02   0.00000000E+00   6.16293597E+01
   9.97500000E+02   5.00000000E-01   5.00000000E-01   9.99654824E-02   9.99967212E-02   9.97776493E-02   9.99117620E-02   1.03824485E-01   2.86067084E+04   9.91645005E-02   9.96368202E-02   9.99999977E-02   9.81335017E-02   3.81139574E+03   2.76375972E+02   5.48387568E+03   6.56269887E-02   0.00000000E+00   6.04870991E+01
   1.03250000E+03   5.00000000E-01   5.00000000E-01   9.99654824E-02   9.99967215E-02   9.97776493E-02   9.99117620E-02   1.03718550E-01   2.90890550E+04   9.91523541E-02   9.96368987E-02   9.99999978E-02   9.81515133E-02   3.82117301E+03   3.04894382E+02   5.49279048E+03   6.56272423E-02   0.00000000E+00   5.93928908E+01
   1.06750000E+03   5.00000000E-01   5.00000000E-01   9.99654824E-02   9.99967219E-02   9.97776493E-02   9.99117620E-02   1.03613413E-01   2.95254801E+04   9.91410623E-02   9.96369727E-02   9.99999979E-02   9.81702592E-02   3.83028859E+03   3.34155227E+02   5.49486202E+03   6.56274375E-02   0.00000000E+00   5.83482023E+01
   1.10250000E+03   5.00000000E-01   5.00000000E-01   9.99654824E-02   9.99967222E-02   9.97776494E-02   9.99117620E-02   1.03509318E-01   2.99113885E+04   9.91306606E-02   9.96370417E-02   9.99999979E-02   9.81897717E-02   3.83885987E+03   3.64156193E+02   5.48998067E+03   6.56275778E-02   0.00000000E+00   5.73541044E+01
   1.13750000E+03   5.00000000E-01   5.00000000E-01   9.99654824E-02   9.99967226E-02   9.97776494E-02   9.99117620E-02   1.03406476E-01   3.02429075E+04   9.91211732E-02   9.96371054E-02   9.99999979E-02   9.82100853E-02   3.84699829E+03   3.94884444E+02   5.47812625E+03   6.56276663E-02   0.00000000E+00   5.64112344E+01
   1.17250000E+03   5.00000000E-01   5.00000000E-01   9.99654824E-02   9.99967229E-02   9.97776494E-02   9.99117620E-02   1.03305069E-01   3.05170020E+04   9.91126126E-02   9.96371632E-02   9.99999980E-02   9.82312354E-02   3.85480357E+03   4.26319357E+02   5.45937202E+03   6.56277062E-02   0.00000000E+00   5.55197748E+01
   1.20750000E+03   5.00000000E-01   5.00000000E-01   9.99654825E-02   9.99967233E-02   9.97776495E-02   9.99117620E-02   1.03205252E-01   3.07315939E+04   9.91049788E-02   9.96372147E-02   9.99999981E-02   9.82532576E-02   3.86235809E+03   4.58433993E+02   5.43388578E+03   6.56276999E-02   0.00000000E+00   5.46794300E+01
   1.24250000E+03   5.00000000E-01   5.00000000E-01   9.99654825E-02   9.99967237E-02   9.97776495E-02   9.99117620E-02   1.03107155E-01   3.08856172E+04   9.90982601E-02   9.96372597E-02   9.99999981E-02   9.82761865E-02   3.86972306E+03   4.91197348E+02   5.40193076E+03   6.56276495E-02   0.00000000E+00   5.38894419E+01
   1.27750000E+03   5.00000000E-01   5.00000000E-01   9.99654825E-02   9.99967241E-02   9.97776496E-02   9.99117620E-02   1.03010887E-01   3.09790777E+04   9.90924325E-02   9.96372978E-02   9.99999981E-02   9.83000546E-02   3.87693506E+03   5.24575418E+02   5.36386217E+03   6.56275563E-02   0.00000000E+00   5.31485924E+01
   1.31250000E+03   5.00000000E-01   5.00000000E-01   9.99654826E-02   9.99967245E-02   9.97776496E-02   9.99117620E-02   1.02916536E-01   3.10130275E+04   9.90874612E-02   9.96373289E-02   9.99999981E-02   9.83248913E-02   3.88400553E+03   5.58532990E+02   5.32012362E+03   6.56274212E-02   0.00000000E+00   5.24552016E+01
   1.34750000E+03   5.00000000E-01   5.00000000E-01   9.99654827E-02   9.99967249E-02   9.97776497E-02   9.99117620E-02   1.02824173E-01   3.09895222E+04   9.90833008E-02   9.96373528E-02   9.99999981E-02   9.83507219E-02   3.89092103E+03   5.93035156E+02   5.27123986E+03   6.56272447E-02   0.00000000E+00   5.18071703E+01
   1.38250000E+03   5.00000000E-01   5.00000000E-01   9.99654829E-02   9.99967253E-02   9.97776497E-02   9.99117620E-02   1.02733853E-01   3.09115346E+04   9.90798966E-02   9.96373695E-02   9.99999980E-02   9.83775667E-02   3.89764548E+03   6.28048571E+02   5.21780706E+03   6.56270264E-02   0.00000000E+00   5.12020290E+01
   1.41750000E+03   5.00000000E-01   5.00000000E-01   9.99654831E-02   9.99967257E-02   9.97776498E-02   9.99117620E-02   1.02645615E-01   3.07828390E+04   9.90771862E-02   9.96373790E-02   9.99999979E-02   9.84054403E-02   3.90412332E+03   6.63542833E+02   5.16048033E+03   6.56267659E-02   0.00000000E+00   5.06369884E+01
   1.45250000E+03   5.00000000E-01   5.00000000E-01   9.99654834E-02   9.99967262E-02   9.97776499E-02   9.99117620E-02   1.02559489E-01   3.06078680E+04   9.90751007E-02   9.96373814E-02   9.99999977E-02   9.84343516E-02   3.91028382E+03   6.99491597E+02   5.09995912E+03   6.56264623E-02   0.00000000E+00   5.01090004E+01
   1.48750000E+03   5.00000000E-01   5.00000000E-01   9.99654838E-02   9.99967266E-02   9.97776499E-02   9.99117620E-02   1.02475490E-01   3.03915568E+04   9.90735666E-02   9.96373770E-02   9.99999973E-02   9.84643034E-02   3.91604566E+03   7.35873622E+02   5.03697063E+03   6.56261146E-02   0.00000000E+00   4.96148323E+01
   1.52250000E+03   5.00000000E-01   5.00000000E-01   9.99654844E-02   9.99967271E-02   9.97776500E-02   9.99117620E-02   1.02393625E-01   3.01391642E+04   9.90725075E-02   9.96373659E-02   9.99999968E-02   9.84952927E-02   3.92132216E+03   7.72673546E+02   4.97225312E+03   6.56257218E-02   0.00000000E+00   4.91511347E+01
   1.55750000E+03   5.00000000E-01   5.00000000E-01   9.99654852E-02   9.99967276E-02   9.97776501E-02   9.99117620E-02   1.02313892E-01   2.98561120E+04   9.90718458E-02   9.96373484E-02   9.99999960E-02   9.85273110E-02   3.92602572E+03   8.09882344E+02   4.90653839E+03   6.56252828E-02   0.00000000E+00   4.87145131E+01
   1.59250000E+03   5.00000000E-01   5.00000000E-01   9.99654862E-02   9.99967281E-02   9.97776502E-02   9.99117620E-02   1.02236281E-01   2.95478223E+04   9.90715044E-02   9.96373248E-02   9.99999949E-02   9.85603448E-02   3.93007200E+03   8.47497537E+02   4.84053563E+03   6.56247969E-02   0.00000000E+00   4.83015994E+01
   1.62750000E+03   5.00000000E-01   5.00000000E-01   9.99654875E-02   9.99967286E-02   9.97776503E-02   9.99117620E-02   1.02160777E-01   2.92195761E+04   9.90714082E-02   9.96372955E-02   9.99999934E-02   9.85943760E-02   3.93338325E+03   8.85523017E+02   4.77491682E+03   6.56242634E-02   0.00000000E+00   4.79091142E+01
   1.66250000E+03   5.00000000E-01   5.00000000E-01   9.99654890E-02   9.99967291E-02   9.97776504E-02   9.99117620E-02   1.02087357E-01   2.88763981E+04   9.90714855E-02   9.96372609E-02   9.99999912E-02   9.86293829E-02   3.93589046E+03   9.23968672E+02   4.71030428E+03   6.56236822E-02   0.00000000E+00   4.75339222E+01
   1.69750000E+03   5.00000000E-01   5.00000000E-01   9.99654909E-02   9.99967296E-02   9.97776506E-02   9.99117620E-02   1.02015995E-01   2.85229603E+04   9.90716687E-02   9.96372213E-02   9.99999883E-02   9.86653406E-02   3.93753498E+03   9.62849603E+02   4.64726137E+03   6.56230533E-02   0.00000000E+00   4.71730755E+01
   1.73250000E+03   5.00000000E-01   5.00000000E-01   9.99654932E-02   9.99967302E-02   9.97776507E-02   9.99117620E-02   1.01946661E-01   2.81635155E+04   9.90718959E-02   9.96371772E-02   9.99999844E-02   9.87022216E-02   3.93826896E+03   1.00218526E+03   4.58628605E+03   6.56223771E-02   0.00000000E+00   4.68238479E+01
   1.76750000E+03   5.00000000E-01   5.00000000E-01   9.99654957E-02   9.99967307E-02   9.97776508E-02   9.99117620E-02   1.01879319E-01   2.78018565E+04   9.90721109E-02   9.96371289E-02   9.99999792E-02   9.87399966E-02   3.93805523E+03   1.04199835E+03   4.52780750E+03   6.56216546E-02   0.00000000E+00   4.64837609E+01
   1.80250000E+03   5.00000000E-01   5.00000000E-01   9.99654986E-02   9.99967313E-02   9.97776510E-02   9.99117620E-02   1.01813934E-01   2.74412962E+04   9.90722635E-02   9.96370768E-02   9.99999725E-02   9.87786342E-02   3.93686655E+03   1.08231367E+03   4.47218571E+03   6.56208869E-02   0.00000000E+00   4.61505941E+01
   1.83750000E+03   5.00000000E-01   5.00000000E-01   9.99655018E-02   9.99967318E-02   9.97776512E-02   9.99117620E-02   1.01750468E-01   2.70846680E+04   9.90723102E-02   9.96370215E-02   9.99999637E-02   9.88181022E-02   3.93468451E+03   1.12315702E+03   4.41971343E+03   6.56200754E-02   0.00000000E+00   4.58223920E+01
   1.87250000E+03   5.00000000E-01   5.00000000E-01   9.99655052E-02   9.99967324E-02   9.97776513E-02   9.99117620E-02   1.01688880E-01   2.67343405E+04   9.90722134E-02   9.96369631E-02   9.99999527E-02   9.88583668E-02   3.93149821E+03   1.16455406E+03   4.37062048E+03   6.56192219E-02   0.00000000E+00   4.54974590E+01
   1.90750000E+03   5.00000000E-01   5.00000000E-01   9.99655089E-02   9.99967330E-02   9.97776515E-02   9.99117620E-02   1.01629128E-01   2.63922477E+04   9.90719418E-02   9.96369021E-02   9.99999388E-02   9.88993936E-02   3.92730283E+03   1.20652931E+03   4.32507911E+03   6.56183286E-02   0.00000000E+00   4.51743501E+01
   1.94250000E+03   5.00000000E-01   5.00000000E-01   9.99655128E-02   9.99967336E-02   9.97776517E-02   9.99117620E-02   1.01571172E-01   2.60599257E+04   9.90714699E-02   9.96368390E-02   9.99999217E-02   9.89411469E-02   3.92209814E+03   1.24910525E+03   4.28321088E+03   6.56173975E-02   0.00000000E+00   4.48518538E+01
   1.97750000E+03   5.00000000E-01   5.00000000E-01   9.99655170E-02   9.99967342E-02   9.97776519E-02   9.99117620E-02   1.01514969E-01   2.57385489E+04   9.90707770E-02   9.96367739E-02   9.99999007E-02   9.89835902E-02   3.91588739E+03   1.29230160E+03   4.24509412E+03   6.56164311E-02   0.00000000E+00   4.45289760E+01
   2.01250000E+03   5.00000000E-01   5.00000000E-01   9.99655213E-02   9.99967349E-02   9.97776521E-02   9.99117620E-02   1.01460476E-01   2.54289809E+04   9.90698477E-02   9.96367073E-02   9.99998752E-02   9.90266861E-02   3.90867594E+03   1.33613474E+03   4.21077114E+03   6.56154320E-02   0.00000000E+00   4.42049175E+01
   2.04750000E+03   5.00000000E-01   5.00000000E-01   9.99655258E-02   9.99967355E-02   9.97776523E-02   9.99117620E-02   1.01407651E-01   2.51318108E+04   9.90686705E-02   9.96366396E-02   9.99998446E-02   9.90703957E-02   3.90047056E+03   1.38061718E+03   4.18025593E+03   6.56144027E-02   0.00000000E+00   4.38790524E+01
   2.08250000E+03   5.00000000E-01   5.00000000E-01   9.99655304E-02   9.99967361E-02   9.97776526E-02   9.99117620E-02   1.01356453E-01   2.48473985E+04   9.90672377E-02   9.96365709E-02   9.99998080E-02   9.91146793E-02   3.89127856E+03   1.42575735E+03   4.15354092E+03   6.56133460E-02   0.00000000E+00   4.35509069E+01
   2.11750000E+03   5.00000000E-01   5.00000000E-01   9.99655352E-02   9.99967368E-02   9.97776528E-02   9.99117620E-02   1.01306841E-01   2.45759160E+04   9.90655448E-02   9.96365017E-02   9.99997648E-02   9.91594955E-02   3.88110716E+03   1.47155939E+03   4.13060322E+03   6.56122646E-02   0.00000000E+00   4.32201337E+01
   2.15250000E+03   5.00000000E-01   5.00000000E-01   9.99655401E-02   9.99967375E-02   9.97776531E-02   9.99117620E-02   1.01258773E-01   2.43148142E+04   9.90635898E-02   9.96364321E-02   9.99997141E-02   9.92048192E-02   3.87000952E+03   1.51805287E+03   4.11163760E+03   6.56111614E-02   0.00000000E+00   4.28864234E+01
   2.18750000E+03   5.00000000E-01   5.00000000E-01   9.99655452E-02   9.99967382E-02   9.97776534E-02   9.99117620E-02   1.01212210E-01   2.40644786E+04   9.90613723E-02   9.96363626E-02   9.99996551E-02   9.92506029E-02   3.85798008E+03   1.56524397E+03   4.09651293E+03   6.56100392E-02   0.00000000E+00   4.25495980E+01
   2.22250000E+03   5.00000000E-01   5.00000000E-01   9.99655503E-02   9.99967389E-02   9.97776537E-02   9.99117620E-02   1.01167114E-01   2.38263364E+04   9.90588939E-02   9.96362932E-02   9.99995870E-02   9.92967892E-02   3.84499240E+03   1.61310790E+03   4.08506460E+03   6.56089006E-02   0.00000000E+00   4.22095950E+01
   2.25750000E+03   5.00000000E-01   5.00000000E-01   9.99655555E-02   9.99967396E-02   9.97776540E-02   9.99117620E-02   1.01123446E-01   2.36003966E+04   9.90561582E-02   9.96362243E-02   9.99995092E-02   9.93433278E-02   3.83104378E+03   1.66162605E+03   4.07726142E+03   6.56077481E-02   0.00000000E+00   4.18664028E+01
   2.29250000E+03   5.00000000E-01   5.00000000E-01   9.99655609E-02   9.99967403E-02   9.97776543E-02   9.99117620E-02   1.01081169E-01   2.33866310E+04   9.90531702E-02   9.96361562E-02   9.99994212E-02   9.93901664E-02   3.81613198E+03   1.71077732E+03   4.07305634E+03   6.56065845E-02   0.00000000E+00   4.15200544E+01
   2.32750000E+03   5.00000000E-01   5.00000000E-01   9.99655664E-02   9.99967411E-02   9.97776546E-02   9.99117620E-02   1.01040247E-01   2.31847458E+04   9.90499353E-02   9.96360889E-02   9.99993227E-02   9.94372528E-02   3.80025856E+03   1.76053884E+03   4.07243202E+03   6.56054125E-02   0.00000000E+00   4.11706078E+01
   2.36250000E+03   5.00000000E-01   5.00000000E-01   9.99655720E-02   9.99967418E-02   9.97776549E-02   9.99117620E-02   1.01000645E-01   2.29941002E+04   9.90464597E-02   9.96360227E-02   9.99992139E-02   9.94845356E-02   3.78343075E+03   1.81088799E+03   4.07540618E+03   6.56042344E-02   0.00000000E+00   4.08181392E+01
   2.39750000E+03   5.00000000E-01   5.00000000E-01   9.99655778E-02   9.99967426E-02   9.97776553E-02   9.99117620E-02   1.00962328E-01   2.28141164E+04   9.90427494E-02   9.96359577E-02   9.99990955E-02   9.95319610E-02   3.76565381E+03   1.86180015E+03   4.08199672E+03   6.56030530E-02   0.00000000E+00   4.04627485E+01
   2.43250000E+03   5.00000000E-01   5.00000000E-01   9.99655839E-02   9.99967434E-02   9.97776557E-02   9.99117620E-02   1.00925263E-01   2.26448631E+04   9.90388108E-02   9.96358942E-02   9.99989691E-02   9.95794675E-02   3.74692094E+03   1.91324204E+03   4.09218070E+03   6.56018705E-02   0.00000000E+00   4.01045124E+01
   2.46750000E+03   5.00000000E-01   5.00000000E-01   9.99655905E-02   9.99967442E-02   9.97776560E-02   9.99117620E-02   1.00889417E-01   2.24860640E+04   9.90346498E-02   9.96358322E-02   9.99988370E-02   9.96269940E-02   3.72723090E+03   1.96518025E+03   4.10598787E+03   6.56006892E-02   0.00000000E+00   3.97435008E+01
   2.50250000E+03   5.00000000E-01   5.00000000E-01   9.99655976E-02   9.99967451E-02   9.97776564E-02   9.99117620E-02   1.00854759E-01   2.23373964E+04   9.90302726E-02   9.96357719E-02   9.99987023E-02   9.96744783E-02   3.70658380E+03   2.01758060E+03   4.12345986E+03   6.55995115E-02   0.00000000E+00   3.93797677E+01
   2.53750000E+03   5.00000000E-01   5.00000000E-01   9.99656053E-02   9.99967459E-02   9.97776568E-02   9.99117620E-02   1.00821257E-01   2.21985703E+04   9.90256846E-02   9.96357133E-02   9.99985690E-02   9.97218558E-02   3.68497925E+03   2.07040709E+03   4.14465007E+03   6.55983393E-02   0.00000000E+00   3.90133500E+01
   2.57250000E+03   5.00000000E-01   5.00000000E-01   9.99656141E-02   9.99967468E-02   9.97776573E-02   9.99117620E-02   1.00788881E-01   2.20692904E+04   9.90208910E-02   9.96356565E-02   9.99984421E-02   9.97690599E-02   3.66241696E+03   2.12362390E+03   4.16962285E+03   6.55971748E-02   0.00000000E+00   3.86442646E+01
   2.60750000E+03   5.00000000E-01   5.00000000E-01   9.99656239E-02   9.99967477E-02   9.97776577E-02   9.99117620E-02   1.00757601E-01   2.19493176E+04   9.90158966E-02   9.96356016E-02   9.99983273E-02   9.98160218E-02   3.63889549E+03   2.17719418E+03   4.19845215E+03   6.55960200E-02   0.00000000E+00   3.82725029E+01
   2.64250000E+03   5.00000000E-01   5.00000000E-01   9.99656351E-02   9.99967486E-02   9.97776581E-02   9.99117620E-02   1.00727387E-01   2.18384262E+04   9.90107054E-02   9.96355486E-02   9.99982310E-02   9.98626703E-02   3.61441401E+03   2.23108037E+03   4.23122002E+03   6.55948765E-02   0.00000000E+00   3.78980284E+01
   2.67750000E+03   5.00000000E-01   5.00000000E-01   9.99656478E-02   9.99967496E-02   9.97776586E-02   9.99117620E-02   1.00698212E-01   2.17355574E+04   9.90053210E-02   9.96354975E-02   9.99981597E-02   9.99089404E-02   3.58898522E+03   2.28525394E+03   4.26808737E+03   6.55937461E-02   0.00000000E+00   3.75207510E+01
   2.71250000E+03   5.00000000E-01   5.00000000E-01   9.99656623E-02   9.99967505E-02   9.97776590E-02   9.99117620E-02   1.00670046E-01   2.16411559E+04   9.89997464E-02   9.96354484E-02   9.99981199E-02   9.99547508E-02   3.56259848E+03   2.33967236E+03   4.30908551E+03   6.55926305E-02   0.00000000E+00   3.71405855E+01
   2.74750000E+03   5.00000000E-01   5.00000000E-01   9.99656734E-02   9.99967515E-02   9.97776595E-02   9.99117620E-02   1.00642864E-01   2.15560429E+04   9.89939842E-02   9.96354012E-02   9.99980834E-02   1.00000015E-01   3.53524437E+03   2.39427023E+03   4.35429464E+03   6.55915311E-02   0.00000000E+00   3.67573886E+01
   2.78250000E+03   5.00000000E-01   5.00000000E-01   9.99656846E-02   9.99967525E-02   9.97776600E-02   9.99117620E-02   1.00616636E-01   2.14800647E+04   9.89880366E-02   9.96353562E-02   9.99980421E-02   1.00044645E-01   3.50692276E+03   2.44901220E+03   4.40380809E+03   6.55904492E-02   0.00000000E+00   3.63710790E+01
   2.81750000E+03   5.00000000E-01   5.00000000E-01   9.99656962E-02   9.99967535E-02   9.97776605E-02   9.99117620E-02   1.00591337E-01   2.14131648E+04   9.89819055E-02   9.96353131E-02   9.99980049E-02   1.00088549E-01   3.47763432E+03   2.50385923E+03   4.45771530E+03   6.55893862E-02   0.00000000E+00   3.59814371E+01
   2.85250000E+03   5.00000000E-01   5.00000000E-01   9.99657082E-02   9.99967545E-02   9.97776610E-02   9.99117620E-02   1.00566940E-01   2.13554946E+04   9.89755924E-02   9.96352721E-02   9.99979840E-02   1.00131643E-01   3.44737864E+03   2.55876576E+03   4.51609927E+03   6.55883431E-02   0.00000000E+00   3.55882387E+01
   2.88750000E+03   5.00000000E-01   5.00000000E-01   9.99657203E-02   9.99967556E-02   9.97776615E-02   9.99117620E-02   1.00543418E-01   2.13072674E+04   9.89690986E-02   9.96352331E-02   9.99979877E-02   1.00173842E-01   3.41615572E+03   2.61368553E+03   4.57903318E+03   6.55873211E-02   0.00000000E+00   3.51912750E+01
   2.92250000E+03   5.00000000E-01   5.00000000E-01   9.99657325E-02   9.99967566E-02   9.97776621E-02   9.99117620E-02   1.00520746E-01   2.12687019E+04   9.89624250E-02   9.96351959E-02   9.99980186E-02   1.00215057E-01   3.38396651E+03   2.66857375E+03   4.64657690E+03   6.55863211E-02   0.00000000E+00   3.47905074E+01
   2.95750000E+03   5.00000000E-01   5.00000000E-01   9.99657448E-02   9.99967577E-02   9.97776626E-02   9.99117620E-02   1.00498899E-01   2.12400492E+04   9.89555727E-02   9.96351607E-02   9.99980754E-02   1.00255204E-01   3.35081309E+03   2.72338582E+03   4.71877352E+03   6.55853438E-02   0.00000000E+00   3.43854701E+01
   2.99250000E+03   5.00000000E-01   5.00000000E-01   9.99657570E-02   9.99967588E-02   9.97776631E-02   9.99117620E-02   1.00477850E-01   2.12215571E+04   9.89485427E-02   9.96351273E-02   9.99981540E-02   1.00294192E-01   3.31669881E+03   2.77807866E+03   4.79564573E+03   6.55843901E-02   0.00000000E+00   3.39758927E+01
   3.02750000E+03   5.00000000E-01   5.00000000E-01   9.99657691E-02   9.99967600E-02   9.97776637E-02   9.99117620E-02   1.00457574E-01   2.12135039E+04   9.89413361E-02   9.96350956E-02   9.99982492E-02   1.00331934E-01   3.28162837E+03   2.83260949E+03   4.87719221E+03   6.55834605E-02   0.00000000E+00   3.35614934E+01
   3.06250000E+03   5.00000000E-01   5.00000000E-01   9.99657811E-02   9.99967611E-02   9.97776643E-02   9.99117620E-02   1.00438048E-01   2.12161873E+04   9.89339543E-02   9.96350656E-02   9.99983548E-02   1.00368343E-01   3.24560817E+03   2.88693592E+03   4.96338412E+03   6.55825556E-02   0.00000000E+00   3.31419825E+01
   3.09750000E+03   5.00000000E-01   5.00000000E-01   9.99657928E-02   9.99967623E-02   9.97776648E-02   9.99117620E-02   1.00419245E-01   2.12299184E+04   9.89263991E-02   9.96350373E-02   9.99984645E-02   1.00403331E-01   3.20864671E+03   2.94101594E+03   5.05416166E+03   6.55816758E-02   0.00000000E+00   3.27170674E+01
   3.13250000E+03   5.00000000E-01   5.00000000E-01   9.99658042E-02   9.99967635E-02   9.97776654E-02   9.99117620E-02   1.00401143E-01   2.12550200E+04   9.89186729E-02   9.96350106E-02   9.99985720E-02   1.00436814E-01   3.17075487E+03   2.99480794E+03   5.14943090E+03   6.55808215E-02   0.00000000E+00   3.22865034E+01
   3.16750000E+03   5.00000000E-01   5.00000000E-01   9.99658153E-02   9.99967647E-02   9.97776660E-02   9.99117620E-02   1.00383716E-01   2.12918190E+04   9.89107787E-02   9.96349854E-02   9.99986713E-02   1.00468709E-01   3.13194611E+03   3.04827104E+03   5.24906090E+03   6.55799929E-02   0.00000000E+00   3.18503008E+01