 TITLE = "Mineral Area" 
VARIABLES = "X"          "Y"              "Z"            "Forsterite"     "Fayalite"       "Saponite(Mg)"   "Enstatite(alph" "Ferrosilite(al" "Anorthite"      "Albite(low)"    "Clinochlore"    "Sudoite"        "Montmorillonit" "Kaolinite"      "Tremolite"      "Pargasite"      "Anhydrite"      "Epidote"        "Scolecite"      "Pyrite"         "FeS(am)"        "Quartz(alpha)" 
 ZONE I=         100 , J=           1 , K=           1  F=POINT
   1.75000000E+01   5.00000000E-01   5.00000000E-01   3.50296068E+04   4.77285266E+04   1.24802335E+06   2.00609505E+04   1.76163180E+04   1.23222847E+05   2.95198369E+04   7.16885249E+04   3.08497595E-04   4.36236846E-03   2.76427529E+04   4.81757353E+04   4.94438595E+04   1.34677889E-05   3.47617436E+02   2.27142952E+02   6.66830988E-05   6.62523394E-05   2.35708674E-05
   5.25000000E+01   5.00000000E-01   5.00000000E-01   3.50296068E+04   4.77793675E+04   1.26463285E+06   2.00609505E+04   1.76163367E+04   1.23222847E+05   2.96890165E+04   6.31199431E+04   1.63040136E-04   4.86033637E-03   2.76644962E+04   4.81756948E+04   4.94438595E+04   1.35711988E-05   3.47617438E+02   2.27142984E+02   6.66830988E-05   6.62536241E-05   2.35712990E-05
   8.75000000E+01   5.00000000E-01   5.00000000E-01   3.50296068E+04   4.78447662E+04   1.20344267E+06   2.00609505E+04   1.76163522E+04   1.23222847E+05   2.97578349E+04   6.05630285E+04   1.32751445E-04   5.19466315E-03   2.76796533E+04   4.81755485E+04   4.94438595E+04   1.36867755E-05   3.47617438E+02   2.27143007E+02   6.66830988E-05   6.62546011E-05   2.35713522E-05
   1.22500000E+02   5.00000000E-01   5.00000000E-01   3.50296068E+04   4.79108785E+04   1.12353697E+06   2.00609506E+04   1.76163644E+04   1.23222847E+05   2.98067689E+04   5.92396196E+04   1.26819006E-04   5.52592556E-03   2.76952002E+04   4.81754764E+04   4.94438595E+04   1.38160164E-05   3.47617438E+02   2.27143030E+02   6.66830988E-05   6.62552240E-05   2.35713448E-05
   1.57500000E+02   5.00000000E-01   5.00000000E-01   3.50296068E+04   4.79698038E+04   1.04961591E+06   2.00609506E+04   1.76163736E+04   1.23222847E+05   2.98486825E+04   5.81762548E+04   1.27382866E-04   5.89532388E-03   2.77127018E+04   4.81754810E+04   4.94438595E+04   1.39605315E-05   3.47617438E+02   2.27143056E+02   6.66830988E-05   6.62555424E-05   2.35713170E-05
   1.92500000E+02   5.00000000E-01   5.00000000E-01   3.50296068E+04   4.80189081E+04   9.87639036E+05   2.00609506E+04   1.76163804E+04   1.23222847E+05   2.98835946E+04   5.72901858E+04   1.30174051E-04   6.29911216E-03   2.77320332E+04   4.81754538E+04   4.94438595E+04   1.41220909E-05   3.47617438E+02   2.27143086E+02   6.66830988E-05   6.62556311E-05   2.35712732E-05
   2.27500000E+02   5.00000000E-01   5.00000000E-01   3.50296068E+04   4.80582578E+04   9.37982467E+05   2.00609506E+04   1.76163853E+04   1.23222847E+05   2.99111211E+04   5.65954971E+04   1.34100840E-04   6.72747707E-03   2.77528717E+04   4.81753683E+04   4.94438595E+04   1.43026673E-05   3.47617437E+02   2.27143117E+02   6.66830988E-05   6.62555576E-05   2.35712160E-05
   2.62500000E+02   5.00000000E-01   5.00000000E-01   3.50296068E+04   4.80890249E+04   8.99169430E+05   2.00609506E+04   1.76163888E+04   1.23222847E+05   2.99317142E+04   5.60905964E+04   1.38915917E-04   7.17271560E-03   2.77749799E+04   4.81753333E+04   4.94438595E+04   1.45044773E-05   3.47617437E+02   2.27143150E+02   6.66830988E-05   6.62553751E-05   2.35711485E-05
   2.97500000E+02   5.00000000E-01   5.00000000E-01   3.50296068E+04   4.81126712E+04   8.69435842E+05   2.00609506E+04   1.76163911E+04   1.23222847E+05   2.99463033E+04   5.57542388E+04   1.44627653E-04   7.63031703E-03   2.77982492E+04   4.81753434E+04   4.94438595E+04   1.47300301E-05   3.47617437E+02   2.27143185E+02   6.66830988E-05   6.62551233E-05   2.35710737E-05
   3.32500000E+02   5.00000000E-01   5.00000000E-01   3.50296068E+04   4.81306142E+04   8.47051559E+05   2.00609506E+04   1.76163927E+04   1.23222847E+05   2.99559248E+04   5.55593461E+04   1.51340960E-04   8.09812580E-03   2.78226548E+04   4.81753509E+04   4.94438595E+04   1.49821826E-05   3.47617437E+02   2.27143222E+02   6.66830988E-05   6.62548311E-05   2.35709938E-05
   3.67500000E+02   5.00000000E-01   5.00000000E-01   3.50296068E+04   4.81440989E+04   8.30387749E+05   2.00609507E+04   1.76163936E+04   1.23222847E+05   2.99615530E+04   5.54804593E+04   1.59213956E-04   8.57554901E-03   2.78482124E+04   4.81753934E+04   4.94438595E+04   1.52641965E-05   3.47617437E+02   2.27143261E+02   6.66830988E-05   6.62545189E-05   2.35709109E-05
   4.02500000E+02   5.00000000E-01   5.00000000E-01   3.50296069E+04   4.81541386E+04   8.18147640E+05   2.00609507E+04   1.76163941E+04   1.23222847E+05   2.99640450E+04   5.54932524E+04   1.68459454E-04   9.06326238E-03   2.78749786E+04   4.81754744E+04   4.94438595E+04   1.55798116E-05   3.47617437E+02   2.27143301E+02   6.66830988E-05   6.62542010E-05   2.35708263E-05
   4.37500000E+02   5.00000000E-01   5.00000000E-01   3.50296069E+04   4.81615338E+04   8.09295404E+05   2.00609507E+04   1.76163942E+04   1.23222847E+05   2.99641172E+04   5.55766881E+04   1.79351573E-04   9.56275104E-03   2.79030329E+04   4.81755808E+04   4.94438595E+04   1.59333325E-05   3.47617437E+02   2.27143343E+02   6.66830988E-05   6.62538872E-05   2.35707412E-05
   4.72500000E+02   5.00000000E-01   5.00000000E-01   3.50296069E+04   4.81669042E+04   8.02999702E+05   2.00609507E+04   1.76163941E+04   1.23222847E+05   2.99623576E+04   5.57132066E+04   1.92239943E-04   1.00761039E-02   2.79324681E+04   4.81757079E+04   4.94438595E+04   1.63297320E-05   3.47617437E+02   2.27143388E+02   6.66830988E-05   6.62535841E-05   2.35706563E-05
   5.07500000E+02   5.00000000E-01   5.00000000E-01   3.50296069E+04   4.81707195E+04   7.98612345E+05   2.00609507E+04   1.76163938E+04   1.23222847E+05   2.99592473E+04   5.58879722E+04   2.07573525E-04   1.06059745E-02   2.79633910E+04   4.81758515E+04   4.94438595E+04   1.67747790E-05   3.47617437E+02   2.27143435E+02   6.66830988E-05   6.62532957E-05   2.35705723E-05
   5.42500000E+02   5.00000000E-01   5.00000000E-01   3.50296070E+04   4.81733310E+04   7.95630297E+05   2.00609508E+04   1.76163934E+04   1.23222847E+05   2.99551785E+04   5.60884857E+04   2.25933015E-04   1.11555536E-02   2.79959215E+04   4.81760071E+04   4.94438595E+04   1.72751931E-05   3.47617437E+02   2.27143484E+02   6.66830988E-05   6.62530245E-05   2.35704897E-05
   5.77500000E+02   5.00000000E-01   5.00000000E-01   3.50296071E+04   4.81749981E+04   7.93664012E+05   2.00609508E+04   1.76163928E+04   1.23222847E+05   2.99504707E+04   5.63042481E+04   2.48075921E-04   1.17285593E-02   2.80301923E+04   4.81761714E+04   4.94438595E+04   1.78388361E-05   3.47617436E+02   2.27143536E+02   6.66830988E-05   6.62527719E-05   2.35704087E-05
   6.12500000E+02   5.00000000E-01   5.00000000E-01   3.50296072E+04   4.81759107E+04   7.92413549E+05   2.00609508E+04   1.76163922E+04   1.23222847E+05   2.99453827E+04   5.65265043E+04   2.74999394E-04   1.23292138E-02   2.80663479E+04   4.81763420E+04   4.94438595E+04   1.84749483E-05   3.47617436E+02   2.27143592E+02   6.66830988E-05   6.62525384E-05   2.35703297E-05
   6.47500000E+02   5.00000000E-01   5.00000000E-01   3.50296073E+04   4.81762064E+04   7.91650597E+05   2.00609508E+04   1.76163915E+04   1.23222848E+05   2.99401205E+04   5.67480797E+04   3.08028055E-04   1.29621843E-02   2.81045416E+04   4.81765176E+04   4.94438595E+04   1.91944426E-05   3.47617435E+02   2.27143650E+02   6.66830988E-05   6.62523237E-05   2.35702527E-05
   6.82500000E+02   5.00000000E-01   5.00000000E-01   3.50296076E+04   4.81759843E+04   7.91205101E+05   2.00609509E+04   1.76163908E+04   1.23222848E+05   2.99348437E+04   5.69632823E+04   3.48937436E-04   1.36324748E-02   2.81449320E+04   4.81766977E+04   4.94438595E+04   2.00102722E-05   3.47617434E+02   2.27143713E+02   6.66830988E-05   6.62521275E-05   2.35701780E-05
   7.17500000E+02   5.00000000E-01   5.00000000E-01   3.50296079E+04   4.81753157E+04   7.90955256E+05   2.00609509E+04   1.76163901E+04   1.23222848E+05   2.99296695E+04   5.71678333E+04   4.00128667E-04   1.43452656E-02   2.81876765E+04   4.81768822E+04   4.94438595E+04   2.09378922E-05   3.47617433E+02   2.27143779E+02   6.66830988E-05   6.62519490E-05   2.35701057E-05
   7.52500000E+02   5.00000000E-01   5.00000000E-01   3.50296084E+04   4.81742523E+04   7.90819895E+05   2.00609509E+04   1.76163893E+04   1.23222848E+05   2.99246768E+04   5.73587964E+04   4.64877370E-04   1.51056978E-02   2.82329236E+04   4.81770716E+04   4.94438595E+04   2.19958448E-05   3.47617431E+02   2.27143850E+02   6.66830988E-05   6.62517871E-05   2.35700357E-05
   7.87500000E+02   5.00000000E-01   5.00000000E-01   3.50296091E+04   4.81728323E+04   7.90752522E+05   2.00609510E+04   1.76163885E+04   1.23222848E+05   2.99199095E+04   5.75344813E+04   5.47690655E-04   1.59186094E-02   2.82808053E+04   4.81772661E+04   4.94438595E+04   2.32065027E-05   3.47617428E+02   2.27143925E+02   6.66830988E-05   6.62516410E-05   2.35699681E-05
   8.22500000E+02   5.00000000E-01   5.00000000E-01   3.50296101E+04   4.81710849E+04   7.90736205E+05   2.00609510E+04   1.76163877E+04   1.23222848E+05   2.99153815E+04   5.76943158E+04   6.54822253E-04   1.67882325E-02   2.83314280E+04   4.81774646E+04   4.94438595E+04   2.45970214E-05   3.47617424E+02   2.27144005E+02   6.66830988E-05   6.62515095E-05   2.35699029E-05
   8.57500000E+02   5.00000000E-01   5.00000000E-01   3.50296117E+04   4.81690332E+04   7.90778102E+05   2.00609510E+04   1.76163868E+04   1.23222849E+05   2.99110808E+04   5.78386943E+04   7.95019201E-04   1.77178638E-02   2.83848643E+04   4.81776646E+04   4.94438595E+04   2.62005674E-05   3.47617419E+02   2.27144090E+02   6.66830988E-05   6.62513914E-05   2.35698399E-05
   8.92500000E+02   5.00000000E-01   5.00000000E-01   3.50296139E+04   4.81666970E+04   7.90902425E+05   2.00609511E+04   1.76163860E+04   1.23222849E+05   2.99069753E+04   5.79688249E+04   9.80607233E-04   1.87095268E-02   2.84411456E+04   4.81778631E+04   4.94438595E+04   2.80579111E-05   3.47617411E+02   2.27144181E+02   6.66830988E-05   6.62512857E-05   2.35697791E-05
   9.27500000E+02   5.00000000E-01   5.00000000E-01   3.50296173E+04   4.81640944E+04   7.91141915E+05   2.00609511E+04   1.76163851E+04   1.23222850E+05   2.99030180E+04   5.80865798E+04   1.22907094E-03   1.97636486E-02   2.85002560E+04   4.81780588E+04   4.94438595E+04   3.02195077E-05   3.47617401E+02   2.27144276E+02   6.66830988E-05   6.62511914E-05   2.35697204E-05
   9.62500000E+02   5.00000000E-01   5.00000000E-01   3.50296223E+04   4.81612430E+04   7.91529865E+05   2.00609511E+04   1.76163842E+04   1.23222851E+05   2.98991530E+04   5.81943330E+04   1.56535694E-03   2.08787841E-02   2.85621279E+04   4.81782553E+04   4.94438595E+04   3.27482359E-05   3.47617388E+02   2.27144377E+02   6.66830988E-05   6.62511073E-05   2.35696636E-05
   9.97500000E+02   5.00000000E-01   5.00000000E-01   3.50296296E+04   4.81581597E+04   7.92097361E+05   2.00609512E+04   1.76163833E+04   1.23222852E+05   2.98953207E+04   5.82947309E+04   2.02524005E-03   2.20514305E-02   2.86266421E+04   4.81784607E+04   4.94438595E+04   3.57230290E-05   3.47617371E+02   2.27144484E+02   6.66830988E-05   6.62510326E-05   2.35696087E-05
   1.03250000E+03   5.00000000E-01   5.00000000E-01   3.50296404E+04   4.81548597E+04   7.92880661E+05   2.00609512E+04   1.76163824E+04   1.23222853E+05   2.98914628E+04   5.83903398E+04   2.66027262E-03   2.32759801E-02   2.86936334E+04   4.81786786E+04   4.94438595E+04   3.92437310E-05   3.47617350E+02   2.27144595E+02   6.66830988E-05   6.62509663E-05   2.35695556E-05
   1.06750000E+03   5.00000000E-01   5.00000000E-01   3.50296561E+04   4.81513553E+04   7.93928237E+05   2.00609513E+04   1.76163815E+04   1.23222854E+05   2.98875261E+04   5.84833567E+04   3.54505855E-03   2.45447675E-02   2.87628985E+04   4.81788975E+04   4.94438595E+04   4.34376491E-05   3.47617326E+02   2.27144712E+02   6.66830988E-05   6.62509076E-05   2.35695040E-05
   1.10250000E+03   5.00000000E-01   5.00000000E-01   3.50296790E+04   4.81476578E+04   7.95285571E+05   2.00609513E+04   1.76163806E+04   1.23222856E+05   2.98834644E+04   5.85757265E+04   4.78777062E-03   2.58480797E-02   2.88341972E+04   4.81790986E+04   4.94438595E+04   4.84684617E-05   3.47617297E+02   2.27144833E+02   6.66830988E-05   6.62508556E-05   2.35694539E-05
   1.13750000E+03   5.00000000E-01   5.00000000E-01   3.50297122E+04   4.81437810E+04   7.96969249E+05   2.00609514E+04   1.76163797E+04   1.23222858E+05   2.98792391E+04   5.86694505E+04   6.54512489E-03   2.71741964E-02   2.89072485E+04   4.81792774E+04   4.94438595E+04   5.45484259E-05   3.47617265E+02   2.27144960E+02   6.66830988E-05   6.62508096E-05   2.35694052E-05
   1.17250000E+03   5.00000000E-01   5.00000000E-01   3.50297597E+04   4.81397418E+04   7.98956284E+05   2.00609515E+04   1.76163787E+04   1.23222860E+05   2.98748215E+04   5.87666626E+04   9.04354935E-03   2.85096373E-02   2.89817321E+04   4.81794565E+04   4.94438595E+04   6.19552581E-05   3.47617231E+02   2.27145091E+02   6.66830988E-05   6.62507690E-05   2.35693578E-05
   1.20750000E+03   5.00000000E-01   5.00000000E-01   3.50298263E+04   4.81355574E+04   8.01207643E+05   2.00609515E+04   1.76163778E+04   1.23222864E+05   2.98701936E+04   5.88691950E+04   1.26093388E-02   2.98397646E-02   2.90573054E+04   4.81796707E+04   4.94438595E+04   7.10557136E-05   3.47617196E+02   2.27145226E+02   6.66830988E-05   6.62507333E-05   2.35693117E-05
   1.24250000E+03   5.00000000E-01   5.00000000E-01   3.50299175E+04   4.81312372E+04   8.03734408E+05   2.00609516E+04   1.76163768E+04   1.23222867E+05   2.98653509E+04   5.89775259E+04   1.77130900E-02   3.11498130E-02   2.91336424E+04   4.81799092E+04   4.94438595E+04   8.23389180E-05   3.47617160E+02   2.27145365E+02   6.66830988E-05   6.62507017E-05   2.35692667E-05
   1.27750000E+03   5.00000000E-01   5.00000000E-01   3.50300393E+04   4.81267848E+04   8.06597705E+05   2.00609517E+04   1.76163759E+04   1.23222872E+05   2.98602985E+04   5.90909227E+04   2.50327329E-02   3.24252426E-02   2.92104426E+04   4.81801036E+04   4.94438595E+04   9.64639502E-05   3.47617126E+02   2.27145509E+02   6.66830988E-05   6.62506739E-05   2.35692229E-05
   1.31250000E+03   5.00000000E-01   5.00000000E-01   3.50301984E+04   4.81222109E+04   8.09812205E+05   2.00609518E+04   1.76163749E+04   1.23222877E+05   2.98550454E+04   5.92091436E+04   3.55348521E-02   3.36510898E-02   2.92873827E+04   4.81802055E+04   4.94438595E+04   1.14328335E-04   3.47617096E+02   2.27145656E+02   6.66830988E-05   6.62506495E-05   2.35691801E-05
   1.34750000E+03   5.00000000E-01   5.00000000E-01   3.50304016E+04   4.81175411E+04   8.13276867E+05   2.00609518E+04   1.76163740E+04   1.23222884E+05   2.98496020E+04   5.93335321E+04   5.05741984E-02   3.48117576E-02   2.93640788E+04   4.81802602E+04   4.94438595E+04   1.37167571E-04   3.47617074E+02   2.27145807E+02   6.66830988E-05   6.62506279E-05   2.35691384E-05
   1.38250000E+03   5.00000000E-01   5.00000000E-01   3.50306511E+04   4.81128281E+04   8.16673827E+05   2.00609519E+04   1.76163730E+04   1.23222892E+05   2.98439779E+04   5.94686084E+04   7.19883055E-02   3.58904388E-02   2.94400228E+04   4.81805095E+04   4.94438595E+04   1.66700975E-04   3.47617061E+02   2.27145961E+02   6.66830988E-05   6.62506090E-05   2.35690977E-05
   1.41750000E+03   5.00000000E-01   5.00000000E-01   3.50309359E+04   4.81081344E+04   8.19725110E+05   2.00609520E+04   1.76163721E+04   1.23222902E+05   2.98381976E+04   5.96175742E+04   1.02245779E-01   3.68732789E-02   2.95147455E+04   4.81811770E+04   4.94438595E+04   2.05348754E-04   3.47617055E+02   2.27146118E+02   6.66830988E-05   6.62505923E-05   2.35690582E-05
   1.45250000E+03   5.00000000E-01   5.00000000E-01   3.50312402E+04   4.81034051E+04   8.23154403E+05   2.00609522E+04   1.76163712E+04   1.23222913E+05   2.98323397E+04   5.97662945E+04   1.45057075E-01   3.77625535E-02   2.95884849E+04   4.81816756E+04   4.94438595E+04   2.56563760E-04   3.47617046E+02   2.27146279E+02   6.66830988E-05   6.62505776E-05   2.35690197E-05
   1.48750000E+03   5.00000000E-01   5.00000000E-01   3.50315672E+04   4.80985993E+04   8.27205985E+05   2.00609523E+04   1.76163702E+04   1.23222927E+05   2.98264340E+04   5.99100610E+04   2.05482977E-01   3.85519511E-02   2.96611366E+04   4.81818114E+04   4.94438595E+04   3.25333307E-04   3.47617036E+02   2.27146444E+02   6.66830988E-05   6.62505647E-05   2.35689821E-05
   1.52250000E+03   5.00000000E-01   5.00000000E-01   3.50319206E+04   4.80938495E+04   8.30877218E+05   2.00609524E+04   1.76163693E+04   1.23222943E+05   2.98204474E+04   6.00655416E+04   2.89261342E-01   3.92178458E-02   2.97316730E+04   4.81823542E+04   4.94438595E+04   4.18943746E-04   3.47617048E+02   2.27146611E+02   6.66830988E-05   6.62505533E-05   2.35689455E-05
   1.55750000E+03   5.00000000E-01   5.00000000E-01   3.50322848E+04   4.80892840E+04   8.33731644E+05   2.00609525E+04   1.76163684E+04   1.23222961E+05   2.98144113E+04   6.02378376E+04   4.03597756E-01   3.97530102E-02   2.97995617E+04   4.81835824E+04   4.94438595E+04   5.48181513E-04   3.47617068E+02   2.27146782E+02   6.66830988E-05   6.62505433E-05   2.35689100E-05
   1.59250000E+03   5.00000000E-01   5.00000000E-01   3.50326575E+04   4.80848021E+04   8.37084262E+05   2.00609527E+04   1.76163676E+04   1.23222984E+05   2.98084524E+04   6.04014452E+04   5.60577479E-01   4.01819351E-02   2.98657357E+04   4.81844266E+04   4.94438595E+04   7.29259047E-04   3.47617064E+02   2.27146956E+02   6.66830988E-05   6.62505345E-05   2.35688753E-05
   1.62750000E+03   5.00000000E-01   5.00000000E-01   3.50330448E+04   4.80803793E+04   8.41179746E+05   2.00609528E+04   1.76163667E+04   1.23223010E+05   2.98025956E+04   6.05517321E+04   7.75256846E-01   4.05050787E-02   2.99301914E+04   4.81846345E+04   4.94438595E+04   9.86877562E-04   3.47617045E+02   2.27147135E+02   6.66830988E-05   6.62505268E-05   2.35688415E-05
   1.66250000E+03   5.00000000E-01   5.00000000E-01   3.50334353E+04   4.80761804E+04   8.45291173E+05   2.00609529E+04   1.76163658E+04   1.23223041E+05   2.97968153E+04   6.07009470E+04   1.06354637E+00   4.07079575E-02   2.99920895E+04   4.81845482E+04   4.94438595E+04   1.35918679E-03   3.47616998E+02   2.27147319E+02   6.66830988E-05   6.62505200E-05   2.35688084E-05
   1.69750000E+03   5.00000000E-01   5.00000000E-01   3.50338270E+04   4.80722322E+04   8.49341399E+05   2.00609530E+04   1.76163650E+04   1.23223077E+05   2.97911487E+04   6.08484832E+04   1.44620936E+00   4.07946831E-02   3.00512600E+04   4.81843204E+04   4.94438595E+04   1.90595118E-03   3.47616935E+02   2.27147506E+02   6.66830988E-05   6.62505141E-05   2.35687761E-05
   1.73250000E+03   5.00000000E-01   5.00000000E-01   3.50342360E+04   4.80684055E+04   8.53647387E+05   2.00609532E+04   1.76163642E+04   1.23223120E+05   2.97856526E+04   6.09868115E+04   1.95138561E+00   4.07777279E-02   3.01079285E+04   4.81840577E+04   4.94438595E+04   2.72213929E-03   3.47616925E+02   2.27147699E+02   6.66830988E-05   6.62505088E-05   2.35687445E-05
   1.76750000E+03   5.00000000E-01   5.00000000E-01   3.50346607E+04   4.80647387E+04   8.57991857E+05   2.00609533E+04   1.76163634E+04   1.23223170E+05   2.97803432E+04   6.11184124E+04   2.60935603E+00   4.06587105E-02   3.01617979E+04   4.81838653E+04   4.94438595E+04   3.96084012E-03   3.47616974E+02   2.27147898E+02   6.66830988E-05   6.62505042E-05   2.35687134E-05
   1.80250000E+03   5.00000000E-01   5.00000000E-01   3.50350873E+04   4.80613950E+04   8.61920422E+05   2.00609535E+04   1.76163627E+04   1.23223228E+05   2.97752308E+04   6.12495589E+04   3.44995744E+00   4.04377590E-02   3.02123759E+04   4.81838104E+04   4.94438595E+04   5.87239492E-03   3.47617026E+02   2.27148103E+02   6.66830988E-05   6.62505001E-05   2.35686830E-05
   1.83750000E+03   5.00000000E-01   5.00000000E-01   3.50354945E+04   4.80585194E+04   8.65010045E+05   2.00609536E+04   1.76163620E+04   1.23223297E+05   2.97703390E+04   6.13853183E+04   4.50124598E+00   4.01193309E-02   3.02592617E+04   4.81840905E+04   4.94438595E+04   8.87194208E-03   3.47617048E+02   2.27148315E+02   6.66830988E-05   6.62504965E-05   2.35686532E-05
   1.87250000E+03   5.00000000E-01   5.00000000E-01   3.50358617E+04   4.80562002E+04   8.67102464E+05   2.00609538E+04   1.76163614E+04   1.23223376E+05   2.97657135E+04   6.15256156E+04   5.79248859E+00   3.97151764E-02   3.03023801E+04   4.81848246E+04   4.94438595E+04   1.36574716E-02   3.47617055E+02   2.27148534E+02   6.66830988E-05   6.62504934E-05   2.35686242E-05
   1.90750000E+03   5.00000000E-01   5.00000000E-01   3.50361937E+04   4.80544248E+04   8.68822058E+05   2.00609539E+04   1.76163608E+04   1.23223469E+05   2.97614431E+04   6.16563637E+04   7.37766358E+00   3.92510131E-02   3.03425156E+04   4.81855477E+04   4.94438595E+04   2.14190368E-02   3.47617064E+02   2.27148763E+02   6.66830988E-05   6.62504906E-05   2.35685959E-05
   1.94250000E+03   5.00000000E-01   5.00000000E-01   3.50365107E+04   4.80531029E+04   8.70899527E+05   2.00609541E+04   1.76163602E+04   1.23223578E+05   2.97576058E+04   6.17623774E+04   9.33777368E+00   3.87496249E-02   3.03805465E+04   4.81857884E+04   4.94438595E+04   3.42131183E-02   3.47617074E+02   2.27149004E+02   6.66830988E-05   6.62504882E-05   2.35685682E-05
   1.97750000E+03   5.00000000E-01   5.00000000E-01   3.50368227E+04   4.80521512E+04   8.73449070E+05   2.00609542E+04   1.76163597E+04   1.23223705E+05   2.97542298E+04   6.18402539E+04   1.17542812E+01   3.82186902E-02   3.04166368E+04   4.81855991E+04   4.94438595E+04   5.56386263E-02   3.47617086E+02   2.27149257E+02   6.66830988E-05   6.62504860E-05   2.35685409E-05
   2.01250000E+03   5.00000000E-01   5.00000000E-01   3.50371320E+04   4.80516213E+04   8.76078600E+05   2.00609544E+04   1.76163593E+04   1.23223854E+05   2.97513185E+04   6.18954982E+04   1.46898552E+01   3.76576748E-02   3.04504083E+04   4.81851847E+04   4.94438595E+04   9.20702026E-02   3.47617102E+02   2.27149526E+02   6.66830988E-05   6.62504841E-05   2.35685139E-05
   2.04750000E+03   5.00000000E-01   5.00000000E-01   3.50374386E+04   4.80516662E+04   8.78277167E+05   2.00609545E+04   1.76163589E+04   1.23224028E+05   2.97488834E+04   6.19349161E+04   1.81878139E+01   3.70676063E-02   3.04814362E+04   4.81846812E+04   4.94438595E+04   1.54927056E-01   3.47617113E+02   2.27149811E+02   6.66830988E-05   6.62504825E-05   2.35684872E-05
   2.08250000E+03   5.00000000E-01   5.00000000E-01   3.50377420E+04   4.80524155E+04   8.79742244E+05   2.00609547E+04   1.76163585E+04   1.23224231E+05   2.97469624E+04   6.19607358E+04   2.22921293E+01   3.64560168E-02   3.05096281E+04   4.81841556E+04   4.94438595E+04   2.64874046E-01   3.47617114E+02   2.27150114E+02   6.66830988E-05   6.62504810E-05   2.35684608E-05
   2.11750000E+03   5.00000000E-01   5.00000000E-01   3.50380412E+04   4.80539512E+04   8.80340380E+05   2.00609548E+04   1.76163582E+04   1.23224469E+05   2.97456087E+04   6.19717459E+04   2.70559868E+01   3.58337954E-02   3.05351417E+04   4.81836392E+04   4.94438595E+04   4.59640365E-01   3.47617107E+02   2.27150437E+02   6.66830988E-05   6.62504796E-05   2.35684349E-05
   2.15250000E+03   5.00000000E-01   5.00000000E-01   3.50383357E+04   4.80563306E+04   8.79995617E+05   2.00609550E+04   1.76163580E+04   1.23224747E+05   2.97448799E+04   6.19655835E+04   3.25404495E+01   3.52119172E-02   3.05582284E+04   4.81831477E+04   4.94438595E+04   8.08609071E-01   3.47617093E+02   2.27150785E+02   6.66830988E-05   6.62504785E-05   2.35684093E-05
   2.18750000E+03   5.00000000E-01   5.00000000E-01   3.50386251E+04   4.80596010E+04   8.78643957E+05   2.00609551E+04   1.76163579E+04   1.23225073E+05   2.97448333E+04   6.19396556E+04   3.88140395E+01   3.46002978E-02   3.05791675E+04   4.81826896E+04   4.94438595E+04   1.44000805E+00   3.47617073E+02   2.27151160E+02   6.66830988E-05   6.62504775E-05   2.35683843E-05
   2.22250000E+03   5.00000000E-01   5.00000000E-01   3.50389100E+04   4.80638026E+04   8.76224883E+05   2.00609553E+04   1.76163579E+04   1.23225456E+05   2.97455242E+04   6.18913514E+04   4.59546718E+01   3.40075427E-02   3.05982466E+04   4.81822689E+04   4.94438595E+04   2.59121462E+00   3.47617046E+02   2.27151565E+02   6.66830988E-05   6.62504765E-05   2.35683596E-05
   2.25750000E+03   5.00000000E-01   5.00000000E-01   3.50391915E+04   4.80689653E+04   8.72683778E+05   2.00609555E+04   1.76163580E+04   1.23225906E+05   2.97470050E+04   6.18180686E+04   5.40531134E+01   3.34409019E-02   3.06157548E+04   4.81818871E+04   4.94438595E+04   4.70013679E+00   3.47617013E+02   2.27152003E+02   6.66830988E-05   6.62504757E-05   2.35683354E-05
   2.29250000E+03   5.00000000E-01   5.00000000E-01   3.50394711E+04   4.80751038E+04   8.67976205E+05   2.00609557E+04   1.76163581E+04   1.23226433E+05   2.97493238E+04   6.17172090E+04   6.32183693E+01   3.29063090E-02   3.06319778E+04   4.81815433E+04   4.94438595E+04   8.56483918E+00   3.47616973E+02   2.27152476E+02   6.66830988E-05   6.62504750E-05   2.35683117E-05
   2.32750000E+03   5.00000000E-01   5.00000000E-01   3.50397508E+04   4.80822092E+04   8.62071294E+05   2.00609559E+04   1.76163583E+04   1.23227052E+05   2.97525232E+04   6.15861532E+04   7.35878148E+01   3.24085698E-02   3.06471997E+04   4.81812348E+04   4.94438595E+04   1.56001057E+01   3.47616927E+02   2.27152987E+02   6.66830988E-05   6.62504743E-05   2.35682885E-05
   2.36250000E+03   5.00000000E-01   5.00000000E-01   3.50400326E+04   4.80902381E+04   8.54953979E+05   2.00609561E+04   1.76163586E+04   1.23227775E+05   2.97566410E+04   6.14221771E+04   8.53482003E+01   3.19517898E-02   3.06617151E+04   4.81809581E+04   4.94438595E+04   2.81768899E+01   3.47616875E+02   2.27153534E+02   6.66830988E-05   6.62504738E-05   2.35682657E-05
   2.39750000E+03   5.00000000E-01   5.00000000E-01   3.50403188E+04   4.80990983E+04   8.46629607E+05   2.00609563E+04   1.76163590E+04   1.23228617E+05   2.97617105E+04   6.12222610E+04   9.87745827E+01   3.15399710E-02   3.06758499E+04   4.81807087E+04   4.94438595E+04   4.98504598E+01   3.47616816E+02   2.27154113E+02   6.66830988E-05   6.62504732E-05   2.35682435E-05
   2.43250000E+03   5.00000000E-01   5.00000000E-01   3.50406117E+04   4.81086348E+04   8.37142352E+05   2.00609565E+04   1.76163594E+04   1.23229592E+05   2.97677594E+04   6.09828215E+04   1.14280324E+02   3.11772118E-02   3.06899676E+04   4.81804821E+04   4.94438595E+04   8.48693404E+01   3.47616750E+02   2.27154718E+02   6.66830988E-05   6.62504728E-05   2.35682218E-05
   2.46750000E+03   5.00000000E-01   5.00000000E-01   3.50409136E+04   4.81186296E+04   8.26623578E+05   2.00609567E+04   1.76163598E+04   1.23230708E+05   2.97747999E+04   6.06996642E+04   1.32423168E+02   3.08662126E-02   3.07043981E+04   4.81802736E+04   4.94438595E+04   1.36070577E+02   3.47616676E+02   2.27155335E+02   6.66830988E-05   6.62504723E-05   2.35682007E-05
   2.50250000E+03   5.00000000E-01   5.00000000E-01   3.50412270E+04   4.81288343E+04   8.15357232E+05   2.00609570E+04   1.76163603E+04   1.23231972E+05   2.97828047E+04   6.03688279E+04   1.53753971E+02   3.06042052E-02   3.07192357E+04   4.81800790E+04   4.94438595E+04   2.01554363E+02   3.47616593E+02   2.27155946E+02   6.66830988E-05   6.62504719E-05   2.35681801E-05
   2.53750000E+03   5.00000000E-01   5.00000000E-01   3.50415543E+04   4.81390295E+04   8.03779734E+05   2.00609572E+04   1.76163608E+04   1.23233388E+05   2.97916835E+04   5.99887248E+04   1.78460309E+02   3.03787073E-02   3.07341095E+04   4.81798942E+04   4.94438595E+04   2.73560616E+02   3.47616500E+02   2.27156535E+02   6.66830988E-05   6.62504716E-05   2.35681601E-05
   2.57250000E+03   5.00000000E-01   5.00000000E-01   3.50418981E+04   4.81490714E+04   7.92345907E+05   2.00609575E+04   1.76163613E+04   1.23234959E+05   2.98012878E+04   5.95624761E+04   2.06001671E+02   3.01681036E-02   3.07481705E+04   4.81797159E+04   4.94438595E+04   3.42190435E+02   3.47616396E+02   2.27157091E+02   6.66830988E-05   6.62504713E-05   2.35681405E-05
   2.60750000E+03   5.00000000E-01   5.00000000E-01   3.50422613E+04   4.81588947E+04   7.81358516E+05   2.00609577E+04   1.76163617E+04   1.23236692E+05   2.98114439E+04   5.90984098E+04   2.35034917E+02   2.99475759E-02   3.07603405E+04   4.81795417E+04   4.94438595E+04   4.00183842E+02   3.47616280E+02   2.27157608E+02   6.66830988E-05   6.62504709E-05   2.35681214E-05
   2.64250000E+03   5.00000000E-01   5.00000000E-01   3.50426468E+04   4.81684938E+04   7.70913051E+05   2.00609580E+04   1.76163622E+04   1.23238597E+05   2.98219860E+04   5.86082979E+04   2.63688390E+02   2.96950857E-02   3.07695767E+04   4.81793697E+04   4.94438595E+04   4.44062728E+02   3.47616151E+02   2.27158083E+02   6.66830988E-05   6.62504707E-05   2.35681027E-05
   2.67750000E+03   5.00000000E-01   5.00000000E-01   3.50430584E+04   4.81779036E+04   7.60950227E+05   2.00609583E+04   1.76163626E+04   1.23240687E+05   2.98327726E+04   5.81046994E+04   2.90008438E+02   2.93942695E-02   3.07750080E+04   4.81791992E+04   4.94438595E+04   4.73099132E+02   3.47616008E+02   2.27158520E+02   6.66830988E-05   6.62504704E-05   2.35680844E-05
   2.71250000E+03   5.00000000E-01   5.00000000E-01   3.50434998E+04   4.81871669E+04   7.51327342E+05   2.00609586E+04   1.76163630E+04   1.23242980E+05   2.98436961E+04   5.75985859E+04   3.12359840E+02   2.90355771E-02   3.07760191E+04   4.81790308E+04   4.94438595E+04   4.88865544E+02   3.47615851E+02   2.27158923E+02   6.66830988E-05   6.62504702E-05   2.35680664E-05