 TITLE = "Mineral Area" 
VARIABLES = "X"          "Y"              "Z"            "Forsterite"     "Fayalite"       "Brucite"        "Lizardite"      "Chrysotile"     "Hematite"       "Magnetite(am)"  "Saponite(Ca)"   "Saponite(K)"    "Saponite(Mg)"   "Saponite(Na)"   "Beidellite(Ca)" "Beidellite(K)"  "Beidellite(Mg)" "Beidellite(Na)" "Enstatite(alph" "Ferrosilite(al" "Anorthite"      "Albite(low)"    "Clinochlore"    "Sudoite"        "Montmor(MgCa)"  "Montmor(MgK)"   "Montmor(MgMg)"  "Montmor(MgNa)"  "Kaolinite"      "Tremolite"      "Pargasite"      "Anhydrite"      "Epidote"        "Scolecite"      "Pyrite"         "FeS(am)"        "Quartz(alpha)"  "Titanite"       "Rutile"         "Barite"         "Fluorite"       "Spessartine(al" "Andradite"      "Celestite"      "Zincite"        "Chalcocyanite"  "Chalcocite(alp"
 ZONE I=         200 , J=           1 , K=           1  F=POINT
   8.75000000E+00   5.00000000E-01   5.00000000E-01   1.31378618E+05   4.79650124E+04   1.25060458E-03   1.21361815E-03   1.11511236E-03   5.57478660E+03   1.24237945E-05   3.86449521E-02   7.47779097E-01   4.68680676E-02   7.70593070E+04   3.66067139E-02   3.81157088E-02   3.74583727E-02   3.71510385E-02   2.00602017E+04   1.76157227E+04   1.16754629E+05   2.96215037E+04   3.73410814E+05   0.00000000E+00   8.07111390E-03   8.29785335E-03   8.25583300E-03   8.19101008E-03   3.42611533E+04   4.55103601E+04   4.66210649E+04   0.00000000E+00   2.91387193E+03   1.97349719E-05   6.99745196E-05   6.86275713E-05   2.35895853E-05   3.52255464E+01   4.24384135E+01   1.47303085E+03   3.18127449E+01   3.50428018E+02   3.85413451E+01   3.97154335E+01   5.65893974E+02   3.90435195E+01   5.60031690E+01
   2.62500000E+01   5.00000000E-01   5.00000000E-01   1.31378617E+05   4.79670889E+04   1.25060261E-03   1.09163099E-03   1.02909603E-03   5.57478657E+03   1.24249694E-05   3.95410251E-02   1.61115805E+00   5.17877731E-02   3.21502628E+05   3.66067159E-02   3.81157116E-02   3.74583818E-02   3.71510622E-02   2.00602015E+04   1.76157598E+04   1.16754629E+05   2.96536240E+04   3.68547816E+05   0.00000000E+00   8.07112788E-03   8.29788737E-03   8.25589310E-03   8.19125016E-03   3.42611543E+04   4.55315887E+04   4.66210649E+04   0.00000000E+00   2.91387193E+03   1.97349752E-05   6.99745196E-05   6.86275713E-05   2.36031441E-05   3.52255402E+01   4.24384191E+01   1.44842585E+03   3.18127440E+01   3.50428018E+02   3.85413451E+01   3.97154335E+01   5.65894015E+02   3.90435195E+01   5.60021231E+01
   4.37500000E+01   5.00000000E-01   5.00000000E-01   1.31378617E+05   4.79691403E+04   1.25060176E-03   1.02553863E-03   9.81284386E-04   5.57478657E+03   1.24257426E-05   4.01022223E-02   2.05423124E+00   5.49492457E-02   3.66501047E+05   3.66067401E-02   3.81157443E-02   3.74584941E-02   3.71513484E-02   2.00602013E+04   1.76157918E+04   1.16754629E+05   2.97457503E+04   3.63427959E+05   0.00000000E+00   8.07122473E-03   8.29811061E-03   8.25630925E-03   8.19286485E-03   3.42611610E+04   4.55464891E+04   4.66210649E+04   0.00000000E+00   2.91387193E+03   1.97349928E-05   6.99745196E-05   6.86275713E-05   2.36148902E-05   3.52255347E+01   4.24384243E+01   1.43862529E+03   3.18127431E+01   3.50428018E+02   3.85413451E+01   3.97154335E+01   5.65894017E+02   3.90435195E+01   5.60021231E+01
   6.12500000E+01   5.00000000E-01   5.00000000E-01   1.31378617E+05   4.79712686E+04   1.25060135E-03   9.91439262E-04   9.56329320E-04   5.57478657E+03   1.24264129E-05   4.05628921E-02   2.35486708E+00   5.76055508E-02   4.50627519E+05   3.66068204E-02   3.81158469E-02   3.74588661E-02   3.71522682E-02   2.00602013E+04   1.76158224E+04   1.16754629E+05   2.98883080E+04   3.55313635E+05   0.00000000E+00   8.07147146E-03   8.29864446E-03   8.25736829E-03   8.19683781E-03   3.42611749E+04   4.55587902E+04   4.66210649E+04   0.00000000E+00   2.91387193E+03   1.97350285E-05   6.99745196E-05   6.86275713E-05   2.36246948E-05   3.52255321E+01   4.24384292E+01   1.43446361E+03   3.18127423E+01   3.50428018E+02   3.85413451E+01   3.97154335E+01   5.65894033E+02   3.90435195E+01   5.60021231E+01
   7.87500000E+01   5.00000000E-01   5.00000000E-01   1.31378617E+05   4.79736354E+04   1.25060114E-03   9.74293850E-04   9.43782863E-04   5.57478657E+03   1.24270936E-05   4.10472536E-02   2.68469169E+00   6.04752986E-02   5.78045785E+05   3.66069774E-02   3.81160357E-02   3.74595923E-02   3.71540076E-02   2.00602014E+04   1.76158529E+04   1.16754629E+05   3.00552877E+04   3.45427115E+05   0.00000000E+00   8.07187558E-03   8.29946029E-03   8.25910114E-03   8.20310411E-03   3.42611947E+04   4.55746133E+04   4.66210649E+04   0.00000000E+00   2.91387193E+03   1.97350789E-05   6.99745196E-05   6.86275713E-05   2.36324969E-05   3.52255312E+01   4.24384337E+01   1.43257450E+03   3.18127416E+01   3.50428018E+02   3.85413451E+01   3.97154335E+01   5.65894066E+02   3.90435195E+01   5.60021231E+01
   9.62500000E+01   5.00000000E-01   5.00000000E-01   1.31378617E+05   4.79762863E+04   1.25060104E-03   9.65229907E-04   9.37222127E-04   5.57478656E+03   1.24278170E-05   4.15593870E-02   3.03051736E+00   6.35909806E-02   7.15833837E+05   3.66072126E-02   3.81163006E-02   3.74606781E-02   3.71565222E-02   2.00602015E+04   1.76158830E+04   1.16754629E+05   3.02227790E+04   3.35378268E+05   0.00000000E+00   8.07239893E-03   8.30043968E-03   8.26134295E-03   8.21089377E-03   3.42612189E+04   4.55948527E+04   4.66210649E+04   0.00000000E+00   2.91387193E+03   1.97351391E-05   6.99745196E-05   6.86275713E-05   2.36384543E-05   3.52255311E+01   4.24384378E+01   1.43164511E+03   3.18127409E+01   3.50428018E+02   3.85413451E+01   3.97154335E+01   5.65894109E+02   3.90435195E+01   5.60021231E+01
   1.13750000E+02   5.00000000E-01   5.00000000E-01   1.31378617E+05   4.79792023E+04   1.25060098E-03   9.60050578E-04   9.33557135E-04   5.57478656E+03   1.24285907E-05   4.20715414E-02   3.33692915E+00   6.67858811E-02   8.37798606E+05   3.66075000E-02   3.81166018E-02   3.74620032E-02   3.71594772E-02   2.00602017E+04   1.76159126E+04   1.16754629E+05   3.03719364E+04   3.26439180E+05   0.00000000E+00   8.07297022E-03   8.30141930E-03   8.26378744E-03   8.21900886E-03   3.42612442E+04   4.56181888E+04   4.66210649E+04   0.00000000E+00   2.91387193E+03   1.97352016E-05   6.99745196E-05   6.86275713E-05   2.36428656E-05   3.52255313E+01   4.24384414E+01   1.43113822E+03   3.18127403E+01   3.50428018E+02   3.85413451E+01   3.97154335E+01   5.65894161E+02   3.90435195E+01   5.60021231E+01
   1.31250000E+02   5.00000000E-01   5.00000000E-01   1.31378617E+05   4.79823489E+04   1.25060097E-03   9.56888523E-04   9.31402190E-04   5.57478655E+03   1.24294174E-05   4.25606464E-02   3.56278109E+00   6.99082937E-02   9.32781050E+05   3.66078016E-02   3.81168920E-02   3.74633906E-02   3.71624385E-02   2.00602019E+04   1.76159414E+04   1.16754629E+05   3.04931138E+04   3.19231235E+05   0.00000000E+00   8.07352145E-03   8.30226971E-03   8.26614318E-03   8.22641487E-03   3.42612675E+04   4.56429662E+04   4.66210649E+04   0.00000000E+00   2.91387193E+03   1.97352597E-05   6.99745196E-05   6.86275713E-05   2.36460614E-05   3.52255316E+01   4.24384446E+01   1.43082461E+03   3.18127398E+01   3.50428018E+02   3.85413451E+01   3.97154335E+01   5.65894218E+02   3.90435195E+01   5.60021231E+01
   1.48750000E+02   5.00000000E-01   5.00000000E-01   1.31378617E+05   4.79856959E+04   1.25060098E-03   9.54913533E-04   9.30139860E-04   5.57478655E+03   1.24303001E-05   4.30148610E-02   3.69243120E+00   7.28686160E-02   9.99974997E+05   3.66080870E-02   3.81171397E-02   3.74647004E-02   3.71650926E-02   2.00602021E+04   1.76159695E+04   1.16754629E+05   3.05851373E+04   3.13822757E+05   0.00000000E+00   8.07401264E-03   8.30293350E-03   8.26823926E-03   8.23258025E-03   3.42612871E+04   4.56679161E+04   4.66210649E+04   0.00000000E+00   2.91387193E+03   1.97353098E-05   6.99745196E-05   6.86275713E-05   2.36483368E-05   3.52255318E+01   4.24384473E+01   1.43060274E+03   3.18127392E+01   3.50428018E+02   3.85413451E+01   3.97154335E+01   5.65894281E+02   3.90435195E+01   5.60021231E+01
   1.66250000E+02   5.00000000E-01   5.00000000E-01   1.31378617E+05   4.79892191E+04   1.25060100E-03   9.53729902E-04   9.29476416E-04   5.57478654E+03   1.24312420E-05   4.34301041E-02   3.72951824E+00   7.56248814E-02   1.04341235E+06   3.66083406E-02   3.81173335E-02   3.74658616E-02   3.71673030E-02   2.00602024E+04   1.76159967E+04   1.16754629E+05   3.06515634E+04   3.09985729E+05   0.00000000E+00   8.07443132E-03   8.30341053E-03   8.27002283E-03   8.23741258E-03   3.42613025E+04   4.56922082E+04   4.66210649E+04   0.00000000E+00   2.91387194E+03   1.97353510E-05   6.99745196E-05   6.86275713E-05   2.36499276E-05   3.52255319E+01   4.24384496E+01   1.43042602E+03   3.18127388E+01   3.50428018E+02   3.85413451E+01   3.97154335E+01   5.65894348E+02   3.90435195E+01   5.60021231E+01
   1.83750000E+02   5.00000000E-01   5.00000000E-01   1.31378617E+05   4.79928971E+04   1.25060104E-03   9.53124441E-04   9.29254233E-04   5.57478653E+03   1.24322456E-05   4.38061830E-02   3.68787006E+00   7.81618657E-02   1.06847462E+06   3.66085589E-02   3.81174758E-02   3.74668581E-02   3.71690622E-02   2.00602026E+04   1.76160231E+04   1.16754629E+05   3.06974786E+04   3.07399149E+05   0.00000000E+00   8.07478184E-03   8.30372917E-03   8.27151298E-03   8.24106123E-03   3.42613139E+04   4.57153074E+04   4.66210649E+04   0.00000000E+00   2.91387194E+03   1.97353840E-05   6.99745196E-05   6.86275713E-05   2.36510104E-05   3.52255320E+01   4.24384514E+01   1.43027244E+03   3.18127383E+01   3.50428018E+02   3.85413451E+01   3.97154335E+01   5.65894418E+02   3.90435195E+01   5.60021231E+01
   2.01250000E+02   5.00000000E-01   5.00000000E-01   1.31378617E+05   4.79967095E+04   1.25060109E-03   9.52967434E-04   9.29377802E-04   5.57478653E+03   1.24333133E-05   4.41446629E-02   3.58492424E+00   8.04785279E-02   1.08018235E+06   3.66087449E-02   3.81175748E-02   3.74677044E-02   3.71704287E-02   2.00602029E+04   1.76160487E+04   1.16754629E+05   3.07277570E+04   3.05757215E+05   0.00000000E+00   8.07507558E-03   8.30392521E-03   8.27275894E-03   8.24375866E-03   3.42613220E+04   4.57368620E+04   4.66210649E+04   0.00000000E+00   2.91387194E+03   1.97354101E-05   6.99745196E-05   6.86275713E-05   2.36517137E-05   3.52255319E+01   4.24384528E+01   1.43013126E+03   3.18127379E+01   3.50428018E+02   3.85413451E+01   3.97154335E+01   5.65894491E+02   3.90435195E+01   5.60021231E+01
   2.18750000E+02   5.00000000E-01   5.00000000E-01   1.31378617E+05   4.80006366E+04   1.25060116E-03   9.53172874E-04   9.29784071E-04   5.57478652E+03   1.24344471E-05   4.44479465E-02   3.43797238E+00   8.25820835E-02   1.08259293E+06   3.66089044E-02   3.81176403E-02   3.74684275E-02   3.71714809E-02   2.00602032E+04   1.76160734E+04   1.16754629E+05   3.07464074E+04   3.04809366E+05   0.00000000E+00   8.07532516E-03   8.30403143E-03   8.27381507E-03   8.24573371E-03   3.42613276E+04   4.57566492E+04   4.66210649E+04   0.00000000E+00   2.91387194E+03   1.97354309E-05   6.99745196E-05   6.86275713E-05   2.36521293E-05   3.52255317E+01   4.24384537E+01   1.42999717E+03   3.18127375E+01   3.50428018E+02   3.85413451E+01   3.97154335E+01   5.65894568E+02   3.90435195E+01   5.60021231E+01
   2.36250000E+02   5.00000000E-01   5.00000000E-01   1.31378617E+05   4.80046598E+04   1.25060123E-03   9.53680590E-04   9.30429142E-04   5.57478652E+03   1.24356490E-05   4.47188858E-02   3.26230297E+00   8.44851299E-02   1.07874241E+06   3.66090435E-02   3.81176811E-02   3.74690557E-02   3.71722943E-02   2.00602035E+04   1.76160972E+04   1.16754629E+05   3.07564858E+04   3.04365339E+05   0.00000000E+00   8.07554177E-03   8.30407396E-03   8.27472938E-03   8.24717715E-03   3.42613312E+04   4.57745493E+04   4.66210649E+04   0.00000000E+00   2.91387194E+03   1.97354477E-05   6.99745196E-05   6.86275713E-05   2.36523231E-05   3.52255313E+01   4.24384542E+01   1.42986747E+03   3.18127372E+01   3.50428018E+02   3.85413451E+01   3.97154335E+01   5.65894646E+02   3.90435195E+01   5.60021231E+01
   2.53750000E+02   5.00000000E-01   5.00000000E-01   1.31378617E+05   4.80087621E+04   1.25060130E-03   9.54446715E-04   9.31281200E-04   5.57478651E+03   1.24369209E-05   4.49605783E-02   3.07047008E+00   8.62038789E-02   1.07079315E+06   3.66091675E-02   3.81177041E-02   3.74696136E-02   3.71729315E-02   2.00602038E+04   1.76161202E+04   1.16754629E+05   3.07602293E+04   3.04286661E+05   0.00000000E+00   8.07573428E-03   8.30407216E-03   8.27553997E-03   8.24823472E-03   3.42613335E+04   4.57905298E+04   4.66210649E+04   0.00000000E+00   2.91387194E+03   1.97354614E-05   6.99745196E-05   6.86275713E-05   2.36523427E-05   3.52255308E+01   4.24384542E+01   1.42974078E+03   3.18127368E+01   3.50428018E+02   3.85413451E+01   3.97154335E+01   5.65894727E+02   3.90435195E+01   5.60021230E+01
   2.71250000E+02   5.00000000E-01   5.00000000E-01   1.31378618E+05   4.80129284E+04   1.25060139E-03   9.55438319E-04   9.32316526E-04   5.57478651E+03   1.24382654E-05   4.51762211E-02   2.87219891E+00   8.77567602E-02   1.06022747E+06   3.66092806E-02   3.81177147E-02   3.74701210E-02   3.71734405E-02   2.00602041E+04   1.76161424E+04   1.16754629E+05   3.07592405E+04   3.04475016E+05   0.00000000E+00   8.07590926E-03   8.30403972E-03   8.27627508E-03   8.24901183E-03   3.42613347E+04   4.58046313E+04   4.66210649E+04   0.00000000E+00   2.91387194E+03   1.97354730E-05   6.99745196E-05   6.86275713E-05   2.36522233E-05   3.52255302E+01   4.24384539E+01   1.42961643E+03   3.18127365E+01   3.50428018E+02   3.85413451E+01   3.97154335E+01   5.65894809E+02   3.90435195E+01   5.60021230E+01
   2.88750000E+02   5.00000000E-01   5.00000000E-01   1.31378618E+05   4.80171458E+04   1.25060148E-03   9.56630687E-04   9.33517510E-04   5.57478650E+03   1.24396851E-05   4.53689880E-02   2.67462875E+00   8.91632076E-02   1.04802463E+06   3.66093861E-02   3.81177163E-02   3.74705922E-02   3.71738556E-02   2.00602045E+04   1.76161637E+04   1.16754629E+05   3.07546558E+04   3.04861631E+05   0.00000000E+00   8.07607134E-03   8.30398597E-03   8.27695452E-03   8.24958165E-03   3.42613351E+04   4.58169524E+04   4.66210649E+04   0.00000000E+00   2.91387194E+03   1.97354829E-05   6.99745196E-05   6.86275713E-05   2.36519912E-05   3.52255294E+01   4.24384532E+01   1.42949407E+03   3.18127362E+01   3.50428018E+02   3.85413451E+01   3.97154335E+01   5.65894894E+02   3.90435195E+01   5.60021230E+01
   3.06250000E+02   5.00000000E-01   5.00000000E-01   1.31378618E+05   4.80214033E+04   1.25060158E-03   9.58006329E-04   9.34872001E-04   5.57478649E+03   1.24411833E-05   4.55419254E-02   2.48270889E+00   9.04426190E-02   1.03480394E+06   3.66094859E-02   3.81177117E-02   3.74710370E-02   3.71742003E-02   2.00602048E+04   1.76161842E+04   1.16754629E+05   3.07472796E+04   3.05398809E+05   0.00000000E+00   8.07622358E-03   8.30391712E-03   8.27759143E-03   8.24999312E-03   3.42613350E+04   4.58276338E+04   4.66210649E+04   0.00000000E+00   2.91387194E+03   1.97354915E-05   6.99745196E-05   6.86275713E-05   2.36516666E-05   3.52255285E+01   4.24384521E+01   1.42937357E+03   3.18127360E+01   3.50428018E+02   3.85413451E+01   3.97154335E+01   5.65894979E+02   3.90435195E+01   5.60021230E+01
   3.23750000E+02   5.00000000E-01   5.00000000E-01   1.31378618E+05   4.80256921E+04   1.25060168E-03   9.59554945E-04   9.36373393E-04   5.57478649E+03   1.24427640E-05   4.56978712E-02   2.29963652E+00   9.16135227E-02   1.02093490E+06   3.66095814E-02   3.81177022E-02   3.74714615E-02   3.71744894E-02   2.00602052E+04   1.76162039E+04   1.16754629E+05   3.07376841E+04   3.06053560E+05   0.00000000E+00   8.07636787E-03   8.30383720E-03   8.27819385E-03   8.25027775E-03   3.42613345E+04   4.58368433E+04   4.66210649E+04   0.00000000E+00   2.91387194E+03   1.97354991E-05   6.99745196E-05   6.86275713E-05   2.36512654E-05   3.52255275E+01   4.24384507E+01   1.42925489E+03   3.18127357E+01   3.50428018E+02   3.85413451E+01   3.97154335E+01   5.65895067E+02   3.90435195E+01   5.60021230E+01
   3.41250000E+02   5.00000000E-01   5.00000000E-01   1.31378618E+05   4.80300050E+04   1.25060179E-03   9.61273558E-04   9.38020851E-04   5.57478648E+03   1.24444317E-05   4.58393993E-02   2.12727430E+00   9.26929779E-02   1.00662073E+06   3.66096734E-02   3.81176890E-02   3.74718687E-02   3.71747315E-02   2.00602056E+04   1.76162228E+04   1.16754629E+05   3.07262819E+04   3.06802933E+05   0.00000000E+00   8.07650524E-03   8.30374874E-03   8.27876618E-03   8.25045501E-03   3.42613336E+04   4.58447614E+04   4.66210649E+04   0.00000000E+00   2.91387194E+03   1.97355059E-05   6.99745196E-05   6.86275713E-05   2.36508007E-05   3.52255264E+01   4.24384489E+01   1.42913804E+03   3.18127355E+01   3.50428018E+02   3.85413451E+01   3.97154335E+01   5.65895156E+02   3.90435195E+01   5.60021230E+01
   3.58750000E+02   5.00000000E-01   5.00000000E-01   1.31378618E+05   4.80343364E+04   1.25060191E-03   9.63166304E-04   9.39819251E-04   5.57478647E+03   1.24461915E-05   4.59687911E-02   1.96651604E+00   9.36962285E-02   9.91961376E+05   3.66097619E-02   3.81176724E-02   3.74722597E-02   3.71749310E-02   2.00602059E+04   1.76162410E+04   1.16754629E+05   3.07133783E+04   3.07630606E+05   0.00000000E+00   8.07663611E-03   8.30365338E-03   8.27931032E-03   8.25053654E-03   3.42613324E+04   4.58515686E+04   4.66210649E+04   0.00000000E+00   2.91387194E+03   1.97355119E-05   6.99745196E-05   6.86275713E-05   2.36502828E-05   3.52255253E+01   4.24384469E+01   1.42902308E+03   3.18127353E+01   3.50428018E+02   3.85413451E+01   3.97154335E+01   5.65895247E+02   3.90435195E+01   5.60021230E+01
   3.76250000E+02   5.00000000E-01   5.00000000E-01   1.31378618E+05   4.80386819E+04   1.25060204E-03   9.65243738E-04   9.41778731E-04   5.57478646E+03   1.24480490E-05   4.60880353E-02   1.81758731E+00   9.46366013E-02   9.76999930E+05   3.66098470E-02   3.81176530E-02   3.74726341E-02   3.71750898E-02   2.00602063E+04   1.76162585E+04   1.16754629E+05   3.06992091E+04   3.08524431E+05   0.00000000E+00   8.07676060E-03   8.30355219E-03   8.27982667E-03   8.25052945E-03   3.42613310E+04   4.58574354E+04   4.66210649E+04   0.00000000E+00   2.91387194E+03   1.97355172E-05   6.99745196E-05   6.86275713E-05   2.36497207E-05   3.52255240E+01   4.24384445E+01   1.42891005E+03   3.18127351E+01   3.50428018E+02   3.85413451E+01   3.97154335E+01   5.65895340E+02   3.90435195E+01   5.60021230E+01
   3.93750000E+02   5.00000000E-01   5.00000000E-01   1.31378619E+05   4.80430384E+04   1.25060217E-03   9.67521841E-04   9.43913967E-04   5.57478645E+03   1.24500105E-05   4.61988476E-02   1.68027843E+00   9.55256041E-02   9.61754046E+05   3.66099283E-02   3.81176308E-02   3.74729909E-02   3.71752084E-02   2.00602067E+04   1.76162753E+04   1.16754629E+05   3.06839662E+04   3.09474753E+05   0.00000000E+00   8.07687860E-03   8.30344597E-03   8.28031489E-03   8.25043857E-03   3.42613293E+04   4.58625157E+04   4.66210649E+04   0.00000000E+00   2.91387194E+03   1.97355218E-05   6.99745196E-05   6.86275713E-05   2.36491217E-05   3.52255227E+01   4.24384419E+01   1.42879904E+03   3.18127349E+01   3.50428018E+02   3.85413451E+01   3.97154335E+01   5.65895435E+02   3.90435195E+01   5.60021230E+01
   4.11250000E+02   5.00000000E-01   5.00000000E-01   1.31378619E+05   4.80474033E+04   1.25060231E-03   9.70020982E-04   9.46243404E-04   5.57478644E+03   1.24520825E-05   4.63027036E-02   1.55411318E+00   9.63731336E-02   9.46233238E+05   3.66100056E-02   3.81176061E-02   3.74733290E-02   3.71752873E-02   2.00602072E+04   1.76162915E+04   1.16754629E+05   3.06678141E+04   3.10473365E+05   0.00000000E+00   8.07698999E-03   8.30333539E-03   8.28077444E-03   8.25026799E-03   3.42613274E+04   4.58669443E+04   4.66210649E+04   0.00000000E+00   2.91387194E+03   1.97355256E-05   6.99745196E-05   6.86275713E-05   2.36484919E-05   3.52255213E+01   4.24384391E+01   1.42869010E+03   3.18127347E+01   3.50428018E+02   3.85413451E+01   3.97154335E+01   5.65895531E+02   3.90435195E+01   5.60021230E+01
   4.28750000E+02   5.00000000E-01   5.00000000E-01   1.31378619E+05   4.80517744E+04   1.25060246E-03   9.72765055E-04   9.48788606E-04   5.57478643E+03   1.24542721E-05   4.64008687E-02   1.43846271E+00   9.71876801E-02   9.30444271E+05   3.66100788E-02   3.81175790E-02   3.74736471E-02   3.71753269E-02   2.00602076E+04   1.76163071E+04   1.16754629E+05   3.06508989E+04   3.11513001E+05   0.00000000E+00   8.07709466E-03   8.30322109E-03   8.28120484E-03   8.25002176E-03   3.42613252E+04   4.58708375E+04   4.66210649E+04   1.75736339E-22   2.91387195E+03   1.97355288E-05   6.99745196E-05   6.86275713E-05   2.36478367E-05   3.52255198E+01   4.24384360E+01   1.42858331E+03   3.18127346E+01   3.50428018E+02   3.85413451E+01   3.97154335E+01   5.65895630E+02   3.90435195E+01   5.60021230E+01
   4.46250000E+02   5.00000000E-01   5.00000000E-01   1.31378619E+05   4.80561498E+04   1.25060262E-03   9.75780860E-04   9.51573793E-04   5.57478642E+03   1.24565866E-05   4.64944186E-02   1.33261726E+00   9.79764440E-02   9.14389111E+05   3.66101474E-02   3.81175496E-02   3.74739444E-02   3.71753278E-02   2.00602081E+04   1.76163221E+04   1.16754629E+05   3.06333523E+04   3.12587174E+05   0.00000000E+00   8.07719252E-03   8.30310366E-03   8.28160577E-03   8.24970402E-03   3.42613229E+04   4.58742970E+04   4.66210649E+04   0.00000000E+00   2.91387195E+03   1.97355314E-05   6.99745196E-05   6.86275713E-05   2.36471604E-05   3.52255183E+01   4.24384328E+01   1.42847873E+03   3.18127344E+01   3.50428018E+02   3.85413451E+01   3.97154335E+01   5.65895730E+02   3.90435195E+01   5.60021230E+01
   4.63750000E+02   5.00000000E-01   5.00000000E-01   1.31378619E+05   4.80605272E+04   1.25060278E-03   9.79097760E-04   9.54625589E-04   5.57478641E+03   1.24590341E-05   4.65842448E-02   1.23583064E+00   9.87453349E-02   8.98061084E+05   3.66102114E-02   3.81175182E-02   3.74742197E-02   3.71752906E-02   2.00602085E+04   1.76163365E+04   1.16754629E+05   3.06152921E+04   3.13690176E+05   0.00000000E+00   8.07728351E-03   8.30298365E-03   8.28197696E-03   8.24931885E-03   3.42613203E+04   4.58774122E+04   4.66210649E+04   1.22959024E-08   2.91387195E+03   1.97355332E-05   6.99745196E-05   6.86275713E-05   2.36464670E-05   3.52255168E+01   4.24384294E+01   1.42837644E+03   3.18127343E+01   3.50428018E+02   3.85413451E+01   3.97154335E+01   5.65895833E+02   3.90435195E+01   5.60021230E+01
   4.81250000E+02   5.00000000E-01   5.00000000E-01   1.31378620E+05   4.80649038E+04   1.25060296E-03   9.82747603E-04   9.57972988E-04   5.57478640E+03   1.24616230E-05   4.66710522E-02   1.14734943E+00   9.94989032E-02   8.81443799E+05   3.66102704E-02   3.81174848E-02   3.74744720E-02   3.71752158E-02   2.00602090E+04   1.76163505E+04   1.16754629E+05   3.05968233E+04   3.14817071E+05   0.00000000E+00   8.07736757E-03   8.30286157E-03   8.28231818E-03   8.24887011E-03   3.42613176E+04   4.58802623E+04   4.66210649E+04   7.50466516E-08   2.91387195E+03   1.97355345E-05   6.99745196E-05   6.86275713E-05   2.36457595E-05   3.52255153E+01   4.24384258E+01   1.42827649E+03   3.18127342E+01   3.50428018E+02   3.85413451E+01   3.97154335E+01   5.65895937E+02   3.90435195E+01   5.60021230E+01
   4.98750000E+02   5.00000000E-01   5.00000000E-01   1.31378620E+05   4.80692767E+04   1.25060314E-03   9.86764944E-04   9.61647567E-04   5.57478639E+03   1.24643624E-05   4.67553587E-02   1.06643555E+00   1.00240294E-01   8.64514706E+05   3.66103242E-02   3.81174497E-02   3.74747001E-02   3.71751041E-02   2.00602095E+04   1.76163639E+04   1.16754629E+05   3.05780392E+04   3.15963579E+05   0.00000000E+00   8.07744462E-03   8.30273787E-03   8.28262918E-03   8.24836146E-03   3.42613147E+04   4.58829151E+04   4.66210649E+04   1.66681138E-07   2.91387195E+03   1.97355351E-05   6.99745196E-05   6.86275713E-05   2.36450409E-05   3.52255137E+01   4.24384221E+01   1.42817894E+03   3.18127341E+01   3.50428018E+02   3.85413451E+01   3.97154335E+01   5.65896044E+02   3.90435195E+01   5.60021230E+01
   5.16250000E+02   5.00000000E-01   5.00000000E-01   1.31378621E+05   4.80736423E+04   1.25060334E-03   9.91187563E-04   9.65683949E-04   5.57478637E+03   1.24672618E-05   4.68375060E-02   9.92385100E-01   1.00971311E-01   8.47252187E+05   3.66103725E-02   3.81174129E-02   3.74749031E-02   3.71749558E-02   2.00602100E+04   1.76163768E+04   1.16754629E+05   3.05590236E+04   3.17125863E+05   0.00000000E+00   8.07751463E-03   8.30261296E-03   8.28290983E-03   8.24779658E-03   3.42613117E+04   4.58854249E+04   4.66210649E+04   2.99011684E-07   2.91387195E+03   1.97355350E-05   6.99745196E-05   6.86275713E-05   2.36443137E-05   3.52255121E+01   4.24384182E+01   1.42808385E+03   3.18127340E+01   3.50428018E+02   3.85413451E+01   3.97154335E+01   5.65896154E+02   3.90435195E+01   5.60021230E+01
   5.33750000E+02   5.00000000E-01   5.00000000E-01   1.31378621E+05   4.80779968E+04   1.25060355E-03   9.96057288E-04   9.70120528E-04   5.57478636E+03   1.24703316E-05   4.69176889E-02   9.24543810E-01   1.01692640E-01   8.29643097E+05   3.66104152E-02   3.81173746E-02   3.74750801E-02   3.71747721E-02   2.00602106E+04   1.76163893E+04   1.16754629E+05   3.05398542E+04   3.18300291E+05   0.00000000E+00   8.07757763E-03   8.30248729E-03   8.28316027E-03   8.24717950E-03   3.42613085E+04   4.58878299E+04   4.66210649E+04   4.88700203E-07   2.91387195E+03   1.97355344E-05   6.99745196E-05   6.86275713E-05   2.36435798E-05   3.52255105E+01   4.24384143E+01   1.42799128E+03   3.18127339E+01   3.50428018E+02   3.85413451E+01   3.97154335E+01   5.65896266E+02   3.90435195E+01   5.60021230E+01
   5.51250000E+02   5.00000000E-01   5.00000000E-01   1.31378622E+05   4.80823363E+04   1.25060377E-03   1.00142106E-03   9.75000416E-04   5.57478634E+03   1.24735831E-05   4.69959969E-02   8.62317159E-01   1.02404194E-01   8.11687363E+05   3.66104521E-02   3.81173349E-02   3.74752310E-02   3.71745547E-02   2.00602111E+04   1.76164013E+04   1.16754629E+05   3.05206045E+04   3.19483246E+05   0.00000000E+00   8.07763375E-03   8.30236129E-03   8.28338107E-03   8.24651486E-03   3.42613052E+04   4.58901508E+04   4.66210649E+04   7.59319369E-07   2.91387195E+03   1.97355331E-05   6.99745196E-05   6.86275713E-05   2.36428413E-05   3.52255088E+01   4.24384102E+01   1.42790126E+03   3.18127338E+01   3.50428018E+02   3.85413451E+01   3.97154335E+01   5.65896380E+02   3.90435195E+01   5.60021230E+01
   5.68750000E+02   5.00000000E-01   5.00000000E-01   1.31378622E+05   4.80866568E+04   1.25060400E-03   1.00733218E-03   9.80372544E-04   5.57478633E+03   1.24770282E-05   4.70724617E-02   8.05173836E-01   1.03105500E-01   7.93397517E+05   3.66104835E-02   3.81172942E-02   3.74753560E-02   3.71743058E-02   2.00602117E+04   1.76164128E+04   1.16754629E+05   3.05013455E+04   3.20671082E+05   0.00000000E+00   8.07768322E-03   8.30223545E-03   8.28357330E-03   8.24580800E-03   3.42613018E+04   4.58923927E+04   4.66210649E+04   1.14432936E-06   2.91387196E+03   1.97355313E-05   6.99745196E-05   6.86275713E-05   2.36420996E-05   3.52255072E+01   4.24384061E+01   1.42781386E+03   3.18127337E+01   3.50428018E+02   3.85413451E+01   3.97154335E+01   5.65896497E+02   3.90435195E+01   5.60021230E+01
   5.86250000E+02   5.00000000E-01   5.00000000E-01   1.31378623E+05   4.80909540E+04   1.25060425E-03   1.01385163E-03   9.86292858E-04   5.57478631E+03   1.24806800E-05   4.71470932E-02   7.52642582E-01   1.03795992E-01   7.74793361E+05   3.66105093E-02   3.81172527E-02   3.74754560E-02   3.71740284E-02   2.00602123E+04   1.76164239E+04   1.16754629E+05   3.04821451E+04   3.21860197E+05   0.00000000E+00   8.07772640E-03   8.30211024E-03   8.28373849E-03   8.24506480E-03   3.42612982E+04   4.58945498E+04   4.66210649E+04   1.69139631E-06   2.91387196E+03   1.97355290E-05   6.99745196E-05   6.86275713E-05   2.36413563E-05   3.52255056E+01   4.24384020E+01   1.42772911E+03   3.18127337E+01   3.50428018E+02   3.85413451E+01   3.97154335E+01   5.65896617E+02   3.90435195E+01   5.60021230E+01
   6.03750000E+02   5.00000000E-01   5.00000000E-01   1.31378624E+05   4.80952235E+04   1.25060451E-03   1.02104942E-03   9.92825556E-04   5.57478629E+03   1.24845524E-05   4.72198968E-02   7.04304264E-01   1.04475132E-01   7.55894121E+05   3.66105300E-02   3.81172106E-02   3.74755321E-02   3.71737257E-02   2.00602129E+04   1.76164345E+04   1.16754629E+05   3.04630668E+04   3.23047219E+05   0.00000000E+00   8.07776372E-03   8.30198615E-03   8.28387847E-03   8.24429127E-03   3.42612947E+04   4.58966106E+04   4.66210649E+04   2.46868652E-06   2.91387196E+03   1.97355262E-05   6.99745196E-05   6.86275713E-05   2.36406126E-05   3.52255040E+01   4.24383978E+01   1.42764707E+03   3.18127336E+01   3.50428018E+02   3.85413451E+01   3.97154335E+01   5.65896739E+02   3.90435195E+01   5.60021230E+01
   6.21250000E+02   5.00000000E-01   5.00000000E-01   1.31378624E+05   4.80994598E+04   1.25060479E-03   1.02900602E-03   1.00004441E-03   5.57478628E+03   1.24886607E-05   4.72908664E-02   6.59782065E-01   1.05142320E-01   7.36711402E+05   3.66105456E-02   3.81171681E-02   3.74755855E-02   3.71734006E-02   2.00602135E+04   1.76164448E+04   1.16754629E+05   3.04441678E+04   3.24229188E+05   0.00000000E+00   8.07779560E-03   8.30186359E-03   8.28399512E-03   8.24349314E-03   3.42612910E+04   4.58985640E+04   4.66210649E+04   3.57408412E-06   2.91387196E+03   1.97355230E-05   6.99745196E-05   6.86275713E-05   2.36398694E-05   3.52255023E+01   4.24383935E+01   1.42756776E+03   3.18127335E+01   3.50428018E+02   3.85413451E+01   3.97154335E+01   5.65896865E+02   3.90435195E+01   5.60021229E+01