 TITLE = "Mineral Area" 
VARIABLES = "X"          "Y"              "Z"            "Forsterite"     "Fayalite"       "Saponite(Mg)"   "Enstatite(alph" "Ferrosilite(al" "Anorthite"      "Albite(low)"    "Clinochlore"    "Sudoite"        "Montmorillonit" "Kaolinite"      "Tremolite"      "Pargasite"      "Anhydrite"      "Epidote"        "Scolecite"      "Pyrite"         "FeS(am)"        "Quartz(alpha)" 
 ZONE I=         100 , J=           1 , K=           1  F=POINT
   1.75000000E+01   5.00000000E-01   5.00000000E-01   3.47200695E+04   4.71437646E+04   2.51016864E+06   2.00607919E+04   1.76162114E+04   1.21835707E+05   2.89481458E+04   1.41409437E+05   1.97537782E-05   2.30205662E-03   2.22833254E+04   4.76014091E+04   4.88374934E+04   6.16363229E-06   3.47617434E+02   2.26581560E+02   5.95541120E-05   6.09901568E-05   2.35740846E-05
   5.25000000E+01   5.00000000E-01   5.00000000E-01   3.47200695E+04   4.72437878E+04   2.53822527E+06   2.00607919E+04   1.76162488E+04   1.21835707E+05   2.92791529E+04   1.24714876E+05   1.06009580E-05   2.84234496E-03   2.23183222E+04   4.76013691E+04   4.88374934E+04   6.25836513E-06   3.47617438E+02   2.26581622E+02   5.95541120E-05   6.09925017E-05   2.35749738E-05
   8.75000000E+01   5.00000000E-01   5.00000000E-01   3.47200695E+04   4.73746715E+04   2.41598891E+06   2.00607919E+04   1.76162803E+04   1.21835707E+05   2.94182566E+04   1.19533944E+05   8.75050137E-06   3.24549303E-03   2.23430559E+04   4.76012245E+04   4.88374934E+04   6.36542018E-06   3.47617438E+02   2.26581667E+02   5.95541120E-05   6.09943009E-05   2.35750998E-05
   1.22500000E+02   5.00000000E-01   5.00000000E-01   3.47200695E+04   4.75093210E+04   2.25324752E+06   2.00607919E+04   1.76163055E+04   1.21835707E+05   2.95189990E+04   1.16793254E+05   8.49465052E-06   3.67516030E-03   2.23685104E+04   4.76011533E+04   4.88374934E+04   6.48656824E-06   3.47617438E+02   2.26581714E+02   5.95541120E-05   6.09954653E-05   2.35751022E-05
   1.57500000E+02   5.00000000E-01   5.00000000E-01   3.47200695E+04   4.76313454E+04   2.10015068E+06   2.00607920E+04   1.76163248E+04   1.21835707E+05   2.96069837E+04   1.14542244E+05   8.70766733E-06   4.19180562E-03   2.23973623E+04   4.76011578E+04   4.88374934E+04   6.62379907E-06   3.47617438E+02   2.26581767E+02   5.95541120E-05   6.09960785E-05   2.35750633E-05
   1.92500000E+02   5.00000000E-01   5.00000000E-01   3.47200695E+04   4.77346875E+04   1.96963582E+06   2.00607920E+04   1.76163393E+04   1.21835708E+05   2.96818747E+04   1.12619656E+05   9.12417639E-06   4.80284909E-03   2.24294517E+04   4.76011309E+04   4.88374934E+04   6.77939082E-06   3.47617437E+02   2.26581827E+02   5.95541120E-05   6.09962727E-05   2.35749917E-05
   2.27500000E+02   5.00000000E-01   5.00000000E-01   3.47200695E+04   4.78188357E+04   1.86329742E+06   2.00607920E+04   1.76163499E+04   1.21835708E+05   2.97424173E+04   1.11065843E+05   9.68409630E-06   5.50467603E-03   2.24642519E+04   4.76010465E+04   4.88374934E+04   6.95598615E-06   3.47617437E+02   2.26581892E+02   5.95541120E-05   6.09961681E-05   2.35748921E-05
   2.62500000E+02   5.00000000E-01   5.00000000E-01   3.47200695E+04   4.78856943E+04   1.77885412E+06   2.00607920E+04   1.76163575E+04   1.21835708E+05   2.97891347E+04   1.09886962E+05   1.03859882E-05   6.29345998E-03   2.25013717E+04   4.76010119E+04   4.88374934E+04   7.15667925E-06   3.47617437E+02   2.26581962E+02   5.95541120E-05   6.09958606E-05   2.35747704E-05
   2.97500000E+02   5.00000000E-01   5.00000000E-01   3.47200695E+04   4.79379528E+04   1.71303562E+06   2.00607921E+04   1.76163629E+04   1.21835708E+05   2.98236417E+04   1.09048938E+05   1.12511140E-05   7.16790411E-03   2.25406184E+04   4.76010218E+04   4.88374934E+04   7.38512280E-06   3.47617437E+02   2.26582035E+02   5.95541120E-05   6.09954220E-05   2.35746325E-05
   3.32500000E+02   5.00000000E-01   5.00000000E-01   3.47200696E+04   4.79783453E+04   1.66246251E+06   2.00607921E+04   1.76163666E+04   1.21835708E+05   2.98478989E+04   1.08502020E+05   1.23153414E-05   8.12955562E-03   2.25819410E+04   4.76010293E+04   4.88374934E+04   7.64565827E-06   3.47617437E+02   2.26582113E+02   5.95541120E-05   6.09949049E-05   2.35744831E-05
   3.67500000E+02   5.00000000E-01   5.00000000E-01   3.47200696E+04   4.80093321E+04   1.62396340E+06   2.00607921E+04   1.76163689E+04   1.21835708E+05   2.98638260E+04   1.08195521E+05   1.36293559E-05   9.18270029E-03   2.26253718E+04   4.76010713E+04   4.88374934E+04   7.94347630E-06   3.47617437E+02   2.26582194E+02   5.95541120E-05   6.09943471E-05   2.35743265E-05
   4.02500000E+02   5.00000000E-01   5.00000000E-01   3.47200696E+04   4.80329655E+04   1.59490398E+06   2.00607922E+04   1.76163703E+04   1.21835708E+05   2.98731453E+04   1.08080960E+05   1.52634752E-05   1.03345430E-02   2.26710115E+04   4.76011513E+04   4.88374934E+04   8.28482203E-06   3.47617437E+02   2.26582281E+02   5.95541120E-05   6.09937749E-05   2.35741656E-05
   4.37500000E+02   5.00000000E-01   5.00000000E-01   3.47200696E+04   4.80508953E+04   1.57313681E+06   2.00607922E+04   1.76163710E+04   1.21835708E+05   2.98773229E+04   1.08115698E+05   1.73150798E-05   1.15951399E-02   2.27190029E+04   4.76012564E+04   4.88374934E+04   8.67725768E-06   3.47617437E+02   2.26582372E+02   5.95541120E-05   6.09932067E-05   2.35740030E-05
   4.72500000E+02   5.00000000E-01   5.00000000E-01   3.47200696E+04   4.80644151E+04   1.55693036E+06   2.00607922E+04   1.76163711E+04   1.21835708E+05   2.98775777E+04   1.08263471E+05   1.99202357E-05   1.29775813E-02   2.27695177E+04   4.76013820E+04   4.88374934E+04   9.13000112E-06   3.47617437E+02   2.26582468E+02   5.95541120E-05   6.09926548E-05   2.35738403E-05
   5.07500000E+02   5.00000000E-01   5.00000000E-01   3.47200697E+04   4.80745177E+04   1.54491928E+06   2.00607923E+04   1.76163708E+04   1.21835708E+05   2.98749140E+04   1.08493500E+05   2.32719463E-05   1.44984432E-02   2.28227541E+04   4.76015239E+04   4.88374934E+04   9.65436699E-06   3.47617437E+02   2.26582570E+02   5.95541120E-05   6.09921272E-05   2.35736788E-05
   5.42500000E+02   5.00000000E-01   5.00000000E-01   3.47200697E+04   4.80819541E+04   1.53603517E+06   2.00607923E+04   1.76163702E+04   1.21835708E+05   2.98701545E+04   1.08779793E+05   2.76486133E-05   1.61783716E-02   2.28789352E+04   4.76016777E+04   4.88374934E+04   1.02643459E-05   3.47617437E+02   2.26582679E+02   5.95541120E-05   6.09916289E-05   2.35735197E-05
   5.77500000E+02   5.00000000E-01   5.00000000E-01   3.47200698E+04   4.80872860E+04   1.52944648E+06   2.00607924E+04   1.76163694E+04   1.21835708E+05   2.98639706E+04   1.09100504E+05   3.34592984E-05   1.80428080E-02   2.29383079E+04   4.76018400E+04   4.88374934E+04   1.09773717E-05   3.47617436E+02   2.26582794E+02   5.95541120E-05   6.09911626E-05   2.35733637E-05
   6.12500000E+02   5.00000000E-01   5.00000000E-01   3.47200699E+04   4.80909293E+04   1.52451075E+06   2.00607924E+04   1.76163684E+04   1.21835708E+05   2.98569067E+04   1.09437411E+05   4.13170649E-05   2.01228009E-02   2.30011418E+04   4.76020086E+04   4.88374934E+04   1.18153464E-05   3.47617436E+02   2.26582917E+02   5.95541120E-05   6.09907296E-05   2.35732112E-05
   6.47500000E+02   5.00000000E-01   5.00000000E-01   3.47200701E+04   4.80931902E+04   1.52073758E+06   2.00607925E+04   1.76163672E+04   1.21835708E+05   2.98493969E+04   1.09775572E+05   5.21601760E-05   2.24558334E-02   2.30677246E+04   4.76021821E+04   4.88374934E+04   1.28060235E-05   3.47617435E+02   2.26583049E+02   5.95541120E-05   6.09903300E-05   2.35730628E-05
   6.82500000E+02   5.00000000E-01   5.00000000E-01   3.47200703E+04   4.80942935E+04   1.51776035E+06   2.00607925E+04   1.76163660E+04   1.21835708E+05   2.98417786E+04   1.10103095E+05   6.74566039E-05   2.50865853E-02   2.31383557E+04   4.76023600E+04   4.88374934E+04   1.39848915E-05   3.47617434E+02   2.26583190E+02   5.95541120E-05   6.09899632E-05   2.35729186E-05
   7.17500000E+02   5.00000000E-01   5.00000000E-01   3.47200706E+04   4.80944048E+04   1.51531456E+06   2.00607926E+04   1.76163647E+04   1.21835709E+05   2.98343015E+04   1.10410980E+05   8.95566978E-05   2.80675397E-02   2.32133364E+04   4.76025423E+04   4.88374934E+04   1.53977677E-05   3.47617433E+02   2.26583340E+02   5.95541120E-05   6.09896280E-05   2.35727789E-05
   7.52500000E+02   5.00000000E-01   5.00000000E-01   3.47200711E+04   4.80936481E+04   1.51322088E+06   2.00607926E+04   1.76163633E+04   1.21835709E+05   2.98271359E+04   1.10692969E+05   1.22315144E-04   3.14593247E-02   2.32929568E+04   4.76027295E+04   4.88374934E+04   1.71044073E-05   3.47617431E+02   2.26583502E+02   5.95541120E-05   6.09893230E-05   2.35726438E-05
   7.87500000E+02   5.00000000E-01   5.00000000E-01   3.47200719E+04   4.80921180E+04   1.51137134E+06   2.00607927E+04   1.76163619E+04   1.21835710E+05   2.98203807E+04   1.10945359E+05   1.72213331E-04   3.53306665E-02   2.33774815E+04   4.76029216E+04   4.88374934E+04   1.91835834E-05   3.47617428E+02   2.26583675E+02   5.95541120E-05   6.09890463E-05   2.35725131E-05
   8.22500000E+02   5.00000000E-01   5.00000000E-01   3.47200729E+04   4.80898898E+04   1.50971736E+06   2.00607927E+04   1.76163604E+04   1.21835710E+05   2.98140721E+04   1.11166758E+05   2.50432468E-04   3.97578091E-02   2.34671345E+04   4.76031178E+04   4.88374934E+04   2.17403270E-05   3.47617424E+02   2.26583860E+02   5.95541120E-05   6.09887962E-05   2.35723868E-05
   8.57500000E+02   5.00000000E-01   5.00000000E-01   3.47200744E+04   4.80870259E+04   1.50825795E+06   2.00607928E+04   1.76163589E+04   1.21835711E+05   2.98081937E+04   1.11357789E+05   3.76773415E-04   4.48232455E-02   2.35620844E+04   4.76033155E+04   4.88374934E+04   2.49163737E-05   3.47617419E+02   2.26584059E+02   5.95541120E-05   6.09885708E-05   2.35722648E-05
   8.92500000E+02   5.00000000E-01   5.00000000E-01   3.47200767E+04   4.80835804E+04   1.50702666E+06   2.00607929E+04   1.76163574E+04   1.21835712E+05   2.98026864E+04   1.11520754E+05   5.87242109E-04   5.06136042E-02   2.36624307E+04   4.76035116E+04   4.88374934E+04   2.89054450E-05   3.47617411E+02   2.26584271E+02   5.95541120E-05   6.09883682E-05   2.35721469E-05
   9.27500000E+02   5.00000000E-01   5.00000000E-01   3.47200800E+04   4.80796023E+04   1.50607752E+06   2.00607929E+04   1.76163559E+04   1.21835713E+05   2.97974609E+04   1.11659280E+05   9.49066029E-04   5.72165672E-02   2.37681933E+04   4.76037049E+04   4.88374934E+04   3.39759155E-05   3.47617401E+02   2.26584497E+02   5.95541120E-05   6.09881865E-05   2.35720329E-05
   9.62500000E+02   5.00000000E-01   5.00000000E-01   3.47200850E+04   4.80751376E+04   1.50547201E+06   2.00607930E+04   1.76163543E+04   1.21835715E+05   2.97924083E+04   1.11777942E+05   1.59108511E-03   6.47167775E-02   2.38793054E+04   4.76038990E+04   4.88374934E+04   4.05049455E-05   3.47617388E+02   2.26584738E+02   5.95541120E-05   6.09880239E-05   2.35719224E-05
   9.97500000E+02   5.00000000E-01   5.00000000E-01   3.47200923E+04   4.80702295E+04   1.50527189E+06   2.00607931E+04   1.76163527E+04   1.21835717E+05   2.97874118E+04   1.11881824E+05   2.76658275E-03   7.31908398E-02   2.39956112E+04   4.76041021E+04   4.88374934E+04   4.90306882E-05   3.47617371E+02   2.26584993E+02   5.95541120E-05   6.09878787E-05   2.35718154E-05
   1.03250000E+03   5.00000000E-01   5.00000000E-01   3.47201030E+04   4.80649176E+04   1.50554300E+06   2.00607932E+04   1.76163511E+04   1.21835720E+05   2.97823560E+04   1.11975972E+05   4.98587804E-03   8.27017059E-02   2.41168718E+04   4.76043173E+04   4.88374934E+04   6.03334861E-05   3.47617350E+02   2.26585264E+02   5.95541120E-05   6.09877493E-05   2.35717115E-05
   1.06750000E+03   5.00000000E-01   5.00000000E-01   3.47201186E+04   4.80592370E+04   1.50635941E+06   2.00607933E+04   1.76163495E+04   1.21835723E+05   2.97771354E+04   1.12064943E+05   9.30151388E-03   9.32925995E-02   2.42427742E+04   4.76045336E+04   4.88374934E+04   7.55643851E-05   3.47617326E+02   2.26585549E+02   5.95541120E-05   6.09876341E-05   2.35716105E-05
   1.10250000E+03   5.00000000E-01   5.00000000E-01   3.47201413E+04   4.80532203E+04   1.50778609E+06   2.00607934E+04   1.76163478E+04   1.21835727E+05   2.97716583E+04   1.12152804E+05   1.79317937E-02   1.04980287E-01   2.43729357E+04   4.76047323E+04   4.88374934E+04   9.64523207E-05   3.47617297E+02   2.26585850E+02   5.95541120E-05   6.09875318E-05   2.35715122E-05
   1.13750000E+03   5.00000000E-01   5.00000000E-01   3.47201742E+04   4.80469019E+04   1.50985179E+06   2.00607935E+04   1.76163462E+04   1.21835732E+05   2.97658505E+04   1.12243352E+05   3.56429739E-02   1.17748244E-01   2.45069038E+04   4.76049090E+04   4.88374934E+04   1.25644663E-04   3.47617266E+02   2.26586165E+02   5.95541120E-05   6.09874409E-05   2.35714164E-05
   1.17250000E+03   5.00000000E-01   5.00000000E-01   3.47202213E+04   4.80403188E+04   1.51253800E+06   2.00607936E+04   1.76163445E+04   1.21835738E+05   2.97596574E+04   1.12340142E+05   7.28480588E-02   1.31541057E-01   2.46441626E+04   4.76050860E+04   4.88374934E+04   1.67278517E-04   3.47617231E+02   2.26586496E+02   5.95541120E-05   6.09873603E-05   2.35713229E-05
   1.20750000E+03   5.00000000E-01   5.00000000E-01   3.47202875E+04   4.80335082E+04   1.51580278E+06   2.00607937E+04   1.76163428E+04   1.21835745E+05   2.97530460E+04   1.12446006E+05   1.52620355E-01   1.46261708E-01   2.47841514E+04   4.76052976E+04   4.88374934E+04   2.27960042E-04   3.47617196E+02   2.26586841E+02   5.95541120E-05   6.09872888E-05   2.35712317E-05
   1.24250000E+03   5.00000000E-01   5.00000000E-01   3.47203779E+04   4.80264997E+04   1.51964778E+06   2.00607938E+04   1.76163412E+04   1.21835754E+05   2.97460067E+04   1.12561981E+05   3.26711677E-01   1.61773388E-01   2.49263061E+04   4.76055332E+04   4.88374934E+04   3.18481955E-04   3.47617161E+02   2.26587201E+02   5.95541120E-05   6.09872256E-05   2.35711427E-05
   1.27750000E+03   5.00000000E-01   5.00000000E-01   3.47204986E+04   4.80193179E+04   1.52411893E+06   2.00607939E+04   1.76163395E+04   1.21835765E+05   2.97385488E+04   1.12687421E+05   7.12318853E-01   1.77900419E-01   2.50700697E+04   4.76057254E+04   4.88374934E+04   4.56908599E-04   3.47617127E+02   2.26587576E+02   5.95541120E-05   6.09871695E-05   2.35710556E-05
   1.31250000E+03   5.00000000E-01   5.00000000E-01   3.47206564E+04   4.80119964E+04   1.52921215E+06   2.00607940E+04   1.76163378E+04   1.21835779E+05   2.97306915E+04   1.12821605E+05   1.57631261E+00   1.94424451E-01   2.52148480E+04   4.76058261E+04   4.88374934E+04   6.74257835E-04   3.47617097E+02   2.26587965E+02   5.95541120E-05   6.09871200E-05   2.35709705E-05
   1.34750000E+03   5.00000000E-01   5.00000000E-01   3.47208578E+04   4.80045867E+04   1.53480986E+06   2.00607941E+04   1.76163361E+04   1.21835795E+05   2.97224593E+04   1.12964520E+05   3.52675449E+00   2.11082232E-01   2.53599684E+04   4.76058800E+04   4.88374934E+04   1.02524390E-03   3.47617074E+02   2.26588369E+02   5.95541120E-05   6.09870762E-05   2.35708872E-05
   1.38250000E+03   5.00000000E-01   5.00000000E-01   3.47211052E+04   4.79971721E+04   1.54059181E+06   2.00607943E+04   1.76163345E+04   1.21835815E+05   2.97138731E+04   1.13117699E+05   7.93959132E+00   2.27557679E-01   2.55046017E+04   4.76061264E+04   4.88374934E+04   1.60915264E-03   3.47617061E+02   2.26588788E+02   5.95541120E-05   6.09870374E-05   2.35708058E-05
   1.41750000E+03   5.00000000E-01   5.00000000E-01   3.47213876E+04   4.79898515E+04   1.54631879E+06   2.00607944E+04   1.76163329E+04   1.21835838E+05   2.97049575E+04   1.13277931E+05   1.78947106E+01   2.43499138E-01   2.56478720E+04   4.76067859E+04   4.88374934E+04   2.61159815E-03   3.47617056E+02   2.26589221E+02   5.95541120E-05   6.09870031E-05   2.35707263E-05
   1.45250000E+03   5.00000000E-01   5.00000000E-01   3.47216893E+04   4.79826134E+04   1.55285478E+06   2.00607946E+04   1.76163312E+04   1.21835867E+05   2.96957616E+04   1.13417101E+05   4.02882841E+01   2.58590136E-01   2.57893901E+04   4.76072786E+04   4.88374934E+04   4.39069149E-03   3.47617046E+02   2.26589669E+02   5.95541120E-05   6.09869728E-05   2.35706485E-05
   1.48750000E+03   5.00000000E-01   5.00000000E-01   3.47220135E+04   4.79754862E+04   1.56078387E+06   2.00607948E+04   1.76163297E+04   1.21835901E+05   2.96862039E+04   1.13501597E+05   9.00672546E+01   2.72299681E-01   2.59280315E+04   4.76074127E+04   4.88374934E+04   7.66044294E-03   3.47617036E+02   2.26590130E+02   5.95541120E-05   6.09869460E-05   2.35705721E-05
   1.52250000E+03   5.00000000E-01   5.00000000E-01   3.47223639E+04   4.79687154E+04   1.56982036E+06   2.00607950E+04   1.76163281E+04   1.21835941E+05   2.96759896E+04   1.13491726E+05   1.96965000E+02   2.83664262E-01   2.60609879E+04   4.76079491E+04   4.88374934E+04   1.38939185E-02   3.47617048E+02   2.26590600E+02   5.95541120E-05   6.09869224E-05   2.35704971E-05
   1.55750000E+03   5.00000000E-01   5.00000000E-01   3.47227250E+04   4.79625979E+04   1.58083142E+06   2.00607951E+04   1.76163266E+04   1.21835989E+05   2.96646676E+04   1.13294015E+05   4.13235883E+02   2.91388412E-01   2.61846122E+04   4.76091626E+04   4.88374934E+04   2.62406412E-02   3.47617068E+02   2.26591073E+02   5.95541120E-05   6.09869015E-05   2.35704230E-05
   1.59250000E+03   5.00000000E-01   5.00000000E-01   3.47230945E+04   4.79572655E+04   1.59702274E+06   2.00607953E+04   1.76163251E+04   1.21836045E+05   2.96516341E+04   1.12740834E+05   8.15142778E+02   2.93981679E-01   2.62950802E+04   4.76099968E+04   4.88374934E+04   5.16910376E-02   3.47617064E+02   2.26591540E+02   5.95541120E-05   6.09868831E-05   2.35703491E-05
   1.62750000E+03   5.00000000E-01   5.00000000E-01   3.47234786E+04   4.79529489E+04   1.62015186E+06   2.00607955E+04   1.76163237E+04   1.21836111E+05   2.96361614E+04   1.11706639E+05   1.47194014E+03   2.89958049E-01   2.63873049E+04   4.76102022E+04   4.88374934E+04   1.06370937E-01   3.47617045E+02   2.26591986E+02   5.95541120E-05   6.09868669E-05   2.35702745E-05
   1.66250000E+03   5.00000000E-01   5.00000000E-01   3.47238658E+04   4.79499517E+04   1.64909264E+06   2.00607957E+04   1.76163224E+04   1.21836187E+05   2.96179537E+04   1.10212964E+05   2.38977978E+03   2.79088187E-01   2.64578347E+04   4.76101169E+04   4.88374934E+04   2.28987003E-01   3.47616998E+02   2.26592404E+02   5.95541120E-05   6.09868527E-05   2.35701989E-05
   1.69750000E+03   5.00000000E-01   5.00000000E-01   3.47242543E+04   4.79482454E+04   1.68157084E+06   2.00607959E+04   1.76163211E+04   1.21836275E+05   2.95974460E+04   1.08399385E+05   3.50553623E+03   2.62916525E-01   2.65074956E+04   4.76098919E+04   4.88374934E+04   5.16300401E-01   3.47616935E+02   2.26592792E+02   5.95541120E-05   6.09868402E-05   2.35701225E-05
   1.73250000E+03   5.00000000E-01   5.00000000E-01   3.47246599E+04   4.79475164E+04   1.71543583E+06   2.00607961E+04   1.76163199E+04   1.21836375E+05   2.95754670E+04   1.06428672E+05   4.73314353E+03   2.43715432E-01   2.65397296E+04   4.76096323E+04   4.88374934E+04   1.22033612E+00   3.47616925E+02   2.26593157E+02   5.95541120E-05   6.09868291E-05   2.35700456E-05
   1.76750000E+03   5.00000000E-01   5.00000000E-01   3.47250812E+04   4.79475815E+04   1.74852117E+06   2.00607963E+04   1.76163187E+04   1.21836491E+05   2.95528763E+04   1.04445474E+05   5.99453224E+03   2.23475901E-01   2.65581969E+04   4.76094422E+04   4.88374934E+04   3.02453756E+00   3.47616974E+02   2.26593508E+02   5.95541120E-05   6.09868193E-05   2.35699689E-05
   1.80250000E+03   5.00000000E-01   5.00000000E-01   3.47255042E+04   4.79484185E+04   1.77917848E+06   2.00607966E+04   1.76163176E+04   1.21836624E+05   2.95304211E+04   1.02547735E+05   7.23366260E+03   2.03602621E-01   2.65661340E+04   4.76093880E+04   4.88374934E+04   7.85147939E+00   3.47617026E+02   2.26593852E+02   5.95541120E-05   6.09868106E-05   2.35698930E-05
   1.83750000E+03   5.00000000E-01   5.00000000E-01   3.47259082E+04   4.79500619E+04   1.80641852E+06   2.00607968E+04   1.76163165E+04   1.21836778E+05   2.95086889E+04   1.00784547E+05   8.41783649E+03   1.84937213E-01   2.65662065E+04   4.76096647E+04   4.88374934E+04   2.12437315E+01   3.47617048E+02   2.26594197E+02   5.95541120E-05   6.09868028E-05   2.35698187E-05
   1.87250000E+03   5.00000000E-01   5.00000000E-01   3.47262725E+04   4.79525782E+04   1.82998099E+06   2.00607970E+04   1.76163156E+04   1.21836956E+05   2.94881037E+04   9.91573767E+04   9.53669997E+03   1.67892088E-01   2.65605534E+04   4.76103900E+04   4.88374934E+04   5.89795004E+01   3.47617055E+02   2.26594545E+02   5.95541120E-05   6.09867959E-05   2.35697463E-05
   1.90750000E+03   5.00000000E-01   5.00000000E-01   3.47266020E+04   4.79560313E+04   1.85091317E+06   2.00607973E+04   1.76163147E+04   1.21837159E+05   2.94689244E+04   9.75976333E+04   1.06091552E+04   1.52582099E-01   2.65510099E+04   4.76111046E+04   4.88374934E+04   1.60806135E+02   3.47617064E+02   2.26594893E+02   5.95541120E-05   6.09867898E-05   2.35696760E-05
   1.94250000E+03   5.00000000E-01   5.00000000E-01   3.47269167E+04   4.79604281E+04   1.87026542E+06   2.00607975E+04   1.76163139E+04   1.21837389E+05   2.94512955E+04   9.60170480E+04   1.16666171E+04   1.38947239E-01   2.65389051E+04   4.76113424E+04   4.88374934E+04   3.91768507E+02   3.47617074E+02   2.26595224E+02   5.95541120E-05   6.09867843E-05   2.35696077E-05
   1.97750000E+03   5.00000000E-01   5.00000000E-01   3.47272265E+04   4.79656513E+04   1.88827460E+06   2.00607977E+04   1.76163132E+04   1.21837646E+05   2.94353039E+04   9.43681575E+04   1.27279790E+04   1.26851731E-01   2.65249216E+04   4.76111553E+04   4.88374934E+04   7.62611929E+02   3.47617086E+02   2.26595514E+02   5.95541120E-05   6.09867794E-05   2.35695413E-05
   2.01250000E+03   5.00000000E-01   5.00000000E-01   3.47275336E+04   4.79715655E+04   1.90503210E+06   2.00607980E+04   1.76163126E+04   1.21837929E+05   2.94209676E+04   9.26665708E+04   1.37845889E+04   1.16125863E-01   2.65091933E+04   4.76107459E+04   4.88374934E+04   1.15438611E+03   3.47617102E+02   2.26595756E+02   5.95541120E-05   6.09867749E-05   2.35694767E-05
   2.04750000E+03   5.00000000E-01   5.00000000E-01   3.47278382E+04   4.79781539E+04   1.92048624E+06   2.00607982E+04   1.76163121E+04   1.21838240E+05   2.94082661E+04   9.09653195E+04   1.48116505E+04   1.06604924E-01   2.64916834E+04   4.76102484E+04   4.88374934E+04   1.44678192E+03   3.47617113E+02   2.26595960E+02   5.95541120E-05   6.09867710E-05   2.35694138E-05
   2.08250000E+03   5.00000000E-01   5.00000000E-01   3.47281397E+04   4.79855037E+04   1.93440253E+06   2.00607985E+04   1.76163116E+04   1.21838586E+05   2.93971860E+04   8.93025956E+04   1.57924567E+04   9.81502066E-02   2.64725262E+04   4.76097291E+04   4.88374934E+04   1.61352052E+03   3.47617114E+02   2.26596144E+02   5.95541120E-05   6.09867674E-05   2.35693527E-05
   2.11750000E+03   5.00000000E-01   5.00000000E-01   3.47284371E+04   4.79937676E+04   1.94649431E+06   2.00607987E+04   1.76163112E+04   1.21838972E+05   2.93877317E+04   8.76909529E+04   1.67224975E+04   9.06442625E-02   2.64520104E+04   4.76092188E+04   4.88374934E+04   1.67769022E+03   3.47617107E+02   2.26596322E+02   5.95541120E-05   6.09867642E-05   2.35692932E-05
   2.15250000E+03   5.00000000E-01   5.00000000E-01   3.47287298E+04   4.80031363E+04   1.95650686E+06   2.00607990E+04   1.76163109E+04   1.21839406E+05   2.93799301E+04   8.61227197E+04   1.76062121E+04   8.39874879E-02   2.64305301E+04   4.76087332E+04   4.88374934E+04   1.67404612E+03   3.47617093E+02   2.26596506E+02   5.95541120E-05   6.09867613E-05   2.35692355E-05
   2.18750000E+03   5.00000000E-01   5.00000000E-01   3.47290176E+04   4.80137914E+04   1.96424565E+06   2.00607992E+04   1.76163108E+04   1.21839894E+05   2.93738249E+04   8.45771110E+04   1.84535487E+04   7.80937084E-02   2.64085414E+04   4.76082805E+04   4.88374934E+04   1.63708009E+03   3.47617073E+02   2.26596698E+02   5.95541120E-05   6.09867587E-05   2.35691795E-05
   2.22250000E+03   5.00000000E-01   5.00000000E-01   3.47293011E+04   4.80258710E+04   1.96962660E+06   2.00607995E+04   1.76163107E+04   1.21840443E+05   2.93694498E+04   8.30328399E+04   1.92742347E+04   7.28814826E-02   2.63864379E+04   4.76078649E+04   4.88374934E+04   1.58696888E+03   3.47617046E+02   2.26596900E+02   5.95541120E-05   6.09867564E-05   2.35691251E-05
   2.25750000E+03   5.00000000E-01   5.00000000E-01   3.47295813E+04   4.80394732E+04   1.97270883E+06   2.00607998E+04   1.76163108E+04   1.21841059E+05   2.93668129E+04   8.14701553E+04   2.00770074E+04   6.82707440E-02   2.63644578E+04   4.76074876E+04   4.88374934E+04   1.53147139E+03   3.47617013E+02   2.26597108E+02   5.95541120E-05   6.09867543E-05   2.35690724E-05
   2.29250000E+03   5.00000000E-01   5.00000000E-01   3.47298598E+04   4.80546709E+04   1.97358495E+06   2.00608001E+04   1.76163111E+04   1.21841751E+05   2.93658728E+04   7.98837935E+04   2.08647094E+04   6.41768974E-02   2.63425417E+04   4.76071479E+04   4.88374934E+04   1.46532297E+03   3.47616973E+02   2.26597326E+02   5.95541120E-05   6.09867524E-05   2.35690213E-05
   2.32750000E+03   5.00000000E-01   5.00000000E-01   3.47301384E+04   4.80715130E+04   1.97222554E+06   2.00608004E+04   1.76163114E+04   1.21842532E+05   2.93665732E+04   7.82834604E+04   2.16341234E+04   6.05226946E-02   2.63205423E+04   4.76068431E+04   4.88374934E+04   1.38301620E+03   3.47616927E+02   2.26597561E+02   5.95541120E-05   6.09867507E-05   2.35689717E-05
   2.36250000E+03   5.00000000E-01   5.00000000E-01   3.47304193E+04   4.80899849E+04   1.96852521E+06   2.00608008E+04   1.76163119E+04   1.21843417E+05   2.93689052E+04   7.66738681E+04   2.23836176E+04   5.72545008E-02   2.62986042E+04   4.76065696E+04   4.88374934E+04   1.29280711E+03   3.47616875E+02   2.26597824E+02   5.95541120E-05   6.09867491E-05   2.35689236E-05
   2.39750000E+03   5.00000000E-01   5.00000000E-01   3.47307046E+04   4.81099714E+04   1.96247371E+06   2.00608011E+04   1.76163125E+04   1.21844423E+05   2.93728915E+04   7.50531022E+04   2.31132583E+04   5.43343526E-02   2.62770733E+04   4.76063233E+04   4.88374934E+04   1.20643795E+03   3.47616816E+02   2.26598117E+02   5.95541120E-05   6.09867477E-05   2.35688769E-05
   2.43250000E+03   5.00000000E-01   5.00000000E-01   3.47309968E+04   4.81312741E+04   1.95422703E+06   2.00608015E+04   1.76163132E+04   1.21845566E+05   2.93785253E+04   7.34241582E+04   2.38204309E+04   5.17229103E-02   2.62561206E+04   4.76060993E+04   4.88374934E+04   1.12744891E+03   3.47616750E+02   2.26598440E+02   5.95541120E-05   6.09867465E-05   2.35688318E-05
   2.46750000E+03   5.00000000E-01   5.00000000E-01   3.47312982E+04   4.81536628E+04   1.94405315E+06   2.00608018E+04   1.76163139E+04   1.21846866E+05   2.93857354E+04   7.17993892E+04   2.44989987E+04   4.93718791E-02   2.62354998E+04   4.76058934E+04   4.88374934E+04   1.05153271E+03   3.47616676E+02   2.26598796E+02   5.95541120E-05   6.09867453E-05   2.35687880E-05
   2.50250000E+03   5.00000000E-01   5.00000000E-01   3.47316110E+04   4.81768794E+04   1.93217515E+06   2.00608022E+04   1.76163147E+04   1.21848348E+05   2.93944242E+04   7.01965363E+04   2.51411886E+04   4.72342850E-02   2.62147927E+04   4.76057010E+04   4.88374934E+04   9.76585176E+02   3.47616593E+02   2.26599189E+02   5.95541120E-05   6.09867442E-05   2.35687457E-05
   2.53750000E+03   5.00000000E-01   5.00000000E-01   3.47319379E+04   4.82006004E+04   1.91867773E+06   2.00608026E+04   1.76163156E+04   1.21850040E+05   2.94045309E+04   6.86365882E+04   2.57375121E+04   4.52779495E-02   2.61938525E+04   4.76055184E+04   4.88374934E+04   9.06702876E+02   3.47616500E+02   2.26599623E+02   5.95541120E-05   6.09867433E-05   2.35687046E-05
   2.57250000E+03   5.00000000E-01   5.00000000E-01   3.47322813E+04   4.82244388E+04   1.90358462E+06   2.00608030E+04   1.76163165E+04   1.21851970E+05   2.94160400E+04   6.71443133E+04   2.62757944E+04   4.34844746E-02   2.61728563E+04   4.76053423E+04   4.88374934E+04   8.46665295E+02   3.47616396E+02   2.26600097E+02   5.95541120E-05   6.09867424E-05   2.35686648E-05
   2.60750000E+03   5.00000000E-01   5.00000000E-01   3.47326441E+04   4.82480027E+04   1.88696534E+06   2.00608034E+04   1.76163173E+04   1.21854164E+05   2.94289486E+04   6.57464679E+04   2.67422882E+04   4.18395705E-02   2.61520329E+04   4.76051702E+04   4.88374934E+04   7.97459790E+02   3.47616280E+02   2.26600604E+02   5.95541120E-05   6.09867415E-05   2.35686264E-05
   2.64250000E+03   5.00000000E-01   5.00000000E-01   3.47330294E+04   4.82709647E+04   1.86896382E+06   2.00608039E+04   1.76163182E+04   1.21856647E+05   2.94432363E+04   6.44673122E+04   2.71244749E+04   4.03261851E-02   2.61314177E+04   4.76050002E+04   4.88374934E+04   7.56435794E+02   3.47616151E+02   2.26601136E+02   5.95541120E-05   6.09867408E-05   2.35685893E-05
   2.67750000E+03   5.00000000E-01   5.00000000E-01   3.47334407E+04   4.82930962E+04   1.84977363E+06   2.00608043E+04   1.76163189E+04   1.21859452E+05   2.94588557E+04   6.33237600E+04   2.74138104E+04   3.89233573E-02   2.61107798E+04   4.76048318E+04   4.88374934E+04   7.19908679E+02   3.47616008E+02   2.26601687E+02   5.95541120E-05   6.09867401E-05   2.35685534E-05
   2.71250000E+03   5.00000000E-01   5.00000000E-01   3.47338818E+04   4.83142507E+04   1.82958626E+06   2.00608048E+04   1.76163197E+04   1.21862613E+05   2.94757428E+04   6.23239964E+04   2.76064164E+04   3.76093317E-02   2.60897224E+04   4.76046654E+04   4.88374934E+04   6.85748229E+02   3.47615851E+02   2.26602256E+02   5.95541120E-05   6.09867394E-05   2.35685188E-05