 TITLE = "Mineral Area" 
VARIABLES = "X"          "Y"              "Z"            "Forsterite"     "Enstatite(alph" "Anorthite"      "Ferropargasite" "Anhydrite"      "Clinochlore"    "Albite(low)"    "Fayalite"       "Epidote"        "Kaolinite"      "Muscovite(orde" "Sudoite"        "Saponite(Mg)"   "Scolecite"      "Pyrite"         "Quartz(alpha)" 
 ZONE I=         100 , J=           1 , K=           1  F=POINT
   1.75000000E+01   5.00000000E-01   5.00000000E-01   9.99967124E-02   9.99996872E-02   9.99788131E-02   9.99915947E-02   8.61223156E-02   1.22392645E+04   9.98990908E-02   9.99651750E-02   9.99999997E-02   9.97948002E-02   7.47758027E+02   0.00000000E+00   7.00685433E+02   9.64114669E-02   0.00000000E+00   1.44327741E+01
   5.25000000E+01   5.00000000E-01   5.00000000E-01   9.99967124E-02   9.99996872E-02   9.99788131E-02   9.99915947E-02   9.66645040E-02   7.18130691E+03   9.99258072E-02   9.99651770E-02   9.99999998E-02   9.97957619E-02   8.10470252E+02   0.00000000E+00   7.23043672E+02   9.64127283E-02   0.00000000E+00   1.71128324E+01
   8.75000000E+01   5.00000000E-01   5.00000000E-01   9.99967124E-02   9.99996872E-02   9.99788131E-02   9.99915947E-02   9.95296746E-02   5.38224290E+03   9.99382235E-02   9.99651798E-02   9.99999998E-02   9.97961892E-02   7.85338411E+02   0.00000000E+00   8.22339817E+02   9.64130808E-02   0.00000000E+00   1.82869587E+01
   1.22500000E+02   5.00000000E-01   5.00000000E-01   9.99967124E-02   9.99996872E-02   9.99788131E-02   9.99915947E-02   1.00235436E-01   4.58415391E+03   9.99446480E-02   9.99651834E-02   9.99999997E-02   9.97965860E-02   7.64459268E+02   0.00000000E+00   8.62300981E+02   9.64132652E-02   0.00000000E+00   1.87983723E+01
   1.57500000E+02   5.00000000E-01   5.00000000E-01   9.99967124E-02   9.99996872E-02   9.99788131E-02   9.99915947E-02   1.00408470E-01   4.19056829E+03   9.99479845E-02   9.99651877E-02   9.99999996E-02   9.97970157E-02   7.51581077E+02   0.00000000E+00   8.84809852E+02   9.64134251E-02   0.00000000E+00   1.89682989E+01
   1.92500000E+02   5.00000000E-01   5.00000000E-01   9.99967124E-02   9.99996872E-02   9.99788131E-02   9.99915947E-02   1.00454562E-01   3.99574259E+03   9.99495733E-02   9.99651928E-02   9.99999996E-02   9.97974903E-02   7.44707907E+02   0.00000000E+00   9.00906016E+02   9.64135889E-02   0.00000000E+00   1.89461977E+01
   2.27500000E+02   5.00000000E-01   5.00000000E-01   9.99967124E-02   9.99996872E-02   9.99788131E-02   9.99915947E-02   1.00469875E-01   3.91119554E+03   9.99501079E-02   9.99651984E-02   9.99999995E-02   9.97980114E-02   7.41893778E+02   0.00000000E+00   9.14332778E+02   9.64137596E-02   0.00000000E+00   1.88103669E+01
   2.62500000E+02   5.00000000E-01   5.00000000E-01   9.99967124E-02   9.99996873E-02   9.99788131E-02   9.99915947E-02   1.00476806E-01   3.89311501E+03   9.99499752E-02   9.99652045E-02   9.99999994E-02   9.97985790E-02   7.41766142E+02   0.00000000E+00   9.26608617E+02   9.64139350E-02   0.00000000E+00   1.86049576E+01
   2.97500000E+02   5.00000000E-01   5.00000000E-01   9.99967124E-02   9.99996873E-02   9.99788131E-02   9.99915947E-02   1.00480556E-01   3.91770628E+03   9.99494030E-02   9.99652111E-02   9.99999993E-02   9.97991928E-02   7.43412826E+02   0.00000000E+00   9.38430035E+02   9.64141124E-02   0.00000000E+00   1.83561030E+01
   3.32500000E+02   5.00000000E-01   5.00000000E-01   9.99967124E-02   9.99996873E-02   9.99788131E-02   9.99915947E-02   1.00482385E-01   3.97120130E+03   9.99485312E-02   9.99652182E-02   9.99999992E-02   9.97998530E-02   7.46232847E+02   0.00000000E+00   9.50140839E+02   9.64142894E-02   0.00000000E+00   1.80798161E+01
   3.67500000E+02   5.00000000E-01   5.00000000E-01   9.99967124E-02   9.99996873E-02   9.99788131E-02   9.99915947E-02   1.00482671E-01   4.04524384E+03   9.99474485E-02   9.99652255E-02   9.99999992E-02   9.98005600E-02   7.49827476E+02   0.00000000E+00   9.61913864E+02   9.64144642E-02   0.00000000E+00   1.77861794E+01
   4.02500000E+02   5.00000000E-01   5.00000000E-01   9.99967124E-02   9.99996873E-02   9.99788131E-02   9.99915947E-02   1.00481592E-01   4.13456042E+03   9.99462130E-02   9.99652332E-02   9.99999990E-02   9.98013144E-02   7.53928267E+02   0.00000000E+00   9.73828704E+02   9.64146355E-02   0.00000000E+00   1.74816975E+01
   4.37500000E+02   5.00000000E-01   5.00000000E-01   9.99967124E-02   9.99996873E-02   9.99788131E-02   9.99915947E-02   1.00479281E-01   4.23554186E+03   9.99448640E-02   9.99652411E-02   9.99999989E-02   9.98021173E-02   7.58355409E+02   0.00000000E+00   9.85920497E+02   9.64148021E-02   0.00000000E+00   1.71706486E+01
   4.72500000E+02   5.00000000E-01   5.00000000E-01   9.99967124E-02   9.99996874E-02   9.99788131E-02   9.99915947E-02   1.00475863E-01   4.34559999E+03   9.99434290E-02   9.99652493E-02   9.99999988E-02   9.98029696E-02   7.62987062E+02   0.00000000E+00   9.98191817E+02   9.64149632E-02   0.00000000E+00   1.68559118E+01
   5.07500000E+02   5.00000000E-01   5.00000000E-01   9.99967124E-02   9.99996874E-02   9.99788131E-02   9.99915947E-02   1.00471453E-01   4.46368280E+03   9.99419287E-02   9.99652576E-02   9.99999987E-02   9.98038723E-02   7.67713474E+02   0.00000000E+00   1.01054734E+03   9.64151180E-02   0.00000000E+00   1.65396179E+01
   5.42500000E+02   5.00000000E-01   5.00000000E-01   9.99967124E-02   9.99996874E-02   9.99788131E-02   9.99915947E-02   1.00466161E-01   4.58852292E+03   9.99403796E-02   9.99652660E-02   9.99999986E-02   9.98048263E-02   7.72461801E+02   0.00000000E+00   1.02293015E+03   9.64152658E-02   0.00000000E+00   1.62233208E+01
   5.77500000E+02   5.00000000E-01   5.00000000E-01   9.99967124E-02   9.99996874E-02   9.99788131E-02   9.99915947E-02   1.00460092E-01   4.71912609E+03   9.99387949E-02   9.99652746E-02   9.99999985E-02   9.98058326E-02   7.77175917E+02   0.00000000E+00   1.03525530E+03   9.64154062E-02   0.00000000E+00   1.59082315E+01
   6.12500000E+02   5.00000000E-01   5.00000000E-01   9.99967124E-02   9.99996874E-02   9.99788131E-02   9.99915947E-02   1.00453345E-01   4.85462487E+03   9.99371865E-02   9.99652833E-02   9.99999984E-02   9.98068921E-02   7.81811548E+02   0.00000000E+00   1.04742412E+03   9.64155387E-02   0.00000000E+00   1.55953482E+01
   6.47500000E+02   5.00000000E-01   5.00000000E-01   9.99967124E-02   9.99996875E-02   9.99788131E-02   9.99915947E-02   1.00446012E-01   4.99353580E+03   9.99355597E-02   9.99652920E-02   9.99999983E-02   9.98080032E-02   7.86196928E+02   4.33210217E+00   1.05933922E+03   9.64156620E-02   0.00000000E+00   1.52857408E+01
   6.82500000E+02   5.00000000E-01   5.00000000E-01   9.99967124E-02   9.99996875E-02   9.99788131E-02   9.99915947E-02   1.00438177E-01   5.13406599E+03   9.99339195E-02   9.99653007E-02   9.99999983E-02   9.98091628E-02   7.90139243E+02   1.12520514E+01   1.07091508E+03   9.64157743E-02   0.00000000E+00   1.49805300E+01
   7.17500000E+02   5.00000000E-01   5.00000000E-01   9.99967124E-02   9.99996875E-02   9.99788131E-02   9.99915947E-02   1.00429921E-01   5.27624930E+03   9.99322881E-02   9.99653093E-02   9.99999981E-02   9.98103763E-02   7.93859718E+02   1.69502119E+01   1.08203329E+03   9.64158775E-02   0.00000000E+00   1.46802989E+01
   7.52500000E+02   5.00000000E-01   5.00000000E-01   9.99967124E-02   9.99996875E-02   9.99788131E-02   9.99915947E-02   1.00421315E-01   5.41920603E+03   9.99306742E-02   9.99653180E-02   9.99999980E-02   9.98116444E-02   7.97345602E+02   2.23138295E+01   1.09254996E+03   9.64159715E-02   0.00000000E+00   1.43856756E+01
   7.87500000E+02   5.00000000E-01   5.00000000E-01   9.99967124E-02   9.99996876E-02   9.99788131E-02   9.99915947E-02   1.00412426E-01   5.56196176E+03   9.99290864E-02   9.99653265E-02   9.99999979E-02   9.98129680E-02   8.00587756E+02   2.75830305E+01   1.10234178E+03   9.64160563E-02   0.00000000E+00   1.40972868E+01
   8.22500000E+02   5.00000000E-01   5.00000000E-01   9.99967124E-02   9.99996876E-02   9.99788131E-02   9.99915947E-02   1.00403314E-01   5.70346118E+03   9.99275333E-02   9.99653349E-02   9.99999978E-02   9.98143480E-02   8.03582474E+02   3.28665440E+01   1.11128857E+03   9.64161320E-02   0.00000000E+00   1.38157540E+01
   8.57500000E+02   5.00000000E-01   5.00000000E-01   9.99967124E-02   9.99996876E-02   9.99788131E-02   9.99915947E-02   1.00394035E-01   5.84257834E+03   9.99260230E-02   9.99653432E-02   9.99999977E-02   9.98157857E-02   8.06331664E+02   3.82240105E+01   1.11927546E+03   9.64161986E-02   0.00000000E+00   1.35416831E+01
   8.92500000E+02   5.00000000E-01   5.00000000E-01   9.99967124E-02   9.99996876E-02   9.99788131E-02   9.99915947E-02   1.00384636E-01   5.97813345E+03   9.99245636E-02   9.99653512E-02   9.99999978E-02   9.98172822E-02   8.08842663E+02   4.36915895E+01   1.12619510E+03   9.64162565E-02   0.00000000E+00   1.32756570E+01
   9.27500000E+02   5.00000000E-01   5.00000000E-01   9.99967124E-02   9.99996877E-02   9.99788131E-02   9.99915947E-02   1.00375163E-01   6.10891693E+03   9.99231625E-02   9.99653591E-02   9.99999978E-02   9.98188393E-02   8.11127852E+02   4.92920203E+01   1.13194997E+03   9.64163059E-02   0.00000000E+00   1.30182230E+01
   9.62500000E+02   5.00000000E-01   5.00000000E-01   9.99967124E-02   9.99996877E-02   9.99788131E-02   9.99915947E-02   1.00365655E-01   6.23371447E+03   9.99218267E-02   9.99653666E-02   9.99999978E-02   9.98204588E-02   8.13204088E+02   5.50395704E+01   1.13645402E+03   9.64163471E-02   0.00000000E+00   1.27698848E+01
   9.97500000E+02   5.00000000E-01   5.00000000E-01   9.99967124E-02   9.99996877E-02   9.99788131E-02   9.99915947E-02   1.00356147E-01   6.35133935E+03   9.99205621E-02   9.99653737E-02   9.99999979E-02   9.98221430E-02   8.15091768E+02   6.09426736E+01   1.13963443E+03   9.64163805E-02   0.00000000E+00   1.25310889E+01
   1.03250000E+03   5.00000000E-01   5.00000000E-01   9.99967124E-02   9.99996878E-02   9.99788131E-02   9.99915947E-02   1.00346670E-01   6.46065532E+03   9.99193742E-02   9.99653805E-02   9.99999980E-02   9.98238942E-02   8.16814138E+02   6.70053779E+01   1.14143370E+03   9.64164066E-02   0.00000000E+00   1.23022172E+01
   1.06750000E+03   5.00000000E-01   5.00000000E-01   9.99967124E-02   9.99996878E-02   9.99788131E-02   9.99915947E-02   1.00337251E-01   6.56062338E+03   9.99182673E-02   9.99653869E-02   9.99999981E-02   9.98257153E-02   8.18395519E+02   7.32286014E+01   1.14181052E+03   9.64164257E-02   0.00000000E+00   1.20835715E+01
   1.10250000E+03   5.00000000E-01   5.00000000E-01   9.99967124E-02   9.99996878E-02   9.99788131E-02   9.99915947E-02   1.00327913E-01   6.65031266E+03   9.99172448E-02   9.99653928E-02   9.99999981E-02   9.98276093E-02   8.19860791E+02   7.96107377E+01   1.14074173E+03   9.64164383E-02   0.00000000E+00   1.18753704E+01
   1.13750000E+03   5.00000000E-01   5.00000000E-01   9.99967124E-02   9.99996879E-02   9.99788131E-02   9.99915947E-02   1.00318679E-01   6.72895499E+03   9.99163088E-02   9.99653982E-02   9.99999982E-02   9.98295793E-02   8.21233243E+02   8.61480676E+01   1.13822220E+03   9.64164448E-02   0.00000000E+00   1.16777348E+01
   1.17250000E+03   5.00000000E-01   5.00000000E-01   9.99967124E-02   9.99996879E-02   9.99788131E-02   9.99915947E-02   1.00309564E-01   6.79594168E+03   9.99154605E-02   9.99654030E-02   9.99999982E-02   9.98316286E-02   8.22534147E+02   9.28359406E+01   1.13426692E+03   9.64164455E-02   0.00000000E+00   1.14906924E+01
   1.20750000E+03   5.00000000E-01   5.00000000E-01   9.99967124E-02   9.99996880E-02   9.99788131E-02   9.99915947E-02   1.00300585E-01   6.85087683E+03   9.99146999E-02   9.99654073E-02   9.99999984E-02   9.98337606E-02   8.23780829E+02   9.96680632E+01   1.12890974E+03   9.64164407E-02   0.00000000E+00   1.13141562E+01
   1.24250000E+03   5.00000000E-01   5.00000000E-01   9.99967125E-02   9.99996880E-02   9.99788131E-02   9.99915947E-02   1.00291754E-01   6.89355635E+03   9.99140257E-02   9.99654110E-02   9.99999984E-02   9.98359783E-02   8.24986743E+02   1.06637922E+02   1.12220509E+03   9.64164307E-02   0.00000000E+00   1.11479715E+01
   1.27750000E+03   5.00000000E-01   5.00000000E-01   9.99967125E-02   9.99996880E-02   9.99788131E-02   9.99915947E-02   1.00283082E-01   6.92402794E+03   9.99134357E-02   9.99654140E-02   9.99999985E-02   9.98382849E-02   8.26159303E+02   1.13738002E+02   1.11422471E+03   9.64164157E-02   0.00000000E+00   1.09919060E+01
   1.31250000E+03   5.00000000E-01   5.00000000E-01   9.99967126E-02   9.99996881E-02   9.99788131E-02   9.99915947E-02   1.00274578E-01   6.94254523E+03   9.99129263E-02   9.99654164E-02   9.99999986E-02   9.98406829E-02   8.27301027E+02   1.20960682E+02   1.10505868E+03   9.64163957E-02   0.00000000E+00   1.08456080E+01
   1.34750000E+03   5.00000000E-01   5.00000000E-01   9.99967127E-02   9.99996881E-02   9.99788131E-02   9.99915947E-02   1.00266249E-01   6.94956443E+03   9.99124934E-02   9.99654182E-02   9.99999986E-02   9.98431747E-02   8.28409285E+02   1.28298701E+02   1.09481364E+03   9.64163709E-02   0.00000000E+00   1.07086382E+01
   1.38250000E+03   5.00000000E-01   5.00000000E-01   9.99967128E-02   9.99996882E-02   9.99788131E-02   9.99915947E-02   1.00258100E-01   6.94572046E+03   9.99121316E-02   9.99654193E-02   9.99999986E-02   9.98457620E-02   8.29477032E+02   1.35745145E+02   1.08361098E+03   9.64163411E-02   0.00000000E+00   1.05804880E+01
   1.41750000E+03   5.00000000E-01   5.00000000E-01   9.99967131E-02   9.99996882E-02   9.99788131E-02   9.99915947E-02   1.00250135E-01   6.93180559E+03   9.99118350E-02   9.99654198E-02   9.99999986E-02   9.98484461E-02   8.30493290E+02   1.43293892E+02   1.07158407E+03   9.64163065E-02   0.00000000E+00   1.04605847E+01
   1.45250000E+03   5.00000000E-01   5.00000000E-01   9.99967134E-02   9.99996883E-02   9.99788131E-02   9.99915947E-02   1.00242358E-01   6.90873997E+03   9.99115970E-02   9.99654196E-02   9.99999985E-02   9.98512277E-02   8.31444056E+02   1.50939681E+02   1.05887519E+03   9.64162668E-02   0.00000000E+00   1.03482983E+01
   1.48750000E+03   5.00000000E-01   5.00000000E-01   9.99967138E-02   9.99996884E-02   9.99788132E-02   9.99915947E-02   1.00234770E-01   6.87754987E+03   9.99114106E-02   9.99654189E-02   9.99999982E-02   9.98541071E-02   8.32312819E+02   1.58678407E+02   1.04563145E+03   9.64162220E-02   0.00000000E+00   1.02429682E+01
   1.52250000E+03   5.00000000E-01   5.00000000E-01   9.99967144E-02   9.99996884E-02   9.99788132E-02   9.99915947E-02   1.00227372E-01   6.83931256E+03   9.99112687E-02   9.99654175E-02   9.99999978E-02   9.98570837E-02   8.33082263E+02   1.66507275E+02   1.03200233E+03   9.64161721E-02   0.00000000E+00   1.01439071E+01
   1.55750000E+03   5.00000000E-01   5.00000000E-01   9.99967151E-02   9.99996885E-02   9.99788132E-02   9.99915947E-02   1.00220165E-01   6.79513769E+03   9.99111638E-02   9.99654156E-02   9.99999972E-02   9.98601566E-02   8.33734681E+02   1.74424801E+02   1.01813545E+03   9.64161168E-02   0.00000000E+00   1.00504167E+01
   1.59250000E+03   5.00000000E-01   5.00000000E-01   9.99967161E-02   9.99996885E-02   9.99788132E-02   9.99915947E-02   1.00213147E-01   6.74612556E+03   9.99110886E-02   9.99654132E-02   9.99999963E-02   9.98633246E-02   8.34253091E+02   1.82430908E+02   1.00417371E+03   9.64160561E-02   0.00000000E+00   9.96180564E+00
   1.62750000E+03   5.00000000E-01   5.00000000E-01   9.99967174E-02   9.99996886E-02   9.99788132E-02   9.99915947E-02   1.00206318E-01   6.69333768E+03   9.99110362E-02   9.99654103E-02   9.99999950E-02   9.98665856E-02   8.34621955E+02   1.90526792E+02   9.90252630E+02   9.64159900E-02   0.00000000E+00   9.87740253E+00
   1.66250000E+03   5.00000000E-01   5.00000000E-01   9.99967190E-02   9.99996887E-02   9.99788132E-02   9.99915947E-02   1.00199675E-01   6.63778082E+03   9.99109998E-02   9.99654070E-02   9.99999931E-02   9.98699376E-02   8.34827320E+02   1.98714958E+02   9.76497493E+02   9.64159184E-02   0.00000000E+00   9.79656740E+00
   1.69750000E+03   5.00000000E-01   5.00000000E-01   9.99967209E-02   9.99996887E-02   9.99788132E-02   9.99915947E-02   1.00193216E-01   6.58038186E+03   9.99109729E-02   9.99654032E-02   9.99999904E-02   9.98733782E-02   8.34857372E+02   2.06998917E+02   9.63022050E+02   9.64158414E-02   0.00000000E+00   9.71869866E+00
   1.73250000E+03   5.00000000E-01   5.00000000E-01   9.99967231E-02   9.99996888E-02   9.99788132E-02   9.99915947E-02   1.00186939E-01   6.52197698E+03   9.99109499E-02   9.99653991E-02   9.99999868E-02   9.98769044E-02   8.34702446E+02   2.15383084E+02   9.49927128E+02   9.64157591E-02   0.00000000E+00   9.64323838E+00
   1.76750000E+03   5.00000000E-01   5.00000000E-01   9.99967257E-02   9.99996889E-02   9.99788132E-02   9.99915947E-02   1.00180841E-01   6.46330685E+03   9.99109255E-02   9.99653946E-02   9.99999820E-02   9.98805136E-02   8.34354929E+02   2.23872467E+02   9.37300009E+02   9.64156714E-02   0.00000000E+00   9.56968266E+00
   1.80250000E+03   5.00000000E-01   5.00000000E-01   9.99967285E-02   9.99996889E-02   9.99788133E-02   9.99915947E-02   1.00174918E-01   6.40501149E+03   9.99108950E-02   9.99653898E-02   9.99999756E-02   9.98842025E-02   8.33809174E+02   2.32472428E+02   9.25214351E+02   9.64155787E-02   0.00000000E+00   9.49757835E+00
   1.83750000E+03   5.00000000E-01   5.00000000E-01   9.99967317E-02   9.99996890E-02   9.99788133E-02   9.99915947E-02   1.00169168E-01   6.34763236E+03   9.99108544E-02   9.99653848E-02   9.99999673E-02   9.98879680E-02   8.33061271E+02   2.41188475E+02   9.13730593E+02   9.64154810E-02   0.00000000E+00   9.42652771E+00
   1.87250000E+03   5.00000000E-01   5.00000000E-01   9.99967351E-02   9.99996891E-02   9.99788133E-02   9.99915947E-02   1.00163585E-01   6.29161419E+03   9.99108001E-02   9.99653795E-02   9.99999568E-02   9.98918068E-02   8.32108819E+02   2.50026018E+02   9.02896997E+02   9.64153786E-02   0.00000000E+00   9.35618627E+00
   1.90750000E+03   5.00000000E-01   5.00000000E-01   9.99967388E-02   9.99996891E-02   9.99788133E-02   9.99915947E-02   1.00158168E-01   6.23731549E+03   9.99107293E-02   9.99653740E-02   9.99999436E-02   9.98957154E-02   8.30950594E+02   2.58990135E+02   8.92750231E+02   9.64152717E-02   0.00000000E+00   9.28626109E+00
   1.94250000E+03   5.00000000E-01   5.00000000E-01   9.99967427E-02   9.99996892E-02   9.99788133E-02   9.99915947E-02   1.00152911E-01   6.18501862E+03   9.99106397E-02   9.99653684E-02   9.99999271E-02   9.98996904E-02   8.29586168E+02   2.68085380E+02   8.83316936E+02   9.64151605E-02   0.00000000E+00   9.21650439E+00
   1.97750000E+03   5.00000000E-01   5.00000000E-01   9.99967469E-02   9.99996893E-02   9.99788133E-02   9.99915947E-02   1.00147812E-01   6.13492932E+03   9.99105293E-02   9.99653627E-02   9.99999068E-02   9.99037280E-02   8.28015953E+02   2.77315678E+02   8.74615544E+02   9.64150454E-02   0.00000000E+00   9.14671482E+00
   2.01250000E+03   5.00000000E-01   5.00000000E-01   9.99967512E-02   9.99996893E-02   9.99788134E-02   9.99915947E-02   1.00142866E-01   6.08720020E+03   9.99103968E-02   9.99653568E-02   9.99998822E-02   9.99078247E-02   8.26240533E+02   2.86684180E+02   8.66657065E+02   9.64149266E-02   0.00000000E+00   9.07672943E+00
   2.04750000E+03   5.00000000E-01   5.00000000E-01   9.99967557E-02   9.99996894E-02   9.99788134E-02   9.99915947E-02   1.00138070E-01   6.04192716E+03   9.99102411E-02   9.99653509E-02   9.99998526E-02   9.99119764E-02   8.24260915E+02   2.96193116E+02   8.59447262E+02   9.64148045E-02   0.00000000E+00   9.00642137E+00
   2.08250000E+03   5.00000000E-01   5.00000000E-01   9.99967603E-02   9.99996894E-02   9.99788134E-02   9.99915947E-02   1.00133420E-01   5.99916338E+03   9.99100614E-02   9.99653450E-02   9.99998171E-02   9.99161793E-02   8.22078174E+02   3.05843853E+02   8.52987597E+02   9.64146793E-02   0.00000000E+00   8.93569600E+00
   2.11750000E+03   5.00000000E-01   5.00000000E-01   9.99967651E-02   9.99996895E-02   9.99788134E-02   9.99915947E-02   1.00128912E-01   5.95893228E+03   9.99098576E-02   9.99653390E-02   9.99997752E-02   9.99204293E-02   8.19693261E+02   3.15636767E+02   8.47275958E+02   9.64145514E-02   0.00000000E+00   8.86447956E+00
   2.15250000E+03   5.00000000E-01   5.00000000E-01   9.99967700E-02   9.99996896E-02   9.99788135E-02   9.99915947E-02   1.00124542E-01   5.91602508E+03   9.99096290E-02   9.99653331E-02   9.99997259E-02   9.99247399E-02   8.17207989E+02   3.25635678E+02   8.42809939E+02   9.64144212E-02   0.00000000E+00   8.79256455E+00
   2.18750000E+03   5.00000000E-01   5.00000000E-01   9.99967750E-02   9.99996896E-02   9.99788135E-02   9.99915947E-02   1.00120307E-01   5.87143335E+03   9.99093752E-02   9.99653272E-02   9.99996686E-02   9.99291032E-02   8.14597714E+02   3.35862207E+02   8.39376135E+02   9.64142892E-02   0.00000000E+00   8.71985534E+00
   2.22250000E+03   5.00000000E-01   5.00000000E-01   9.99967802E-02   9.99996897E-02   9.99788135E-02   9.99915947E-02   1.00116204E-01   5.82841714E+03   9.99090957E-02   9.99653213E-02   9.99996024E-02   9.99335035E-02   8.11794121E+02   3.46279366E+02   8.36686643E+02   9.64141553E-02   0.00000000E+00   8.64636850E+00
   2.25750000E+03   5.00000000E-01   5.00000000E-01   9.99967854E-02   9.99996898E-02   9.99788135E-02   9.99915947E-02   1.00112230E-01   5.78747874E+03   9.99087909E-02   9.99653156E-02   9.99995267E-02   9.99379335E-02   8.08782350E+02   3.56871292E+02   8.34740994E+02   9.64140198E-02   0.00000000E+00   8.57212286E+00
   2.29250000E+03   5.00000000E-01   5.00000000E-01   9.99967907E-02   9.99996898E-02   9.99788136E-02   9.99915947E-02   1.00108380E-01   5.74912931E+03   9.99084616E-02   9.99653100E-02   9.99994411E-02   9.99423856E-02   8.05550348E+02   3.67624186E+02   8.33490406E+02   9.64138830E-02   0.00000000E+00   8.49715436E+00
   2.32750000E+03   5.00000000E-01   5.00000000E-01   9.99967962E-02   9.99996899E-02   9.99788136E-02   9.99915947E-02   1.00104652E-01   5.71339471E+03   9.99081085E-02   9.99653044E-02   9.99993453E-02   9.99468542E-02   8.02096160E+02   3.78527356E+02   8.32933985E+02   9.64137453E-02   0.00000000E+00   8.42149731E+00
   2.36250000E+03   5.00000000E-01   5.00000000E-01   9.99968018E-02   9.99996900E-02   9.99788136E-02   9.99915947E-02   1.00101042E-01   5.67962661E+03   9.99077324E-02   9.99652991E-02   9.99992396E-02   9.99513363E-02   7.98431809E+02   3.89577015E+02   8.33127313E+02   9.64136069E-02   0.00000000E+00   8.34519281E+00
   2.39750000E+03   5.00000000E-01   5.00000000E-01   9.99968076E-02   9.99996900E-02   9.99788137E-02   9.99915947E-02   1.00097547E-01   5.64730734E+03   9.99073340E-02   9.99652938E-02   9.99991247E-02   9.99558283E-02   7.94566436E+02   4.00770843E+02   8.34102904E+02   9.64134682E-02   0.00000000E+00   8.26831886E+00
   2.43250000E+03   5.00000000E-01   5.00000000E-01   9.99968137E-02   9.99996901E-02   9.99788137E-02   9.99915947E-02   1.00094165E-01   5.61720147E+03   9.99069140E-02   9.99652888E-02   9.99990023E-02   9.99603209E-02   7.90484240E+02   4.12093017E+02   8.35778131E+02   9.64133294E-02   0.00000000E+00   8.19090273E+00
   2.46750000E+03   5.00000000E-01   5.00000000E-01   9.99968203E-02   9.99996902E-02   9.99788137E-02   9.99915947E-02   1.00090892E-01   5.58934425E+03   9.99064730E-02   9.99652839E-02   9.99988746E-02   9.99648074E-02   7.86182627E+02   4.23532063E+02   8.38161680E+02   9.64131908E-02   0.00000000E+00   8.11297118E+00
   2.50250000E+03   5.00000000E-01   5.00000000E-01   9.99968273E-02   9.99996903E-02   9.99788138E-02   9.99915947E-02   1.00087726E-01   5.56363200E+03   9.99060118E-02   9.99652791E-02   9.99987450E-02   9.99692817E-02   7.81662819E+02   4.35078832E+02   8.41263647E+02   9.64130527E-02   0.00000000E+00   8.03454162E+00
   2.53750000E+03   5.00000000E-01   5.00000000E-01   9.99968351E-02   9.99996904E-02   9.99788138E-02   9.99915947E-02   1.00084664E-01   5.53997211E+03   9.99055311E-02   9.99652745E-02   9.99986174E-02   9.99737375E-02   7.76925675E+02   4.46723699E+02   8.45096468E+02   9.64129153E-02   0.00000000E+00   7.95562834E+00
   2.57250000E+03   5.00000000E-01   5.00000000E-01   9.99968438E-02   9.99996904E-02   9.99788139E-02   9.99915947E-02   1.00081703E-01   5.51819833E+03   9.99050314E-02   9.99652701E-02   9.99984969E-02   9.99781686E-02   7.71972903E+02   4.58460353E+02   8.49674776E+02   9.64127788E-02   0.00000000E+00   7.87624269E+00
   2.60750000E+03   5.00000000E-01   5.00000000E-01   9.99968536E-02   9.99996905E-02   9.99788139E-02   9.99915947E-02   1.00078840E-01   5.49819032E+03   9.99045133E-02   9.99652658E-02   9.99983894E-02   9.99825688E-02   7.66804145E+02   4.70282655E+02   8.55015064E+02   9.64126435E-02   0.00000000E+00   7.79638720E+00
   2.64250000E+03   5.00000000E-01   5.00000000E-01   9.99968648E-02   9.99996906E-02   9.99788139E-02   9.99915947E-02   1.00076073E-01   5.47978365E+03   9.99039773E-02   9.99652616E-02   9.99983012E-02   9.99869316E-02   7.61420720E+02   4.82184900E+02   8.61135309E+02   9.64125096E-02   0.00000000E+00   7.71605435E+00
   2.67750000E+03   5.00000000E-01   5.00000000E-01   9.99968775E-02   9.99996907E-02   9.99788140E-02   9.99915947E-02   1.00073399E-01   5.46107889E+03   9.99034238E-02   9.99652575E-02   9.99982392E-02   9.99912586E-02   7.55853550E+02   4.94182339E+02   8.68215589E+02   9.64123774E-02   0.00000000E+00   7.63517149E+00
   2.71250000E+03   5.00000000E-01   5.00000000E-01   9.99968920E-02   9.99996908E-02   9.99788140E-02   9.99915947E-02   1.00070815E-01   5.44310578E+03   9.99028529E-02   9.99652535E-02   9.99982096E-02   9.99955375E-02   7.50082845E+02   5.06261235E+02   8.76140224E+02   9.64122469E-02   0.00000000E+00   7.55373227E+00
   2.74750000E+03   5.00000000E-01   5.00000000E-01   9.99969030E-02   9.99996909E-02   9.99788141E-02   9.99915947E-02   1.00068320E-01   5.42756808E+03   9.99022648E-02   9.99652496E-02   9.99981848E-02   9.99997533E-02   7.44091207E+02   5.18359504E+02   8.84898197E+02   9.64121184E-02   0.00000000E+00   7.47165742E+00
   2.78250000E+03   5.00000000E-01   5.00000000E-01   9.99969142E-02   9.99996910E-02   9.99788141E-02   9.99915947E-02   1.00065911E-01   5.41414973E+03   9.99016599E-02   9.99652459E-02   9.99981565E-02   1.00003900E-01   7.37880869E+02   5.30479929E+02   8.94509235E+02   9.64119919E-02   0.00000000E+00   7.38905983E+00
   2.81750000E+03   5.00000000E-01   5.00000000E-01   9.99969258E-02   9.99996911E-02   9.99788142E-02   9.99915947E-02   1.00063586E-01   5.40265872E+03   9.99010386E-02   9.99652424E-02   9.99981338E-02   1.00007969E-01   7.31455156E+02   5.42617507E+02   9.04991987E+02   9.64118677E-02   0.00000000E+00   7.30579907E+00
   2.85250000E+03   5.00000000E-01   5.00000000E-01   9.99969377E-02   9.99996912E-02   9.99788142E-02   9.99915947E-02   1.00061341E-01   5.39325181E+03   9.99004011E-02   9.99652390E-02   9.99981291E-02   1.00011953E-01   7.24814937E+02   5.54753808E+02   9.16363859E+02   9.64117459E-02   0.00000000E+00   7.22177408E+00
   2.88750000E+03   5.00000000E-01   5.00000000E-01   9.99969498E-02   9.99996913E-02   9.99788143E-02   9.99915947E-02   1.00059175E-01   5.38614506E+03   9.98997475E-02   9.99652357E-02   9.99981509E-02   1.00015843E-01   7.17960944E+02   5.66868911E+02   9.28640430E+02   9.64116266E-02   0.00000000E+00   7.13696530E+00
   2.92250000E+03   5.00000000E-01   5.00000000E-01   9.99969620E-02   9.99996914E-02   9.99788143E-02   9.99915947E-02   1.00057086E-01   5.38150569E+03   9.98990781E-02   9.99652326E-02   9.99982020E-02   1.00019631E-01   7.10894571E+02   5.78945862E+02   9.41834757E+02   9.64115099E-02   0.00000000E+00   7.05177305E+00
   2.95750000E+03   5.00000000E-01   5.00000000E-01   9.99969743E-02   9.99996915E-02   9.99788144E-02   9.99915947E-02   1.00055071E-01   5.37951021E+03   9.98983931E-02   9.99652296E-02   9.99982812E-02   1.00023309E-01   7.03617843E+02   5.90967768E+02   9.55956635E+02   9.64113959E-02   0.00000000E+00   6.96568538E+00
   2.99250000E+03   5.00000000E-01   5.00000000E-01   9.99969864E-02   9.99996916E-02   9.99788144E-02   9.99915947E-02   1.00053127E-01   5.38027938E+03   9.98976927E-02   9.99652266E-02   9.99983846E-02   1.00026867E-01   6.96133365E+02   6.02920716E+02   9.71011829E+02   9.64112847E-02   0.00000000E+00   6.87865440E+00
   3.02750000E+03   5.00000000E-01   5.00000000E-01   9.99969985E-02   9.99996917E-02   9.99788145E-02   9.99915947E-02   1.00051254E-01   5.38395177E+03   9.98969771E-02   9.99652238E-02   9.99985071E-02   1.00030299E-01   6.88443793E+02   6.14790894E+02   9.87001295E+02   9.64111764E-02   0.00000000E+00   6.79062956E+00
   3.06250000E+03   5.00000000E-01   5.00000000E-01   9.99970104E-02   9.99996918E-02   9.99788145E-02   9.99915947E-02   1.00049447E-01   5.39066805E+03   9.98962464E-02   9.99652211E-02   9.99986430E-02   1.00033595E-01   6.80552138E+02   6.26564848E+02   1.00392041E+03   9.64110710E-02   0.00000000E+00   6.70155819E+00
   3.09750000E+03   5.00000000E-01   5.00000000E-01   9.99970221E-02   9.99996919E-02   9.99788146E-02   9.99915947E-02   1.00047706E-01   5.40056692E+03   9.98955009E-02   9.99652184E-02   9.99987858E-02   1.00036749E-01   6.72462002E+02   6.38229414E+02   1.02175822E+03   9.64109686E-02   0.00000000E+00   6.61138626E+00
   3.13250000E+03   5.00000000E-01   5.00000000E-01   9.99970335E-02   9.99996920E-02   9.99788146E-02   9.99915947E-02   1.00046029E-01   5.41378988E+03   9.98947409E-02   9.99652159E-02   9.99989297E-02   1.00039752E-01   6.64177430E+02   6.49771594E+02   1.04049674E+03   9.64108692E-02   0.00000000E+00   6.52016317E+00
   3.16750000E+03   5.00000000E-01   5.00000000E-01   9.99970446E-02   9.99996921E-02   9.99788147E-02   9.99915947E-02   1.00044412E-01   5.43047453E+03   9.98939667E-02   9.99652134E-02   9.99990688E-02   1.00042597E-01   6.55702662E+02   6.61179211E+02   1.06011032E+03   9.64107729E-02   0.00000000E+00   6.42849190E+00