 TITLE = "Mineral Area" 
VARIABLES = "X"          "Y"              "Z"            "Forsterite"     "Enstatite(alph" "Anorthite"      "Ferropargasite" "Anhydrite"      "Clinochlore"    "Albite(low)"    "Fayalite"       "Epidote"        "Kaolinite"      "Muscovite(orde"
 ZONE I=          10 , J=           1 , K=           1  F=POINT
   1.75000000E+02   5.00000000E-01   5.00000000E-01   9.99769918E-02   9.99991050E-02   9.78893865E-02   9.99411681E-02   9.99759781E-02   1.84353866E+03   9.99347574E-02   1.00048426E-01   9.99983760E-02   0.00000000E+00   0.00000000E+00
   5.25000000E+02   5.00000000E-01   5.00000000E-01   9.99769926E-02   9.99988052E-02   9.78893865E-02   9.99411681E-02   9.99889820E-02   1.85699225E+03   9.99334227E-02   1.00048205E-01   9.99924663E-02   0.00000000E+00   0.00000000E+00
   8.75000000E+02   5.00000000E-01   5.00000000E-01   9.99769981E-02   9.99985955E-02   9.78893865E-02   9.99411681E-02   9.99984913E-02   1.87364325E+03   9.99317641E-02   1.00047766E-01   9.99798821E-02   0.00000000E+00   0.00000000E+00
   1.22500000E+03   5.00000000E-01   5.00000000E-01   9.99770290E-02   9.99984533E-02   9.78893865E-02   9.99411681E-02   1.00005469E-01   1.89161250E+03   9.99299658E-02   1.00047002E-01   9.99569218E-02   0.00000000E+00   0.00000000E+00
   1.57500000E+03   5.00000000E-01   5.00000000E-01   9.99770956E-02   9.99983549E-02   9.78893865E-02   9.99411681E-02   1.00010411E-01   1.90674368E+03   9.99284450E-02   1.00045608E-01   9.99144896E-02   0.00000000E+00   0.00000000E+00
   1.92500000E+03   5.00000000E-01   5.00000000E-01   9.99772049E-02   9.99982910E-02   9.78893865E-02   9.99411681E-02   1.00013833E-01   1.91971440E+03   9.99271364E-02   1.00043005E-01   9.98381133E-02   0.00000000E+00   0.00000000E+00
   2.27500000E+03   5.00000000E-01   5.00000000E-01   9.99773369E-02   9.99982595E-02   9.78893865E-02   9.99411681E-02   1.00016132E-01   1.93735503E+03   9.99253496E-02   1.00038345E-01   9.97105684E-02   0.00000000E+00   0.00000000E+00
   2.62500000E+03   5.00000000E-01   5.00000000E-01   9.99774548E-02   9.99982597E-02   9.78893865E-02   9.99411681E-02   1.00017601E-01   1.96658918E+03   9.99223706E-02   1.00030923E-01   9.95359844E-02   0.00000000E+00   0.00000000E+00
   2.97500000E+03   5.00000000E-01   5.00000000E-01   9.99775332E-02   9.99982907E-02   9.78893865E-02   9.99411681E-02   1.00018458E-01   2.00817875E+03   9.99180941E-02   1.00021062E-01   9.93771506E-02   0.00000000E+00   0.00000000E+00
   3.32500000E+03   5.00000000E-01   5.00000000E-01   9.99775868E-02   9.99983484E-02   9.78893865E-02   9.99411681E-02   1.00018867E-01   2.05365027E+03   9.99133675E-02   1.00010575E-01   9.93578326E-02   0.00000000E+00   0.00000000E+00
