 TITLE = "Mineral Area" 
VARIABLES = "X"          "Y"              "Z"            "Forsterite"     "Enstatite(alph" "Anorthite"      "Ferropargasite" "Anhydrite"      "Clinochlore"    "Albite(low)"    "Fayalite"       "Epidote"        "Kaolinite"      "Muscovite(orde" "Sudoite"        "Saponite(Mg)"   "Scolecite"      "Pyrite"         "Quartz(alpha)" 
 ZONE I=         100 , J=           1 , K=           1  F=POINT
   1.75000000E+01   5.00000000E-01   5.00000000E-01   9.99884935E-02   9.99989051E-02   9.99258556E-02   9.99705830E-02   4.94108594E-02   2.81521664E+04   9.96458765E-02   9.98781391E-02   9.99999997E-02   9.92825967E-02   1.70694455E+03   0.00000000E+00   1.61587611E+03   8.77258857E-02   0.00000000E+00   3.32230200E+01
   5.25000000E+01   5.00000000E-01   5.00000000E-01   9.99884935E-02   9.99989051E-02   9.99258556E-02   9.99705830E-02   8.57170810E-02   1.64415694E+04   9.97395056E-02   9.98781459E-02   9.99999998E-02   9.92859606E-02   1.85361466E+03   0.00000000E+00   1.66624369E+03   8.77303951E-02   0.00000000E+00   3.94464843E+01
   8.75000000E+01   5.00000000E-01   5.00000000E-01   9.99884935E-02   9.99989051E-02   9.99258556E-02   9.99705830E-02   9.76819935E-02   1.22623410E+04   9.97830540E-02   9.98781558E-02   9.99999998E-02   9.92874426E-02   1.79556128E+03   0.00000000E+00   1.89678248E+03   8.77316931E-02   0.00000000E+00   4.21791100E+01
   1.22500000E+02   5.00000000E-01   5.00000000E-01   9.99884935E-02   9.99989052E-02   9.99258556E-02   9.99705830E-02   1.00741296E-01   1.03977818E+04   9.98056466E-02   9.98781686E-02   9.99999997E-02   9.92888150E-02   1.74716780E+03   0.00000000E+00   1.98961479E+03   8.77323346E-02   0.00000000E+00   4.33753812E+01
   1.57500000E+02   5.00000000E-01   5.00000000E-01   9.99884935E-02   9.99989052E-02   9.99258556E-02   9.99705830E-02   1.01483351E-01   9.46798383E+03   9.98174482E-02   9.98781839E-02   9.99999996E-02   9.92903016E-02   1.71724760E+03   0.00000000E+00   2.04193046E+03   8.77328703E-02   0.00000000E+00   4.37807935E+01
   1.92500000E+02   5.00000000E-01   5.00000000E-01   9.99884935E-02   9.99989053E-02   9.99258556E-02   9.99705830E-02   1.01673333E-01   8.99803651E+03   9.98231370E-02   9.98782017E-02   9.99999996E-02   9.92919444E-02   1.70123063E+03   0.00000000E+00   2.07940568E+03   8.77334140E-02   0.00000000E+00   4.37410812E+01
   2.27500000E+02   5.00000000E-01   5.00000000E-01   9.99884935E-02   9.99989053E-02   9.99258556E-02   9.99705830E-02   1.01730906E-01   8.78373975E+03   9.98251315E-02   9.98782216E-02   9.99999995E-02   9.92937500E-02   1.69464413E+03   0.00000000E+00   2.11072037E+03   8.77339802E-02   0.00000000E+00   4.34371747E+01
   2.62500000E+02   5.00000000E-01   5.00000000E-01   9.99884935E-02   9.99989054E-02   9.99258556E-02   9.99705830E-02   1.01753556E-01   8.72383789E+03   9.98247823E-02   9.98782434E-02   9.99999994E-02   9.92957180E-02   1.69432534E+03   0.00000000E+00   2.13938356E+03   8.77345625E-02   0.00000000E+00   4.29711934E+01
   2.97500000E+02   5.00000000E-01   5.00000000E-01   9.99884935E-02   9.99989054E-02   9.99258556E-02   9.99705830E-02   1.01763842E-01   8.76319102E+03   9.98228863E-02   9.98782669E-02   9.99999993E-02   9.92978478E-02   1.69816673E+03   0.00000000E+00   2.16700193E+03   8.77351522E-02   0.00000000E+00   4.24037030E+01
   3.32500000E+02   5.00000000E-01   5.00000000E-01   9.99884935E-02   9.99989055E-02   9.99258556E-02   9.99705830E-02   1.01767163E-01   8.86979063E+03   9.98199334E-02   9.98782919E-02   9.99999992E-02   9.93001400E-02   1.70477594E+03   0.00000000E+00   2.19436811E+03   8.77357416E-02   0.00000000E+00   4.17719077E+01
   3.67500000E+02   5.00000000E-01   5.00000000E-01   9.99884935E-02   9.99989056E-02   9.99258556E-02   9.99705830E-02   1.01765054E-01   9.02417146E+03   9.98162351E-02   9.98783182E-02   9.99999991E-02   9.93025960E-02   1.71322594E+03   0.00000000E+00   2.22187856E+03   8.77363247E-02   0.00000000E+00   4.10993007E+01
   4.02500000E+02   5.00000000E-01   5.00000000E-01   9.99884935E-02   9.99989056E-02   9.99258556E-02   9.99705830E-02   1.01758197E-01   9.21405157E+03   9.98119964E-02   9.98783457E-02   9.99999990E-02   9.93052185E-02   1.72288974E+03   0.00000000E+00   2.24971271E+03   8.77368968E-02   0.00000000E+00   4.04010891E+01
   4.37500000E+02   5.00000000E-01   5.00000000E-01   9.99884935E-02   9.99989057E-02   9.99258556E-02   9.99705830E-02   1.01747076E-01   9.43131080E+03   9.98073563E-02   9.98783741E-02   9.99999989E-02   9.93080107E-02   1.73333714E+03   0.00000000E+00   2.27792567E+03   8.77374540E-02   0.00000000E+00   3.96873539E+01
   4.72500000E+02   5.00000000E-01   5.00000000E-01   9.99884935E-02   9.99989058E-02   9.99258556E-02   9.99705830E-02   1.01732127E-01   9.67036545E+03   9.98024131E-02   9.98784034E-02   9.99999988E-02   9.93109761E-02   1.74426627E+03   0.00000000E+00   2.30648727E+03   8.77379935E-02   0.00000000E+00   3.89649654E+01
   5.07500000E+02   5.00000000E-01   5.00000000E-01   9.99884935E-02   9.99989058E-02   9.99258556E-02   9.99705830E-02   1.01713760E-01   9.92779434E+03   9.97972401E-02   9.98784334E-02   9.99999987E-02   9.93141182E-02   1.75544252E+03   0.00000000E+00   2.33525671E+03   8.77385126E-02   0.00000000E+00   3.82388575E+01
   5.42500000E+02   5.00000000E-01   5.00000000E-01   9.99884935E-02   9.99989059E-02   9.99258556E-02   9.99705830E-02   1.01692364E-01   1.02007157E+04   9.97918947E-02   9.98784639E-02   9.99999986E-02   9.93174406E-02   1.76669548E+03   0.00000000E+00   2.36408321E+03   8.77390093E-02   0.00000000E+00   3.75126713E+01
   5.77500000E+02   5.00000000E-01   5.00000000E-01   9.99884935E-02   9.99989060E-02   9.99258556E-02   9.99705830E-02   1.01668308E-01   1.04868256E+04   9.97864242E-02   9.98784949E-02   9.99999985E-02   9.93209469E-02   1.77789340E+03   0.00000000E+00   2.39276977E+03   8.77394819E-02   0.00000000E+00   3.67892460E+01
   6.12500000E+02   5.00000000E-01   5.00000000E-01   9.99884935E-02   9.99989060E-02   9.99258556E-02   9.99705830E-02   1.01641939E-01   1.07841093E+04   9.97808700E-02   9.98785263E-02   9.99999984E-02   9.93246409E-02   1.78893230E+03   0.00000000E+00   2.42108846E+03   8.77399289E-02   0.00000000E+00   3.60709193E+01
   6.47500000E+02   5.00000000E-01   5.00000000E-01   9.99884935E-02   9.99989061E-02   9.99258556E-02   9.99705830E-02   1.01613580E-01   1.10904211E+04   9.97752672E-02   9.98785580E-02   9.99999983E-02   9.93285246E-02   1.79968022E+03   2.87922086E+00   2.44879161E+03   8.77403487E-02   0.00000000E+00   3.53597900E+01
   6.82500000E+02   5.00000000E-01   5.00000000E-01   9.99884935E-02   9.99989062E-02   9.99258556E-02   9.99705830E-02   1.01583532E-01   1.13988605E+04   9.97695926E-02   9.98785897E-02   9.99999983E-02   9.93325699E-02   1.80908883E+03   2.34171212E+01   2.47570444E+03   8.77407287E-02   0.00000000E+00   3.46591165E+01
   7.17500000E+02   5.00000000E-01   5.00000000E-01   9.99884935E-02   9.99989063E-02   9.99258556E-02   9.99705830E-02   1.01552070E-01   1.17112347E+04   9.97639566E-02   9.98786215E-02   9.99999981E-02   9.93368084E-02   1.81809311E+03   3.68382036E+01   2.50157898E+03   8.77410800E-02   0.00000000E+00   3.39700028E+01
   7.52500000E+02   5.00000000E-01   5.00000000E-01   9.99884935E-02   9.99989064E-02   9.99258556E-02   9.99705830E-02   1.01519450E-01   1.20251870E+04   9.97583825E-02   9.98786532E-02   9.99999980E-02   9.93412404E-02   1.82657361E+03   4.93108699E+01   2.52605141E+03   8.77414011E-02   0.00000000E+00   3.32939133E+01
   7.87500000E+02   5.00000000E-01   5.00000000E-01   9.99884935E-02   9.99989065E-02   9.99258556E-02   9.99705830E-02   1.01485905E-01   1.23384586E+04   9.97529004E-02   9.98786846E-02   9.99999979E-02   9.93458692E-02   1.83450742E+03   6.14990336E+01   2.54884529E+03   8.77416921E-02   0.00000000E+00   3.26322906E+01
   8.22500000E+02   5.00000000E-01   5.00000000E-01   9.99884935E-02   9.99989066E-02   9.99258556E-02   9.99705830E-02   1.01451644E-01   1.26486008E+04   9.97475402E-02   9.98787157E-02   9.99999978E-02   9.93506983E-02   1.84188488E+03   7.36867877E+01   2.56968374E+03   8.77419530E-02   0.00000000E+00   3.19865602E+01
   8.57500000E+02   5.00000000E-01   5.00000000E-01   9.99884935E-02   9.99989067E-02   9.99258556E-02   9.99705830E-02   1.01416861E-01   1.29529983E+04   9.97423310E-02   9.98787462E-02   9.99999977E-02   9.93557320E-02   1.84870912E+03   8.60261599E+01   2.58830214E+03   8.77421844E-02   0.00000000E+00   3.13581118E+01
   8.92500000E+02   5.00000000E-01   5.00000000E-01   9.99884935E-02   9.99989068E-02   9.99258556E-02   9.99705830E-02   1.01381725E-01   1.32489068E+04   9.97373007E-02   9.98787761E-02   9.99999977E-02   9.93609754E-02   1.85499572E+03   9.86079483E+01   2.60445331E+03   8.77423869E-02   0.00000000E+00   3.07482800E+01
   9.27500000E+02   5.00000000E-01   5.00000000E-01   9.99884935E-02   9.99989069E-02   9.99258556E-02   9.99705830E-02   1.01346392E-01   1.35335061E+04   9.97324756E-02   9.98788052E-02   9.99999978E-02   9.93664344E-02   1.86077193E+03   1.11489031E+02   2.61791255E+03   8.77425615E-02   0.00000000E+00   3.01583194E+01
   9.62500000E+02   5.00000000E-01   5.00000000E-01   9.99884935E-02   9.99989070E-02   9.99258556E-02   9.99705830E-02   1.01310999E-01   1.38039589E+04   9.97278797E-02   9.98788333E-02   9.99999978E-02   9.93721159E-02   1.86607527E+03   1.24705169E+02   2.62848190E+03   8.77427091E-02   0.00000000E+00   2.95893824E+01
   9.97500000E+02   5.00000000E-01   5.00000000E-01   9.99884935E-02   9.99989071E-02   9.99258556E-02   9.99705830E-02   1.01275668E-01   1.40574819E+04   9.97235349E-02   9.98788603E-02   9.99999978E-02   9.93780278E-02   1.87095161E+03   1.38277763E+02   2.63599437E+03   8.77428312E-02   0.00000000E+00   2.90424937E+01
   1.03250000E+03   5.00000000E-01   5.00000000E-01   9.99884935E-02   9.99989072E-02   9.99258556E-02   9.99705830E-02   1.01240507E-01   1.42914136E+04   9.97194597E-02   9.98788859E-02   9.99999980E-02   9.93841792E-02   1.87545294E+03   1.52217731E+02   2.64031787E+03   8.77429289E-02   0.00000000E+00   2.85185286E+01
   1.06750000E+03   5.00000000E-01   5.00000000E-01   9.99884935E-02   9.99989073E-02   9.99258556E-02   9.99705830E-02   1.01205609E-01   1.45033003E+04   9.97156696E-02   9.98789101E-02   9.99999980E-02   9.93905799E-02   1.87963430E+03   1.66528208E+02   2.64135826E+03   8.77430038E-02   0.00000000E+00   2.80181874E+01
   1.10250000E+03   5.00000000E-01   5.00000000E-01   9.99884935E-02   9.99989074E-02   9.99258556E-02   9.99705830E-02   1.01171058E-01   1.46909572E+04   9.97121765E-02   9.98789326E-02   9.99999981E-02   9.93972410E-02   1.88355123E+03   1.81206242E+02   2.63906259E+03   8.77430570E-02   0.00000000E+00   2.75419798E+01
   1.13750000E+03   5.00000000E-01   5.00000000E-01   9.99884935E-02   9.99989075E-02   9.99258557E-02   9.99705830E-02   1.01136924E-01   1.48525551E+04   9.97089884E-02   9.98789533E-02   9.99999981E-02   9.94041737E-02   1.88725625E+03   1.96244036E+02   2.63342063E+03   8.77430899E-02   0.00000000E+00   2.70902044E+01
   1.17250000E+03   5.00000000E-01   5.00000000E-01   9.99884935E-02   9.99989076E-02   9.99258557E-02   9.99705830E-02   1.01103268E-01   1.49866624E+04   9.97061094E-02   9.98789721E-02   9.99999982E-02   9.94113899E-02   1.89079647E+03   2.11630509E+02   2.62446746E+03   8.77431036E-02   0.00000000E+00   2.66629420E+01
   1.20750000E+03   5.00000000E-01   5.00000000E-01   9.99884935E-02   9.99989078E-02   9.99258557E-02   9.99705830E-02   1.01070143E-01   1.50923158E+04   9.97035394E-02   9.98789888E-02   9.99999983E-02   9.94189014E-02   1.89421058E+03   2.27351477E+02   2.61228321E+03   8.77430991E-02   0.00000000E+00   2.62600374E+01
   1.24250000E+03   5.00000000E-01   5.00000000E-01   9.99884936E-02   9.99989079E-02   9.99258557E-02   9.99705830E-02   1.01037592E-01   1.51690302E+04   9.97012744E-02   9.98790033E-02   9.99999983E-02   9.94267197E-02   1.89752746E+03   2.43391193E+02   2.59699427E+03   8.77430771E-02   0.00000000E+00   2.58811274E+01
   1.27750000E+03   5.00000000E-01   5.00000000E-01   9.99884936E-02   9.99989080E-02   9.99258557E-02   9.99705830E-02   1.01005651E-01   1.52168511E+04   9.96993063E-02   9.98790156E-02   9.99999984E-02   9.94348554E-02   1.90076382E+03   2.59732366E+02   2.57877030E+03   8.77430383E-02   0.00000000E+00   2.55256378E+01
   1.31250000E+03   5.00000000E-01   5.00000000E-01   9.99884937E-02   9.99989082E-02   9.99258557E-02   9.99705830E-02   1.00974350E-01   1.52363205E+04   9.96976234E-02   9.98790255E-02   9.99999985E-02   9.94433182E-02   1.90392464E+03   2.76357282E+02   2.55782338E+03   8.77429830E-02   0.00000000E+00   2.51927618E+01
   1.34750000E+03   5.00000000E-01   5.00000000E-01   9.99884938E-02   9.99989083E-02   9.99258558E-02   9.99705830E-02   1.00943712E-01   1.52284592E+04   9.96962105E-02   9.98790331E-02   9.99999985E-02   9.94521163E-02   1.90700313E+03   2.93248613E+02   2.53440438E+03   8.77429112E-02   0.00000000E+00   2.48814922E+01
   1.38250000E+03   5.00000000E-01   5.00000000E-01   9.99884940E-02   9.99989085E-02   9.99258558E-02   9.99705830E-02   1.00913756E-01   1.51947216E+04   9.96950492E-02   9.98790383E-02   9.99999985E-02   9.94612565E-02   1.90998193E+03   3.10389888E+02   2.50879831E+03   8.77428231E-02   0.00000000E+00   2.45906490E+01
   1.41750000E+03   5.00000000E-01   5.00000000E-01   9.99884942E-02   9.99989086E-02   9.99258558E-02   9.99705830E-02   1.00884495E-01   1.51369405E+04   9.96941187E-02   9.98790412E-02   9.99999984E-02   9.94707433E-02   1.91283460E+03   3.27766244E+02   2.48131828E+03   8.77427182E-02   0.00000000E+00   2.43189005E+01
   1.45250000E+03   5.00000000E-01   5.00000000E-01   9.99884945E-02   9.99989088E-02   9.99258558E-02   9.99705830E-02   1.00855938E-01   1.50572581E+04   9.96933958E-02   9.98790417E-02   9.99999982E-02   9.94805796E-02   1.91552760E+03   3.45364875E+02   2.45229839E+03   8.77425964E-02   0.00000000E+00   2.40647903E+01
   1.48750000E+03   5.00000000E-01   5.00000000E-01   9.99884949E-02   9.99989090E-02   9.99258558E-02   9.99705830E-02   1.00828090E-01   1.49580564E+04   9.96928559E-02   9.98790400E-02   9.99999980E-02   9.94907660E-02   1.91802233E+03   3.63175571E+02   2.42208551E+03   8.77424573E-02   0.00000000E+00   2.38267783E+01
   1.52250000E+03   5.00000000E-01   5.00000000E-01   9.99884955E-02   9.99989091E-02   9.99258559E-02   9.99705830E-02   1.00800954E-01   1.48418616E+04   9.96924737E-02   9.98790361E-02   9.99999976E-02   9.95013013E-02   1.92027786E+03   3.81191082E+02   2.39103171E+03   8.77423005E-02   0.00000000E+00   2.36032678E+01
   1.55750000E+03   5.00000000E-01   5.00000000E-01   9.99884962E-02   9.99989093E-02   9.99258559E-02   9.99705830E-02   1.00774528E-01   1.47112748E+04   9.96922230E-02   9.98790301E-02   9.99999969E-02   9.95121826E-02   1.92225284E+03   3.99407276E+02   2.35948559E+03   8.77421255E-02   0.00000000E+00   2.33926407E+01
   1.59250000E+03   5.00000000E-01   5.00000000E-01   9.99884972E-02   9.99989095E-02   9.99258559E-02   9.99705830E-02   1.00748809E-01   1.45688894E+04   9.96920783E-02   9.98790221E-02   9.99999959E-02   9.95234050E-02   1.92390753E+03   4.17823250E+02   2.32778482E+03   8.77419322E-02   0.00000000E+00   2.31932928E+01
   1.62750000E+03   5.00000000E-01   5.00000000E-01   9.99884985E-02   9.99989096E-02   9.99258560E-02   9.99705830E-02   1.00723791E-01   1.44172237E+04   9.96920145E-02   9.98790123E-02   9.99999945E-02   9.95349623E-02   1.92520542E+03   4.36441185E+02   2.29624927E+03   8.77417204E-02   0.00000000E+00   2.30036638E+01
   1.66250000E+03   5.00000000E-01   5.00000000E-01   9.99885001E-02   9.99989098E-02   9.99258560E-02   9.99705830E-02   1.00699468E-01   1.42586702E+04   9.96920077E-02   9.98790007E-02   9.99999926E-02   9.95468470E-02   1.92611411E+03   4.55266203E+02   2.26517498E+03   8.77414898E-02   0.00000000E+00   2.28222632E+01
   1.69750000E+03   5.00000000E-01   5.00000000E-01   9.99885020E-02   9.99989100E-02   9.99258561E-02   9.99705830E-02   1.00675829E-01   1.40954462E+04   9.96920354E-02   9.98789875E-02   9.99999899E-02   9.95590507E-02   1.92660609E+03   4.74305906E+02   2.23483005E+03   8.77412407E-02   0.00000000E+00   2.26476907E+01
   1.73250000E+03   5.00000000E-01   5.00000000E-01   9.99885042E-02   9.99989102E-02   9.99258561E-02   9.99705830E-02   1.00652864E-01   1.39295648E+04   9.96920770E-02   9.98789729E-02   9.99999862E-02   9.95715638E-02   1.92665898E+03   4.93569985E+02   2.20545147E+03   8.77409732E-02   0.00000000E+00   2.24786508E+01
   1.76750000E+03   5.00000000E-01   5.00000000E-01   9.99885068E-02   9.99989104E-02   9.99258562E-02   9.99705830E-02   1.00630562E-01   1.37628169E+04   9.96921139E-02   9.98789569E-02   9.99999813E-02   9.95843764E-02   1.92625537E+03   5.13069638E+02   2.17724368E+03   8.77406877E-02   0.00000000E+00   2.23139678E+01
   1.80250000E+03   5.00000000E-01   5.00000000E-01   9.99885097E-02   9.99989106E-02   9.99258562E-02   9.99705830E-02   1.00608911E-01   1.35967614E+04   9.96921293E-02   9.98789397E-02   9.99999748E-02   9.95974778E-02   1.92538254E+03   5.32817011E+02   2.15037825E+03   8.77403845E-02   0.00000000E+00   2.21525884E+01
   1.83750000E+03   5.00000000E-01   5.00000000E-01   9.99885128E-02   9.99989108E-02   9.99258563E-02   9.99705830E-02   1.00587896E-01   1.34327271E+04   9.96921089E-02   9.98789214E-02   9.99999664E-02   9.96108568E-02   1.92403186E+03   5.52824660E+02   2.12499498E+03   8.77400644E-02   0.00000000E+00   2.19935859E+01
   1.87250000E+03   5.00000000E-01   5.00000000E-01   9.99885163E-02   9.99989110E-02   9.99258563E-02   9.99705830E-02   1.00567506E-01   1.32718196E+04   9.96920402E-02   9.98789021E-02   9.99999557E-02   9.96245020E-02   1.92219825E+03   5.73105010E+02   2.10120392E+03   8.77397279E-02   0.00000000E+00   2.18361575E+01
   1.90750000E+03   5.00000000E-01   5.00000000E-01   9.99885199E-02   9.99989112E-02   9.99258564E-02   9.99705830E-02   1.00547726E-01   1.31149375E+04   9.96919129E-02   9.98788821E-02   9.99999423E-02   9.96384017E-02   1.91987945E+03   5.93669850E+02   2.07908779E+03   8.77393760E-02   0.00000000E+00   2.16796198E+01
   1.94250000E+03   5.00000000E-01   5.00000000E-01   9.99885239E-02   9.99989114E-02   9.99258564E-02   9.99705830E-02   1.00528541E-01   1.29627918E+04   9.96917184E-02   9.98788613E-02   9.99999257E-02   9.96525435E-02   1.91707528E+03   6.14529897E+02   2.05870524E+03   8.77390094E-02   0.00000000E+00   2.15233990E+01
   1.97750000E+03   5.00000000E-01   5.00000000E-01   9.99885280E-02   9.99989116E-02   9.99258565E-02   9.99705830E-02   1.00509938E-01   1.28159195E+04   9.96914501E-02   9.98788399E-02   9.99999053E-02   9.96669150E-02   1.91378726E+03   6.35694478E+02   2.04009468E+03   8.77386291E-02   0.00000000E+00   2.13670260E+01
   2.01250000E+03   5.00000000E-01   5.00000000E-01   9.99885323E-02   9.99989118E-02   9.99258566E-02   9.99705830E-02   1.00491902E-01   1.26747145E+04   9.96911028E-02   9.98788181E-02   9.99998804E-02   9.96815034E-02   1.91001775E+03   6.57171227E+02   2.02327726E+03   8.77382361E-02   0.00000000E+00   2.12101232E+01
   2.04750000E+03   5.00000000E-01   5.00000000E-01   9.99885368E-02   9.99989120E-02   9.99258567E-02   9.99705830E-02   1.00474420E-01   1.25394395E+04   9.96906727E-02   9.98787959E-02   9.99998505E-02   9.96962955E-02   1.90576987E+03   6.78965836E+02   2.00826093E+03   8.77378314E-02   0.00000000E+00   2.10523960E+01
   2.08250000E+03   5.00000000E-01   5.00000000E-01   9.99885415E-02   9.99989123E-02   9.99258567E-02   9.99705830E-02   1.00457476E-01   1.24102502E+04   9.96901575E-02   9.98787734E-02   9.99998148E-02   9.97112775E-02   1.90104692E+03   7.01081994E+02   1.99504342E+03   8.77374161E-02   0.00000000E+00   2.08936223E+01
   2.11750000E+03   5.00000000E-01   5.00000000E-01   9.99885462E-02   9.99989125E-02   9.99258568E-02   9.99705830E-02   1.00441058E-01   1.22872173E+04   9.96895556E-02   9.98787508E-02   9.99997725E-02   9.97264354E-02   1.89585215E+03   7.23521244E+02   1.98361494E+03   8.77369912E-02   0.00000000E+00   2.07336375E+01
   2.15250000E+03   5.00000000E-01   5.00000000E-01   9.99885512E-02   9.99989127E-02   9.99258569E-02   9.99705830E-02   1.00425151E-01   1.21667109E+04   9.96888662E-02   9.98787281E-02   9.99997229E-02   9.97417722E-02   1.89025494E+03   7.46325516E+02   1.97428890E+03   8.77365580E-02   0.00000000E+00   2.05722268E+01
   2.18750000E+03   5.00000000E-01   5.00000000E-01   9.99885562E-02   9.99989129E-02   9.99258570E-02   9.99705830E-02   1.00409742E-01   1.20493702E+04   9.96880888E-02   9.98787054E-02   9.99996651E-02   9.97572696E-02   1.88424133E+03   7.69507385E+02   1.96691253E+03   8.77361176E-02   0.00000000E+00   2.04092787E+01
   2.22250000E+03   5.00000000E-01   5.00000000E-01   9.99885613E-02   9.99989132E-02   9.99258571E-02   9.99705830E-02   1.00394819E-01   1.19373940E+04   9.96872236E-02   9.98786829E-02   9.99995984E-02   9.97729004E-02   1.87776833E+03   7.93039266E+02   1.96128465E+03   8.77356707E-02   0.00000000E+00   2.02447792E+01
   2.25750000E+03   5.00000000E-01   5.00000000E-01   9.99885665E-02   9.99989134E-02   9.99258572E-02   9.99705830E-02   1.00380369E-01   1.18310393E+04   9.96862718E-02   9.98786605E-02   9.99995222E-02   9.97886459E-02   1.87082781E+03   8.16906132E+02   1.95739312E+03   8.77352185E-02   0.00000000E+00   2.00787345E+01
   2.29250000E+03   5.00000000E-01   5.00000000E-01   9.99885719E-02   9.99989136E-02   9.99258573E-02   9.99705830E-02   1.00366379E-01   1.17305554E+04   9.96852354E-02   9.98786383E-02   9.99994360E-02   9.98044867E-02   1.86341320E+03   8.41093003E+02   1.95519656E+03   8.77347619E-02   0.00000000E+00   1.99111757E+01
   2.32750000E+03   5.00000000E-01   5.00000000E-01   9.99885773E-02   9.99989139E-02   9.99258574E-02   9.99705830E-02   1.00352837E-01   1.16358438E+04   9.96841164E-02   9.98786165E-02   9.99993395E-02   9.98204045E-02   1.85552423E+03   8.65585727E+02   1.95468788E+03   8.77343020E-02   0.00000000E+00   1.97421424E+01
   2.36250000E+03   5.00000000E-01   5.00000000E-01   9.99885830E-02   9.99989141E-02   9.99258575E-02   9.99705830E-02   1.00339731E-01   1.15463290E+04   9.96829168E-02   9.98785951E-02   9.99992330E-02   9.98363835E-02   1.84716961E+03   8.90373596E+02   1.95590047E+03   8.77338398E-02   0.00000000E+00   1.95716841E+01
   2.39750000E+03   5.00000000E-01   5.00000000E-01   9.99885888E-02   9.99989144E-02   9.99258577E-02   9.99705830E-02   1.00327050E-01   1.14615260E+04   9.96816390E-02   9.98785741E-02   9.99991172E-02   9.98524067E-02   1.83835588E+03   9.15445862E+02   1.95885668E+03   8.77333763E-02   0.00000000E+00   1.93998771E+01
   2.43250000E+03   5.00000000E-01   5.00000000E-01   9.99885949E-02   9.99989147E-02   9.99258578E-02   9.99705830E-02   1.00314783E-01   1.13818529E+04   9.96802850E-02   9.98785537E-02   9.99989937E-02   9.98684507E-02   1.82907299E+03   9.40781937E+02   1.96350797E+03   8.77329124E-02   0.00000000E+00   1.92267641E+01
   2.46750000E+03   5.00000000E-01   5.00000000E-01   9.99886014E-02   9.99989149E-02   9.99258579E-02   9.99705830E-02   1.00302918E-01   1.13072235E+04   9.96788571E-02   9.98785337E-02   9.99988649E-02   9.98844946E-02   1.81931940E+03   9.66363312E+02   1.96986970E+03   8.77324490E-02   0.00000000E+00   1.90523851E+01
   2.50250000E+03   5.00000000E-01   5.00000000E-01   9.99886085E-02   9.99989152E-02   9.99258581E-02   9.99705830E-02   1.00291446E-01   1.12374628E+04   9.96773573E-02   9.98785143E-02   9.99987340E-02   9.99005173E-02   1.80909594E+03   9.92172321E+02   1.97796243E+03   8.77319870E-02   0.00000000E+00   1.88767694E+01
   2.53750000E+03   5.00000000E-01   5.00000000E-01   9.99886163E-02   9.99989155E-02   9.99258582E-02   9.99705830E-02   1.00280356E-01   1.11724137E+04   9.96757876E-02   9.98784955E-02   9.99986049E-02   9.99164970E-02   1.79840309E+03   1.01819039E+03   1.98781231E+03   8.77315272E-02   0.00000000E+00   1.86999385E+01
   2.57250000E+03   5.00000000E-01   5.00000000E-01   9.99886250E-02   9.99989158E-02   9.99258583E-02   9.99705830E-02   1.00269637E-01   1.11118788E+04   9.96741499E-02   9.98784772E-02   9.99984828E-02   9.99324115E-02   1.78724178E+03   1.04440066E+03   1.99945069E+03   8.77310704E-02   0.00000000E+00   1.85219047E+01
   2.60750000E+03   5.00000000E-01   5.00000000E-01   9.99886348E-02   9.99989161E-02   9.99258585E-02   9.99705830E-02   1.00259280E-01   1.10557055E+04   9.96724457E-02   9.98784596E-02   9.99983735E-02   9.99482381E-02   1.77561153E+03   1.07078596E+03   2.01291347E+03   8.77306175E-02   0.00000000E+00   1.83426662E+01
   2.64250000E+03   5.00000000E-01   5.00000000E-01   9.99886460E-02   9.99989164E-02   9.99258586E-02   9.99705830E-02   1.00249275E-01   1.10037232E+04   9.96706765E-02   9.98784425E-02   9.99982832E-02   9.99639531E-02   1.76351291E+03   1.09732910E+03   2.02824035E+03   8.77301690E-02   0.00000000E+00   1.81622063E+01
   2.67750000E+03   5.00000000E-01   5.00000000E-01   9.99886587E-02   9.99989167E-02   9.99258588E-02   9.99705830E-02   1.00239612E-01   1.09545494E+04   9.96688436E-02   9.98784260E-02   9.99982188E-02   9.99795406E-02   1.75096592E+03   1.12402654E+03   2.04557880E+03   8.77297257E-02   0.00000000E+00   1.79804563E+01
   2.71250000E+03   5.00000000E-01   5.00000000E-01   9.99886732E-02   9.99989170E-02   9.99258589E-02   9.99705830E-02   1.00230283E-01   1.09088822E+04   9.96669479E-02   9.98784101E-02   9.99981866E-02   9.99949701E-02   1.73795722E+03   1.15085536E+03   2.06488507E+03   8.77292882E-02   0.00000000E+00   1.77973815E+01
   2.74750000E+03   5.00000000E-01   5.00000000E-01   9.99886842E-02   9.99989174E-02   9.99258591E-02   9.99705830E-02   1.00221278E-01   1.08679109E+04   9.96649902E-02   9.98783948E-02   9.99981588E-02   1.00010207E-01   1.72447511E+03   1.17776045E+03   2.08618428E+03   8.77288571E-02   0.00000000E+00   1.76128901E+01
   2.78250000E+03   5.00000000E-01   5.00000000E-01   9.99886954E-02   9.99989177E-02   9.99258593E-02   9.99705830E-02   1.00212587E-01   1.08314130E+04   9.96629715E-02   9.98783802E-02   9.99981272E-02   1.00025225E-01   1.71052085E+03   1.20472966E+03   2.10952131E+03   8.77284329E-02   0.00000000E+00   1.74270063E+01
   2.81750000E+03   5.00000000E-01   5.00000000E-01   9.99887071E-02   9.99989180E-02   9.99258594E-02   9.99705830E-02   1.00204203E-01   1.07992659E+04   9.96608923E-02   9.98783662E-02   9.99981007E-02   1.00039997E-01   1.69609648E+03   1.23174563E+03   2.13493918E+03   8.77280161E-02   0.00000000E+00   1.72395802E+01
   2.85250000E+03   5.00000000E-01   5.00000000E-01   9.99887190E-02   9.99989184E-02   9.99258596E-02   9.99705830E-02   1.00196116E-01   1.07716058E+04   9.96587533E-02   9.98783529E-02   9.99980919E-02   1.00054493E-01   1.68120252E+03   1.25878208E+03   2.16247781E+03   8.77276071E-02   0.00000000E+00   1.70504790E+01
   2.88750000E+03   5.00000000E-01   5.00000000E-01   9.99887310E-02   9.99989187E-02   9.99258598E-02   9.99705830E-02   1.00188318E-01   1.07486230E+04   9.96565551E-02   9.98783402E-02   9.99981091E-02   1.00068686E-01   1.66583960E+03   1.28581178E+03   2.19217256E+03   8.77272064E-02   0.00000000E+00   1.68596153E+01
   2.92250000E+03   5.00000000E-01   5.00000000E-01   9.99887433E-02   9.99989191E-02   9.99258600E-02   9.99705830E-02   1.00180801E-01   1.07304842E+04   9.96542979E-02   9.98783281E-02   9.99981550E-02   1.00082546E-01   1.65000902E+03   1.31280952E+03   2.22405256E+03   8.77268143E-02   0.00000000E+00   1.66671676E+01
   2.95750000E+03   5.00000000E-01   5.00000000E-01   9.99887555E-02   9.99989194E-02   9.99258601E-02   9.99705830E-02   1.00173554E-01   1.07173729E+04   9.96519823E-02   9.98783166E-02   9.99982284E-02   1.00096044E-01   1.63371281E+03   1.33975022E+03   2.25813906E+03   8.77264312E-02   0.00000000E+00   1.64727148E+01
   2.99250000E+03   5.00000000E-01   5.00000000E-01   9.99887677E-02   9.99989198E-02   9.99258603E-02   9.99705830E-02   1.00166571E-01   1.07094420E+04   9.96496086E-02   9.98783056E-02   9.99983255E-02   1.00109150E-01   1.61695374E+03   1.36661086E+03   2.29444370E+03   8.77260574E-02   0.00000000E+00   1.62761326E+01
   3.02750000E+03   5.00000000E-01   5.00000000E-01   9.99887798E-02   9.99989202E-02   9.99258605E-02   9.99705830E-02   1.00159844E-01   1.07068651E+04   9.96471772E-02   9.98782952E-02   9.99984410E-02   1.00121835E-01   1.59973513E+03   1.39336859E+03   2.33296673E+03   8.77256930E-02   0.00000000E+00   1.60772914E+01
   3.06250000E+03   5.00000000E-01   5.00000000E-01   9.99887917E-02   9.99989206E-02   9.99258607E-02   9.99705830E-02   1.00153362E-01   1.07098237E+04   9.96446886E-02   9.98782852E-02   9.99985692E-02   1.00134071E-01   1.58206109E+03   1.42000092E+03   2.37369533E+03   8.77253384E-02   0.00000000E+00   1.58760577E+01
   3.09750000E+03   5.00000000E-01   5.00000000E-01   9.99888034E-02   9.99989210E-02   9.99258609E-02   9.99705830E-02   1.00147120E-01   1.07185034E+04   9.96421436E-02   9.98782758E-02   9.99987035E-02   1.00145827E-01   1.56393681E+03   1.44648567E+03   2.41660195E+03   8.77249936E-02   0.00000000E+00   1.56722961E+01
   3.13250000E+03   5.00000000E-01   5.00000000E-01   9.99888148E-02   9.99989214E-02   9.99258611E-02   9.99705830E-02   1.00141108E-01   1.07330950E+04   9.96395430E-02   9.98782669E-02   9.99988381E-02   1.00157076E-01   1.54536857E+03   1.47280091E+03   2.46164278E+03   8.77246588E-02   0.00000000E+00   1.54659394E+01
   3.16750000E+03   5.00000000E-01   5.00000000E-01   9.99888259E-02   9.99989218E-02   9.99258613E-02   9.99705830E-02   1.00135320E-01   1.07537888E+04   9.96368876E-02   9.98782584E-02   9.99989670E-02   1.00167791E-01   1.52636372E+03   1.49892539E+03   2.50875629E+03   8.77243341E-02   0.00000000E+00   1.52572819E+01