 TITLE = "Mineral Area" 
VARIABLES = "X"          "Y"              "Z"            "Forsterite"     "Enstatite(alph" "Anorthite"      "Tremolite"      "Pargasite"      "Anhydrite"      "Clinochlore"    "Albite(low)"    "Fayalite"       "Epidote"        "Kaolinite"      "Muscovite(orde" "Sudoite"        "Saponite(Mg)"   "Scolecite"      "FeS(am)"        "Quartz(alpha)"  "Montmorillonit"
 ZONE I=         100 , J=           1 , K=           1  F=POINT
   1.75000000E+01   5.00000000E-01   5.00000000E-01   9.99861921E-02   9.99980323E-02   9.99909196E-02   9.75525667E-02   9.75473554E-02   7.84137441E-02   1.09398252E+04   9.93600335E-02   9.98955430E-02   9.99999999E-02   9.38104977E-02   0.00000000E+00   0.00000000E+00   8.24883892E+03   8.93566621E-02   0.00000000E+00   1.30899250E+03   9.99466991E-02
   5.25000000E+01   5.00000000E-01   5.00000000E-01   9.99861921E-02   9.99980324E-02   9.99909196E-02   9.75525989E-02   9.75473554E-02   8.20265793E-02   9.62603099E+03   9.98053595E-02   9.98955591E-02   1.00000000E-01   9.38143183E-02   0.00000000E+00   0.00000000E+00   9.18026934E+03   8.93573396E-02   0.00000000E+00   1.60405033E+03   9.99576476E-02
   8.75000000E+01   5.00000000E-01   5.00000000E-01   9.99861921E-02   9.99980327E-02   9.99909196E-02   9.75526418E-02   9.75473554E-02   8.56631130E-02   8.89553930E+03   1.00025255E-01   9.98955844E-02   1.00000000E-01   9.38165285E-02   0.00000000E+00   0.00000000E+00   9.74055510E+03   8.93579429E-02   0.00000000E+00   1.69814850E+03   9.99654146E-02
   1.22500000E+02   5.00000000E-01   5.00000000E-01   9.99861921E-02   9.99980330E-02   9.99909196E-02   9.75526783E-02   9.75473554E-02   8.90746953E-02   8.58990215E+03   1.00109994E-01   9.98956185E-02   1.00000000E-01   9.38178373E-02   0.00000000E+00   0.00000000E+00   9.98005040E+03   8.93584069E-02   0.00000000E+00   1.72029048E+03   9.99696142E-02
   1.57500000E+02   5.00000000E-01   5.00000000E-01   9.99861921E-02   9.99980333E-02   9.99909196E-02   9.75527048E-02   9.75473554E-02   9.21117579E-02   8.47070844E+03   1.00139453E-01   9.98956607E-02   1.00000000E-01   9.38188264E-02   0.00000000E+00   0.00000000E+00   1.00786712E+04   8.93587805E-02   0.00000000E+00   1.71616091E+03   9.99721225E-02
   1.92500000E+02   5.00000000E-01   5.00000000E-01   9.99861921E-02   9.99980336E-02   9.99909196E-02   9.75527220E-02   9.75473554E-02   9.47064639E-02   8.42656207E+03   1.00147252E-01   9.98957106E-02   1.00000000E-01   9.38197117E-02   0.00000000E+00   0.00000000E+00   1.01213932E+04   8.93590950E-02   0.00000000E+00   1.70224107E+03   9.99739194E-02
   2.27500000E+02   5.00000000E-01   5.00000000E-01   9.99861921E-02   9.99980339E-02   9.99909196E-02   9.75527315E-02   9.75473554E-02   9.68507270E-02   8.41248162E+03   1.00146440E-01   9.98957680E-02   1.00000000E-01   9.38205763E-02   0.00000000E+00   0.00000000E+00   1.01421499E+04   8.93593676E-02   0.00000000E+00   1.68463800E+03   9.99754235E-02
   2.62500000E+02   5.00000000E-01   5.00000000E-01   9.99861921E-02   9.99980342E-02   9.99909196E-02   9.75527352E-02   9.75473554E-02   9.85746400E-02   8.41076079E+03   1.00142063E-01   9.98958325E-02   1.00000000E-01   9.38214541E-02   0.00000000E+00   0.00000000E+00   1.01542191E+04   8.93596082E-02   0.00000000E+00   1.66567984E+03   9.99768073E-02
   2.97500000E+02   5.00000000E-01   5.00000000E-01   9.99861921E-02   9.99980345E-02   9.99909196E-02   9.75527344E-02   9.75473554E-02   9.99286574E-02   8.41439178E+03   1.00136101E-01   9.98959040E-02   1.00000000E-01   9.38223597E-02   0.00000000E+00   0.00000000E+00   1.01628530E+04   8.93598232E-02   0.00000000E+00   1.64628060E+03   9.99781415E-02
   3.32500000E+02   5.00000000E-01   5.00000000E-01   9.99861921E-02   9.99980349E-02   9.99909196E-02   9.75527306E-02   9.75473554E-02   1.00967573E-01   8.42055969E+03   1.00129343E-01   9.98959823E-02   1.00000000E-01   9.38232993E-02   0.00000000E+00   0.00000000E+00   1.01701676E+04   8.93600173E-02   0.00000000E+00   1.62681050E+03   9.99794549E-02
   3.67500000E+02   5.00000000E-01   5.00000000E-01   9.99861921E-02   9.99980352E-02   9.99909196E-02   9.75527247E-02   9.75473554E-02   1.01748476E-01   8.42811812E+03   1.00122114E-01   9.98960672E-02   1.00000000E-01   9.38242760E-02   0.00000000E+00   0.00000000E+00   1.01770279E+04   8.93601942E-02   0.00000000E+00   1.60742404E+03   9.99807585E-02
   4.02500000E+02   5.00000000E-01   5.00000000E-01   9.99861921E-02   9.99980356E-02   9.99909196E-02   9.75527176E-02   9.75473554E-02   1.02326766E-01   8.43659670E+03   1.00114548E-01   9.98961587E-02   1.00000000E-01   9.38252909E-02   0.00000000E+00   0.00000000E+00   1.01837869E+04   8.93603568E-02   0.00000000E+00   1.58818722E+03   9.99820561E-02
   4.37500000E+02   5.00000000E-01   5.00000000E-01   9.99861921E-02   9.99980359E-02   9.99909196E-02   9.75527101E-02   9.75473554E-02   1.02747734E-01   8.44579900E+03   1.00106706E-01   9.98962566E-02   1.00000000E-01   9.38263444E-02   0.00000000E+00   0.00000000E+00   1.01905815E+04   8.93605074E-02   0.00000000E+00   1.56912917E+03   9.99833475E-02
   4.72500000E+02   5.00000000E-01   5.00000000E-01   9.99861921E-02   9.99980363E-02   9.99909196E-02   9.75527031E-02   9.75473554E-02   1.03047656E-01   8.45563834E+03   1.00098621E-01   9.98963610E-02   1.00000000E-01   9.38274365E-02   0.00000000E+00   0.00000000E+00   1.01974535E+04   8.93606480E-02   0.00000000E+00   1.55026363E+03   9.99846317E-02
   5.07500000E+02   5.00000000E-01   5.00000000E-01   9.99861921E-02   9.99980367E-02   9.99909196E-02   9.75526976E-02   9.75473554E-02   1.03255142E-01   8.46606917E+03   1.00090315E-01   9.98964716E-02   9.99999999E-02   9.38285669E-02   0.00000000E+00   0.00000000E+00   1.02043993E+04   8.93607800E-02   0.00000000E+00   1.53159639E+03   9.99859068E-02
   5.42500000E+02   5.00000000E-01   5.00000000E-01   9.99861921E-02   9.99980371E-02   9.99909196E-02   9.75526951E-02   9.75473554E-02   1.03392483E-01   8.47705775E+03   1.00081809E-01   9.98965887E-02   9.99999999E-02   9.38297353E-02   0.00000000E+00   0.00000000E+00   1.02113911E+04   8.93609049E-02   0.00000000E+00   1.51313146E+03   9.99871708E-02
   5.77500000E+02   5.00000000E-01   5.00000000E-01   9.99861921E-02   9.99980376E-02   9.99909196E-02   9.75526967E-02   9.75473554E-02   1.03476873E-01   8.48856889E+03   1.00073126E-01   9.98967120E-02   9.99999999E-02   9.38309412E-02   0.00000000E+00   0.00000000E+00   1.02183880E+04   8.93610236E-02   0.00000000E+00   1.49487152E+03   9.99884218E-02
   6.12500000E+02   5.00000000E-01   5.00000000E-01   9.99861921E-02   9.99980380E-02   9.99909196E-02   9.75527023E-02   9.75473554E-02   1.03521468E-01   8.50056003E+03   1.00064293E-01   9.98968418E-02   9.99999999E-02   9.38321843E-02   0.00000000E+00   0.00000000E+00   1.02253415E+04   8.93611372E-02   0.00000000E+00   1.47681853E+03   9.99896585E-02
   6.47500000E+02   5.00000000E-01   5.00000000E-01   9.99861921E-02   9.99980385E-02   9.99909196E-02   9.75527111E-02   9.75473554E-02   1.03536266E-01   8.51297931E+03   1.00055337E-01   9.98969779E-02   9.99999999E-02   9.38334642E-02   0.00000000E+00   0.00000000E+00   1.02321968E+04   8.93612464E-02   0.00000000E+00   1.45897540E+03   9.99908795E-02
   6.82500000E+02   5.00000000E-01   5.00000000E-01   9.99861921E-02   9.99980389E-02   9.99909196E-02   9.75527221E-02   9.75473554E-02   1.03528826E-01   8.52576581E+03   1.00046293E-01   9.98971205E-02   9.99999999E-02   9.38347808E-02   0.00000000E+00   0.00000000E+00   1.02388908E+04   8.93613519E-02   0.00000000E+00   1.44134654E+03   9.99920843E-02
   7.17500000E+02   5.00000000E-01   5.00000000E-01   9.99861921E-02   9.99980394E-02   9.99909196E-02   9.75527346E-02   9.75473554E-02   1.03504840E-01   8.53884998E+03   1.00037196E-01   9.98972695E-02   9.99999999E-02   9.38361343E-02   0.00000000E+00   0.00000000E+00   1.02453522E+04   8.93614545E-02   0.00000000E+00   1.42393651E+03   9.99932726E-02
   7.52500000E+02   5.00000000E-01   5.00000000E-01   9.99861921E-02   9.99980399E-02   9.99909196E-02   9.75527483E-02   9.75473554E-02   1.03468581E-01   8.55215415E+03   1.00028083E-01   9.98974251E-02   9.99999999E-02   9.38375249E-02   0.00000000E+00   0.00000000E+00   1.02515022E+04   8.93615547E-02   0.00000000E+00   1.40674870E+03   9.99944448E-02
   7.87500000E+02   5.00000000E-01   5.00000000E-01   9.99861921E-02   9.99980404E-02   9.99909196E-02   9.75527629E-02   9.75473554E-02   1.03423256E-01   8.56559360E+03   1.00018996E-01   9.98975872E-02   9.99999998E-02   9.38389533E-02   0.00000000E+00   0.00000000E+00   1.02572560E+04   8.93616532E-02   0.00000000E+00   1.38978824E+03   9.99956018E-02
   8.22500000E+02   5.00000000E-01   5.00000000E-01   9.99861921E-02   9.99980410E-02   9.99909196E-02   9.75527783E-02   9.75473554E-02   1.03371272E-01   8.57907775E+03   1.00009977E-01   9.98977560E-02   9.99999998E-02   9.38404206E-02   0.00000000E+00   0.00000000E+00   1.02625240E+04   8.93617506E-02   0.00000000E+00   1.37306040E+03   9.99967451E-02
   8.57500000E+02   5.00000000E-01   5.00000000E-01   9.99861921E-02   9.99980415E-02   9.99909196E-02   9.75527944E-02   9.75473554E-02   1.03314440E-01   8.59251172E+03   1.00001067E-01   9.98979313E-02   9.99999997E-02   9.38419281E-02   0.00000000E+00   0.00000000E+00   1.02672141E+04   8.93618476E-02   0.00000000E+00   1.35657260E+03   9.99978768E-02
   8.92500000E+02   5.00000000E-01   5.00000000E-01   9.99861921E-02   9.99980421E-02   9.99909196E-02   9.75528111E-02   9.75473554E-02   1.03254127E-01   8.60579751E+03   9.99923100E-02   9.98981133E-02   9.99999996E-02   9.38434777E-02   0.00000000E+00   0.00000000E+00   1.02712340E+04   8.93619448E-02   0.00000000E+00   1.34032905E+03   9.99989994E-02
   9.27500000E+02   5.00000000E-01   5.00000000E-01   9.99861921E-02   9.99980426E-02   9.99909196E-02   9.75528283E-02   9.75473554E-02   1.03191371E-01   8.61883597E+03   9.99837476E-02   9.98983018E-02   9.99999995E-02   9.38450716E-02   0.00000000E+00   0.00000000E+00   1.02744935E+04   8.93620429E-02   0.00000000E+00   1.32433574E+03   1.00000116E-01
   9.62500000E+02   5.00000000E-01   5.00000000E-01   9.99861921E-02   9.99980432E-02   9.99909196E-02   9.75528461E-02   9.75473554E-02   1.03126968E-01   8.63152991E+03   9.99754197E-02   9.98984967E-02   9.99999994E-02   9.38467123E-02   0.00000000E+00   0.00000000E+00   1.02769057E+04   8.93621426E-02   0.00000000E+00   1.30859982E+03   1.00001229E-01
   9.97500000E+02   5.00000000E-01   5.00000000E-01   9.99861921E-02   9.99980439E-02   9.99909196E-02   9.75528642E-02   9.75473554E-02   1.03061526E-01   8.64378564E+03   9.99673636E-02   9.98986980E-02   9.99999992E-02   9.38484028E-02   0.00000000E+00   0.00000000E+00   1.02783903E+04   8.93622445E-02   0.00000000E+00   1.29312853E+03   1.00002344E-01
   1.03250000E+03   5.00000000E-01   5.00000000E-01   9.99861921E-02   9.99980445E-02   9.99909196E-02   9.75528827E-02   9.75473554E-02   1.02995520E-01   8.65551392E+03   9.99596133E-02   9.98989055E-02   9.99999990E-02   9.38501463E-02   0.00000000E+00   0.00000000E+00   1.02788776E+04   8.93623495E-02   0.00000000E+00   1.27792417E+03   1.00003462E-01
   1.06750000E+03   5.00000000E-01   5.00000000E-01   9.99861921E-02   9.99980451E-02   9.99909196E-02   9.75529015E-02   9.75473554E-02   1.02929319E-01   8.66663264E+03   9.99521988E-02   9.98991190E-02   9.99999987E-02   9.38519462E-02   0.00000000E+00   0.00000000E+00   1.02783090E+04   8.93624581E-02   0.00000000E+00   1.26299063E+03   1.00004589E-01
   1.10250000E+03   5.00000000E-01   5.00000000E-01   9.99861921E-02   9.99980458E-02   9.99909196E-02   9.75529205E-02   9.75473554E-02   1.02863213E-01   8.67706839E+03   9.99451453E-02   9.98993381E-02   9.99999983E-02   9.38538060E-02   0.00000000E+00   0.00000000E+00   1.02766399E+04   8.93625711E-02   0.00000000E+00   1.24833076E+03   1.00005727E-01
   1.13750000E+03   5.00000000E-01   5.00000000E-01   9.99861921E-02   9.99980465E-02   9.99909196E-02   9.75529396E-02   9.75473554E-02   1.02797428E-01   8.68675815E+03   9.99384731E-02   9.98995627E-02   9.99999978E-02   9.38557293E-02   0.00000000E+00   0.00000000E+00   1.02738411E+04   8.93626892E-02   0.00000000E+00   1.23394847E+03   1.00006879E-01
   1.17250000E+03   5.00000000E-01   5.00000000E-01   9.99861922E-02   9.99980472E-02   9.99909196E-02   9.75529587E-02   9.75473554E-02   1.02732142E-01   8.69565014E+03   9.99321967E-02   9.98997924E-02   9.99999972E-02   9.38577195E-02   0.00000000E+00   0.00000000E+00   1.02699014E+04   8.93628130E-02   0.00000000E+00   1.21984174E+03   1.00008050E-01
   1.20750000E+03   5.00000000E-01   5.00000000E-01   9.99861922E-02   9.99980479E-02   9.99909196E-02   9.75529778E-02   9.75473554E-02   1.02667492E-01   8.70370524E+03   9.99263251E-02   9.99000269E-02   9.99999963E-02   9.38597800E-02   0.00000000E+00   0.00000000E+00   1.02648269E+04   8.93629432E-02   0.00000000E+00   1.20601013E+03   1.00009240E-01
   1.24250000E+03   5.00000000E-01   5.00000000E-01   9.99861922E-02   9.99980486E-02   9.99909196E-02   9.75529967E-02   9.75473554E-02   1.02603582E-01   8.71089775E+03   9.99208615E-02   9.99002656E-02   9.99999951E-02   9.38619136E-02   0.00000000E+00   0.00000000E+00   1.02586412E+04   8.93630805E-02   0.00000000E+00   1.19245473E+03   1.00010453E-01
   1.27750000E+03   5.00000000E-01   5.00000000E-01   9.99861922E-02   9.99980494E-02   9.99909196E-02   9.75530155E-02   9.75473554E-02   1.02540491E-01   8.71721528E+03   9.99158032E-02   9.99005082E-02   9.99999936E-02   9.38641228E-02   0.00000000E+00   0.00000000E+00   1.02513860E+04   8.93632253E-02   0.00000000E+00   1.17917338E+03   1.00011688E-01
   1.31250000E+03   5.00000000E-01   5.00000000E-01   9.99861922E-02   9.99980501E-02   9.99909196E-02   9.75530340E-02   9.75473554E-02   1.02478274E-01   8.72265832E+03   9.99111426E-02   9.99007543E-02   9.99999917E-02   9.38664095E-02   0.00000000E+00   0.00000000E+00   1.02431211E+04   8.93633784E-02   0.00000000E+00   1.16615745E+03   1.00012947E-01
   1.34750000E+03   5.00000000E-01   5.00000000E-01   9.99861922E-02   9.99980509E-02   9.99909196E-02   9.75530521E-02   9.75473554E-02   1.02416966E-01   8.72724064E+03   9.99068671E-02   9.99010033E-02   9.99999893E-02   9.38687749E-02   0.00000000E+00   0.00000000E+00   1.02339201E+04   8.93635402E-02   0.00000000E+00   1.15340146E+03   1.00014229E-01
   1.38250000E+03   5.00000000E-01   5.00000000E-01   9.99861922E-02   9.99980517E-02   9.99909196E-02   9.75530697E-02   9.75473554E-02   1.02356588E-01   8.73098806E+03   9.99029597E-02   9.99012549E-02   9.99999861E-02   9.38712196E-02   0.00000000E+00   0.00000000E+00   1.02238697E+04   8.93637112E-02   0.00000000E+00   1.14089884E+03   1.00015532E-01
   1.41750000E+03   5.00000000E-01   5.00000000E-01   9.99861922E-02   9.99980526E-02   9.99909196E-02   9.75530868E-02   9.75473554E-02   1.02297146E-01   8.73393738E+03   9.98994000E-02   9.99015084E-02   9.99999821E-02   9.38737433E-02   0.00000000E+00   0.00000000E+00   1.02130667E+04   8.93638920E-02   0.00000000E+00   1.12864211E+03   1.00016856E-01
   1.45250000E+03   5.00000000E-01   5.00000000E-01   9.99861922E-02   9.99980534E-02   9.99909196E-02   9.75531033E-02   9.75473554E-02   1.02238635E-01   8.73613519E+03   9.98961648E-02   9.99017634E-02   9.99999770E-02   9.38763449E-02   0.00000000E+00   0.00000000E+00   1.02016149E+04   8.93640830E-02   0.00000000E+00   1.11662659E+03   1.00018197E-01
   1.48750000E+03   5.00000000E-01   5.00000000E-01   9.99861923E-02   9.99980543E-02   9.99909196E-02   9.75531192E-02   9.75473554E-02   1.02181040E-01   8.73763625E+03   9.98932289E-02   9.99020196E-02   9.99999705E-02   9.38790223E-02   0.00000000E+00   0.00000000E+00   1.01896221E+04   8.93642847E-02   0.00000000E+00   1.10485024E+03   1.00019552E-01
   1.52250000E+03   5.00000000E-01   5.00000000E-01   9.99861923E-02   9.99980552E-02   9.99909196E-02   9.75531344E-02   9.75473554E-02   1.02124338E-01   8.73850043E+03   9.98905658E-02   9.99022763E-02   9.99999624E-02   9.38817727E-02   0.00000000E+00   0.00000000E+00   1.01772014E+04   8.93644975E-02   0.00000000E+00   1.09329480E+03   1.00020918E-01
   1.55750000E+03   5.00000000E-01   5.00000000E-01   9.99861924E-02   9.99980561E-02   9.99909196E-02   9.75531491E-02   9.75473554E-02   1.02068500E-01   8.73879244E+03   9.98881490E-02   9.99025333E-02   9.99999521E-02   9.38845926E-02   0.00000000E+00   0.00000000E+00   1.01644631E+04   8.93647221E-02   0.00000000E+00   1.08194886E+03   1.00022289E-01
   1.59250000E+03   5.00000000E-01   5.00000000E-01   9.99861924E-02   9.99980570E-02   9.99909196E-02   9.75531633E-02   9.75473554E-02   1.02013492E-01   8.73857939E+03   9.98859520E-02   9.99027901E-02   9.99999391E-02   9.38874776E-02   0.00000000E+00   0.00000000E+00   1.01515138E+04   8.93649588E-02   0.00000000E+00   1.07080790E+03   1.00023661E-01
   1.62750000E+03   5.00000000E-01   5.00000000E-01   9.99861925E-02   9.99980580E-02   9.99909196E-02   9.75531768E-02   9.75473554E-02   1.01959276E-01   8.73792829E+03   9.98839497E-02   9.99030464E-02   9.99999229E-02   9.38904225E-02   0.00000000E+00   0.00000000E+00   1.01384565E+04   8.93652084E-02   0.00000000E+00   1.05985728E+03   1.00025030E-01
   1.66250000E+03   5.00000000E-01   5.00000000E-01   9.99861926E-02   9.99980590E-02   9.99909196E-02   9.75531897E-02   9.75473554E-02   1.01905812E-01   8.73690521E+03   9.98821186E-02   9.99033018E-02   9.99999027E-02   9.38934218E-02   0.00000000E+00   0.00000000E+00   1.01253866E+04   8.93654714E-02   0.00000000E+00   1.04908811E+03   1.00026390E-01
   1.69750000E+03   5.00000000E-01   5.00000000E-01   9.99861928E-02   9.99980600E-02   9.99909196E-02   9.75532020E-02   9.75473554E-02   1.01853057E-01   8.73557334E+03   9.98804375E-02   9.99035562E-02   9.99998783E-02   9.38964692E-02   0.00000000E+00   0.00000000E+00   1.01123912E+04   8.93657484E-02   0.00000000E+00   1.03849182E+03   1.00027736E-01
   1.73250000E+03   5.00000000E-01   5.00000000E-01   9.99861930E-02   9.99980610E-02   9.99909196E-02   9.75532139E-02   9.75473554E-02   1.01800971E-01   8.73399221E+03   9.98788874E-02   9.99038094E-02   9.99998490E-02   9.38995582E-02   0.00000000E+00   0.00000000E+00   1.00995474E+04   8.93660404E-02   0.00000000E+00   1.02806892E+03   1.00029062E-01
   1.76750000E+03   5.00000000E-01   5.00000000E-01   9.99861933E-02   9.99980621E-02   9.99909196E-02   9.75532255E-02   9.75473554E-02   1.01749513E-01   8.73221547E+03   9.98774525E-02   9.99040611E-02   9.99998147E-02   9.39026817E-02   0.00000000E+00   0.00000000E+00   1.00869252E+04   8.93663480E-02   0.00000000E+00   1.01780393E+03   1.00030365E-01
   1.80250000E+03   5.00000000E-01   5.00000000E-01   9.99861936E-02   9.99980632E-02   9.99909196E-02   9.75532367E-02   9.75473554E-02   1.01698646E-01   8.73029059E+03   9.98761195E-02   9.99043115E-02   9.99997747E-02   9.39058327E-02   0.00000000E+00   0.00000000E+00   1.00745861E+04   8.93666724E-02   0.00000000E+00   1.00768832E+03   1.00031640E-01
   1.83750000E+03   5.00000000E-01   5.00000000E-01   9.99861941E-02   9.99980643E-02   9.99909196E-02   9.75532477E-02   9.75473554E-02   1.01648333E-01   8.72825861E+03   9.98748783E-02   9.99045606E-02   9.99997280E-02   9.39090036E-02   0.00000000E+00   0.00000000E+00   1.00625816E+04   8.93670146E-02   0.00000000E+00   9.97715564E+02   1.00032881E-01
   1.87250000E+03   5.00000000E-01   5.00000000E-01   9.99861947E-02   9.99980654E-02   9.99909196E-02   9.75532584E-02   9.75473554E-02   1.01598546E-01   8.72615357E+03   9.98737220E-02   9.99048085E-02   9.99996729E-02   9.39121868E-02   0.00000000E+00   0.00000000E+00   1.00509548E+04   8.93673758E-02   0.00000000E+00   9.87879663E+02   1.00034085E-01
   1.90750000E+03   5.00000000E-01   5.00000000E-01   9.99861955E-02   9.99980666E-02   9.99909196E-02   9.75532692E-02   9.75473554E-02   1.01549260E-01   8.72400223E+03   9.98726463E-02   9.99050555E-02   9.99996078E-02   9.39153749E-02   0.00000000E+00   0.00000000E+00   1.00397411E+04   8.93677572E-02   0.00000000E+00   9.78175126E+02   1.00035248E-01
   1.94250000E+03   5.00000000E-01   5.00000000E-01   9.99861966E-02   9.99980678E-02   9.99909196E-02   9.75532800E-02   9.75473554E-02   1.01500455E-01   8.72182383E+03   9.98716498E-02   9.99053021E-02   9.99995315E-02   9.39185601E-02   0.00000000E+00   0.00000000E+00   1.00289702E+04   8.93681605E-02   0.00000000E+00   9.68596934E+02   1.00036366E-01
   1.97750000E+03   5.00000000E-01   5.00000000E-01   9.99861980E-02   9.99980690E-02   9.99909196E-02   9.75532908E-02   9.75473554E-02   1.01452120E-01   8.71963044E+03   9.98707338E-02   9.99055488E-02   9.99994441E-02   9.39217346E-02   0.00000000E+00   0.00000000E+00   1.00186650E+04   8.93685873E-02   0.00000000E+00   9.59140498E+02   1.00037437E-01
   2.01250000E+03   5.00000000E-01   5.00000000E-01   9.99861998E-02   9.99980703E-02   9.99909196E-02   9.75533019E-02   9.75473554E-02   1.01404253E-01   8.71742726E+03   9.98699020E-02   9.99057964E-02   9.99993476E-02   9.39248907E-02   0.00000000E+00   0.00000000E+00   1.00088430E+04   8.93690393E-02   0.00000000E+00   9.49802116E+02   1.00038457E-01
   2.04750000E+03   5.00000000E-01   5.00000000E-01   9.99862021E-02   9.99980716E-02   9.99909196E-02   9.75533133E-02   9.75473554E-02   1.01356858E-01   8.71521295E+03   9.98691607E-02   9.99060457E-02   9.99992452E-02   9.39280207E-02   0.00000000E+00   0.00000000E+00   9.99951711E+03   8.93695186E-02   0.00000000E+00   9.40592685E+02   1.00039424E-01
   2.08250000E+03   5.00000000E-01   5.00000000E-01   9.99862052E-02   9.99980729E-02   9.99909196E-02   9.75533249E-02   9.75473554E-02   1.01309950E-01   8.71297886E+03   9.98685180E-02   9.99062980E-02   9.99991404E-02   9.39311166E-02   0.00000000E+00   0.00000000E+00   9.99069965E+03   8.93700273E-02   0.00000000E+00   9.31492306E+02   1.00040335E-01
   2.11750000E+03   5.00000000E-01   5.00000000E-01   9.99862091E-02   9.99980743E-02   9.99909196E-02   9.75533368E-02   9.75473554E-02   1.01263550E-01   8.71071076E+03   9.98679844E-02   9.99065545E-02   9.99990360E-02   9.39341708E-02   0.00000000E+00   0.00000000E+00   9.98239871E+03   8.93705680E-02   0.00000000E+00   9.22497650E+02   1.00041189E-01
   2.15250000E+03   5.00000000E-01   5.00000000E-01   9.99862142E-02   9.99980757E-02   9.99909197E-02   9.75533487E-02   9.75473554E-02   1.01217691E-01   8.70838864E+03   9.98675723E-02   9.99068169E-02   9.99989340E-02   9.39371751E-02   0.00000000E+00   0.00000000E+00   9.97462043E+03   8.93711431E-02   0.00000000E+00   9.13605563E+02   1.00041984E-01
   2.18750000E+03   5.00000000E-01   5.00000000E-01   9.99862206E-02   9.99980771E-02   9.99909197E-02   9.75533608E-02   9.75473554E-02   1.01172414E-01   8.70598689E+03   9.98672958E-02   9.99070871E-02   9.99988357E-02   9.39401216E-02   0.00000000E+00   0.00000000E+00   9.96736985E+03   8.93717556E-02   0.00000000E+00   9.04813002E+02   1.00042718E-01
   2.22250000E+03   5.00000000E-01   5.00000000E-01   9.99862286E-02   9.99980786E-02   9.99909197E-02   9.75533727E-02   9.75473554E-02   1.01127766E-01   8.70347444E+03   9.98671711E-02   9.99073673E-02   9.99987418E-02   9.39430019E-02   0.00000000E+00   0.00000000E+00   9.96065161E+03   8.93724088E-02   0.00000000E+00   8.96116990E+02   1.00043390E-01
   2.25750000E+03   5.00000000E-01   5.00000000E-01   9.99862387E-02   9.99980801E-02   9.99909197E-02   9.75533844E-02   9.75473554E-02   1.01083803E-01   8.70081488E+03   9.98672162E-02   9.99076604E-02   9.99986518E-02   9.39458075E-02   0.00000000E+00   0.00000000E+00   9.95447060E+03   8.93731060E-02   0.00000000E+00   8.87514555E+02   1.00043997E-01
   2.29250000E+03   5.00000000E-01   5.00000000E-01   9.99862511E-02   9.99980817E-02   9.99909197E-02   9.75533957E-02   9.75473554E-02   1.01040586E-01   8.69796645E+03   9.98674511E-02   9.99079693E-02   9.99985622E-02   9.39485298E-02   0.00000000E+00   0.00000000E+00   9.94883245E+03   8.93738514E-02   0.00000000E+00   8.79002686E+02   1.00044540E-01
   2.32750000E+03   5.00000000E-01   5.00000000E-01   9.99862663E-02   9.99980832E-02   9.99909197E-02   9.75534063E-02   9.75473554E-02   1.00998179E-01   8.69488178E+03   9.98678978E-02   9.99082977E-02   9.99984677E-02   9.39511595E-02   0.00000000E+00   0.00000000E+00   9.94374426E+03   8.93746491E-02   0.00000000E+00   8.70578283E+02   1.00045016E-01
   2.36250000E+03   5.00000000E-01   5.00000000E-01   9.99862845E-02   9.99980849E-02   9.99909197E-02   9.75534161E-02   9.75473554E-02   1.00956651E-01   8.69150734E+03   9.98685806E-02   9.99086502E-02   9.99983636E-02   9.39536871E-02   0.00000000E+00   0.00000000E+00   9.93921527E+03   8.93755040E-02   0.00000000E+00   8.62238103E+02   1.00045424E-01
   2.39750000E+03   5.00000000E-01   5.00000000E-01   9.99863062E-02   9.99980865E-02   9.99909197E-02   9.75534250E-02   9.75473554E-02   1.00916069E-01   8.68778273E+03   9.98695264E-02   9.99090316E-02   9.99982486E-02   9.39561024E-02   0.00000000E+00   0.00000000E+00   9.93525750E+03   8.93764215E-02   0.00000000E+00   8.53978710E+02   1.00045763E-01
   2.43250000E+03   5.00000000E-01   5.00000000E-01   9.99863315E-02   9.99980882E-02   9.99909198E-02   9.75534329E-02   9.75473554E-02   1.00876501E-01   8.68363969E+03   9.98707651E-02   9.99094484E-02   9.99981267E-02   9.39583947E-02   0.00000000E+00   0.00000000E+00   9.93188648E+03   8.93774078E-02   0.00000000E+00   8.45796417E+02   1.00046031E-01
   2.46750000E+03   5.00000000E-01   5.00000000E-01   9.99863607E-02   9.99980899E-02   9.99909198E-02   9.75534402E-02   9.75473554E-02   1.00838011E-01   8.67900096E+03   9.98723299E-02   9.99099078E-02   9.99980073E-02   9.39605525E-02   0.00000000E+00   0.00000000E+00   9.92912208E+03   8.93784699E-02   0.00000000E+00   8.37687220E+02   1.00046226E-01
   2.50250000E+03   5.00000000E-01   5.00000000E-01   9.99863938E-02   9.99980917E-02   9.99909198E-02   9.75534473E-02   9.75473554E-02   1.00800660E-01   8.67377888E+03   9.98742582E-02   9.99104187E-02   9.99979033E-02   9.39625634E-02   0.00000000E+00   0.00000000E+00   9.92698932E+03   8.93796157E-02   0.00000000E+00   8.29646734E+02   1.00046346E-01
   2.53750000E+03   5.00000000E-01   5.00000000E-01   9.99864309E-02   9.99980935E-02   9.99909199E-02   9.75534549E-02   9.75473554E-02   1.00764502E-01   8.66787350E+03   9.98765923E-02   9.99109922E-02   9.99978281E-02   9.39644140E-02   0.00000000E+00   0.00000000E+00   9.92551936E+03   8.93808545E-02   0.00000000E+00   8.21670104E+02   1.00046390E-01
   2.57250000E+03   5.00000000E-01   5.00000000E-01   9.99864718E-02   9.99980954E-02   9.99909199E-02   9.75534640E-02   9.75473554E-02   1.00729584E-01   8.66117017E+03   9.98793804E-02   9.99116418E-02   9.99977930E-02   9.39660898E-02   0.00000000E+00   0.00000000E+00   9.92475060E+03   8.93821972E-02   0.00000000E+00   8.13751913E+02   1.00046353E-01
   2.60750000E+03   5.00000000E-01   5.00000000E-01   9.99865162E-02   9.99980972E-02   9.99909199E-02   9.75534758E-02   9.75473554E-02   1.00695943E-01   8.65353617E+03   9.98826783E-02   9.99123843E-02   9.99978046E-02   9.39675746E-02   0.00000000E+00   0.00000000E+00   9.92473006E+03   8.93836566E-02   0.00000000E+00   8.05886067E+02   1.00046234E-01
   2.64250000E+03   5.00000000E-01   5.00000000E-01   9.99865639E-02   9.99980992E-02   9.99909200E-02   9.75534917E-02   9.75473554E-02   1.00663611E-01   8.64481630E+03   9.98865508E-02   9.99132410E-02   9.99978645E-02   9.39688510E-02   0.00000000E+00   0.00000000E+00   9.92551465E+03   8.93852478E-02   0.00000000E+00   7.98065655E+02   1.00046029E-01
   2.67750000E+03   5.00000000E-01   5.00000000E-01   9.99866144E-02   9.99981011E-02   9.99909201E-02   9.75535131E-02   9.75473554E-02   1.00632608E-01   8.63482703E+03   9.98910742E-02   9.99142395E-02   9.99979697E-02   9.39698991E-02   0.00000000E+00   0.00000000E+00   9.92717232E+03   8.93869893E-02   0.00000000E+00   7.90282784E+02   1.00045733E-01
   2.71250000E+03   5.00000000E-01   5.00000000E-01   9.99866676E-02   9.99981031E-02   9.99909201E-02   9.75535417E-02   9.75473554E-02   1.00602946E-01   8.62334871E+03   9.98963399E-02   9.99154153E-02   9.99981142E-02   9.39706974E-02   0.00000000E+00   0.00000000E+00   9.92978283E+03   8.93889036E-02   0.00000000E+00   7.82528364E+02   1.00045341E-01
   2.74750000E+03   5.00000000E-01   5.00000000E-01   9.99867233E-02   9.99981052E-02   9.99909202E-02   9.75535796E-02   9.75473554E-02   1.00574628E-01   8.61011514E+03   9.99024583E-02   9.99168159E-02   9.99982906E-02   9.39712211E-02   0.00000000E+00   0.00000000E+00   9.93343745E+03   8.93910185E-02   0.00000000E+00   7.74791846E+02   1.00044848E-01
   2.78250000E+03   5.00000000E-01   5.00000000E-01   9.99867807E-02   9.99981073E-02   9.99909203E-02   9.75536296E-02   9.75473554E-02   1.00547648E-01   8.59479709E+03   9.99095650E-02   9.99185050E-02   9.99984897E-02   9.39714428E-02   0.00000000E+00   0.00000000E+00   9.93824585E+03   8.93933693E-02   0.00000000E+00   7.67060877E+02   1.00044246E-01
   2.81750000E+03   5.00000000E-01   5.00000000E-01   9.99868400E-02   9.99981094E-02   9.99909204E-02   9.75536959E-02   9.75473554E-02   1.00521994E-01   8.57698447E+03   9.99178294E-02   9.99205708E-02   9.99987034E-02   9.39713312E-02   0.00000000E+00   0.00000000E+00   9.94432441E+03   8.93960008E-02   0.00000000E+00   7.59320850E+02   1.00043528E-01
   2.85250000E+03   5.00000000E-01   5.00000000E-01   9.99869011E-02   9.99981116E-02   9.99909206E-02   9.75537844E-02   9.75473554E-02   1.00497644E-01   8.55615383E+03   9.99274669E-02   9.99231378E-02   9.99989254E-02   9.39708506E-02   0.00000000E+00   0.00000000E+00   9.95180155E+03   8.93989715E-02   0.00000000E+00   7.51554309E+02   1.00042684E-01