 TITLE = "Mineral Area" 
VARIABLES = "X"          "Y"              "Z"            "Forsterite"     "Fayalite"       "Brucite"        "Lizardite"      "Chrysotile"     "Hematite"       "Magnetite(am)"  "Saponite(Ca)"   "Saponite(K)"    "Saponite(Mg)"   "Saponite(Na)"   "Beidellite(Ca)" "Beidellite(K)"  "Beidellite(Mg)" "Beidellite(Na)" "Enstatite(alph" "Ferrosilite(al" "Anorthite"      "Albite(low)"    "Clinochlore"    "Sudoite"        "Montmor(MgCa)"  "Montmor(MgK)"   "Montmor(MgMg)"  "Montmor(MgNa)"  "Kaolinite"      "Tremolite"      "Pargasite"      "Anhydrite"      "Epidote"        "Scolecite"      "Pyrite"         "FeS(am)"        "Quartz(alpha)"  "Titanite"       "Rutile"         "Barite"         "Fluorite"       "Spessartine(al" "Andradite"      "Celestite"      "Zincite"        "Chalcocyanite"  "Chalcocite(alp"
 ZONE I=         200 , J=           1 , K=           1  F=POINT
   8.75000000E+00   5.00000000E-01   5.00000000E-01   1.31047570E+05   4.79188525E+04   1.23004250E-03   1.11129578E-03   1.01952604E-03   6.22905163E+03   6.96657543E-06   3.86838412E-02   8.14218389E-01   4.71245361E-02   1.40839914E+05   3.65202349E-02   3.81065374E-02   3.73705283E-02   3.70630339E-02   2.00600830E+04   1.76156290E+04   1.15766970E+05   2.95626404E+04   4.19104017E+05   0.00000000E+00   8.06692040E-03   8.29741505E-03   8.25157564E-03   8.18674630E-03   3.42556308E+04   4.51026210E+04   4.61913465E+04   0.00000000E+00   2.84787926E+03   1.93714510E-05   6.93848050E-05   6.82033954E-05   2.35921247E-05   3.52255207E+01   4.24384201E+01   1.47820877E+03   3.18127363E+01   3.42299578E+02   3.85412524E+01   3.97154301E+01   5.65676194E+02   3.90435165E+01   5.60033067E+01
   2.62500000E+01   5.00000000E-01   5.00000000E-01   1.31047570E+05   4.79209389E+04   1.23004035E-03   9.94180240E-04   9.36995646E-04   6.22905159E+03   6.96723316E-06   3.95541263E-02   1.67195856E+00   5.19115519E-02   4.23374760E+05   3.65202390E-02   3.81065433E-02   3.73705473E-02   3.70630837E-02   2.00600827E+04   1.76156671E+04   1.15766970E+05   2.96065943E+04   4.13149176E+05   0.00000000E+00   8.06694355E-03   8.29747144E-03   8.25167521E-03   8.18714408E-03   3.42556330E+04   4.51236490E+04   4.61913465E+04   0.00000000E+00   2.84787926E+03   1.93714568E-05   6.93848050E-05   6.82033954E-05   2.36071093E-05   3.52255120E+01   4.24384265E+01   1.45034151E+03   3.18127352E+01   3.42299578E+02   3.85412524E+01   3.97154301E+01   5.65676221E+02   3.90435165E+01   5.60021244E+01
   4.37500000E+01   5.00000000E-01   5.00000000E-01   1.31047570E+05   4.79230176E+04   1.23003946E-03   9.33528977E-04   8.93128161E-04   6.22905159E+03   6.96766920E-06   4.01138381E-02   2.12218618E+00   5.50699945E-02   4.69412401E+05   3.65202811E-02   3.81066004E-02   3.73707429E-02   3.70635816E-02   2.00600825E+04   1.76157003E+04   1.15766970E+05   2.97253502E+04   4.06707739E+05   0.00000000E+00   8.06708641E-03   8.29780064E-03   8.25228912E-03   8.18952502E-03   3.42556443E+04   4.51384156E+04   4.61913465E+04   0.00000000E+00   2.84787926E+03   1.93714836E-05   6.93848050E-05   6.82033954E-05   2.36200701E-05   3.52255061E+01   4.24384324E+01   1.43926419E+03   3.18127343E+01   3.42299578E+02   3.85412524E+01   3.97154301E+01   5.65676222E+02   3.90435165E+01   5.60021244E+01
   6.12500000E+01   5.00000000E-01   5.00000000E-01   1.31047569E+05   4.79251843E+04   1.23003904E-03   9.02361655E-04   8.70321765E-04   6.22905159E+03   6.96804902E-06   4.05755143E-02   2.43170700E+00   5.77376011E-02   5.78176081E+05   3.65204102E-02   3.81067655E-02   3.73713408E-02   3.70650590E-02   2.00600824E+04   1.76157325E+04   1.15766970E+05   2.99023327E+04   3.96576773E+05   0.00000000E+00   8.06742910E-03   8.29854125E-03   8.25376025E-03   8.19503939E-03   3.42556663E+04   4.51506064E+04   4.61913465E+04   0.00000000E+00   2.84787926E+03   1.93715348E-05   6.93848050E-05   6.82033954E-05   2.36307711E-05   3.52255034E+01   4.24384380E+01   1.43456400E+03   3.18127334E+01   3.42299578E+02   3.85412524E+01   3.97154301E+01   5.65676242E+02   3.90435165E+01   5.60021244E+01
   7.87500000E+01   5.00000000E-01   5.00000000E-01   1.31047569E+05   4.79275950E+04   1.23003883E-03   8.86690529E-04   8.58855155E-04   6.22905158E+03   6.96843529E-06   4.10603267E-02   2.76886101E+00   6.06157635E-02   7.38267729E+05   3.65206538E-02   3.81070584E-02   3.73724676E-02   3.70677550E-02   2.00600825E+04   1.76157644E+04   1.15766970E+05   3.01045445E+04   3.84527641E+05   0.00000000E+00   8.06797190E-03   8.29963481E-03   8.25608823E-03   8.20344833E-03   3.42556970E+04   4.51662878E+04   4.61913465E+04   0.00000000E+00   2.84787926E+03   1.93716052E-05   6.93848050E-05   6.82033954E-05   2.36391500E-05   3.52255024E+01   4.24384431E+01   1.43243114E+03   3.18127326E+01   3.42299578E+02   3.85412524E+01   3.97154301E+01   5.65676278E+02   3.90435165E+01   5.60021244E+01
   9.62500000E+01   5.00000000E-01   5.00000000E-01   1.31047569E+05   4.79302952E+04   1.23003872E-03   8.78400869E-04   8.52855004E-04   6.22905158E+03   6.96884625E-06   4.15723712E-02   3.11966265E+00   6.37367627E-02   9.05135679E+05   3.65210061E-02   3.81074550E-02   3.73740947E-02   3.70715165E-02   2.00600827E+04   1.76157958E+04   1.15766970E+05   3.03021151E+04   3.72616785E+05   0.00000000E+00   8.06865240E-03   8.30090319E-03   8.25900399E-03   8.21355986E-03   3.42557334E+04   4.51863458E+04   4.61913465E+04   0.00000000E+00   2.84787926E+03   1.93716870E-05   6.93848050E-05   6.82033954E-05   2.36454296E-05   3.52255022E+01   4.24384478E+01   1.43138205E+03   3.18127318E+01   3.42299578E+02   3.85412524E+01   3.97154301E+01   5.65676326E+02   3.90435165E+01   5.60021244E+01
   1.13750000E+02   5.00000000E-01   5.00000000E-01   1.31047569E+05   4.79332678E+04   1.23003867E-03   8.73662673E-04   8.49501941E-04   6.22905157E+03   6.96928621E-06   4.20843205E-02   3.42862840E+00   6.69361941E-02   1.04816495E+06   3.65214213E-02   3.81078885E-02   3.73760089E-02   3.70757724E-02   2.00600829E+04   1.76158266E+04   1.15766970E+05   3.04730661E+04   3.62328665E+05   0.00000000E+00   8.06937131E-03   8.30212630E-03   8.26208118E-03   8.22373725E-03   3.42557703E+04   4.52094728E+04   4.61913465E+04   0.00000000E+00   2.84787926E+03   1.93717695E-05   6.93848050E-05   6.82033954E-05   2.36499896E-05   3.52255024E+01   4.24384519E+01   1.43081002E+03   3.18127311E+01   3.42299578E+02   3.85412524E+01   3.97154301E+01   5.65676382E+02   3.90435165E+01   5.60021244E+01
   1.31250000E+02   5.00000000E-01   5.00000000E-01   1.31047569E+05   4.79364799E+04   1.23003865E-03   8.70770599E-04   8.47530686E-04   6.22905156E+03   6.96975683E-06   4.25733226E-02   3.65475442E+00   7.00635965E-02   1.15649058E+06   3.65218433E-02   3.81082913E-02   3.73779504E-02   3.70798953E-02   2.00600831E+04   1.76158567E+04   1.15766970E+05   3.06079535E+04   3.54270848E+05   0.00000000E+00   8.07004542E-03   8.30315138E-03   8.26496308E-03   8.23273659E-03   3.42558033E+04   4.52340283E+04   4.61913465E+04   0.00000000E+00   2.84787926E+03   1.93718443E-05   6.93848050E-05   6.82033954E-05   2.36532283E-05   3.52255026E+01   4.24384556E+01   1.43045626E+03   3.18127305E+01   3.42299578E+02   3.85412524E+01   3.97154301E+01   5.65676445E+02   3.90435165E+01   5.60021244E+01
   1.48750000E+02   5.00000000E-01   5.00000000E-01   1.31047569E+05   4.79399023E+04   1.23003866E-03   8.68965392E-04   8.46376656E-04   6.22905156E+03   6.97025979E-06   4.30276090E-02   3.78277110E+00   7.30298382E-02   1.23120677E+06   3.65222332E-02   3.81086250E-02   3.73797403E-02   3.70834932E-02   2.00600833E+04   1.76158860E+04   1.15766970E+05   3.07074340E+04   3.48396608E+05   0.00000000E+00   8.07063278E-03   8.30392559E-03   8.26747041E-03   8.24002875E-03   3.42558304E+04   4.52587546E+04   4.61913465E+04   0.00000000E+00   2.84787926E+03   1.93719074E-05   6.93848050E-05   6.82033954E-05   2.36554878E-05   3.52255028E+01   4.24384587E+01   1.43020610E+03   3.18127299E+01   3.42299578E+02   3.85412524E+01   3.97154301E+01   5.65676514E+02   3.90435165E+01   5.60021244E+01
   1.66250000E+02   5.00000000E-01   5.00000000E-01   1.31047570E+05   4.79435112E+04   1.23003869E-03   8.67884661E-04   8.45770877E-04   6.22905155E+03   6.97079679E-06   4.34431087E-02   3.81679009E+00   7.57930782E-02   1.27829715E+06   3.65225746E-02   3.81088801E-02   3.73813034E-02   3.70864341E-02   2.00600836E+04   1.76159144E+04   1.15766970E+05   3.07770627E+04   3.44353959E+05   0.00000000E+00   8.07112554E-03   8.30446417E-03   8.26957018E-03   8.24561749E-03   3.42558512E+04   4.52828290E+04   4.61913465E+04   0.00000000E+00   2.84787926E+03   1.93719585E-05   6.93848050E-05   6.82033954E-05   2.36570330E-05   3.52255030E+01   4.24384613E+01   1.43000695E+03   3.18127294E+01   3.42299578E+02   3.85412524E+01   3.97154301E+01   5.65676587E+02   3.90435165E+01   5.60021244E+01
   1.83750000E+02   5.00000000E-01   5.00000000E-01   1.31047570E+05   4.79472853E+04   1.23003874E-03   8.67332979E-04   8.45568859E-04   6.22905154E+03   6.97136933E-06   4.38196153E-02   3.77108306E+00   7.83380617E-02   1.30464223E+06   3.65228665E-02   3.81090641E-02   3.73826360E-02   3.70887505E-02   2.00600838E+04   1.76159421E+04   1.15766970E+05   3.08235050E+04   3.41724516E+05   0.00000000E+00   8.07153410E-03   8.30481110E-03   8.27130756E-03   8.24976064E-03   3.42558665E+04   4.53057212E+04   4.61913465E+04   0.00000000E+00   2.84787926E+03   1.93719991E-05   6.93848050E-05   6.82033954E-05   2.36580570E-05   3.52255030E+01   4.24384635E+01   1.42983393E+03   3.18127289E+01   3.42299578E+02   3.85412524E+01   3.97154301E+01   5.65676664E+02   3.90435165E+01   5.60021244E+01
   2.01250000E+02   5.00000000E-01   5.00000000E-01   1.31047570E+05   4.79512044E+04   1.23003879E-03   8.67191397E-04   8.45683019E-04   6.22905154E+03   6.97197870E-06   4.41586718E-02   3.66345335E+00   8.06636482E-02   1.31627016E+06   3.65231156E-02   3.81091909E-02   3.73837695E-02   3.70905460E-02   2.00600841E+04   1.76159689E+04   1.15766970E+05   3.08527181E+04   3.40135952E+05   0.00000000E+00   8.07187511E-03   8.30501427E-03   8.27275437E-03   8.25277909E-03   3.42558773E+04   4.53270828E+04   4.61913465E+04   0.00000000E+00   2.84787926E+03   1.93720312E-05   6.93848050E-05   6.82033954E-05   2.36586969E-05   3.52255029E+01   4.24384650E+01   1.42967495E+03   3.18127284E+01   3.42299578E+02   3.85412524E+01   3.97154301E+01   5.65676745E+02   3.90435165E+01   5.60021244E+01
   2.18750000E+02   5.00000000E-01   5.00000000E-01   1.31047570E+05   4.79552488E+04   1.23003886E-03   8.67381053E-04   8.46055534E-04   6.22905153E+03   6.97262603E-06   4.44626587E-02   3.51147854E+00   8.27769298E-02   1.31786506E+06   3.65233310E-02   3.81092744E-02   3.73847459E-02   3.70919379E-02   2.00600844E+04   1.76159950E+04   1.15766970E+05   3.08693987E+04   3.39295631E+05   0.00000000E+00   8.07216510E-03   8.30511472E-03   8.27398169E-03   8.25496457E-03   3.42558847E+04   4.53466927E+04   4.61913465E+04   0.00000000E+00   2.84787926E+03   1.93720569E-05   6.93848050E-05   6.82033954E-05   2.36590491E-05   3.52255027E+01   4.24384661E+01   1.42952398E+03   3.18127280E+01   3.42299578E+02   3.85412524E+01   3.97154301E+01   5.65676828E+02   3.90435165E+01   5.60021244E+01
   2.36250000E+02   5.00000000E-01   5.00000000E-01   1.31047570E+05   4.79593995E+04   1.23003893E-03   8.67846790E-04   8.46646161E-04   6.22905153E+03   6.97331244E-06   4.47344071E-02   3.33066493E+00   8.46903834E-02   1.31283240E+06   3.65235212E-02   3.81093268E-02   3.73856053E-02   3.70930305E-02   2.00600847E+04   1.76160201E+04   1.15766970E+05   3.08770189E+04   3.38987971E+05   0.00000000E+00   8.07241789E-03   8.30514389E-03   8.27504894E-03   8.25654934E-03   3.42558896E+04   4.53644324E+04   4.61913465E+04   0.00000000E+00   2.84787927E+03   1.93720778E-05   6.93848050E-05   6.82033954E-05   2.36591812E-05   3.52255024E+01   4.24384667E+01   1.42937798E+03   3.18127275E+01   3.42299578E+02   3.85412524E+01   3.97154301E+01   5.65676914E+02   3.90435165E+01   5.60021244E+01
   2.53750000E+02   5.00000000E-01   5.00000000E-01   1.31047570E+05   4.79636396E+04   1.23003902E-03   8.68548418E-04   8.47425743E-04   6.22905152E+03   6.97403909E-06   4.49769974E-02   3.13372866E+00   8.64201156E-02   1.30354193E+06   3.65236935E-02   3.81093573E-02   3.73863811E-02   3.70939068E-02   2.00600851E+04   1.76160444E+04   1.15766970E+05   3.08780579E+04   3.39059858E+05   0.00000000E+00   8.07264406E-03   8.30512440E-03   8.27600155E-03   8.25770529E-03   3.42558927E+04   4.53802698E+04   4.61913465E+04   0.00000000E+00   2.84787927E+03   1.93720952E-05   6.93848050E-05   6.82033954E-05   2.36591414E-05   3.52255019E+01   4.24384669E+01   1.42923541E+03   3.18127272E+01   3.42299578E+02   3.85412524E+01   3.97154301E+01   5.65677002E+02   3.90435165E+01   5.60021243E+01
   2.71250000E+02   5.00000000E-01   5.00000000E-01   1.31047570E+05   4.79679536E+04   1.23003911E-03   8.69455787E-04   8.48372558E-04   6.22905151E+03   6.97480734E-06   4.51936127E-02   2.93051154E+00   8.79844738E-02   1.29158552E+06   3.65238533E-02   3.81093725E-02   3.73870986E-02   3.70946280E-02   2.00600854E+04   1.76160679E+04   1.15766970E+05   3.08742542E+04   3.39404859E+05   0.00000000E+00   8.07285125E-03   8.30507185E-03   8.27687231E-03   8.25855360E-03   3.42558945E+04   4.53942450E+04   4.61913465E+04   0.00000000E+00   2.84787927E+03   1.93721101E-05   6.93848050E-05   6.82033954E-05   2.36589647E-05   3.52255012E+01   4.24384665E+01   1.42909547E+03   3.18127268E+01   3.42299578E+02   3.85412524E+01   3.97154301E+01   5.65677092E+02   3.90435165E+01   5.60021243E+01
   2.88750000E+02   5.00000000E-01   5.00000000E-01   1.31047570E+05   4.79723283E+04   1.23003920E-03   8.70546284E-04   8.49470489E-04   6.22905150E+03   6.97561876E-06   4.53874162E-02   2.72823247E+00   8.94028338E-02   1.27799461E+06   3.65240047E-02   3.81093769E-02   3.73877759E-02   3.70952371E-02   2.00600858E+04   1.76160905E+04   1.15766970E+05   3.08668163E+04   3.39949962E+05   0.00000000E+00   8.07304469E-03   8.30499667E-03   8.27768363E-03   8.25917655E-03   3.42558954E+04   4.54064557E+04   4.61913465E+04   0.00000000E+00   2.84787927E+03   1.93721231E-05   6.93848050E-05   6.82033954E-05   2.36586773E-05   3.52255005E+01   4.24384657E+01   1.42895780E+03   3.18127265E+01   3.42299578E+02   3.85412524E+01   3.97154301E+01   5.65677184E+02   3.90435165E+01   5.60021243E+01
   3.06250000E+02   5.00000000E-01   5.00000000E-01   1.31047570E+05   4.79767528E+04   1.23003931E-03   8.71803914E-04   8.50708420E-04   6.22905149E+03   6.97647526E-06   4.55614470E-02   2.53189059E+00   9.06945599E-02   1.26340799E+06   3.65241501E-02   3.81093737E-02   3.73884251E-02   3.70957624E-02   2.00600861E+04   1.76161123E+04   1.15766970E+05   3.08565842E+04   3.40645471E+05   0.00000000E+00   8.07322777E-03   8.30490563E-03   8.27844999E-03   8.25962794E-03   3.42558956E+04   4.54170414E+04   4.61913465E+04   0.00000000E+00   2.84787927E+03   1.93721346E-05   6.93848050E-05   6.82033954E-05   2.36582990E-05   3.52254996E+01   4.24384646E+01   1.42882223E+03   3.18127262E+01   3.42299578E+02   3.85412524E+01   3.97154301E+01   5.65677278E+02   3.90435165E+01   5.60021243E+01
   3.23750000E+02   5.00000000E-01   5.00000000E-01   1.31047570E+05   4.79812179E+04   1.23003942E-03   8.73219258E-04   8.52080307E-04   6.22905149E+03   6.97737906E-06   4.57185385E-02   2.34470972E+00   9.18781682E-02   1.24819677E+06   3.65242912E-02   3.81093646E-02   3.73890532E-02   3.70962213E-02   2.00600865E+04   1.76161333E+04   1.15766970E+05   3.08441448E+04   3.41457651E+05   0.00000000E+00   8.07340249E-03   8.30480304E-03   8.27917999E-03   8.25994155E-03   3.42558952E+04   4.54261685E+04   4.61913465E+04   0.00000000E+00   2.84787927E+03   1.93721451E-05   6.93848050E-05   6.82033954E-05   2.36578454E-05   3.52254986E+01   4.24384630E+01   1.42868873E+03   3.18127259E+01   3.42299578E+02   3.85412524E+01   3.97154301E+01   5.65677373E+02   3.90435165E+01   5.60021243E+01
   3.41250000E+02   5.00000000E-01   5.00000000E-01   1.31047570E+05   4.79857164E+04   1.23003954E-03   8.74789586E-04   8.53585373E-04   6.22905148E+03   6.97833275E-06   4.58612618E-02   2.16856153E+00   9.29707242E-02   1.23255682E+06   3.65244286E-02   3.81093507E-02   3.73896635E-02   3.70966233E-02   2.00600869E+04   1.76161535E+04   1.15766970E+05   3.08299144E+04   3.42363459E+05   0.00000000E+00   8.07356987E-03   8.30469155E-03   8.27987802E-03   8.26013763E-03   3.42558944E+04   4.54340157E+04   4.61913465E+04   0.00000000E+00   2.84787927E+03   1.93721546E-05   6.93848050E-05   6.82033954E-05   2.36573292E-05   3.52254975E+01   4.24384610E+01   1.42855731E+03   3.18127257E+01   3.42299578E+02   3.85412524E+01   3.97154301E+01   5.65677471E+02   3.90435165E+01   5.60021243E+01
   3.58750000E+02   5.00000000E-01   5.00000000E-01   1.31047570E+05   4.79902426E+04   1.23003966E-03   8.76518656E-04   8.55228058E-04   6.22905147E+03   6.97933924E-06   4.59918978E-02   2.00433613E+00   9.39874920E-02   1.21657718E+06   3.65245625E-02   3.81093328E-02   3.73902567E-02   3.70969728E-02   2.00600873E+04   1.76161730E+04   1.15766970E+05   3.08141974E+04   3.43346773E+05   0.00000000E+00   8.07373031E-03   8.30457282E-03   8.28054572E-03   8.26022780E-03   3.42558932E+04   4.54407619E+04   4.61913465E+04   0.00000000E+00   2.84787927E+03   1.93721632E-05   6.93848050E-05   6.82033954E-05   2.36567607E-05   3.52254962E+01   4.24384587E+01   1.42842802E+03   3.18127254E+01   3.42299578E+02   3.85412524E+01   3.97154301E+01   5.65677570E+02   3.90435165E+01   5.60021243E+01
   3.76250000E+02   5.00000000E-01   5.00000000E-01   1.31047571E+05   4.79947921E+04   1.23003979E-03   8.78416082E-04   8.57017590E-04   6.22905146E+03   6.98040176E-06   4.61124357E-02   1.85224679E+00   9.49418281E-02   1.20028964E+06   3.65246927E-02   3.81093110E-02   3.73908320E-02   3.70972713E-02   2.00600877E+04   1.76161918E+04   1.15766970E+05   3.07972268E+04   3.44395726E+05   0.00000000E+00   8.07388380E-03   8.30444791E-03   8.28118309E-03   8.26021878E-03   3.42558917E+04   4.54465762E+04   4.61913465E+04   0.00000000E+00   2.84787927E+03   1.93721709E-05   6.93848050E-05   6.82033954E-05   2.36561485E-05   3.52254950E+01   4.24384561E+01   1.42830093E+03   3.18127252E+01   3.42299578E+02   3.85412524E+01   3.97154301E+01   5.65677671E+02   3.90435165E+01   5.60021243E+01
   3.93750000E+02   5.00000000E-01   5.00000000E-01   1.31047571E+05   4.79993618E+04   1.23003993E-03   8.80496417E-04   8.58967339E-04   6.22905145E+03   6.98152381E-06   4.62245926E-02   1.71206614E+00   9.58452755E-02   1.18370181E+06   3.65248188E-02   3.81092856E-02   3.73913876E-02   3.70975186E-02   2.00600881E+04   1.76162099E+04   1.15766970E+05   3.07791923E+04   3.45500902E+05   0.00000000E+00   8.07403014E-03   8.30431762E-03   8.28178934E-03   8.26011503E-03   3.42558898E+04   4.54516111E+04   4.61913465E+04   0.00000000E+00   2.84787927E+03   1.93721778E-05   6.93848050E-05   6.82033954E-05   2.36554999E-05   3.52254936E+01   4.24384532E+01   1.42817612E+03   3.18127250E+01   3.42299578E+02   3.85412524E+01   3.97154301E+01   5.65677774E+02   3.90435165E+01   5.60021243E+01
   4.11250000E+02   5.00000000E-01   5.00000000E-01   1.31047571E+05   4.80039491E+04   1.23004008E-03   8.82778213E-04   8.61094103E-04   6.22905143E+03   6.98270916E-06   4.63298457E-02   1.58329746E+00   9.67077686E-02   1.16681470E+06   3.65249404E-02   3.81092568E-02   3.73919217E-02   3.70977147E-02   2.00600886E+04   1.76162273E+04   1.15766970E+05   3.07602575E+04   3.46654256E+05   0.00000000E+00   8.07416913E-03   8.30418263E-03   8.28236352E-03   8.25992041E-03   3.42558876E+04   4.54560000E+04   4.61913465E+04   0.00000000E+00   2.84787927E+03   1.93721839E-05   6.93848050E-05   6.82033954E-05   2.36548211E-05   3.52254922E+01   4.24384500E+01   1.42805366E+03   3.18127248E+01   3.42299578E+02   3.85412524E+01   3.97154301E+01   5.65677879E+02   3.90435165E+01   5.60021243E+01
   4.28750000E+02   5.00000000E-01   5.00000000E-01   1.31047571E+05   4.80085518E+04   1.23004023E-03   8.85283231E-04   8.63417522E-04   6.22905142E+03   6.98396180E-06   4.64294627E-02   1.46529020E+00   9.75378373E-02   1.14962770E+06   3.65250571E-02   3.81092247E-02   3.73924324E-02   3.70978595E-02   2.00600890E+04   1.76162442E+04   1.15766970E+05   3.07405689E+04   3.47848598E+05   0.00000000E+00   8.07430055E-03   8.30404358E-03   8.28290484E-03   8.25963890E-03   3.42558850E+04   4.54598585E+04   4.61913465E+04   7.70230833E-23   2.84787928E+03   1.93721891E-05   6.93848050E-05   6.82033954E-05   2.36541173E-05   3.52254907E+01   4.24384465E+01   1.42793363E+03   3.18127246E+01   3.42299578E+02   3.85412524E+01   3.97154301E+01   5.65677986E+02   3.90435165E+01   5.60021243E+01
   4.46250000E+02   5.00000000E-01   5.00000000E-01   1.31047572E+05   4.80131679E+04   1.23004040E-03   8.88035882E-04   8.65959656E-04   6.22905141E+03   6.98528597E-06   4.65245213E-02   1.35731300E+00   9.83427220E-02   1.13213559E+06   3.65251685E-02   3.81091896E-02   3.73929182E-02   3.70979533E-02   2.00600895E+04   1.76162605E+04   1.15766970E+05   3.07202593E+04   3.49077472E+05   0.00000000E+00   8.07442428E-03   8.30390112E-03   8.28341268E-03   8.25927472E-03   3.42558822E+04   4.54632871E+04   4.61913465E+04   0.00000000E+00   2.84787928E+03   1.93721936E-05   6.93848050E-05   6.82033954E-05   2.36533929E-05   3.52254891E+01   4.24384429E+01   1.42781612E+03   3.18127245E+01   3.42299578E+02   3.85412524E+01   3.97154301E+01   5.65678095E+02   3.90435165E+01   5.60021243E+01
   4.63750000E+02   5.00000000E-01   5.00000000E-01   1.31047572E+05   4.80177952E+04   1.23004057E-03   8.91062909E-04   8.68744753E-04   6.22905139E+03   6.98668620E-06   4.66159157E-02   1.25859870E+00   9.91283744E-02   1.11432404E+06   3.65252743E-02   3.81091515E-02   3.73933774E-02   3.70979965E-02   2.00600900E+04   1.76162762E+04   1.15766970E+05   3.06994486E+04   3.50335184E+05   0.00000000E+00   8.07454017E-03   8.30375582E-03   8.28388653E-03   8.25883214E-03   3.42558792E+04   4.54663745E+04   4.61913465E+04   5.61291052E-09   2.84787928E+03   1.93721972E-05   6.93848050E-05   6.82033954E-05   2.36526516E-05   3.52254876E+01   4.24384390E+01   1.42770118E+03   3.18127243E+01   3.42299578E+02   3.85412524E+01   3.97154301E+01   5.65678207E+02   3.90435165E+01   5.60021243E+01
   4.81250000E+02   5.00000000E-01   5.00000000E-01   1.31047572E+05   4.80224309E+04   1.23004076E-03   8.94393323E-04   8.71799224E-04   6.22905138E+03   6.98816727E-06   4.67043538E-02   1.16837411E+00   9.98993891E-02   1.09616833E+06   3.65253740E-02   3.81091107E-02   3.73938083E-02   3.70979894E-02   2.00600905E+04   1.76162914E+04   1.15766970E+05   3.06782438E+04   3.51616809E+05   0.00000000E+00   8.07464812E-03   8.30360824E-03   8.28432591E-03   8.25831522E-03   3.42558759E+04   4.54691991E+04   4.61913465E+04   3.50118360E-08   2.84787928E+03   1.93722001E-05   6.93848050E-05   6.82033954E-05   2.36518967E-05   3.52254860E+01   4.24384350E+01   1.42758890E+03   3.18127242E+01   3.42299578E+02   3.85412524E+01   3.97154301E+01   5.65678321E+02   3.90435165E+01   5.60021243E+01
   4.98750000E+02   5.00000000E-01   5.00000000E-01   1.31047573E+05   4.80270721E+04   1.23004095E-03   8.98058601E-04   8.75151832E-04   6.22905136E+03   6.98973431E-06   4.67903569E-02   1.08588257E+00   1.00658956E-01   1.07763730E+06   3.65254674E-02   3.81090674E-02   3.73942092E-02   3.70979323E-02   2.00600910E+04   1.76163060E+04   1.15766970E+05   3.06567400E+04   3.52918078E+05   0.00000000E+00   8.07474801E-03   8.30345885E-03   8.28473038E-03   8.25772789E-03   3.42558723E+04   4.54718282E+04   4.61913465E+04   7.95539171E-08   2.84787928E+03   1.93722021E-05   6.93848050E-05   6.82033954E-05   2.36511312E-05   3.52254843E+01   4.24384308E+01   1.42747933E+03   3.18127241E+01   3.42299578E+02   3.85412524E+01   3.97154301E+01   5.65678437E+02   3.90435165E+01   5.60021243E+01
   5.16250000E+02   5.00000000E-01   5.00000000E-01   1.31047573E+05   4.80317152E+04   1.23004116E-03   9.02093161E-04   8.78834118E-04   6.22905135E+03   6.99139282E-06   4.68742705E-02   1.01040310E+00   1.01408925E-01   1.05870119E+06   3.65255539E-02   3.81090216E-02   3.73945786E-02   3.70978255E-02   2.00600916E+04   1.76163202E+04   1.15766970E+05   3.06350236E+04   3.54235149E+05   0.00000000E+00   8.07483975E-03   8.30330814E-03   8.28509961E-03   8.25707413E-03   3.42558685E+04   4.54743157E+04   4.61913465E+04   1.46152728E-07   2.84787928E+03   1.93722034E-05   6.93848050E-05   6.82033954E-05   2.36503573E-05   3.52254827E+01   4.24384264E+01   1.42737255E+03   3.18127240E+01   3.42299578E+02   3.85412524E+01   3.97154301E+01   5.65678556E+02   3.90435165E+01   5.60021243E+01
   5.33750000E+02   5.00000000E-01   5.00000000E-01   1.31047573E+05   4.80363564E+04   1.23004137E-03   9.06535106E-04   8.82881057E-04   6.22905133E+03   6.99314865E-06   4.69562929E-02   9.41265826E-01   1.02150023E-01   1.03933984E+06   3.65256334E-02   3.81089737E-02   3.73949151E-02   3.70976702E-02   2.00600921E+04   1.76163339E+04   1.15766970E+05   3.06131750E+04   3.55564339E+05   0.00000000E+00   8.07492336E-03   8.30315657E-03   8.28543364E-03   8.25635842E-03   3.42558645E+04   4.54766993E+04   4.61913465E+04   2.44891588E-07   2.84787929E+03   1.93722039E-05   6.93848050E-05   6.82033954E-05   2.36495775E-05   3.52254810E+01   4.24384219E+01   1.42726861E+03   3.18127239E+01   3.42299578E+02   3.85412524E+01   3.97154301E+01   5.65678678E+02   3.90435165E+01   5.60021243E+01
   5.51250000E+02   5.00000000E-01   5.00000000E-01   1.31047574E+05   4.80409919E+04   1.23004160E-03   9.11427197E-04   8.87331916E-04   6.22905131E+03   6.99500815E-06   4.70365177E-02   8.77862188E-01   1.02882204E-01   1.01954756E+06   3.65257056E-02   3.81089237E-02   3.73952181E-02   3.70974682E-02   2.00600927E+04   1.76163471E+04   1.15766970E+05   3.05912713E+04   3.56901939E+05   0.00000000E+00   8.07499894E-03   8.30300465E-03   8.28573302E-03   8.25558602E-03   3.42558603E+04   4.54789996E+04   4.61913465E+04   3.90530108E-07   2.84787929E+03   1.93722037E-05   6.93848050E-05   6.82033954E-05   2.36487934E-05   3.52254793E+01   4.24384174E+01   1.42716757E+03   3.18127238E+01   3.42299578E+02   3.85412524E+01   3.97154301E+01   5.65678803E+02   3.90435165E+01   5.60021243E+01
   5.68750000E+02   5.00000000E-01   5.00000000E-01   1.31047575E+05   4.80456175E+04   1.23004185E-03   9.16817982E-04   8.92231264E-04   6.22905129E+03   6.99697812E-06   4.71149797E-02   8.19648355E-01   1.03605031E-01   9.99332393E+05   3.65257706E-02   3.81088721E-02   3.73954880E-02   3.70972225E-02   2.00600933E+04   1.76163599E+04   1.15766970E+05   3.05693874E+04   3.58244164E+05   0.00000000E+00   8.07506676E-03   8.30285294E-03   8.28599890E-03   8.25476303E-03   3.42558559E+04   4.54812216E+04   4.61913465E+04   6.04760543E-07   2.84787929E+03   1.93722027E-05   6.93848050E-05   6.82033954E-05   2.36480068E-05   3.52254776E+01   4.24384127E+01   1.42706948E+03   3.18127237E+01   3.42299578E+02   3.85412524E+01   3.97154301E+01   5.65678930E+02   3.90435165E+01   5.60021243E+01
   5.86250000E+02   5.00000000E-01   5.00000000E-01   1.31047575E+05   4.80502288E+04   1.23004210E-03   9.22762994E-04   8.97630051E-04   6.22905127E+03   6.99906591E-06   4.71916924E-02   7.66142016E-01   1.04317972E-01   9.78710028E+05   3.65258286E-02   3.81088191E-02   3.73957254E-02   3.70969364E-02   2.00600939E+04   1.76163722E+04   1.15766971E+05   3.05475953E+04   3.59587263E+05   0.00000000E+00   8.07512721E-03   8.30270199E-03   8.28623295E-03   8.25389619E-03   3.42558514E+04   4.54833596E+04   4.61913465E+04   9.19605882E-07   2.84787929E+03   1.93722011E-05   6.93848050E-05   6.82033954E-05   2.36472191E-05   3.52254760E+01   4.24384080E+01   1.42697440E+03   3.18127236E+01   3.42299578E+02   3.85412524E+01   3.97154301E+01   5.65679060E+02   3.90435165E+01   5.60021243E+01
   6.03750000E+02   5.00000000E-01   5.00000000E-01   1.31047576E+05   4.80548212E+04   1.23004238E-03   9.29326000E-04   9.03586745E-04   6.22905125E+03   7.00127945E-06   4.72666643E-02   7.16914317E-01   1.05020523E-01   9.57695070E+05   3.65258799E-02   3.81087651E-02   3.73959317E-02   3.70966141E-02   2.00600946E+04   1.76163841E+04   1.15766971E+05   3.05259625E+04   3.60927734E+05   0.00000000E+00   8.07518075E-03   8.30255234E-03   8.28643719E-03   8.25299238E-03   3.42558467E+04   4.54854022E+04   4.61913465E+04   1.38256676E-06   2.84787929E+03   1.93721989E-05   6.93848050E-05   6.82033954E-05   2.36464316E-05   3.52254743E+01   4.24384032E+01   1.42688236E+03   3.18127235E+01   3.42299578E+02   3.85412524E+01   3.97154301E+01   5.65679194E+02   3.90435165E+01   5.60021243E+01
   6.21250000E+02   5.00000000E-01   5.00000000E-01   1.31047577E+05   4.80593891E+04   1.23004266E-03   9.36580298E-04   9.10168528E-04   6.22905123E+03   7.00362735E-06   4.73398931E-02   6.71579881E-01   1.05712122E-01   9.36293365E+05   3.65259246E-02   3.81087104E-02   3.73961080E-02   3.70962590E-02   2.00600952E+04   1.76163955E+04   1.15766971E+05   3.05045494E+04   3.62262535E+05   0.00000000E+00   8.07522786E-03   8.30240447E-03   8.28661367E-03   8.25205811E-03   3.42558420E+04   4.54873384E+04   4.61913465E+04   2.06446340E-06   2.84787930E+03   1.93721961E-05   6.93848050E-05   6.82033954E-05   2.36456453E-05   3.52254726E+01   4.24383984E+01   1.42679342E+03   3.18127235E+01   3.42299578E+02   3.85412524E+01   3.97154301E+01   5.65679330E+02   3.90435165E+01   5.60021243E+01