 TITLE = "Mineral Area" 
VARIABLES = "X"          "Y"              "Z"            "Forsterite"     "Fayalite"       "Brucite"        "Lizardite"      "Chrysotile"     "Saponite(Mg)"   "Enstatite(alph" "Ferrosilite(al" "Anorthite"      "Albite(low)"    "Clinochlore"    "Sudoite"        "Montmorillonit" "Kaolinite"      "Tremolite"      "Pargasite"      "Anhydrite"      "Epidote"        "Scolecite"      "Pyrite"         "FeS(am)"        "Quartz(alpha)" 
 ZONE I=         100 , J=           1 , K=           1  F=POINT
   1.75000000E+01   5.00000000E-01   5.00000000E-01   1.10388925E+05   4.53671427E+04   3.98604667E-04   2.15393643E-06   1.89859181E-06   0.00000000E+00   2.00601995E+04   1.76160777E+04   6.49773031E+04   3.20438076E+04   1.46171655E+06   3.09109397E-02   2.19849245E-03   3.49025904E-01   4.55541064E+04   4.66298945E+04   2.39967667E-04   3.47617424E+02   2.24490508E+02   3.90287961E-05   4.47504583E-05   2.36291307E-05
   5.25000000E+01   5.00000000E-01   5.00000000E-01   1.10388926E+05   4.63226458E+04   3.98604853E-04   2.52693382E-06   2.15535481E-06   0.00000000E+00   2.00602008E+04   1.76164982E+04   6.49773032E+04   3.46118603E+04   1.33556939E+06   8.92918623E-03   9.33621496E-02   3.39306694E-01   4.57657149E+04   4.66298945E+04   2.43603132E-04   3.47617440E+02   2.24490750E+02   3.90287961E-05   4.47540143E-05   2.36524346E-05
   8.75000000E+01   5.00000000E-01   5.00000000E-01   1.10388926E+05   4.69710049E+04   3.98605060E-04   2.54162991E-06   2.17514160E-06   0.00000000E+00   2.00602014E+04   1.76167034E+04   6.49773033E+04   3.59977902E+04   1.26750237E+06   8.53534847E-03   5.00469422E+00   3.48967711E-01   4.59550433E+04   4.66298945E+04   2.47676558E-04   3.47617439E+02   2.24491102E+02   3.90287961E-05   4.47557322E-05   2.36587538E-05
   1.22500000E+02   5.00000000E-01   5.00000000E-01   1.10388926E+05   4.73004038E+04   3.98605263E-04   2.35950750E-06   2.06112530E-06   0.00000000E+00   2.00602017E+04   1.76167786E+04   6.49773034E+04   3.66400057E+04   1.23591512E+06   1.10262629E-02   1.52253673E+02   3.65643719E-01   4.59695810E+04   4.66298945E+04   2.52267325E-04   3.47617439E+02   2.24491529E+02   3.90287961E-05   4.47564959E-05   2.36583274E-05
   1.57500000E+02   5.00000000E-01   5.00000000E-01   1.10388927E+05   4.74748398E+04   3.98605482E-04   2.15870808E-06   1.92854447E-06   0.00000000E+00   2.00602019E+04   1.76168016E+04   6.49773036E+04   3.68810767E+04   1.22333789E+06   1.64591348E-02   2.47035257E+03   3.87315403E-01   4.58745268E+04   4.66298945E+04   2.57464975E-04   3.47617438E+02   2.24492022E+02   3.90287961E-05   4.47567629E-05   2.36557850E-05
   1.92500000E+02   5.00000000E-01   5.00000000E-01   1.10388927E+05   4.75868940E+04   3.98605741E-04   2.01464562E-06   1.83110705E-06   0.00000000E+00   2.00602021E+04   1.76168055E+04   6.49773039E+04   3.68689710E+04   1.21735216E+06   2.70410618E-02   2.31467411E+04   4.13212752E-01   4.57772557E+04   4.66298945E+04   2.63366920E-04   3.47617438E+02   2.24492577E+02   3.90287961E-05   4.47567390E-05   2.36526482E-05
   2.27500000E+02   5.00000000E-01   5.00000000E-01   1.10388928E+05   4.76826431E+04   3.98606080E-04   1.95837706E-06   1.79492423E-06   0.00000000E+00   2.00602024E+04   1.76168031E+04   6.49773043E+04   3.65585278E+04   1.21126871E+06   4.65669282E-02   9.01698260E+04   4.42482199E-01   4.57547681E+04   4.66298945E+04   2.70081228E-04   3.47617438E+02   2.24493189E+02   3.90287961E-05   4.47565274E-05   2.36492460E-05
   2.62500000E+02   5.00000000E-01   5.00000000E-01   1.10388928E+05   4.77637282E+04   3.98606479E-04   1.94077415E-06   1.78654678E-06   0.00000000E+00   2.00602028E+04   1.76167958E+04   6.49773048E+04   3.60882323E+04   1.20607208E+06   8.05477121E-02   1.79074728E+05   4.74372371E-01   4.57666900E+04   4.66298945E+04   2.77738559E-04   3.47617438E+02   2.24493854E+02   3.90287961E-05   4.47561792E-05   2.36458415E-05
   2.97500000E+02   5.00000000E-01   5.00000000E-01   1.10388929E+05   4.78311851E+04   3.98606919E-04   1.93446456E-06   1.78637314E-06   0.00000000E+00   2.00602032E+04   1.76167846E+04   6.49773056E+04   3.55927580E+04   1.20204408E+06   1.36775744E-01   2.68192942E+05   5.08225369E-01   4.57877543E+04   4.66298945E+04   2.86496362E-04   3.47617438E+02   2.24494572E+02   3.90287961E-05   4.47557325E-05   2.36425625E-05
   3.32500000E+02   5.00000000E-01   5.00000000E-01   1.10388930E+05   4.78907118E+04   3.98607393E-04   1.93351439E-06   1.79015363E-06   0.00000000E+00   2.00602036E+04   1.76167711E+04   6.49773067E+04   3.51132274E+04   1.19858268E+06   2.26147443E-01   3.53070023E+05   5.43245965E-01   4.58136231E+04   4.66298945E+04   2.96543572E-04   3.47617438E+02   2.24495340E+02   3.90287961E-05   4.47552178E-05   2.36394270E-05
   3.67500000E+02   5.00000000E-01   5.00000000E-01   1.10388931E+05   4.79457449E+04   3.98607900E-04   1.93603813E-06   1.79656088E-06   0.00000000E+00   2.00602041E+04   1.76167563E+04   6.49773081E+04   3.46603417E+04   1.19535633E+06   3.63368921E-01   4.33096351E+05   5.78608992E-01   4.58428961E+04   4.66298945E+04   3.08108138E-04   3.47617438E+02   2.24496154E+02   3.90287961E-05   4.47546578E-05   2.36364176E-05
   4.02500000E+02   5.00000000E-01   5.00000000E-01   1.10388933E+05   4.79978348E+04   3.98608440E-04   1.94025314E-06   1.80428496E-06   0.00000000E+00   2.00602045E+04   1.76167407E+04   6.49773100E+04   3.42360746E+04   1.19223923E+06   5.66635558E-01   5.08362404E+05   6.13970056E-01   4.58744782E+04   4.66298945E+04   3.21467081E-04   3.47617438E+02   2.24497014E+02   3.90287961E-05   4.47540695E-05   2.36335133E-05
   4.37500000E+02   5.00000000E-01   5.00000000E-01   1.10388935E+05   4.80476070E+04   3.98609012E-04   1.94393669E-06   1.81161386E-06   0.00000000E+00   2.00602050E+04   1.76167246E+04   6.49773126E+04   3.38398019E+04   1.18919824E+06   8.57414417E-01   5.79068581E+05   6.49461439E-01   4.59072862E+04   4.66298945E+04   3.36959711E-04   3.47617438E+02   2.24497924E+02   3.90287961E-05   4.47534669E-05   2.36306988E-05
   4.72500000E+02   5.00000000E-01   5.00000000E-01   1.10388937E+05   4.80953298E+04   3.98609618E-04   1.94593479E-06   1.81761814E-06   0.00000000E+00   2.00602055E+04   1.76167082E+04   6.49773159E+04   3.34702046E+04   1.18623208E+06   1.25939905E+00   6.45422233E+05   6.85212418E-01   4.59402702E+04   4.66298945E+04   3.55005099E-04   3.47617438E+02   2.24498887E+02   3.90287961E-05   4.47528612E-05   2.36279653E-05
   5.07500000E+02   5.00000000E-01   5.00000000E-01   1.10388939E+05   4.81411788E+04   3.98610258E-04   1.94628079E-06   1.82228663E-06   0.00000000E+00   2.00602059E+04   1.76166916E+04   6.49773203E+04   3.31259008E+04   1.18334214E+06   1.80110121E+00   7.07632065E+05   7.21225966E-01   4.59724681E+04   4.66298945E+04   3.76125362E-04   3.47617438E+02   2.24499909E+02   3.90287961E-05   4.47522617E-05   2.36253094E-05
   5.42500000E+02   5.00000000E-01   5.00000000E-01   1.10388942E+05   4.81853667E+04   3.98610935E-04   1.94551313E-06   1.82601862E-06   0.00000000E+00   2.00602064E+04   1.76166751E+04   6.49773261E+04   3.28056144E+04   1.18051857E+06   2.51813476E+00   7.65925663E+05   7.57153811E-01   4.60030343E+04   4.66298945E+04   4.00977001E-04   3.47617438E+02   2.24500993E+02   3.90287961E-05   4.47516759E-05   2.36227298E-05
   5.77500000E+02   5.00000000E-01   5.00000000E-01   1.10388945E+05   4.82281268E+04   3.98611650E-04   1.94438927E-06   1.82940918E-06   0.00000000E+00   2.00602069E+04   1.76166587E+04   6.49773336E+04   3.25081472E+04   1.17774390E+06   3.45273793E+00   8.20542614E+05   7.92246220E-01   4.60312576E+04   4.66298945E+04   4.30393510E-04   3.47617438E+02   2.24502141E+02   3.90287961E-05   4.47511094E-05   2.36202272E-05
   6.12500000E+02   5.00000000E-01   5.00000000E-01   1.10388948E+05   4.82695930E+04   3.98612405E-04   1.94385091E-06   1.83322873E-06   0.00000000E+00   2.00602073E+04   1.76166425E+04   6.49773434E+04   3.22323146E+04   1.17500483E+06   4.65380174E+00   8.71707071E+05   8.25887713E-01   4.60565758E+04   4.66298945E+04   4.65443873E-04   3.47617438E+02   2.24503358E+02   3.90287961E-05   4.47505666E-05   2.36178026E-05
   6.47500000E+02   5.00000000E-01   5.00000000E-01   1.10388953E+05   4.83097353E+04   3.98613203E-04   1.94507208E-06   1.83846956E-06   0.00000000E+00   2.00602078E+04   1.76166265E+04   6.49773560E+04   3.19768983E+04   1.17229819E+06   6.17188693E+00   9.19616672E+05   8.58201515E-01   4.60785924E+04   4.66298945E+04   5.07513821E-04   3.47617438E+02   2.24504656E+02   3.90287961E-05   4.47500506E-05   2.36154579E-05
   6.82500000E+02   5.00000000E-01   5.00000000E-01   1.10388957E+05   4.83484664E+04   3.98614048E-04   1.94952228E-06   1.84640637E-06   0.00000000E+00   2.00602082E+04   1.76166107E+04   6.49773723E+04   3.17407071E+04   1.16962256E+06   8.06012781E+00   9.64459252E+05   8.89836285E-01   4.60970820E+04   4.66298945E+04   5.58420188E-04   3.47617438E+02   2.24506052E+02   3.90287961E-05   4.47495633E-05   2.36131952E-05
   7.17500000E+02   5.00000000E-01   5.00000000E-01   1.10388963E+05   4.83858273E+04   3.98614944E-04   1.95903790E-06   1.85866554E-06   0.00000000E+00   2.00602087E+04   1.76165952E+04   6.49773935E+04   3.15227039E+04   1.16696105E+06   1.03893698E+01   1.00644744E+06   9.21249585E-01   4.61119598E+04   4.66298945E+04   6.20574137E-04   3.47617438E+02   2.24507565E+02   3.90287961E-05   4.47491062E-05   2.36110159E-05
   7.52500000E+02   5.00000000E-01   5.00000000E-01   1.10388969E+05   4.84219477E+04   3.98615896E-04   1.97598491E-06   1.87737375E-06   0.00000000E+00   2.00602091E+04   1.76165799E+04   6.49774209E+04   3.13219692E+04   1.16428861E+06   1.32430545E+01   1.04580112E+06   9.52597048E-01   4.61232614E+04   4.66298945E+04   6.97217279E-04   3.47617438E+02   2.24509218E+02   3.90287961E-05   4.47486798E-05   2.36089200E-05
   7.87500000E+02   5.00000000E-01   5.00000000E-01   1.10388977E+05   4.84569925E+04   3.98616911E-04   2.00350065E-06   1.90537917E-06   0.00000000E+00   2.00602095E+04   1.76165650E+04   6.49774565E+04   3.11376949E+04   1.16157836E+06   1.67285224E+01   1.08272866E+06   9.83930858E-01   4.61311075E+04   4.66298945E+04   7.92768325E-04   3.47617438E+02   2.24511037E+02   3.90287961E-05   4.47482839E-05   2.36069068E-05
   8.22500000E+02   5.00000000E-01   5.00000000E-01   1.10388986E+05   4.84911452E+04   3.98617996E-04   2.04589231E-06   1.94661437E-06   0.00000000E+00   2.00602099E+04   1.76165504E+04   6.49775029E+04   3.09691854E+04   1.15880441E+06   2.09768228E+01   1.11741769E+06   1.01520794E+00   4.61356783E+04   4.66298945E+04   9.13340230E-04   3.47617437E+02   2.24513057E+02   3.90287961E-05   4.47479181E-05   2.36049743E-05
   8.57500000E+02   5.00000000E-01   5.00000000E-01   1.10388996E+05   4.85246210E+04   3.98619164E-04   2.10926331E-06   2.00666728E-06   0.00000000E+00   2.00602102E+04   1.76165360E+04   6.49775634E+04   3.08158941E+04   1.15594097E+06   2.61595516E+01   1.15003221E+06   1.04627215E+00   4.61371814E+04   4.66298945E+04   1.06752492E-03   3.47617437E+02   2.24515321E+02   3.90287961E-05   4.47475813E-05   2.36031201E-05
   8.92500000E+02   5.00000000E-01   5.00000000E-01   1.10389010E+05   4.85576479E+04   3.98620427E-04   2.20254853E-06   2.09372353E-06   0.00000000E+00   2.00602106E+04   1.76165219E+04   6.49776428E+04   3.06774512E+04   1.15296413E+06   3.24908651E+01   1.18070265E+06   1.07680672E+00   4.61358366E+04   4.66298945E+04   1.26760569E-03   3.47617437E+02   2.24517884E+02   3.90287961E-05   4.47472722E-05   2.36013408E-05
   9.27500000E+02   5.00000000E-01   5.00000000E-01   1.10389026E+05   4.85904615E+04   3.98621804E-04   2.33922116E-06   2.22011970E-06   0.00000000E+00   2.00602110E+04   1.76165081E+04   6.49777477E+04   3.05537255E+04   1.14985101E+06   4.02606656E+01   1.20951876E+06   1.10637281E+00   4.61318477E+04   4.66298945E+04   1.53146702E-03   3.47617437E+02   2.24520823E+02   3.90287961E-05   4.47469894E-05   2.35996326E-05
   9.62500000E+02   5.00000000E-01   5.00000000E-01   1.10389047E+05   4.86232992E+04   3.98623318E-04   2.54020935E-06   2.40499429E-06   0.00000000E+00   2.00602113E+04   1.76164946E+04   6.49778873E+04   3.04448956E+04   1.14657811E+06   4.98553341E+01   1.23652358E+06   1.13449116E+00   4.61253897E+04   4.66298945E+04   1.88566578E-03   3.47617436E+02   2.24524246E+02   3.90287961E-05   4.47467312E-05   2.35979916E-05
   9.97500000E+02   5.00000000E-01   5.00000000E-01   1.10389075E+05   4.86563751E+04   3.98624998E-04   2.83897131E-06   2.67889769E-06   0.00000000E+00   2.00602116E+04   1.76164812E+04   6.49780756E+04   3.03515487E+04   1.14311981E+06   6.17566103E+01   1.26170280E+06   1.16079670E+00   4.61166201E+04   4.66298945E+04   2.37048046E-03   3.47617435E+02   2.24528312E+02   3.90287961E-05   4.47464958E-05   2.35964133E-05
   1.03250000E+03   5.00000000E-01   5.00000000E-01   1.10389113E+05   4.86898227E+04   3.98626881E-04   3.29040171E-06   3.09188573E-06   0.00000000E+00   2.00602119E+04   1.76164680E+04   6.49783341E+04   3.02748748E+04   1.13944786E+06   7.65712776E+01   1.28495583E+06   1.18528521E+00   4.61056816E+04   4.66298945E+04   3.04841074E-03   3.47617434E+02   2.24533272E+02   3.90287961E-05   4.47462815E-05   2.35948930E-05
   1.06750000E+03   5.00000000E-01   5.00000000E-01   1.10389163E+05   4.87236990E+04   3.98629015E-04   3.98641471E-06   3.72771431E-06   0.00000000E+00   2.00602121E+04   1.76164550E+04   6.49786981E+04   3.02170934E+04   1.13551981E+06   9.51109306E+01   1.30606556E+06   1.20816921E+00   4.60926870E+04   4.66298945E+04   4.01885328E-03   3.47617433E+02   2.24539540E+02   3.90287961E-05   4.47460863E-05   2.35934257E-05
   1.10250000E+03   5.00000000E-01   5.00000000E-01   1.10389232E+05   4.87579236E+04   3.98631456E-04   5.08218760E-06   4.72789340E-06   0.00000000E+00   2.00602124E+04   1.76164419E+04   6.49792306E+04   3.01823000E+04   1.13126466E+06   1.18543984E+02   1.32461054E+06   1.22961157E+00   4.60776790E+04   4.66298945E+04   5.44413905E-03   3.47617431E+02   2.24547845E+02   3.90287961E-05   4.47459082E-05   2.35920059E-05
   1.13750000E+03   5.00000000E-01   5.00000000E-01   1.10389212E+05   4.79190104E+04   3.98628676E-04   5.79932728E-06   5.40824577E-06   1.33280737E+07   2.00602014E+04   1.76161530E+04   6.49802035E+04   2.91504624E+04   4.91778198E+05   7.67250209E+02   2.91290554E+06   1.67294402E+00   4.55117633E+04   4.66298945E+04   7.58357518E-03   3.47617431E+02   2.24563852E+02   3.90287961E-05   4.47457296E-05   2.35766453E-05
   1.17250000E+03   5.00000000E-01   5.00000000E-01   1.10389336E+05   4.83091259E+04   3.98632863E-04   8.27961015E-06   7.68329846E-06   0.00000000E+00   2.00602023E+04   1.76162146E+04   6.49815508E+04   2.93627913E+04   1.18774965E+06   2.33874507E+02   1.27265420E+06   1.40323520E+00   4.55110268E+04   4.66298945E+04   1.09191567E-02   3.47617428E+02   2.24580854E+02   3.90287961E-05   4.47456459E-05   2.35774766E-05
   1.20750000E+03   5.00000000E-01   5.00000000E-01   1.10389499E+05   4.86585645E+04   3.98637065E-04   1.21396481E-05   1.12364880E-05   0.00000000E+00   2.00602030E+04   1.76162550E+04   6.49845049E+04   2.96181543E+04   1.15164526E+06   2.71101413E+02   1.34621959E+06   1.37371209E+00   4.55107725E+04   4.66298945E+04   1.63061476E-02   3.47617426E+02   2.24617116E+02   3.90287961E-05   4.47455252E-05   2.35776779E-05
   1.24250000E+03   5.00000000E-01   5.00000000E-01   1.10389706E+05   4.88478781E+04   3.98641745E-04   1.74814637E-05   1.61955681E-05   0.00000000E+00   2.00602035E+04   1.76162698E+04   6.49945763E+04   3.00656933E+04   1.12425584E+06   3.60290157E+02   1.36184984E+06   1.37345830E+00   4.55107479E+04   4.66298945E+04   2.53223478E-02   3.47617424E+02   2.24731511E+02   3.90287961E-05   4.47453772E-05   2.35774681E-05
   1.27750000E+03   5.00000000E-01   5.00000000E-01   1.10389952E+05   4.88579951E+04   3.98647176E-04   2.30201528E-05   2.14388381E-05   0.00000000E+00   2.00602038E+04   1.76162619E+04   6.51026425E+04   3.13528640E+04   1.10252956E+06   5.82457534E+02   1.22168379E+06   1.38286489E+00   4.55110019E+04   4.66298945E+04   4.09911115E-02   3.47617422E+02   2.25699102E+02   3.90287961E-05   4.47452018E-05   2.35769311E-05
   1.31250000E+03   5.00000000E-01   5.00000000E-01   1.10390223E+05   4.88212805E+04   3.98654309E-04   2.57555045E-05   2.42177076E-05   0.00000000E+00   2.00602041E+04   1.76162468E+04   6.65951151E+04   3.31415449E+04   1.08676725E+06   6.58832941E+02   8.81591908E+05   1.35500193E+00   4.55197532E+04   4.66298945E+04   6.92542427E-02   3.47617420E+02   2.33022107E+02   3.90287961E-05   4.47450378E-05   2.35763468E-05
   1.34750000E+03   5.00000000E-01   5.00000000E-01   1.10390509E+05   4.88304928E+04   3.98665428E-04   2.41325342E-05   2.29791273E-05   0.00000000E+00   2.00602045E+04   1.76162339E+04   6.91930102E+04   3.34420764E+04   1.06046013E+06   4.22302631E+02   7.24972545E+05   1.29804911E+00   4.60058255E+04   4.66298945E+04   1.22063814E-01   3.47617417E+02   2.39170059E+02   3.90287961E-05   4.47449152E-05   2.35758396E-05
   1.38250000E+03   5.00000000E-01   5.00000000E-01   1.10390769E+05   4.85029300E+04   3.98677374E-04   1.98858198E-05   1.91915677E-05   2.89778494E+06   2.00602027E+04   1.76161528E+04   7.15690645E+04   3.30723431E+04   8.95178154E+05   1.31756777E+03   9.93782878E+05   1.45888897E+00   4.69028818E+04   4.66298945E+04   2.24655774E-01   3.47617415E+02   2.41228975E+02   3.90287961E-05   4.47448176E-05   2.35732424E-05
   1.41750000E+03   5.00000000E-01   5.00000000E-01   1.10391071E+05   4.86195738E+04   3.98694121E-04   1.57887050E-05   1.54247358E-05   1.56115921E+05   2.00602030E+04   1.76161507E+04   7.37307944E+04   3.29347218E+04   1.00431937E+06   1.20515732E+03   6.31187296E+05   1.38322515E+00   4.77263730E+04   4.66298945E+04   4.34416311E-01   3.47617413E+02   2.41791552E+02   3.90287961E-05   4.47447504E-05   2.35727855E-05
   1.45250000E+03   5.00000000E-01   5.00000000E-01   1.10391388E+05   4.86985115E+04   3.98714464E-04   1.25269018E-05   1.23651550E-05   1.24819156E+00   2.00602031E+04   1.76161434E+04   7.57783995E+04   3.28338638E+04   9.75203653E+05   1.46709099E+03   5.91823568E+05   1.34795454E+00   4.84946562E+04   4.66298945E+04   8.85644167E-01   3.47617411E+02   2.41770937E+02   3.90287961E-05   4.47446903E-05   2.35722922E-05
   1.48750000E+03   5.00000000E-01   5.00000000E-01   1.10391722E+05   4.87226316E+04   3.98739440E-04   1.00730247E-05   1.00269086E-05   6.36582155E-11   2.00602032E+04   1.76161297E+04   7.77783599E+04   3.27288973E+04   9.43546510E+05   2.04213411E+03   5.55922997E+05   1.33649905E+00   4.92299623E+04   4.66298945E+04   1.90977025E+00   3.47617409E+02   2.41456530E+02   3.90287961E-05   4.47446379E-05   2.35717207E-05
   1.52250000E+03   5.00000000E-01   5.00000000E-01   1.10392072E+05   4.87183508E+04   3.98770365E-04   8.22458403E-06   8.24193072E-06   1.31918327E-23   2.00602032E+04   1.76161131E+04   7.97599395E+04   3.26139992E+04   9.15469337E+05   2.96973948E+03   5.09433016E+05   1.33604674E+00   4.99423748E+04   4.66298945E+04   4.37066319E+00   3.47617409E+02   2.40969771E+02   3.90287961E-05   4.47445938E-05   2.35711225E-05
   1.55750000E+03   5.00000000E-01   5.00000000E-01   1.10392435E+05   4.87044336E+04   3.98808846E-04   6.81468606E-06   6.86473450E-06   4.18653269E-36   2.00602032E+04   1.76160958E+04   8.17234535E+04   3.25004936E+04   8.88996512E+05   4.70856941E+03   4.53793347E+05   1.34696964E+00   5.06323006E+04   4.66298945E+04   1.06544517E+01   3.47617410E+02   2.40351318E+02   3.90287961E-05   4.47445570E-05   2.35705303E-05
   1.59250000E+03   5.00000000E-01   5.00000000E-01   1.10392811E+05   4.86944331E+04   3.98856932E-04   5.72607331E-06   5.79087675E-06   2.50192046E-46   2.00602032E+04   1.76160794E+04   8.36688553E+04   3.24039158E+04   8.62496280E+05   8.68542619E+03   3.82433937E+05   1.36889008E+00   5.13009040E+04   4.66298945E+04   2.77696977E+01   3.47617411E+02   2.39656000E+02   3.90287961E-05   4.47445265E-05   2.35699770E-05
   1.62750000E+03   5.00000000E-01   5.00000000E-01   1.10393197E+05   4.86996755E+04   3.98917235E-04   4.87783832E-06   4.94717259E-06   6.50362429E-53   2.00602033E+04   1.76160656E+04   8.56074989E+04   3.23377370E+04   8.34398566E+05   1.68034754E+04   2.84968564E+05   1.38189970E+00   5.19505940E+04   4.66298945E+04   7.76767394E+01   3.47617413E+02   2.38937591E+02   3.90287961E-05   4.47445011E-05   2.35695022E-05
   1.66250000E+03   5.00000000E-01   5.00000000E-01   1.10393593E+05   4.87107134E+04   3.98992977E-04   4.21447533E-06   4.28278064E-06   2.26451499E-56   2.00602035E+04   1.76160540E+04   8.75500593E+04   3.23269226E+04   8.05698592E+05   2.62269268E+04   1.72065022E+05   1.36593982E+00   5.25813190E+04   4.66298945E+04   2.33890472E+02   3.47617415E+02   2.38233214E+02   3.90287961E-05   4.47444790E-05   2.35691085E-05
   1.69750000E+03   5.00000000E-01   5.00000000E-01   1.10393998E+05   4.86953473E+04   3.99088116E-04   3.69802080E-06   3.76255091E-06   3.34503454E-59   2.00602037E+04   1.76160410E+04   8.95491013E+04   3.23859147E+04   7.79977475E+05   2.86725264E+04   8.02124595E+04   1.33302628E+00   5.31977147E+04   4.66298946E+04   7.58127841E+02   3.47617417E+02   2.37627225E+02   3.90287961E-05   4.47444591E-05   2.35687296E-05
   1.73250000E+03   5.00000000E-01   5.00000000E-01   1.10394416E+05   4.86530318E+04   3.99207999E-04   3.30026258E-06   3.35997381E-06   4.10706554E-61   2.00602040E+04   1.76160265E+04   9.16261924E+04   3.23756026E+04   7.56250313E+05   2.76947228E+04   9.27089597E+03   1.25166685E+00   5.38093183E+04   4.66298946E+04   2.61773253E+03   3.47617420E+02   2.37076666E+02   3.90287961E-05   4.47444410E-05   2.35683556E-05
   1.76750000E+03   5.00000000E-01   5.00000000E-01   1.10394850E+05   4.86005502E+04   3.99358812E-04   2.99493824E-06   3.04970137E-06   1.00162952E-63   2.00602043E+04   1.76160095E+04   9.39108921E+04   3.21845992E+04   7.33675853E+05   1.85855767E+04   9.63740735E+01   1.12950727E+00   5.45254643E+04   4.66298947E+04   9.16583971E+03   3.47617422E+02   2.36616144E+02   3.90287961E-05   4.47444264E-05   2.35679194E-05
   1.80250000E+03   5.00000000E-01   5.00000000E-01   1.10395299E+05   4.85359599E+04   3.99547812E-04   2.75619504E-06   2.80621994E-06   1.96094040E-67   2.00602046E+04   1.76159903E+04   9.64152298E+04   3.18588709E+04   7.11978926E+05   8.35422491E+03   1.86785284E-01   9.93442692E-01   5.52926171E+04   4.66298947E+04   2.81295968E+04   3.47617424E+02   2.36151004E+02   3.90287961E-05   4.47444146E-05   2.35674451E-05
   1.83750000E+03   5.00000000E-01   5.00000000E-01   1.10395765E+05   4.84627411E+04   3.99784582E-04   2.56163880E-06   2.60713914E-06   5.55465964E-70   2.00602049E+04   1.76159710E+04   9.89603236E+04   3.13949200E+04   6.90872115E+05   6.44508184E+02   3.59747884E-05   8.00078082E-01   5.60262050E+04   4.66298948E+04   6.18444657E+04   3.47617426E+02   2.35575027E+02   3.90287961E-05   4.47444043E-05   2.35669914E-05
   1.87250000E+03   5.00000000E-01   5.00000000E-01   1.10396248E+05   4.83940775E+04   4.00080823E-04   2.39460481E-06   2.43564407E-06   9.43586477E-70   2.00602054E+04   1.76159543E+04   1.01407217E+05   3.07131243E+04   6.68164614E+05   4.87110088E-01   1.16489746E-09   5.53879633E-01   5.67700433E+04   4.66298949E+04   9.37659819E+04   3.47617427E+02   2.34814450E+02   3.90287961E-05   4.47443952E-05   2.35666227E-05
   1.90750000E+03   5.00000000E-01   5.00000000E-01   1.10396734E+05   4.83382291E+04   4.00449407E-04   2.24442777E-06   2.28088492E-06   2.86398194E-70   2.00602059E+04   1.76159399E+04   1.03842880E+05   3.00023362E+04   6.45807842E+05   2.50983981E-02   8.20477304E-12   4.65127680E-01   5.76085197E+04   4.66298950E+04   1.10656864E+05   3.47617429E+02   2.33980744E+02   3.90287961E-05   4.47443887E-05   2.35663133E-05
   1.94250000E+03   5.00000000E-01   5.00000000E-01   1.10397208E+05   4.83220793E+04   4.00906380E-04   2.10624410E-06   2.13791728E-06   2.02635452E-72   2.00602062E+04   1.76159289E+04   1.06131238E+05   2.92940916E+04   6.26794963E+05   2.06210224E-02   2.04244690E-12   4.47297385E-01   5.84032165E+04   4.66298952E+04   1.14696715E+05   3.47617430E+02   2.33049519E+02   3.90287961E-05   4.47443853E-05   2.35660526E-05
   1.97750000E+03   5.00000000E-01   5.00000000E-01   1.10397669E+05   4.83214105E+04   4.01472534E-04   1.97940730E-06   2.00616233E-06   3.14950829E-74   2.00602065E+04   1.76159206E+04   1.07862729E+05   2.87054034E+04   6.15037979E+05   1.91299666E-02   1.12369056E-12   4.37805146E-01   5.89102036E+04   4.66298953E+04   1.11951848E+05   3.47617430E+02   2.32009632E+02   3.90287961E-05   4.47443833E-05   2.35658556E-05
   2.01250000E+03   5.00000000E-01   5.00000000E-01   1.10398119E+05   4.83220546E+04   4.02173033E-04   1.86505272E-06   1.88690755E-06   4.69807463E-75   2.00602069E+04   1.76159142E+04   1.08990660E+05   2.83022896E+04   6.08377557E+05   1.79707381E-02   7.95903203E-13   4.31338167E-01   5.91922604E+04   4.66298956E+04   1.06425036E+05   3.47617431E+02   2.31015402E+02   3.90287961E-05   4.47443818E-05   2.35657126E-05
   2.04750000E+03   5.00000000E-01   5.00000000E-01   1.10398560E+05   4.83229449E+04   4.03038136E-04   1.76450418E-06   1.78165308E-06   2.52291509E-75   2.00602073E+04   1.76159092E+04   1.09751155E+05   2.80345704E+04   6.03703424E+05   1.69336344E-02   6.24560644E-13   4.27145385E-01   5.93855435E+04   4.66298959E+04   1.00067678E+05   3.47617431E+02   2.30160246E+02   3.90287961E-05   4.47443806E-05   2.35656037E-05
   2.08250000E+03   5.00000000E-01   5.00000000E-01   1.10398993E+05   4.83239543E+04   4.04104527E-04   1.67857563E-06   1.69137958E-06   2.60577072E-75   2.00602077E+04   1.76159050E+04   1.10301756E+05   2.78480234E+04   5.99968463E+05   1.59260551E-02   5.10989776E-13   4.24803836E-01   5.95364502E+04   4.66298963E+04   9.36988640E+04   3.47617432E+02   2.29442186E+02   3.90287961E-05   4.47443796E-05   2.35655156E-05
   2.11750000E+03   5.00000000E-01   5.00000000E-01   1.10399423E+05   4.83250747E+04   4.05416590E-04   1.60719040E-06   1.61613323E-06   3.77484877E-75   2.00602082E+04   1.76159014E+04   1.10725879E+05   2.77105557E+04   5.96787171E+05   1.49248064E-02   4.23431398E-13   4.23885768E-01   5.96619507E+04   4.66298969E+04   8.76148447E+04   3.47617432E+02   2.28838002E+02   3.90287961E-05   4.47443786E-05   2.35654404E-05
   2.15250000E+03   5.00000000E-01   5.00000000E-01   1.10399857E+05   4.83263530E+04   4.07027933E-04   1.54937848E-06   1.55500629E-06   6.54074616E-75   2.00602087E+04   1.76158982E+04   1.11069394E+05   2.76040151E+04   5.93973328E+05   1.39674532E-02   3.48502363E-13   4.23749973E-01   5.97701066E+04   4.66298975E+04   8.18912881E+04   3.47617432E+02   2.28325673E+02   3.90287961E-05   4.47443778E-05   2.35653736E-05
   2.18750000E+03   5.00000000E-01   5.00000000E-01   1.10400303E+05   4.83278492E+04   4.09003246E-04   1.50352717E-06   1.50639021E-06   1.25071002E-74   2.00602092E+04   1.76158954E+04   1.11359551E+05   2.75175183E+04   5.91421709E+05   1.31307956E-02   2.80425051E-13   4.23499924E-01   5.98654302E+04   4.66298984E+04   7.65260046E+04   3.47617432E+02   2.27887780E+02   3.90287961E-05   4.47443771E-05   2.35653127E-05
   2.22250000E+03   5.00000000E-01   5.00000000E-01   1.10400767E+05   4.83295555E+04   4.11420580E-04   1.46772231E-06   1.46833193E-06   2.52916455E-74   2.00602098E+04   1.76158927E+04   1.11613333E+05   2.74442666E+04   5.89067791E+05   1.24655511E-02   2.18788443E-13   4.22308835E-01   5.99508854E+04   4.66298994E+04   7.14987379E+04   3.47617432E+02   2.27510937E+02   3.90287961E-05   4.47443764E-05   2.35652561E-05
   2.25750000E+03   5.00000000E-01   5.00000000E-01   1.10401260E+05   4.83313379E+04   4.14374124E-04   1.44004083E-06   1.43884479E-06   5.29293281E-74   2.00602104E+04   1.76158902E+04   1.11840340E+05   2.73803291E+04   5.86879787E+05   1.19284839E-02   1.66151374E-13   4.19925482E-01   6.00283254E+04   4.66299008E+04   6.67778686E+04   3.47617432E+02   2.27184709E+02   3.90287961E-05   4.47443758E-05   2.35652031E-05
   2.29250000E+03   5.00000000E-01   5.00000000E-01   1.10401789E+05   4.83330181E+04   4.17977619E-04   1.41874933E-06   1.41612367E-06   1.14167874E-73   2.00602110E+04   1.76158879E+04   1.12044929E+05   2.73237625E+04   5.84851512E+05   1.14150432E-02   1.24198976E-13   4.16684056E-01   6.00985264E+04   4.66299024E+04   6.23306270E+04   3.47617432E+02   2.26900802E+02   3.90287961E-05   4.47443752E-05   2.35651532E-05
   2.32750000E+03   5.00000000E-01   5.00000000E-01   1.10402364E+05   4.83344908E+04   4.22368554E-04   1.40238938E-06   1.39864080E-06   2.55213395E-73   2.00602116E+04   1.76158856E+04   1.12229459E+05   2.72735481E+04   5.82978201E+05   1.08466761E-02   9.22712593E-14   4.13036246E-01   6.01619627E+04   4.66299045E+04   5.81478508E+04   3.47617431E+02   2.26652626E+02   3.90287961E-05   4.47443746E-05   2.35651059E-05
   2.36250000E+03   5.00000000E-01   5.00000000E-01   1.10402992E+05   4.83357228E+04   4.27713334E-04   1.38979342E-06   1.38516746E-06   5.95135625E-73   2.00602122E+04   1.76158835E+04   1.12396150E+05   2.72289299E+04   5.81245106E+05   1.01954994E-02   6.84660287E-14   4.09262196E-01   6.02193290E+04   4.66299071E+04   5.42312478E+04   3.47617430E+02   2.26434922E+02   3.90287961E-05   4.47443741E-05   2.35650612E-05
   2.39750000E+03   5.00000000E-01   5.00000000E-01   1.10403683E+05   4.83366932E+04   4.34213694E-04   1.38005444E-06   1.37474555E-06   1.45521736E-72   2.00602129E+04   1.76158814E+04   1.12547368E+05   2.71892013E+04   5.79631539E+05   9.45975456E-03   5.08074298E-14   4.05476114E-01   6.02714960E+04   4.66299103E+04   5.05512534E+04   3.47617429E+02   2.26243428E+02   3.90287961E-05   4.47443736E-05   2.35650187E-05