 TITLE = "Mineral Area" 
VARIABLES = "X"          "Y"              "Z"            "Forsterite"     "Enstatite(alph" "Anorthite"      "Ferropargasite" "Anhydrite"      "Clinochlore"    "Albite(low)"    "Fayalite"       "Epidote"        "Kaolinite"      "Muscovite(orde" "Sudoite"        "Saponite(Mg)"   "Scolecite"      "Pyrite"         "Quartz(alpha)" 
 ZONE I=         100 , J=           1 , K=           1  F=POINT
   1.75000000E+01   5.00000000E-01   5.00000000E-01   9.98356837E-02   9.99843587E-02   9.89434022E-02   9.95801680E-02   0.00000000E+00   1.62744858E+05   9.47388549E-02   9.82661854E-02   1.00000000E-01   8.99720698E-02   8.64191061E+03   0.00000000E+00   9.50938521E+03   8.62757631E-04   0.00000000E+00   1.91562487E+02
   5.25000000E+01   5.00000000E-01   5.00000000E-01   9.98356837E-02   9.99843591E-02   9.89434022E-02   9.95801680E-02   0.00000000E+00   9.52957839E+04   9.60110899E-02   9.82663024E-02   9.99999993E-02   9.00160870E-02   9.66774733E+03   0.00000000E+00   9.61452470E+03   8.65043900E-04   0.00000000E+00   2.28466151E+02
   8.75000000E+01   5.00000000E-01   5.00000000E-01   9.98356837E-02   9.99843597E-02   9.89434022E-02   9.95801680E-02   0.00000000E+00   6.95662590E+04   9.66257138E-02   9.82664658E-02   9.99999993E-02   9.00345650E-02   9.37308571E+03   0.00000000E+00   1.09986664E+04   8.66736972E-04   0.00000000E+00   2.45785566E+02
   1.22500000E+02   5.00000000E-01   5.00000000E-01   9.98356837E-02   9.99843604E-02   9.89434022E-02   9.95801680E-02   0.00000000E+00   5.75863899E+04   9.69571615E-02   9.82666680E-02   9.99999994E-02   9.00509752E-02   9.08722390E+03   0.00000000E+00   1.15735785E+04   8.68458954E-04   0.00000000E+00   2.54117841E+02
   1.57500000E+02   5.00000000E-01   5.00000000E-01   9.98356837E-02   9.99843611E-02   9.89434022E-02   9.95801680E-02   0.00000000E+00   5.13138047E+04   9.71389903E-02   9.82669020E-02   9.99999995E-02   9.00685995E-02   8.89660157E+03   0.00000000E+00   1.19012491E+04   8.70316361E-04   0.00000000E+00   2.57630247E+02
   1.92500000E+02   5.00000000E-01   5.00000000E-01   9.98356837E-02   9.99843618E-02   9.89434022E-02   9.95801680E-02   0.00000000E+00   4.78995997E+04   9.72342942E-02   9.82671614E-02   9.99999996E-02   9.00881463E-02   8.78581367E+03   0.00000000E+00   1.21348749E+04   8.72343008E-04   0.00000000E+00   2.58330432E+02
   2.27500000E+02   5.00000000E-01   5.00000000E-01   9.98356837E-02   9.99843626E-02   9.89434022E-02   9.95801680E-02   0.00000000E+00   4.60989400E+04   9.72762967E-02   9.82674396E-02   9.99999996E-02   9.01097684E-02   8.73226123E+03   0.00000000E+00   1.23277305E+04   8.74554544E-04   0.00000000E+00   2.57303861E+02
   2.62500000E+02   5.00000000E-01   5.00000000E-01   9.98356837E-02   9.99843633E-02   9.89434022E-02   9.95801680E-02   0.00000000E+00   4.52865275E+04   9.72838569E-02   9.82677304E-02   9.99999998E-02   9.01334909E-02   8.71834997E+03   0.00000000E+00   1.25018356E+04   8.76962330E-04   0.00000000E+00   2.55181125E+02
   2.97500000E+02   5.00000000E-01   5.00000000E-01   9.98356837E-02   9.99843642E-02   9.89434022E-02   9.95801680E-02   0.00000000E+00   4.51171939E+04   9.72682698E-02   9.82680279E-02   9.99999999E-02   9.01593208E-02   8.73173532E+03   0.00000000E+00   1.26675304E+04   8.79578396E-04   0.00000000E+00   2.52346075E+02
   3.32500000E+02   5.00000000E-01   5.00000000E-01   9.98356837E-02   9.99843650E-02   9.89434022E-02   9.95801680E-02   2.65122510E-02   4.54287409E+04   9.72352090E-02   9.82683344E-02   9.99999998E-02   9.01872305E-02   8.76466099E+03   0.00000000E+00   1.28356462E+04   8.82189927E-04   0.00000000E+00   2.48980236E+02
   3.67500000E+02   5.00000000E-01   5.00000000E-01   9.98356837E-02   9.99843659E-02   9.89434022E-02   9.95801680E-02   9.91601267E-02   4.62997573E+04   9.71824291E-02   9.82686904E-02   9.99999991E-02   9.02170123E-02   8.81506236E+03   0.00000000E+00   1.30332857E+04   8.83553618E-04   0.00000000E+00   2.44945699E+02
   4.02500000E+02   5.00000000E-01   5.00000000E-01   9.98356837E-02   9.99843668E-02   9.89434023E-02   9.95801680E-02   1.19536415E-01   4.74644427E+04   9.71203541E-02   9.82690752E-02   9.99999989E-02   9.02488943E-02   8.87682390E+03   0.00000000E+00   1.32105406E+04   8.84426590E-04   0.00000000E+00   2.40632037E+02
   4.37500000E+02   5.00000000E-01   5.00000000E-01   9.98356837E-02   9.99843677E-02   9.89434023E-02   9.95801680E-02   1.23126956E-01   4.87927125E+04   9.70531189E-02   9.82694771E-02   9.99999988E-02   9.02828993E-02   8.94376302E+03   0.00000000E+00   1.33797430E+04   8.85186203E-04   0.00000000E+00   2.36220175E+02
   4.72500000E+02   5.00000000E-01   5.00000000E-01   9.98356837E-02   9.99843687E-02   9.89434023E-02   9.95801680E-02   1.23617750E-01   5.02411478E+04   9.69821520E-02   9.82698919E-02   9.99999987E-02   9.03190456E-02   9.01307839E+03   0.00000000E+00   1.35489030E+04   8.85904159E-04   0.00000000E+00   2.31768195E+02
   5.07500000E+02   5.00000000E-01   5.00000000E-01   9.98356837E-02   9.99843696E-02   9.89434023E-02   9.95801680E-02   1.23499141E-01   5.17891985E+04   9.69083400E-02   9.82703176E-02   9.99999986E-02   9.03573719E-02   9.08336820E+03   0.00000000E+00   1.37189466E+04   8.86591986E-04   0.00000000E+00   2.27304750E+02
   5.42500000E+02   5.00000000E-01   5.00000000E-01   9.98356837E-02   9.99843707E-02   9.89434023E-02   9.95801680E-02   1.23231905E-01   5.34229921E+04   9.68323672E-02   9.82707524E-02   9.99999984E-02   9.03979205E-02   9.15368857E+03   0.00000000E+00   1.38891792E+04   8.87249827E-04   0.00000000E+00   2.22849175E+02
   5.77500000E+02   5.00000000E-01   5.00000000E-01   9.98356837E-02   9.99843717E-02   9.89434023E-02   9.95801680E-02   1.22909304E-01   5.51313373E+04   9.67548168E-02   9.82711947E-02   9.99999984E-02   9.04407336E-02   9.22331331E+03   0.00000000E+00   1.40584361E+04   8.87875789E-04   0.00000000E+00   2.18416596E+02
   6.12500000E+02   5.00000000E-01   5.00000000E-01   9.98356837E-02   9.99843728E-02   9.89434023E-02   9.95801680E-02   1.22552592E-01   5.69040808E+04   9.66762162E-02   9.82716429E-02   9.99999982E-02   9.04858520E-02   9.29165875E+03   0.00000000E+00   1.42253381E+04   8.88467876E-04   0.00000000E+00   2.14019826E+02
   6.47500000E+02   5.00000000E-01   5.00000000E-01   9.98356837E-02   9.99843740E-02   9.89434024E-02   9.95801680E-02   1.22169015E-01   5.87312342E+04   9.65970607E-02   9.82720956E-02   9.99999981E-02   9.05333160E-02   9.35825172E+03   0.00000000E+00   1.43883716E+04   8.89024375E-04   0.00000000E+00   2.09670298E+02
   6.82500000E+02   5.00000000E-01   5.00000000E-01   9.98356837E-02   9.99843751E-02   9.89434024E-02   9.95801680E-02   1.21762961E-01   6.06024303E+04   9.65178355E-02   9.82725512E-02   9.99999980E-02   9.05831666E-02   9.42269899E+03   0.00000000E+00   1.45459289E+04   8.89543975E-04   0.00000000E+00   2.05378559E+02
   7.17500000E+02   5.00000000E-01   5.00000000E-01   9.98356837E-02   9.99843763E-02   9.89434024E-02   9.95801680E-02   1.21338063E-01   6.25066127E+04   9.64390308E-02   9.82730080E-02   9.99999978E-02   9.06354485E-02   9.48466583E+03   0.00000000E+00   1.46963360E+04   8.90025823E-04   0.00000000E+00   2.01154526E+02
   7.52500000E+02   5.00000000E-01   5.00000000E-01   9.98356837E-02   9.99843776E-02   9.89434025E-02   9.95801680E-02   1.20897588E-01   6.44095856E+04   9.63604258E-02   9.82734646E-02   9.99999977E-02   9.06898500E-02   9.53973727E+03   1.00502687E+02   1.48382862E+04   8.90456632E-04   0.00000000E+00   1.97013482E+02
   7.87500000E+02   5.00000000E-01   5.00000000E-01   9.98356837E-02   9.99843788E-02   9.89434025E-02   9.95801680E-02   1.20444515E-01   6.62845588E+04   9.62822887E-02   9.82739190E-02   9.99999976E-02   9.07462095E-02   9.58639235E+03   2.25175775E+02   1.49708878E+04   8.90830786E-04   0.00000000E+00   1.92970057E+02
   8.22500000E+02   5.00000000E-01   5.00000000E-01   9.98356837E-02   9.99843801E-02   9.89434026E-02   9.95801680E-02   1.19981564E-01   6.81566010E+04   9.62065931E-02   9.82743689E-02   9.99999974E-02   9.08052881E-02   9.63263854E+03   2.97427761E+02   1.50921443E+04   8.91174085E-04   0.00000000E+00   1.89025781E+02
   8.57500000E+02   5.00000000E-01   5.00000000E-01   9.98356837E-02   9.99843815E-02   9.89434026E-02   9.95801680E-02   1.19511197E-01   6.99978458E+04   9.61330809E-02   9.82748124E-02   9.99999973E-02   9.08668656E-02   9.67544863E+03   3.68027624E+02   1.51997061E+04   8.91477417E-04   0.00000000E+00   1.85189450E+02
   8.92500000E+02   5.00000000E-01   5.00000000E-01   9.98356837E-02   9.99843829E-02   9.89434027E-02   9.95801680E-02   1.19035646E-01   7.17922557E+04   9.60621281E-02   9.82752474E-02   9.99999972E-02   9.09310012E-02   9.71491172E+03   4.38472111E+02   1.52925067E+04   8.91741666E-04   0.00000000E+00   1.81468892E+02
   9.27500000E+02   5.00000000E-01   5.00000000E-01   9.98356837E-02   9.99843843E-02   9.89434027E-02   9.95801680E-02   1.18556918E-01   7.35233433E+04   9.59940962E-02   9.82756715E-02   9.99999972E-02   9.09977700E-02   9.75122356E+03   5.09566280E+02   1.53692426E+04   8.91968161E-04   0.00000000E+00   1.77871505E+02
   9.62500000E+02   5.00000000E-01   5.00000000E-01   9.98356837E-02   9.99843858E-02   9.89434028E-02   9.95801680E-02   1.18076813E-01   7.51743851E+04   9.59293189E-02   9.82760823E-02   9.99999971E-02   9.10672621E-02   9.78464531E+03   5.81785541E+02   1.54287651E+04   8.92158518E-04   0.00000000E+00   1.74404110E+02
   9.97500000E+02   5.00000000E-01   5.00000000E-01   9.98356837E-02   9.99843873E-02   9.89434029E-02   9.95801680E-02   1.17596938E-01   7.67288245E+04   9.58680955E-02   9.82764774E-02   9.99999971E-02   9.11395832E-02   9.81549169E+03   6.55422079E+02   1.54701077E+04   8.92314578E-04   0.00000000E+00   1.71072802E+02
   1.03250000E+03   5.00000000E-01   5.00000000E-01   9.98356837E-02   9.99843888E-02   9.89434030E-02   9.95801680E-02   1.17118719E-01   7.81707052E+04   9.58106855E-02   9.82768541E-02   9.99999971E-02   9.12148547E-02   9.84411634E+03   7.30654628E+02   1.54925076E+04   8.92438334E-04   0.00000000E+00   1.67882805E+02
   1.06750000E+03   5.00000000E-01   5.00000000E-01   9.98356838E-02   9.99843904E-02   9.89434031E-02   9.95801680E-02   1.16643417E-01   7.94851289E+04   9.57573037E-02   9.82772100E-02   9.99999971E-02   9.12932132E-02   9.87089443E+03   8.07586175E+02   1.54954239E+04   8.92531842E-04   0.00000000E+00   1.64838338E+02
   1.10250000E+03   5.00000000E-01   5.00000000E-01   9.98356838E-02   9.99843921E-02   9.89434033E-02   9.95801680E-02   1.16172140E-01   8.06586985E+04   9.57081157E-02   9.82775426E-02   9.99999970E-02   9.13748084E-02   9.89620390E+03   8.86266269E+02   1.54785534E+04   8.92597141E-04   0.00000000E+00   1.61942496E+02
   1.13750000E+03   5.00000000E-01   5.00000000E-01   9.98356838E-02   9.99843937E-02   9.89434034E-02   9.95801680E-02   1.15705854E-01   8.16799495E+04   9.56632346E-02   9.82778495E-02   9.99999969E-02   9.14598007E-02   9.92040589E+03   9.66705357E+02   1.54418440E+04   8.92636166E-04   0.00000000E+00   1.59197152E+02
   1.17250000E+03   5.00000000E-01   5.00000000E-01   9.98356838E-02   9.99843955E-02   9.89434035E-02   9.95801680E-02   1.15245399E-01   8.25397191E+04   9.56227189E-02   9.82781286E-02   9.99999968E-02   9.15483570E-02   9.94382630E+03   1.04888493E+03   1.53855042E+04   8.92650666E-04   0.00000000E+00   1.56602878E+02
   1.20750000E+03   5.00000000E-01   5.00000000E-01   9.98356838E-02   9.99843972E-02   9.89434037E-02   9.95801680E-02   1.14791497E-01   8.32314652E+04   9.55865713E-02   9.82783779E-02   9.99999967E-02   9.16406465E-02   9.96673907E+03   1.13276448E+03   1.53100087E+04   8.92642143E-04   0.00000000E+00   1.54158890E+02
   1.24250000E+03   5.00000000E-01   5.00000000E-01   9.98356839E-02   9.99843990E-02   9.89434039E-02   9.95801680E-02   1.14344763E-01   8.37514792E+04   9.55547382E-02   9.82785958E-02   9.99999965E-02   9.17368358E-02   9.98935313E+03   1.21828759E+03   1.52160995E+04   8.92611799E-04   0.00000000E+00   1.51863047E+02
   1.27750000E+03   5.00000000E-01   5.00000000E-01   9.98356839E-02   9.99844009E-02   9.89434041E-02   9.95801680E-02   1.13905718E-01   8.40990233E+04   9.55271116E-02   9.82787808E-02   9.99999963E-02   9.18370830E-02   1.00118028E+04   1.30538638E+03   1.51047802E+04   8.92560504E-04   0.00000000E+00   1.49711852E+02
   1.31250000E+03   5.00000000E-01   5.00000000E-01   9.98356840E-02   9.99844028E-02   9.89434043E-02   9.95801680E-02   1.13474792E-01   8.42763293E+04   9.55035312E-02   9.82789320E-02   9.99999961E-02   9.19415332E-02   1.00341441E+04   1.39398591E+03   1.49773052E+04   8.92488790E-04   0.00000000E+00   1.47700495E+02
   1.34750000E+03   5.00000000E-01   5.00000000E-01   9.98356841E-02   9.99844047E-02   9.89434046E-02   9.95801680E-02   1.13052339E-01   8.42884993E+04   9.54837884E-02   9.82790488E-02   9.99999957E-02   9.20503132E-02   1.00563547E+04   1.48400819E+03   1.48351606E+04   8.92396860E-04   0.00000000E+00   1.45822942E+02
   1.38250000E+03   5.00000000E-01   5.00000000E-01   9.98356843E-02   9.99844067E-02   9.89434048E-02   9.95801680E-02   1.12638641E-01   8.41432930E+04   9.54676313E-02   9.82791310E-02   9.99999953E-02   9.21635280E-02   1.00783403E+04   1.57537585E+03   1.46800374E+04   8.92284625E-04   0.00000000E+00   1.44072059E+02
   1.41750000E+03   5.00000000E-01   5.00000000E-01   9.98356845E-02   9.99844088E-02   9.89434051E-02   9.95801680E-02   1.12233917E-01   8.38508223E+04   9.54547708E-02   9.82791786E-02   9.99999948E-02   9.22812573E-02   1.00999433E+04   1.66801573E+03   1.45137980E+04   8.92151749E-04   0.00000000E+00   1.42439763E+02
   1.45250000E+03   5.00000000E-01   5.00000000E-01   9.98356848E-02   9.99844108E-02   9.89434054E-02   9.95801680E-02   1.11838328E-01   8.34231643E+04   9.54448879E-02   9.82791921E-02   9.99999941E-02   9.24035537E-02   1.01209558E+04   1.76186222E+03   1.43384349E+04   8.91997712E-04   0.00000000E+00   1.40917198E+02
   1.48750000E+03   5.00000000E-01   5.00000000E-01   9.98356853E-02   9.99844130E-02   9.89434058E-02   9.95801680E-02   1.11451985E-01   8.28739228E+04   9.54376409E-02   9.82791724E-02   9.99999932E-02   9.25304422E-02   1.01411335E+04   1.85686030E+03   1.41560257E+04   8.91821884E-04   0.00000000E+00   1.39494934E+02
   1.52250000E+03   5.00000000E-01   5.00000000E-01   9.98356859E-02   9.99844152E-02   9.89434062E-02   9.95801680E-02   1.11074953E-01   8.22177504E+04   9.54326741E-02   9.82791206E-02   9.99999920E-02   9.26619206E-02   1.01602120E+04   1.95296798E+03   1.39686836E+04   8.91623587E-04   0.00000000E+00   1.38163175E+02
   1.55750000E+03   5.00000000E-01   5.00000000E-01   9.98356866E-02   9.99844174E-02   9.89434066E-02   9.95801680E-02   1.10707257E-01   8.14698778E+04   9.54296252E-02   9.82790381E-02   9.99999905E-02   9.27979608E-02   1.01779200E+04   2.05015818E+03   1.37785092E+04   8.91402172E-04   0.00000000E+00   1.36911970E+02
   1.59250000E+03   5.00000000E-01   5.00000000E-01   9.98356876E-02   9.99844197E-02   9.89434070E-02   9.95801680E-02   1.10348888E-01   8.06456577E+04   9.54281334E-02   9.82789263E-02   9.99999886E-02   9.29385113E-02   1.01939933E+04   2.14841978E+03   1.35875423E+04   8.91157074E-04   0.00000000E+00   1.35731412E+02
   1.62750000E+03   5.00000000E-01   5.00000000E-01   9.98356889E-02   9.99844220E-02   9.89434075E-02   9.95801680E-02   1.09999804E-01   7.97601550E+04   9.54278466E-02   9.82787871E-02   9.99999861E-02   9.30834999E-02   1.02081850E+04   2.24775785E+03   1.33977199E+04   8.90887862E-04   0.00000000E+00   1.34611829E+02
   1.66250000E+03   5.00000000E-01   5.00000000E-01   9.98356905E-02   9.99844244E-02   9.89434080E-02   9.95801680E-02   1.09659939E-01   7.88277979E+04   9.54284273E-02   9.82786222E-02   9.99999829E-02   9.32328365E-02   1.02202735E+04   2.34819308E+03   1.32108397E+04   8.90594276E-04   0.00000000E+00   1.33543943E+02
   1.69750000E+03   5.00000000E-01   5.00000000E-01   9.98356924E-02   9.99844269E-02   9.89434085E-02   9.95801680E-02   1.09329202E-01   7.78620942E+04   9.54295581E-02   9.82784335E-02   9.99999787E-02   9.33864166E-02   1.02300678E+04   2.44976032E+03   1.30285320E+04   8.90276251E-04   0.00000000E+00   1.32519006E+02
   1.73250000E+03   5.00000000E-01   5.00000000E-01   9.98356947E-02   9.99844294E-02   9.89434091E-02   9.95801680E-02   1.09007484E-01   7.68754237E+04   9.54309457E-02   9.82782230E-02   9.99999734E-02   9.35441237E-02   1.02374095E+04   2.55250667E+03   1.28522403E+04   8.89933930E-04   0.00000000E+00   1.31528908E+02
   1.76750000E+03   5.00000000E-01   5.00000000E-01   9.98356972E-02   9.99844319E-02   9.89434097E-02   9.95801680E-02   1.08694659E-01   7.58789019E+04   9.54323236E-02   9.82779927E-02   9.99999666E-02   9.37058322E-02   1.02421731E+04   2.65648884E+03   1.26832107E+04   8.89567663E-04   0.00000000E+00   1.30566248E+02
   1.80250000E+03   5.00000000E-01   5.00000000E-01   9.98357001E-02   9.99844346E-02   9.89434104E-02   9.95801680E-02   1.08390587E-01   7.48823082E+04   9.54334543E-02   9.82777444E-02   9.99999580E-02   9.38714089E-02   1.02442644E+04   2.76177042E+03   1.25224901E+04   8.89177996E-04   0.00000000E+00   1.29624378E+02
   1.83750000E+03   5.00000000E-01   5.00000000E-01   9.98357033E-02   9.99844372E-02   9.89434111E-02   9.95801680E-02   1.08095119E-01   7.38940727E+04   9.54341294E-02   9.82774801E-02   9.99999471E-02   9.40407150E-02   1.02436171E+04   2.86841891E+03   1.23709309E+04   8.88765663E-04   0.00000000E+00   1.28697420E+02
   1.87250000E+03   5.00000000E-01   5.00000000E-01   9.98357068E-02   9.99844400E-02   9.89434118E-02   9.95801680E-02   1.07808096E-01   7.29213088E+04   9.54341700E-02   9.82772016E-02   9.99999336E-02   9.42136069E-02   1.02401891E+04   2.97650281E+03   1.22292032E+04   8.88331560E-04   0.00000000E+00   1.27780260E+02
   1.90750000E+03   5.00000000E-01   5.00000000E-01   9.98357105E-02   9.99844427E-02   9.89434126E-02   9.95801680E-02   1.07529355E-01   7.19698829E+04   9.54334253E-02   9.82769109E-02   9.99999170E-02   9.43899367E-02   1.02339581E+04   3.08608893E+03   1.20978101E+04   8.87876724E-04   0.00000000E+00   1.26868519E+02
   1.94250000E+03   5.00000000E-01   5.00000000E-01   9.98357144E-02   9.99844456E-02   9.89434134E-02   9.95801680E-02   1.07258725E-01   7.10445107E+04   9.54317712E-02   9.82766095E-02   9.99998967E-02   9.45695527E-02   1.02249175E+04   3.19723986E+03   1.19771074E+04   8.87402315E-04   0.00000000E+00   1.25958512E+02
   1.97750000E+03   5.00000000E-01   5.00000000E-01   9.98357186E-02   9.99844485E-02   9.89434143E-02   9.95801680E-02   1.06996035E-01   7.01488648E+04   9.54291084E-02   9.82762993E-02   9.99998722E-02   9.47522989E-02   1.02130721E+04   3.31001193E+03   1.18673247E+04   8.86909585E-04   0.00000000E+00   1.25047195E+02
   2.01250000E+03   5.00000000E-01   5.00000000E-01   9.98357229E-02   9.99844515E-02   9.89434152E-02   9.95801680E-02   1.06741111E-01   6.92856988E+04   9.54253600E-02   9.82759819E-02   9.99998426E-02   9.49380148E-02   1.01984346E+04   3.42445343E+03   1.17685866E+04   8.86399865E-04   0.00000000E+00   1.24132104E+02
   2.04750000E+03   5.00000000E-01   5.00000000E-01   9.98357274E-02   9.99844545E-02   9.89434162E-02   9.95801680E-02   1.06493779E-01   6.84569648E+04   9.54204691E-02   9.82756588E-02   9.99998073E-02   9.51265351E-02   1.01810226E+04   3.54060324E+03   1.16809347E+04   8.85874540E-04   0.00000000E+00   1.23211294E+02
   2.08250000E+03   5.00000000E-01   5.00000000E-01   9.98357321E-02   9.99844576E-02   9.89434172E-02   9.95801680E-02   1.06253867E-01   6.76639338E+04   9.54143963E-02   9.82753315E-02   9.99997655E-02   9.53176888E-02   1.01608562E+04   3.65848988E+03   1.16043478E+04   8.85335033E-04   0.00000000E+00   1.22283270E+02
   2.11750000E+03   5.00000000E-01   5.00000000E-01   9.98357369E-02   9.99844608E-02   9.89434183E-02   9.95801680E-02   1.06021202E-01   6.69073090E+04   9.54071174E-02   9.82750014E-02   9.99997163E-02   9.55112985E-02   1.01379557E+04   3.77813082E+03   1.15387598E+04   8.84782790E-04   0.00000000E+00   1.21346927E+02
   2.15250000E+03   5.00000000E-01   5.00000000E-01   9.98357419E-02   9.99844640E-02   9.89434195E-02   9.95801680E-02   1.05795614E-01   6.61857730E+04   9.53986207E-02   9.82746700E-02   9.99996587E-02   9.57071974E-02   1.01123692E+04   3.89955076E+03   1.14842134E+04   8.84219289E-04   0.00000000E+00   1.20401442E+02
   2.18750000E+03   5.00000000E-01   5.00000000E-01   9.98357470E-02   9.99844673E-02   9.89434207E-02   9.95801680E-02   1.05576935E-01   6.54994885E+04   9.53889045E-02   9.82743383E-02   9.99995920E-02   9.59051902E-02   1.00841067E+04   4.02275104E+03   1.14405459E+04   8.83645977E-04   0.00000000E+00   1.19446287E+02
   2.22250000E+03   5.00000000E-01   5.00000000E-01   9.98357521E-02   9.99844707E-02   9.89434219E-02   9.95801680E-02   1.05365002E-01   6.48490189E+04   9.53779760E-02   9.82740078E-02   9.99995152E-02   9.61050656E-02   1.00531634E+04   4.14770503E+03   1.14075745E+04   8.83064277E-04   0.00000000E+00   1.18481179E+02
   2.25750000E+03   5.00000000E-01   5.00000000E-01   9.98357574E-02   9.99844742E-02   9.89434232E-02   9.95801680E-02   1.05159653E-01   6.42338950E+04   9.53658496E-02   9.82736795E-02   9.99994274E-02   9.63066121E-02   1.00195466E+04   4.27438151E+03   1.13852043E+04   8.82475609E-04   0.00000000E+00   1.17506000E+02
   2.29250000E+03   5.00000000E-01   5.00000000E-01   9.98357628E-02   9.99844777E-02   9.89434246E-02   9.95801680E-02   1.04960729E-01   6.36535026E+04   9.53525449E-02   9.82733544E-02   9.99993281E-02   9.65096086E-02   9.98326131E+03   4.40273964E+03   1.13733460E+04   8.81881367E-04   0.00000000E+00   1.16520763E+02
   2.32750000E+03   5.00000000E-01   5.00000000E-01   9.98357683E-02   9.99844813E-02   9.89434260E-02   9.95801680E-02   1.04768076E-01   6.31069872E+04   9.53380852E-02   9.82730335E-02   9.99992168E-02   9.67138260E-02   9.94431249E+03   4.53272979E+03   1.13719479E+04   8.81282920E-04   0.00000000E+00   1.15525567E+02
   2.36250000E+03   5.00000000E-01   5.00000000E-01   9.98357740E-02   9.99844850E-02   9.89434275E-02   9.95801680E-02   1.04581541E-01   6.25932410E+04   9.53224962E-02   9.82727177E-02   9.99990934E-02   9.69190278E-02   9.90270613E+03   4.66429530E+03   1.13810037E+04   8.80681597E-04   0.00000000E+00   1.14520565E+02
   2.39750000E+03   5.00000000E-01   5.00000000E-01   9.98357798E-02   9.99844887E-02   9.89434290E-02   9.95801680E-02   1.04400978E-01   6.21111827E+04   9.53058047E-02   9.82724078E-02   9.99989585E-02   9.71249661E-02   9.85844474E+03   4.79737159E+03   1.14005336E+04   8.80078689E-04   0.00000000E+00   1.13505951E+02
   2.43250000E+03   5.00000000E-01   5.00000000E-01   9.98357860E-02   9.99844926E-02   9.89434306E-02   9.95801680E-02   1.04226239E-01   6.16601358E+04   9.52880381E-02   9.82721046E-02   9.99988135E-02   9.73313764E-02   9.81152136E+03   4.93188257E+03   1.14305617E+04   8.79475435E-04   0.00000000E+00   1.12481906E+02
   2.46750000E+03   5.00000000E-01   5.00000000E-01   9.98357926E-02   9.99844965E-02   9.89434322E-02   9.95801680E-02   1.04057184E-01   6.12392490E+04   9.52692234E-02   9.82718086E-02   9.99986602E-02   9.75379855E-02   9.76193067E+03   5.06774654E+03   1.14711722E+04   8.78873032E-04   0.00000000E+00   1.11448595E+02
   2.50250000E+03   5.00000000E-01   5.00000000E-01   9.98357998E-02   9.99845005E-02   9.89434339E-02   9.95801680E-02   1.03893674E-01   6.08476935E+04   9.52493865E-02   9.82715205E-02   9.99985016E-02   9.77445093E-02   9.70966658E+03   5.20487628E+03   1.15224846E+04   8.78272624E-04   0.00000000E+00   1.10406146E+02
   2.53750000E+03   5.00000000E-01   5.00000000E-01   9.98358076E-02   9.99845046E-02   9.89434356E-02   9.95801680E-02   1.03735570E-01   6.04847251E+04   9.52285521E-02   9.82712407E-02   9.99983413E-02   9.79506515E-02   9.65472135E+03   5.34317903E+03   1.15846523E+04   8.77675305E-04   0.00000000E+00   1.09354640E+02
   2.57250000E+03   5.00000000E-01   5.00000000E-01   9.98358164E-02   9.99845088E-02   9.89434374E-02   9.95801680E-02   1.03582740E-01   6.01496702E+04   9.52067430E-02   9.82709697E-02   9.99981839E-02   9.81561037E-02   9.59708617E+03   5.48255817E+03   1.16578600E+04   8.77082112E-04   0.00000000E+00   1.08294100E+02
   2.60750000E+03   5.00000000E-01   5.00000000E-01   9.98358263E-02   9.99845131E-02   9.89434393E-02   9.95801680E-02   1.03435051E-01   5.98419719E+04   9.51839800E-02   9.82707076E-02   9.99980348E-02   9.83605454E-02   9.53675057E+03   5.62291300E+03   1.17423198E+04   8.76494027E-04   0.00000000E+00   1.07224477E+02
   2.64250000E+03   5.00000000E-01   5.00000000E-01   9.98358376E-02   9.99845174E-02   9.89434412E-02   9.95801680E-02   1.03292374E-01   5.95611693E+04   9.51602816E-02   9.82704549E-02   9.99978997E-02   9.85636434E-02   9.47370376E+03   5.76413940E+03   1.18382669E+04   8.75911977E-04   0.00000000E+00   1.06145650E+02
   2.67750000E+03   5.00000000E-01   5.00000000E-01   9.98358504E-02   9.99845219E-02   9.89434431E-02   9.95801680E-02   1.03154580E-01   5.93063886E+04   9.51356640E-02   9.82702116E-02   9.99977848E-02   9.87650602E-02   9.40794277E+03   5.90613628E+03   1.19459976E+04   8.75336831E-04   0.00000000E+00   1.05057401E+02
   2.71250000E+03   5.00000000E-01   5.00000000E-01   9.98358650E-02   9.99845264E-02   9.89434451E-02   9.95801680E-02   1.03021543E-01   5.90777601E+04   9.51101411E-02   9.82699779E-02   9.99976959E-02   9.89644321E-02   9.33944993E+03   6.04879164E+03   1.20657395E+04   8.74769395E-04   0.00000000E+00   1.03959453E+02
   2.74750000E+03   5.00000000E-01   5.00000000E-01   9.98358761E-02   9.99845311E-02   9.89434472E-02   9.95801680E-02   1.02893140E-01   5.88757359E+04   9.50837246E-02   9.82697539E-02   9.99976043E-02   9.91613799E-02   9.26820828E+03   6.19197743E+03   1.21977529E+04   8.74210412E-04   0.00000000E+00   1.02851426E+02
   2.78250000E+03   5.00000000E-01   5.00000000E-01   9.98358874E-02   9.99845358E-02   9.89434493E-02   9.95801680E-02   1.02769245E-01   5.87002715E+04   9.50564246E-02   9.82695396E-02   9.99975012E-02   9.93555144E-02   9.19420680E+03   6.33558272E+03   1.23423034E+04   8.73660577E-04   0.00000000E+00   1.01732916E+02
   2.81750000E+03   5.00000000E-01   5.00000000E-01   9.98358992E-02   9.99845406E-02   9.89434514E-02   9.95801680E-02   1.02649738E-01   5.85514735E+04   9.50282493E-02   9.82693351E-02   9.99973948E-02   9.95464280E-02   9.11743553E+03   6.47949305E+03   1.24996446E+04   8.73120522E-04   0.00000000E+00   1.00603368E+02
   2.85250000E+03   5.00000000E-01   5.00000000E-01   9.98359112E-02   9.99845456E-02   9.89434536E-02   9.95801680E-02   1.02534498E-01   5.84296643E+04   9.49992055E-02   9.82691402E-02   9.99972966E-02   9.97336963E-02   9.03788498E+03   6.62358909E+03   1.26700097E+04   8.72590822E-04   0.00000000E+00   9.94621703E+01
   2.88750000E+03   5.00000000E-01   5.00000000E-01   9.98359235E-02   9.99845506E-02   9.89434558E-02   9.95801680E-02   1.02423403E-01   5.83352896E+04   9.49692988E-02   9.82689548E-02   9.99972140E-02   9.99168814E-02   8.95554719E+03   6.76775028E+03   1.28536020E+04   8.72071997E-04   0.00000000E+00   9.83086596E+01
   2.92250000E+03   5.00000000E-01   5.00000000E-01   9.98359358E-02   9.99845557E-02   9.89434581E-02   9.95801680E-02   1.02316337E-01   5.82688794E+04   9.49385342E-02   9.82687787E-02   9.99971488E-02   1.00095534E-01   8.87041657E+03   6.91185635E+03   1.30505849E+04   8.71564508E-04   0.00000000E+00   9.71422252E+01
   2.95750000E+03   5.00000000E-01   5.00000000E-01   9.98359482E-02   9.99845610E-02   9.89434604E-02   9.95801680E-02   1.02213179E-01   5.82310590E+04   9.49069166E-02   9.82686117E-02   9.99970988E-02   1.00269197E-01   8.78249041E+03   7.05578666E+03   1.32610716E+04   8.71068763E-04   0.00000000E+00   9.59619551E+01
   2.99250000E+03   5.00000000E-01   5.00000000E-01   9.98359606E-02   9.99845663E-02   9.89434627E-02   9.95801680E-02   1.02113814E-01   5.82225208E+04   9.48744511E-02   9.82684535E-02   9.99970590E-02   1.00437408E-01   8.69176968E+03   7.19942117E+03   1.34851151E+04   8.70585120E-04   0.00000000E+00   9.47670161E+01
   3.02750000E+03   5.00000000E-01   5.00000000E-01   9.98359729E-02   9.99845718E-02   9.89434651E-02   9.95801680E-02   1.02018124E-01   5.82440385E+04   9.48411436E-02   9.82683040E-02   9.99970232E-02   1.00599699E-01   8.59825957E+03   7.34263977E+03   1.37226977E+04   8.70113881E-04   0.00000000E+00   9.35565381E+01
   3.06250000E+03   5.00000000E-01   5.00000000E-01   9.98359850E-02   9.99845774E-02   9.89434675E-02   9.95801680E-02   1.01925995E-01   5.82964513E+04   9.48070014E-02   9.82681628E-02   9.99969845E-02   1.00755603E-01   8.50197055E+03   7.48532256E+03   1.39737208E+04   8.69655302E-04   0.00000000E+00   9.23296250E+01
   3.09750000E+03   5.00000000E-01   5.00000000E-01   9.98359969E-02   9.99845830E-02   9.89434700E-02   9.95801680E-02   1.01837311E-01   5.83806526E+04   9.47720340E-02   9.82680297E-02   9.99969352E-02   1.00904648E-01   8.40291944E+03   7.62735003E+03   1.42379955E+04   8.69209591E-04   0.00000000E+00   9.10853680E+01
   3.13250000E+03   5.00000000E-01   5.00000000E-01   9.98360086E-02   9.99845888E-02   9.89434725E-02   9.95801680E-02   1.01751958E-01   5.84975739E+04   9.47362534E-02   9.82679043E-02   9.99968684E-02   1.01046441E-01   8.30112920E+03   7.76860201E+03   1.45152340E+04   8.68776909E-04   0.00000000E+00   8.98228866E+01
   3.16750000E+03   5.00000000E-01   5.00000000E-01   9.98360199E-02   9.99845948E-02   9.89434750E-02   9.95801680E-02   1.01669824E-01   5.86481691E+04   9.46996745E-02   9.82677863E-02   9.99967771E-02   1.01180681E-01   8.19662997E+03   7.90895783E+03   1.48050420E+04   8.68357375E-04   0.00000000E+00   8.85414644E+01