 TITLE = "Mineral Area" 
VARIABLES = "X"          "Y"              "Z"            "Forsterite"     "Enstatite(alph" "Anorthite"      "Ferropargasite" "Anhydrite"      "Clinochlore"    "Albite(low)"    "Fayalite"       "Epidote"        "Kaolinite"      "Muscovite(orde"
 ZONE I=          10 , J=           1 , K=           1  F=POINT
   1.75000000E+02   5.00000000E-01   5.00000000E-01   9.99934248E-02   9.99994222E-02   9.93953524E-02   9.99831896E-02   9.99739449E-02   8.29988202E+02   9.99794177E-02   1.00012202E-01   9.99989172E-02   0.00000000E+00   0.00000000E+00
   5.25000000E+02   5.00000000E-01   5.00000000E-01   9.99934250E-02   9.99994149E-02   9.93953524E-02   9.99831896E-02   9.99848154E-02   8.51226679E+02   9.99779980E-02   1.00010716E-01   9.99936956E-02   0.00000000E+00   0.00000000E+00
   8.75000000E+02   5.00000000E-01   5.00000000E-01   9.99934299E-02   9.99994117E-02   9.93953524E-02   9.99831896E-02   9.99937922E-02   8.84920338E+02   9.99757093E-02   1.00008288E-01   9.99813375E-02   0.00000000E+00   0.00000000E+00
   1.22500000E+03   5.00000000E-01   5.00000000E-01   9.99934601E-02   9.99994109E-02   9.93953524E-02   9.99831896E-02   1.00000476E-01   9.25155042E+02   9.99729185E-02   1.00004448E-01   9.99550154E-02   0.00000000E+00   0.00000000E+00
   1.57500000E+03   5.00000000E-01   5.00000000E-01   9.99935258E-02   9.99994117E-02   9.93953524E-02   9.99831896E-02   1.00005150E-01   9.69750809E+02   9.99697536E-02   9.99984166E-02   9.98995583E-02   0.00000000E+00   0.00000000E+00
   1.92500000E+03   5.00000000E-01   5.00000000E-01   9.99936340E-02   9.99994134E-02   9.93953524E-02   9.99831896E-02   1.00008295E-01   1.02292433E+03   9.99658837E-02   9.99895865E-02   9.97897612E-02   0.00000000E+00   0.00000000E+00
   2.27500000E+03   5.00000000E-01   5.00000000E-01   9.99937641E-02   9.99994154E-02   9.93953524E-02   9.99831896E-02   1.00010323E-01   1.08699146E+03   9.99610857E-02   9.99782109E-02   9.95876556E-02   0.00000000E+00   0.00000000E+00
   2.62500000E+03   5.00000000E-01   5.00000000E-01   9.99938786E-02   9.99994178E-02   9.93953524E-02   9.99831896E-02   1.00011540E-01   1.15739019E+03   9.99556479E-02   9.99657091E-02   9.92555737E-02   0.00000000E+00   0.00000000E+00
   2.97500000E+03   5.00000000E-01   5.00000000E-01   9.99939508E-02   9.99994217E-02   9.93953524E-02   9.99831896E-02   1.00012179E-01   1.22544472E+03   9.99502313E-02   9.99541232E-02   9.87872106E-02   0.00000000E+00   0.00000000E+00
   3.32500000E+03   5.00000000E-01   5.00000000E-01   9.99939933E-02   9.99994269E-02   9.93953524E-02   9.99831896E-02   1.00012416E-01   1.28343518E+03   9.99454949E-02   9.99450594E-02   9.82875391E-02   0.00000000E+00   0.00000000E+00
