 TITLE = "Mineral Area" 
VARIABLES = "X"          "Y"              "Z"            "Forsterite"     "Fayalite"       "Brucite"        "Lizardite"      "Chrysotile"     "Saponite(Mg)"   "Enstatite(alph" "Ferrosilite(al" "Anorthite"      "Albite(low)"    "Clinochlore"    "Sudoite"        "Montmorillonit" "Kaolinite"      "Tremolite"      "Pargasite"      "Anhydrite"      "Epidote"        "Scolecite"      "Pyrite"         "FeS(am)"        "Quartz(alpha)" 
 ZONE I=         100 , J=           1 , K=           1  F=POINT
   1.75000000E+01   5.00000000E-01   5.00000000E-01   1.07639163E+05   4.51023440E+04   3.37775265E-04   1.26135831E-06   1.01104224E-06   0.00000000E+00   2.00600815E+04   1.76160867E+04   5.96883482E+04   3.16090389E+04   1.62152995E+06   4.44650472E-03   1.26513760E-05   6.91940053E-02   4.52427333E+04   4.62004613E+04   2.17486900E-04   3.47617418E+02   2.24074258E+02   3.58634215E-05   4.20621698E-05   2.36410582E-05
   5.25000000E+01   5.00000000E-01   5.00000000E-01   1.07639164E+05   4.62000298E+04   3.37775288E-04   1.39967158E-06   1.10265398E-06   0.00000000E+00   2.00600831E+04   1.76165715E+04   5.96883482E+04   3.45848805E+04   1.47535221E+06   1.28445371E-03   8.61190102E-04   6.72682040E-02   4.56145146E+04   4.62004613E+04   2.21121176E-04   3.47617442E+02   2.24074501E+02   3.58634215E-05   4.20656760E-05   2.36692432E-05
   8.75000000E+01   5.00000000E-01   5.00000000E-01   1.07639164E+05   4.69201825E+04   3.37775474E-04   1.38927071E-06   1.10404343E-06   0.00000000E+00   2.00600839E+04   1.76168035E+04   5.96883483E+04   3.62192628E+04   1.39508481E+06   1.22780063E-03   6.77758041E-02   6.91842578E-02   4.59303338E+04   4.62004613E+04   2.25195853E-04   3.47617439E+02   2.24074853E+02   3.58634215E-05   4.20672997E-05   2.36770336E-05
   1.22500000E+02   5.00000000E-01   5.00000000E-01   1.07639165E+05   4.72772952E+04   3.37775689E-04   1.27265985E-06   1.03769088E-06   0.00000000E+00   2.00600843E+04   1.76168871E+04   5.96883484E+04   3.69645934E+04   1.35847948E+06   1.58611605E-03   2.60566093E+00   7.24909398E-02   4.60025832E+04   4.62004613E+04   2.29794687E-04   3.47617439E+02   2.24075280E+02   3.58634215E-05   4.20679733E-05   2.36767605E-05
   1.57500000E+02   5.00000000E-01   5.00000000E-01   1.07639165E+05   4.74606553E+04   3.37775928E-04   1.14621369E-06   9.61048715E-07   0.00000000E+00   2.00600846E+04   1.76169117E+04   5.96883486E+04   3.72514412E+04   1.34437657E+06   2.36762895E-03   5.05423475E+01   7.67881164E-02   4.59232204E+04   4.62004613E+04   2.35011902E-04   3.47617438E+02   2.24075772E+02   3.58634215E-05   4.20681642E-05   2.36739477E-05
   1.92500000E+02   5.00000000E-01   5.00000000E-01   1.07639166E+05   4.75695967E+04   3.37776187E-04   1.03769951E-06   8.92433396E-07   0.00000000E+00   2.00600849E+04   1.76169145E+04   5.96883489E+04   3.73417895E+04   1.33974223E+06   3.88982835E-03   6.69895133E+02   8.19238560E-02   4.57875887E+04   4.62004613E+04   2.40953227E-04   3.47617438E+02   2.24076327E+02   3.58634215E-05   4.20680775E-05   2.36705839E-05
   2.27500000E+02   5.00000000E-01   5.00000000E-01   1.07639166E+05   4.76492960E+04   3.37776470E-04   9.52777756E-07   8.37008733E-07   0.00000000E+00   2.00600852E+04   1.76169095E+04   5.96883492E+04   3.73303658E+04   1.33831434E+06   6.69860702E-03   6.91930450E+03   8.77312090E-02   4.56481875E+04   4.62004613E+04   2.47740444E-04   3.47617438E+02   2.24076941E+02   3.58634215E-05   4.20678146E-05   2.36672466E-05
   2.62500000E+02   5.00000000E-01   5.00000000E-01   1.07639167E+05   4.77255188E+04   3.37776810E-04   9.04698289E-07   8.05810558E-07   0.00000000E+00   2.00600856E+04   1.76169020E+04   5.96883497E+04   3.71475524E+04   1.33542386E+06   1.15867185E-02   4.42134976E+04   9.40602417E-02   4.55765899E+04   4.62004613E+04   2.55512165E-04   3.47617438E+02   2.24077609E+02   3.58634215E-05   4.20674331E-05   2.36638537E-05
   2.97500000E+02   5.00000000E-01   5.00000000E-01   1.07639168E+05   4.78047506E+04   3.37777230E-04   8.90194374E-07   7.98174687E-07   0.00000000E+00   2.00600861E+04   1.76168930E+04   5.96883505E+04   3.67322269E+04   1.33019012E+06   1.96750833E-02   1.24752191E+05   1.00776888E-01   4.55892088E+04   4.62004613E+04   2.64431957E-04   3.47617438E+02   2.24078328E+02   3.58634215E-05   4.20669658E-05   2.36603188E-05
   3.32500000E+02   5.00000000E-01   5.00000000E-01   1.07639169E+05   4.78744484E+04   3.37777702E-04   8.86363145E-07   7.98184578E-07   0.00000000E+00   2.00600866E+04   1.76168804E+04   5.96883514E+04   3.62269460E+04   1.32553580E+06   3.25311440E-02   2.17352184E+05   1.07723844E-01   4.56263061E+04   4.62004613E+04   2.74701828E-04   3.47617438E+02   2.24079096E+02   3.58634215E-05   4.20664331E-05   2.36567769E-05
   3.67500000E+02   5.00000000E-01   5.00000000E-01   1.07639171E+05   4.79349354E+04   3.37778212E-04   8.85827726E-07   8.00584530E-07   0.00000000E+00   2.00600872E+04   1.76168650E+04   5.96883527E+04   3.57154789E+04   1.32165381E+06   5.22703698E-02   3.08479897E+05   1.14738434E-01   4.56699461E+04   4.62004613E+04   2.86568860E-04   3.47617438E+02   2.24079911E+02   3.58634215E-05   4.20658571E-05   2.36533025E-05
   4.02500000E+02   5.00000000E-01   5.00000000E-01   1.07639173E+05   4.79896643E+04   3.37778757E-04   8.86502493E-07   8.03872849E-07   0.00000000E+00   2.00600878E+04   1.76168479E+04   5.96883545E+04   3.52233078E+04   1.31818831E+06   8.15101614E-02   3.95320979E+05   1.21752693E-01   4.57164361E+04   4.62004613E+04   3.00336087E-04   3.47617438E+02   2.24080771E+02   3.58634215E-05   4.20652561E-05   2.36499152E-05
   4.37500000E+02   5.00000000E-01   5.00000000E-01   1.07639175E+05   4.80406824E+04   3.37779337E-04   8.87020249E-07   8.07028738E-07   0.00000000E+00   2.00600884E+04   1.76168299E+04   5.96883568E+04   3.47579454E+04   1.31494947E+06   1.23338554E-01   4.77312583E+05   1.28792981E-01   4.57640730E+04   4.62004613E+04   3.16377967E-04   3.47617438E+02   2.24081680E+02   3.58634215E-05   4.20646443E-05   2.36466162E-05
   4.72500000E+02   5.00000000E-01   5.00000000E-01   1.07639178E+05   4.80889836E+04   3.37779952E-04   8.86713769E-07   8.09530040E-07   0.00000000E+00   2.00600891E+04   1.76168115E+04   5.96883599E+04   3.43212019E+04   1.31186209E+06   1.81163866E-01   5.54411569E+05   1.35885010E-01   4.58114750E+04   4.62004613E+04   3.35161209E-04   3.47617438E+02   2.24082644E+02   3.58634215E-05   4.20640327E-05   2.36434036E-05
   5.07500000E+02   5.00000000E-01   5.00000000E-01   1.07639181E+05   4.81350879E+04   3.37780603E-04   8.85533995E-07   8.11318082E-07   0.00000000E+00   2.00600897E+04   1.76167928E+04   5.96883640E+04   3.39129501E+04   1.30889489E+06   2.59087524E-01   6.26735823E+05   1.43029425E-01   4.58574408E+04   4.62004613E+04   3.57272859E-04   3.47617438E+02   2.24083665E+02   3.58634215E-05   4.20634299E-05   2.36402766E-05
   5.42500000E+02   5.00000000E-01   5.00000000E-01   1.07639184E+05   4.81793723E+04   3.37781291E-04   8.83699566E-07   8.12545107E-07   0.00000000E+00   2.00600903E+04   1.76167741E+04   5.96883693E+04   3.35323856E+04   1.30602271E+06   3.62232596E-01   6.94488499E+05   1.50157203E-01   4.59009647E+04   4.62004613E+04   3.83458529E-04   3.47617438E+02   2.24084749E+02   3.58634215E-05   4.20628430E-05   2.36372358E-05
   5.77500000E+02   5.00000000E-01   5.00000000E-01   1.07639188E+05   4.82221503E+04   3.37782019E-04   8.81548811E-07   8.13466796E-07   0.00000000E+00   2.00600910E+04   1.76167555E+04   5.96883762E+04   3.31784228E+04   1.30321941E+06   4.96675085E-01   7.57919193E+05   1.57119697E-01   4.59412458E+04   4.62004613E+04   4.14674996E-04   3.47617438E+02   2.24085897E+02   3.58634215E-05   4.20622772E-05   2.36342828E-05
   6.12500000E+02   5.00000000E-01   5.00000000E-01   1.07639193E+05   4.82635953E+04   3.37782788E-04   8.79513306E-07   8.14425851E-07   0.00000000E+00   2.00600916E+04   1.76167370E+04   5.96883852E+04   3.28498148E+04   1.30046542E+06   6.69448013E-01   8.17281752E+05   1.63794869E-01   4.59776877E+04   4.62004613E+04   4.52163349E-04   3.47617438E+02   2.24087115E+02   3.58634215E-05   4.20617363E-05   2.36314192E-05
   6.47500000E+02   5.00000000E-01   5.00000000E-01   1.07639198E+05   4.83036966E+04   3.37783601E-04   8.78132326E-07   8.15867529E-07   0.00000000E+00   2.00600923E+04   1.76167188E+04   5.96883968E+04   3.25451925E+04   1.29775207E+06   8.87824620E-01   8.72814572E+05   1.70207177E-01   4.60098998E+04   4.62004613E+04   4.97551990E-04   3.47617438E+02   2.24088412E+02   3.58634215E-05   4.20612232E-05   2.36286474E-05
   6.82500000E+02   5.00000000E-01   5.00000000E-01   1.07639205E+05   4.83423758E+04   3.37784460E-04   8.78075983E-07   8.18362696E-07   0.00000000E+00   2.00600929E+04   1.76167008E+04   5.96884118E+04   3.22631730E+04   1.29507283E+06   1.15944839E+00   9.24751510E+05   1.76485292E-01   4.60376875E+04   4.62004613E+04   5.53003667E-04   3.47617438E+02   2.24089808E+02   3.58634215E-05   4.20607394E-05   2.36259697E-05
   7.17500000E+02   5.00000000E-01   5.00000000E-01   1.07639212E+05   4.83796773E+04   3.37785371E-04   8.80173064E-07   8.22635425E-07   0.00000000E+00   2.00600935E+04   1.76166831E+04   5.96884312E+04   3.20025121E+04   1.29240601E+06   1.49451061E+00   9.73352543E+05   1.82719995E-01   4.60610126E+04   4.62004613E+04   6.21428518E-04   3.47617438E+02   2.24091321E+02   3.58634215E-05   4.20602862E-05   2.36233875E-05
   7.52500000E+02   5.00000000E-01   5.00000000E-01   1.07639220E+05   4.84157311E+04   3.37786336E-04   8.85480153E-07   8.29625932E-07   0.00000000E+00   2.00600941E+04   1.76166657E+04   5.96884564E+04   3.17620814E+04   1.28972225E+06   1.90501456E+00   1.01888388E+06   1.88942191E-01   4.60799660E+04   4.62004613E+04   7.06797262E-04   3.47617438E+02   2.24092974E+02   3.58634215E-05   4.20598639E-05   2.36209009E-05
   7.87500000E+02   5.00000000E-01   5.00000000E-01   1.07639230E+05   4.84507015E+04   3.37787363E-04   8.95385396E-07   8.40585059E-07   0.00000000E+00   2.00600947E+04   1.76166486E+04   5.96884891E+04   3.15408684E+04   1.28699097E+06   2.40640151E+00   1.06159764E+06   1.95162270E-01   4.60947282E+04   4.62004613E+04   8.14609029E-04   3.47617438E+02   2.24094793E+02   3.58634215E-05   4.20594722E-05   2.36185089E-05
   8.22500000E+02   5.00000000E-01   5.00000000E-01   1.07639241E+05   4.84847711E+04   3.37788457E-04   9.11780560E-07   8.57230182E-07   0.00000000E+00   2.00600953E+04   1.76166318E+04   5.96885317E+04   3.13379829E+04   1.28418334E+06   3.01752334E+00   1.10172150E+06   2.01371731E-01   4.61055420E+04   4.62004613E+04   9.52602245E-04   3.47617438E+02   2.24096812E+02   3.58634215E-05   4.20591105E-05   2.36162097E-05
   8.57500000E+02   5.00000000E-01   5.00000000E-01   1.07639254E+05   4.85181543E+04   3.37789630E-04   9.37331313E-07   8.81990497E-07   0.00000000E+00   2.00600959E+04   1.76166154E+04   5.96885873E+04   3.11526958E+04   1.28127145E+06   3.76306475E+00   1.13945519E+06   2.07539647E-01   4.61126788E+04   4.62004613E+04   1.13185480E-03   3.47617437E+02   2.24099075E+02   3.58634215E-05   4.20587777E-05   2.36140002E-05
   8.92500000E+02   5.00000000E-01   5.00000000E-01   1.07639271E+05   4.85510790E+04   3.37790891E-04   9.75923825E-07   9.18411952E-07   0.00000000E+00   2.00600965E+04   1.76165992E+04   5.96886603E+04   3.09844683E+04   1.27823015E+06   4.67383301E+00   1.17496041E+06   2.13603227E-01   4.61164222E+04   4.62004613E+04   1.36852013E-03   3.47617437E+02   2.24101638E+02   3.58634215E-05   4.20584724E-05   2.36118771E-05
   9.27500000E+02   5.00000000E-01   5.00000000E-01   1.07639291E+05   4.85837812E+04   3.37792257E-04   1.03339976E-06   9.71823819E-07   0.00000000E+00   2.00600971E+04   1.76165833E+04   5.96887566E+04   3.08330147E+04   1.27503610E+06   5.79153182E+00   1.20835384E+06   2.19475459E-01   4.61170403E+04   4.62004613E+04   1.68662445E-03   3.47617437E+02   2.24104576E+02   3.58634215E-05   4.20581933E-05   2.36098362E-05
   9.62500000E+02   5.00000000E-01   5.00000000E-01   1.07639316E+05   4.86165001E+04   3.37793748E-04   1.11881046E-06   1.05047525E-06   0.00000000E+00   2.00600976E+04   1.76165677E+04   5.96888850E+04   3.06983728E+04   1.27166607E+06   7.17174397E+00   1.23970156E+06   2.25061300E-01   4.61147715E+04   4.62004613E+04   2.12267584E-03   3.47617436E+02   2.24107997E+02   3.58634215E-05   4.20579385E-05   2.36078732E-05
   9.97500000E+02   5.00000000E-01   5.00000000E-01   1.07639348E+05   4.86494519E+04   3.37795389E-04   1.24659553E-06   1.16750903E-06   0.00000000E+00   2.00600982E+04   1.76165524E+04   5.96890580E+04   3.05810027E+04   1.26809532E+06   8.88377031E+00   1.26900889E+06   2.30288354E-01   4.61098354E+04   4.62004613E+04   2.73344222E-03   3.47617435E+02   2.24112061E+02   3.58634215E-05   4.20577063E-05   2.36059833E-05
   1.03250000E+03   5.00000000E-01   5.00000000E-01   1.07639389E+05   4.86827736E+04   3.37797210E-04   1.44039802E-06   1.34442114E-06   0.00000000E+00   2.00600987E+04   1.76165372E+04   5.96892955E+04   3.04819813E+04   1.26429691E+06   1.10149004E+01   1.29619215E+06   2.35155801E-01   4.61024352E+04   4.62004613E+04   3.60941790E-03   3.47617434E+02   2.24117017E+02   3.58634215E-05   4.20574950E-05   2.36041615E-05
   1.06750000E+03   5.00000000E-01   5.00000000E-01   1.07639445E+05   4.87165266E+04   3.37799253E-04   1.73972230E-06   1.61711547E-06   0.00000000E+00   2.00600992E+04   1.76165222E+04   5.96896300E+04   3.04034285E+04   1.26022998E+06   1.36818876E+01   1.32104929E+06   2.39705825E-01   4.60927403E+04   4.62004613E+04   4.89879056E-03   3.47617433E+02   2.24123279E+02   3.58634215E-05   4.20573026E-05   2.36024025E-05
   1.10250000E+03   5.00000000E-01   5.00000000E-01   1.07639519E+05   4.87506357E+04   3.37801565E-04   2.21110587E-06   2.04613410E-06   0.00000000E+00   2.00600996E+04   1.76165072E+04   5.96901192E+04   3.03493559E+04   1.25582543E+06   1.70528165E+01   1.34317266E+06   2.43970766E-01   4.60808415E+04   4.62004613E+04   6.85137565E-03   3.47617431E+02   2.24131576E+02   3.58634215E-05   4.20571272E-05   2.36007002E-05
   1.13750000E+03   5.00000000E-01   5.00000000E-01   1.07639446E+05   4.75158203E+04   3.37797140E-04   2.26797519E-06   2.11498473E-06   2.01713664E+07   2.00600829E+04   1.76160814E+04   5.96910586E+04   2.88179550E+04   2.89297291E+05   2.40288783E+02   3.74319880E+06   3.79874815E-01   4.51043387E+04   4.62004613E+04   9.88093887E-03   3.47617432E+02   2.24148973E+02   3.58634215E-05   4.20569423E-05   2.35778297E-05
   1.17250000E+03   5.00000000E-01   5.00000000E-01   1.07639571E+05   4.80540798E+04   3.37801378E-04   3.24339602E-06   3.00954120E-06   0.00000000E+00   2.00600845E+04   1.76161771E+04   5.96922683E+04   2.91036602E+04   1.34953335E+06   3.53372057E+01   1.24066743E+06   2.87968036E-01   4.51036100E+04   4.62004613E+04   1.47842833E-02   3.47617427E+02   2.24165213E+02   3.58634215E-05   4.20568832E-05   2.35795513E-05
   1.20750000E+03   5.00000000E-01   5.00000000E-01   1.07639737E+05   4.85636282E+04   3.37805420E-04   4.76619964E-06   4.41092994E-06   0.00000000E+00   2.00600858E+04   1.76162454E+04   5.96949768E+04   2.94088788E+04   1.29910978E+06   3.95116559E+01   1.35176614E+06   2.77332937E-01   4.51033724E+04   4.62004613E+04   2.30431477E-02   3.47617426E+02   2.24201225E+02   3.58634215E-05   4.20567739E-05   2.35803364E-05
   1.24250000E+03   5.00000000E-01   5.00000000E-01   1.07639945E+05   4.88579710E+04   3.37809796E-04   6.87968287E-06   6.37234227E-06   0.00000000E+00   2.00600867E+04   1.76162776E+04   5.97042270E+04   2.98868525E+04   1.26199638E+06   5.21396644E+01   1.39381365E+06   2.75700079E-01   4.51034077E+04   4.62004613E+04   3.75211766E-02   3.47617424E+02   2.24315334E+02   3.58634215E-05   4.20566302E-05   2.35805112E-05
   1.27750000E+03   5.00000000E-01   5.00000000E-01   1.07640192E+05   4.89173724E+04   3.37814783E-04   9.08077514E-06   8.45506144E-06   0.00000000E+00   2.00600875E+04   1.76162794E+04   5.98034968E+04   3.11909130E+04   1.23567132E+06   8.40828186E+01   1.26738061E+06   2.76806269E-01   4.51038185E+04   4.62004613E+04   6.39959412E-02   3.47617422E+02   2.25281095E+02   3.58634215E-05   4.20564575E-05   2.35802474E-05
   1.31250000E+03   5.00000000E-01   5.00000000E-01   1.07640464E+05   4.88953423E+04   3.37821196E-04   1.01825804E-05   9.57239655E-06   0.00000000E+00   2.00600882E+04   1.76162691E+04   6.11744875E+04   3.29906153E+04   1.21871434E+06   9.50031314E+01   9.38757925E+05   2.70796581E-01   4.51128191E+04   4.62004613E+04   1.14530293E-01   3.47617420E+02   2.32590521E+02   3.58634215E-05   4.20562950E-05   2.35798592E-05
   1.34750000E+03   5.00000000E-01   5.00000000E-01   1.07640752E+05   4.89036331E+04   3.37830980E-04   9.56054463E-06   9.10169525E-06   0.00000000E+00   2.00600890E+04   1.76162584E+04   6.35609236E+04   3.33062324E+04   1.19289714E+06   6.08603512E+01   7.92599050E+05   2.59157799E-01   4.55951256E+04   4.62004613E+04   2.15109105E-01   3.47617417E+02   2.38727086E+02   3.58634215E-05   4.20561721E-05   2.35794887E-05
   1.38250000E+03   5.00000000E-01   5.00000000E-01   1.07640969E+05   4.81885255E+04   3.37839531E-04   7.77684416E-06   7.50529762E-06   6.78892955E+06   2.00600845E+04   1.76160949E+04   6.57438462E+04   3.26931796E+04   8.48149316E+05   5.82246695E+02   1.51141948E+06   3.40395171E-01   4.64830039E+04   4.62004613E+04   4.23777511E-01   3.47617415E+02   2.40784833E+02   3.58634215E-05   4.20560702E-05   2.35741889E-05
   1.41750000E+03   5.00000000E-01   5.00000000E-01   1.07641264E+05   4.83901866E+04   3.37853967E-04   6.17470021E-06   6.03233737E-06   8.35758543E+05   2.00600848E+04   1.76161023E+04   6.77297068E+04   3.25567135E+04   1.12873246E+06   5.00619628E+02   7.61549629E+05   3.20385489E-01   4.72991231E+04   4.62004613E+04   8.83594908E-01   3.47617413E+02   2.41346685E+02   3.58634215E-05   4.20560118E-05   2.35736993E-05
   1.45250000E+03   5.00000000E-01   5.00000000E-01   1.07641577E+05   4.85861145E+04   3.37871538E-04   4.89990886E-06   4.83663502E-06   3.48255147E+05   2.00600852E+04   1.76161076E+04   6.96106870E+04   3.24790478E+04   1.10776873E+06   4.45638220E+02   7.21701551E+05   3.03674021E-01   4.80605287E+04   4.62004613E+04   1.95858079E+00   3.47617411E+02   2.41326137E+02   3.58634215E-05   4.20559573E-05   2.35732979E-05
   1.48750000E+03   5.00000000E-01   5.00000000E-01   1.07641907E+05   4.87377889E+04   3.37893140E-04   3.94137795E-06   3.92334415E-06   2.69877197E+04   2.00600855E+04   1.76161079E+04   7.14478387E+04   3.24073626E+04   1.08272158E+06   4.11239570E+02   6.89788455E+05   2.89187481E-01   4.87892529E+04   4.62004613E+04   4.63444562E+00   3.47617409E+02   2.41012031E+02   3.58634215E-05   4.20559071E-05   2.35729003E-05
   1.52250000E+03   5.00000000E-01   5.00000000E-01   1.07642253E+05   4.87990541E+04   3.37919704E-04   3.21889101E-06   3.22570895E-06   3.14549716E-02   2.00600858E+04   1.76160985E+04   7.32681706E+04   3.23167543E+04   1.05069254E+06   5.33156637E+02   6.70302730E+05   2.84674538E-01   4.94952888E+04   4.62004613E+04   1.17518422E+01   3.47617409E+02   2.40526219E+02   3.58634215E-05   4.20558619E-05   2.35723913E-05
   1.55750000E+03   5.00000000E-01   5.00000000E-01   1.07642612E+05   4.88076947E+04   3.37952616E-04   2.66741972E-06   2.68705261E-06   3.10012567E-11   2.00600859E+04   1.76160836E+04   7.50719712E+04   3.22208406E+04   1.02283977E+06   8.19730930E+02   6.37546207E+05   2.85606041E-01   5.01790396E+04   4.62004613E+04   3.20690622E+01   3.47617410E+02   2.39909204E+02   3.58634215E-05   4.20558230E-05   2.35718214E-05
   1.59250000E+03   5.00000000E-01   5.00000000E-01   1.07642981E+05   4.87966377E+04   3.37993599E-04   2.24125881E-06   2.26667271E-06   5.71200765E-22   2.00600860E+04   1.76160664E+04   7.68592481E+04   3.21371983E+04   9.97486868E+05   1.54419128E+03   5.93441862E+05   2.91204609E-01   5.08416583E+04   4.62004613E+04   9.45855093E+01   3.47617411E+02   2.39215815E+02   3.58634215E-05   4.20557904E-05   2.35712271E-05
   1.62750000E+03   5.00000000E-01   5.00000000E-01   1.07643358E+05   4.87851831E+04   3.38044819E-04   1.90885085E-06   1.93602871E-06   3.92610716E-34   2.00600860E+04   1.76160489E+04   7.86406200E+04   3.20794535E+04   9.72563930E+05   3.40356860E+03   5.37051609E+05   2.99115384E-01   5.14855316E+04   4.62004613E+04   3.02668320E+02   3.47617413E+02   2.38500152E+02   3.58634215E-05   4.20557633E-05   2.35706325E-05
   1.66250000E+03   5.00000000E-01   5.00000000E-01   1.07643742E+05   4.87802743E+04   3.38109002E-04   1.64874457E-06   1.67550107E-06   4.68786361E-46   2.00600860E+04   1.76160322E+04   8.04262931E+04   3.20776059E+04   9.46720366E+05   7.66182379E+03   4.58997412E+05   3.07040599E-01   5.21106090E+04   4.62004614E+04   1.05143190E+03   3.47617415E+02   2.37799887E+02   3.58634215E-05   4.20557401E-05   2.35700647E-05
   1.69750000E+03   5.00000000E-01   5.00000000E-01   1.07644135E+05   4.87798724E+04   3.38189626E-04   1.44637526E-06   1.47164074E-06   4.85294476E-55   2.00600861E+04   1.76160170E+04   8.22648756E+04   3.21610496E+04   9.19070285E+05   1.43302409E+04   3.53823709E+05   3.13426898E-01   5.27214859E+04   4.62004614E+04   3.91080868E+03   3.47617417E+02   2.37199324E+02   3.58634215E-05   4.20557198E-05   2.35695454E-05
   1.73250000E+03   5.00000000E-01   5.00000000E-01   1.07644543E+05   4.87786239E+04   3.38291181E-04   1.29066279E-06   1.31403690E-06   3.23666526E-59   2.00600864E+04   1.76160044E+04   8.41770380E+04   3.22486838E+04   8.88947581E+05   2.69474855E+04   2.11605040E+05   3.10697161E-01   5.33276145E+04   4.62004614E+04   1.45247032E+04   3.47617420E+02   2.36657583E+02   3.58634215E-05   4.20557008E-05   2.35691346E-05
   1.76750000E+03   5.00000000E-01   5.00000000E-01   1.07644968E+05   4.87760462E+04   3.38418903E-04   1.17122805E-06   1.19266595E-06   6.59747814E-61   2.00600867E+04   1.76159927E+04   8.62831598E+04   3.22865691E+04   8.57811378E+05   3.56563347E+04   9.12848043E+04   2.98806849E-01   5.40373508E+04   4.62004615E+04   4.42464394E+04   3.47617422E+02   2.36212210E+02   3.58634215E-05   4.20556846E-05   2.35687712E-05
   1.80250000E+03   5.00000000E-01   5.00000000E-01   1.07645408E+05   4.87435547E+04   3.38579005E-04   1.07785075E-06   1.09743543E-06   2.45302700E-63   2.00600871E+04   1.76159779E+04   8.85966013E+04   3.22781744E+04   8.30441742E+05   3.40338225E+04   1.81414209E+04   2.81379234E-01   5.47976386E+04   4.62004615E+04   9.00265566E+04   3.47617424E+02   2.35769748E+02   3.58634215E-05   4.20556707E-05   2.35683758E-05
   1.83750000E+03   5.00000000E-01   5.00000000E-01   1.07645862E+05   4.86753290E+04   3.38779606E-04   1.00170787E-06   1.01951988E-06   4.47143570E-67   2.00600874E+04   1.76159587E+04   9.09715838E+04   3.21906822E+04   8.08093879E+05   2.26619768E+04   3.32294639E+02   2.54669488E-01   5.55246609E+04   4.62004616E+04   1.25363941E+05   3.47617426E+02   2.35244878E+02   3.58634215E-05   4.20556587E-05   2.35679059E-05
   1.87250000E+03   5.00000000E-01   5.00000000E-01   1.07646332E+05   4.85950376E+04   3.39030611E-04   9.36294548E-07   9.52356012E-07   1.67627986E-70   2.00600878E+04   1.76159375E+04   9.33708706E+04   3.19353704E+04   7.86071740E+05   1.21528854E+04   2.72592156E-01   2.18725880E-01   5.62618410E+04   4.62004617E+04   1.38403123E+05   3.47617427E+02   2.34639162E+02   3.58634215E-05   4.20556484E-05   2.35674005E-05
   1.90750000E+03   5.00000000E-01   5.00000000E-01   1.07646807E+05   4.85141558E+04   3.39343498E-04   8.77527994E-07   8.91794736E-07   1.76629429E-74   2.00600882E+04   1.76159157E+04   9.59776272E+04   3.15379537E+04   7.63063517E+05   3.07182232E+03   9.61692248E-05   1.84185429E-01   5.70930744E+04   4.62004618E+04   1.36439111E+05   3.47617429E+02   2.34071439E+02   3.58634215E-05   4.20556400E-05   2.35668852E-05
   1.94250000E+03   5.00000000E-01   5.00000000E-01   1.07647291E+05   4.84453232E+04   3.39733023E-04   8.23683920E-07   8.36093595E-07   6.54520468E-76   2.00600887E+04   1.76158961E+04   9.87393512E+04   3.08431611E+04   7.38555365E+05   5.83684776E+00   1.35900649E-09   1.29820503E-01   5.79399164E+04   4.62004620E+04   1.28493589E+05   3.47617430E+02   2.33457368E+02   3.58634215E-05   4.20556329E-05   2.35664368E-05
   1.97750000E+03   5.00000000E-01   5.00000000E-01   1.07647778E+05   4.83748985E+04   3.40216374E-04   7.74364642E-07   7.84872203E-07   6.26929813E-76   2.00600893E+04   1.76158787E+04   1.01516157E+05   3.00133038E+04   7.13997843E+05   6.05428090E-03   1.85543498E-13   9.35689319E-02   5.88284325E+04   4.62004621E+04   1.19239605E+05   3.47617430E+02   2.32757704E+02   3.58634215E-05   4.20556270E-05   2.35660734E-05
   2.01250000E+03   5.00000000E-01   5.00000000E-01   1.07648253E+05   4.83288693E+04   3.40813617E-04   7.29798045E-07   7.38401681E-07   1.82398552E-77   2.00600898E+04   1.76158642E+04   1.04165094E+05   2.92107326E+04   6.91107363E+05   2.80958653E-03   1.16954052E-14   8.70535848E-02   5.97425971E+04   4.62004624E+04   1.10371631E+05   3.47617431E+02   2.31984378E+02   3.58634215E-05   4.20556233E-05   2.35657670E-05
   2.04750000E+03   5.00000000E-01   5.00000000E-01   1.07648709E+05   4.83235371E+04   3.41550014E-04   6.90466841E-07   6.97230100E-07   2.73922068E-80   2.00600902E+04   1.76158537E+04   1.06345055E+05   2.84987226E+04   6.74829304E+05   2.55122109E-03   5.03225549E-15   8.55364019E-02   6.04423306E+04   4.62004627E+04   1.02331579E+05   3.47617431E+02   2.31106644E+02   3.58634215E-05   4.20556214E-05   2.35655185E-05
   2.08250000E+03   5.00000000E-01   5.00000000E-01   1.07649160E+05   4.83241622E+04   3.42457150E-04   6.56849032E-07   6.61912704E-07   5.77591520E-82   2.00600906E+04   1.76158455E+04   1.07794676E+05   2.79806544E+04   6.66233778E+05   2.35964917E-03   3.23926863E-15   8.47518969E-02   6.08104699E+04   4.62004632E+04   9.51166439E+04   3.47617432E+02   2.30197632E+02   3.58634215E-05   4.20556200E-05   2.35653339E-05
   2.11750000E+03   5.00000000E-01   5.00000000E-01   1.07649612E+05   4.83252027E+04   3.43572622E-04   6.28932502E-07   6.32486950E-07   8.49480995E-83   2.00600910E+04   1.76158390E+04   1.08748935E+05   2.76374214E+04   6.60703317E+05   2.18966560E-03   2.42390235E-15   8.43919820E-02   6.10413180E+04   4.62004637E+04   8.85979141E+04   3.47617432E+02   2.29388203E+02   3.58634215E-05   4.20556189E-05   2.35651933E-05
   2.15250000E+03   5.00000000E-01   5.00000000E-01   1.07650072E+05   4.83264508E+04   3.44941830E-04   6.06332497E-07   6.08592127E-07   3.50407816E-83   2.00600915E+04   1.76158335E+04   1.09421264E+05   2.74030974E+04   6.56445873E+05   2.03704363E-03   1.90210709E-15   8.42603230E-02   6.12142724E+04   4.62004644E+04   8.26406182E+04   3.47617432E+02   2.28702790E+02   3.58634215E-05   4.20556180E-05   2.35650804E-05
   2.18750000E+03   5.00000000E-01   5.00000000E-01   1.07650549E+05   4.83279329E+04   3.46619604E-04   5.88415244E-07   5.89595896E-07   2.54968990E-83   2.00600921E+04   1.76158289E+04   1.09927880E+05   2.72334993E+04   6.52896687E+05   1.90782373E-03   1.49320634E-15   8.41448324E-02   6.13543819E+04   4.62004653E+04   7.71404767E+04   3.47617432E+02   2.28126425E+02   3.58634215E-05   4.20556171E-05   2.35649852E-05
   2.22250000E+03   5.00000000E-01   5.00000000E-01   1.07651050E+05   4.83296316E+04   3.48672119E-04   5.74430682E-07   5.74732904E-07   2.58723925E-83   2.00600927E+04   1.76158248E+04   1.10331703E+05   2.71035164E+04   6.49809760E+05   1.80664806E-03   1.14882798E-15   8.38645218E-02   6.14727385E+04   4.62004664E+04   7.20279247E+04   3.47617432E+02   2.27639475E+02   3.58634215E-05   4.20556164E-05   2.35649022E-05
   2.25750000E+03   5.00000000E-01   5.00000000E-01   1.07651585E+05   4.83314098E+04   3.51179237E-04   5.63625953E-07   5.63225380E-07   3.23135662E-83   2.00600933E+04   1.76158211E+04   1.10667228E+05   2.69991820E+04   6.47060849E+05   1.72582215E-03   8.65050967E-16   8.33609035E-02   6.15753406E+04   4.62004678E+04   6.72474156E+04   3.47617432E+02   2.27225066E+02   3.58634215E-05   4.20556157E-05   2.35648280E-05
   2.29250000E+03   5.00000000E-01   5.00000000E-01   1.07652162E+05   4.83330875E+04   3.54237397E-04   5.55322667E-07   5.54366854E-07   4.66285520E-83   2.00600939E+04   1.76158177E+04   1.10953058E+05   2.69128232E+04   6.44590456E+05   1.64948750E-03   6.43099728E-16   8.26955752E-02   6.16653568E+04   4.62004696E+04   6.27544800E+04   3.47617432E+02   2.26869800E+02   3.58634215E-05   4.20556150E-05   2.35647605E-05
   2.32750000E+03   5.00000000E-01   5.00000000E-01   1.07652790E+05   4.83345587E+04   3.57963170E-04   5.48950120E-07   5.47559469E-07   7.54133350E-83   2.00600946E+04   1.76158145E+04   1.11200122E+05   2.68399939E+04   6.42360779E+05   1.56591906E-03   4.76020092E-16   8.19553660E-02   6.17447440E+04   4.62004718E+04   5.85342211E+04   3.47617431E+02   2.26563272E+02   3.58634215E-05   4.20556144E-05   2.35646984E-05
   2.36250000E+03   5.00000000E-01   5.00000000E-01   1.07653480E+05   4.83357899E+04   3.62497642E-04   5.44051441E-07   5.42322419E-07   1.34507621E-82   2.00600953E+04   1.76158115E+04   1.11416039E+05   2.67777980E+04   6.40335521E+05   1.47088587E-03   3.52302360E-16   8.11941049E-02   6.18151640E+04   4.62004745E+04   5.45854576E+04   3.47617430E+02   2.26297406E+02   3.58634215E-05   4.20556139E-05   2.35646409E-05
   2.39750000E+03   5.00000000E-01   5.00000000E-01   1.07654242E+05   4.83367599E+04   3.68011853E-04   5.40271726E-07   5.38280785E-07   2.62004773E-82   2.00600961E+04   1.76158087E+04   1.11606702E+05   2.67241406E+04   6.38479353E+05   1.36400784E-03   2.60953815E-16   8.04333116E-02   6.18781442E+04   4.62004779E+04   5.08769952E+04   3.47617429E+02   2.26065839E+02   3.58634215E-05   4.20556133E-05   2.35645872E-05