 TITLE = "Mineral Area" 
VARIABLES = "X"          "Y"              "Z"            "Forsterite"     "Fayalite"       "Saponite(Mg)"   "Enstatite(alph" "Ferrosilite(al" "Anorthite"      "Albite(low)"    "Clinochlore"    "Sudoite"        "Montmorillonit" "Kaolinite"      "Tremolite"      "Pargasite"      "Anhydrite"      "Epidote"        "Scolecite"      "Pyrite"         "FeS(am)"        "Quartz(alpha)" 
 ZONE I=         100 , J=           1 , K=           1  F=POINT
   1.75000000E+01   5.00000000E-01   5.00000000E-01   3.51074222E+04   4.78758294E+04   9.33583716E+05   2.00609902E+04   1.76163446E+04   1.23572098E+05   2.96612130E+04   5.39868618E+04   6.14986350E-04   5.11123199E-03   2.91731523E+04   4.83203984E+04   4.95966260E+04   1.63774235E-05   3.47617436E+02   2.27283518E+02   6.85951605E-05   6.76374868E-05   2.35700492E-05
   5.25000000E+01   5.00000000E-01   5.00000000E-01   3.51074222E+04   4.79140498E+04   9.46831246E+05   2.00609902E+04   1.76163586E+04   1.23572098E+05   2.97884771E+04   4.75299862E+04   3.23694129E-04   5.54451309E-03   2.91902110E+04   4.83203578E+04   4.95966260E+04   1.64716727E-05   3.47617438E+02   2.27283542E+02   6.85951605E-05   6.76384653E-05   2.35703698E-05
   8.75000000E+01   5.00000000E-01   5.00000000E-01   3.51074222E+04   4.79626927E+04   9.01447318E+05   2.00609902E+04   1.76163701E+04   1.23572098E+05   2.98395497E+04   4.56312960E+04   2.62617958E-04   5.82678824E-03   2.92020512E+04   4.83202111E+04   4.95966260E+04   1.65765859E-05   3.47617438E+02   2.27283558E+02   6.85951605E-05   6.76392023E-05   2.35704065E-05
   1.22500000E+02   5.00000000E-01   5.00000000E-01   3.51074222E+04   4.80113588E+04   8.42677629E+05   2.00609902E+04   1.76163790E+04   1.23572098E+05   2.98753577E+04   4.46660754E+04   2.49829392E-04   6.09994995E-03   2.92141537E+04   4.83201387E+04   4.95966260E+04   1.66934046E-05   3.47617438E+02   2.27283576E+02   6.85951605E-05   6.76396653E-05   2.35703975E-05
   1.57500000E+02   5.00000000E-01   5.00000000E-01   3.51074222E+04   4.80543026E+04   7.88810663E+05   2.00609902E+04   1.76163857E+04   1.23572098E+05   2.99056143E+04   4.39042462E+04   2.49608493E-04   6.39738105E-03   2.92277158E+04   4.83201433E+04   4.95966260E+04   1.68234408E-05   3.47617438E+02   2.27283595E+02   6.85951605E-05   6.76398951E-05   2.35703731E-05
   1.92500000E+02   5.00000000E-01   5.00000000E-01   3.51074222E+04   4.80897342E+04   7.44099857E+05   2.00609902E+04   1.76163906E+04   1.23572098E+05   2.99304593E+04   4.32805635E+04   2.53415039E-04   6.71477699E-03   2.92426345E+04   4.83201160E+04   4.95966260E+04   1.69681160E-05   3.47617438E+02   2.27283616E+02   6.85951605E-05   6.76399502E-05   2.35703369E-05
   2.27500000E+02   5.00000000E-01   5.00000000E-01   3.51074222E+04   4.81178398E+04   7.08654517E+05   2.00609902E+04   1.76163941E+04   1.23572098E+05   2.99497180E+04   4.28024175E+04   2.59037532E-04   7.04358486E-03   2.92586592E+04   4.83200304E+04   4.95966260E+04   1.71289912E-05   3.47617437E+02   2.27283639E+02   6.85951605E-05   6.76398830E-05   2.35702907E-05
   2.62500000E+02   5.00000000E-01   5.00000000E-01   3.51074222E+04   4.81395843E+04   6.81231333E+05   2.00609902E+04   1.76163965E+04   1.23572098E+05   2.99638062E+04   4.24667175E+04   2.65926999E-04   7.37753909E-03   2.92756055E+04   4.83199953E+04   4.95966260E+04   1.73077936E-05   3.47617437E+02   2.27283663E+02   6.85951605E-05   6.76397345E-05   2.35702373E-05
   2.97500000E+02   5.00000000E-01   5.00000000E-01   3.51074222E+04   4.81561033E+04   6.60467183E+05   2.00609903E+04   1.76163981E+04   1.23572098E+05   2.99734657E+04   4.22558787E+04   2.74017581E-04   7.71326200E-03   2.92933930E+04   4.83200053E+04   4.95966260E+04   1.75064491E-05   3.47617437E+02   2.27283688E+02   6.85951605E-05   6.76395352E-05   2.35701787E-05
   3.32500000E+02   5.00000000E-01   5.00000000E-01   3.51074222E+04   4.81684720E+04   6.45061148E+05   2.00609903E+04   1.76163991E+04   1.23572098E+05   2.99794906E+04   4.21488210E+04   2.83404611E-04   8.04929417E-03   2.93120055E+04   4.83200129E+04   4.95966260E+04   1.77271172E-05   3.47617437E+02   2.27283715E+02   6.85951605E-05   6.76393068E-05   2.35701165E-05
   3.67500000E+02   5.00000000E-01   5.00000000E-01   3.51074222E+04   4.81776232E+04   6.33780978E+05   2.00609903E+04   1.76163997E+04   1.23572098E+05   2.99826113E+04   4.21266031E+04   2.94252275E-04   8.38531775E-03   2.93314534E+04   4.83200555E+04   4.95966260E+04   1.79722226E-05   3.47617437E+02   2.27283742E+02   6.85951605E-05   6.76390648E-05   2.35700523E-05
   4.02500000E+02   5.00000000E-01   5.00000000E-01   3.51074222E+04   4.81843054E+04   6.25670343E+05   2.00609903E+04   1.76163999E+04   1.23572098E+05   2.99834644E+04   4.21710694E+04   3.06785828E-04   8.72190713E-03   2.93517793E+04   4.83201368E+04   4.95966260E+04   1.82444983E-05   3.47617437E+02   2.27283771E+02   6.85951605E-05   6.76388200E-05   2.35699870E-05
   4.37500000E+02   5.00000000E-01   5.00000000E-01   3.51074223E+04   4.81891044E+04   6.19974415E+05   2.00609903E+04   1.76163999E+04   1.23572098E+05   2.99825766E+04   4.22666553E+04   3.21290628E-04   9.06011672E-03   2.93730423E+04   4.83202434E+04   4.95966260E+04   1.85470336E-05   3.47617437E+02   2.27283800E+02   6.85951605E-05   6.76385797E-05   2.35699214E-05
   4.72500000E+02   5.00000000E-01   5.00000000E-01   3.51074223E+04   4.81924704E+04   6.16088201E+05   2.00609903E+04   1.76163998E+04   1.23572098E+05   2.99803774E+04   4.24005112E+04   3.38120398E-04   9.40130799E-03   2.93953104E+04   4.83203709E+04   4.95966260E+04   1.88833312E-05   3.47617437E+02   2.27283832E+02   6.85951605E-05   6.76383484E-05   2.35698562E-05
   5.07500000E+02   5.00000000E-01   5.00000000E-01   3.51074223E+04   4.81947422E+04   6.13543014E+05   2.00609903E+04   1.76163995E+04   1.23572098E+05   2.99772166E+04   4.25618016E+04   3.57715639E-04   9.74711759E-03   2.94186617E+04   4.83205149E+04   4.95966260E+04   1.92573745E-05   3.47617437E+02   2.27283864E+02   6.85951605E-05   6.76381294E-05   2.35697918E-05
   5.42500000E+02   5.00000000E-01   5.00000000E-01   3.51074224E+04   4.81961713E+04   6.11976795E+05   2.00609904E+04   1.76163991E+04   1.23572098E+05   2.99733792E+04   4.27414026E+04   3.80627101E-04   1.00994239E-02   2.94431841E+04   4.83206711E+04   4.95966260E+04   1.96737081E-05   3.47617437E+02   2.27283899E+02   6.85951605E-05   6.76379242E-05   2.35697284E-05
   5.77500000E+02   5.00000000E-01   5.00000000E-01   3.51074225E+04   4.81969419E+04   6.11109870E+05   2.00609904E+04   1.76163986E+04   1.23572098E+05   2.99690972E+04   4.29316491E+04   4.07546981E-04   1.04603233E-02   2.94689751E+04   4.83208358E+04   4.95966260E+04   2.01375342E-05   3.47617436E+02   2.27283935E+02   6.85951605E-05   6.76377338E-05   2.35696663E-05
   6.12500000E+02   5.00000000E-01   5.00000000E-01   3.51074226E+04   4.81971879E+04   6.10727180E+05   2.00609904E+04   1.76163981E+04   1.23572098E+05   2.99645583E+04   4.31261460E+04   4.39350103E-04   1.08320965E-02   2.94961409E+04   4.83210070E+04   4.95966260E+04   2.06548296E-05   3.47617436E+02   2.27283973E+02   6.85951605E-05   6.76375583E-05   2.35696057E-05
   6.47500000E+02   5.00000000E-01   5.00000000E-01   3.51074227E+04   4.81970053E+04   6.10665170E+05   2.00609904E+04   1.76163976E+04   1.23572098E+05   2.99599122E+04   4.33196535E+04   4.77147882E-04   1.12171512E-02   2.95247943E+04   4.83211831E+04   4.95966260E+04   2.12324852E-05   3.47617435E+02   2.27284013E+02   6.85951605E-05   6.76373977E-05   2.35695468E-05
   6.82500000E+02   5.00000000E-01   5.00000000E-01   3.51074229E+04   4.81964623E+04   6.10802180E+05   2.00609904E+04   1.76163970E+04   1.23572098E+05   2.99552744E+04   4.35080213E+04   5.22358952E-04   1.16179382E-02   2.95550519E+04   4.83213637E+04   4.95966260E+04   2.18784777E-05   3.47617434E+02   2.27284055E+02   6.85951605E-05   6.76372513E-05   2.35694895E-05
   7.17500000E+02   5.00000000E-01   5.00000000E-01   3.51074233E+04   4.81956070E+04   6.11051376E+05   2.00609905E+04   1.76163964E+04   1.23572098E+05   2.99507298E+04   4.36881426E+04   5.76801751E-04   1.20368406E-02   2.95870286E+04   4.83215488E+04   4.95966260E+04   2.26020765E-05   3.47617433E+02   2.27284100E+02   6.85951605E-05   6.76371186E-05   2.35694341E-05
   7.52500000E+02   5.00000000E-01   5.00000000E-01   3.51074238E+04   4.81944736E+04   6.11355476E+05   2.00609905E+04   1.76163958E+04   1.23572098E+05   2.99463346E+04   4.38579019E+04   6.42816053E-04   1.24760410E-02   2.96208326E+04   4.83217388E+04   4.95966260E+04   2.34140992E-05   3.47617431E+02   2.27284148E+02   6.85951605E-05   6.76369987E-05   2.35693806E-05
   7.87500000E+02   5.00000000E-01   5.00000000E-01   3.51074245E+04   4.81930865E+04   6.11682745E+05   2.00609905E+04   1.76163951E+04   1.23572098E+05   2.99421198E+04   4.40161015E+04   7.23422776E-04   1.29373729E-02   2.96565586E+04   4.83219338E+04   4.95966260E+04   2.43272242E-05   3.47617428E+02   2.27284198E+02   6.85951605E-05   6.76368908E-05   2.35693289E-05
   8.22500000E+02   5.00000000E-01   5.00000000E-01   3.51074255E+04   4.81914637E+04   6.12023599E+05   2.00609905E+04   1.76163944E+04   1.23572098E+05   2.99380938E+04   4.41623617E+04   8.22534156E-04   1.34221650E-02   2.96942818E+04   4.83221329E+04   4.95966260E+04   2.53563778E-05   3.47617424E+02   2.27284251E+02   6.85951605E-05   6.76367941E-05   2.35692789E-05
   8.57500000E+02   5.00000000E-01   5.00000000E-01   3.51074270E+04   4.81896191E+04   6.12386727E+05   2.00609906E+04   1.76163938E+04   1.23572099E+05   2.99342465E+04   4.42970067E+04   9.45229404E-04   1.39310882E-02   2.97340512E+04   4.83223336E+04   4.95966260E+04   2.65192148E-05   3.47617419E+02   2.27284308E+02   6.85951605E-05   6.76367076E-05   2.35692308E-05
   8.92500000E+02   5.00000000E-01   5.00000000E-01   3.51074293E+04   4.81875642E+04   6.12793552E+05   2.00609906E+04   1.76163931E+04   1.23572099E+05   2.99305525E+04   4.44209558E+04   1.09811384E-03   1.44640148E-02   2.97758839E+04   4.83225326E+04   4.95966260E+04   2.78367173E-05   3.47617411E+02   2.27284367E+02   6.85951605E-05   6.76366304E-05   2.35691844E-05
   9.27500000E+02   5.00000000E-01   5.00000000E-01   3.51074327E+04   4.81853098E+04   6.13271093E+05   2.00609906E+04   1.76163924E+04   1.23572099E+05   2.99269761E+04   4.45356251E+04   1.28978284E-03   1.50199050E-02   2.98197607E+04   4.83227289E+04   4.95966260E+04   2.93339449E-05   3.47617401E+02   2.27284429E+02   6.85951605E-05   6.76365618E-05   2.35691396E-05
   9.62500000E+02   5.00000000E-01   5.00000000E-01   3.51074376E+04   4.81828668E+04   6.13845262E+05   2.00609907E+04   1.76163917E+04   1.23572100E+05   2.99234746E+04   4.46428191E+04   1.53141722E-03   1.55967353E-02   2.98656222E+04   4.83229260E+04   4.95966260E+04   3.10409786E-05   3.47617388E+02   2.27284495E+02   6.85951605E-05   6.76365009E-05   2.35690963E-05
   9.97500000E+02   5.00000000E-01   5.00000000E-01   3.51074450E+04   4.81802461E+04   6.14539170E+05   2.00609907E+04   1.76163910E+04   1.23572101E+05   2.99200031E+04   4.47445542E+04   1.83754897E-03   1.61914919E-02   2.99133690E+04   4.83231321E+04   4.95966260E+04   3.29941152E-05   3.47617371E+02   2.27284563E+02   6.85951605E-05   6.76364469E-05   2.35690546E-05
   1.03250000E+03   5.00000000E-01   5.00000000E-01   3.51074558E+04   4.81774570E+04   6.15381356E+05   2.00609908E+04   1.76163902E+04   1.23572101E+05   2.99165178E+04   4.48427562E+04   2.22706360E-03   1.68002487E-02   2.99628673E+04   4.83233506E+04   4.95966260E+04   3.52373907E-05   3.47617350E+02   2.27284635E+02   6.85951605E-05   6.76363992E-05   2.35690141E-05
   1.06750000E+03   5.00000000E-01   5.00000000E-01   3.51074716E+04   4.81745068E+04   6.16413508E+05   2.00609908E+04   1.76163895E+04   1.23572102E+05   2.99129786E+04   4.49390111E+04   2.72449904E-03   1.74182868E-02   3.00139553E+04   4.83235701E+04   4.95966260E+04   3.78245351E-05   3.47617326E+02   2.27284709E+02   6.85951605E-05   6.76363571E-05   2.35689750E-05
   1.10250000E+03   5.00000000E-01   5.00000000E-01   3.51074945E+04   4.81714018E+04   6.17675873E+05   2.00609908E+04   1.76163887E+04   1.23572103E+05   2.99093508E+04   4.50347105E+04   3.36160706E-03   1.80401601E-02   3.00664441E+04   4.83237718E+04   4.95966260E+04   4.08214920E-05   3.47617297E+02   2.27284786E+02   6.85951605E-05   6.76363200E-05   2.35689370E-05
   1.13750000E+03   5.00000000E-01   5.00000000E-01   3.51075277E+04   4.81681511E+04   6.19181745E+05   2.00609909E+04   1.76163880E+04   1.23572105E+05   2.99056052E+04   4.51313782E+04   4.17912147E-03   1.86597539E-02   3.01201119E+04   4.83239512E+04   4.95966260E+04   4.43096729E-05   3.47617265E+02   2.27284865E+02   6.85951605E-05   6.76362873E-05   2.35689002E-05
   1.17250000E+03   5.00000000E-01   5.00000000E-01   3.51075753E+04   4.81647672E+04   6.20906872E+05   2.00609909E+04   1.76163872E+04   1.23572106E+05   2.99017195E+04   4.52307601E+04   5.22875199E-03   1.92704527E-02   3.01747044E+04   4.83241308E+04   4.95966260E+04   4.83901882E-05   3.47617231E+02   2.27284947E+02   6.85951605E-05   6.76362586E-05   2.35688643E-05
   1.20750000E+03   5.00000000E-01   5.00000000E-01   3.51076421E+04   4.81612625E+04   6.22812774E+05   2.00609910E+04   1.76163865E+04   1.23572108E+05   2.98976796E+04   4.53344003E+04   6.57565360E-03   1.98654984E-02   3.02299501E+04   4.83243457E+04   4.95966260E+04   5.31893950E-05   3.47617196E+02   2.27285030E+02   6.85951605E-05   6.76362333E-05   2.35688295E-05
   1.24250000E+03   5.00000000E-01   5.00000000E-01   3.51077335E+04   4.81576423E+04   6.24912523E+05   2.00609911E+04   1.76163857E+04   1.23572111E+05   2.98934824E+04   4.54425962E+04   8.30221212E-03   2.04385654E-02   3.02855981E+04   4.83245849E+04   4.95966260E+04   5.88662703E-05   3.47617160E+02   2.27285115E+02   6.85951605E-05   6.76362112E-05   2.35687956E-05
   1.27750000E+03   5.00000000E-01   5.00000000E-01   3.51078555E+04   4.81539056E+04   6.27270848E+05   2.00609911E+04   1.76163849E+04   1.23572114E+05   2.98891319E+04   4.55545255E+04   1.05124666E-02   2.09838611E-02   3.03414244E+04   4.83247799E+04   4.95966260E+04   6.56222575E-05   3.47617126E+02   2.27285202E+02   6.85951605E-05   6.76361917E-05   2.35687626E-05
   1.31250000E+03   5.00000000E-01   5.00000000E-01   3.51080150E+04   4.81500580E+04   6.29908188E+05   2.00609912E+04   1.76163842E+04   1.23572118E+05   2.98846341E+04   4.56699177E+04   1.33346342E-02   2.14956053E-02   3.03971843E+04   4.83248821E+04   4.95966260E+04   7.37143980E-05   3.47617096E+02   2.27285291E+02   6.85951605E-05   6.76361746E-05   2.35687305E-05
   1.34750000E+03   5.00000000E-01   5.00000000E-01   3.51082186E+04   4.81461198E+04   6.32731330E+05   2.00609913E+04   1.76163834E+04   1.23572122E+05   2.98799949E+04   4.57901363E+04   1.69208061E-02   2.19678094E-02   3.04525740E+04   4.83249369E+04   4.95966260E+04   8.34728976E-05   3.47617074E+02   2.27285380E+02   6.85951605E-05   6.76361597E-05   2.35686991E-05
   1.38250000E+03   5.00000000E-01   5.00000000E-01   3.51084687E+04   4.81421369E+04   6.35432399E+05   2.00609914E+04   1.76163826E+04   1.23572127E+05   2.98752182E+04   4.59197509E+04   2.14375258E-02   2.23938551E-02   3.05071674E+04   4.83251870E+04   4.95966260E+04   9.53245904E-05   3.47617061E+02   2.27285471E+02   6.85951605E-05   6.76361466E-05   2.35686686E-05
   1.41750000E+03   5.00000000E-01   5.00000000E-01   3.51087541E+04   4.81381654E+04   6.37743282E+05   2.00609914E+04   1.76163819E+04   1.23572133E+05   2.98703208E+04   4.60621040E+04   2.70675849E-02   2.27688667E-02   3.05605757E+04   4.83258565E+04   4.95966260E+04   1.09825101E-04   3.47617055E+02   2.27285563E+02   6.85951605E-05   6.76361351E-05   2.35686391E-05
   1.45250000E+03   5.00000000E-01   5.00000000E-01   3.51090590E+04   4.81341456E+04   6.40391755E+05   2.00609915E+04   1.76163811E+04   1.23572140E+05   2.98653706E+04   4.62034670E+04   3.41058851E-02   2.30971706E-02   3.06131004E+04   4.83263566E+04   4.95966260E+04   1.27705646E-04   3.47617046E+02   2.27285655E+02   6.85951605E-05   6.76361250E-05   2.35686104E-05
   1.48750000E+03   5.00000000E-01   5.00000000E-01   3.51093868E+04   4.81300292E+04   6.43634311E+05   2.00609917E+04   1.76163804E+04   1.23572148E+05   2.98603886E+04   4.63393248E+04   4.28855659E-02   2.33776908E-02   3.06647071E+04   4.83264927E+04   4.95966260E+04   1.49935449E-04   3.47617036E+02   2.27285749E+02   6.85951605E-05   6.76361161E-05   2.35685824E-05
   1.52250000E+03   5.00000000E-01   5.00000000E-01   3.51097408E+04   4.81259377E+04   6.46489427E+05   2.00609918E+04   1.76163796E+04   1.23572158E+05   2.98553349E+04   4.64862949E+04   5.35922055E-02   2.35991245E-02   3.07144553E+04   4.83270372E+04   4.95966260E+04   1.77804682E-04   3.47617048E+02   2.27285844E+02   6.85951605E-05   6.76361084E-05   2.35685551E-05
   1.55750000E+03   5.00000000E-01   5.00000000E-01   3.51101059E+04   4.81219900E+04   6.48533636E+05   2.00609919E+04   1.76163789E+04   1.23572170E+05   2.98502299E+04   4.66497661E+04   6.64150567E-02   2.37592747E-02   3.07618817E+04   4.83282691E+04   4.95966260E+04   2.13045331E-04   3.47617068E+02   2.27285938E+02   6.85951605E-05   6.76361016E-05   2.35685288E-05
   1.59250000E+03   5.00000000E-01   5.00000000E-01   3.51104793E+04   4.81180798E+04   6.51083732E+05   2.00609920E+04   1.76163782E+04   1.23572184E+05   2.98451851E+04   4.68049562E+04   8.19782493E-02   2.38734052E-02   3.08079508E+04   4.83291158E+04   4.95966260E+04   2.58012129E-04   3.47617064E+02   2.27286034E+02   6.85951605E-05   6.76360957E-05   2.35685032E-05
   1.62750000E+03   5.00000000E-01   5.00000000E-01   3.51108675E+04   4.81141720E+04   6.54401821E+05   2.00609921E+04   1.76163775E+04   1.23572200E+05   2.98402152E+04   4.69474546E+04   1.00835831E-01   2.39427005E-02   3.08527132E+04   4.83293243E+04   4.95966260E+04   3.15929590E-04   3.47617045E+02   2.27286132E+02   6.85951605E-05   6.76360905E-05   2.35684781E-05
   1.66250000E+03   5.00000000E-01   5.00000000E-01   3.51112588E+04   4.81104177E+04   6.57785086E+05   2.00609922E+04   1.76163768E+04   1.23572218E+05   2.98352862E+04   4.70895560E+04   1.23198422E-01   2.39595596E-02   3.08953969E+04   4.83292377E+04   4.95966260E+04   3.91243816E-04   3.47616998E+02   2.27286231E+02   6.85951605E-05   6.76360860E-05   2.35684537E-05
   1.69750000E+03   5.00000000E-01   5.00000000E-01   3.51116513E+04   4.81068318E+04   6.61171467E+05   2.00609923E+04   1.76163761E+04   1.23572240E+05   2.98304226E+04   4.72310579E+04   1.49432496E-01   2.39263685E-02   3.09358732E+04   4.83290093E+04   4.95966260E+04   4.90136437E-04   3.47616935E+02   2.27286331E+02   6.85951605E-05   6.76360820E-05   2.35684298E-05
   1.73250000E+03   5.00000000E-01   5.00000000E-01   3.51120612E+04   4.81032732E+04   6.64891241E+05   2.00609925E+04   1.76163754E+04   1.23572266E+05   2.98256679E+04   4.73649430E+04   1.80161547E-01   2.38497912E-02   3.09743946E+04   4.83287459E+04   4.95966260E+04   6.21270914E-04   3.47616925E+02   2.27286433E+02   6.85951605E-05   6.76360785E-05   2.35684064E-05
   1.76750000E+03   5.00000000E-01   5.00000000E-01   3.51124868E+04   4.80997657E+04   6.68748133E+05   2.00609926E+04   1.76163748E+04   1.23572295E+05   2.98210266E+04   4.74940045E+04   2.15678205E-01   2.37301517E-02   3.10106997E+04   4.83285528E+04   4.95966260E+04   7.96886788E-04   3.47616974E+02   2.27286536E+02   6.85951605E-05   6.76360754E-05   2.35683834E-05
   1.80250000E+03   5.00000000E-01   5.00000000E-01   3.51129142E+04   4.80964569E+04   6.72310625E+05   2.00609927E+04   1.76163741E+04   1.23572330E+05   2.98164969E+04   4.76248286E+04   2.55862806E-01   2.35666452E-02   3.10443290E+04   4.83284978E+04   4.95966260E+04   1.03441331E-03   3.47617026E+02   2.27286642E+02   6.85951605E-05   6.76360728E-05   2.35683608E-05
   1.83750000E+03   5.00000000E-01   5.00000000E-01   3.51133223E+04   4.80934758E+04   6.75177613E+05   2.00609928E+04   1.76163735E+04   1.23572369E+05   2.98120891E+04   4.77628813E+04   3.00265561E-01   2.33605981E-02   3.10749044E+04   4.83287787E+04   4.95966260E+04   1.35884636E-03   3.47617048E+02   2.27286749E+02   6.85951605E-05   6.76360704E-05   2.35683388E-05
   1.87250000E+03   5.00000000E-01   5.00000000E-01   3.51136902E+04   4.80908948E+04   6.77211005E+05   2.00609930E+04   1.76163730E+04   1.23572416E+05   2.98078341E+04   4.79086081E+04   3.48430155E-01   2.31171603E-02   3.11023572E+04   4.83295150E+04   4.95966260E+04   1.80628632E-03   3.47617055E+02   2.27286859E+02   6.85951605E-05   6.76360684E-05   2.35683173E-05
   1.90750000E+03   5.00000000E-01   5.00000000E-01   3.51140228E+04   4.80886860E+04   6.79050382E+05   2.00609931E+04   1.76163724E+04   1.23572469E+05   2.98038038E+04   4.80487057E+04   4.01116284E-01   2.28490792E-02   3.11274495E+04   4.83302403E+04   4.95966260E+04   2.42928716E-03   3.47617064E+02   2.27286972E+02   6.85951605E-05   6.76360666E-05   2.35682963E-05
   1.94250000E+03   5.00000000E-01   5.00000000E-01   3.51143404E+04   4.80867428E+04   6.81444393E+05   2.00609932E+04   1.76163719E+04   1.23572531E+05   2.98000598E+04   4.81687590E+04   4.59863699E-01   2.25675228E-02   3.11510324E+04   4.83304817E+04   4.95966260E+04   3.30489325E-03   3.47617074E+02   2.27287091E+02   6.85951605E-05   6.76360650E-05   2.35682758E-05
   1.97750000E+03   5.00000000E-01   5.00000000E-01   3.51146530E+04   4.80849631E+04   6.84532797E+05   2.00609934E+04   1.76163715E+04   1.23572603E+05   2.97966166E+04   4.82659188E+04   5.25458229E-01   2.22753558E-02   3.11732587E+04   4.83302919E+04   4.95966260E+04   4.54669589E-03   3.47617086E+02   2.27287215E+02   6.85951605E-05   6.76360636E-05   2.35682554E-05
   2.01250000E+03   5.00000000E-01   5.00000000E-01   3.51149629E+04   4.80833783E+04   6.87952819E+05   2.00609935E+04   1.76163710E+04   1.23572686E+05   2.97934634E+04   4.83461435E+04   5.97413471E-01   2.19708618E-02   3.11937441E+04   4.83298762E+04   4.95966260E+04   6.32309895E-03   3.47617102E+02   2.27287345E+02   6.85951605E-05   6.76360624E-05   2.35682352E-05
   2.04750000E+03   5.00000000E-01   5.00000000E-01   3.51152701E+04   4.80821222E+04   6.91221377E+05   2.00609936E+04   1.76163706E+04   1.23572783E+05   2.97905967E+04   4.84167499E+04   6.74433847E-01   2.16531639E-02   3.12120496E+04   4.83293712E+04   4.95966260E+04   8.88502107E-03   3.47617113E+02   2.27287483E+02   6.85951605E-05   6.76360614E-05   2.35682152E-05
   2.08250000E+03   5.00000000E-01   5.00000000E-01   3.51155740E+04   4.80813068E+04   6.94058760E+05   2.00609937E+04   1.76163702E+04   1.23572895E+05   2.97880379E+04   4.84806382E+04   7.55401665E-01   2.13250710E-02   3.12280547E+04   4.83288440E+04   4.95966260E+04   1.26078378E-02   3.47617114E+02   2.27287628E+02   6.85951605E-05   6.76360604E-05   2.35681953E-05
   2.11750000E+03   5.00000000E-01   5.00000000E-01   3.51158738E+04   4.80809986E+04   6.96350010E+05   2.00609939E+04   1.76163698E+04   1.23573026E+05   2.97858240E+04   4.85373608E+04   8.39609470E-01   2.09914672E-02   3.12418829E+04   4.83283261E+04   4.95966260E+04   1.80549073E-02   3.47617107E+02   2.27287783E+02   6.85951605E-05   6.76360596E-05   2.35681757E-05
   2.15250000E+03   5.00000000E-01   5.00000000E-01   3.51161687E+04   4.80812424E+04   6.98033677E+05   2.00609940E+04   1.76163696E+04   1.23573178E+05   2.97839974E+04   4.85853348E+04   9.26614443E-01   2.06575742E-02   3.12537548E+04   4.83278331E+04   4.95966260E+04   2.60736821E-02   3.47617093E+02   2.27287949E+02   6.85951605E-05   6.76360589E-05   2.35681563E-05
   2.18750000E+03   5.00000000E-01   5.00000000E-01   3.51164586E+04   4.80820772E+04   6.99054987E+05   2.00609941E+04   1.76163693E+04   1.23573354E+05   2.97826021E+04   4.86227340E+04   1.01617262E+00   2.03283496E-02   3.12639273E+04   4.83273736E+04   4.95966260E+04   3.79406950E-02   3.47617073E+02   2.27288128E+02   6.85951605E-05   6.76360582E-05   2.35681371E-05
   2.22250000E+03   5.00000000E-01   5.00000000E-01   3.51167439E+04   4.80835412E+04   6.99355573E+05   2.00609943E+04   1.76163692E+04   1.23573560E+05   2.97816836E+04   4.86476901E+04   1.10825608E+00   2.00083564E-02   3.12726777E+04   4.83269517E+04   4.95966260E+04   5.55793351E-02   3.47617046E+02   2.27288322E+02   6.85951605E-05   6.76360577E-05   2.35681183E-05
   2.25750000E+03   5.00000000E-01   5.00000000E-01   3.51170258E+04   4.80856714E+04   6.98874514E+05   2.00609944E+04   1.76163691E+04   1.23573801E+05   2.97812874E+04   4.86583142E+04   1.20308767E+00   1.97017121E-02   3.12802972E+04   4.83265687E+04   4.95966260E+04   8.18850700E-02   3.47617013E+02   2.27288533E+02   6.85951605E-05   6.76360572E-05   2.35680997E-05
   2.29250000E+03   5.00000000E-01   5.00000000E-01   3.51173058E+04   4.80885022E+04   6.97552389E+05   2.00609946E+04   1.76163691E+04   1.23574083E+05   2.97814583E+04   4.86527012E+04   1.30115808E+00   1.94120133E-02   3.12870826E+04   4.83262238E+04   4.95966260E+04   1.21207500E-01   3.47616973E+02   2.27288764E+02   6.85951605E-05   6.76360567E-05   2.35680815E-05
   2.32750000E+03   5.00000000E-01   5.00000000E-01   3.51175858E+04   4.80920622E+04   6.95336309E+05   2.00609948E+04   1.76163691E+04   1.23574414E+05   2.97822387E+04   4.86289557E+04   1.40320819E+00   1.91422261E-02   3.12933234E+04   4.83259144E+04   4.95966260E+04   1.80058182E-01   3.47616927E+02   2.27289018E+02   6.85951605E-05   6.76360563E-05   2.35680636E-05
   2.36250000E+03   5.00000000E-01   5.00000000E-01   3.51178680E+04   4.80963712E+04   6.92185434E+05   2.00609949E+04   1.76163692E+04   1.23574802E+05   2.97836665E+04   4.85852442E+04   1.51016752E+00   1.88945524E-02   3.12992858E+04   4.83256369E+04   4.95966260E+04   2.68137914E-01   3.47616875E+02   2.27289296E+02   6.85951605E-05   6.76360560E-05   2.35680460E-05
   2.39750000E+03   5.00000000E-01   5.00000000E-01   3.51181545E+04   4.81014371E+04   6.88076673E+05   2.00609951E+04   1.76163694E+04   1.23575259E+05   2.97857718E+04   4.85198730E+04   1.62304330E+00   1.86702858E-02   3.13051921E+04   4.83253868E+04   4.95966260E+04   3.99806516E-01   3.47616816E+02   2.27289601E+02   6.85951605E-05   6.76360557E-05   2.35680288E-05
   2.43250000E+03   5.00000000E-01   5.00000000E-01   3.51184477E+04   4.81072518E+04   6.83010036E+05   2.00609953E+04   1.76163696E+04   1.23575795E+05   2.97885746E+04   4.84313866E+04   1.74275847E+00   1.84696750E-02   3.13112003E+04   4.83251595E+04   4.95966260E+04   5.96149027E-01   3.47616750E+02   2.27289935E+02   6.85951605E-05   6.76360554E-05   2.35680119E-05
   2.46750000E+03   5.00000000E-01   5.00000000E-01   3.51187500E+04   4.81137887E+04   6.77012863E+05   2.00609955E+04   1.76163699E+04   1.23576424E+05   2.97920813E+04   4.83186784E+04   1.86994291E+00   1.82918190E-02   3.13173839E+04   4.83249504E+04   4.95966260E+04   8.87817513E-01   3.47616676E+02   2.27290300E+02   6.85951605E-05   6.76360552E-05   2.35679955E-05
   2.50250000E+03   5.00000000E-01   5.00000000E-01   3.51190637E+04   4.81210002E+04   6.70142024E+05   2.00609957E+04   1.76163702E+04   1.23577163E+05   2.97962826E+04   4.81811009E+04   2.00469200E+00   1.81346210E-02   3.13237175E+04   4.83247551E+04   4.95966260E+04   1.31883264E+00   3.47616593E+02   2.27290695E+02   6.85951605E-05   6.76360549E-05   2.35679794E-05
   2.53750000E+03   5.00000000E-01   5.00000000E-01   3.51193913E+04   4.81288175E+04   6.62483201E+05   2.00609959E+04   1.76163706E+04   1.23578026E+05   2.98011516E+04   4.80185581E+04   2.14632106E+00   1.79948318E-02   3.13300690E+04   4.83245698E+04   4.95966260E+04   1.95148731E+00   3.47616500E+02   2.27291121E+02   6.85951605E-05   6.76360547E-05   2.35679636E-05
   2.57250000E+03   5.00000000E-01   5.00000000E-01   3.51197354E+04   4.81371517E+04   6.54146807E+05   2.00609962E+04   1.76163710E+04   1.23579033E+05   2.98066446E+04   4.78315609E+04   2.29316060E+00   1.78682025E-02   3.13362035E+04   4.83243910E+04   4.95966260E+04   2.87236147E+00   3.47616396E+02   2.27291576E+02   6.85951605E-05   6.76360545E-05   2.35679483E-05
   2.60750000E+03   5.00000000E-01   5.00000000E-01   3.51200989E+04   4.81458975E+04   6.45260700E+05   2.00609964E+04   1.76163715E+04   1.23580201E+05   2.98127023E+04   4.76212269E+04   2.44244981E+00   1.77497554E-02   3.13417991E+04   4.83242162E+04   4.95966260E+04   4.19916628E+00   3.47616280E+02   2.27292056E+02   6.85951605E-05   6.76360544E-05   2.35679333E-05
   2.64250000E+03   5.00000000E-01   5.00000000E-01   3.51204848E+04   4.81549385E+04   6.35960738E+05   2.00609966E+04   1.76163720E+04   1.23581550E+05   2.98192532E+04   4.73892151E+04   2.59038322E+00   1.76341535E-02   3.13464742E+04   4.83240437E+04   4.95966260E+04   6.08759551E+00   3.47616151E+02   2.27292558E+02   6.85951605E-05   6.76360542E-05   2.35679186E-05
   2.67750000E+03   5.00000000E-01   5.00000000E-01   3.51208967E+04   4.81641525E+04   6.26380956E+05   2.00609969E+04   1.76163725E+04   1.23583100E+05   2.98262190E+04   4.71375963E+04   2.73233961E+00   1.75161225E-02   3.13498217E+04   4.83238727E+04   4.95966260E+04   8.73648129E+00   3.47616008E+02   2.27293077E+02   6.85951605E-05   6.76360541E-05   2.35679043E-05
   2.71250000E+03   5.00000000E-01   5.00000000E-01   3.51213384E+04   4.81734178E+04   6.16645520E+05   2.00609972E+04   1.76163729E+04   1.23584869E+05   2.98335188E+04   4.68686799E+04   2.86327319E+00   1.73908546E-02   3.13514454E+04   4.83237038E+04   4.95966260E+04   1.23882944E+01   3.47615851E+02   2.27293607E+02   6.85951605E-05   6.76360539E-05   2.35678904E-05