 TITLE = "Mineral Area" 
VARIABLES = "X"          "Y"              "Z"            "Forsterite"     "Fayalite"       "Brucite"        "Lizardite"      "Chrysotile"     "Hematite"       "Magnetite(am)"  "Saponite(Ca)"   "Saponite(K)"    "Saponite(Mg)"   "Saponite(Na)"   "Beidellite(Ca)" "Beidellite(K)"  "Beidellite(Mg)" "Beidellite(Na)" "Enstatite(alph" "Ferrosilite(al" "Anorthite"      "Albite(low)"    "Clinochlore"    "Sudoite"        "Montmor(MgCa)"  "Montmor(MgK)"   "Montmor(MgMg)"  "Montmor(MgNa)"  "Kaolinite"      "Tremolite"      "Pargasite"      "Anhydrite"      "Epidote"        "Scolecite"      "Pyrite"         "FeS(am)"        "Quartz(alpha)"  "Titanite"       "Rutile"         "Barite"         "Fluorite"       "Spessartine(al" "Andradite"      "Celestite"      "Zincite"        "Chalcocyanite"  "Chalcocite(alp"
 ZONE I=         200 , J=           1 , K=           1  F=POINT
   8.75000000E+00   5.00000000E-01   5.00000000E-01   1.30992478E+05   4.79111622E+04   1.22664916E-03   1.09484361E-03   1.00423517E-03   6.33661732E+03   6.33072070E-06   3.86886674E-02   8.23451592E-01   4.71582265E-02   1.52739873E+05   3.65058420E-02   3.81050091E-02   3.73559080E-02   3.70483872E-02   2.00600633E+04   1.76156133E+04   1.15603191E+05   2.95528705E+04   4.26653806E+05   0.00000000E+00   8.06622171E-03   8.29734203E-03   8.25086634E-03   8.18603606E-03   3.42547105E+04   4.50350267E+04   4.61201205E+04   0.00000000E+00   2.83702961E+03   1.93115315E-05   6.92870132E-05   6.81329599E-05   2.35925399E-05   3.52255164E+01   4.24384212E+01   1.47907254E+03   3.18127349E+01   3.40963654E+02   3.85412370E+01   3.97154296E+01   5.65639904E+02   3.90435160E+01   5.60033297E+01
   2.62500000E+01   5.00000000E-01   5.00000000E-01   1.30992478E+05   4.79132506E+04   1.22664698E-03   9.78797835E-04   9.22465541E-04   6.33661728E+03   6.33131835E-06   3.95557956E-02   1.68090315E+00   5.19291432E-02   4.40590771E+05   3.65058465E-02   3.81050156E-02   3.73559291E-02   3.70484424E-02   2.00600629E+04   1.76156516E+04   1.15603191E+05   2.95989010E+04   4.20525528E+05   0.00000000E+00   8.06624659E-03   8.29740263E-03   8.25097334E-03   8.18646355E-03   3.42547129E+04   4.50560223E+04   4.61201205E+04   0.00000000E+00   2.83702961E+03   1.93115378E-05   6.92870132E-05   6.81329599E-05   2.36077597E-05   3.52255073E+01   4.24384277E+01   1.45066048E+03   3.18127338E+01   3.40963654E+02   3.85412370E+01   3.97154296E+01   5.65639930E+02   3.90435160E+01   5.60021246E+01
   4.37500000E+01   5.00000000E-01   5.00000000E-01   1.30992478E+05   4.79153337E+04   1.22664609E-03   9.19023628E-04   8.79233572E-04   6.33661728E+03   6.33171498E-06   4.01153775E-02   2.13244064E+00   5.50876747E-02   4.87015784E+05   3.65058921E-02   3.81050774E-02   3.73561407E-02   3.70489811E-02   2.00600626E+04   1.76156851E+04   1.15603191E+05   2.97221872E+04   4.13856476E+05   0.00000000E+00   8.06639768E-03   8.29775078E-03   8.25162264E-03   8.18898154E-03   3.42547251E+04   4.50707668E+04   4.61201205E+04   0.00000000E+00   2.83702961E+03   1.93115663E-05   6.92870132E-05   6.81329599E-05   2.36209194E-05   3.52255013E+01   4.24384338E+01   1.43937044E+03   3.18127328E+01   3.40963654E+02   3.85412370E+01   3.97154296E+01   5.65639931E+02   3.90435160E+01   5.60021246E+01
   6.12500000E+01   5.00000000E-01   5.00000000E-01   1.30992478E+05   4.79175065E+04   1.22664567E-03   8.88322511E-04   8.56768744E-04   6.33661728E+03   6.33206070E-06   4.05772097E-02   2.44333003E+00   5.77570056E-02   6.00074290E+05   3.65060304E-02   3.81052543E-02   3.73567814E-02   3.70505640E-02   2.00600626E+04   1.76157174E+04   1.15603191E+05   2.99049840E+04   4.03383137E+05   0.00000000E+00   8.06675727E-03   8.29852781E-03   8.25316638E-03   8.19476747E-03   3.42547486E+04   4.50829393E+04   4.61201205E+04   0.00000000E+00   2.83702961E+03   1.93116202E-05   6.92870132E-05   6.81329599E-05   2.36317657E-05   3.52254985E+01   4.24384395E+01   1.43458062E+03   3.18127319E+01   3.40963654E+02   3.85412370E+01   3.97154296E+01   5.65639951E+02   3.90435160E+01   5.60021246E+01
   7.87500000E+01   5.00000000E-01   5.00000000E-01   1.30992478E+05   4.79199240E+04   1.22664545E-03   8.72885607E-04   8.45473666E-04   6.33661727E+03   6.33241239E-06   4.10620805E-02   2.78155907E+00   6.06363660E-02   7.65651027E+05   3.65062902E-02   3.81055667E-02   3.73579830E-02   3.70534388E-02   2.00600627E+04   1.76157495E+04   1.15603191E+05   3.01130915E+04   3.90971882E+05   0.00000000E+00   8.06732421E-03   8.29966968E-03   8.25559795E-03   8.20354924E-03   3.42547814E+04   4.50985972E+04   4.61201205E+04   0.00000000E+00   2.83702961E+03   1.93116941E-05   6.92870132E-05   6.81329599E-05   2.36402368E-05   3.52254976E+01   4.24384447E+01   1.43240720E+03   3.18127311E+01   3.40963654E+02   3.85412370E+01   3.97154295E+01   5.65639988E+02   3.90435160E+01   5.60021246E+01
   9.62500000E+01   5.00000000E-01   5.00000000E-01   1.30992478E+05   4.79226320E+04   1.22664534E-03   8.64719164E-04   8.39562725E-04   6.33661727E+03   6.33278661E-06   4.15741077E-02   3.13308898E+00   6.37581296E-02   9.37285322E+05   3.65066640E-02   3.81059875E-02   3.73597094E-02   3.70574287E-02   2.00600629E+04   1.76157812E+04   1.15603191E+05   3.03156147E+04   3.78754732E+05   0.00000000E+00   8.06803155E-03   8.30098732E-03   8.25862889E-03   8.21405724E-03   3.42548200E+04   4.51186251E+04   4.61201205E+04   0.00000000E+00   2.83702961E+03   1.93117797E-05   6.92870132E-05   6.81329599E-05   2.36465669E-05   3.52254974E+01   4.24384494E+01   1.43133819E+03   3.18127303E+01   3.40963654E+02   3.85412370E+01   3.97154295E+01   5.65640036E+02   3.90435160E+01   5.60021246E+01
   1.13750000E+02   5.00000000E-01   5.00000000E-01   1.30992478E+05   4.79256135E+04   1.22664529E-03   8.60051258E-04   8.36259379E-04   6.33661726E+03   6.33318730E-06   4.20860270E-02   3.44243449E+00   6.69582394E-02   1.08370128E+06   3.65071021E-02   3.81064447E-02   3.73617295E-02   3.70619178E-02   2.00600630E+04   1.76158122E+04   1.15603191E+05   3.04900874E+04   3.68248843E+05   0.00000000E+00   8.06877523E-03   8.30225104E-03   8.26181225E-03   8.22457989E-03   3.42548590E+04   4.51417175E+04   4.61201205E+04   0.00000000E+00   2.83702961E+03   1.93118657E-05   6.92870132E-05   6.81329599E-05   2.36511496E-05   3.52254975E+01   4.24384537E+01   1.43075532E+03   3.18127296E+01   3.40963654E+02   3.85412370E+01   3.97154295E+01   5.65640094E+02   3.90435160E+01   5.60021246E+01
   1.31250000E+02   5.00000000E-01   5.00000000E-01   1.30992478E+05   4.79288360E+04   1.22664528E-03   8.57202212E-04   8.34317417E-04   6.33661726E+03   6.33361600E-06   4.25750163E-02   3.66860685E+00   7.00864047E-02   1.19413452E+06   3.65075454E-02   3.81068673E-02   3.73637689E-02   3.70662454E-02   2.00600633E+04   1.76158425E+04   1.15603191E+05   3.06271461E+04   3.60056501E+05   0.00000000E+00   8.06946965E-03   8.30330466E-03   8.26478118E-03   8.23384147E-03   3.42548938E+04   4.51662361E+04   4.61201205E+04   0.00000000E+00   2.83702961E+03   1.93119433E-05   6.92870132E-05   6.81329599E-05   2.36543942E-05   3.52254978E+01   4.24384574E+01   1.43039487E+03   3.18127290E+01   3.40963654E+02   3.85412370E+01   3.97154295E+01   5.65640158E+02   3.90435160E+01   5.60021246E+01
   1.48750000E+02   5.00000000E-01   5.00000000E-01   1.30992478E+05   4.79322703E+04   1.22664529E-03   8.55424048E-04   8.33180656E-04   6.33661725E+03   6.33407421E-06   4.30293165E-02   3.79638645E+00   7.30535537E-02   1.27001665E+06   3.65079536E-02   3.81072159E-02   3.73656429E-02   3.70700076E-02   2.00600635E+04   1.76158720E+04   1.15603191E+05   3.07277778E+04   3.54110294E+05   0.00000000E+00   8.07007277E-03   8.30409653E-03   8.26735595E-03   8.24131668E-03   3.42549222E+04   4.51909254E+04   4.61201205E+04   0.00000000E+00   2.83702961E+03   1.93120085E-05   6.92870132E-05   6.81329599E-05   2.36566506E-05   3.52254980E+01   4.24384606E+01   1.43013999E+03   3.18127283E+01   3.40963654E+02   3.85412370E+01   3.97154295E+01   5.65640227E+02   3.90435160E+01   5.60021246E+01
   1.66250000E+02   5.00000000E-01   5.00000000E-01   1.30992478E+05   4.79358927E+04   1.22664532E-03   8.54359689E-04   8.32584067E-04   6.33661724E+03   6.33456348E-06   4.34448572E-02   3.82995216E+00   7.58178590E-02   1.31765883E+06   3.65083103E-02   3.81074816E-02   3.73672759E-02   3.70730747E-02   2.00600638E+04   1.76159006E+04   1.15603191E+05   3.07978765E+04   3.50037262E+05   0.00000000E+00   8.07057763E-03   8.30464474E-03   8.26950742E-03   8.24702724E-03   3.42549440E+04   4.52149638E+04   4.61201205E+04   0.00000000E+00   2.83702961E+03   1.93120613E-05   6.92870132E-05   6.81329599E-05   2.36581880E-05   3.52254981E+01   4.24384633E+01   1.42993711E+03   3.18127278E+01   3.40963654E+02   3.85412370E+01   3.97154295E+01   5.65640302E+02   3.90435160E+01   5.60021246E+01
   1.83750000E+02   5.00000000E-01   5.00000000E-01   1.30992478E+05   4.79396821E+04   1.22664536E-03   8.53816549E-04   8.32385262E-04   6.33661724E+03   6.33508518E-06   4.38214298E-02   3.78364042E+00   7.83640585E-02   1.34418595E+06   3.65086150E-02   3.81076727E-02   3.73686672E-02   3.70754872E-02   2.00600640E+04   1.76159285E+04   1.15603191E+05   3.08443671E+04   3.47403038E+05   0.00000000E+00   8.07099570E-03   8.30499592E-03   8.27128534E-03   8.25124978E-03   3.42549599E+04   4.52378217E+04   4.61201205E+04   0.00000000E+00   2.83702961E+03   1.93121031E-05   6.92870132E-05   6.81329599E-05   2.36592023E-05   3.52254982E+01   4.24384655E+01   1.42976086E+03   3.18127273E+01   3.40963654E+02   3.85412370E+01   3.97154295E+01   5.65640380E+02   3.90435160E+01   5.60021246E+01
   2.01250000E+02   5.00000000E-01   5.00000000E-01   1.30992478E+05   4.79436181E+04   1.22664542E-03   8.53677400E-04   8.32497925E-04   6.33661723E+03   6.33564048E-06   4.41605740E-02   3.67530895E+00   8.06909951E-02   1.35578707E+06   3.65088752E-02   3.81078041E-02   3.73698510E-02   3.70773571E-02   2.00600643E+04   1.76159556E+04   1.15603191E+05   3.08733812E+04   3.45824604E+05   0.00000000E+00   8.07134452E-03   8.30519998E-03   8.27276533E-03   8.25431994E-03   3.42549712E+04   4.52591512E+04   4.61201205E+04   0.00000000E+00   2.83702961E+03   1.93121363E-05   6.92870132E-05   6.81329599E-05   2.36598320E-05   3.52254981E+01   4.24384671E+01   1.42959891E+03   3.18127268E+01   3.40963654E+02   3.85412370E+01   3.97154295E+01   5.65640462E+02   3.90435160E+01   5.60021246E+01
   2.18750000E+02   5.00000000E-01   5.00000000E-01   1.30992478E+05   4.79476809E+04   1.22664549E-03   8.53864526E-04   8.32865072E-04   6.33661722E+03   6.33623041E-06   4.44646667E-02   3.52257848E+00   8.28057420E-02   1.35724464E+06   3.65091004E-02   3.81078908E-02   3.73708721E-02   3.70788084E-02   2.00600646E+04   1.76159818E+04   1.15603191E+05   3.08897243E+04   3.45002673E+05   0.00000000E+00   8.07164124E-03   8.30529929E-03   8.27402120E-03   8.25653972E-03   3.42549789E+04   4.52787317E+04   4.61201205E+04   0.00000000E+00   2.83702961E+03   1.93121628E-05   6.92870132E-05   6.81329599E-05   2.36601739E-05   3.52254979E+01   4.24384682E+01   1.42944513E+03   3.18127264E+01   3.40963654E+02   3.85412370E+01   3.97154295E+01   5.65640546E+02   3.90435160E+01   5.60021246E+01
   2.36250000E+02   5.00000000E-01   5.00000000E-01   1.30992478E+05   4.79518518E+04   1.22664556E-03   8.54323571E-04   8.33447043E-04   6.33661722E+03   6.33685597E-06   4.47365363E-02   3.34098867E+00   8.47207576E-02   1.35202114E+06   3.65092997E-02   3.81079452E-02   3.73717726E-02   3.70799504E-02   2.00600649E+04   1.76160071E+04   1.15603191E+05   3.08969335E+04   3.44717722E+05   0.00000000E+00   8.07190011E-03   8.30532616E-03   8.27511420E-03   8.25814804E-03   3.42549841E+04   4.52964449E+04   4.61201205E+04   0.00000000E+00   2.83702961E+03   1.93121844E-05   6.92870132E-05   6.81329599E-05   2.36602960E-05   3.52254975E+01   4.24384688E+01   1.42929642E+03   3.18127259E+01   3.40963654E+02   3.85412370E+01   3.97154295E+01   5.65640633E+02   3.90435160E+01   5.60021246E+01
   2.53750000E+02   5.00000000E-01   5.00000000E-01   1.30992478E+05   4.79561136E+04   1.22664564E-03   8.55014934E-04   8.34215109E-04   6.33661721E+03   6.33751824E-06   4.49792602E-02   3.14328073E+00   8.64521331E-02   1.34251778E+06   3.65094807E-02   3.81079770E-02   3.73725874E-02   3.70808696E-02   2.00600653E+04   1.76160317E+04   1.15603191E+05   3.08975253E+04   3.44814389E+05   0.00000000E+00   8.07213199E-03   8.30530370E-03   8.27609095E-03   8.25932090E-03   3.42549873E+04   4.53122585E+04   4.61201205E+04   0.00000000E+00   2.83702961E+03   1.93122024E-05   6.92870132E-05   6.81329599E-05   2.36602466E-05   3.52254970E+01   4.24384690E+01   1.42915119E+03   3.18127256E+01   3.40963654E+02   3.85412370E+01   3.97154295E+01   5.65640722E+02   3.90435160E+01   5.60021246E+01
   2.71250000E+02   5.00000000E-01   5.00000000E-01   1.30992478E+05   4.79604508E+04   1.22664574E-03   8.55908909E-04   8.35147864E-04   6.33661720E+03   6.33821844E-06   4.51960197E-02   2.93931465E+00   8.80182037E-02   1.33034266E+06   3.65096490E-02   3.81079931E-02   3.73733429E-02   3.70816295E-02   2.00600656E+04   1.76160553E+04   1.15603191E+05   3.08932586E+04   3.45185021E+05   0.00000000E+00   8.07234468E-03   8.30524781E-03   8.27698491E-03   8.26018193E-03   3.42549893E+04   4.53262128E+04   4.61201205E+04   0.00000000E+00   2.83702962E+03   1.93122178E-05   6.92870132E-05   6.81329599E-05   2.36600606E-05   3.52254964E+01   4.24384686E+01   1.42900866E+03   3.18127252E+01   3.40963654E+02   3.85412370E+01   3.97154295E+01   5.65640814E+02   3.90435160E+01   5.60021246E+01
   2.88750000E+02   5.00000000E-01   5.00000000E-01   1.30992478E+05   4.79648504E+04   1.22664583E-03   8.56983217E-04   8.36229432E-04   6.33661719E+03   6.33895802E-06   4.53899765E-02   2.73632183E+00   8.94383368E-02   1.31653469E+06   3.65098086E-02   3.81079981E-02   3.73740577E-02   3.70822743E-02   2.00600660E+04   1.76160782E+04   1.15603191E+05   3.08853528E+04   3.45755977E+05   0.00000000E+00   8.07254351E-03   8.30516909E-03   8.27781890E-03   8.26081480E-03   3.42549902E+04   4.53384052E+04   4.61201205E+04   0.00000000E+00   2.83702962E+03   1.93122314E-05   6.92870132E-05   6.81329599E-05   2.36597642E-05   3.52254956E+01   4.24384678E+01   1.42886844E+03   3.18127249E+01   3.40963654E+02   3.85412370E+01   3.97154295E+01   5.65640907E+02   3.90435160E+01   5.60021246E+01
   3.06250000E+02   5.00000000E-01   5.00000000E-01   1.30992478E+05   4.79693011E+04   1.22664594E-03   8.58222102E-04   8.37448861E-04   6.33661719E+03   6.33973871E-06   4.55641687E-02   2.53930930E+00   9.07318920E-02   1.30173517E+06   3.65099624E-02   3.81079952E-02   3.73747443E-02   3.70828332E-02   2.00600663E+04   1.76161002E+04   1.15603191E+05   3.08746529E+04   3.46477277E+05   0.00000000E+00   8.07273189E-03   8.30507440E-03   8.27860759E-03   8.26127403E-03   3.42549904E+04   4.53489750E+04   4.61201205E+04   0.00000000E+00   2.83702962E+03   1.93122435E-05   6.92870132E-05   6.81329599E-05   2.36593772E-05   3.52254947E+01   4.24384666E+01   1.42873036E+03   3.18127246E+01   3.40963654E+02   3.85412370E+01   3.97154295E+01   5.65641002E+02   3.90435160E+01   5.60021246E+01
   3.23750000E+02   5.00000000E-01   5.00000000E-01   1.30992478E+05   4.79737940E+04   1.22664605E-03   8.59616287E-04   8.38800196E-04   6.33661718E+03   6.34056254E-06   4.57214289E-02   2.35150513E+00   9.19173837E-02   1.28631513E+06   3.65101118E-02   3.81079863E-02   3.73754097E-02   3.70833239E-02   2.00600667E+04   1.76161214E+04   1.15603191E+05   3.08617478E+04   3.47315089E+05   0.00000000E+00   8.07291186E-03   8.30496809E-03   8.27935965E-03   8.26159374E-03   3.42549901E+04   4.53580884E+04   4.61201205E+04   0.00000000E+00   2.83702962E+03   1.93122544E-05   6.92870132E-05   6.81329599E-05   2.36589150E-05   3.52254937E+01   4.24384650E+01   1.42859439E+03   3.18127243E+01   3.40963654E+02   3.85412370E+01   3.97154295E+01   5.65641099E+02   3.90435160E+01   5.60021245E+01
   3.41250000E+02   5.00000000E-01   5.00000000E-01   1.30992479E+05   4.79783216E+04   1.22664617E-03   8.61163080E-04   8.40282672E-04   6.33661717E+03   6.34143186E-06   4.58643279E-02   2.17478251E+00   9.30118785E-02   1.27046905E+06   3.65102575E-02   3.81079725E-02   3.73760573E-02   3.70837562E-02   2.00600671E+04   1.76161418E+04   1.15603191E+05   3.08470543E+04   3.48246367E+05   0.00000000E+00   8.07308445E-03   8.30485281E-03   8.28007948E-03   8.26179424E-03   3.42549893E+04   4.53659238E+04   4.61201205E+04   0.00000000E+00   2.83702962E+03   1.93122644E-05   6.92870132E-05   6.81329599E-05   2.36583904E-05   3.52254926E+01   4.24384630E+01   1.42846054E+03   3.18127240E+01   3.40963654E+02   3.85412370E+01   3.97154295E+01   5.65641198E+02   3.90435160E+01   5.60021245E+01
   3.58750000E+02   5.00000000E-01   5.00000000E-01   1.30992479E+05   4.79828784E+04   1.22664629E-03   8.62866180E-04   8.41900657E-04   6.33661716E+03   6.34234933E-06   4.59951466E-02   2.01003107E+00   9.40306434E-02   1.25428412E+06   3.65103998E-02   3.81079544E-02   3.73766879E-02   3.70841343E-02   2.00600675E+04   1.76161615E+04   1.15603191E+05   3.08308765E+04   3.49255027E+05   0.00000000E+00   8.07325001E-03   8.30473024E-03   8.28076866E-03   8.26188714E-03   3.42549881E+04   4.53726600E+04   4.61201205E+04   0.00000000E+00   2.83702962E+03   1.93122734E-05   6.92870132E-05   6.81329599E-05   2.36578136E-05   3.52254914E+01   4.24384607E+01   1.42832887E+03   3.18127238E+01   3.40963654E+02   3.85412370E+01   3.97154295E+01   5.65641298E+02   3.90435160E+01   5.60021245E+01
   3.76250000E+02   5.00000000E-01   5.00000000E-01   1.30992479E+05   4.79874599E+04   1.22664643E-03   8.64735053E-04   8.43663240E-04   6.33661715E+03   6.34331789E-06   4.61158740E-02   1.85746224E+00   9.49870392E-02   1.23779030E+06   3.65105383E-02   3.81079324E-02   3.73773003E-02   3.70844596E-02   2.00600679E+04   1.76161805E+04   1.15603191E+05   3.08134470E+04   3.50329249E+05   0.00000000E+00   8.07340854E-03   8.30460143E-03   8.28142710E-03   8.26187910E-03   3.42549866E+04   4.53784656E+04   4.61201205E+04   0.00000000E+00   2.83702962E+03   1.93122816E-05   6.92870132E-05   6.81329599E-05   2.36571932E-05   3.52254901E+01   4.24384580E+01   1.42819944E+03   3.18127236E+01   3.40963654E+02   3.85412370E+01   3.97154295E+01   5.65641400E+02   3.90435160E+01   5.60021245E+01
   3.93750000E+02   5.00000000E-01   5.00000000E-01   1.30992479E+05   4.79920631E+04   1.22664657E-03   8.66784025E-04   8.45583580E-04   6.33661713E+03   6.34434073E-06   4.62282276E-02   1.71684601E+00   9.58926142E-02   1.22099353E+06   3.65106727E-02   3.81079065E-02   3.73778929E-02   3.70847320E-02   2.00600684E+04   1.76161988E+04   1.15603191E+05   3.07949551E+04   3.51459656E+05   0.00000000E+00   8.07355982E-03   8.30446718E-03   8.28205396E-03   8.26177451E-03   3.42549847E+04   4.53834929E+04   4.61201205E+04   0.00000000E+00   2.83702962E+03   1.93122890E-05   6.92870132E-05   6.81329599E-05   2.36565366E-05   3.52254887E+01   4.24384551E+01   1.42807233E+03   3.18127234E+01   3.40963654E+02   3.85412370E+01   3.97154295E+01   5.65641505E+02   3.90435160E+01   5.60021245E+01
   4.11250000E+02   5.00000000E-01   5.00000000E-01   1.30992479E+05   4.79966852E+04   1.22664672E-03   8.69031364E-04   8.47678218E-04   6.33661712E+03   6.34542128E-06   4.63336848E-02   1.58768252E+00   9.67573081E-02   1.20389348E+06   3.65108026E-02   3.81078771E-02   3.73784635E-02   3.70849511E-02   2.00600688E+04   1.76162164E+04   1.15603191E+05   3.07755642E+04   3.52638224E+05   0.00000000E+00   8.07370362E-03   8.30432817E-03   8.28264822E-03   8.26157718E-03   3.42549824E+04   4.53878753E+04   4.61201205E+04   0.00000000E+00   2.83702962E+03   1.93122954E-05   6.92870132E-05   6.81329599E-05   2.36558497E-05   3.52254873E+01   4.24384518E+01   1.42794761E+03   3.18127232E+01   3.40963654E+02   3.85412370E+01   3.97154295E+01   5.65641611E+02   3.90435160E+01   5.60021245E+01
   4.28750000E+02   5.00000000E-01   5.00000000E-01   1.30992479E+05   4.80013242E+04   1.22664687E-03   8.71498494E-04   8.49966491E-04   6.33661711E+03   6.34656317E-06   4.64335135E-02   1.46931794E+00   9.75896563E-02   1.18648832E+06   3.65109274E-02   3.81078443E-02   3.73790103E-02   3.70851170E-02   2.00600693E+04   1.76162335E+04   1.15603191E+05   3.07554210E+04   3.53857778E+05   0.00000000E+00   8.07383974E-03   8.30418504E-03   8.28320902E-03   8.26129108E-03   3.42549799E+04   4.53917280E+04   4.61201205E+04   6.72206774E-23   2.83702962E+03   1.93123011E-05   6.92870132E-05   6.81329599E-05   2.36551379E-05   3.52254858E+01   4.24384483E+01   1.42782538E+03   3.18127230E+01   3.40963654E+02   3.85412370E+01   3.97154295E+01   5.65641720E+02   3.90435160E+01   5.60021245E+01
   4.46250000E+02   5.00000000E-01   5.00000000E-01   1.30992480E+05   4.80059780E+04   1.22664704E-03   8.74209446E-04   8.52470116E-04   6.33661709E+03   6.34777028E-06   4.65287917E-02   1.36101762E+00   9.83969049E-02   1.16877169E+06   3.65110468E-02   3.81078083E-02   3.73795315E-02   3.70852297E-02   2.00600698E+04   1.76162500E+04   1.15603191E+05   3.07346586E+04   3.55111862E+05   0.00000000E+00   8.07396801E-03   8.30403845E-03   8.28373570E-03   8.26092046E-03   3.42549770E+04   4.53951514E+04   4.61201205E+04   0.00000000E+00   2.83702963E+03   1.93123059E-05   6.92870132E-05   6.81329599E-05   2.36544055E-05   3.52254843E+01   4.24384446E+01   1.42770571E+03   3.18127228E+01   3.40963654E+02   3.85412370E+01   3.97154295E+01   5.65641830E+02   3.90435160E+01   5.60021245E+01
   4.63750000E+02   5.00000000E-01   5.00000000E-01   1.30992480E+05   4.80106444E+04   1.22664721E-03   8.77190552E-04   8.55212966E-04   6.33661708E+03   6.34904672E-06   4.66204141E-02   1.26201122E+00   9.91850117E-02   1.15072800E+06   3.65111605E-02   3.81077692E-02   3.73800255E-02   3.70852897E-02   2.00600702E+04   1.76162659E+04   1.15603191E+05   3.07133972E+04   3.56394781E+05   0.00000000E+00   8.07408829E-03   8.30388898E-03   8.28422772E-03   8.26046961E-03   3.42549738E+04   4.53982342E+04   4.61201205E+04   4.93106650E-09   2.83702963E+03   1.93123099E-05   6.92870132E-05   6.81329599E-05   2.36536563E-05   3.52254827E+01   4.24384406E+01   1.42758867E+03   3.18127227E+01   3.40963654E+02   3.85412370E+01   3.97154295E+01   5.65641943E+02   3.90435160E+01   5.60021245E+01
   4.81250000E+02   5.00000000E-01   5.00000000E-01   1.30992480E+05   4.80153206E+04   1.22664740E-03   8.80470373E-04   8.58221044E-04   6.33661707E+03   6.35039684E-06   4.67090889E-02   1.17152251E+00   9.99585772E-02   1.13233118E+06   3.65112680E-02   3.81077272E-02   3.73804904E-02   3.70852973E-02   2.00600708E+04   1.76162813E+04   1.15603191E+05   3.06917440E+04   3.57701612E+05   0.00000000E+00   8.07420048E-03   8.30373718E-03   8.28468455E-03   8.25994264E-03   3.42549704E+04   4.54010546E+04   4.61201205E+04   3.08677923E-08   2.83702963E+03   1.93123130E-05   6.92870132E-05   6.81329599E-05   2.36528937E-05   3.52254811E+01   4.24384365E+01   1.42747433E+03   3.18127225E+01   3.40963654E+02   3.85412370E+01   3.97154295E+01   5.65642059E+02   3.90435160E+01   5.60021245E+01
   4.98750000E+02   5.00000000E-01   5.00000000E-01   1.30992481E+05   4.80200037E+04   1.22664759E-03   8.84079902E-04   8.61522671E-04   6.33661705E+03   6.35182533E-06   4.67953378E-02   1.08879204E+00   1.00720798E-01   1.11354869E+06   3.65113689E-02   3.81076826E-02   3.73809243E-02   3.70852525E-02   2.00600713E+04   1.76162961E+04   1.15603191E+05   3.06697948E+04   3.59028086E+05   0.00000000E+00   8.07430443E-03   8.30358356E-03   8.28510573E-03   8.25934350E-03   3.42549668E+04   4.54036798E+04   4.61201205E+04   7.03983060E-08   2.83702963E+03   1.93123153E-05   6.92870132E-05   6.81329599E-05   2.36521204E-05   3.52254794E+01   4.24384322E+01   1.42736277E+03   3.18127224E+01   3.40963654E+02   3.85412370E+01   3.97154295E+01   5.65642177E+02   3.90435160E+01   5.60021245E+01
   5.16250000E+02   5.00000000E-01   5.00000000E-01   1.30992481E+05   4.80246901E+04   1.22664780E-03   8.88053025E-04   8.65148898E-04   6.33661703E+03   6.35333716E-06   4.68795069E-02   1.01309620E+00   1.01473529E-01   1.09434944E+06   3.65114627E-02   3.81076354E-02   3.73813257E-02   3.70851559E-02   2.00600718E+04   1.76163105E+04   1.15603191E+05   3.06476363E+04   3.60370354E+05   0.00000000E+00   8.07440007E-03   8.30342858E-03   8.28549089E-03   8.25867627E-03   3.42549628E+04   4.54061636E+04   4.61201205E+04   1.29835172E-07   2.83702963E+03   1.93123169E-05   6.92870132E-05   6.81329599E-05   2.36513389E-05   3.52254778E+01   4.24384278E+01   1.42725404E+03   3.18127223E+01   3.40963654E+02   3.85412370E+01   3.97154295E+01   5.65642298E+02   3.90435160E+01   5.60021245E+01
   5.33750000E+02   5.00000000E-01   5.00000000E-01   1.30992482E+05   4.80293761E+04   1.22664802E-03   8.92427256E-04   8.69134161E-04   6.33661701E+03   6.35493770E-06   4.69617950E-02   9.43762750E-01   1.02217504E-01   1.07471212E+06   3.65115493E-02   3.81075859E-02   3.73816931E-02   3.70850086E-02   2.00600724E+04   1.76163244E+04   1.15603191E+05   3.06253493E+04   3.61724726E+05   0.00000000E+00   8.07448739E-03   8.30327274E-03   8.28584007E-03   8.25794549E-03   3.42549587E+04   4.54085437E+04   4.61201205E+04   2.18434796E-07   2.83702963E+03   1.93123176E-05   6.92870132E-05   6.81329599E-05   2.36505514E-05   3.52254761E+01   4.24384232E+01   1.42714821E+03   3.18127222E+01   3.40963654E+02   3.85412370E+01   3.97154296E+01   5.65642421E+02   3.90435160E+01   5.60021245E+01
   5.51250000E+02   5.00000000E-01   5.00000000E-01   1.30992482E+05   4.80340577E+04   1.22664825E-03   8.97244696E-04   8.73517121E-04   6.33661699E+03   6.35663271E-06   4.70422960E-02   8.80180995E-01   1.02952683E-01   1.05463012E+06   3.65116284E-02   3.81075342E-02   3.73820260E-02   3.70848123E-02   2.00600730E+04   1.76163378E+04   1.15603191E+05   3.06030116E+04   3.63087475E+05   0.00000000E+00   8.07456651E-03   8.30311655E-03   8.28615381E-03   8.25715652E-03   3.42549543E+04   4.54108405E+04   4.61201205E+04   3.49820858E-07   2.83702964E+03   1.93123176E-05   6.92870132E-05   6.81329599E-05   2.36497598E-05   3.52254744E+01   4.24384186E+01   1.42704533E+03   3.18127221E+01   3.40963654E+02   3.85412370E+01   3.97154296E+01   5.65642547E+02   3.90435160E+01   5.60021245E+01
   5.68750000E+02   5.00000000E-01   5.00000000E-01   1.30992483E+05   4.80387308E+04   1.22664850E-03   9.02553142E-04   8.78341656E-04   6.33661697E+03   6.35842837E-06   4.71210454E-02   8.21805200E-01   1.03678631E-01   1.03411072E+06   3.65117001E-02   3.81074808E-02   3.73823245E-02   3.70845702E-02   2.00600736E+04   1.76163508E+04   1.15603191E+05   3.05806986E+04   3.64454793E+05   0.00000000E+00   8.07463770E-03   8.30296057E-03   8.28643328E-03   8.25631559E-03   3.42549498E+04   4.54130592E+04   4.61201205E+04   5.44128661E-07   2.83702964E+03   1.93123168E-05   6.92870132E-05   6.81329599E-05   2.36489658E-05   3.52254727E+01   4.24384138E+01   1.42694546E+03   3.18127220E+01   3.40963654E+02   3.85412370E+01   3.97154296E+01   5.65642676E+02   3.90435160E+01   5.60021245E+01
   5.86250000E+02   5.00000000E-01   5.00000000E-01   1.30992483E+05   4.80433911E+04   1.22664875E-03   9.08407268E-04   8.83657930E-04   6.33661695E+03   6.36033137E-06   4.71980569E-02   7.68151374E-01   1.04394822E-01   1.01316891E+06   3.65117645E-02   3.81074260E-02   3.73825895E-02   3.70842858E-02   2.00600742E+04   1.76163633E+04   1.15603191E+05   3.05584833E+04   3.65822905E+05   0.00000000E+00   8.07470135E-03   8.30280538E-03   8.28668018E-03   8.25542959E-03   3.42549451E+04   4.54151940E+04   4.61201205E+04   8.31253978E-07   2.83702964E+03   1.93123154E-05   6.92870132E-05   6.81329599E-05   2.36481708E-05   3.52254710E+01   4.24384090E+01   1.42684865E+03   3.18127219E+01   3.40963654E+02   3.85412370E+01   3.97154296E+01   5.65642808E+02   3.90435160E+01   5.60021245E+01
   6.03750000E+02   5.00000000E-01   5.00000000E-01   1.30992484E+05   4.80480336E+04   1.22664903E-03   9.14869855E-04   8.89523504E-04   6.33661693E+03   6.36234893E-06   4.72733396E-02   7.18789186E-01   1.05100757E-01   9.91818498E+05   3.65118219E-02   3.81073700E-02   3.73828221E-02   3.70839632E-02   2.00600749E+04   1.76163753E+04   1.15603191E+05   3.05364337E+04   3.67188286E+05   0.00000000E+00   8.07475792E-03   8.30265151E-03   8.28689655E-03   8.25450555E-03   3.42549403E+04   4.54172336E+04   4.61201205E+04   1.25580442E-06   2.83702964E+03   1.93123133E-05   6.92870132E-05   6.81329599E-05   2.36473760E-05   3.52254693E+01   4.24384041E+01   1.42675496E+03   3.18127219E+01   3.40963654E+02   3.85412370E+01   3.97154296E+01   5.65642943E+02   3.90435160E+01   5.60021245E+01
   6.21250000E+02   5.00000000E-01   5.00000000E-01   1.30992485E+05   4.80526531E+04   1.22664932E-03   9.22013067E-04   8.96004522E-04   6.33661691E+03   6.36448889E-06   4.73468915E-02   6.73331962E-01   1.05795879E-01   9.70064355E+05   3.65118725E-02   3.81073133E-02   3.73830236E-02   3.70836061E-02   2.00600755E+04   1.76163870E+04   1.15603191E+05   3.05146106E+04   3.68547883E+05   0.00000000E+00   8.07480791E-03   8.30249947E-03   8.28708448E-03   8.25355011E-03   3.42549354E+04   4.54191669E+04   4.61201205E+04   1.88469164E-06   2.83702965E+03   1.93123107E-05   6.92870132E-05   6.81329599E-05   2.36465826E-05   3.52254676E+01   4.24383992E+01   1.42666441E+03   3.18127218E+01   3.40963654E+02   3.85412370E+01   3.97154296E+01   5.65643081E+02   3.90435160E+01   5.60021245E+01