 TITLE = "Mineral Area" 
VARIABLES = "X"          "Y"              "Z"            "Forsterite"     "Fayalite"       "Brucite"        "Lizardite"      "Chrysotile"     "Hematite"       "Magnetite(am)"  "Saponite(Ca)"   "Saponite(K)"    "Saponite(Mg)"   "Saponite(Na)"   "Beidellite(Ca)" "Beidellite(K)"  "Beidellite(Mg)" "Beidellite(Na)" "Enstatite(alph" "Ferrosilite(al" "Anorthite"      "Albite(low)"    "Clinochlore"    "Sudoite"        "Montmor(MgCa)"  "Montmor(MgK)"   "Montmor(MgMg)"  "Montmor(MgNa)"  "Kaolinite"      "Tremolite"      "Pargasite"      "Anhydrite"      "Epidote"        "Scolecite"      "Pyrite"         "FeS(am)"        "Quartz(alpha)"  "Titanite"       "Rutile"         "Barite"         "Fluorite"       "Spessartine(al" "Andradite"      "Celestite"      "Zincite"        "Chalcocyanite"  "Chalcocite(alp"
 ZONE I=         200 , J=           1 , K=           1  F=POINT
   8.75000000E+00   5.00000000E-01   5.00000000E-01   1.31268178E+05   4.79496227E+04   1.24371357E-03   1.17893068E-03   1.08259876E-03   5.79450164E+03   1.02550040E-05   3.86601196E-02   7.72316117E-01   4.69655993E-02   9.68281713E+04   3.65778654E-02   3.81126514E-02   3.74290689E-02   3.71216810E-02   2.00601622E+04   1.76156915E+04   1.16424499E+05   2.96018362E+04   3.88715403E+05   0.00000000E+00   8.06971582E-03   8.29770722E-03   8.25441360E-03   8.18958839E-03   3.42593124E+04   4.53740506E+04   4.64773938E+04   0.00000000E+00   2.89171030E+03   1.96130649E-05   6.97774067E-05   6.84858941E-05   2.35904411E-05   3.52255380E+01   4.24384157E+01   1.47475597E+03   3.18127420E+01   3.47697833E+02   3.85413142E+01   3.97154324E+01   5.65821373E+02   3.90435185E+01   5.60032149E+01
   2.62500000E+01   5.00000000E-01   5.00000000E-01   1.31268178E+05   4.79517021E+04   1.24371154E-03   1.05818992E-03   9.97480743E-04   5.79450161E+03   1.02559730E-05   3.95460433E-02   1.63291925E+00   5.18328780E-02   3.55217312E+05   3.65778680E-02   3.81126551E-02   3.74290808E-02   3.71217123E-02   2.00601619E+04   1.76157290E+04   1.16424499E+05   2.96377745E+04   3.83478152E+05   0.00000000E+00   8.06973262E-03   8.29774813E-03   8.25448586E-03   8.18987709E-03   3.42593137E+04   4.53952106E+04   4.64773938E+04   0.00000000E+00   2.89171030E+03   1.96130689E-05   6.97774067E-05   6.84858941E-05   2.36044779E-05   3.52255309E+01   4.24384216E+01   1.44906474E+03   3.18127410E+01   3.47697833E+02   3.85413142E+01   3.97154324E+01   5.65821409E+02   3.90435185E+01   5.60021235E+01
   4.37500000E+01   5.00000000E-01   5.00000000E-01   1.31268177E+05   4.79537627E+04   1.24371067E-03   9.93940047E-04   9.51005005E-04   5.79450161E+03   1.02566124E-05   4.01065817E-02   2.07819107E+00   5.49924990E-02   4.00307603E+05   3.65778976E-02   3.81126952E-02   3.74292185E-02   3.71220628E-02   2.00601617E+04   1.76157613E+04   1.16424499E+05   2.97386656E+04   3.77926626E+05   0.00000000E+00   8.06984416E-03   8.29800520E-03   8.25496513E-03   8.19173637E-03   3.42593218E+04   4.54100663E+04   4.64773938E+04   0.00000000E+00   2.89171030E+03   1.96130895E-05   6.97774067E-05   6.84858941E-05   2.36166327E-05   3.52255252E+01   4.24384270E+01   1.43883851E+03   3.18127402E+01   3.47697833E+02   3.85413142E+01   3.97154324E+01   5.65821410E+02   3.90435185E+01   5.60021235E+01
   6.12500000E+01   5.00000000E-01   5.00000000E-01   1.31268177E+05   4.79559042E+04   1.24371026E-03   9.60842414E-04   9.26784128E-04   5.79450160E+03   1.02571676E-05   4.05675967E-02   2.38191013E+00   5.76527362E-02   4.92418053E+05   3.65779930E-02   3.81128171E-02   3.74296602E-02   3.71231547E-02   2.00601617E+04   1.76157925E+04   1.16424499E+05   2.98926071E+04   3.69147587E+05   0.00000000E+00   8.07012182E-03   8.29860571E-03   8.25615701E-03   8.19620629E-03   3.42593382E+04   4.54223305E+04   4.64773938E+04   0.00000000E+00   2.89171030E+03   1.96131301E-05   6.97774067E-05   6.84858941E-05   2.36267409E-05   3.52255225E+01   4.24384321E+01   1.43449720E+03   3.18127393E+01   3.47697833E+02   3.85413142E+01   3.97154324E+01   5.65821427E+02   3.90435185E+01   5.60021235E+01
   7.87500000E+01   5.00000000E-01   5.00000000E-01   1.31268177E+05   4.79582861E+04   1.24371005E-03   9.44201010E-04   9.14606866E-04   5.79450160E+03   1.02577317E-05   4.10521284E-02   2.71435337E+00   6.05255348E-02   6.30671978E+05   3.65781769E-02   3.81130382E-02   3.74305109E-02   3.71251916E-02   2.00601617E+04   1.76158234E+04   1.16424499E+05   3.00712994E+04   3.58542476E+05   0.00000000E+00   8.07057099E-03   8.29951178E-03   8.25808312E-03   8.20316851E-03   3.42593614E+04   4.54381062E+04   4.64773938E+04   0.00000000E+00   2.89171030E+03   1.96131869E-05   6.97774067E-05   6.84858941E-05   2.36347400E-05   3.52255216E+01   4.24384368E+01   1.43252677E+03   3.18127386E+01   3.47697833E+02   3.85413142E+01   3.97154324E+01   5.65821461E+02   3.90435185E+01   5.60021235E+01
   9.62500000E+01   5.00000000E-01   5.00000000E-01   1.31268177E+05   4.79609541E+04   1.24370994E-03   9.35401513E-04   9.08237588E-04   5.79450160E+03   1.02583315E-05   4.15642354E-02   3.06196115E+00   6.36431386E-02   7.78240897E+05   3.65784489E-02   3.81133446E-02   3.74317670E-02   3.71280987E-02   2.00601619E+04   1.76158540E+04   1.16424499E+05   3.02488835E+04   3.47868536E+05   0.00000000E+00   8.07114593E-03   8.30058616E-03   8.26054614E-03   8.21172072E-03   3.42593894E+04   4.54582850E+04   4.64773938E+04   0.00000000E+00   2.89171030E+03   1.96132541E-05   6.97774067E-05   6.84858941E-05   2.36408085E-05   3.52255215E+01   4.24384411E+01   1.43155744E+03   3.18127379E+01   3.47697833E+02   3.85413142E+01   3.97154324E+01   5.65821506E+02   3.90435185E+01   5.60021235E+01
   1.13750000E+02   5.00000000E-01   5.00000000E-01   1.31268177E+05   4.79638895E+04   1.24370989E-03   9.30372728E-04   9.04679029E-04   5.79450159E+03   1.02589731E-05   4.20763163E-02   3.36928067E+00   6.68396425E-02   9.07369842E+05   3.65787771E-02   3.81136880E-02   3.74332797E-02   3.71314685E-02   2.00601621E+04   1.76158840E+04   1.16424499E+05   3.04054324E+04   3.38471646E+05   0.00000000E+00   8.07176621E-03   8.30164686E-03   8.26320056E-03   8.22052102E-03   3.42594184E+04   4.54815512E+04   4.64773938E+04   0.00000000E+00   2.89171030E+03   1.96133232E-05   6.97774067E-05   6.84858941E-05   2.36452719E-05   3.52255217E+01   4.24384449E+01   1.43102883E+03   3.18127373E+01   3.47697833E+02   3.85413142E+01   3.97154324E+01   5.65821559E+02   3.90435185E+01   5.60021235E+01
   1.31250000E+02   5.00000000E-01   5.00000000E-01   1.31268177E+05   4.79670586E+04   1.24370988E-03   9.27302793E-04   9.02586736E-04   5.79450159E+03   1.02596590E-05   4.25653815E-02   3.59522341E+00   6.99638005E-02   1.00693628E+06   3.65791174E-02   3.81140145E-02   3.74348453E-02   3.71348042E-02   2.00601623E+04   1.76159133E+04   1.16424499E+05   3.05313128E+04   3.30972080E+05   0.00000000E+00   8.07235857E-03   8.30255614E-03   8.26573235E-03   8.22846169E-03   3.42594448E+04   4.55062544E+04   4.64773938E+04   0.00000000E+00   2.89171030E+03   1.96133868E-05   6.97774067E-05   6.84858941E-05   2.36484834E-05   3.52255219E+01   4.24384483E+01   1.43070183E+03   3.18127367E+01   3.47697833E+02   3.85413142E+01   3.97154324E+01   5.65821618E+02   3.90435185E+01   5.60021235E+01
   1.48750000E+02   5.00000000E-01   5.00000000E-01   1.31268177E+05   4.79704315E+04   1.24370988E-03   9.25385753E-04   9.01361346E-04   5.79450158E+03   1.02603915E-05   4.30196176E-02   3.72428638E+00   7.29261901E-02   1.07674184E+06   3.65794366E-02   3.81142902E-02   3.74363106E-02   3.71377650E-02   2.00601625E+04   1.76159417E+04   1.16424499E+05   3.06259303E+04   3.25401646E+05   0.00000000E+00   8.07288212E-03   8.30325756E-03   8.26796677E-03   8.23500808E-03   3.42594668E+04   4.55311295E+04   4.64773938E+04   0.00000000E+00   2.89171030E+03   1.96134413E-05   6.97774067E-05   6.84858941E-05   2.36507542E-05   3.52255222E+01   4.24384511E+01   1.43047052E+03   3.18127361E+01   3.47697833E+02   3.85413142E+01   3.97154324E+01   5.65821683E+02   3.90435185E+01   5.60021235E+01
   1.66250000E+02   5.00000000E-01   5.00000000E-01   1.31268177E+05   4.79739841E+04   1.24370991E-03   9.24237264E-04   9.00717575E-04   5.79450157E+03   1.02611733E-05   4.34349480E-02   3.76028019E+00   7.56848962E-02   1.12146543E+06   3.65797188E-02   3.81145042E-02   3.74376023E-02   3.71402137E-02   2.00601628E+04   1.76159694E+04   1.16424499E+05   3.06935002E+04   3.21491429E+05   0.00000000E+00   8.07332577E-03   8.30375585E-03   8.26985689E-03   8.24009746E-03   3.42594839E+04   4.55553489E+04   4.64773938E+04   0.00000000E+00   2.89171030E+03   1.96134858E-05   6.97774067E-05   6.84858941E-05   2.36523299E-05   3.52255223E+01   4.24384535E+01   1.43028632E+03   3.18127356E+01   3.47697833E+02   3.85413142E+01   3.97154323E+01   5.65821752E+02   3.90435185E+01   5.60021235E+01
   1.83750000E+02   5.00000000E-01   5.00000000E-01   1.31268177E+05   4.79776951E+04   1.24370995E-03   9.23650187E-04   9.00502270E-04   5.79450157E+03   1.02620066E-05   4.38111755E-02   3.71719196E+00   7.82246871E-02   1.14699411E+06   3.65799610E-02   3.81146601E-02   3.74387079E-02   3.71421549E-02   2.00601630E+04   1.76159962E+04   1.16424499E+05   3.07396388E+04   3.18887703E+05   0.00000000E+00   8.07369583E-03   8.30408446E-03   8.27143022E-03   8.24391452E-03   3.42594966E+04   4.55783789E+04   4.64773938E+04   0.00000000E+00   2.89171030E+03   1.96135213E-05   6.97774067E-05   6.84858941E-05   2.36533930E-05   3.52255223E+01   4.24384554E+01   1.43012626E+03   3.18127352E+01   3.47697833E+02   3.85413142E+01   3.97154323E+01   5.65821825E+02   3.90435185E+01   5.60021235E+01
   2.01250000E+02   5.00000000E-01   5.00000000E-01   1.31268178E+05   4.79815441E+04   1.24371001E-03   9.23498470E-04   9.00622620E-04   5.79450156E+03   1.02628932E-05   4.41498577E-02   3.61258924E+00   8.05444888E-02   1.15869238E+06   3.65801674E-02   3.81147683E-02   3.74396472E-02   3.71436611E-02   2.00601633E+04   1.76160222E+04   1.16424499E+05   3.07695884E+04   3.17262041E+05   0.00000000E+00   8.07400542E-03   8.30428325E-03   8.27274350E-03   8.24672109E-03   3.42595056E+04   4.55998689E+04   4.64773938E+04   0.00000000E+00   2.89171030E+03   1.96135494E-05   6.97774067E-05   6.84858941E-05   2.36540749E-05   3.52255223E+01   4.24384569E+01   1.42997915E+03   3.18127347E+01   3.47697833E+02   3.85413142E+01   3.97154323E+01   5.65821900E+02   3.90435185E+01   5.60021235E+01
   2.18750000E+02   5.00000000E-01   5.00000000E-01   1.31268178E+05   4.79855115E+04   1.24371007E-03   9.23698538E-04   9.01017353E-04   5.79450156E+03   1.02638347E-05   4.44533893E-02   3.46386442E+00   8.26514740E-02   1.16083365E+06   3.65803449E-02   3.81148397E-02   3.74404520E-02   3.71448234E-02   2.00601636E+04   1.76160474E+04   1.16424499E+05   3.07875937E+04   3.16349435E+05   0.00000000E+00   8.07426848E-03   8.30438775E-03   8.27385668E-03   8.24876723E-03   3.42595118E+04   4.56195969E+04   4.64773938E+04   0.00000000E+00   2.89171030E+03   1.96135719E-05   6.97774067E-05   6.84858941E-05   2.36544690E-05   3.52255220E+01   4.24384578E+01   1.42983943E+03   3.18127343E+01   3.47697833E+02   3.85413142E+01   3.97154323E+01   5.65821979E+02   3.90435185E+01   5.60021235E+01
   2.36250000E+02   5.00000000E-01   5.00000000E-01   1.31268178E+05   4.79895786E+04   1.24371014E-03   9.24191927E-04   9.01643815E-04   5.79450155E+03   1.02648330E-05   4.47246150E-02   3.28638218E+00   8.45581977E-02   1.15658249E+06   3.65805004E-02   3.81148843E-02   3.74411543E-02   3.71457266E-02   2.00601639E+04   1.76160717E+04   1.16424499E+05   3.07968547E+04   3.15950854E+05   0.00000000E+00   8.07449708E-03   8.30442593E-03   8.27482165E-03   8.25025784E-03   3.42595158E+04   4.56374433E+04   4.64773938E+04   0.00000000E+00   2.89171030E+03   1.96135900E-05   6.97774067E-05   6.84858941E-05   2.36546419E-05   3.52255217E+01   4.24384584E+01   1.42970429E+03   3.18127340E+01   3.47697833E+02   3.85413142E+01   3.97154323E+01   5.65822060E+02   3.90435185E+01   5.60021235E+01
   2.53750000E+02   5.00000000E-01   5.00000000E-01   1.31268178E+05   4.79937282E+04   1.24371022E-03   9.24936022E-04   9.02471095E-04   5.79450154E+03   1.02658895E-05   4.49666261E-02   3.09275294E+00   8.62808344E-02   1.14817413E+06   3.65806398E-02   3.81149097E-02   3.74417817E-02   3.71464401E-02   2.00601642E+04   1.76160951E+04   1.16424499E+05   3.07996929E+04   3.15922712E+05   0.00000000E+00   8.07470069E-03   8.30441826E-03   8.27567905E-03   8.25134762E-03   3.42595183E+04   4.56533760E+04   4.64773938E+04   0.00000000E+00   2.89171030E+03   1.96136049E-05   6.97774067E-05   6.84858941E-05   2.36546414E-05   3.52255212E+01   4.24384584E+01   1.42957231E+03   3.18127336E+01   3.47697833E+02   3.85413142E+01   3.97154323E+01   5.65822143E+02   3.90435185E+01   5.60021235E+01
   2.71250000E+02   5.00000000E-01   5.00000000E-01   1.31268178E+05   4.79979454E+04   1.24371031E-03   9.25898841E-04   9.03476155E-04   5.79450154E+03   1.02670063E-05   4.51826147E-02   2.89274225E+00   8.78377844E-02   1.13712982E+06   3.65807678E-02   3.81149216E-02   3.74423558E-02   3.71470161E-02   2.00601646E+04   1.76161177E+04   1.16424499E+05   3.07977585E+04   3.16163835E+05   0.00000000E+00   8.07488625E-03   8.30437910E-03   8.27645869E-03   8.25214748E-03   3.42595197E+04   4.56674353E+04   4.64773938E+04   0.00000000E+00   2.89171030E+03   1.96136175E-05   6.97774067E-05   6.84858941E-05   2.36545026E-05   3.52255206E+01   4.24384581E+01   1.42944276E+03   3.18127333E+01   3.47697833E+02   3.85413142E+01   3.97154323E+01   5.65822228E+02   3.90435185E+01   5.60021235E+01
   2.88750000E+02   5.00000000E-01   5.00000000E-01   1.31268178E+05   4.80022169E+04   1.24371040E-03   9.27056384E-04   9.04641894E-04   5.79450153E+03   1.02681858E-05   4.53757507E-02   2.69351682E+00   8.92484607E-02   1.12444772E+06   3.65808877E-02   3.81149241E-02   3.74428922E-02   3.71474921E-02   2.00601649E+04   1.76161395E+04   1.16424499E+05   3.07922139E+04   3.16603937E+05   0.00000000E+00   8.07505860E-03   8.30431816E-03   8.27718128E-03   8.25273375E-03   3.42595203E+04   4.56797195E+04   4.64773938E+04   0.00000000E+00   2.89171030E+03   1.96136284E-05   6.97774067E-05   6.84858941E-05   2.36542517E-05   3.52255198E+01   4.24384574E+01   1.42931530E+03   3.18127330E+01   3.47697833E+02   3.85413142E+01   3.97154323E+01   5.65822315E+02   3.90435185E+01   5.60021235E+01
   3.06250000E+02   5.00000000E-01   5.00000000E-01   1.31268178E+05   4.80065320E+04   1.24371050E-03   9.28391673E-04   9.05956514E-04   5.79450152E+03   1.02694306E-05   4.55490781E-02   2.50004306E+00   9.05322490E-02   1.11075449E+06   3.65810020E-02   3.81149197E-02   3.74434015E-02   3.71478931E-02   2.00601653E+04   1.76161604E+04   1.16424499E+05   3.07838760E+04   3.17194598E+05   0.00000000E+00   8.07522092E-03   8.30424186E-03   8.27786044E-03   8.25315713E-03   3.42595203E+04   4.56903689E+04   4.64773938E+04   0.00000000E+00   2.89171030E+03   1.96136380E-05   6.97774067E-05   6.84858941E-05   2.36539090E-05   3.52255189E+01   4.24384562E+01   1.42918977E+03   3.18127327E+01   3.47697833E+02   3.85413142E+01   3.97154323E+01   5.65822404E+02   3.90435185E+01   5.60021235E+01
   3.23750000E+02   5.00000000E-01   5.00000000E-01   1.31268178E+05   4.80108815E+04   1.24371061E-03   9.29894709E-04   9.07413600E-04   5.79450152E+03   1.02707439E-05   4.57054330E-02   2.31552721E+00   9.17076729E-02   1.09642064E+06   3.65811119E-02   3.81149103E-02   3.74438900E-02   3.71482348E-02   2.00601656E+04   1.76161805E+04   1.16424499E+05   3.07733225E+04   3.17902545E+05   0.00000000E+00   8.07537514E-03   8.30415431E-03   8.27850443E-03   8.25344993E-03   3.42595198E+04   4.56995508E+04   4.64773938E+04   0.00000000E+00   2.89171031E+03   1.96136465E-05   6.97774067E-05   6.84858941E-05   2.36534902E-05   3.52255179E+01   4.24384548E+01   1.42906615E+03   3.18127325E+01   3.47697833E+02   3.85413142E+01   3.97154323E+01   5.65822494E+02   3.90435185E+01   5.60021235E+01
   3.41250000E+02   5.00000000E-01   5.00000000E-01   1.31268178E+05   4.80152584E+04   1.24371072E-03   9.31562596E-04   9.09012336E-04   5.79450151E+03   1.02721297E-05   4.58473882E-02   2.14183493E+00   9.27917938E-02   1.08164712E+06   3.65812181E-02   3.81148967E-02   3.74443610E-02   3.71485262E-02   2.00601660E+04   1.76161999E+04   1.16424499E+05   3.07609676E+04   3.18704782E+05   0.00000000E+00   8.07552228E-03   8.30405811E-03   8.27911766E-03   8.25363193E-03   3.42595189E+04   4.57074452E+04   4.64773938E+04   0.00000000E+00   2.89171031E+03   1.96136542E-05   6.97774067E-05   6.84858941E-05   2.36530081E-05   3.52255168E+01   4.24384529E+01   1.42894444E+03   3.18127322E+01   3.47697833E+02   3.85413142E+01   3.97154323E+01   5.65822586E+02   3.90435185E+01   5.60021235E+01
   3.58750000E+02   5.00000000E-01   5.00000000E-01   1.31268178E+05   4.80196569E+04   1.24371084E-03   9.33399341E-04   9.10757449E-04   5.79450150E+03   1.02735920E-05   4.59772252E-02   1.97985862E+00   9.37998628E-02   1.06653031E+06   3.65813208E-02   3.81148796E-02   3.74448153E-02   3.71487716E-02   2.00601664E+04   1.76162185E+04   1.16424499E+05   3.07471164E+04   3.19585046E+05   0.00000000E+00   8.07566277E-03   8.30395490E-03   8.27970194E-03   8.25371479E-03   3.42595177E+04   4.57142321E+04   4.64773938E+04   0.00000000E+00   2.89171031E+03   1.96136610E-05   6.97774067E-05   6.84858941E-05   2.36524732E-05   3.52255156E+01   4.24384508E+01   1.42882470E+03   3.18127320E+01   3.47697833E+02   3.85413142E+01   3.97154323E+01   5.65822680E+02   3.90435185E+01   5.60021235E+01
   3.76250000E+02   5.00000000E-01   5.00000000E-01   1.31268179E+05   4.80240728E+04   1.24371097E-03   9.35415178E-04   9.12658765E-04   5.79450149E+03   1.02751356E-05   4.60969325E-02   1.82981947E+00   9.47452173E-02   1.05110950E+06   3.65814200E-02   3.81148592E-02   3.74452524E-02   3.71489729E-02   2.00601668E+04   1.76162365E+04   1.16424499E+05   3.07320039E+04   3.20531283E+05   0.00000000E+00   8.07579667E-03   8.30384574E-03   8.28025755E-03   8.25370550E-03   3.42595162E+04   4.57200813E+04   4.64773938E+04   0.00000000E+00   2.89171031E+03   1.96136671E-05   6.97774067E-05   6.84858941E-05   2.36518942E-05   3.52255143E+01   4.24384484E+01   1.42870699E+03   3.18127318E+01   3.47697833E+02   3.85413142E+01   3.97154323E+01   5.65822775E+02   3.90435185E+01   5.60021234E+01
   3.93750000E+02   5.00000000E-01   5.00000000E-01   1.31268179E+05   4.80285028E+04   1.24371110E-03   9.37625595E-04   9.14730509E-04   5.79450148E+03   1.02767657E-05   4.62082267E-02   1.69150156E+00   9.56393781E-02   1.03539894E+06   3.65815153E-02   3.81148359E-02   3.74456712E-02   3.71491304E-02   2.00601672E+04   1.76162537E+04   1.16424499E+05   3.07158209E+04   3.21533918E+05   0.00000000E+00   8.07592387E-03   8.30373144E-03   8.28078399E-03   8.25360877E-03   3.42595145E+04   4.57251464E+04   4.64773938E+04   0.00000000E+00   2.89171031E+03   1.96136724E-05   6.97774067E-05   6.84858941E-05   2.36512785E-05   3.52255130E+01   4.24384457E+01   1.42859137E+03   3.18127316E+01   3.47697833E+02   3.85413142E+01   3.97154323E+01   5.65822873E+02   3.90435185E+01   5.60021234E+01
   4.11250000E+02   5.00000000E-01   5.00000000E-01   1.31268179E+05   4.80329444E+04   1.24371125E-03   9.40050339E-04   9.16990563E-04   5.79450147E+03   1.02784876E-05   4.63125838E-02   1.56442148E+00   9.64922551E-02   1.01940526E+06   3.65816064E-02   3.81148096E-02   3.74460703E-02   3.71492443E-02   2.00601676E+04   1.76162704E+04   1.16424499E+05   3.06987319E+04   3.22584803E+05   0.00000000E+00   8.07604419E-03   8.30361266E-03   8.28128059E-03   8.25342862E-03   3.42595124E+04   4.57295618E+04   4.64773938E+04   0.00000000E+00   2.89171031E+03   1.96136770E-05   6.97774067E-05   6.84858941E-05   2.36506322E-05   3.52255116E+01   4.24384427E+01   1.42847792E+03   3.18127314E+01   3.47697833E+02   3.85413142E+01   3.97154323E+01   5.65822972E+02   3.90435185E+01   5.60021234E+01
   4.28750000E+02   5.00000000E-01   5.00000000E-01   1.31268179E+05   4.80373955E+04   1.24371140E-03   9.42712571E-04   9.19459831E-04   5.79450146E+03   1.02803072E-05   4.64112701E-02   1.44794273E+00   9.73123535E-02   1.00313273E+06   3.65816931E-02   3.81147808E-02   3.74464482E-02   3.71493150E-02   2.00601681E+04   1.76162864E+04   1.16424499E+05   3.06808829E+04   3.23676699E+05   0.00000000E+00   8.07615751E-03   8.30349006E-03   8.28174678E-03   8.25316906E-03   3.42595101E+04   4.57334434E+04   4.64773938E+04   1.33785736E-22   2.89171031E+03   1.96136808E-05   6.97774067E-05   6.84858941E-05   2.36499607E-05   3.52255101E+01   4.24384395E+01   1.42836672E+03   3.18127313E+01   3.47697833E+02   3.85413142E+01   3.97154323E+01   5.65823073E+02   3.90435185E+01   5.60021234E+01
   4.46250000E+02   5.00000000E-01   5.00000000E-01   1.31268179E+05   4.80418541E+04   1.24371156E-03   9.45638272E-04   9.22161791E-04   5.79450145E+03   1.02822307E-05   4.65053621E-02   1.34134800E+00   9.81068881E-02   9.86580881E+05   3.65817750E-02   3.81147494E-02   3.74468037E-02   3.71493430E-02   2.00601685E+04   1.76163018E+04   1.16424499E+05   3.06624059E+04   3.24803130E+05   0.00000000E+00   8.07626371E-03   8.30336423E-03   8.28218211E-03   8.25283428E-03   3.42595076E+04   4.57368926E+04   4.64773938E+04   0.00000000E+00   2.89171031E+03   1.96136839E-05   6.97774067E-05   6.84858941E-05   2.36492683E-05   3.52255086E+01   4.24384361E+01   1.42825783E+03   3.18127311E+01   3.47697833E+02   3.85413142E+01   3.97154324E+01   5.65823177E+02   3.90435185E+01   5.60021234E+01
   4.63750000E+02   5.00000000E-01   5.00000000E-01   1.31268180E+05   4.80463178E+04   1.24371173E-03   9.48855905E-04   9.25122252E-04   5.79450143E+03   1.02842647E-05   4.65957523E-02   1.24388373E+00   9.88817839E-02   9.69740449E+05   3.65818518E-02   3.81147157E-02   3.74471357E-02   3.71493288E-02   2.00601690E+04   1.76163167E+04   1.16424499E+05   3.06434195E+04   3.25958399E+05   0.00000000E+00   8.07636271E-03   8.30323574E-03   8.28258626E-03   8.25242839E-03   3.42595049E+04   4.57399985E+04   4.64773938E+04   9.48672035E-09   2.89171031E+03   1.96136863E-05   6.97774067E-05   6.84858941E-05   2.36485587E-05   3.52255071E+01   4.24384326E+01   1.42815132E+03   3.18127310E+01   3.47697833E+02   3.85413142E+01   3.97154324E+01   5.65823282E+02   3.90435185E+01   5.60021234E+01
   4.81250000E+02   5.00000000E-01   5.00000000E-01   1.31268180E+05   4.80507840E+04   1.24371190E-03   9.52396347E-04   9.28369322E-04   5.79450142E+03   1.02864162E-05   4.66831467E-02   1.15478957E+00   9.96416076E-02   9.52592219E+05   3.65819234E-02   3.81146798E-02   3.74474428E-02   3.71492728E-02   2.00601695E+04   1.76163311E+04   1.16424499E+05   3.06240293E+04   3.27137573E+05   0.00000000E+00   8.07645442E-03   8.30310510E-03   8.28295889E-03   8.25195534E-03   3.42595020E+04   4.57428400E+04   4.64773938E+04   5.83172904E-08   2.89171032E+03   1.96136881E-05   6.97774067E-05   6.84858941E-05   2.36478354E-05   3.52255055E+01   4.24384288E+01   1.42804726E+03   3.18127309E+01   3.47697833E+02   3.85413142E+01   3.97154324E+01   5.65823390E+02   3.90435185E+01   5.60021234E+01
   4.98750000E+02   5.00000000E-01   5.00000000E-01   1.31268180E+05   4.80552496E+04   1.24371209E-03   9.56293096E-04   9.31933613E-04   5.79450141E+03   1.02886927E-05   4.67680644E-02   1.07332093E+00   1.00389521E-01   9.35110726E+05   3.65819893E-02   3.81146418E-02   3.74477238E-02   3.71491755E-02   2.00601700E+04   1.76163449E+04   1.16424499E+05   3.06043291E+04   3.28336381E+05   0.00000000E+00   8.07653877E-03   8.30297279E-03   8.28329968E-03   8.25141886E-03   3.42594989E+04   4.57454849E+04   4.64773938E+04   1.30499181E-07   2.89171032E+03   1.96136891E-05   6.97774067E-05   6.84858941E-05   2.36471011E-05   3.52255039E+01   4.24384249E+01   1.42794570E+03   3.18127307E+01   3.47697833E+02   3.85413142E+01   3.97154324E+01   5.65823501E+02   3.90435185E+01   5.60021234E+01
   5.16250000E+02   5.00000000E-01   5.00000000E-01   1.31268181E+05   4.80597111E+04   1.24371229E-03   9.60582778E-04   9.35848690E-04   5.79450139E+03   1.02911021E-05   4.68508487E-02   9.98767909E-01   1.01127345E-01   9.17271587E+05   3.65820492E-02   3.81146020E-02   3.74479773E-02   3.71490374E-02   2.00601706E+04   1.76163583E+04   1.16424499E+05   3.05844036E+04   3.29550985E+05   0.00000000E+00   8.07661570E-03   8.30283923E-03   8.28360845E-03   8.25082273E-03   3.42594956E+04   4.57479873E+04   4.64773938E+04   2.35947507E-07   2.89171032E+03   1.96136895E-05   6.97774067E-05   6.84858941E-05   2.36463582E-05   3.52255023E+01   4.24384209E+01   1.42784671E+03   3.18127306E+01   3.47697833E+02   3.85413142E+01   3.97154324E+01   5.65823613E+02   3.90435185E+01   5.60021234E+01
   5.33750000E+02   5.00000000E-01   5.00000000E-01   1.31268181E+05   4.80641649E+04   1.24371250E-03   9.65305943E-04   9.40151774E-04   5.79450138E+03   1.02936531E-05   4.69316955E-02   9.30470780E-01   1.01855780E-01   8.99059288E+05   3.65821031E-02   3.81145604E-02   3.74482026E-02   3.71488596E-02   2.00601711E+04   1.76163711E+04   1.16424499E+05   3.05643312E+04   3.30777740E+05   0.00000000E+00   8.07668523E-03   8.30270487E-03   8.28388530E-03   8.25017113E-03   3.42594921E+04   4.57503852E+04   4.64773938E+04   3.88805163E-07   2.89171032E+03   1.96136891E-05   6.97774067E-05   6.84858941E-05   2.36456089E-05   3.52255007E+01   4.24384168E+01   1.42775035E+03   3.18127305E+01   3.47697833E+02   3.85413142E+01   3.97154324E+01   5.65823728E+02   3.90435185E+01   5.60021234E+01
   5.51250000E+02   5.00000000E-01   5.00000000E-01   1.31268182E+05   4.80686069E+04   1.24371273E-03   9.70508102E-04   9.44884659E-04   5.79450136E+03   1.02963550E-05   4.70106961E-02   8.67830091E-01   1.02574756E-01   8.80471874E+05   3.65821507E-02   3.81145173E-02   3.74483992E-02   3.71486437E-02   2.00601717E+04   1.76163836E+04   1.16424499E+05   3.05441867E+04   3.32012998E+05   0.00000000E+00   8.07674748E-03   8.30257018E-03   8.28413077E-03   8.24946888E-03   3.42594885E+04   4.57526992E+04   4.64773938E+04   6.09310299E-07   2.89171032E+03   1.96136882E-05   6.97774067E-05   6.84858941E-05   2.36448551E-05   3.52254990E+01   4.24384126E+01   1.42765665E+03   3.18127305E+01   3.47697833E+02   3.85413142E+01   3.97154324E+01   5.65823846E+02   3.90435185E+01   5.60021234E+01
   5.68750000E+02   5.00000000E-01   5.00000000E-01   1.31268182E+05   4.80730330E+04   1.24371297E-03   9.76240921E-04   9.50094779E-04   5.79450135E+03   1.02992176E-05   4.70878833E-02   8.10310137E-01   1.03283812E-01   8.61520394E+05   3.65821921E-02   3.81144729E-02   3.74485674E-02   3.71483924E-02   2.00601722E+04   1.76163955E+04   1.16424499E+05   3.05240424E+04   3.33253067E+05   0.00000000E+00   8.07680270E-03   8.30243566E-03   8.28434597E-03   8.24872160E-03   3.42594847E+04   4.57549345E+04   4.64773938E+04   9.26526677E-07   2.89171032E+03   1.96136866E-05   6.97774067E-05   6.84858941E-05   2.36440984E-05   3.52254974E+01   4.24384083E+01   1.42756569E+03   3.18127304E+01   3.47697833E+02   3.85413142E+01   3.97154324E+01   5.65823967E+02   3.90435185E+01   5.60021234E+01
   5.86250000E+02   5.00000000E-01   5.00000000E-01   1.31268183E+05   4.80774392E+04   1.24371322E-03   9.82563512E-04   9.55836367E-04   5.79450133E+03   1.03022517E-05   4.71632684E-02   7.57435779E-01   1.03982397E-01   8.42223304E+05   3.65822275E-02   3.81144275E-02   3.74487080E-02   3.71481087E-02   2.00601728E+04   1.76164070E+04   1.16424499E+05   3.05039675E+04   3.34494297E+05   0.00000000E+00   8.07685125E-03   8.30230182E-03   8.28453248E-03   8.24793543E-03   3.42594809E+04   4.57570851E+04   4.64773938E+04   1.38235508E-06   2.89171032E+03   1.96136845E-05   6.97774067E-05   6.84858941E-05   2.36433402E-05   3.52254957E+01   4.24384040E+01   1.42747749E+03   3.18127303E+01   3.47697833E+02   3.85413142E+01   3.97154324E+01   5.65824090E+02   3.90435185E+01   5.60021234E+01
   6.03750000E+02   5.00000000E-01   5.00000000E-01   1.31268184E+05   4.80818206E+04   1.24371348E-03   9.89543744E-04   9.62171653E-04   5.79450131E+03   1.03054689E-05   4.72368579E-02   7.08784471E-01   1.04669984E-01   8.22598315E+05   3.65822572E-02   3.81143814E-02   3.74488223E-02   3.71477960E-02   2.00601734E+04   1.76164181E+04   1.16424499E+05   3.04840269E+04   3.35733271E+05   0.00000000E+00   8.07689357E-03   8.30216916E-03   8.28469218E-03   8.24711668E-03   3.42594769E+04   4.57591399E+04   4.64773938E+04   2.03745646E-06   2.89171033E+03   1.96136818E-05   6.97774067E-05   6.84858941E-05   2.36425818E-05   3.52254941E+01   4.24383996E+01   1.42739211E+03   3.18127302E+01   3.47697833E+02   3.85413142E+01   3.97154324E+01   5.65824216E+02   3.90435185E+01   5.60021234E+01
   6.21250000E+02   5.00000000E-01   5.00000000E-01   1.31268185E+05   4.80861720E+04   1.24371376E-03   9.97259634E-04   9.69172146E-04   5.79450129E+03   1.03088820E-05   4.73086472E-02   6.63976391E-01   1.05345989E-01   8.02655125E+05   3.65822813E-02   3.81143349E-02   3.74489113E-02   3.71474576E-02   2.00601741E+04   1.76164287E+04   1.16424499E+05   3.04642788E+04   3.36967000E+05   0.00000000E+00   8.07693012E-03   8.30203810E-03   8.28482700E-03   8.24627134E-03   3.42594729E+04   4.57610876E+04   4.64773938E+04   2.98004337E-06   2.89171033E+03   1.96136787E-05   6.97774067E-05   6.84858941E-05   2.36418242E-05   3.52254924E+01   4.24383951E+01   1.42730959E+03   3.18127302E+01   3.47697833E+02   3.85413142E+01   3.97154324E+01   5.65824345E+02   3.90435185E+01   5.60021234E+01