 TITLE = "Mineral Area" 
VARIABLES = "X"          "Y"              "Z"            "Forsterite"     "Fayalite"       "Saponite(Mg)"   "Enstatite(alph" "Ferrosilite(al" "Anorthite"      "Albite(low)"    "Clinochlore"    "Sudoite"        "Montmorillonit" "Kaolinite"      "Tremolite"      "Pargasite"      "Anhydrite"      "Epidote"        "Scolecite"      "Pyrite"         "FeS(am)"        "Quartz(alpha)" 
 ZONE I=         100 , J=           1 , K=           1  F=POINT
   1.75000000E+01   5.00000000E-01   5.00000000E-01   3.53262492E+04   4.82900356E+04   5.84077037E+04   2.00611012E+04   1.76164187E+04   1.24555406E+05   3.00518937E+04   3.79978553E+03   4.56794120E-03   7.96336299E-03   3.39368836E+04   4.87278283E+04   5.00269510E+04   2.84702816E-05   3.47617438E+02   2.27677575E+02   7.42535514E-05   7.16759602E-05   2.35677160E-05
   5.25000000E+01   5.00000000E-01   5.00000000E-01   3.53262492E+04   4.82914440E+04   6.10814557E+04   2.00611012E+04   1.76164192E+04   1.24555406E+05   3.00580977E+04   3.45733807E+03   2.37374607E-03   7.98979349E-03   3.39374950E+04   4.87277873E+04   5.00269510E+04   2.84785801E-05   3.47617438E+02   2.27677575E+02   7.42535514E-05   7.16759883E-05   2.35677322E-05
   8.75000000E+01   5.00000000E-01   5.00000000E-01   3.53262492E+04   4.82924561E+04   6.08613869E+04   2.00611012E+04   1.76164195E+04   1.24555406E+05   3.00592216E+04   3.40477634E+03   1.90460840E-03   8.00025623E-03   3.39378132E+04   4.87276394E+04   5.00269510E+04   2.84871476E-05   3.47617438E+02   2.27677576E+02   7.42535514E-05   7.16759947E-05   2.35677275E-05
   1.22500000E+02   5.00000000E-01   5.00000000E-01   3.53262492E+04   4.82930171E+04   6.02895758E+04   2.00611012E+04   1.76164196E+04   1.24555406E+05   3.00589851E+04   3.42398494E+03   1.78854387E-03   8.00506178E-03   3.39380335E+04   4.87275665E+04   5.00269510E+04   2.84962024E-05   3.47617438E+02   2.27677576E+02   7.42535514E-05   7.16759892E-05   2.35677192E-05
   1.57500000E+02   5.00000000E-01   5.00000000E-01   3.53262492E+04   4.82932655E+04   5.98882934E+04   2.00611012E+04   1.76164196E+04   1.24555406E+05   3.00583152E+04   3.46218097E+03   1.75827915E-03   8.00759560E-03   3.39382123E+04   4.87275711E+04   5.00269510E+04   2.85059257E-05   3.47617438E+02   2.27677576E+02   7.42535514E-05   7.16759787E-05   2.35677102E-05
   1.92500000E+02   5.00000000E-01   5.00000000E-01   3.53262492E+04   4.82933337E+04   5.97368864E+04   2.00611012E+04   1.76164196E+04   1.24555406E+05   3.00574614E+04   3.50600232E+03   1.75040339E-03   8.00883940E-03   3.39383692E+04   4.87275436E+04   5.00269510E+04   2.85164711E-05   3.47617438E+02   2.27677576E+02   7.42535514E-05   7.16759669E-05   2.35677010E-05
   2.27500000E+02   5.00000000E-01   5.00000000E-01   3.53262492E+04   4.82933136E+04   5.97574255E+04   2.00611012E+04   1.76164196E+04   1.24555406E+05   3.00565059E+04   3.55247262E+03   1.74847931E-03   8.00908011E-03   3.39385080E+04   4.87274572E+04   5.00269510E+04   2.85279693E-05   3.47617438E+02   2.27677577E+02   7.42535514E-05   7.16759556E-05   2.35676917E-05
   2.62500000E+02   5.00000000E-01   5.00000000E-01   3.53262492E+04   4.82932645E+04   5.97765551E+04   2.00611012E+04   1.76164195E+04   1.24555406E+05   3.00554873E+04   3.60209275E+03   1.74812656E-03   8.00838610E-03   3.39386221E+04   4.87274218E+04   5.00269510E+04   2.85405299E-05   3.47617438E+02   2.27677577E+02   7.42535514E-05   7.16759454E-05   2.35676827E-05
   2.97500000E+02   5.00000000E-01   5.00000000E-01   3.53262492E+04   4.82932115E+04   5.97957684E+04   2.00611012E+04   1.76164195E+04   1.24555406E+05   3.00544377E+04   3.65326569E+03   1.74817649E-03   8.00687431E-03   3.39387113E+04   4.87274319E+04   5.00269510E+04   2.85542548E-05   3.47617437E+02   2.27677577E+02   7.42535514E-05   7.16759366E-05   2.35676738E-05
   3.32500000E+02   5.00000000E-01   5.00000000E-01   3.53262492E+04   4.82931666E+04   5.98481782E+04   2.00611012E+04   1.76164194E+04   1.24555406E+05   3.00533736E+04   3.70472296E+03   1.74831397E-03   8.00460229E-03   3.39387747E+04   4.87274396E+04   5.00269510E+04   2.85692472E-05   3.47617437E+02   2.27677577E+02   7.42535514E-05   7.16759290E-05   2.35676651E-05
   3.67500000E+02   5.00000000E-01   5.00000000E-01   3.53262492E+04   4.82931415E+04   5.98788468E+04   2.00611012E+04   1.76164194E+04   1.24555406E+05   3.00523034E+04   3.75681996E+03   1.74843907E-03   8.00156534E-03   3.39388055E+04   4.87274826E+04   5.00269510E+04   2.85856099E-05   3.47617437E+02   2.27677576E+02   7.42535514E-05   7.16759225E-05   2.35676565E-05
   4.02500000E+02   5.00000000E-01   5.00000000E-01   3.53262492E+04   4.82931402E+04   5.98901106E+04   2.00611012E+04   1.76164193E+04   1.24555406E+05   3.00512392E+04   3.80893967E+03   1.74851812E-03   7.99782316E-03   3.39388006E+04   4.87275644E+04   5.00269510E+04   2.86034498E-05   3.47617437E+02   2.27677576E+02   7.42535514E-05   7.16759169E-05   2.35676481E-05
   4.37500000E+02   5.00000000E-01   5.00000000E-01   3.53262492E+04   4.82931644E+04   5.98953614E+04   2.00611013E+04   1.76164193E+04   1.24555406E+05   3.00501917E+04   3.86036405E+03   1.74853610E-03   7.99346293E-03   3.39387578E+04   4.87276720E+04   5.00269510E+04   2.86228815E-05   3.47617437E+02   2.27677576E+02   7.42535514E-05   7.16759122E-05   2.35676399E-05
   4.72500000E+02   5.00000000E-01   5.00000000E-01   3.53262492E+04   4.82932162E+04   5.98958770E+04   2.00611013E+04   1.76164192E+04   1.24555406E+05   3.00491714E+04   3.91056589E+03   1.74848402E-03   7.98859998E-03   3.39386760E+04   4.87278006E+04   5.00269510E+04   2.86440282E-05   3.47617437E+02   2.27677576E+02   7.42535514E-05   7.16759081E-05   2.35676319E-05
   5.07500000E+02   5.00000000E-01   5.00000000E-01   3.53262493E+04   4.82932970E+04   5.98937983E+04   2.00611013E+04   1.76164192E+04   1.24555406E+05   3.00481896E+04   3.95896067E+03   1.74835952E-03   7.98339023E-03   3.39385565E+04   4.87279458E+04   5.00269510E+04   2.86670227E-05   3.47617437E+02   2.27677576E+02   7.42535514E-05   7.16759047E-05   2.35676240E-05
   5.42500000E+02   5.00000000E-01   5.00000000E-01   3.53262493E+04   4.82934079E+04   5.98911821E+04   2.00611013E+04   1.76164191E+04   1.24555406E+05   3.00472579E+04   4.00493987E+03   1.74816733E-03   7.97801984E-03   3.39384032E+04   4.87281033E+04   5.00269510E+04   2.86920086E-05   3.47617437E+02   2.27677576E+02   7.42535514E-05   7.16759017E-05   2.35676164E-05
   5.77500000E+02   5.00000000E-01   5.00000000E-01   3.53262494E+04   4.82935492E+04   5.98887702E+04   2.00611013E+04   1.76164191E+04   1.24555406E+05   3.00463879E+04   4.04792467E+03   1.74791880E-03   7.97268714E-03   3.39382227E+04   4.87282694E+04   5.00269510E+04   2.87191411E-05   3.47617436E+02   2.27677575E+02   7.42535514E-05   7.16758991E-05   2.35676090E-05
   6.12500000E+02   5.00000000E-01   5.00000000E-01   3.53262495E+04   4.82937212E+04   5.98858945E+04   2.00611013E+04   1.76164191E+04   1.24555406E+05   3.00455897E+04   4.08741413E+03   1.74763041E-03   7.96758168E-03   3.39380235E+04   4.87284420E+04   5.00269510E+04   2.87485883E-05   3.47617436E+02   2.27677575E+02   7.42535514E-05   7.16758969E-05   2.35676018E-05
   6.47500000E+02   5.00000000E-01   5.00000000E-01   3.53262497E+04   4.82939233E+04   5.98806645E+04   2.00611013E+04   1.76164190E+04   1.24555406E+05   3.00448711E+04   4.12303309E+03   1.74732130E-03   7.96286448E-03   3.39378154E+04   4.87286196E+04   5.00269510E+04   2.87805316E-05   3.47617435E+02   2.27677575E+02   7.42535514E-05   7.16758950E-05   2.35675949E-05
   6.82500000E+02   5.00000000E-01   5.00000000E-01   3.53262499E+04   4.82941542E+04   5.98702237E+04   2.00611013E+04   1.76164190E+04   1.24555406E+05   3.00442371E+04   4.15457084E+03   1.74701060E-03   7.95865364E-03   3.39376078E+04   4.87288017E+04   5.00269510E+04   2.88151671E-05   3.47617434E+02   2.27677575E+02   7.42535514E-05   7.16758933E-05   2.35675883E-05
   7.17500000E+02   5.00000000E-01   5.00000000E-01   3.53262502E+04   4.82944120E+04   5.98510686E+04   2.00611013E+04   1.76164190E+04   1.24555406E+05   3.00436890E+04   4.18200046E+03   1.74671500E-03   7.95501738E-03   3.39374095E+04   4.87289884E+04   5.00269510E+04   2.88527068E-05   3.47617433E+02   2.27677575E+02   7.42535514E-05   7.16758919E-05   2.35675820E-05
   7.52500000E+02   5.00000000E-01   5.00000000E-01   3.53262507E+04   4.82946938E+04   5.98195387E+04   2.00611013E+04   1.76164189E+04   1.24555406E+05   3.00432245E+04   4.20547221E+03   1.74644715E-03   7.95197489E-03   3.39372270E+04   4.87291800E+04   5.00269510E+04   2.88933796E-05   3.47617431E+02   2.27677574E+02   7.42535514E-05   7.16758906E-05   2.35675761E-05
   7.87500000E+02   5.00000000E-01   5.00000000E-01   3.53262514E+04   4.82949961E+04   5.97726206E+04   2.00611013E+04   1.76164189E+04   1.24555406E+05   3.00428384E+04   4.22528039E+03   1.74621488E-03   7.94950354E-03   3.39370649E+04   4.87293766E+04   5.00269510E+04   2.89374328E-05   3.47617428E+02   2.27677574E+02   7.42535514E-05   7.16758894E-05   2.35675705E-05
   8.22500000E+02   5.00000000E-01   5.00000000E-01   3.53262524E+04   4.82953145E+04   5.97089417E+04   2.00611013E+04   1.76164189E+04   1.24555406E+05   3.00425231E+04   4.24181176E+03   1.74602127E-03   7.94755000E-03   3.39369253E+04   4.87295774E+04   5.00269510E+04   2.89851339E-05   3.47617424E+02   2.27677574E+02   7.42535514E-05   7.16758884E-05   2.35675653E-05
   8.57500000E+02   5.00000000E-01   5.00000000E-01   3.53262540E+04   4.82956439E+04   5.96292199E+04   2.00611013E+04   1.76164188E+04   1.24555406E+05   3.00422698E+04   4.25549386E+03   1.74586545E-03   7.94604282E-03   3.39368084E+04   4.87297798E+04   5.00269510E+04   2.90367723E-05   3.47617418E+02   2.27677574E+02   7.42535514E-05   7.16758874E-05   2.35675605E-05
   8.92500000E+02   5.00000000E-01   5.00000000E-01   3.53262562E+04   4.82959793E+04   5.95351672E+04   2.00611013E+04   1.76164188E+04   1.24555406E+05   3.00420690E+04   4.26676567E+03   1.74574377E-03   7.94490403E-03   3.39367127E+04   4.87299805E+04   5.00269510E+04   2.90926617E-05   3.47617411E+02   2.27677574E+02   7.42535514E-05   7.16758866E-05   2.35675560E-05
   9.27500000E+02   5.00000000E-01   5.00000000E-01   3.53262596E+04   4.82963157E+04   5.94267244E+04   2.00611013E+04   1.76164187E+04   1.24555406E+05   3.00419117E+04   4.27607830E+03   1.74565110E-03   7.94405823E-03   3.39366360E+04   4.87301784E+04   5.00269510E+04   2.91531412E-05   3.47617400E+02   2.27677574E+02   7.42535514E-05   7.16758858E-05   2.35675520E-05
   9.62500000E+02   5.00000000E-01   5.00000000E-01   3.53262646E+04   4.82966488E+04   5.92991614E+04   2.00611013E+04   1.76164187E+04   1.24555406E+05   3.00417896E+04   4.28390839E+03   1.74558187E-03   7.94343837E-03   3.39365754E+04   4.87303772E+04   5.00269510E+04   2.92185767E-05   3.47617387E+02   2.27677574E+02   7.42535514E-05   7.16758851E-05   2.35675482E-05
   9.97500000E+02   5.00000000E-01   5.00000000E-01   3.53262720E+04   4.82969747E+04   5.91439144E+04   2.00611014E+04   1.76164187E+04   1.24555406E+05   3.00416953E+04   4.29073186E+03   1.74553090E-03   7.94298856E-03   3.39365282E+04   4.87305850E+04   5.00269510E+04   2.92893611E-05   3.47617370E+02   2.27677574E+02   7.42535514E-05   7.16758845E-05   2.35675448E-05
   1.03250000E+03   5.00000000E-01   5.00000000E-01   3.53262828E+04   4.82972897E+04   5.89576071E+04   2.00611014E+04   1.76164186E+04   1.24555406E+05   3.00416229E+04   4.29689526E+03   1.74549378E-03   7.94266430E-03   3.39364916E+04   4.87308054E+04   5.00269510E+04   2.93659180E-05   3.47617349E+02   2.27677574E+02   7.42535514E-05   7.16758839E-05   2.35675417E-05
   1.06750000E+03   5.00000000E-01   5.00000000E-01   3.53262987E+04   4.82975887E+04   5.87510624E+04   2.00611014E+04   1.76164186E+04   1.24555406E+05   3.00415675E+04   4.30249466E+03   1.74546694E-03   7.94243141E-03   3.39364635E+04   4.87310267E+04   5.00269510E+04   2.94487091E-05   3.47617323E+02   2.27677574E+02   7.42535514E-05   7.16758833E-05   2.35675389E-05
   1.10250000E+03   5.00000000E-01   5.00000000E-01   3.53263217E+04   4.82978668E+04   5.85394153E+04   2.00611014E+04   1.76164186E+04   1.24555406E+05   3.00415251E+04   4.30751786E+03   1.74544760E-03   7.94226423E-03   3.39364421E+04   4.87312302E+04   5.00269510E+04   2.95382404E-05   3.47617294E+02   2.27677574E+02   7.42535514E-05   7.16758828E-05   2.35675364E-05
   1.13750000E+03   5.00000000E-01   5.00000000E-01   3.53263551E+04   4.82981208E+04   5.83207986E+04   2.00611014E+04   1.76164185E+04   1.24555406E+05   3.00414926E+04   4.31214414E+03   1.74543365E-03   7.94214395E-03   3.39364256E+04   4.87314110E+04   5.00269510E+04   2.96350613E-05   3.47617262E+02   2.27677574E+02   7.42535514E-05   7.16758824E-05   2.35675341E-05
   1.17250000E+03   5.00000000E-01   5.00000000E-01   3.53264030E+04   4.82983500E+04   5.80654466E+04   2.00611015E+04   1.76164185E+04   1.24555406E+05   3.00414676E+04   4.31690058E+03   1.74542355E-03   7.94205705E-03   3.39364130E+04   4.87315922E+04   5.00269510E+04   2.97397566E-05   3.47617228E+02   2.27677574E+02   7.42535514E-05   7.16758820E-05   2.35675321E-05
   1.20750000E+03   5.00000000E-01   5.00000000E-01   3.53264702E+04   4.82985540E+04   5.77332358E+04   2.00611015E+04   1.76164185E+04   1.24555406E+05   3.00414484E+04   4.32242765E+03   1.74541618E-03   7.94199402E-03   3.39364033E+04   4.87318089E+04   5.00269510E+04   2.98529414E-05   3.47617192E+02   2.27677574E+02   7.42535514E-05   7.16758816E-05   2.35675303E-05
   1.24250000E+03   5.00000000E-01   5.00000000E-01   3.53265621E+04   4.82987285E+04   5.73291215E+04   2.00611015E+04   1.76164184E+04   1.24555406E+05   3.00414336E+04   4.32872363E+03   1.74541081E-03   7.94194818E-03   3.39363959E+04   4.87320501E+04   5.00269510E+04   2.99752848E-05   3.47617155E+02   2.27677574E+02   7.42535514E-05   7.16758812E-05   2.35675287E-05
   1.27750000E+03   5.00000000E-01   5.00000000E-01   3.53266848E+04   4.82988650E+04   5.69084525E+04   2.00611016E+04   1.76164184E+04   1.24555406E+05   3.00414223E+04   4.33507813E+03   1.74540691E-03   7.94191474E-03   3.39363902E+04   4.87322467E+04   5.00269510E+04   3.01075462E-05   3.47617120E+02   2.27677574E+02   7.42535514E-05   7.16758809E-05   2.35675273E-05
   1.31250000E+03   5.00000000E-01   5.00000000E-01   3.53268452E+04   4.82989583E+04   5.64992115E+04   2.00611016E+04   1.76164184E+04   1.24555406E+05   3.00414135E+04   4.34114588E+03   1.74540408E-03   7.94189024E-03   3.39363859E+04   4.87323498E+04   5.00269510E+04   3.02505782E-05   3.47617089E+02   2.27677574E+02   7.42535514E-05   7.16758806E-05   2.35675260E-05
   1.34750000E+03   5.00000000E-01   5.00000000E-01   3.53270500E+04   4.82990116E+04   5.60377614E+04   2.00611016E+04   1.76164183E+04   1.24555406E+05   3.00414067E+04   4.34783220E+03   1.74540200E-03   7.94187218E-03   3.39363826E+04   4.87324051E+04   5.00269510E+04   3.04052759E-05   3.47617066E+02   2.27677574E+02   7.42535514E-05   7.16758803E-05   2.35675250E-05
   1.38250000E+03   5.00000000E-01   5.00000000E-01   3.53273016E+04   4.82990448E+04   5.52770926E+04   2.00611017E+04   1.76164183E+04   1.24555406E+05   3.00414015E+04   4.35855628E+03   1.74540044E-03   7.94185881E-03   3.39363801E+04   4.87326572E+04   5.00269510E+04   3.05724363E-05   3.47617052E+02   2.27677574E+02   7.42535514E-05   7.16758800E-05   2.35675241E-05
   1.41750000E+03   5.00000000E-01   5.00000000E-01   3.53275887E+04   4.82990927E+04   5.39857363E+04   2.00611017E+04   1.76164183E+04   1.24555406E+05   3.00413975E+04   4.37651606E+03   1.74539926E-03   7.94184907E-03   3.39363781E+04   4.87333324E+04   5.00269510E+04   3.07527379E-05   3.47617045E+02   2.27677574E+02   7.42535514E-05   7.16758798E-05   2.35675234E-05
   1.45250000E+03   5.00000000E-01   5.00000000E-01   3.53278955E+04   4.82991215E+04   5.27476807E+04   2.00611018E+04   1.76164183E+04   1.24555406E+05   3.00413946E+04   4.39368760E+03   1.74539852E-03   7.94184251E-03   3.39363769E+04   4.87338367E+04   5.00269510E+04   3.09473725E-05   3.47617034E+02   2.27677574E+02   7.42535514E-05   7.16758795E-05   2.35675230E-05
   1.48750000E+03   5.00000000E-01   5.00000000E-01   3.53282252E+04   4.82990762E+04   5.18267277E+04   2.00611019E+04   1.76164183E+04   1.24555406E+05   3.00413926E+04   4.40645542E+03   1.74539815E-03   7.94183830E-03   3.39363762E+04   4.87339740E+04   5.00269510E+04   3.11578183E-05   3.47617024E+02   2.27677574E+02   7.42535514E-05   7.16758793E-05   2.35675226E-05
   1.52250000E+03   5.00000000E-01   5.00000000E-01   3.53285813E+04   4.82990109E+04   5.04709939E+04   2.00611019E+04   1.76164182E+04   1.24555406E+05   3.00413911E+04   4.42517572E+03   1.74539790E-03   7.94183541E-03   3.39363757E+04   4.87345231E+04   5.00269510E+04   3.13849522E-05   3.47617035E+02   2.27677574E+02   7.42535514E-05   7.16758791E-05   2.35675224E-05
   1.55750000E+03   5.00000000E-01   5.00000000E-01   3.53289485E+04   4.82990147E+04   4.83068578E+04   2.00611020E+04   1.76164182E+04   1.24555406E+05   3.00413900E+04   4.45499368E+03   1.74539766E-03   7.94183353E-03   3.39363753E+04   4.87357653E+04   5.00269510E+04   3.16293871E-05   3.47617054E+02   2.27677574E+02   7.42535514E-05   7.16758789E-05   2.35675224E-05
   1.59250000E+03   5.00000000E-01   5.00000000E-01   3.53293242E+04   4.82990329E+04   4.63801840E+04   2.00611021E+04   1.76164182E+04   1.24555406E+05   3.00413895E+04   4.48152062E+03   1.74539767E-03   7.94183318E-03   3.39363753E+04   4.87366192E+04   5.00269510E+04   3.18929434E-05   3.47617049E+02   2.27677574E+02   7.42535514E-05   7.16758788E-05   2.35675225E-05
   1.62750000E+03   5.00000000E-01   5.00000000E-01   3.53297146E+04   4.82990176E+04   4.49856897E+04   2.00611021E+04   1.76164182E+04   1.24555406E+05   3.00413894E+04   4.50070733E+03   1.74539797E-03   7.94183417E-03   3.39363757E+04   4.87368295E+04   5.00269510E+04   3.21779368E-05   3.47617029E+02   2.27677574E+02   7.42535514E-05   7.16758787E-05   2.35675226E-05
   1.66250000E+03   5.00000000E-01   5.00000000E-01   3.53301082E+04   4.82990599E+04   4.36242247E+04   2.00611022E+04   1.76164182E+04   1.24555406E+05   3.00413895E+04   4.51943250E+03   1.74539837E-03   7.94183580E-03   3.39363763E+04   4.87367422E+04   5.00269510E+04   3.24864502E-05   3.47616980E+02   2.27677574E+02   7.42535514E-05   7.16758786E-05   2.35675228E-05
   1.69750000E+03   5.00000000E-01   5.00000000E-01   3.53305030E+04   4.82991511E+04   4.22519949E+04   2.00611023E+04   1.76164182E+04   1.24555406E+05   3.00413897E+04   4.53830138E+03   1.74539881E-03   7.94183785E-03   3.39363770E+04   4.87365118E+04   5.00269510E+04   3.28204580E-05   3.47616917E+02   2.27677574E+02   7.42535514E-05   7.16758785E-05   2.35675231E-05
   1.73250000E+03   5.00000000E-01   5.00000000E-01   3.53309152E+04   4.82991424E+04   4.11555000E+04   2.00611023E+04   1.76164182E+04   1.24555406E+05   3.00413900E+04   4.55336759E+03   1.74539939E-03   7.94184038E-03   3.39363778E+04   4.87362462E+04   5.00269510E+04   3.31818242E-05   3.47616906E+02   2.27677574E+02   7.42535514E-05   7.16758784E-05   2.35675234E-05
   1.76750000E+03   5.00000000E-01   5.00000000E-01   3.53313433E+04   4.82990207E+04   4.02305317E+04   2.00611024E+04   1.76164182E+04   1.24555406E+05   3.00413902E+04   4.56607188E+03   1.74539999E-03   7.94184281E-03   3.39363786E+04   4.87360515E+04   5.00269510E+04   3.35723472E-05   3.47616954E+02   2.27677574E+02   7.42535514E-05   7.16758784E-05   2.35675236E-05
   1.80250000E+03   5.00000000E-01   5.00000000E-01   3.53317731E+04   4.82988881E+04   3.91648013E+04   2.00611025E+04   1.76164182E+04   1.24555406E+05   3.00413902E+04   4.58072545E+03   1.74540036E-03   7.94184436E-03   3.39363791E+04   4.87359960E+04   5.00269510E+04   3.39938755E-05   3.47617005E+02   2.27677574E+02   7.42535514E-05   7.16758783E-05   2.35675237E-05
   1.83750000E+03   5.00000000E-01   5.00000000E-01   3.53321834E+04   4.82988334E+04   3.76440840E+04   2.00611026E+04   1.76164182E+04   1.24555406E+05   3.00413898E+04   4.60166235E+03   1.74540024E-03   7.94184435E-03   3.39363790E+04   4.87362793E+04   5.00269510E+04   3.44480638E-05   3.47617026E+02   2.27677574E+02   7.42535514E-05   7.16758783E-05   2.35675238E-05
   1.87250000E+03   5.00000000E-01   5.00000000E-01   3.53325533E+04   4.82989018E+04   3.55516350E+04   2.00611026E+04   1.76164182E+04   1.24555406E+05   3.00413888E+04   4.63049142E+03   1.74539951E-03   7.94184254E-03   3.39363781E+04   4.87370217E+04   5.00269510E+04   3.49364800E-05   3.47617031E+02   2.27677574E+02   7.42535514E-05   7.16758783E-05   2.35675241E-05
   1.90750000E+03   5.00000000E-01   5.00000000E-01   3.53328877E+04   4.82990699E+04   3.33984748E+04   2.00611027E+04   1.76164182E+04   1.24555406E+05   3.00413876E+04   4.66016626E+03   1.74539851E-03   7.94183999E-03   3.39363769E+04   4.87377532E+04   5.00269510E+04   3.54617376E-05   3.47617039E+02   2.27677574E+02   7.42535514E-05   7.16758782E-05   2.35675243E-05
   1.94250000E+03   5.00000000E-01   5.00000000E-01   3.53332069E+04   4.82992321E+04   3.18349920E+04   2.00611028E+04   1.76164183E+04   1.24555406E+05   3.00413867E+04   4.68171828E+03   1.74539774E-03   7.94183817E-03   3.39363759E+04   4.87379967E+04   5.00269510E+04   3.60274729E-05   3.47617046E+02   2.27677574E+02   7.42535514E-05   7.16758782E-05   2.35675246E-05
   1.97750000E+03   5.00000000E-01   5.00000000E-01   3.53335210E+04   4.82992519E+04   3.10765636E+04   2.00611028E+04   1.76164183E+04   1.24555406E+05   3.00413860E+04   4.69218054E+03   1.74539739E-03   7.94183730E-03   3.39363755E+04   4.87378052E+04   5.00269510E+04   3.66372625E-05   3.47617056E+02   2.27677574E+02   7.42535514E-05   7.16758782E-05   2.35675247E-05
   2.01250000E+03   5.00000000E-01   5.00000000E-01   3.53338323E+04   4.82991024E+04   3.09383073E+04   2.00611029E+04   1.76164183E+04   1.24555406E+05   3.00413855E+04   4.69410830E+03   1.74539726E-03   7.94183651E-03   3.39363753E+04   4.87373860E+04   5.00269510E+04   3.72944413E-05   3.47617070E+02   2.27677574E+02   7.42535514E-05   7.16758782E-05   2.35675247E-05
   2.04750000E+03   5.00000000E-01   5.00000000E-01   3.53341409E+04   4.82988571E+04   3.11023299E+04   2.00611030E+04   1.76164183E+04   1.24555406E+05   3.00413847E+04   4.69188821E+03   1.74539711E-03   7.94183476E-03   3.39363750E+04   4.87368768E+04   5.00269510E+04   3.80022883E-05   3.47617079E+02   2.27677574E+02   7.42535514E-05   7.16758782E-05   2.35675245E-05
   2.08250000E+03   5.00000000E-01   5.00000000E-01   3.53344462E+04   4.82985802E+04   3.13776256E+04   2.00611030E+04   1.76164182E+04   1.24555406E+05   3.00413837E+04   4.68815209E+03   1.74539678E-03   7.94183170E-03   3.39363744E+04   4.87363451E+04   5.00269510E+04   3.87640284E-05   3.47617077E+02   2.27677574E+02   7.42535514E-05   7.16758782E-05   2.35675243E-05
   2.11750000E+03   5.00000000E-01   5.00000000E-01   3.53347472E+04   4.82982981E+04   3.17005925E+04   2.00611031E+04   1.76164182E+04   1.24555406E+05   3.00413824E+04   4.68377192E+03   1.74539627E-03   7.94182762E-03   3.39363735E+04   4.87358228E+04   5.00269510E+04   3.95828148E-05   3.47617067E+02   2.27677574E+02   7.42535514E-05   7.16758782E-05   2.35675239E-05
   2.15250000E+03   5.00000000E-01   5.00000000E-01   3.53350432E+04   4.82980169E+04   3.20594323E+04   2.00611031E+04   1.76164182E+04   1.24555406E+05   3.00413810E+04   4.67890516E+03   1.74539566E-03   7.94182299E-03   3.39363724E+04   4.87353257E+04   5.00269510E+04   4.04617581E-05   3.47617050E+02   2.27677574E+02   7.42535514E-05   7.16758782E-05   2.35675236E-05
   2.18750000E+03   5.00000000E-01   5.00000000E-01   3.53353341E+04   4.82977366E+04   3.24549992E+04   2.00611032E+04   1.76164182E+04   1.24555406E+05   3.00413796E+04   4.67353590E+03   1.74539501E-03   7.94181820E-03   3.39363712E+04   4.87348623E+04   5.00269510E+04   4.14039502E-05   3.47617025E+02   2.27677574E+02   7.42535514E-05   7.16758782E-05   2.35675232E-05
   2.22250000E+03   5.00000000E-01   5.00000000E-01   3.53356204E+04   4.82974560E+04   3.28888294E+04   2.00611033E+04   1.76164182E+04   1.24555406E+05   3.00413782E+04   4.66764011E+03   1.74539436E-03   7.94181353E-03   3.39363699E+04   4.87344368E+04   5.00269510E+04   4.24124636E-05   3.47616993E+02   2.27677574E+02   7.42535514E-05   7.16758782E-05   2.35675228E-05
   2.25750000E+03   5.00000000E-01   5.00000000E-01   3.53359031E+04   4.82971743E+04   3.33607452E+04   2.00611033E+04   1.76164182E+04   1.24555406E+05   3.00413769E+04   4.66121835E+03   1.74539375E-03   7.94180915E-03   3.39363687E+04   4.87340507E+04   5.00269510E+04   4.34903308E-05   3.47616953E+02   2.27677574E+02   7.42535514E-05   7.16758782E-05   2.35675224E-05
   2.29250000E+03   5.00000000E-01   5.00000000E-01   3.53361837E+04   4.82968911E+04   3.38689002E+04   2.00611034E+04   1.76164182E+04   1.24555406E+05   3.00413756E+04   4.65429483E+03   1.74539320E-03   7.94180517E-03   3.39363676E+04   4.87337028E+04   5.00269510E+04   4.46405082E-05   3.47616907E+02   2.27677574E+02   7.42535514E-05   7.16758782E-05   2.35675220E-05
   2.32750000E+03   5.00000000E-01   5.00000000E-01   3.53364642E+04   4.82966064E+04   3.44101672E+04   2.00611035E+04   1.76164181E+04   1.24555406E+05   3.00413745E+04   4.64691185E+03   1.74539271E-03   7.94180162E-03   3.39363665E+04   4.87333908E+04   5.00269510E+04   4.58658299E-05   3.47616853E+02   2.27677574E+02   7.42535514E-05   7.16758783E-05   2.35675216E-05
   2.36250000E+03   5.00000000E-01   5.00000000E-01   3.53367467E+04   4.82963206E+04   3.49803852E+04   2.00611036E+04   1.76164181E+04   1.24555406E+05   3.00413734E+04   4.63912624E+03   1.74539230E-03   7.94179852E-03   3.39363655E+04   4.87331109E+04   5.00269510E+04   4.71689518E-05   3.47616790E+02   2.27677574E+02   7.42535514E-05   7.16758783E-05   2.35675212E-05
   2.39750000E+03   5.00000000E-01   5.00000000E-01   3.53370334E+04   4.82960342E+04   3.55744250E+04   2.00611037E+04   1.76164181E+04   1.24555406E+05   3.00413724E+04   4.63100834E+03   1.74539195E-03   7.94179586E-03   3.39363647E+04   4.87328587E+04   5.00269510E+04   4.85522868E-05   3.47616720E+02   2.27677574E+02   7.42535514E-05   7.16758783E-05   2.35675208E-05
   2.43250000E+03   5.00000000E-01   5.00000000E-01   3.53373267E+04   4.82957480E+04   3.61861408E+04   2.00611037E+04   1.76164181E+04   1.24555406E+05   3.00413716E+04   4.62264265E+03   1.74539167E-03   7.94179362E-03   3.39363639E+04   4.87326295E+04   5.00269510E+04   5.00179327E-05   3.47616639E+02   2.27677574E+02   7.42535514E-05   7.16758783E-05   2.35675203E-05
   2.46750000E+03   5.00000000E-01   5.00000000E-01   3.53376289E+04   4.82954632E+04   3.68082793E+04   2.00611038E+04   1.76164181E+04   1.24555406E+05   3.00413708E+04   4.61412896E+03   1.74539144E-03   7.94179176E-03   3.39363633E+04   4.87324187E+04   5.00269510E+04   5.15675901E-05   3.47616548E+02   2.27677574E+02   7.42535514E-05   7.16758783E-05   2.35675199E-05
   2.50250000E+03   5.00000000E-01   5.00000000E-01   3.53379423E+04   4.82951809E+04   3.74324012E+04   2.00611040E+04   1.76164181E+04   1.24555406E+05   3.00413701E+04   4.60558347E+03   1.74539126E-03   7.94179023E-03   3.39363627E+04   4.87322217E+04   5.00269510E+04   5.32024733E-05   3.47616445E+02   2.27677574E+02   7.42535514E-05   7.16758783E-05   2.35675195E-05
   2.53750000E+03   5.00000000E-01   5.00000000E-01   3.53382694E+04   4.82949027E+04   3.80488381E+04   2.00611041E+04   1.76164181E+04   1.24555406E+05   3.00413695E+04   4.59713923E+03   1.74539112E-03   7.94178900E-03   3.39363622E+04   4.87320348E+04   5.00269510E+04   5.49232110E-05   3.47616327E+02   2.27677574E+02   7.42535514E-05   7.16758783E-05   2.35675191E-05
   2.57250000E+03   5.00000000E-01   5.00000000E-01   3.53386128E+04   4.82946299E+04   3.86466855E+04   2.00611042E+04   1.76164181E+04   1.24555406E+05   3.00413690E+04   4.58894623E+03   1.74539101E-03   7.94178803E-03   3.39363619E+04   4.87318546E+04   5.00269510E+04   5.67297370E-05   3.47616193E+02   2.27677574E+02   7.42535514E-05   7.16758783E-05   2.35675188E-05
   2.60750000E+03   5.00000000E-01   5.00000000E-01   3.53389753E+04   4.82943642E+04   3.92138131E+04   2.00611043E+04   1.76164181E+04   1.24555406E+05   3.00413686E+04   4.58117117E+03   1.74539093E-03   7.94178726E-03   3.39363616E+04   4.87316783E+04   5.00269510E+04   5.86211706E-05   3.47616039E+02   2.27677574E+02   7.42535514E-05   7.16758783E-05   2.35675184E-05
   2.64250000E+03   5.00000000E-01   5.00000000E-01   3.53393599E+04   4.82941068E+04   3.97368688E+04   2.00611044E+04   1.76164180E+04   1.24555406E+05   3.00413682E+04   4.57399730E+03   1.74539087E-03   7.94178667E-03   3.39363613E+04   4.87315043E+04   5.00269510E+04   6.05956834E-05   3.47615864E+02   2.27677574E+02   7.42535514E-05   7.16758783E-05   2.35675180E-05
   2.67750000E+03   5.00000000E-01   5.00000000E-01   3.53397701E+04   4.82938591E+04   4.02012589E+04   2.00611046E+04   1.76164180E+04   1.24555406E+05   3.00413679E+04   4.56762453E+03   1.74539083E-03   7.94178621E-03   3.39363611E+04   4.87313319E+04   5.00269510E+04   6.26503533E-05   3.47615664E+02   2.27677574E+02   7.42535514E-05   7.16758783E-05   2.35675177E-05
   2.71250000E+03   5.00000000E-01   5.00000000E-01   3.53402098E+04   4.82936217E+04   4.05910936E+04   2.00611047E+04   1.76164180E+04   1.24555406E+05   3.00413677E+04   4.56226989E+03   1.74539080E-03   7.94178586E-03   3.39363610E+04   4.87311616E+04   5.00269510E+04   6.47810035E-05   3.47615436E+02   2.27677574E+02   7.42535514E-05   7.16758783E-05   2.35675174E-05