 TITLE = "Mineral Area" 
VARIABLES = "X"          "Y"              "Z"            "Forsterite"     "Enstatite(alph" "Anorthite"      "Tremolite"      "Pargasite"      "Anhydrite"      "Clinochlore"    "Albite(low)"    "Fayalite"       "Epidote"        "Kaolinite"      "Muscovite(orde" "Sudoite"        "Saponite(Mg)"   "Scolecite"      "FeS(am)"        "Quartz(alpha)"  "Montmorillonit"
 ZONE I=         100 , J=           1 , K=           1  F=POINT
   1.75000000E+01   5.00000000E-01   5.00000000E-01   9.99995397E-02   9.99999344E-02   9.99996973E-02   9.99180495E-02   9.99178741E-02   9.92549132E-02   1.14490447E+03   9.99783321E-02   9.99965174E-02   1.00000000E-01   9.97912808E-02   0.00000000E+00   0.00000000E+00   8.57176278E+02   9.96379872E-02   0.00000000E+00   1.33825493E+02   9.99982193E-02
   5.25000000E+01   5.00000000E-01   5.00000000E-01   9.99995397E-02   9.99999344E-02   9.99996973E-02   9.99180506E-02   9.99178741E-02   9.93829822E-02   1.01691166E+03   9.99923751E-02   9.99965179E-02   1.00000000E-01   9.97914038E-02   0.00000000E+00   0.00000000E+00   9.48389365E+02   9.96380099E-02   0.00000000E+00   1.63093567E+02   9.99985634E-02
   8.75000000E+01   5.00000000E-01   5.00000000E-01   9.99995397E-02   9.99999344E-02   9.99996973E-02   9.99180519E-02   9.99178741E-02   9.95013634E-02   9.47978944E+02   9.99991205E-02   9.99965186E-02   1.00000000E-01   9.97914738E-02   0.00000000E+00   0.00000000E+00   1.00222363E+03   9.96380293E-02   0.00000000E+00   1.72037453E+02   9.99988024E-02
   1.22500000E+02   5.00000000E-01   5.00000000E-01   9.99995397E-02   9.99999344E-02   9.99996973E-02   9.99180529E-02   9.99178741E-02   9.96038808E-02   9.20581062E+02   1.00001583E-01   9.99965195E-02   1.00000000E-01   9.97915146E-02   0.00000000E+00   0.00000000E+00   1.02450428E+03   9.96380433E-02   0.00000000E+00   1.73798260E+02   9.99989282E-02
   1.57500000E+02   5.00000000E-01   5.00000000E-01   9.99995397E-02   9.99999344E-02   9.99996973E-02   9.99180536E-02   9.99178741E-02   9.96889424E-02   9.11059726E+02   1.00002315E-01   9.99965205E-02   1.00000000E-01   9.97915448E-02   0.00000000E+00   0.00000000E+00   1.03311341E+03   9.96380540E-02   0.00000000E+00   1.72973821E+02   9.99990009E-02
   1.92500000E+02   5.00000000E-01   5.00000000E-01   9.99995397E-02   9.99999345E-02   9.99996973E-02   9.99180540E-02   9.99178741E-02   9.97574929E-02   9.08626721E+02   1.00002378E-01   9.99965216E-02   1.00000000E-01   9.97915717E-02   0.00000000E+00   0.00000000E+00   1.03637882E+03   9.96380626E-02   0.00000000E+00   1.71201337E+02   9.99990514E-02
   2.27500000E+02   5.00000000E-01   5.00000000E-01   9.99995397E-02   9.99999345E-02   9.99996973E-02   9.99180541E-02   9.99178741E-02   9.98116595E-02   9.09012133E+02   1.00002174E-01   9.99965228E-02   1.00000000E-01   9.97915978E-02   0.00000000E+00   0.00000000E+00   1.03758114E+03   9.96380698E-02   0.00000000E+00   1.69077829E+02   9.99990928E-02
   2.62500000E+02   5.00000000E-01   5.00000000E-01   9.99995397E-02   9.99999345E-02   9.99996973E-02   9.99180541E-02   9.99178741E-02   9.98539361E-02   9.10570620E+02   1.00001858E-01   9.99965240E-02   1.00000000E-01   9.97916241E-02   0.00000000E+00   0.00000000E+00   1.03798409E+03   9.96380759E-02   0.00000000E+00   1.66826237E+02   9.99991303E-02
   2.97500000E+02   5.00000000E-01   5.00000000E-01   9.99995397E-02   9.99999345E-02   9.99996973E-02   9.99180540E-02   9.99178741E-02   9.98867376E-02   9.12667079E+02   1.00001488E-01   9.99965252E-02   1.00000000E-01   9.97916512E-02   0.00000000E+00   0.00000000E+00   1.03807900E+03   9.96380812E-02   0.00000000E+00   1.64531573E+02   9.99991660E-02
   3.32500000E+02   5.00000000E-01   5.00000000E-01   9.99995397E-02   9.99999345E-02   9.99996973E-02   9.99180539E-02   9.99178741E-02   9.99121920E-02   9.15054308E+02   1.00001086E-01   9.99965264E-02   1.00000000E-01   9.97916791E-02   0.00000000E+00   0.00000000E+00   1.03806058E+03   9.96380858E-02   0.00000000E+00   1.62226703E+02   9.99992006E-02
   3.67500000E+02   5.00000000E-01   5.00000000E-01   9.99995397E-02   9.99999345E-02   9.99996973E-02   9.99180538E-02   9.99178741E-02   9.99320440E-02   9.17635253E+02   1.00000663E-01   9.99965275E-02   1.00000000E-01   9.97917080E-02   0.00000000E+00   0.00000000E+00   1.03800775E+03   9.96380898E-02   0.00000000E+00   1.59924288E+02   9.99992345E-02
   4.02500000E+02   5.00000000E-01   5.00000000E-01   9.99995397E-02   9.99999345E-02   9.99996973E-02   9.99180537E-02   9.99178741E-02   9.99476920E-02   9.20371433E+02   1.00000221E-01   9.99965286E-02   1.00000000E-01   9.97917378E-02   0.00000000E+00   0.00000000E+00   1.03795271E+03   9.96380934E-02   0.00000000E+00   1.57629004E+02   9.99992676E-02
   4.37500000E+02   5.00000000E-01   5.00000000E-01   9.99995397E-02   9.99999345E-02   9.99996973E-02   9.99180541E-02   9.99178741E-02   9.99602196E-02   9.23247117E+02   9.99997622E-02   9.99965296E-02   1.00000000E-01   9.97917685E-02   0.00000000E+00   0.00000000E+00   1.03790781E+03   9.96380965E-02   0.00000000E+00   1.55342695E+02   9.99992998E-02
   4.72500000E+02   5.00000000E-01   5.00000000E-01   9.99995397E-02   9.99999346E-02   9.99996973E-02   9.99180552E-02   9.99178741E-02   9.99704437E-02   9.26255378E+02   9.99992874E-02   9.99965305E-02   1.00000000E-01   9.97918000E-02   0.00000000E+00   0.00000000E+00   1.03787530E+03   9.96380993E-02   0.00000000E+00   1.53067365E+02   9.99993312E-02
   5.07500000E+02   5.00000000E-01   5.00000000E-01   9.99995397E-02   9.99999346E-02   9.99996973E-02   9.99180580E-02   9.99178741E-02   9.99789687E-02   9.29392831E+02   9.99987976E-02   9.99965314E-02   1.00000000E-01   9.97918323E-02   0.00000000E+00   0.00000000E+00   1.03784914E+03   9.96381016E-02   0.00000000E+00   1.50800633E+02   9.99993615E-02
   5.42500000E+02   5.00000000E-01   5.00000000E-01   9.99995397E-02   9.99999346E-02   9.99996973E-02   9.99180637E-02   9.99178741E-02   9.99862347E-02   9.32657256E+02   9.99982938E-02   9.99965321E-02   9.99999999E-02   9.97918654E-02   0.00000000E+00   0.00000000E+00   1.03781726E+03   9.96381036E-02   0.00000000E+00   1.48543390E+02   9.99993907E-02
   5.77500000E+02   5.00000000E-01   5.00000000E-01   9.99995397E-02   9.99999346E-02   9.99996973E-02   9.99180732E-02   9.99178741E-02   9.99925585E-02   9.36044705E+02   9.99977769E-02   9.99965327E-02   9.99999999E-02   9.97918991E-02   0.00000000E+00   0.00000000E+00   1.03776989E+03   9.96381053E-02   0.00000000E+00   1.46295242E+02   9.99994186E-02
   6.12500000E+02   5.00000000E-01   5.00000000E-01   9.99995397E-02   9.99999346E-02   9.99996973E-02   9.99180865E-02   9.99178741E-02   9.99981657E-02   9.39547819E+02   9.99972484E-02   9.99965332E-02   9.99999999E-02   9.97919335E-02   0.00000000E+00   0.00000000E+00   1.03770525E+03   9.96381067E-02   0.00000000E+00   1.44053988E+02   9.99994452E-02
   6.47500000E+02   5.00000000E-01   5.00000000E-01   9.99995397E-02   9.99999346E-02   9.99996973E-02   9.99181025E-02   9.99178741E-02   1.00003215E-01   9.43156412E+02   9.99967094E-02   9.99965337E-02   9.99999999E-02   9.97919684E-02   0.00000000E+00   0.00000000E+00   1.03762804E+03   9.96381077E-02   0.00000000E+00   1.41819493E+02   9.99994703E-02
   6.82500000E+02   5.00000000E-01   5.00000000E-01   9.99995397E-02   9.99999346E-02   9.99996973E-02   9.99181203E-02   9.99178741E-02   1.00007818E-01   9.46859912E+02   9.99961615E-02   9.99965340E-02   9.99999999E-02   9.97920037E-02   0.00000000E+00   0.00000000E+00   1.03754121E+03   9.96381085E-02   0.00000000E+00   1.39594957E+02   9.99994938E-02
   7.17500000E+02   5.00000000E-01   5.00000000E-01   9.99995397E-02   9.99999347E-02   9.99996973E-02   9.99181393E-02   9.99178741E-02   1.00012054E-01   9.50648116E+02   9.99956062E-02   9.99965343E-02   9.99999999E-02   9.97920395E-02   0.00000000E+00   0.00000000E+00   1.03744315E+03   9.96381089E-02   0.00000000E+00   1.37382408E+02   9.99995157E-02
   7.52500000E+02   5.00000000E-01   5.00000000E-01   9.99995397E-02   9.99999347E-02   9.99996973E-02   9.99181590E-02   9.99178741E-02   1.00015979E-01   9.54510670E+02   9.99950450E-02   9.99965345E-02   9.99999999E-02   9.97920756E-02   0.00000000E+00   0.00000000E+00   1.03732896E+03   9.96381091E-02   0.00000000E+00   1.35178314E+02   9.99995360E-02
   7.87500000E+02   5.00000000E-01   5.00000000E-01   9.99995397E-02   9.99999347E-02   9.99996973E-02   9.99181793E-02   9.99178741E-02   1.00019633E-01   9.58437243E+02   9.99944796E-02   9.99965346E-02   9.99999998E-02   9.97921120E-02   0.00000000E+00   0.00000000E+00   1.03718978E+03   9.96381090E-02   0.00000000E+00   1.32983352E+02   9.99995546E-02
   8.22500000E+02   5.00000000E-01   5.00000000E-01   9.99995397E-02   9.99999347E-02   9.99996973E-02   9.99182000E-02   9.99178741E-02   1.00023046E-01   9.62417145E+02   9.99939117E-02   9.99965346E-02   9.99999998E-02   9.97921487E-02   0.00000000E+00   0.00000000E+00   1.03701485E+03   9.96381087E-02   0.00000000E+00   1.30797292E+02   9.99995715E-02
   8.57500000E+02   5.00000000E-01   5.00000000E-01   9.99995397E-02   9.99999348E-02   9.99996973E-02   9.99182210E-02   9.99178741E-02   1.00026240E-01   9.66439723E+02   9.99933432E-02   9.99965346E-02   9.99999997E-02   9.97921856E-02   0.00000000E+00   0.00000000E+00   1.03679084E+03   9.96381082E-02   0.00000000E+00   1.28626252E+02   9.99995868E-02
   8.92500000E+02   5.00000000E-01   5.00000000E-01   9.99995397E-02   9.99999348E-02   9.99996973E-02   9.99182423E-02   9.99178741E-02   1.00029232E-01   9.70493386E+02   9.99927759E-02   9.99965345E-02   9.99999997E-02   9.97922227E-02   0.00000000E+00   0.00000000E+00   1.03650587E+03   9.96381074E-02   0.00000000E+00   1.26465490E+02   9.99996005E-02
   9.27500000E+02   5.00000000E-01   5.00000000E-01   9.99995397E-02   9.99999348E-02   9.99996973E-02   9.99182638E-02   9.99178741E-02   1.00032038E-01   9.74566824E+02   9.99922114E-02   9.99965344E-02   9.99999996E-02   9.97922601E-02   0.00000000E+00   0.00000000E+00   1.03614647E+03   9.96381065E-02   0.00000000E+00   1.24316485E+02   9.99996127E-02
   9.62500000E+02   5.00000000E-01   5.00000000E-01   9.99995397E-02   9.99999348E-02   9.99996973E-02   9.99182855E-02   9.99178741E-02   1.00034671E-01   9.78649129E+02   9.99916515E-02   9.99965343E-02   9.99999994E-02   9.97922977E-02   0.00000000E+00   0.00000000E+00   1.03569826E+03   9.96381054E-02   0.00000000E+00   1.22185147E+02   9.99996235E-02
   9.97500000E+02   5.00000000E-01   5.00000000E-01   9.99995397E-02   9.99999348E-02   9.99996973E-02   9.99183074E-02   9.99178741E-02   1.00037140E-01   9.82730052E+02   9.99910977E-02   9.99965341E-02   9.99999993E-02   9.97923356E-02   0.00000000E+00   0.00000000E+00   1.03514681E+03   9.96381042E-02   0.00000000E+00   1.20079109E+02   9.99996330E-02
   1.03250000E+03   5.00000000E-01   5.00000000E-01   9.99995397E-02   9.99999349E-02   9.99996973E-02   9.99183294E-02   9.99178741E-02   1.00039457E-01   9.86799193E+02   9.99905516E-02   9.99965338E-02   9.99999990E-02   9.97923739E-02   0.00000000E+00   0.00000000E+00   1.03448143E+03   9.96381028E-02   0.00000000E+00   1.17991772E+02   9.99996413E-02
   1.06750000E+03   5.00000000E-01   5.00000000E-01   9.99995397E-02   9.99999349E-02   9.99996973E-02   9.99183514E-02   9.99178741E-02   1.00041630E-01   9.90847482E+02   9.99900144E-02   9.99965336E-02   9.99999987E-02   9.97924125E-02   0.00000000E+00   0.00000000E+00   1.03369070E+03   9.96381013E-02   0.00000000E+00   1.15924336E+02   9.99996485E-02
   1.10250000E+03   5.00000000E-01   5.00000000E-01   9.99995397E-02   9.99999349E-02   9.99996973E-02   9.99183733E-02   9.99178741E-02   1.00043670E-01   9.94866866E+02   9.99894874E-02   9.99965333E-02   9.99999984E-02   9.97924516E-02   0.00000000E+00   0.00000000E+00   1.03276455E+03   9.96380998E-02   0.00000000E+00   1.13877508E+02   9.99996548E-02
   1.13750000E+03   5.00000000E-01   5.00000000E-01   9.99995397E-02   9.99999350E-02   9.99996973E-02   9.99183952E-02   9.99178741E-02   1.00045583E-01   9.98850934E+02   9.99889713E-02   9.99965330E-02   9.99999978E-02   9.97924913E-02   0.00000000E+00   0.00000000E+00   1.03169296E+03   9.96380981E-02   0.00000000E+00   1.11859233E+02   9.99996603E-02
   1.17250000E+03   5.00000000E-01   5.00000000E-01   9.99995397E-02   9.99999350E-02   9.99996973E-02   9.99184169E-02   9.99178741E-02   1.00047378E-01   1.00279361E+03   9.99884671E-02   9.99965327E-02   9.99999972E-02   9.97925316E-02   0.00000000E+00   0.00000000E+00   1.03047101E+03   9.96380964E-02   0.00000000E+00   1.09861543E+02   9.99996651E-02
   1.20750000E+03   5.00000000E-01   5.00000000E-01   9.99995397E-02   9.99999350E-02   9.99996973E-02   9.99184383E-02   9.99178741E-02   1.00049063E-01   1.00669054E+03   9.99879751E-02   9.99965324E-02   9.99999963E-02   9.97925726E-02   0.00000000E+00   0.00000000E+00   1.02909384E+03   9.96380947E-02   0.00000000E+00   1.07885863E+02   9.99996692E-02
   1.24250000E+03   5.00000000E-01   5.00000000E-01   9.99995397E-02   9.99999351E-02   9.99996973E-02   9.99184595E-02   9.99178741E-02   1.00050645E-01   1.01053937E+03   9.99874958E-02   9.99965320E-02   9.99999952E-02   9.97926144E-02   0.00000000E+00   0.00000000E+00   1.02755589E+03   9.96380929E-02   0.00000000E+00   1.05943089E+02   9.99996728E-02
   1.27750000E+03   5.00000000E-01   5.00000000E-01   9.99995397E-02   9.99999351E-02   9.99996973E-02   9.99184803E-02   9.99178741E-02   1.00052129E-01   1.01433856E+03   9.99870293E-02   9.99965317E-02   9.99999937E-02   9.97926570E-02   0.00000000E+00   0.00000000E+00   1.02585552E+03   9.96380911E-02   0.00000000E+00   1.04037523E+02   9.99996759E-02
   1.31250000E+03   5.00000000E-01   5.00000000E-01   9.99995398E-02   9.99999351E-02   9.99996973E-02   9.99185006E-02   9.99178741E-02   1.00053524E-01   1.01808642E+03   9.99865756E-02   9.99965313E-02   9.99999917E-02   9.97927005E-02   0.00000000E+00   0.00000000E+00   1.02399799E+03   9.96380893E-02   0.00000000E+00   1.02155818E+02   9.99996786E-02
   1.34750000E+03   5.00000000E-01   5.00000000E-01   9.99995398E-02   9.99999352E-02   9.99996973E-02   9.99185204E-02   9.99178741E-02   1.00054833E-01   1.02178329E+03   9.99861345E-02   9.99965310E-02   9.99999893E-02   9.97927448E-02   0.00000000E+00   0.00000000E+00   1.02198653E+03   9.96380874E-02   0.00000000E+00   1.00298878E+02   9.99996808E-02
   1.38250000E+03   5.00000000E-01   5.00000000E-01   9.99995398E-02   9.99999352E-02   9.99996973E-02   9.99185396E-02   9.99178741E-02   1.00056064E-01   1.02543049E+03   9.99857057E-02   9.99965306E-02   9.99999861E-02   9.97927901E-02   0.00000000E+00   0.00000000E+00   1.01982597E+03   9.96380856E-02   0.00000000E+00   9.84674493E+01   9.99996825E-02
   1.41750000E+03   5.00000000E-01   5.00000000E-01   9.99995398E-02   9.99999353E-02   9.99996973E-02   9.99185581E-02   9.99178741E-02   1.00057221E-01   1.02903021E+03   9.99852887E-02   9.99965303E-02   9.99999821E-02   9.97928363E-02   0.00000000E+00   0.00000000E+00   1.01752256E+03   9.96380837E-02   0.00000000E+00   9.66621181E+01   9.99996838E-02
   1.45250000E+03   5.00000000E-01   5.00000000E-01   9.99995398E-02   9.99999353E-02   9.99996973E-02   9.99185758E-02   9.99178741E-02   1.00058309E-01   1.03258605E+03   9.99848831E-02   9.99965300E-02   9.99999770E-02   9.97928833E-02   0.00000000E+00   0.00000000E+00   1.01508142E+03   9.96380818E-02   0.00000000E+00   9.48955158E+01   9.99996846E-02
   1.48750000E+03   5.00000000E-01   5.00000000E-01   9.99995398E-02   9.99999354E-02   9.99996973E-02   9.99185927E-02   9.99178741E-02   1.00059332E-01   1.03610296E+03   9.99844883E-02   9.99965296E-02   9.99999705E-02   9.97929311E-02   0.00000000E+00   0.00000000E+00   1.01250634E+03   9.96380799E-02   0.00000000E+00   9.31913020E+01   9.99996847E-02
   1.52250000E+03   5.00000000E-01   5.00000000E-01   9.99995399E-02   9.99999354E-02   9.99996973E-02   9.99186089E-02   9.99178741E-02   1.00060295E-01   1.03958351E+03   9.99841035E-02   9.99965293E-02   9.99999624E-02   9.97929796E-02   0.00000000E+00   0.00000000E+00   1.00981289E+03   9.96380780E-02   0.00000000E+00   9.15186736E+01   9.99996842E-02
   1.55750000E+03   5.00000000E-01   5.00000000E-01   9.99995399E-02   9.99999355E-02   9.99996973E-02   9.99186244E-02   9.99178741E-02   1.00061201E-01   1.04303217E+03   9.99837282E-02   9.99965290E-02   9.99999521E-02   9.97930287E-02   0.00000000E+00   0.00000000E+00   1.00700979E+03   9.96380761E-02   0.00000000E+00   8.98706640E+01   9.99996829E-02
   1.59250000E+03   5.00000000E-01   5.00000000E-01   9.99995400E-02   9.99999355E-02   9.99996973E-02   9.99186392E-02   9.99178741E-02   1.00062055E-01   1.04645376E+03   9.99833617E-02   9.99965288E-02   9.99999391E-02   9.97930781E-02   0.00000000E+00   0.00000000E+00   1.00410473E+03   9.96380742E-02   0.00000000E+00   8.82641885E+01   9.99996807E-02
   1.62750000E+03   5.00000000E-01   5.00000000E-01   9.99995401E-02   9.99999356E-02   9.99996973E-02   9.99186533E-02   9.99178741E-02   1.00062858E-01   1.04985137E+03   9.99830033E-02   9.99965285E-02   9.99999229E-02   9.97931278E-02   0.00000000E+00   0.00000000E+00   1.00111093E+03   9.96380722E-02   0.00000000E+00   8.66806235E+01   9.99996776E-02
   1.66250000E+03   5.00000000E-01   5.00000000E-01   9.99995402E-02   9.99999357E-02   9.99996973E-02   9.99186665E-02   9.99178741E-02   1.00063615E-01   1.05322861E+03   9.99826524E-02   9.99965283E-02   9.99999027E-02   9.97931775E-02   0.00000000E+00   0.00000000E+00   9.98037575E+02   9.96380702E-02   0.00000000E+00   8.51201176E+01   9.99996734E-02
   1.69750000E+03   5.00000000E-01   5.00000000E-01   9.99995403E-02   9.99999357E-02   9.99996973E-02   9.99186790E-02   9.99178741E-02   1.00064328E-01   1.05658860E+03   9.99823087E-02   9.99965281E-02   9.99998783E-02   9.97932270E-02   0.00000000E+00   0.00000000E+00   9.94893522E+02   9.96380682E-02   0.00000000E+00   8.35827484E+01   9.99996680E-02
   1.73250000E+03   5.00000000E-01   5.00000000E-01   9.99995405E-02   9.99999358E-02   9.99996973E-02   9.99186909E-02   9.99178741E-02   1.00065000E-01   1.05993519E+03   9.99819715E-02   9.99965279E-02   9.99998490E-02   9.97932762E-02   0.00000000E+00   0.00000000E+00   9.91682805E+02   9.96380661E-02   0.00000000E+00   8.20990273E+01   9.99996615E-02
   1.76750000E+03   5.00000000E-01   5.00000000E-01   9.99995408E-02   9.99999359E-02   9.99996973E-02   9.99187024E-02   9.99178741E-02   1.00065633E-01   1.06326994E+03   9.99816404E-02   9.99965278E-02   9.99998147E-02   9.97933247E-02   0.00000000E+00   0.00000000E+00   9.88415585E+02   9.96380641E-02   0.00000000E+00   8.06414344E+01   9.99996537E-02
   1.80250000E+03   5.00000000E-01   5.00000000E-01   9.99995411E-02   9.99999360E-02   9.99996973E-02   9.99187133E-02   9.99178741E-02   1.00066229E-01   1.06659349E+03   9.99813153E-02   9.99965277E-02   9.99997747E-02   9.97933724E-02   0.00000000E+00   0.00000000E+00   9.85102789E+02   9.96380620E-02   0.00000000E+00   7.92047565E+01   9.99996446E-02
   1.83750000E+03   5.00000000E-01   5.00000000E-01   9.99995416E-02   9.99999361E-02   9.99996973E-02   9.99187237E-02   9.99178741E-02   1.00066791E-01   1.06990675E+03   9.99809957E-02   9.99965276E-02   9.99997279E-02   9.97934191E-02   0.00000000E+00   0.00000000E+00   9.81751299E+02   9.96380598E-02   0.00000000E+00   7.77889623E+01   9.99996342E-02
   1.87250000E+03   5.00000000E-01   5.00000000E-01   9.99995422E-02   9.99999361E-02   9.99996973E-02   9.99187338E-02   9.99178741E-02   1.00067320E-01   1.07321038E+03   9.99806815E-02   9.99965276E-02   9.99996729E-02   9.97934646E-02   0.00000000E+00   0.00000000E+00   9.78366572E+02   9.96380577E-02   0.00000000E+00   7.63939763E+01   9.99996224E-02
   1.90750000E+03   5.00000000E-01   5.00000000E-01   9.99995430E-02   9.99999362E-02   9.99996973E-02   9.99187438E-02   9.99178741E-02   1.00067818E-01   1.07650457E+03   9.99803725E-02   9.99965276E-02   9.99996078E-02   9.97935087E-02   0.00000000E+00   0.00000000E+00   9.74953440E+02   9.96380555E-02   0.00000000E+00   7.50196788E+01   9.99996093E-02
   1.94250000E+03   5.00000000E-01   5.00000000E-01   9.99995440E-02   9.99999363E-02   9.99996973E-02   9.99187534E-02   9.99178741E-02   1.00068286E-01   1.07978853E+03   9.99800686E-02   9.99965277E-02   9.99995315E-02   9.97935512E-02   0.00000000E+00   0.00000000E+00   9.71518161E+02   9.96380533E-02   0.00000000E+00   7.36659124E+01   9.99995949E-02
   1.97750000E+03   5.00000000E-01   5.00000000E-01   9.99995454E-02   9.99999364E-02   9.99996973E-02   9.99187629E-02   9.99178741E-02   1.00068727E-01   1.08306131E+03   9.99797698E-02   9.99965279E-02   9.99994440E-02   9.97935919E-02   0.00000000E+00   0.00000000E+00   9.68064646E+02   9.96380512E-02   0.00000000E+00   7.23324896E+01   9.99995791E-02
   2.01250000E+03   5.00000000E-01   5.00000000E-01   9.99995472E-02   9.99999365E-02   9.99996973E-02   9.99187725E-02   9.99178741E-02   1.00069140E-01   1.08632205E+03   9.99794761E-02   9.99965281E-02   9.99993475E-02   9.97936307E-02   0.00000000E+00   0.00000000E+00   9.64593839E+02   9.96380490E-02   0.00000000E+00   7.10210546E+01   9.99995620E-02
   2.04750000E+03   5.00000000E-01   5.00000000E-01   9.99995496E-02   9.99999366E-02   9.99996973E-02   9.99187820E-02   9.99178741E-02   1.00069529E-01   1.08957032E+03   9.99791874E-02   9.99965284E-02   9.99992452E-02   9.97936675E-02   0.00000000E+00   0.00000000E+00   9.61103906E+02   9.96380468E-02   0.00000000E+00   6.97856801E+01   9.99995437E-02
   2.08250000E+03   5.00000000E-01   5.00000000E-01   9.99995526E-02   9.99999368E-02   9.99996973E-02   9.99187915E-02   9.99178741E-02   1.00069893E-01   1.09280319E+03   9.99789037E-02   9.99965287E-02   9.99991404E-02   9.97937020E-02   0.00000000E+00   0.00000000E+00   9.57601259E+02   9.96380446E-02   0.00000000E+00   6.85667216E+01   9.99995241E-02
   2.11750000E+03   5.00000000E-01   5.00000000E-01   9.99995565E-02   9.99999369E-02   9.99996973E-02   9.99188007E-02   9.99178741E-02   1.00070235E-01   1.09601925E+03   9.99786252E-02   9.99965291E-02   9.99990360E-02   9.97937343E-02   0.00000000E+00   0.00000000E+00   9.54085102E+02   9.96380424E-02   0.00000000E+00   6.73641130E+01   9.99995034E-02
   2.15250000E+03   5.00000000E-01   5.00000000E-01   9.99995616E-02   9.99999370E-02   9.99996973E-02   9.99188098E-02   9.99178741E-02   1.00070554E-01   1.09921738E+03   9.99783518E-02   9.99965296E-02   9.99989340E-02   9.97937642E-02   0.00000000E+00   0.00000000E+00   9.50552790E+02   9.96380402E-02   0.00000000E+00   6.61778232E+01   9.99994817E-02
   2.18750000E+03   5.00000000E-01   5.00000000E-01   9.99995679E-02   9.99999371E-02   9.99996973E-02   9.99188185E-02   9.99178741E-02   1.00070853E-01   1.10239669E+03   9.99780836E-02   9.99965301E-02   9.99988356E-02   9.97937916E-02   0.00000000E+00   0.00000000E+00   9.47000142E+02   9.96380380E-02   0.00000000E+00   6.50078480E+01   9.99994588E-02
   2.22250000E+03   5.00000000E-01   5.00000000E-01   9.99995760E-02   9.99999373E-02   9.99996973E-02   9.99188265E-02   9.99178741E-02   1.00071131E-01   1.10555652E+03   9.99778207E-02   9.99965307E-02   9.99987418E-02   9.97938164E-02   0.00000000E+00   0.00000000E+00   9.43421576E+02   9.96380358E-02   0.00000000E+00   6.38542099E+01   9.99994350E-02
   2.25750000E+03   5.00000000E-01   5.00000000E-01   9.99995861E-02   9.99999374E-02   9.99996973E-02   9.99188338E-02   9.99178741E-02   1.00071390E-01   1.10869665E+03   9.99775632E-02   9.99965313E-02   9.99986517E-02   9.97938386E-02   0.00000000E+00   0.00000000E+00   9.39810101E+02   9.96380337E-02   0.00000000E+00   6.27169634E+01   9.99994104E-02
   2.29250000E+03   5.00000000E-01   5.00000000E-01   9.99995985E-02   9.99999376E-02   9.99996973E-02   9.99188399E-02   9.99178741E-02   1.00071631E-01   1.11181752E+03   9.99773112E-02   9.99965320E-02   9.99985621E-02   9.97938582E-02   0.00000000E+00   0.00000000E+00   9.36157133E+02   9.96380316E-02   0.00000000E+00   6.15961998E+01   9.99993849E-02
   2.32750000E+03   5.00000000E-01   5.00000000E-01   9.99996136E-02   9.99999377E-02   9.99996973E-02   9.99188445E-02   9.99178741E-02   1.00071855E-01   1.11492002E+03   9.99770648E-02   9.99965326E-02   9.99984677E-02   9.97938750E-02   0.00000000E+00   0.00000000E+00   9.32453030E+02   9.96380295E-02   0.00000000E+00   6.04920538E+01   9.99993587E-02
   2.36250000E+03   5.00000000E-01   5.00000000E-01   9.99996318E-02   9.99999379E-02   9.99996973E-02   9.99188474E-02   9.99178741E-02   1.00072062E-01   1.11800510E+03   9.99768242E-02   9.99965333E-02   9.99983636E-02   9.97938892E-02   0.00000000E+00   0.00000000E+00   9.28687369E+02   9.96380275E-02   0.00000000E+00   5.94047063E+01   9.99993318E-02
   2.39750000E+03   5.00000000E-01   5.00000000E-01   9.99996534E-02   9.99999380E-02   9.99996973E-02   9.99188483E-02   9.99178741E-02   1.00072254E-01   1.12107327E+03   9.99765892E-02   9.99965339E-02   9.99982486E-02   9.97939007E-02   0.00000000E+00   0.00000000E+00   9.24849294E+02   9.96380255E-02   0.00000000E+00   5.83343848E+01   9.99993044E-02
   2.43250000E+03   5.00000000E-01   5.00000000E-01   9.99996787E-02   9.99999382E-02   9.99996973E-02   9.99188469E-02   9.99178741E-02   1.00072430E-01   1.12412425E+03   9.99763602E-02   9.99965344E-02   9.99981267E-02   9.97939095E-02   0.00000000E+00   0.00000000E+00   9.20928070E+02   9.96380235E-02   0.00000000E+00   5.72813600E+01   9.99992765E-02
   2.46750000E+03   5.00000000E-01   5.00000000E-01   9.99997079E-02   9.99999384E-02   9.99996973E-02   9.99188434E-02   9.99178741E-02   1.00072592E-01   1.12715684E+03   9.99761371E-02   9.99965349E-02   9.99980072E-02   9.97939157E-02   0.00000000E+00   0.00000000E+00   9.16913640E+02   9.96380216E-02   0.00000000E+00   5.62459372E+01   9.99992483E-02
   2.50250000E+03   5.00000000E-01   5.00000000E-01   9.99997410E-02   9.99999385E-02   9.99996973E-02   9.99188378E-02   9.99178741E-02   1.00072739E-01   1.13016910E+03   9.99759200E-02   9.99965352E-02   9.99979032E-02   9.97939192E-02   0.00000000E+00   0.00000000E+00   9.12797198E+02   9.96380197E-02   0.00000000E+00   5.52284433E+01   9.99992197E-02
   2.53750000E+03   5.00000000E-01   5.00000000E-01   9.99997780E-02   9.99999387E-02   9.99996973E-02   9.99188305E-02   9.99178741E-02   1.00072873E-01   1.13315866E+03   9.99757089E-02   9.99965354E-02   9.99978280E-02   9.97939202E-02   0.00000000E+00   0.00000000E+00   9.08571857E+02   9.96380179E-02   0.00000000E+00   5.42292091E+01   9.99991910E-02
   2.57250000E+03   5.00000000E-01   5.00000000E-01   9.99998189E-02   9.99999389E-02   9.99996973E-02   9.99188220E-02   9.99178741E-02   1.00072994E-01   1.13612290E+03   9.99755039E-02   9.99965355E-02   9.99977929E-02   9.97939186E-02   0.00000000E+00   0.00000000E+00   9.04233682E+02   9.96380161E-02   0.00000000E+00   5.32485490E+01   9.99991621E-02
   2.60750000E+03   5.00000000E-01   5.00000000E-01   9.99998633E-02   9.99999390E-02   9.99996973E-02   9.99188129E-02   9.99178741E-02   1.00073101E-01   1.13905906E+03   9.99753051E-02   9.99965354E-02   9.99978045E-02   9.97939145E-02   0.00000000E+00   0.00000000E+00   8.99782867E+02   9.96380144E-02   0.00000000E+00   5.22867371E+01   9.99991332E-02
   2.64250000E+03   5.00000000E-01   5.00000000E-01   9.99999109E-02   9.99999392E-02   9.99996973E-02   9.99188037E-02   9.99178741E-02   1.00073196E-01   1.14196417E+03   9.99751124E-02   9.99965352E-02   9.99978644E-02   9.97939080E-02   0.00000000E+00   0.00000000E+00   8.95224632E+02   9.96380127E-02   0.00000000E+00   5.13439843E+01   9.99991043E-02
   2.67750000E+03   5.00000000E-01   5.00000000E-01   9.99999614E-02   9.99999393E-02   9.99996973E-02   9.99187948E-02   9.99178741E-02   1.00073279E-01   1.14483504E+03   9.99749258E-02   9.99965348E-02   9.99979696E-02   9.97938992E-02   0.00000000E+00   0.00000000E+00   8.90569006E+02   9.96380111E-02   0.00000000E+00   5.04204159E+01   9.99990756E-02
   2.71250000E+03   5.00000000E-01   5.00000000E-01   1.00000015E-01   9.99999394E-02   9.99996973E-02   9.99187864E-02   9.99178741E-02   1.00073350E-01   1.14766845E+03   9.99747452E-02   9.99965344E-02   9.99981140E-02   9.97938881E-02   0.00000000E+00   0.00000000E+00   8.85829329E+02   9.96380095E-02   0.00000000E+00   4.95160545E+01   9.99990470E-02
   2.74750000E+03   5.00000000E-01   5.00000000E-01   1.00000070E-01   9.99999396E-02   9.99996973E-02   9.99187785E-02   9.99178741E-02   1.00073409E-01   1.15046210E+03   9.99745707E-02   9.99965338E-02   9.99982904E-02   9.97938748E-02   0.00000000E+00   0.00000000E+00   8.81016964E+02   9.96380080E-02   0.00000000E+00   4.86308105E+01   9.99990187E-02
   2.78250000E+03   5.00000000E-01   5.00000000E-01   1.00000128E-01   9.99999397E-02   9.99996973E-02   9.99187712E-02   9.99178741E-02   1.00073457E-01   1.15321008E+03   9.99744020E-02   9.99965332E-02   9.99984896E-02   9.97938595E-02   0.00000000E+00   0.00000000E+00   8.76161912E+02   9.96380066E-02   0.00000000E+00   4.77644770E+01   9.99989906E-02
   2.81750000E+03   5.00000000E-01   5.00000000E-01   1.00000187E-01   9.99999398E-02   9.99996973E-02   9.99187645E-02   9.99178741E-02   1.00073495E-01   1.15591131E+03   9.99742392E-02   9.99965324E-02   9.99987032E-02   9.97938420E-02   0.00000000E+00   0.00000000E+00   8.71273620E+02   9.96380052E-02   0.00000000E+00   4.69167300E+01   9.99989629E-02
   2.85250000E+03   5.00000000E-01   5.00000000E-01   1.00000248E-01   9.99999399E-02   9.99996973E-02   9.99187584E-02   9.99178741E-02   1.00073523E-01   1.15856348E+03   9.99740820E-02   9.99965316E-02   9.99989252E-02   9.97938226E-02   0.00000000E+00   0.00000000E+00   8.66367108E+02   9.96380039E-02   0.00000000E+00   4.60871369E+01   9.99989356E-02