 TITLE = "Mineral Area" 
VARIABLES = "X"          "Y"              "Z"            "Forsterite"     "Fayalite"       "Brucite"        "Lizardite"      "Chrysotile"     "Hematite"       "Magnetite(am)"  "Saponite(Ca)"   "Saponite(K)"    "Saponite(Mg)"   "Saponite(Na)"   "Beidellite(Ca)" "Beidellite(K)"  "Beidellite(Mg)" "Beidellite(Na)" "Enstatite(alph" "Ferrosilite(al" "Anorthite"      "Albite(low)"    "Clinochlore"    "Sudoite"        "Montmor(MgCa)"  "Montmor(MgK)"   "Montmor(MgMg)"  "Montmor(MgNa)"  "Kaolinite"      "Tremolite"      "Pargasite"      "Anhydrite"      "Epidote"        "Scolecite"      "Pyrite"         "FeS(am)"        "Quartz(alpha)"  "Titanite"       "Rutile"         "Barite"         "Fluorite"       "Spessartine(al" "Andradite"      "Celestite"      "Zincite"        "Chalcocyanite"  "Chalcocite(alp"
 ZONE I=         200 , J=           1 , K=           1  F=POINT
   8.75000000E+00   5.00000000E-01   5.00000000E-01   1.31157824E+05   4.79342358E+04   1.23685766E-03   1.14475517E-03   1.05067841E-03   6.01267174E+03   8.43892117E-06   3.86730199E-02   7.94420571E-01   4.70507532E-02   1.18064226E+05   3.65490379E-02   3.81095943E-02   3.73997862E-02   3.70923450E-02   2.00601226E+04   1.76156603E+04   1.16095233E+05   2.95822134E+04   4.03949517E+05   0.00000000E+00   8.06831798E-03   8.29756112E-03   8.25299446E-03   8.18816710E-03   3.42574715E+04   4.52381168E+04   4.63341320E+04   0.00000000E+00   2.86970449E+03   1.94918540E-05   6.95808071E-05   6.83444873E-05   2.35912879E-05   3.52255294E+01   4.24384179E+01   1.47648190E+03   3.18127392E+01   3.44987313E+02   3.85412833E+01   3.97154313E+01   5.65748778E+02   3.90435175E+01   5.60032608E+01
   2.62500000E+01   5.00000000E-01   5.00000000E-01   1.31157824E+05   4.79363185E+04   1.23685557E-03   1.02566264E-03   9.66739558E-04   6.01267170E+03   8.43971815E-06   3.95504066E-02   1.65318250E+00   5.18741159E-02   3.89163949E+05   3.65490412E-02   3.81095990E-02   3.73998015E-02   3.70923848E-02   2.00601223E+04   1.76156980E+04   1.16095233E+05   2.96220951E+04   3.98348195E+05   0.00000000E+00   8.06833783E-03   8.29760947E-03   8.25307985E-03   8.18850824E-03   3.42574733E+04   4.52592101E+04   4.63341320E+04   0.00000000E+00   2.86970449E+03   1.94918589E-05   6.95808071E-05   6.83444873E-05   2.36058001E-05   3.52255215E+01   4.24384240E+01   1.44970331E+03   3.18127381E+01   3.44987313E+02   3.85412833E+01   3.97154313E+01   5.65748810E+02   3.90435175E+01   5.60021240E+01
   4.37500000E+01   5.00000000E-01   5.00000000E-01   1.31157823E+05   4.79383882E+04   1.23685469E-03   9.63229756E-04   9.21580919E-04   6.01267170E+03   8.44024533E-06   4.01104575E-02   2.10085744E+00   5.50327727E-02   4.34596711E+05   3.65490768E-02   3.81096472E-02   3.73999667E-02   3.70928057E-02   2.00601221E+04   1.76157309E+04   1.16095233E+05   2.97318632E+04   3.92356170E+05   0.00000000E+00   8.06846469E-03   8.29790181E-03   8.25362497E-03   8.19062268E-03   3.42574829E+04   4.52740211E+04   4.63341320E+04   0.00000000E+00   2.86970449E+03   1.94918826E-05   6.95808071E-05   6.83444873E-05   2.36183600E-05   3.52255156E+01   4.24384297E+01   1.43905149E+03   3.18127372E+01   3.44987313E+02   3.85412833E+01   3.97154313E+01   5.65748811E+02   3.90435175E+01   5.60021240E+01
   6.12500000E+01   5.00000000E-01   5.00000000E-01   1.31157823E+05   4.79405425E+04   1.23685428E-03   9.31110866E-04   8.98077287E-04   6.01267170E+03   8.44070386E-06   4.05718103E-02   2.40754714E+00   5.76967934E-02   5.34920773E+05   3.65491883E-02   3.81097898E-02   3.74004835E-02   3.70940828E-02   2.00601220E+04   1.76157625E+04   1.16095233E+05   2.98972811E+04   3.82904830E+05   0.00000000E+00   8.06877431E-03   8.29857120E-03   8.25495410E-03   8.19560600E-03   3.42575020E+04   4.52862486E+04   4.63341320E+04   0.00000000E+00   2.86970449E+03   1.94919283E-05   6.95808071E-05   6.83444873E-05   2.36287673E-05   3.52255130E+01   4.24384351E+01   1.43453067E+03   3.18127364E+01   3.44987313E+02   3.85412833E+01   3.97154312E+01   5.65748830E+02   3.90435175E+01   5.60021240E+01
   7.87500000E+01   5.00000000E-01   5.00000000E-01   1.31157823E+05   4.79429392E+04   1.23685406E-03   9.14961559E-04   8.86260465E-04   6.01267170E+03   8.44116997E-06   4.10564930E-02   2.74243779E+00   6.05724026E-02   6.84073378E+05   3.65494010E-02   3.81100456E-02   3.74014673E-02   3.70964376E-02   2.00601221E+04   1.76157939E+04   1.16095233E+05   3.00877227E+04   3.71578492E+05   0.00000000E+00   8.06926969E-03   8.29956982E-03   8.25707853E-03   8.20328222E-03   3.42575288E+04   4.53019771E+04   4.63341320E+04   0.00000000E+00   2.86970449E+03   1.94919918E-05   6.95808071E-05   6.83444873E-05   2.36369588E-05   3.52255120E+01   4.24384400E+01   1.43247899E+03   3.18127356E+01   3.44987313E+02   3.85412833E+01   3.97154312E+01   5.65748865E+02   3.90435175E+01   5.60021240E+01
   9.62500000E+01   5.00000000E-01   5.00000000E-01   1.31157823E+05   4.79456235E+04   1.23685395E-03   9.06420507E-04   8.80078303E-04   6.01267169E+03   8.44166570E-06   4.15685704E-02   3.09170650E+00   6.36917819E-02   8.41345612E+05   3.65497120E-02   3.81103958E-02   3.74029035E-02   3.70997595E-02   2.00601223E+04   1.76158250E+04   1.16095233E+05   3.02753416E+04   3.60283341E+05   0.00000000E+00   8.06989703E-03   8.30074057E-03   8.25976627E-03   8.21260862E-03   3.42575609E+04   4.53220954E+04   4.63341320E+04   0.00000000E+00   2.86970449E+03   1.94920662E-05   6.95808071E-05   6.83444873E-05   2.36431349E-05   3.52255119E+01   4.24384444E+01   1.43146976E+03   3.18127349E+01   3.44987313E+02   3.85412833E+01   3.97154312E+01   5.65748911E+02   3.90435175E+01   5.60021240E+01
   1.13750000E+02   5.00000000E-01   5.00000000E-01   1.31157823E+05   4.79485779E+04   1.23685390E-03   9.01538970E-04   8.76623864E-04   6.01267168E+03   8.44219622E-06   4.20805832E-02   3.39987869E+00   6.68897989E-02   9.77505047E+05   3.65500827E-02   3.81107832E-02   3.74046124E-02   3.71035624E-02   2.00601225E+04   1.76158554E+04   1.16095233E+05   3.04391634E+04   3.50436244E+05   0.00000000E+00   8.07056655E-03   8.30188250E-03   8.26263174E-03   8.22209689E-03   3.42575937E+04   4.53452919E+04   4.63341320E+04   0.00000000E+00   2.86970449E+03   1.94921420E-05   6.95808071E-05   6.83444873E-05   2.36476479E-05   3.52255121E+01   4.24384484E+01   1.43091943E+03   3.18127342E+01   3.44987313E+02   3.85412833E+01   3.97154312E+01   5.65748966E+02   3.90435175E+01   5.60021240E+01
   1.31250000E+02   5.00000000E-01   5.00000000E-01   1.31157823E+05   4.79517688E+04   1.23685389E-03   8.98559155E-04   8.74592887E-04   6.01267168E+03   8.44276354E-06   4.25696143E-02   3.62591339E+00   7.00156235E-02   1.08152586E+06   3.65504631E-02   3.81111472E-02   3.74063625E-02   3.71072852E-02   2.00601227E+04   1.76158850E+04   1.16095233E+05   3.05696203E+04   3.42652976E+05   0.00000000E+00   8.07119991E-03   8.30285007E-03   8.26533909E-03   8.23056925E-03   3.42576234E+04   4.53699211E+04   4.63341320E+04   0.00000000E+00   2.86970449E+03   1.94922112E-05   6.95808071E-05   6.83444873E-05   2.36508738E-05   3.52255123E+01   4.24384519E+01   1.43057904E+03   3.18127336E+01   3.44987313E+02   3.85412833E+01   3.97154312E+01   5.65749027E+02   3.90435175E+01   5.60021239E+01
   1.48750000E+02   5.00000000E-01   5.00000000E-01   1.31157823E+05   4.79551668E+04   1.23685390E-03   8.96698789E-04   8.73403650E-04   6.01267167E+03   8.44336966E-06   4.30238746E-02   3.75443179E+00   7.29799898E-02   1.15384314E+06   3.65508172E-02   3.81114516E-02   3.74079878E-02   3.71105604E-02   2.00601229E+04   1.76159139E+04   1.16095233E+05   3.06667279E+04   3.36927016E+05   0.00000000E+00   8.07175555E-03   8.30358836E-03   8.26771073E-03   8.23749170E-03   3.42576479E+04   4.53947217E+04   4.63341320E+04   0.00000000E+00   2.86970450E+03   1.94922699E-05   6.95808071E-05   6.83444873E-05   2.36531393E-05   3.52255125E+01   4.24384549E+01   1.43033830E+03   3.18127330E+01   3.44987313E+02   3.85412833E+01   3.97154312E+01   5.65749094E+02   3.90435175E+01   5.60021239E+01
   1.66250000E+02   5.00000000E-01   5.00000000E-01   1.31157823E+05   4.79587480E+04   1.23685392E-03   8.95584649E-04   8.72779128E-04   6.01267167E+03   8.44401667E-06   4.34392908E-02   3.78940224E+00   7.57410245E-02   1.19978691E+06   3.65511286E-02   3.81116860E-02   3.74094134E-02   3.71132526E-02   2.00601232E+04   1.76159420E+04   1.16095233E+05   3.07353679E+04   3.32948097E+05   0.00000000E+00   8.07222392E-03   8.30410721E-03   8.26970636E-03   8.24283356E-03   3.42576668E+04   4.54188685E+04   4.63341320E+04   0.00000000E+00   2.86970450E+03   1.94923177E-05   6.95808071E-05   6.83444873E-05   2.36546998E-05   3.52255127E+01   4.24384574E+01   1.43014663E+03   3.18127325E+01   3.44987313E+02   3.85412833E+01   3.97154312E+01   5.65749165E+02   3.90435175E+01   5.60021239E+01
   1.83750000E+02   5.00000000E-01   5.00000000E-01   1.31157823E+05   4.79624911E+04   1.23685397E-03   8.95015526E-04   8.72570556E-04   6.01267166E+03   8.44470638E-06   4.38156612E-02   3.74495995E+00   7.82834860E-02   1.22574448E+06   3.65513953E-02   3.81118559E-02   3.74106310E-02   3.71153796E-02   2.00601234E+04   1.76159692E+04   1.16095233E+05   3.07816835E+04   3.30330002E+05   0.00000000E+00   8.07261334E-03   8.30444528E-03   8.27136219E-03   8.24681567E-03   3.42576807E+04   4.54418295E+04   4.63341320E+04   0.00000000E+00   2.86970450E+03   1.94923558E-05   6.95808071E-05   6.83444873E-05   2.36557433E-05   3.52255127E+01   4.24384594E+01   1.42998009E+03   3.18127320E+01   3.44987313E+02   3.85412833E+01   3.97154312E+01   5.65749240E+02   3.90435175E+01   5.60021239E+01
   2.01250000E+02   5.00000000E-01   5.00000000E-01   1.31157824E+05   4.79663757E+04   1.23685402E-03   8.94868959E-04   8.72687768E-04   6.01267165E+03   8.44544036E-06   4.41545360E-02   3.63879451E+00   8.06062667E-02   1.23741668E+06   3.65516228E-02   3.81119732E-02   3.74116660E-02   3.71170288E-02   2.00601237E+04   1.76159957E+04   1.16095233E+05   3.08112785E+04   3.28722099E+05   0.00000000E+00   8.07293871E-03   8.30464644E-03   8.27274247E-03   8.24972939E-03   3.42576906E+04   4.54632551E+04   4.63341320E+04   0.00000000E+00   2.86970450E+03   1.94923859E-05   6.95808071E-05   6.83444873E-05   2.36564040E-05   3.52255126E+01   4.24384609E+01   1.42982704E+03   3.18127316E+01   3.44987313E+02   3.85412833E+01   3.97154312E+01   5.65749318E+02   3.90435175E+01   5.60021239E+01
   2.18750000E+02   5.00000000E-01   5.00000000E-01   1.31157824E+05   4.79703822E+04   1.23685409E-03   8.95063761E-04   8.73071236E-04   6.01267165E+03   8.44621997E-06   4.44583023E-02   3.48839374E+00   8.27164982E-02   1.23928617E+06   3.65518189E-02   3.81120507E-02   3.74125551E-02   3.71183042E-02   2.00601240E+04   1.76160212E+04   1.16095233E+05   3.08286272E+04   3.27845334E+05   0.00000000E+00   8.07321524E-03   8.30474903E-03   8.27391275E-03   8.25184574E-03   3.42576974E+04   4.54829240E+04   4.63341320E+04   0.00000000E+00   2.86970450E+03   1.94924100E-05   6.95808071E-05   6.83444873E-05   2.36567770E-05   3.52255124E+01   4.24384620E+01   1.42968170E+03   3.18127311E+01   3.44987313E+02   3.85412833E+01   3.97154312E+01   5.65749399E+02   3.90435175E+01   5.60021239E+01
   2.36250000E+02   5.00000000E-01   5.00000000E-01   1.31157824E+05   4.79744918E+04   1.23685416E-03   8.95543140E-04   8.73679527E-04   6.01267164E+03   8.44704655E-06   4.47297982E-02   3.30919503E+00   8.46266954E-02   1.23464086E+06   3.65519914E-02   3.81120991E-02   3.74133344E-02   3.71193004E-02   2.00601243E+04   1.76160460E+04   1.16095233E+05   3.08370685E+04   3.27492225E+05   0.00000000E+00   8.07345591E-03   8.30478275E-03   8.27492873E-03   8.25338348E-03   3.42577019E+04   4.55007170E+04   4.63341320E+04   0.00000000E+00   2.86970450E+03   1.94924295E-05   6.95808071E-05   6.83444873E-05   2.36569293E-05   3.52255120E+01   4.24384625E+01   1.42954113E+03   3.18127308E+01   3.44987313E+02   3.85412833E+01   3.97154312E+01   5.65749482E+02   3.90435175E+01   5.60021239E+01
   2.53750000E+02   5.00000000E-01   5.00000000E-01   1.31157824E+05   4.79786874E+04   1.23685424E-03   8.96265709E-04   8.74482618E-04   6.01267164E+03   8.44792153E-06   4.49721089E-02   3.11386288E+00   8.63529978E-02   1.22578523E+06   3.65521469E-02   3.81121270E-02   3.74140343E-02   3.71200934E-02   2.00601247E+04   1.76160699E+04   1.16095233E+05   3.08390048E+04   3.27514295E+05   0.00000000E+00   8.07367075E-03   8.30476919E-03   8.27583348E-03   8.25450606E-03   3.42577047E+04   4.55166019E+04   4.63341320E+04   0.00000000E+00   2.86970450E+03   1.94924456E-05   6.95808071E-05   6.83444873E-05   2.36569090E-05   3.52255115E+01   4.24384626E+01   1.42940385E+03   3.18127304E+01   3.44987313E+02   3.85412833E+01   3.97154312E+01   5.65749568E+02   3.90435175E+01   5.60021239E+01
   2.71250000E+02   5.00000000E-01   5.00000000E-01   1.31157824E+05   4.79829538E+04   1.23685433E-03   8.97200413E-04   8.75458136E-04   6.01267163E+03   8.44884651E-06   4.51884221E-02   2.91220178E+00   8.79137781E-02   1.21427712E+06   3.65522904E-02   3.81121405E-02   3.74146783E-02   3.71207401E-02   2.00601250E+04   1.76160929E+04   1.16095233E+05   3.08361316E+04   3.27807662E+05   0.00000000E+00   8.07386705E-03   8.30472332E-03   8.27665834E-03   8.25532964E-03   3.42577063E+04   4.55306191E+04   4.63341320E+04   0.00000000E+00   2.86970450E+03   1.94924594E-05   6.95808071E-05   6.83444873E-05   2.36567511E-05   3.52255109E+01   4.24384623E+01   1.42926910E+03   3.18127301E+01   3.44987313E+02   3.85412833E+01   3.97154312E+01   5.65749655E+02   3.90435175E+01   5.60021239E+01
   2.88750000E+02   5.00000000E-01   5.00000000E-01   1.31157824E+05   4.79872779E+04   1.23685442E-03   8.98323955E-04   8.76589479E-04   6.01267162E+03   8.44982342E-06   4.53819041E-02   2.71140500E+00   8.93284299E-02   1.20113212E+06   3.65524256E-02   3.81121439E-02   3.74152833E-02   3.71212806E-02   2.00601253E+04   1.76161151E+04   1.16095233E+05   3.08296353E+04   3.28300624E+05   0.00000000E+00   8.07404985E-03   8.30465523E-03   8.27742490E-03   8.25593361E-03   3.42577070E+04   4.55428665E+04   4.63341320E+04   0.00000000E+00   2.86970450E+03   1.94924713E-05   6.95808071E-05   6.83444873E-05   2.36564818E-05   3.52255101E+01   4.24384616E+01   1.42913654E+03   3.18127298E+01   3.44987313E+02   3.85412833E+01   3.97154312E+01   5.65749745E+02   3.90435175E+01   5.60021239E+01
   3.06250000E+02   5.00000000E-01   5.00000000E-01   1.31157824E+05   4.79916486E+04   1.23685453E-03   8.99619855E-04   8.77865195E-04   6.01267161E+03   8.45085452E-06   4.55555963E-02   2.51645560E+00   9.06163278E-02   1.18698340E+06   3.65525550E-02   3.81121400E-02   3.74158606E-02   3.71217416E-02   2.00601257E+04   1.76161364E+04   1.16095233E+05   3.08203449E+04   3.28944091E+05   0.00000000E+00   8.07422245E-03   8.30457152E-03   8.27814722E-03   8.25637026E-03   3.42577071E+04   4.55534840E+04   4.63341320E+04   0.00000000E+00   2.86970450E+03   1.94924818E-05   6.95808071E-05   6.83444873E-05   2.36561211E-05   3.52255093E+01   4.24384604E+01   1.42900599E+03   3.18127295E+01   3.44987313E+02   3.85412833E+01   3.97154312E+01   5.65749836E+02   3.90435175E+01   5.60021239E+01
   3.23750000E+02   5.00000000E-01   5.00000000E-01   1.31157824E+05   4.79960570E+04   1.23685463E-03   9.01078408E-04   8.79279056E-04   6.01267161E+03   8.45194251E-06   4.57123335E-02   2.33056872E+00   9.17959914E-02   1.17220199E+06   3.65526801E-02   3.81121306E-02   3.74164169E-02   3.71221397E-02   2.00601261E+04   1.76161570E+04   1.16095233E+05   3.08088429E+04   3.29704545E+05   0.00000000E+00   8.07438681E-03   8.30447642E-03   8.27883373E-03   8.25667270E-03   3.42577066E+04   4.55626385E+04   4.63341320E+04   0.00000000E+00   2.86970450E+03   1.94924913E-05   6.95808071E-05   6.83444873E-05   2.36556848E-05   3.52255083E+01   4.24384589E+01   1.42887743E+03   3.18127292E+01   3.44987313E+02   3.85412833E+01   3.97154312E+01   5.65749929E+02   3.90435175E+01   5.60021239E+01
   3.41250000E+02   5.00000000E-01   5.00000000E-01   1.31157824E+05   4.80004957E+04   1.23685475E-03   9.02696802E-04   8.80830266E-04   6.01267160E+03   8.45309050E-06   4.58546876E-02   2.15561302E+00   9.28844841E-02   1.15698642E+06   3.65528014E-02   3.81121169E-02   3.74169554E-02   3.71224842E-02   2.00601264E+04   1.76161768E+04   1.16095233E+05   3.07955447E+04   3.30558957E+05   0.00000000E+00   8.07454396E-03   8.30437254E-03   8.27948886E-03   8.25686094E-03   3.42577058E+04   4.55705092E+04   4.63341320E+04   0.00000000E+00   2.86970450E+03   1.94924999E-05   6.95808071E-05   6.83444873E-05   2.36551856E-05   3.52255071E+01   4.24384570E+01   1.42875086E+03   3.18127289E+01   3.44987313E+02   3.85412833E+01   3.97154312E+01   5.65750023E+02   3.90435175E+01   5.60021239E+01
   3.58750000E+02   5.00000000E-01   5.00000000E-01   1.31157824E+05   4.80049592E+04   1.23685487E-03   9.04478917E-04   8.82523405E-04   6.01267159E+03   8.45430200E-06   4.59849397E-02   1.99247967E+00   9.38970636E-02   1.14142939E+06   3.65529192E-02   3.81120992E-02   3.74174770E-02   3.71227795E-02   2.00601268E+04   1.76161959E+04   1.16095233E+05   3.07807552E+04   3.31491131E+05   0.00000000E+00   8.07469431E-03   8.30426152E-03   8.28011433E-03   8.25694664E-03   3.42577046E+04   4.55772757E+04   4.63341320E+04   0.00000000E+00   2.86970450E+03   1.94925075E-05   6.95808071E-05   6.83444873E-05   2.36546338E-05   3.52255059E+01   4.24384548E+01   1.42862635E+03   3.18127287E+01   3.44987313E+02   3.85412833E+01   3.97154312E+01   5.65750120E+02   3.90435175E+01   5.60021239E+01
   3.76250000E+02   5.00000000E-01   5.00000000E-01   1.31157825E+05   4.80094432E+04   1.23685500E-03   9.06434671E-04   8.84367996E-04   6.01267158E+03   8.45558090E-06   4.61050788E-02   1.84138578E+00   9.48470775E-02   1.12556645E+06   3.65530334E-02   3.81120781E-02   3.74179809E-02   3.71230272E-02   2.00601272E+04   1.76162142E+04   1.16095233E+05   3.07647082E+04   3.32489106E+05   0.00000000E+00   8.07483788E-03   8.30414446E-03   8.28071027E-03   8.25693667E-03   3.42577030E+04   4.55831075E+04   4.63341320E+04   0.00000000E+00   2.86970451E+03   1.94925144E-05   6.95808071E-05   6.83444873E-05   2.36540381E-05   3.52255047E+01   4.24384522E+01   1.42850395E+03   3.18127285E+01   3.44987313E+02   3.85412833E+01   3.97154312E+01   5.65750218E+02   3.90435175E+01   5.60021239E+01
   3.93750000E+02   5.00000000E-01   5.00000000E-01   1.31157825E+05   4.80139443E+04   1.23685514E-03   9.08579077E-04   8.86377830E-04   6.01267157E+03   8.45693142E-06   4.62168216E-02   1.70210951E+00   9.57460580E-02   1.10940846E+06   3.65531436E-02   3.81120537E-02   3.74184658E-02   3.71232274E-02   2.00601277E+04   1.76162319E+04   1.16095233E+05   3.07475942E+04   3.33543390E+05   0.00000000E+00   8.07497452E-03   8.30402212E-03   8.28127605E-03   8.25683561E-03   3.42577012E+04   4.55881575E+04   4.63341320E+04   0.00000000E+00   2.86970451E+03   1.94925205E-05   6.95808071E-05   6.83444873E-05   2.36534059E-05   3.52255033E+01   4.24384494E+01   1.42838373E+03   3.18127283E+01   3.44987313E+02   3.85412833E+01   3.97154312E+01   5.65750318E+02   3.90435175E+01   5.60021239E+01
   4.11250000E+02   5.00000000E-01   5.00000000E-01   1.31157825E+05   4.80184601E+04   1.23685528E-03   9.10931277E-04   8.88570237E-04   6.01267156E+03   8.45835809E-06   4.63216449E-02   1.57416060E+00   9.66039280E-02   1.09295924E+06   3.65532495E-02   3.81120261E-02   3.74189300E-02   3.71233803E-02   2.00601281E+04   1.76162490E+04   1.16095233E+05   3.07295769E+04   3.34645886E+05   0.00000000E+00   8.07510404E-03   8.30389520E-03   8.28181086E-03   8.25664740E-03   3.42576991E+04   4.55925596E+04   4.63341320E+04   0.00000000E+00   2.86970451E+03   1.94925258E-05   6.95808071E-05   6.83444873E-05   2.36527433E-05   3.52255019E+01   4.24384463E+01   1.42826578E+03   3.18127281E+01   3.44987313E+02   3.85412833E+01   3.97154312E+01   5.65750421E+02   3.90435175E+01   5.60021239E+01
   4.28750000E+02   5.00000000E-01   5.00000000E-01   1.31157825E+05   4.80229885E+04   1.23685544E-03   9.13513718E-04   8.90965479E-04   6.01267154E+03   8.45986574E-06   4.64208156E-02   1.45689533E+00   9.74292054E-02   1.07622058E+06   3.65533506E-02   3.81119956E-02   3.74193719E-02   3.71234859E-02   2.00601286E+04   1.76162654E+04   1.16095233E+05   3.07108028E+04   3.35789383E+05   0.00000000E+00   8.07522628E-03   8.30376434E-03   8.28231401E-03   8.25637603E-03   3.42576967E+04   4.55964296E+04   4.63341320E+04   1.01179929E-22   2.86970451E+03   1.94925304E-05   6.95808071E-05   6.83444873E-05   2.36520555E-05   3.52255004E+01   4.24384430E+01   1.42815016E+03   3.18127280E+01   3.44987313E+02   3.85412833E+01   3.97154312E+01   5.65750525E+02   3.90435175E+01   5.60021239E+01
   4.46250000E+02   5.00000000E-01   5.00000000E-01   1.31157825E+05   4.80275273E+04   1.23685560E-03   9.16351584E-04   8.93586314E-04   6.01267153E+03   8.46145949E-06   4.65154109E-02   1.34958918E+00   9.82291186E-02   1.05918961E+06   3.65534467E-02   3.81119622E-02   3.74197901E-02   3.71235446E-02   2.00601290E+04   1.76162813E+04   1.16095233E+05   3.06914042E+04   3.36967416E+05   0.00000000E+00   8.07534109E-03   8.30363016E-03   8.28278497E-03   8.25602571E-03   3.42576940E+04   4.55998685E+04   4.63341320E+04   0.00000000E+00   2.86970451E+03   1.94925341E-05   6.95808071E-05   6.83444873E-05   2.36513470E-05   3.52254989E+01   4.24384395E+01   1.42803696E+03   3.18127278E+01   3.44987313E+02   3.85412833E+01   3.97154312E+01   5.65750631E+02   3.90435175E+01   5.60021239E+01
   4.63750000E+02   5.00000000E-01   5.00000000E-01   1.31157826E+05   4.80320744E+04   1.23685577E-03   9.19472465E-04   8.96457757E-04   6.01267152E+03   8.46314477E-06   4.66063242E-02   1.25148159E+00   9.90096068E-02   1.04185452E+06   3.65535375E-02   3.81119263E-02   3.74201832E-02   3.71235570E-02   2.00601295E+04   1.76162966E+04   1.16095233E+05   3.06715003E+04   3.38174289E+05   0.00000000E+00   8.07544839E-03   8.30349323E-03   8.28322331E-03   8.25560063E-03   3.42576911E+04   4.56029651E+04   4.63341320E+04   7.27585384E-09   2.86970451E+03   1.94925371E-05   6.95808071E-05   6.83444873E-05   2.36506216E-05   3.52254973E+01   4.24384358E+01   1.42792623E+03   3.18127277E+01   3.44987313E+02   3.85412833E+01   3.97154312E+01   5.65750740E+02   3.90435175E+01   5.60021239E+01
   4.81250000E+02   5.00000000E-01   5.00000000E-01   1.31157826E+05   4.80366270E+04   1.23685595E-03   9.22906289E-04   8.99607054E-04   6.01267150E+03   8.46492738E-06   4.66942626E-02   1.16180561E+00   9.97752512E-02   1.02419331E+06   3.65536225E-02   3.81118879E-02   3.74205497E-02   3.71235234E-02   2.00601300E+04   1.76163114E+04   1.16095233E+05   3.06511974E+04   3.39405077E+05   0.00000000E+00   8.07554806E-03   8.30335409E-03   8.28362864E-03   8.25510478E-03   3.42576880E+04   4.56057982E+04   4.63341320E+04   4.50625924E-08   2.86970451E+03   1.94925394E-05   6.95808071E-05   6.83444873E-05   2.36498824E-05   3.52254958E+01   4.24384319E+01   1.42781806E+03   3.18127275E+01   3.44987313E+02   3.85412833E+01   3.97154312E+01   5.65750851E+02   3.90435175E+01   5.60021239E+01
   4.98750000E+02   5.00000000E-01   5.00000000E-01   1.31157826E+05   4.80411821E+04   1.23685615E-03   9.26685526E-04   9.03063879E-04   6.01267149E+03   8.46681350E-06   4.67797463E-02   1.07981044E+00   1.00529228E-01   1.00617765E+06   3.65537016E-02   3.81118472E-02   3.74208880E-02   3.71234441E-02   2.00601305E+04   1.76163256E+04   1.16095233E+05   3.06305899E+04   3.40655510E+05   0.00000000E+00   8.07564002E-03   8.30321321E-03   8.28400057E-03   8.25454200E-03   3.42576846E+04   4.56084352E+04   4.63341320E+04   1.01630461E-07   2.86970451E+03   1.94925409E-05   6.95808071E-05   6.83444873E-05   2.36491324E-05   3.52254941E+01   4.24384278E+01   1.42771250E+03   3.18127274E+01   3.44987313E+02   3.85412833E+01   3.97154312E+01   5.65750964E+02   3.90435175E+01   5.60021239E+01
   5.16250000E+02   5.00000000E-01   5.00000000E-01   1.31157827E+05   4.80457363E+04   1.23685635E-03   9.30845683E-04   9.06860767E-04   6.01267147E+03   8.46880974E-06   4.68631198E-02   1.00478051E+00   1.01273375E-01   9.87780419E+05   3.65537742E-02   3.81118044E-02   3.74211968E-02   3.71233196E-02   2.00601311E+04   1.76163394E+04   1.16095233E+05   3.06097633E+04   3.41921750E+05   0.00000000E+00   8.07572419E-03   8.30307104E-03   8.28433884E-03   8.25391617E-03   3.42576811E+04   4.56109301E+04   4.63341320E+04   1.85259412E-07   2.86970452E+03   1.94925417E-05   6.95808071E-05   6.83444873E-05   2.36483740E-05   3.52254925E+01   4.24384237E+01   1.42760961E+03   3.18127273E+01   3.44987313E+02   3.85412833E+01   3.97154312E+01   5.65751080E+02   3.90435175E+01   5.60021238E+01
   5.33750000E+02   5.00000000E-01   5.00000000E-01   1.31157827E+05   4.80502856E+04   1.23685656E-03   9.35426065E-04   9.11033798E-04   6.01267146E+03   8.47092321E-06   4.69445803E-02   9.36050856E-01   1.02008405E-01   9.68983775E+05   3.65538403E-02   3.81117596E-02   3.74214750E-02   3.71231510E-02   2.00601316E+04   1.76163527E+04   1.16095233E+05   3.05887971E+04   3.43200134E+05   0.00000000E+00   8.07580058E-03   8.30292804E-03   8.28464351E-03   8.25323160E-03   3.42576774E+04   4.56133209E+04   4.63341320E+04   3.07894894E-07   2.86970452E+03   1.94925417E-05   6.95808071E-05   6.83444873E-05   2.36476094E-05   3.52254909E+01   4.24384194E+01   1.42750946E+03   3.18127272E+01   3.44987313E+02   3.85412833E+01   3.97154312E+01   5.65751199E+02   3.90435175E+01   5.60021238E+01
   5.51250000E+02   5.00000000E-01   5.00000000E-01   1.31157828E+05   4.80548263E+04   1.23685679E-03   9.40470787E-04   9.15623483E-04   6.01267144E+03   8.47316154E-06   4.70242202E-02   8.73017355E-01   1.02734262E-01   9.49783888E+05   3.65538996E-02   3.81117130E-02   3.74217221E-02   3.71229401E-02   2.00601322E+04   1.76163655E+04   1.16095233E+05   3.05677671E+04   3.44486985E+05   0.00000000E+00   8.07586931E-03   8.30278470E-03   8.28491514E-03   8.25249334E-03   3.42576734E+04   4.56156280E+04   4.63341320E+04   4.86829331E-07   2.86970452E+03   1.94925411E-05   6.95808071E-05   6.83444873E-05   2.36468404E-05   3.52254892E+01   4.24384150E+01   1.42741209E+03   3.18127271E+01   3.44987313E+02   3.85412833E+01   3.97154312E+01   5.65751320E+02   3.90435175E+01   5.60021238E+01
   5.68750000E+02   5.00000000E-01   5.00000000E-01   1.31157828E+05   4.80593543E+04   1.23685703E-03   9.46029929E-04   9.20675799E-04   6.01267142E+03   8.47553295E-06   4.71020735E-02   8.15140122E-01   1.03450497E-01   9.30190309E+05   3.65539522E-02   3.81116650E-02   3.74219383E-02   3.71226896E-02   2.00601328E+04   1.76163779E+04   1.16095233E+05   3.05467470E+04   3.45778563E+05   0.00000000E+00   8.07593063E-03   8.30264155E-03   8.28515485E-03   8.25170724E-03   3.42576694E+04   4.56178566E+04   4.63341320E+04   7.47190854E-07   2.86970452E+03   1.94925398E-05   6.95808071E-05   6.83444873E-05   2.36460687E-05   3.52254875E+01   4.24384105E+01   1.42731756E+03   3.18127270E+01   3.44987313E+02   3.85412833E+01   3.97154313E+01   5.65751444E+02   3.90435175E+01   5.60021238E+01
   5.86250000E+02   5.00000000E-01   5.00000000E-01   1.31157829E+05   4.80638652E+04   1.23685728E-03   9.52160786E-04   9.26243313E-04   6.01267140E+03   8.47804632E-06   4.71781527E-02   7.61940330E-01   1.04156569E-01   9.10220119E+05   3.65539983E-02   3.81116158E-02   3.74221245E-02   3.71224028E-02   2.00601334E+04   1.76163898E+04   1.16095233E+05   3.05258073E+04   3.47071168E+05   0.00000000E+00   8.07598493E-03   8.30249912E-03   8.28536426E-03   8.25087975E-03   3.42576652E+04   4.56200010E+04   4.63341320E+04   1.12564600E-06   2.86970452E+03   1.94925379E-05   6.95808071E-05   6.83444873E-05   2.36452957E-05   3.52254859E+01   4.24384060E+01   1.42722592E+03   3.18127270E+01   3.44987313E+02   3.85412833E+01   3.97154313E+01   5.65751571E+02   3.90435175E+01   5.60021238E+01
   6.03750000E+02   5.00000000E-01   5.00000000E-01   1.31157830E+05   4.80683544E+04   1.23685755E-03   9.58929141E-04   9.32386341E-04   6.01267138E+03   8.48071123E-06   4.72524653E-02   7.12992188E-01   1.04851964E-01   8.89889488E+05   3.65540380E-02   3.81115657E-02   3.74222818E-02   3.71220833E-02   2.00601340E+04   1.76164013E+04   1.16095233E+05   3.05050144E+04   3.48361340E+05   0.00000000E+00   8.07603265E-03   8.30235792E-03   8.28554532E-03   8.25001745E-03   3.42576609E+04   4.56220497E+04   4.63341320E+04   1.67593813E-06   2.86970452E+03   1.94925355E-05   6.95808071E-05   6.83444873E-05   2.36445227E-05   3.52254842E+01   4.24384014E+01   1.42713721E+03   3.18127269E+01   3.44987313E+02   3.85412833E+01   3.97154313E+01   5.65751701E+02   3.90435175E+01   5.60021238E+01
   6.21250000E+02   5.00000000E-01   5.00000000E-01   1.31157831E+05   4.80728164E+04   1.23685784E-03   9.66410616E-04   9.39174195E-04   6.01267136E+03   8.48353810E-06   4.73250079E-02   6.67913019E-01   1.05536111E-01   8.69206191E+05   3.65540718E-02   3.81115151E-02   3.74224116E-02   3.71217347E-02   2.00601347E+04   1.76164123E+04   1.16095233E+05   3.04844273E+04   3.49646065E+05   0.00000000E+00   8.07607425E-03   8.30221842E-03   8.28570002E-03   8.24912660E-03   3.42576565E+04   4.56239916E+04   4.63341320E+04   2.47721766E-06   2.86970453E+03   1.94925325E-05   6.95808071E-05   6.83444873E-05   2.36437507E-05   3.52254825E+01   4.24383968E+01   1.42705148E+03   3.18127268E+01   3.44987313E+02   3.85412833E+01   3.97154313E+01   5.65751833E+02   3.90435175E+01   5.60021238E+01