 TITLE = "Mineral Area" 
VARIABLES = "X"          "Y"              "Z"            "Forsterite"     "Enstatite(alph" "Anorthite"      "Tremolite"      "Pargasite"      "Anhydrite"      "Clinochlore"    "Albite(low)"    "Fayalite"       "Epidote"        "Kaolinite"      "Muscovite(orde" "Sudoite"        "Saponite(Mg)"   "Scolecite"      "FeS(am)"        "Quartz(alpha)"  "Montmorillonit"
 ZONE I=         100 , J=           1 , K=           1  F=POINT
   1.75000000E+01   5.00000000E-01   5.00000000E-01   9.99907947E-02   9.99986882E-02   9.99939464E-02   9.83658014E-02   9.83623155E-02   8.54619420E-02   8.36839423E+03   9.95741960E-02   9.99303574E-02   9.99999999E-02   9.58569236E-02   0.00000000E+00   0.00000000E+00   6.30881465E+03   9.28539426E-02   0.00000000E+00   1.00016233E+03   9.99644826E-02
   5.25000000E+01   5.00000000E-01   5.00000000E-01   9.99907947E-02   9.99986883E-02   9.99939464E-02   9.83658237E-02   9.83623155E-02   8.79967999E-02   7.36303429E+03   9.98719462E-02   9.99303681E-02   1.00000000E-01   9.58594960E-02   0.00000000E+00   0.00000000E+00   7.02222723E+03   9.28544082E-02   0.00000000E+00   1.22514047E+03   9.99718154E-02
   8.75000000E+01   5.00000000E-01   5.00000000E-01   9.99907947E-02   9.99986885E-02   9.99939464E-02   9.83658530E-02   9.83623155E-02   9.05048390E-02   6.80616756E+03   1.00018493E-01   9.99303849E-02   1.00000000E-01   9.58609803E-02   0.00000000E+00   0.00000000E+00   7.44961152E+03   9.28548203E-02   0.00000000E+00   1.29670126E+03   9.99770014E-02
   1.22500000E+02   5.00000000E-01   5.00000000E-01   9.99907947E-02   9.99986887E-02   9.99939464E-02   9.83658777E-02   9.83623155E-02   9.28194981E-02   6.57381512E+03   1.00074820E-01   9.99304075E-02   1.00000000E-01   9.58618587E-02   0.00000000E+00   0.00000000E+00   7.63184291E+03   9.28551348E-02   0.00000000E+00   1.31341948E+03   9.99798006E-02
   1.57500000E+02   5.00000000E-01   5.00000000E-01   9.99907947E-02   9.99986889E-02   9.99939464E-02   9.83658953E-02   9.83623155E-02   9.48511426E-02   6.48349719E+03   1.00094321E-01   9.99304355E-02   1.00000000E-01   9.58625225E-02   0.00000000E+00   0.00000000E+00   7.70670590E+03   9.28553864E-02   0.00000000E+00   1.31014511E+03   9.99814710E-02
   1.92500000E+02   5.00000000E-01   5.00000000E-01   9.99907947E-02   9.99986891E-02   9.99939464E-02   9.83659065E-02   9.83623155E-02   9.65672921E-02   6.45024141E+03   1.00099415E-01   9.99304687E-02   1.00000000E-01   9.58631167E-02   0.00000000E+00   0.00000000E+00   7.73904556E+03   9.28555974E-02   0.00000000E+00   1.29943378E+03   9.99826673E-02
   2.27500000E+02   5.00000000E-01   5.00000000E-01   9.99907947E-02   9.99986893E-02   9.99939464E-02   9.83659126E-02   9.83623155E-02   9.79734820E-02   6.43980633E+03   1.00098791E-01   9.99305067E-02   1.00000000E-01   9.58636973E-02   0.00000000E+00   0.00000000E+00   7.75470687E+03   9.28557798E-02   0.00000000E+00   1.28593110E+03   9.99836691E-02
   2.62500000E+02   5.00000000E-01   5.00000000E-01   9.99907947E-02   9.99986895E-02   9.99939464E-02   9.83659148E-02   9.83623155E-02   9.90973360E-02   6.43873958E+03   1.00095801E-01   9.99305495E-02   1.00000000E-01   9.58642868E-02   0.00000000E+00   0.00000000E+00   7.76378475E+03   9.28559407E-02   0.00000000E+00   1.27140503E+03   9.99845911E-02
   2.97500000E+02   5.00000000E-01   5.00000000E-01   9.99907947E-02   9.99986897E-02   9.99939464E-02   9.83659141E-02   9.83623155E-02   9.99768508E-02   6.44172840E+03   1.00091759E-01   9.99305968E-02   1.00000000E-01   9.58648950E-02   0.00000000E+00   0.00000000E+00   7.77026482E+03   9.28560846E-02   0.00000000E+00   1.25654806E+03   9.99854803E-02
   3.32500000E+02   5.00000000E-01   5.00000000E-01   9.99907947E-02   9.99986899E-02   9.99939464E-02   9.83659114E-02   9.83623155E-02   1.00651107E-01   6.44664457E+03   1.00087188E-01   9.99306486E-02   1.00000000E-01   9.58655262E-02   0.00000000E+00   0.00000000E+00   7.77574911E+03   9.28562147E-02   0.00000000E+00   1.24163976E+03   9.99863557E-02
   3.67500000E+02   5.00000000E-01   5.00000000E-01   9.99907947E-02   9.99986901E-02   9.99939464E-02   9.83659073E-02   9.83623155E-02   1.01158661E-01   6.45262382E+03   1.00082301E-01   9.99307048E-02   1.00000000E-01   9.58661822E-02   0.00000000E+00   0.00000000E+00   7.78089128E+03   9.28563333E-02   0.00000000E+00   1.22679629E+03   9.99872246E-02
   4.02500000E+02   5.00000000E-01   5.00000000E-01   9.99907947E-02   9.99986904E-02   9.99939464E-02   9.83659025E-02   9.83623155E-02   1.01535086E-01   6.45931196E+03   1.00077186E-01   9.99307652E-02   1.00000000E-01   9.58668638E-02   0.00000000E+00   0.00000000E+00   7.78595753E+03   9.28564424E-02   0.00000000E+00   1.21206711E+03   9.99880894E-02
   4.37500000E+02   5.00000000E-01   5.00000000E-01   9.99907947E-02   9.99986906E-02   9.99939464E-02   9.83658976E-02   9.83623155E-02   1.01809559E-01   6.46656120E+03   1.00071885E-01   9.99308298E-02   1.00000000E-01   9.58675714E-02   0.00000000E+00   0.00000000E+00   7.79105100E+03   9.28565436E-02   0.00000000E+00   1.19747399E+03   9.99889499E-02
   4.72500000E+02   5.00000000E-01   5.00000000E-01   9.99907947E-02   9.99986909E-02   9.99939464E-02   9.83658933E-02   9.83623155E-02   1.02005507E-01   6.47430628E+03   1.00066418E-01   9.99308986E-02   1.00000000E-01   9.58683048E-02   0.00000000E+00   0.00000000E+00   7.79620302E+03   9.28566381E-02   0.00000000E+00   1.18302736E+03   9.99898055E-02
   5.07500000E+02   5.00000000E-01   5.00000000E-01   9.99907947E-02   9.99986912E-02   9.99939464E-02   9.83658906E-02   9.83623155E-02   1.02141436E-01   6.48251283E+03   1.00060800E-01   9.99309715E-02   1.00000000E-01   9.58690639E-02   0.00000000E+00   0.00000000E+00   7.80141003E+03   9.28567268E-02   0.00000000E+00   1.16873117E+03   9.99906547E-02
   5.42500000E+02   5.00000000E-01   5.00000000E-01   9.99907947E-02   9.99986914E-02   9.99939464E-02   9.83658909E-02   9.83623155E-02   1.02231781E-01   6.49115537E+03   1.00055047E-01   9.99310485E-02   9.99999999E-02   9.58698483E-02   0.00000000E+00   0.00000000E+00   7.80664968E+03   9.28568107E-02   0.00000000E+00   1.15458857E+03   9.99914964E-02
   5.77500000E+02   5.00000000E-01   5.00000000E-01   9.99907947E-02   9.99986917E-02   9.99939464E-02   9.83658952E-02   9.83623155E-02   1.02287684E-01   6.50020699E+03   1.00049173E-01   9.99311296E-02   9.99999999E-02   9.58706580E-02   0.00000000E+00   0.00000000E+00   7.81189022E+03   9.28568905E-02   0.00000000E+00   1.14060149E+03   9.99923293E-02
   6.12500000E+02   5.00000000E-01   5.00000000E-01   9.99907947E-02   9.99986920E-02   9.99939464E-02   9.83659034E-02   9.83623155E-02   1.02317676E-01   6.50963487E+03   1.00043195E-01   9.99312148E-02   9.99999999E-02   9.58714924E-02   0.00000000E+00   0.00000000E+00   7.81709529E+03   9.28569668E-02   0.00000000E+00   1.12677118E+03   9.99931523E-02
   6.47500000E+02   5.00000000E-01   5.00000000E-01   9.99907947E-02   9.99986923E-02   9.99939464E-02   9.83659146E-02   9.83623155E-02   1.02328240E-01   6.51939884E+03   1.00037133E-01   9.99313041E-02   9.99999999E-02   9.58723515E-02   0.00000000E+00   0.00000000E+00   7.82222451E+03   9.28570401E-02   0.00000000E+00   1.11309980E+03   9.99939646E-02
   6.82500000E+02   5.00000000E-01   5.00000000E-01   9.99907947E-02   9.99986926E-02   9.99939464E-02   9.83659279E-02   9.83623155E-02   1.02324281E-01   6.52945192E+03   1.00031010E-01   9.99313975E-02   9.99999999E-02   9.58732352E-02   0.00000000E+00   0.00000000E+00   7.82723114E+03   9.28571108E-02   0.00000000E+00   1.09959109E+03   9.99947658E-02
   7.17500000E+02   5.00000000E-01   5.00000000E-01   9.99907947E-02   9.99986930E-02   9.99939464E-02   9.83659426E-02   9.83623155E-02   1.02309495E-01   6.53974073E+03   1.00024848E-01   9.99314951E-02   9.99999999E-02   9.58741434E-02   0.00000000E+00   0.00000000E+00   7.83206159E+03   9.28571795E-02   0.00000000E+00   1.08624875E+03   9.99955557E-02
   7.52500000E+02   5.00000000E-01   5.00000000E-01   9.99907947E-02   9.99986933E-02   9.99939464E-02   9.83659583E-02   9.83623155E-02   1.02286656E-01   6.55020579E+03   1.00018674E-01   9.99315968E-02   9.99999999E-02   9.58750765E-02   0.00000000E+00   0.00000000E+00   7.83665645E+03   9.28572465E-02   0.00000000E+00   1.07307490E+03   9.99963347E-02
   7.87500000E+02   5.00000000E-01   5.00000000E-01   9.99907947E-02   9.99986936E-02   9.99939464E-02   9.83659748E-02   9.83623155E-02   1.02257850E-01   6.56078240E+03   1.00012515E-01   9.99317028E-02   9.99999998E-02   9.58760348E-02   0.00000000E+00   0.00000000E+00   7.84095100E+03   9.28573123E-02   0.00000000E+00   1.06007350E+03   9.99971031E-02
   8.22500000E+02   5.00000000E-01   5.00000000E-01   9.99907947E-02   9.99986940E-02   9.99939464E-02   9.83659919E-02   9.83623155E-02   1.02224643E-01   6.57140139E+03   1.00006398E-01   9.99318129E-02   9.99999998E-02   9.58770190E-02   0.00000000E+00   0.00000000E+00   7.84487696E+03   9.28573772E-02   0.00000000E+00   1.04724848E+03   9.99978622E-02
   8.57500000E+02   5.00000000E-01   5.00000000E-01   9.99907947E-02   9.99986944E-02   9.99939464E-02   9.83660097E-02   9.83623155E-02   1.02188214E-01   6.58199040E+03   1.00000352E-01   9.99319273E-02   9.99999997E-02   9.58780301E-02   0.00000000E+00   0.00000000E+00   7.84836349E+03   9.28574418E-02   0.00000000E+00   1.03460619E+03   9.99986132E-02
   8.92500000E+02   5.00000000E-01   5.00000000E-01   9.99907947E-02   9.99986947E-02   9.99939464E-02   9.83660279E-02   9.83623155E-02   1.02149457E-01   6.59247476E+03   9.99944058E-02   9.99320458E-02   9.99999997E-02   9.58790694E-02   0.00000000E+00   0.00000000E+00   7.85134003E+03   9.28575064E-02   0.00000000E+00   1.02214920E+03   9.99993578E-02
   9.27500000E+02   5.00000000E-01   5.00000000E-01   9.99907947E-02   9.99986951E-02   9.99939464E-02   9.83660466E-02   9.83623155E-02   1.02109051E-01   6.60277884E+03   9.99885871E-02   9.99321684E-02   9.99999996E-02   9.58801381E-02   0.00000000E+00   0.00000000E+00   7.85373712E+03   9.28575715E-02   0.00000000E+00   1.00988224E+03   1.00000098E-01
   9.62500000E+02   5.00000000E-01   5.00000000E-01   9.99907947E-02   9.99986955E-02   9.99939464E-02   9.83660657E-02   9.83623155E-02   1.02067518E-01   6.61282839E+03   9.99829227E-02   9.99322952E-02   9.99999994E-02   9.58812382E-02   0.00000000E+00   0.00000000E+00   7.85548791E+03   9.28576376E-02   0.00000000E+00   9.97811380E+02   1.00000836E-01
   9.97500000E+02   5.00000000E-01   5.00000000E-01   9.99907947E-02   9.99986959E-02   9.99939464E-02   9.83660851E-02   9.83623155E-02   1.02025258E-01   6.62255205E+03   9.99774375E-02   9.99324259E-02   9.99999992E-02   9.58823715E-02   0.00000000E+00   0.00000000E+00   7.85653029E+03   9.28577051E-02   0.00000000E+00   9.85942988E+02   1.00001574E-01
   1.03250000E+03   5.00000000E-01   5.00000000E-01   9.99907947E-02   9.99986963E-02   9.99939464E-02   9.83661048E-02   9.83623155E-02   1.01982586E-01   6.63188167E+03   9.99721542E-02   9.99325605E-02   9.99999990E-02   9.58835402E-02   0.00000000E+00   0.00000000E+00   7.85681049E+03   9.28577745E-02   0.00000000E+00   9.74277997E+02   1.00002315E-01
   1.06750000E+03   5.00000000E-01   5.00000000E-01   9.99907947E-02   9.99986968E-02   9.99939464E-02   9.83661247E-02   9.83623155E-02   1.01939745E-01   6.64075465E+03   9.99670929E-02   9.99326988E-02   9.99999987E-02   9.58847466E-02   0.00000000E+00   0.00000000E+00   7.85628302E+03   9.28578462E-02   0.00000000E+00   9.62819494E+02   1.00003061E-01
   1.10250000E+03   5.00000000E-01   5.00000000E-01   9.99907947E-02   9.99986972E-02   9.99939464E-02   9.83661446E-02   9.83623155E-02   1.01896930E-01   6.64911502E+03   9.99622705E-02   9.99328406E-02   9.99999983E-02   9.58859932E-02   0.00000000E+00   0.00000000E+00   7.85491301E+03   9.28579208E-02   0.00000000E+00   9.51569693E+02   1.00003814E-01
   1.13750000E+03   5.00000000E-01   5.00000000E-01   9.99907947E-02   9.99986977E-02   9.99939464E-02   9.83661647E-02   9.83623155E-02   1.01854291E-01   6.65691486E+03   9.99577004E-02   9.99329858E-02   9.99999978E-02   9.58872823E-02   0.00000000E+00   0.00000000E+00   7.85267702E+03   9.28579986E-02   0.00000000E+00   9.40532502E+02   1.00004577E-01
   1.17250000E+03   5.00000000E-01   5.00000000E-01   9.99907947E-02   9.99986982E-02   9.99939464E-02   9.83661846E-02   9.83623155E-02   1.01811949E-01   6.66411472E+03   9.99533925E-02   9.99331341E-02   9.99999972E-02   9.58886163E-02   0.00000000E+00   0.00000000E+00   7.84956580E+03   9.28580802E-02   0.00000000E+00   9.29705451E+02   1.00005351E-01
   1.20750000E+03   5.00000000E-01   5.00000000E-01   9.99907947E-02   9.99986986E-02   9.99939464E-02   9.83662045E-02   9.83623155E-02   1.01769996E-01   6.67068487E+03   9.99493526E-02   9.99332853E-02   9.99999963E-02   9.58899975E-02   0.00000000E+00   0.00000000E+00   7.84558308E+03   9.28581660E-02   0.00000000E+00   9.19088389E+02   1.00006139E-01
   1.24250000E+03   5.00000000E-01   5.00000000E-01   9.99907947E-02   9.99986991E-02   9.99939464E-02   9.83662242E-02   9.83623155E-02   1.01728505E-01   6.67660593E+03   9.99455829E-02   9.99334390E-02   9.99999951E-02   9.58914277E-02   0.00000000E+00   0.00000000E+00   7.84074544E+03   9.28582563E-02   0.00000000E+00   9.08683440E+02   1.00006941E-01
   1.27750000E+03   5.00000000E-01   5.00000000E-01   9.99907947E-02   9.99986996E-02   9.99939464E-02   9.83662436E-02   9.83623155E-02   1.01687529E-01   6.68186865E+03   9.99420817E-02   9.99335951E-02   9.99999936E-02   9.58929087E-02   0.00000000E+00   0.00000000E+00   7.83508362E+03   9.28583515E-02   0.00000000E+00   8.98489482E+02   1.00007758E-01
   1.31250000E+03   5.00000000E-01   5.00000000E-01   9.99907947E-02   9.99987002E-02   9.99939464E-02   9.83662627E-02   9.83623155E-02   1.01647106E-01   6.68647343E+03   9.99388438E-02   9.99337531E-02   9.99999917E-02   9.58944419E-02   0.00000000E+00   0.00000000E+00   7.82864286E+03   9.28584521E-02   0.00000000E+00   8.88498476E+02   1.00008591E-01
   1.34750000E+03   5.00000000E-01   5.00000000E-01   9.99907947E-02   9.99987007E-02   9.99939464E-02   9.83662814E-02   9.83623155E-02   1.01607265E-01   6.69043090E+03   9.99358607E-02   9.99339128E-02   9.99999893E-02   9.58960281E-02   0.00000000E+00   0.00000000E+00   7.82147848E+03   9.28585584E-02   0.00000000E+00   8.78706411E+02   1.00009439E-01
   1.38250000E+03   5.00000000E-01   5.00000000E-01   9.99907947E-02   9.99987012E-02   9.99939464E-02   9.83662995E-02   9.83623155E-02   1.01568019E-01   6.69376095E+03   9.99331212E-02   9.99340739E-02   9.99999861E-02   9.58976677E-02   0.00000000E+00   0.00000000E+00   7.81365562E+03   9.28586706E-02   0.00000000E+00   8.69108454E+02   1.00010302E-01
   1.41750000E+03   5.00000000E-01   5.00000000E-01   9.99907948E-02   9.99987018E-02   9.99939464E-02   9.83663171E-02   9.83623155E-02   1.01529376E-01   6.69649180E+03   9.99306115E-02   9.99342360E-02   9.99999821E-02   9.58993607E-02   0.00000000E+00   0.00000000E+00   7.80524743E+03   9.28587892E-02   0.00000000E+00   8.59699064E+02   1.00011178E-01
   1.45250000E+03   5.00000000E-01   5.00000000E-01   9.99907948E-02   9.99987024E-02   9.99939464E-02   9.83663340E-02   9.83623155E-02   1.01491335E-01   6.69865927E+03   9.99283161E-02   9.99343989E-02   9.99999770E-02   9.59011063E-02   0.00000000E+00   0.00000000E+00   7.79633205E+03   9.28589144E-02   0.00000000E+00   8.50476190E+02   1.00012065E-01
   1.48750000E+03   5.00000000E-01   5.00000000E-01   9.99907948E-02   9.99987030E-02   9.99939464E-02   9.83663502E-02   9.83623155E-02   1.01453888E-01   6.70030548E+03   9.99262181E-02   9.99345621E-02   9.99999705E-02   9.59029034E-02   0.00000000E+00   0.00000000E+00   7.78699050E+03   9.28590465E-02   0.00000000E+00   8.41440991E+02   1.00012962E-01
   1.52250000E+03   5.00000000E-01   5.00000000E-01   9.99907948E-02   9.99987036E-02   9.99939464E-02   9.83663657E-02   9.83623155E-02   1.01417023E-01   6.70147616E+03   9.99242997E-02   9.99347255E-02   9.99999624E-02   9.59047500E-02   0.00000000E+00   0.00000000E+00   7.77730935E+03   9.28591858E-02   0.00000000E+00   8.32576194E+02   1.00013866E-01
   1.55750000E+03   5.00000000E-01   5.00000000E-01   9.99907949E-02   9.99987042E-02   9.99939464E-02   9.83663807E-02   9.83623155E-02   1.01380721E-01   6.70222090E+03   9.99225431E-02   9.99348887E-02   9.99999521E-02   9.59066438E-02   0.00000000E+00   0.00000000E+00   7.76737203E+03   9.28593327E-02   0.00000000E+00   8.23872428E+02   1.00014774E-01
   1.59250000E+03   5.00000000E-01   5.00000000E-01   9.99907950E-02   9.99987048E-02   9.99939464E-02   9.83663951E-02   9.83623155E-02   1.01344963E-01   6.70259117E+03   9.99209306E-02   9.99350516E-02   9.99999391E-02   9.59085820E-02   0.00000000E+00   0.00000000E+00   7.75725919E+03   9.28594874E-02   0.00000000E+00   8.15328207E+02   1.00015683E-01
   1.62750000E+03   5.00000000E-01   5.00000000E-01   9.99907951E-02   9.99987055E-02   9.99939464E-02   9.83664087E-02   9.83623155E-02   1.01309727E-01   6.70263820E+03   9.99194453E-02   9.99352137E-02   9.99999229E-02   9.59105613E-02   0.00000000E+00   0.00000000E+00   7.74704959E+03   9.28596503E-02   0.00000000E+00   8.06930426E+02   1.00016589E-01
   1.66250000E+03   5.00000000E-01   5.00000000E-01   9.99907952E-02   9.99987061E-02   9.99939464E-02   9.83664217E-02   9.83623155E-02   1.01274986E-01   6.70241256E+03   9.99180713E-02   9.99353750E-02   9.99999027E-02   9.59125780E-02   0.00000000E+00   0.00000000E+00   7.73681548E+03   9.28598218E-02   0.00000000E+00   7.98672407E+02   1.00017490E-01
   1.69750000E+03   5.00000000E-01   5.00000000E-01   9.99907953E-02   9.99987068E-02   9.99939464E-02   9.83664341E-02   9.83623155E-02   1.01240717E-01   6.70196264E+03   9.99167944E-02   9.99355353E-02   9.99998783E-02   9.59146279E-02   0.00000000E+00   0.00000000E+00   7.72662306E+03   9.28600024E-02   0.00000000E+00   7.90547731E+02   1.00018382E-01
   1.73250000E+03   5.00000000E-01   5.00000000E-01   9.99907955E-02   9.99987075E-02   9.99939464E-02   9.83664459E-02   9.83623155E-02   1.01206893E-01   6.70133418E+03   9.99156018E-02   9.99356945E-02   9.99998490E-02   9.59167068E-02   0.00000000E+00   0.00000000E+00   7.71653034E+03   9.28601924E-02   0.00000000E+00   7.82560177E+02   1.00019261E-01
   1.76750000E+03   5.00000000E-01   5.00000000E-01   9.99907958E-02   9.99987082E-02   9.99939464E-02   9.83664575E-02   9.83623155E-02   1.01173489E-01   6.70056826E+03   9.99144827E-02   9.99358525E-02   9.99998147E-02   9.59188102E-02   0.00000000E+00   0.00000000E+00   7.70659084E+03   9.28603925E-02   0.00000000E+00   7.74695034E+02   1.00020125E-01
   1.80250000E+03   5.00000000E-01   5.00000000E-01   9.99907961E-02   9.99987090E-02   9.99939464E-02   9.83664686E-02   9.83623155E-02   1.01140482E-01   6.69970117E+03   9.99134282E-02   9.99360092E-02   9.99997747E-02   9.59209332E-02   0.00000000E+00   0.00000000E+00   7.69685161E+03   9.28606033E-02   0.00000000E+00   7.66945305E+02   1.00020970E-01
   1.83750000E+03   5.00000000E-01   5.00000000E-01   9.99907966E-02   9.99987097E-02   9.99939464E-02   9.83664793E-02   9.83623155E-02   1.01107851E-01   6.69876445E+03   9.99124312E-02   9.99361648E-02   9.99997280E-02   9.59230711E-02   0.00000000E+00   0.00000000E+00   7.68735182E+03   9.28608253E-02   0.00000000E+00   7.59306093E+02   1.00021793E-01
   1.87250000E+03   5.00000000E-01   5.00000000E-01   9.99907972E-02   9.99987105E-02   9.99939464E-02   9.83664898E-02   9.83623155E-02   1.01075577E-01   6.69778439E+03   9.99114869E-02   9.99363192E-02   9.99996729E-02   9.59252189E-02   0.00000000E+00   0.00000000E+00   7.67812404E+03   9.28610595E-02   0.00000000E+00   7.51772894E+02   1.00022592E-01
   1.90750000E+03   5.00000000E-01   5.00000000E-01   9.99907980E-02   9.99987113E-02   9.99939464E-02   9.83665003E-02   9.83623155E-02   1.01043645E-01   6.69678176E+03   9.99105923E-02   9.99364728E-02   9.99996078E-02   9.59273717E-02   0.00000000E+00   0.00000000E+00   7.66919511E+03   9.28613065E-02   0.00000000E+00   7.44341584E+02   1.00023363E-01
   1.94250000E+03   5.00000000E-01   5.00000000E-01   9.99907991E-02   9.99987121E-02   9.99939464E-02   9.83665106E-02   9.83623155E-02   1.01012043E-01   6.69577159E+03   9.99097461E-02   9.99366256E-02   9.99995315E-02   9.59295244E-02   0.00000000E+00   0.00000000E+00   7.66058746E+03   9.28615674E-02   0.00000000E+00   7.37008391E+02   1.00024106E-01
   1.97750000E+03   5.00000000E-01   5.00000000E-01   9.99908005E-02   9.99987130E-02   9.99939464E-02   9.83665210E-02   9.83623155E-02   1.00980765E-01   6.69476354E+03   9.99089490E-02   9.99367782E-02   9.99994441E-02   9.59316720E-02   0.00000000E+00   0.00000000E+00   7.65231841E+03   9.28618432E-02   0.00000000E+00   7.29769870E+02   1.00024818E-01
   2.01250000E+03   5.00000000E-01   5.00000000E-01   9.99908023E-02   9.99987138E-02   9.99939464E-02   9.83665315E-02   9.83623155E-02   1.00949809E-01   6.69376219E+03   9.99082030E-02   9.99369310E-02   9.99993476E-02   9.59338095E-02   0.00000000E+00   0.00000000E+00   7.64440069E+03   9.28621349E-02   0.00000000E+00   7.22623444E+02   1.00025496E-01
   2.04750000E+03   5.00000000E-01   5.00000000E-01   9.99908046E-02   9.99987147E-02   9.99939464E-02   9.83665422E-02   9.83623155E-02   1.00919179E-01   6.69276728E+03   9.99075120E-02   9.99370845E-02   9.99992452E-02   9.59359320E-02   0.00000000E+00   0.00000000E+00   7.63684313E+03   9.28624440E-02   0.00000000E+00   7.15583149E+02   1.00026140E-01
   2.08250000E+03   5.00000000E-01   5.00000000E-01   9.99908077E-02   9.99987156E-02   9.99939464E-02   9.83665530E-02   9.83623155E-02   1.00888882E-01   6.69177283E+03   9.99068810E-02   9.99372395E-02   9.99991404E-02   9.59380343E-02   0.00000000E+00   0.00000000E+00   7.62965523E+03   9.28627717E-02   0.00000000E+00   7.08627608E+02   1.00026747E-01
   2.11750000E+03   5.00000000E-01   5.00000000E-01   9.99908116E-02   9.99987166E-02   9.99939464E-02   9.83665639E-02   9.83623155E-02   1.00858933E-01   6.69076893E+03   9.99063164E-02   9.99373967E-02   9.99990360E-02   9.59401115E-02   0.00000000E+00   0.00000000E+00   7.62284233E+03   9.28631195E-02   0.00000000E+00   7.01754363E+02   1.00027317E-01
   2.15250000E+03   5.00000000E-01   5.00000000E-01   9.99908166E-02   9.99987175E-02   9.99939464E-02   9.83665748E-02   9.83623155E-02   1.00829354E-01   6.68974147E+03   9.99058262E-02   9.99375573E-02   9.99989340E-02   9.59421584E-02   0.00000000E+00   0.00000000E+00   7.61640804E+03   9.28634891E-02   0.00000000E+00   6.94961097E+02   1.00027848E-01
   2.18750000E+03   5.00000000E-01   5.00000000E-01   9.99908230E-02   9.99987185E-02   9.99939464E-02   9.83665856E-02   9.83623155E-02   1.00800167E-01   6.68867224E+03   9.99054191E-02   9.99377224E-02   9.99988356E-02   9.59441700E-02   0.00000000E+00   0.00000000E+00   7.61035491E+03   9.28638824E-02   0.00000000E+00   6.88245591E+02   1.00028340E-01
   2.22250000E+03   5.00000000E-01   5.00000000E-01   9.99908311E-02   9.99987195E-02   9.99939464E-02   9.83665962E-02   9.83623155E-02   1.00771403E-01   6.68753913E+03   9.99051053E-02   9.99378935E-02   9.99987418E-02   9.59461410E-02   0.00000000E+00   0.00000000E+00   7.60468499E+03   9.28643013E-02   0.00000000E+00   6.81605685E+02   1.00028792E-01
   2.25750000E+03   5.00000000E-01   5.00000000E-01   9.99908412E-02   9.99987206E-02   9.99939464E-02   9.83666062E-02   9.83623155E-02   1.00743097E-01   6.68631621E+03   9.99048961E-02   9.99380721E-02   9.99986518E-02   9.59480660E-02   0.00000000E+00   0.00000000E+00   7.59940023E+03   9.28647480E-02   0.00000000E+00   6.75039239E+02   1.00029202E-01
   2.29250000E+03   5.00000000E-01   5.00000000E-01   9.99908536E-02   9.99987216E-02   9.99939464E-02   9.83666156E-02   9.83623155E-02   1.00715285E-01   6.68497380E+03   9.99048039E-02   9.99382603E-02   9.99985621E-02   9.59499395E-02   0.00000000E+00   0.00000000E+00   7.59450291E+03   9.28652250E-02   0.00000000E+00   6.68544097E+02   1.00029570E-01
   2.32750000E+03   5.00000000E-01   5.00000000E-01   9.99908687E-02   9.99987227E-02   9.99939464E-02   9.83666241E-02   9.83623155E-02   1.00688008E-01   6.68347828E+03   9.99048427E-02   9.99384604E-02   9.99984677E-02   9.59517558E-02   0.00000000E+00   0.00000000E+00   7.58999621E+03   9.28657350E-02   0.00000000E+00   6.62118055E+02   1.00029894E-01
   2.36250000E+03   5.00000000E-01   5.00000000E-01   9.99908870E-02   9.99987238E-02   9.99939464E-02   9.83666313E-02   9.83623155E-02   1.00661306E-01   6.68179164E+03   9.99050276E-02   9.99386749E-02   9.99983636E-02   9.59535090E-02   0.00000000E+00   0.00000000E+00   7.58588469E+03   9.28662809E-02   0.00000000E+00   6.55758820E+02   1.00030176E-01
   2.39750000E+03   5.00000000E-01   5.00000000E-01   9.99909086E-02   9.99987250E-02   9.99939465E-02   9.83666373E-02   9.83623155E-02   1.00635221E-01   6.67987099E+03   9.99053754E-02   9.99389072E-02   9.99982486E-02   9.59551926E-02   0.00000000E+00   0.00000000E+00   7.58217484E+03   9.28668662E-02   0.00000000E+00   6.49463978E+02   1.00030412E-01
   2.43250000E+03   5.00000000E-01   5.00000000E-01   9.99909339E-02   9.99987261E-02   9.99939465E-02   9.83666418E-02   9.83623155E-02   1.00609795E-01   6.67766775E+03   9.99059046E-02   9.99391610E-02   9.99981267E-02   9.59568002E-02   0.00000000E+00   0.00000000E+00   7.57887568E+03   9.28674947E-02   0.00000000E+00   6.43230948E+02   1.00030604E-01
   2.46750000E+03   5.00000000E-01   5.00000000E-01   9.99909631E-02   9.99987273E-02   9.99939465E-02   9.83666452E-02   9.83623155E-02   1.00585065E-01   6.67512691E+03   9.99066359E-02   9.99394409E-02   9.99980073E-02   9.59583245E-02   0.00000000E+00   0.00000000E+00   7.57599937E+03   9.28681707E-02   0.00000000E+00   6.37056938E+02   1.00030748E-01
   2.50250000E+03   5.00000000E-01   5.00000000E-01   9.99909962E-02   9.99987285E-02   9.99939465E-02   9.83666476E-02   9.83623155E-02   1.00561067E-01   6.67218606E+03   9.99075924E-02   9.99397524E-02   9.99979033E-02   9.59597579E-02   0.00000000E+00   0.00000000E+00   7.57356192E+03   9.28688993E-02   0.00000000E+00   6.30938894E+02   1.00030846E-01
   2.53750000E+03   5.00000000E-01   5.00000000E-01   9.99910333E-02   9.99987298E-02   9.99939465E-02   9.83666497E-02   9.83623155E-02   1.00537835E-01   6.66877417E+03   9.99088003E-02   9.99401024E-02   9.99978281E-02   9.59610923E-02   0.00000000E+00   0.00000000E+00   7.57158387E+03   9.28696861E-02   0.00000000E+00   6.24873442E+02   1.00030894E-01
   2.57250000E+03   5.00000000E-01   5.00000000E-01   9.99910741E-02   9.99987310E-02   9.99939466E-02   9.83666524E-02   9.83623155E-02   1.00515395E-01   6.66480991E+03   9.99102894E-02   9.99404991E-02   9.99977930E-02   9.59623186E-02   0.00000000E+00   0.00000000E+00   7.57009131E+03   9.28705379E-02   0.00000000E+00   6.18856817E+02   1.00030892E-01
   2.60750000E+03   5.00000000E-01   5.00000000E-01   9.99911186E-02   9.99987323E-02   9.99939466E-02   9.83666565E-02   9.83623155E-02   1.00493770E-01   6.66019938E+03   9.99120939E-02   9.99409530E-02   9.99978046E-02   9.59634270E-02   0.00000000E+00   0.00000000E+00   7.56911688E+03   9.28714627E-02   0.00000000E+00   6.12884782E+02   1.00030837E-01
   2.64250000E+03   5.00000000E-01   5.00000000E-01   9.99911662E-02   9.99987336E-02   9.99939466E-02   9.83666632E-02   9.83623155E-02   1.00472977E-01   6.65483303E+03   9.99142538E-02   9.99414772E-02   9.99978645E-02   9.59644068E-02   0.00000000E+00   0.00000000E+00   7.56870079E+03   9.28724699E-02   0.00000000E+00   6.06952528E+02   1.00030729E-01
   2.67750000E+03   5.00000000E-01   5.00000000E-01   9.99912168E-02   9.99987350E-02   9.99939467E-02   9.83666734E-02   9.83623155E-02   1.00453029E-01   6.64858158E+03   9.99168159E-02   9.99420889E-02   9.99979697E-02   9.59652459E-02   0.00000000E+00   0.00000000E+00   7.56889153E+03   9.28735709E-02   0.00000000E+00   6.01054557E+02   1.00030563E-01
   2.71250000E+03   5.00000000E-01   5.00000000E-01   9.99912699E-02   9.99987363E-02   9.99939467E-02   9.83666884E-02   9.83623155E-02   1.00433929E-01   6.64129064E+03   9.99198362E-02   9.99428100E-02   9.99981142E-02   9.59659312E-02   0.00000000E+00   0.00000000E+00   7.56974620E+03   9.28747798E-02   0.00000000E+00   5.95184533E+02   1.00030338E-01
   2.74750000E+03   5.00000000E-01   5.00000000E-01   9.99913256E-02   9.99987377E-02   9.99939468E-02   9.83667094E-02   9.83623155E-02   1.00415681E-01   6.63277365E+03   9.99233823E-02   9.99436700E-02   9.99982906E-02   9.59664476E-02   0.00000000E+00   0.00000000E+00   7.57132941E+03   9.28761139E-02   0.00000000E+00   5.89335097E+02   1.00030050E-01
   2.78250000E+03   5.00000000E-01   5.00000000E-01   9.99913830E-02   9.99987391E-02   9.99939468E-02   9.83667383E-02   9.83623155E-02   1.00398278E-01   6.62279964E+03   9.99275375E-02   9.99447084E-02   9.99984897E-02   9.59667785E-02   0.00000000E+00   0.00000000E+00   7.57372075E+03   9.28775951E-02   0.00000000E+00   5.83497631E+02   1.00029694E-01
   2.81750000E+03   5.00000000E-01   5.00000000E-01   9.99914423E-02   9.99987405E-02   9.99939469E-02   9.83667776E-02   9.83623155E-02   1.00381712E-01   6.61108215E+03   9.99324053E-02   9.99459801E-02   9.99987034E-02   9.59669048E-02   0.00000000E+00   0.00000000E+00   7.57700114E+03   9.28792512E-02   0.00000000E+00   5.77661942E+02   1.00029267E-01
   2.85250000E+03   5.00000000E-01   5.00000000E-01   9.99915033E-02   9.99987420E-02   9.99939470E-02   9.83668312E-02   9.83623155E-02   1.00365970E-01   6.59725562E+03   9.99381179E-02   9.99475626E-02   9.99989254E-02   9.59668051E-02   0.00000000E+00   0.00000000E+00   7.58125963E+03   9.28811190E-02   0.00000000E+00   5.71815854E+02   1.00028761E-01