 TITLE = "Mineral Area" 
VARIABLES = "X"          "Y"              "Z"            "Forsterite"     "Fayalite"       "Brucite"        "Lizardite"      "Chrysotile"     "Hematite"       "Magnetite(am)"  "Saponite(Ca)"   "Saponite(K)"    "Saponite(Mg)"   "Saponite(Na)"   "Beidellite(Ca)" "Beidellite(K)"  "Beidellite(Mg)" "Beidellite(Na)" "Enstatite(alph" "Ferrosilite(al" "Anorthite"      "Albite(low)"    "Clinochlore"    "Sudoite"        "Montmor(MgCa)"  "Montmor(MgK)"   "Montmor(MgMg)"  "Montmor(MgNa)"  "Kaolinite"      "Tremolite"      "Pargasite"      "Anhydrite"      "Epidote"        "Scolecite"      "Pyrite"         "FeS(am)"        "Quartz(alpha)" 
 ZONE I=         200 , J=           1 , K=           1  F=POINT
   8.75000000E+00   5.00000000E-01   5.00000000E-01   1.31463372E+05   4.79773757E+04   0.00000000E+00   0.00000000E+00   0.00000000E+00   5.46695255E+03   0.00000000E+00   3.71372099E-02   3.91676880E+04   5.18393265E-02   6.29256525E+03   3.66289120E-02   3.81181453E-02   3.74809281E-02   3.71736267E-02   2.00602340E+04   1.76157516E+04   1.16982040E+05   2.96388307E+04   3.57593312E+05   5.09790791E-03   8.07222344E-03   8.26879687E-03   8.25696087E-03   8.19214513E-03   3.42626223E+04   4.56107805E+04   4.67185670E+04   0.00000000E+00   2.92474733E+03   1.98021850E-05   7.01103860E-05   6.87296074E-05   2.35890100E-05
   2.62500000E+01   5.00000000E-01   5.00000000E-01   1.31463371E+05   4.79791723E+04   0.00000000E+00   0.00000000E+00   0.00000000E+00   5.46695252E+03   0.00000000E+00   3.72040966E-02   3.65072204E+05   5.59728208E-02   5.22415426E+04   3.66289147E-02   3.81181490E-02   3.74809402E-02   3.71736584E-02   2.00602331E+04   1.76157830E+04   1.16982040E+05   2.96837354E+04   3.50477033E+05   4.05048308E-03   8.07224387E-03   8.26929234E-03   8.25704877E-03   8.19249620E-03   3.42626236E+04   4.56333651E+04   4.67185670E+04   0.00000000E+00   2.92474733E+03   1.98021902E-05   7.01103860E-05   6.87296552E-05   2.36015713E-05
   4.37500000E+01   5.00000000E-01   5.00000000E-01   1.31463371E+05   4.79806180E+04   0.00000000E+00   0.00000000E+00   0.00000000E+00   5.46695252E+03   0.00000000E+00   3.72297610E-02   4.61843746E+05   5.75803866E-02   7.37992721E+04   3.66289716E-02   3.81182257E-02   3.74812043E-02   3.71743318E-02   2.00602325E+04   1.76158057E+04   1.16982040E+05   2.98343287E+04   3.41532912E+05   2.71889388E-03   8.07243548E-03   8.27370003E-03   8.25787196E-03   8.19569334E-03   3.42626383E+04   4.56439453E+04   4.67185670E+04   0.00000000E+00   2.92474733E+03   1.98022317E-05   7.01103860E-05   6.87296745E-05   2.36119259E-05
   6.12500000E+01   5.00000000E-01   5.00000000E-01   1.31463371E+05   4.79821847E+04   0.00000000E+00   0.00000000E+00   0.00000000E+00   5.46695252E+03   0.00000000E+00   3.72547244E-02   5.66970521E+05   5.92337841E-02   1.03431217E+05   3.66291677E-02   3.81184751E-02   3.74821124E-02   3.71765786E-02   2.00602323E+04   1.76158287E+04   1.16982040E+05   3.00547769E+04   3.28942212E+05   1.55029566E-03   8.07291437E-03   8.28402527E-03   8.25992712E-03   8.20340422E-03   3.42626701E+04   4.56523819E+04   4.67185670E+04   0.00000000E+00   2.92474733E+03   1.98023162E-05   7.01103860E-05   6.87296895E-05   2.36200546E-05
   7.87500000E+01   5.00000000E-01   5.00000000E-01   1.31463371E+05   4.79840347E+04   0.00000000E+00   0.00000000E+00   0.00000000E+00   5.46695251E+03   0.00000000E+00   3.72873879E-02   6.98708686E+05   6.14157174E-02   1.46491571E+05   3.66294999E-02   3.81188702E-02   3.74836485E-02   3.71802498E-02   2.00602323E+04   1.76158526E+04   1.16982040E+05   3.02817630E+04   3.15505433E+05   8.87768223E-04   8.07359795E-03   8.29768658E-03   8.26285731E-03   8.21396415E-03   3.42627098E+04   4.56665601E+04   4.67185670E+04   0.00000000E+00   2.92474733E+03   1.98024206E-05   7.01103860E-05   6.87297024E-05   2.36259959E-05
   9.62500000E+01   5.00000000E-01   5.00000000E-01   1.31463371E+05   4.79862203E+04   0.00000000E+00   0.00000000E+00   0.00000000E+00   5.46695250E+03   0.00000000E+00   3.73249559E-02   8.11710969E+05   6.39716222E-02   1.96738398E+05   3.66299159E-02   3.81193290E-02   3.74855677E-02   3.71846621E-02   2.00602324E+04   1.76158769E+04   1.16982040E+05   3.04789380E+04   3.03682168E+05   5.89419678E-04   8.07435279E-03   8.31149716E-03   8.26608906E-03   8.22508206E-03   3.42627504E+04   4.56843579E+04   4.67185670E+04   0.00000000E+00   2.92474733E+03   1.98025270E-05   7.01103860E-05   6.87297135E-05   2.36301056E-05
   1.13750000E+02   5.00000000E-01   5.00000000E-01   1.31463371E+05   4.79887477E+04   0.00000000E+00   0.00000000E+00   0.00000000E+00   5.46695250E+03   0.00000000E+00   3.73636637E-02   8.82685787E+05   6.66726952E-02   2.48010774E+05   3.66303388E-02   3.81197551E-02   3.74875152E-02   3.71889366E-02   2.00602326E+04   1.76159016E+04   1.16982040E+05   3.06295760E+04   2.94679363E+05   4.57707000E-04   8.07505618E-03   8.32301763E-03   8.26909632E-03   8.23485176E-03   3.42627857E+04   4.57035902E+04   4.67185670E+04   0.00000000E+00   2.92474733E+03   1.98026211E-05   7.01103860E-05   6.87297229E-05   2.36328566E-05
   1.31250000E+02   5.00000000E-01   5.00000000E-01   1.31463371E+05   4.79916292E+04   0.00000000E+00   0.00000000E+00   0.00000000E+00   5.46695249E+03   0.00000000E+00   3.74019505E-02   9.10370962E+05   6.94196349E-02   2.96760950E+05   3.66307043E-02   3.81200809E-02   3.74891934E-02   3.71924029E-02   2.00602328E+04   1.76159268E+04   1.16982040E+05   3.07322790E+04   2.88629088E+05   3.96699642E-04   8.07563489E-03   8.33114832E-03   8.27156621E-03   8.24228333E-03   3.42628117E+04   4.57229551E+04   4.67185670E+04   0.00000000E+00   2.92474733E+03   1.98026943E-05   7.01103860E-05   6.87297309E-05   2.36346796E-05
   1.48750000E+02   5.00000000E-01   5.00000000E-01   1.31463371E+05   4.79948931E+04   0.00000000E+00   0.00000000E+00   0.00000000E+00   5.46695248E+03   0.00000000E+00   3.74397747E-02   9.02975327E+05   7.22127839E-02   3.41464078E+05   3.66309811E-02   3.81202853E-02   3.74904598E-02   3.71947944E-02   2.00602330E+04   1.76159526E+04   1.16982040E+05   3.07943300E+04   2.85086702E+05   3.67115055E-04   8.07606948E-03   8.33594587E-03   8.27341654E-03   8.24725946E-03   3.42628276E+04   4.57417820E+04   4.67185670E+04   0.00000000E+00   2.92474733E+03   1.98027449E-05   7.01103860E-05   6.87297377E-05   2.36359052E-05
   1.66250000E+02   5.00000000E-01   5.00000000E-01   1.31463371E+05   4.79985597E+04   0.00000000E+00   0.00000000E+00   0.00000000E+00   5.46695248E+03   0.00000000E+00   3.74773764E-02   8.71994963E+05   7.50714414E-02   3.81979337E+05   3.66311716E-02   3.81203845E-02   3.74913268E-02   3.71962072E-02   2.00602333E+04   1.76159791E+04   1.16982040E+05   3.08264455E+04   2.83377731E+05   3.52292293E-04   8.07637946E-03   8.33813964E-03   8.27473200E-03   8.25022617E-03   3.42628348E+04   4.57596967E+04   4.67185670E+04   0.00000000E+00   2.92474734E+03   1.98027763E-05   7.01103860E-05   6.87297431E-05   2.36367555E-05
   1.83750000E+02   5.00000000E-01   5.00000000E-01   1.31463371E+05   4.80026171E+04   0.00000000E+00   0.00000000E+00   0.00000000E+00   5.46695247E+03   0.00000000E+00   3.75146592E-02   8.28207738E+05   7.79865664E-02   4.18999055E+05   3.66312988E-02   3.81204125E-02   3.74919008E-02   3.71969297E-02   2.00602336E+04   1.76160061E+04   1.16982040E+05   3.08392613E+04   2.82830004E+05   3.44707763E-04   8.07660283E-03   8.33865647E-03   8.27567601E-03   8.25184432E-03   3.42628363E+04   4.57764680E+04   4.67185670E+04   0.00000000E+00   2.92474734E+03   1.98027944E-05   7.01103860E-05   6.87297471E-05   2.36373620E-05
   2.01250000E+02   5.00000000E-01   5.00000000E-01   1.31463371E+05   4.80070542E+04   0.00000000E+00   0.00000000E+00   0.00000000E+00   5.46695247E+03   0.00000000E+00   3.75518293E-02   7.77196256E+05   8.09692390E-02   4.52581154E+05   3.66313794E-02   3.81203931E-02   3.74922603E-02   3.71971691E-02   2.00602339E+04   1.76160334E+04   1.16982040E+05   3.08396424E+04   2.83032734E+05   3.40749561E-04   8.07676630E-03   8.33811192E-03   8.27636330E-03   8.25256472E-03   3.42628339E+04   4.57922427E+04   4.67185670E+04   0.00000000E+00   2.92474734E+03   1.98028033E-05   7.01103860E-05   6.87297496E-05   2.36378065E-05
   2.18750000E+02   5.00000000E-01   5.00000000E-01   1.31463371E+05   4.80118662E+04   0.00000000E+00   0.00000000E+00   0.00000000E+00   5.46695246E+03   0.00000000E+00   3.75893120E-02   7.21880758E+05   8.40475552E-02   4.82336264E+05   3.66314219E-02   3.81203390E-02   3.74924440E-02   3.71970345E-02   2.00602343E+04   1.76160610E+04   1.16982040E+05   3.08314982E+04   2.83760968E+05   3.38626250E-04   8.07688386E-03   8.33684390E-03   8.27685408E-03   8.25263257E-03   3.42628286E+04   4.58075270E+04   4.67185670E+04   0.00000000E+00   2.92474734E+03   1.98028048E-05   7.01103860E-05   6.87297508E-05   2.36381433E-05
   2.36250000E+02   5.00000000E-01   5.00000000E-01   1.31463371E+05   4.80169994E+04   0.00000000E+00   0.00000000E+00   0.00000000E+00   5.46695246E+03   0.00000000E+00   3.76267695E-02   6.65718516E+05   8.71878793E-02   5.08778355E+05   3.66314386E-02   3.81202650E-02   3.74925094E-02   3.71966646E-02   2.00602347E+04   1.76160885E+04   1.16982040E+05   3.08184437E+04   2.84785241E+05   3.37446276E-04   8.07697254E-03   8.33518401E-03   8.27722134E-03   8.25231009E-03   3.42628215E+04   4.58228041E+04   4.67185670E+04   0.00000000E+00   2.92474734E+03   1.98028017E-05   7.01103860E-05   6.87297508E-05   2.36384006E-05
   2.53750000E+02   5.00000000E-01   5.00000000E-01   1.31463371E+05   4.80224000E+04   0.00000000E+00   0.00000000E+00   0.00000000E+00   5.46695245E+03   0.00000000E+00   3.76637906E-02   6.09755473E+05   9.03497393E-02   5.31500040E+05   3.66314335E-02   3.81201768E-02   3.74924752E-02   3.71961102E-02   2.00602351E+04   1.76161158E+04   1.16982040E+05   3.08021605E+04   2.86014705E+05   3.36750316E-04   8.07703847E-03   8.33326768E-03   8.27749149E-03   8.25170103E-03   3.42628131E+04   4.58385113E+04   4.67185670E+04   0.00000000E+00   2.92474734E+03   1.98027947E-05   7.01103860E-05   6.87297495E-05   2.36385974E-05
   2.71250000E+02   5.00000000E-01   5.00000000E-01   1.31463371E+05   4.80280104E+04   0.00000000E+00   0.00000000E+00   0.00000000E+00   5.46695244E+03   0.00000000E+00   3.76998128E-02   5.54982571E+05   9.34810268E-02   5.50301562E+05   3.66314092E-02   3.81200783E-02   3.74923534E-02   3.71954067E-02   2.00602355E+04   1.76161428E+04   1.16982040E+05   3.07836595E+04   2.87389427E+05   3.36304733E-04   8.07708513E-03   8.33117631E-03   8.27767938E-03   8.25086764E-03   3.42628038E+04   4.58548258E+04   4.67185670E+04   0.00000000E+00   2.92474734E+03   1.98027846E-05   7.01103860E-05   6.87297472E-05   2.36387463E-05
   2.88750000E+02   5.00000000E-01   5.00000000E-01   1.31463372E+05   4.80337756E+04   0.00000000E+00   0.00000000E+00   0.00000000E+00   5.46695244E+03   0.00000000E+00   3.77342306E-02   5.02340508E+05   9.65274181E-02   5.65255426E+05   3.66313693E-02   3.81199734E-02   3.74921601E-02   3.71945936E-02   2.00602359E+04   1.76161693E+04   1.16982040E+05   3.07636859E+04   2.88859563E+05   3.35992254E-04   8.07711596E-03   8.32898020E-03   8.27779991E-03   8.24986714E-03   3.42627939E+04   4.58715755E+04   4.67185670E+04   0.00000000E+00   2.92474734E+03   1.98027720E-05   7.01103860E-05   6.87297439E-05   2.36388550E-05
   3.06250000E+02   5.00000000E-01   5.00000000E-01   1.31463372E+05   4.80396548E+04   0.00000000E+00   0.00000000E+00   0.00000000E+00   5.46695243E+03   0.00000000E+00   3.77665907E-02   4.52605919E+05   9.94490396E-02   5.76646985E+05   3.66313179E-02   3.81198664E-02   3.74919151E-02   3.71937145E-02   2.00602364E+04   1.76161953E+04   1.16982040E+05   3.07428100E+04   2.90383205E+05   3.35754629E-04   8.07713481E-03   8.32674387E-03   8.27786952E-03   8.24875607E-03   3.42627838E+04   4.58883124E+04   4.67185670E+04   0.00000000E+00   2.92474734E+03   1.98027576E-05   7.01103860E-05   6.87297399E-05   2.36389279E-05
   3.23750000E+02   5.00000000E-01   5.00000000E-01   1.31463372E+05   4.80456269E+04   0.00000000E+00   0.00000000E+00   0.00000000E+00   5.46695243E+03   0.00000000E+00   3.77967056E-02   4.06330266E+05   1.02230082E-01   5.84890201E+05   3.66312597E-02   3.81197609E-02   3.74916397E-02   3.71928118E-02   2.00602369E+04   1.76162207E+04   1.16982040E+05   3.07214660E+04   2.91926345E+05   3.35563339E-04   8.07714565E-03   8.32452384E-03   8.27790515E-03   8.24758765E-03   3.42627738E+04   4.59044904E+04   4.67185670E+04   0.00000000E+00   2.92474734E+03   1.98027423E-05   7.01103860E-05   6.87297352E-05   2.36389669E-05
   3.41250000E+02   5.00000000E-01   5.00000000E-01   1.31463372E+05   4.80516884E+04   0.00000000E+00   0.00000000E+00   0.00000000E+00   5.46695242E+03   0.00000000E+00   3.78246552E-02   3.63820595E+05   1.04878869E-01   5.90436523E+05   3.66311989E-02   3.81196599E-02   3.74913530E-02   3.71919214E-02   2.00602373E+04   1.76162455E+04   1.16982040E+05   3.06999794E+04   2.93463020E+05   3.35404071E-04   8.07715220E-03   8.32236538E-03   8.27792268E-03   8.24640778E-03   3.42627642E+04   4.59196285E+04   4.67185670E+04   0.00000000E+00   2.92474734E+03   1.98027268E-05   7.01103860E-05   6.87297299E-05   2.36389725E-05
   3.58750000E+02   5.00000000E-01   5.00000000E-01   1.31463372E+05   4.80578487E+04   0.00000000E+00   0.00000000E+00   0.00000000E+00   5.46695242E+03   0.00000000E+00   3.78507255E-02   3.25130911E+05   1.07422349E-01   5.93643097E+05   3.66311387E-02   3.81195650E-02   3.74910693E-02   3.71910677E-02   2.00602378E+04   1.76162698E+04   1.16982040E+05   3.06785535E+04   2.94977811E+05   3.35268919E-04   8.07715725E-03   8.32029695E-03   8.27793401E-03   8.24524836E-03   3.42627552E+04   4.59334131E+04   4.67185670E+04   0.00000000E+00   2.92474734E+03   1.98027116E-05   7.01103860E-05   6.87297241E-05   2.36389445E-05
   3.76250000E+02   5.00000000E-01   5.00000000E-01   1.31463372E+05   4.80641218E+04   0.00000000E+00   0.00000000E+00   0.00000000E+00   5.46695241E+03   0.00000000E+00   3.78753143E-02   2.90155238E+05   1.09897663E-01   5.94792340E+05   3.66310810E-02   3.81194773E-02   3.74907978E-02   3.71902644E-02   2.00602384E+04   1.76162937E+04   1.16982040E+05   3.06573125E+04   2.96462273E+05   3.35152987E-04   8.07716275E-03   8.31833355E-03   8.27794732E-03   8.24412932E-03   3.42627468E+04   4.59457086E+04   4.67185670E+04   0.00000000E+00   2.92474734E+03   1.98026970E-05   7.01103860E-05   6.87297179E-05   2.36388830E-05
   3.93750000E+02   5.00000000E-01   5.00000000E-01   1.31463372E+05   4.80705209E+04   0.00000000E+00   0.00000000E+00   0.00000000E+00   5.46695241E+03   0.00000000E+00   3.78988607E-02   2.58669677E+05   1.12345707E-01   5.94053089E+05   3.66310267E-02   3.81193965E-02   3.74905423E-02   3.71895157E-02   2.00602389E+04   1.76163170E+04   1.16982040E+05   3.06363095E+04   2.97914481E+05   3.35052718E-04   8.07716963E-03   8.31647803E-03   8.27796664E-03   8.24305877E-03   3.42627390E+04   4.59565338E+04   4.67185670E+04   0.00000000E+00   2.92474734E+03   1.98026832E-05   7.01103860E-05   6.87297114E-05   2.36387879E-05
   4.11250000E+02   5.00000000E-01   5.00000000E-01   1.31463373E+05   4.80770540E+04   0.00000000E+00   0.00000000E+00   0.00000000E+00   5.46695240E+03   0.00000000E+00   3.79217917E-02   2.30395465E+05   1.14806117E-01   5.91515913E+05   3.66309759E-02   3.81193224E-02   3.74903032E-02   3.71888192E-02   2.00602395E+04   1.76163399E+04   1.16982040E+05   3.06155531E+04   2.99336452E+05   3.34965316E-04   8.07717808E-03   8.31472506E-03   8.27799271E-03   8.24203622E-03   3.42627319E+04   4.59660219E+04   4.67185670E+04   0.00000000E+00   2.92474734E+03   1.98026703E-05   7.01103860E-05   6.87297047E-05   2.36386599E-05
   4.28750000E+02   5.00000000E-01   5.00000000E-01   1.31463373E+05   4.80837206E+04   0.00000000E+00   0.00000000E+00   0.00000000E+00   5.46695239E+03   0.00000000E+00   3.79444876E-02   2.05041185E+05   1.17313913E-01   5.87232179E+05   3.66309282E-02   3.81192540E-02   3.74900783E-02   3.71881689E-02   2.00602400E+04   1.76163623E+04   1.16982040E+05   3.05950338E+04   3.00731776E+05   3.34888534E-04   8.07718780E-03   8.31306529E-03   8.27802421E-03   8.24105642E-03   3.42627253E+04   4.59743815E+04   4.67185670E+04   0.00000000E+00   2.92474734E+03   1.98026581E-05   7.01103860E-05   6.87296977E-05   2.36384996E-05
   4.46250000E+02   5.00000000E-01   5.00000000E-01   1.31463373E+05   4.80905105E+04   0.00000000E+00   0.00000000E+00   0.00000000E+00   5.46695238E+03   0.00000000E+00   3.79672631E-02   1.82316292E+05   1.19897391E-01   5.81210714E+05   3.66308826E-02   3.81191906E-02   3.74898638E-02   3.71875568E-02   2.00602407E+04   1.76163841E+04   1.16982040E+05   3.05747305E+04   3.02105167E+05   3.34820530E-04   8.07719811E-03   8.31148707E-03   8.27805825E-03   8.24011089E-03   3.42627191E+04   4.59818725E+04   4.67185670E+04   0.00000000E+00   2.92474734E+03   1.98026466E-05   7.01103860E-05   6.87296906E-05   2.36383083E-05
   4.63750000E+02   5.00000000E-01   5.00000000E-01   1.31463373E+05   4.80974031E+04   0.00000000E+00   0.00000000E+00   0.00000000E+00   5.46695238E+03   0.00000000E+00   3.79903524E-02   1.61947345E+05   1.22576510E-01   5.73442355E+05   3.66308383E-02   3.81191313E-02   3.74896553E-02   3.71869743E-02   2.00602413E+04   1.76164054E+04   1.16982040E+05   3.05546207E+04   3.03461420E+05   3.34759814E-04   8.07720815E-03   8.30997836E-03   8.27809110E-03   8.23918992E-03   3.42627134E+04   4.59887859E+04   4.67185670E+04   0.00000000E+00   2.92474735E+03   1.98026356E-05   7.01103860E-05   6.87296835E-05   2.36380872E-05
   4.81250000E+02   5.00000000E-01   5.00000000E-01   1.31463374E+05   4.81043679E+04   0.00000000E+00   0.00000000E+00   0.00000000E+00   5.46695237E+03   0.00000000E+00   3.80138997E-02   1.43685985E+05   1.25361621E-01   5.63920228E+05   3.66307942E-02   3.81190754E-02   3.74894484E-02   3.71864136E-02   2.00602419E+04   1.76164261E+04   1.16982040E+05   3.05346893E+04   3.04804606E+05   3.34705216E-04   8.07721698E-03   8.30852824E-03   8.27811888E-03   8.23828421E-03   3.42627080E+04   4.59954268E+04   4.67185670E+04   0.00000000E+00   2.92474735E+03   1.98026249E-05   7.01103860E-05   6.87296762E-05   2.36378381E-05
   4.98750000E+02   5.00000000E-01   5.00000000E-01   1.31463374E+05   4.81114722E+04   0.00000000E+00   0.00000000E+00   0.00000000E+00   5.46695236E+03   0.00000000E+00   3.80383742E-02   1.26919675E+05   1.28298911E-01   5.50500719E+05   3.66307425E-02   3.81190187E-02   3.74892073E-02   3.71858208E-02   2.00602426E+04   1.76164465E+04   1.16982040E+05   3.05141554E+04   3.06209437E+05   3.34653476E-04   8.07721433E-03   8.30705505E-03   8.27809793E-03   8.23730013E-03   3.42627026E+04   4.60021005E+04   4.67185670E+04   0.00000000E+00   2.92474735E+03   1.98026135E-05   7.01103860E-05   6.87296690E-05   2.36375668E-05
   5.16250000E+02   5.00000000E-01   5.00000000E-01   1.31463375E+05   4.81186123E+04   0.00000000E+00   0.00000000E+00   0.00000000E+00   5.46695235E+03   0.00000000E+00   3.80635791E-02   1.12026024E+05   1.31366555E-01   5.35777367E+05   3.66306881E-02   3.81189639E-02   3.74889541E-02   3.71852301E-02   2.00602433E+04   1.76164663E+04   1.16982040E+05   3.04936617E+04   3.07605104E+05   3.34606198E-04   8.07720668E-03   8.30561293E-03   8.27805584E-03   8.23630084E-03   3.42626974E+04   4.60091870E+04   4.67185670E+04   0.00000000E+00   2.92474735E+03   1.98026019E-05   7.01103860E-05   6.87296618E-05   2.36372736E-05
   5.33750000E+02   5.00000000E-01   5.00000000E-01   1.31463375E+05   4.81257076E+04   0.00000000E+00   0.00000000E+00   0.00000000E+00   5.46695234E+03   0.00000000E+00   3.80892311E-02   9.87535577E+04   1.34527373E-01   5.19659682E+05   3.66306324E-02   3.81189116E-02   3.74886959E-02   3.71846516E-02   2.00602441E+04   1.76164853E+04   1.16982040E+05   3.04734467E+04   3.08984373E+05   3.34563546E-04   8.07719618E-03   8.30421748E-03   8.27800173E-03   8.23530667E-03   3.42626925E+04   4.60169106E+04   4.67185670E+04   0.00000000E+00   2.92474735E+03   1.98025905E-05   7.01103860E-05   6.87296547E-05   2.36369588E-05
   5.51250000E+02   5.00000000E-01   5.00000000E-01   1.31463375E+05   4.81327001E+04   0.00000000E+00   0.00000000E+00   0.00000000E+00   5.46695233E+03   0.00000000E+00   3.81150458E-02   8.68921380E+04   1.37744379E-01   5.02025821E+05   3.66305755E-02   3.81188616E-02   3.74884332E-02   3.71840859E-02   2.00602448E+04   1.76165034E+04   1.16982040E+05   3.04535569E+04   3.10349312E+05   3.34525201E-04   8.07718292E-03   8.30286789E-03   8.27793605E-03   8.23431886E-03   3.42626877E+04   4.60254189E+04   4.67185670E+04   0.00000000E+00   2.92474735E+03   1.98025791E-05   7.01103860E-05   6.87296476E-05   2.36366231E-05
   5.68750000E+02   5.00000000E-01   5.00000000E-01   1.31463376E+05   4.81395448E+04   0.00000000E+00   0.00000000E+00   0.00000000E+00   5.46695232E+03   0.00000000E+00   3.81407195E-02   7.62952945E+04   1.40979426E-01   4.82967877E+05   3.66305179E-02   3.81188140E-02   3.74881672E-02   3.71835341E-02   2.00602456E+04   1.76165207E+04   1.16982040E+05   3.04340099E+04   3.11699757E+05   3.34490886E-04   8.07716694E-03   8.30156278E-03   8.27785889E-03   8.23333789E-03   3.42626832E+04   4.60347568E+04   4.67185670E+04   0.00000000E+00   2.92474735E+03   1.98025679E-05   7.01103860E-05   6.87296406E-05   2.36362675E-05
   5.86250000E+02   5.00000000E-01   5.00000000E-01   1.31463377E+05   4.81462110E+04   0.00000000E+00   0.00000000E+00   0.00000000E+00   5.46695231E+03   0.00000000E+00   3.81659523E-02   6.68456186E+04   1.44195769E-01   4.62678579E+05   3.66304600E-02   3.81187688E-02   3.74879007E-02   3.71829995E-02   2.00602464E+04   1.76165370E+04   1.16982040E+05   3.04148267E+04   3.13033652E+05   3.34460411E-04   8.07714860E-03   8.30030296E-03   8.27777182E-03   8.23236697E-03   3.42626789E+04   4.60448502E+04   4.67185670E+04   0.00000000E+00   2.92474735E+03   1.98025569E-05   7.01103860E-05   6.87296337E-05   2.36358930E-05
   6.03750000E+02   5.00000000E-01   5.00000000E-01   1.31463377E+05   4.81526831E+04   0.00000000E+00   0.00000000E+00   0.00000000E+00   5.46695230E+03   0.00000000E+00   3.81904857E-02   5.84421839E+04   1.47362303E-01   4.41409371E+05   3.66304029E-02   3.81187264E-02   3.74876381E-02   3.71824873E-02   2.00602472E+04   1.76165524E+04   1.16982040E+05   3.03960367E+04   3.14347547E+05   3.34433626E-04   8.07712864E-03   8.29909138E-03   8.27767801E-03   8.23141219E-03   3.42626749E+04   4.60555193E+04   4.67185670E+04   0.00000000E+00   2.92474735E+03   1.98025462E-05   7.01103860E-05   6.87296269E-05   2.36355004E-05
   6.21250000E+02   5.00000000E-01   5.00000000E-01   1.31463378E+05   4.81589597E+04   0.00000000E+00   0.00000000E+00   0.00000000E+00   5.46695229E+03   0.00000000E+00   3.82141323E-02   5.09937261E+04   1.50456920E-01   4.19440793E+05   3.66303477E-02   3.81186870E-02   3.74873848E-02   3.71820035E-02   2.00602480E+04   1.76165669E+04   1.16982040E+05   3.03776757E+04   3.15637161E+05   3.34410370E-04   8.07710812E-03   8.29793223E-03   8.27758194E-03   8.23048154E-03   3.42626712E+04   4.60665126E+04   4.67185670E+04   4.96535318E-22   2.92474735E+03   1.98025358E-05   7.01103860E-05   6.87296203E-05   2.36350906E-05
   6.38750000E+02   5.00000000E-01   5.00000000E-01   1.31463379E+05   4.81650497E+04   0.00000000E+00   0.00000000E+00   0.00000000E+00   5.46695228E+03   0.00000000E+00   3.82367902E-02   4.44143315E+04   1.53467847E-01   3.97053940E+05   3.66302957E-02   3.81186508E-02   3.74871463E-02   3.71815539E-02   2.00602489E+04   1.76165806E+04   1.16982040E+05   3.03597829E+04   3.16897972E+05   3.34390436E-04   8.07708831E-03   8.29683004E-03   8.27748887E-03   8.22958383E-03   3.42626677E+04   4.60775521E+04   4.67185670E+04   9.95055441E-22   2.92474736E+03   1.98025261E-05   7.01103860E-05   6.87296138E-05   2.36346644E-05
   6.56250000E+02   5.00000000E-01   5.00000000E-01   1.31463380E+05   4.81709667E+04   0.00000000E+00   0.00000000E+00   0.00000000E+00   5.46695226E+03   0.00000000E+00   3.82584396E-02   3.86212275E+04   1.56392825E-01   3.74506202E+05   3.66302480E-02   3.81186181E-02   3.74869277E-02   3.71811435E-02   2.00602498E+04   1.76165934E+04   1.16982040E+05   3.03423978E+04   3.18125717E+05   3.34373569E-04   8.07707049E-03   8.29578884E-03   8.27740427E-03   8.22872757E-03   3.42626646E+04   4.60883748E+04   4.67185670E+04   1.99428308E-21   2.92474736E+03   1.98025170E-05   7.01103860E-05   6.87296076E-05   2.36342227E-05
   6.73750000E+02   5.00000000E-01   5.00000000E-01   1.31463381E+05   4.81767232E+04   0.00000000E+00   0.00000000E+00   0.00000000E+00   5.46695225E+03   0.00000000E+00   3.82791259E-02   3.35344931E+04   1.59236696E-01   3.52017853E+05   3.66302056E-02   3.81185889E-02   3.74867332E-02   3.71807755E-02   2.00602507E+04   1.76166055E+04   1.16982040E+05   3.03255578E+04   3.19316683E+05   3.34359466E-04   8.07705592E-03   8.29481159E-03   8.27733339E-03   8.22792019E-03   3.42626618E+04   4.60987637E+04   4.67185670E+04   3.99733594E-21   2.92474736E+03   1.98025087E-05   7.01103860E-05   6.87296015E-05   2.36337662E-05
   6.91250000E+02   5.00000000E-01   5.00000000E-01   1.31463382E+05   4.81823256E+04   0.00000000E+00   0.00000000E+00   0.00000000E+00   5.46695224E+03   0.00000000E+00   3.82989373E-02   2.90774590E+04   1.62008314E-01   3.29761794E+05   3.66301692E-02   3.81185631E-02   3.74865658E-02   3.71804516E-02   2.00602516E+04   1.76166167E+04   1.16982040E+05   3.03092960E+04   3.20467960E+05   3.34347802E-04   8.07704571E-03   8.29389991E-03   8.27728086E-03   8.22716749E-03   3.42626593E+04   4.61085644E+04   4.67185670E+04   8.01310470E-21   2.92474736E+03   1.98025013E-05   7.01103860E-05   6.87295955E-05   2.36332958E-05
   7.08750000E+02   5.00000000E-01   5.00000000E-01   1.31463383E+05   4.81877711E+04   0.00000000E+00   0.00000000E+00   0.00000000E+00   5.46695222E+03   0.00000000E+00   3.83179808E-02   2.51782394E+04   1.64717353E-01   3.07871474E+05   3.66301392E-02   3.81185407E-02   3.74864275E-02   3.71801722E-02   2.00602526E+04   1.76166272E+04   1.16982040E+05   3.02936411E+04   3.21577317E+05   3.34338247E-04   8.07704080E-03   8.29305412E-03   8.27725063E-03   8.22647361E-03   3.42626571E+04   4.61176882E+04   4.67185670E+04   2.84855033E-06   2.92474736E+03   1.98024949E-05   7.01103860E-05   6.87295898E-05   2.36328122E-05
   7.26250000E+02   5.00000000E-01   5.00000000E-01   1.31463384E+05   4.81930449E+04   0.00000000E+00   0.00000000E+00   0.00000000E+00   5.46695220E+03   0.00000000E+00   3.83363603E-02   2.17706511E+04   1.67371452E-01   2.86447457E+05   3.66301159E-02   3.81185215E-02   3.74863193E-02   3.71799363E-02   2.00602535E+04   1.76166368E+04   1.16982040E+05   3.02786172E+04   3.22643095E+05   3.34330487E-04   8.07704199E-03   8.29227345E-03   8.27724593E-03   8.22584117E-03   3.42626553E+04   4.61261082E+04   4.67185670E+04   1.10675715E-05   2.92474736E+03   1.98024895E-05   7.01103860E-05   6.87295843E-05   2.36323163E-05
   7.43750000E+02   5.00000000E-01   5.00000000E-01   1.31463385E+05   4.81981204E+04   0.00000000E+00   0.00000000E+00   0.00000000E+00   5.46695218E+03   0.00000000E+00   3.83541594E-02   1.87947496E+04   1.69973881E-01   2.65564897E+05   3.66300993E-02   3.81185052E-02   3.74862414E-02   3.71797422E-02   2.00602545E+04   1.76166457E+04   1.16982040E+05   3.02642448E+04   3.23664080E+05   3.34324235E-04   8.07704991E-03   8.29155627E-03   8.27726940E-03   8.22527153E-03   3.42626537E+04   4.61338504E+04   4.67185670E+04   2.51135553E-05   2.92474736E+03   1.98024851E-05   7.01103860E-05   6.87295789E-05   2.36318088E-05
   7.61250000E+02   5.00000000E-01   5.00000000E-01   1.31463387E+05   4.82029594E+04   0.00000000E+00   0.00000000E+00   0.00000000E+00   5.46695216E+03   0.00000000E+00   3.83714268E-02   1.61970058E+04   1.72521750E-01   2.45281215E+05   3.66300894E-02   3.81184916E-02   3.74861936E-02   3.71795877E-02   2.00602555E+04   1.76166536E+04   1.16982041E+05   3.02505408E+04   3.24639378E+05   3.34319240E-04   8.07706508E-03   8.29090039E-03   8.27732318E-03   8.22476511E-03   3.42626523E+04   4.61409826E+04   4.67185670E+04   4.75956357E-05   2.92474737E+03   1.98024818E-05   7.01103860E-05   6.87295738E-05   2.36312904E-05
   7.78750000E+02   5.00000000E-01   5.00000000E-01   1.31463388E+05   4.82075143E+04   0.00000000E+00   0.00000000E+00   0.00000000E+00   5.46695214E+03   0.00000000E+00   3.83881665E-02   1.39301840E+04   1.75004779E-01   2.25643188E+05   3.66300861E-02   3.81184804E-02   3.74861755E-02   3.71794706E-02   2.00602566E+04   1.76166607E+04   1.16982041E+05   3.02375193E+04   3.25568296E+05   3.34315288E-04   8.07708795E-03   8.29030327E-03   8.27740903E-03   8.22432166E-03   3.42626512E+04   4.61476020E+04   4.67185670E+04   8.20619143E-05   2.92474737E+03   1.98024795E-05   7.01103860E-05   6.87295688E-05   2.36307618E-05
   7.96250000E+02   5.00000000E-01   5.00000000E-01   1.31463390E+05   4.82117302E+04   0.00000000E+00   0.00000000E+00   0.00000000E+00   5.46695212E+03   0.00000000E+00   3.84043312E-02   1.19530133E+04   1.77404675E-01   2.06693255E+05   3.66300893E-02   3.81184716E-02   3.74861865E-02   3.71793883E-02   2.00602576E+04   1.76166667E+04   1.16982041E+05   3.02251916E+04   3.26450254E+05   3.34312199E-04   8.07711889E-03   8.28976223E-03   8.27752850E-03   8.22394054E-03   3.42626503E+04   4.61538203E+04   4.67185670E+04   1.33305455E-04   2.92474737E+03   1.98024781E-05   7.01103860E-05   6.87295640E-05   2.36302237E-05