 TITLE = "Mineral Area" 
VARIABLES = "X"          "Y"              "Z"            "Forsterite"     "Fayalite"       "Saponite(Mg)"   "Enstatite(alph" "Ferrosilite(al" "Anorthite"      "Albite(low)"    "Clinochlore"    "Sudoite"        "Montmorillonit" "Kaolinite"      "Tremolite"      "Pargasite"      "Anhydrite"      "Epidote"        "Scolecite"      "Pyrite"         "FeS(am)"        "Quartz(alpha)" 
 ZONE I=         100 , J=           1 , K=           1  F=POINT
   1.75000000E+01   5.00000000E-01   5.00000000E-01   3.51854135E+04   4.80235563E+04   6.19800761E+05   2.00610299E+04   1.76163712E+04   1.23922355E+05   2.98017827E+04   3.61696851E+04   1.23638249E-03   5.98724458E-03   3.07897114E+04   4.84655035E+04   4.97498727E+04   1.99289940E-05   3.47617437E+02   2.27424172E+02   7.05630313E-05   6.90521063E-05   2.35692247E-05
   5.25000000E+01   5.00000000E-01   5.00000000E-01   3.51854135E+04   4.80489712E+04   6.29500844E+05   2.00610299E+04   1.76163804E+04   1.23922355E+05   2.98864950E+04   3.18591379E+04   6.47982714E-04   6.31988894E-03   3.08014280E+04   4.84654628E+04   4.97498727E+04   2.00051113E-05   3.47617438E+02   2.27424187E+02   7.05630313E-05   6.90527600E-05   2.35694356E-05
   8.75000000E+01   5.00000000E-01   5.00000000E-01   3.51854135E+04   4.80806545E+04   6.00202341E+05   2.00610299E+04   1.76163879E+04   1.23922355E+05   2.99197193E+04   3.06204161E+04   5.23761192E-04   6.52902558E-03   3.08095085E+04   4.84653156E+04   4.97498727E+04   2.00893239E-05   3.47617438E+02   2.27424198E+02   7.05630313E-05   6.90532416E-05   2.35694565E-05
   1.22500000E+02   5.00000000E-01   5.00000000E-01   3.51854135E+04   4.81117262E+04   5.62764828E+05   2.00610299E+04   1.76163935E+04   1.23922355E+05   2.99423113E+04   3.00156826E+04   4.96076817E-04   6.72499477E-03   3.08177003E+04   4.84652431E+04   4.97498727E+04   2.01825010E-05   3.47617438E+02   2.27424209E+02   7.05630313E-05   6.90535341E-05   2.35694463E-05
   1.57500000E+02   5.00000000E-01   5.00000000E-01   3.51854135E+04   4.81386112E+04   5.29044652E+05   2.00610299E+04   1.76163977E+04   1.23922355E+05   2.99608565E+04   2.95574406E+04   4.92899203E-04   6.93175935E-03   3.08267944E+04   4.84652477E+04   4.97498727E+04   2.02855374E-05   3.47617438E+02   2.27424222E+02   7.05630313E-05   6.90536687E-05   2.35694257E-05
   1.92500000E+02   5.00000000E-01   5.00000000E-01   3.51854135E+04   4.81603518E+04   5.01613848E+05   2.00610299E+04   1.76164007E+04   1.23922355E+05   2.99756261E+04   2.91970863E+04   4.97023895E-04   7.14575093E-03   3.08367170E+04   4.84652203E+04   4.97498727E+04   2.03993823E-05   3.47617438E+02   2.27424235E+02   7.05630313E-05   6.90536871E-05   2.35693973E-05
   2.27500000E+02   5.00000000E-01   5.00000000E-01   3.51854135E+04   4.81772363E+04   4.80341003E+05   2.00610299E+04   1.76164027E+04   1.23922355E+05   2.99866450E+04   2.89354173E+04   5.03965068E-04   7.36095143E-03   3.08473003E+04   4.84651344E+04   4.97498727E+04   2.05250573E-05   3.47617437E+02   2.27424249E+02   7.05630313E-05   6.90536259E-05   2.35693626E-05
   2.62500000E+02   5.00000000E-01   5.00000000E-01   3.51854135E+04   4.81900051E+04   4.64238413E+05   2.00610299E+04   1.76164041E+04   1.23922355E+05   2.99942793E+04   2.87681889E+04   5.12545730E-04   7.57335762E-03   3.08584194E+04   4.84650992E+04   4.97498727E+04   2.06636681E-05   3.47617437E+02   2.27424264E+02   7.05630313E-05   6.90535129E-05   2.35693234E-05
   2.97500000E+02   5.00000000E-01   5.00000000E-01   3.51854135E+04   4.81994554E+04   4.52359475E+05   2.00610299E+04   1.76164050E+04   1.23922355E+05   2.99990723E+04   2.86817990E+04   5.22518726E-04   7.78118424E-03   3.08700254E+04   4.84651092E+04   4.97498727E+04   2.08164242E-05   3.47617437E+02   2.27424279E+02   7.05630313E-05   6.90533687E-05   2.35692812E-05
   3.32500000E+02   5.00000000E-01   5.00000000E-01   3.51854135E+04   4.82063120E+04   4.43842583E+05   2.00610299E+04   1.76164055E+04   1.23922355E+05   3.00015683E+04   2.86613845E+04   5.33916074E-04   7.98391775E-03   3.08821113E+04   4.84651169E+04   4.97498727E+04   2.09846557E-05   3.47617437E+02   2.27424295E+02   7.05630313E-05   6.90532078E-05   2.35692370E-05
   3.67500000E+02   5.00000000E-01   5.00000000E-01   3.51854135E+04   4.82111903E+04   4.37858177E+05   2.00610299E+04   1.76164057E+04   1.23922355E+05   3.00022497E+04   2.86946492E+04   5.46859350E-04   8.18167849E-03   3.08946816E+04   4.84651596E+04   4.97498727E+04   2.11698264E-05   3.47617437E+02   2.27424311E+02   7.05630313E-05   6.90530404E-05   2.35691916E-05
   4.02500000E+02   5.00000000E-01   5.00000000E-01   3.51854135E+04   4.82145724E+04   4.33792968E+05   2.00610299E+04   1.76164058E+04   1.23922355E+05   3.00015303E+04   2.87696816E+04   5.61532720E-04   8.37509217E-03   3.09077633E+04   4.84652411E+04   4.97498727E+04   2.13735526E-05   3.47617437E+02   2.27424328E+02   7.05630313E-05   6.90528733E-05   2.35691458E-05
   4.37500000E+02   5.00000000E-01   5.00000000E-01   3.51854135E+04   4.82168283E+04   4.31173873E+05   2.00610299E+04   1.76164057E+04   1.23922355E+05   2.99997464E+04   2.88764193E+04   5.78167789E-04   8.56497743E-03   3.09213928E+04   4.84653481E+04   4.97498727E+04   2.15976241E-05   3.47617437E+02   2.27424345E+02   7.05630313E-05   6.90527110E-05   2.35691000E-05
   4.72500000E+02   5.00000000E-01   5.00000000E-01   3.51854136E+04   4.82182392E+04   4.29622000E+05   2.00610299E+04   1.76164055E+04   1.23922355E+05   2.99971688E+04   2.90067256E+04   5.97041629E-04   8.75223722E-03   3.09356105E+04   4.84654759E+04   4.97498727E+04   2.18440279E-05   3.47617437E+02   2.27424363E+02   7.05630313E-05   6.90525565E-05   2.35690545E-05
   5.07500000E+02   5.00000000E-01   5.00000000E-01   3.51854136E+04   4.82190133E+04   4.28847315E+05   2.00610300E+04   1.76164052E+04   1.23922355E+05   2.99940171E+04   2.91537565E+04   6.18486810E-04   8.93785738E-03   3.09504629E+04   4.84656204E+04   4.97498727E+04   2.21149743E-05   3.47617437E+02   2.27424381E+02   7.05630313E-05   6.90524116E-05   2.35690096E-05
   5.42500000E+02   5.00000000E-01   5.00000000E-01   3.51854136E+04   4.82193031E+04   4.28627651E+05   2.00610300E+04   1.76164049E+04   1.23922355E+05   2.99904693E+04   2.93117477E+04   6.42902216E-04   9.12288782E-03   3.09660023E+04   4.84657770E+04   4.97498727E+04   2.24129286E-05   3.47617437E+02   2.27424400E+02   7.05630313E-05   6.90522770E-05   2.35689656E-05
   5.77500000E+02   5.00000000E-01   5.00000000E-01   3.51854137E+04   4.82192190E+04   4.28792059E+05   2.00610300E+04   1.76164045E+04   1.23922355E+05   2.99866708E+04   2.94758510E+04   6.70766483E-04   9.30842628E-03   3.09822870E+04   4.84659423E+04   4.97498727E+04   2.27406470E-05   3.47617436E+02   2.27424420E+02   7.05630313E-05   6.90521532E-05   2.35689225E-05
   6.12500000E+02   5.00000000E-01   5.00000000E-01   3.51854138E+04   4.82188394E+04   4.29209245E+05   2.00610300E+04   1.76164041E+04   1.23922355E+05   2.99827390E+04   2.96420154E+04   7.02654253E-04   9.49559448E-03   3.09993807E+04   4.84661139E+04   4.97498727E+04   2.31012191E-05   3.47617436E+02   2.27424441E+02   7.05630313E-05   6.90520400E-05   2.35688804E-05
   6.47500000E+02   5.00000000E-01   5.00000000E-01   3.51854140E+04   4.82182195E+04   4.29779354E+05   2.00610300E+04   1.76164036E+04   1.23922355E+05   2.99787679E+04   2.98069213E+04   7.39255053E-04   9.68550135E-03   3.10173511E+04   4.84662906E+04   4.97498727E+04   2.34981162E-05   3.47617435E+02   2.27424463E+02   7.05630313E-05   6.90519373E-05   2.35688395E-05
   6.82500000E+02   5.00000000E-01   5.00000000E-01   3.51854142E+04   4.82173975E+04   4.30428132E+05   2.00610300E+04   1.76164032E+04   1.23922355E+05   2.99748299E+04   2.99679476E+04   7.81394843E-04   9.87919424E-03   3.10362675E+04   4.84664717E+04   4.97498727E+04   2.39352497E-05   3.47617434E+02   2.27424485E+02   7.05630313E-05   6.90518446E-05   2.35687998E-05
   7.17500000E+02   5.00000000E-01   5.00000000E-01   3.51854145E+04   4.82163993E+04   4.31102778E+05   2.00610300E+04   1.76164027E+04   1.23922355E+05   2.99709776E+04   3.01231478E+04   8.30060303E-04   1.00776015E-02   3.10561977E+04   4.84666573E+04   4.97498727E+04   2.44170379E-05   3.47617433E+02   2.27424509E+02   7.05630313E-05   6.90517611E-05   2.35687614E-05
   7.52500000E+02   5.00000000E-01   5.00000000E-01   3.51854150E+04   4.82152421E+04   4.31769004E+05   2.00610301E+04   1.76164022E+04   1.23922355E+05   2.99672458E+04   3.02712175E+04   8.86425851E-04   1.02814700E-02   3.10772040E+04   4.84668479E+04   4.97498727E+04   2.49484862E-05   3.47617431E+02   2.27424534E+02   7.05630313E-05   6.90516864E-05   2.35687242E-05
   7.87500000E+02   5.00000000E-01   5.00000000E-01   3.51854157E+04   4.82139373E+04   4.32408950E+05   2.00610301E+04   1.76164018E+04   1.23922355E+05   2.99636525E+04   3.04114408E+04   9.51883347E-04   1.04913028E-02   3.10993395E+04   4.84670435E+04   4.97498727E+04   2.55352808E-05   3.47617428E+02   2.27424560E+02   7.05630313E-05   6.90516197E-05   2.35686884E-05
   8.22500000E+02   5.00000000E-01   5.00000000E-01   3.51854168E+04   4.82124925E+04   4.33019508E+05   2.00610301E+04   1.76164013E+04   1.23922356E+05   2.99602018E+04   3.05436190E+04   1.02807417E-03   1.07073001E-02   3.11226435E+04   4.84672432E+04   4.97498727E+04   2.61839004E-05   3.47617424E+02   2.27424587E+02   7.05630313E-05   6.90515603E-05   2.35686538E-05
   8.57500000E+02   5.00000000E-01   5.00000000E-01   3.51854183E+04   4.82109129E+04   4.33610009E+05   2.00610301E+04   1.76164007E+04   1.23922356E+05   2.99568856E+04   3.06679918E+04   1.11692244E-03   1.09293090E-02   3.11471381E+04   4.84674445E+04   4.97498727E+04   2.69017497E-05   3.47617419E+02   2.27424616E+02   7.05630313E-05   6.90515077E-05   2.35686205E-05
   8.92500000E+02   5.00000000E-01   5.00000000E-01   3.51854206E+04   4.82092026E+04   4.34198188E+05   2.00610302E+04   1.76164002E+04   1.23922356E+05   2.99536864E+04   3.07851730E+04   1.22066680E-03   1.11567857E-02   3.11728240E+04   4.84676442E+04   4.97498727E+04   2.76973171E-05   3.47617411E+02   2.27424646E+02   7.05630313E-05   6.90514611E-05   2.35685884E-05
   9.27500000E+02   5.00000000E-01   5.00000000E-01   3.51854239E+04   4.82073657E+04   4.34804460E+05   2.00610302E+04   1.76163997E+04   1.23922356E+05   2.99505799E+04   3.08961021E+04   1.34188681E-03   1.13887759E-02   3.11996771E+04   4.84678410E+04   4.97498727E+04   2.85803642E-05   3.47617401E+02   2.27424677E+02   7.05630313E-05   6.90514200E-05   2.35685575E-05
   9.62500000E+02   5.00000000E-01   5.00000000E-01   3.51854289E+04   4.82054068E+04   4.35446487E+05   2.00610302E+04   1.76163992E+04   1.23922356E+05   2.99475378E+04   3.10019895E+04   1.48352126E-03   1.16239197E-02   3.12276465E+04   4.84680387E+04   4.97498727E+04   2.95621511E-05   3.47617388E+02   2.27424709E+02   7.05630313E-05   6.90513837E-05   2.35685277E-05
   9.97500000E+02   5.00000000E-01   5.00000000E-01   3.51854363E+04   4.82033314E+04   4.36138544E+05   2.00610302E+04   1.76163986E+04   1.23922357E+05   2.99445305E+04   3.11041950E+04   1.64888176E-03   1.18604924E-02   3.12566549E+04   4.84682454E+04   4.97498727E+04   3.06557073E-05   3.47617371E+02   2.27424743E+02   7.05630313E-05   6.90513519E-05   2.35684990E-05
   1.03250000E+03   5.00000000E-01   5.00000000E-01   3.51854471E+04   4.82011439E+04   4.36900538E+05   2.00610303E+04   1.76163981E+04   1.23922357E+05   2.99415292E+04   3.12039760E+04   1.84167824E-03   1.20964871E-02   3.12866024E+04   4.84684646E+04   4.97498727E+04   3.18761606E-05   3.47617350E+02   2.27424777E+02   7.05630313E-05   6.90513240E-05   2.35684713E-05
   1.06750000E+03   5.00000000E-01   5.00000000E-01   3.51854629E+04   4.81988467E+04   4.37766404E+05   2.00610303E+04   1.76163976E+04   1.23922358E+05   2.99385080E+04   3.13022806E+04   2.06605227E-03   1.23297067E-02   3.13173739E+04   4.84686847E+04   4.97498727E+04   3.32411406E-05   3.47617326E+02   2.27424812E+02   7.05630313E-05   6.90512995E-05   2.35684445E-05
   1.10250000E+03   5.00000000E-01   5.00000000E-01   3.51854859E+04   4.81964420E+04   4.38770253E+05   2.00610303E+04   1.76163970E+04   1.23922358E+05   2.99354442E+04   3.13999177E+04   2.32654774E-03   1.25578020E-02   3.13488370E+04   4.84688871E+04   4.97498727E+04   3.47712678E-05   3.47617297E+02   2.27424849E+02   7.05630313E-05   6.90512781E-05   2.35684186E-05
   1.13750000E+03   5.00000000E-01   5.00000000E-01   3.51855192E+04   4.81939348E+04   4.39921377E+05   2.00610304E+04   1.76163964E+04   1.23922359E+05   2.99323186E+04   3.14979007E+04   2.62797749E-03   1.27782934E-02   3.13808367E+04   4.84690669E+04   4.97498727E+04   3.64907423E-05   3.47617265E+02   2.27424886E+02   7.05630313E-05   6.90512593E-05   2.35683935E-05
   1.17250000E+03   5.00000000E-01   5.00000000E-01   3.51855669E+04   4.81913335E+04   4.41193722E+05   2.00610304E+04   1.76163959E+04   1.23922360E+05   2.99291159E+04   3.15975520E+04   2.97522743E-03   1.29886497E-02   3.14131939E+04   4.84692471E+04   4.97498727E+04   3.84280534E-05   3.47617231E+02   2.27424923E+02   7.05630313E-05   6.90512430E-05   2.35683691E-05
   1.20750000E+03   5.00000000E-01   5.00000000E-01   3.51856338E+04   4.81886465E+04   4.42548793E+05   2.00610305E+04   1.76163953E+04   1.23922361E+05   2.99258268E+04   3.17000962E+04   3.37314744E-03   1.31864688E-02   3.14457188E+04   4.84694626E+04   4.97498727E+04   4.06168511E-05   3.47617196E+02   2.27424961E+02   7.05630313E-05   6.90512287E-05   2.35683455E-05
   1.24250000E+03   5.00000000E-01   5.00000000E-01   3.51857253E+04   4.81858753E+04   4.44000672E+05   2.00610305E+04   1.76163947E+04   1.23922362E+05   2.99224496E+04   3.18056313E+04   3.82682959E-03   1.33697676E-02   3.14782451E+04   4.84697025E+04   4.97498727E+04   4.30970569E-05   3.47617160E+02   2.27424999E+02   7.05630313E-05   6.90512162E-05   2.35683227E-05
   1.27750000E+03   5.00000000E-01   5.00000000E-01   3.51858476E+04   4.81830152E+04   4.45616543E+05   2.00610306E+04   1.76163942E+04   1.23922364E+05   2.99189877E+04   3.19132327E+04   4.34175062E-03   1.35369698E-02   3.15106351E+04   4.84698982E+04   4.97498727E+04   4.59162651E-05   3.47617126E+02   2.27425037E+02   7.05630313E-05   6.90512054E-05   2.35683004E-05
   1.31250000E+03   5.00000000E-01   5.00000000E-01   3.51860075E+04   4.81800675E+04   4.47421997E+05   2.00610306E+04   1.76163936E+04   1.23922365E+05   2.99154444E+04   3.20225729E+04   4.92295792E-03   1.36865351E-02   3.15427337E+04   4.84700007E+04   4.97498727E+04   4.91314406E-05   3.47617096E+02   2.27425076E+02   7.05630313E-05   6.90511959E-05   2.35682788E-05
   1.34750000E+03   5.00000000E-01   5.00000000E-01   3.51862115E+04   4.81770473E+04   4.49331755E+05   2.00610307E+04   1.76163930E+04   1.23922367E+05   2.99118218E+04   3.21349872E+04   5.57368414E-03   1.38167876E-02   3.15743319E+04   4.84700556E+04   4.97498727E+04   5.28109460E-05   3.47617074E+02   2.27425114E+02   7.05630313E-05   6.90511876E-05   2.35682578E-05
   1.38250000E+03   5.00000000E-01   5.00000000E-01   3.51864621E+04   4.81739941E+04   4.51049104E+05   2.00610308E+04   1.76163925E+04   1.23922370E+05   2.99081185E+04   3.22550187E+04   6.29239243E-03   1.39256473E-02   3.16051071E+04   4.84703064E+04   4.97498727E+04   5.70368630E-05   3.47617061E+02   2.27425152E+02   7.05630313E-05   6.90511804E-05   2.35682374E-05
   1.41750000E+03   5.00000000E-01   5.00000000E-01   3.51867481E+04   4.81709577E+04   4.52315788E+05   2.00610308E+04   1.76163919E+04   1.23922373E+05   2.99043440E+04   3.23861130E+04   7.07453990E-03   1.40119286E-02   3.16347709E+04   4.84709780E+04   4.97498727E+04   6.19080325E-05   3.47617055E+02   2.27425190E+02   7.05630313E-05   6.90511741E-05   2.35682178E-05
   1.45250000E+03   5.00000000E-01   5.00000000E-01   3.51870537E+04   4.81678760E+04   4.53856438E+05   2.00610309E+04   1.76163913E+04   1.23922376E+05   2.99005541E+04   3.25151255E+04   7.93335788E-03   1.40793769E-02   3.16636743E+04   4.84714796E+04   4.97498727E+04   6.75452943E-05   3.47617045E+02   2.27425228E+02   7.05630313E-05   6.90511686E-05   2.35681988E-05
   1.48750000E+03   5.00000000E-01   5.00000000E-01   3.51873822E+04   4.81646944E+04   4.55939267E+05   2.00610310E+04   1.76163908E+04   1.23922380E+05   2.98967616E+04   3.26376836E+04   8.87659950E-03   1.41285377E-02   3.16918588E+04   4.84716162E+04   4.97498727E+04   7.40965394E-05   3.47617036E+02   2.27425265E+02   7.05630313E-05   6.90511639E-05   2.35681803E-05
   1.52250000E+03   5.00000000E-01   5.00000000E-01   3.51877370E+04   4.81615215E+04   4.57612076E+05   2.00610311E+04   1.76163902E+04   1.23922385E+05   2.98929225E+04   3.27700359E+04   9.87709552E-03   1.41541925E-02   3.17185230E+04   4.84721622E+04   4.97498727E+04   8.17411996E-05   3.47617048E+02   2.27425302E+02   7.05630313E-05   6.90511597E-05   2.35681624E-05
   1.55750000E+03   5.00000000E-01   5.00000000E-01   3.51881028E+04   4.81584675E+04   4.58464113E+05   2.00610312E+04   1.76163897E+04   1.23922390E+05   2.98890462E+04   3.29178266E+04   1.09119756E-02   1.41558474E-02   3.17432973E+04   4.84733978E+04   4.97498727E+04   9.06984489E-05   3.47617068E+02   2.27425338E+02   7.05630313E-05   6.90511561E-05   2.35681452E-05
   1.59250000E+03   5.00000000E-01   5.00000000E-01   3.51884770E+04   4.81554241E+04   4.59800834E+05   2.00610313E+04   1.76163892E+04   1.23922397E+05   2.98852258E+04   3.30573575E+04   1.20187722E-02   1.41421458E-02   3.17671287E+04   4.84742471E+04   4.97498727E+04   1.01241547E-04   3.47617064E+02   2.27425374E+02   7.05630313E-05   6.90511529E-05   2.35681285E-05
   1.62750000E+03   5.00000000E-01   5.00000000E-01   3.51888661E+04   4.81523463E+04   4.61902730E+05   2.00610314E+04   1.76163886E+04   1.23922404E+05   2.98814675E+04   3.31843163E+04   1.32076286E-02   1.41140377E-02   3.17901275E+04   4.84744562E+04   4.97498727E+04   1.13710715E-04   3.47617045E+02   2.27425410E+02   7.05630313E-05   6.90511502E-05   2.35681123E-05
   1.66250000E+03   5.00000000E-01   5.00000000E-01   3.51892582E+04   4.81493707E+04   4.64098485E+05   2.00610315E+04   1.76163881E+04   1.23922413E+05   2.98777315E+04   3.33107140E+04   1.44432610E-02   1.40675668E-02   3.18116348E+04   4.84743694E+04   4.97498727E+04   1.28528804E-04   3.47616998E+02   2.27425445E+02   7.05630313E-05   6.90511478E-05   2.35680964E-05
   1.69750000E+03   5.00000000E-01   5.00000000E-01   3.51896515E+04   4.81465008E+04   4.66339932E+05   2.00610316E+04   1.76163876E+04   1.23922422E+05   2.98740298E+04   3.34367163E+04   1.57132834E-02   1.40038073E-02   3.18315706E+04   4.84741403E+04   4.97498727E+04   1.46223597E-04   3.47616935E+02   2.27425481E+02   7.05630313E-05   6.90511457E-05   2.35680810E-05
   1.73250000E+03   5.00000000E-01   5.00000000E-01   3.51900622E+04   4.81435852E+04   4.68967172E+05   2.00610317E+04   1.76163871E+04   1.23922434E+05   2.98703920E+04   3.35558465E+04   1.70282992E-02   1.39259315E-02   3.18502021E+04   4.84738760E+04   4.97498727E+04   1.67455840E-04   3.47616925E+02   2.27425516E+02   7.05630313E-05   6.90511439E-05   2.35680658E-05
   1.76750000E+03   5.00000000E-01   5.00000000E-01   3.51904887E+04   4.81406334E+04   4.71807268E+05   2.00610318E+04   1.76163866E+04   1.23922447E+05   2.98668121E+04   3.36710380E+04   1.83674367E-02   1.38336543E-02   3.18673195E+04   4.84736824E+04   4.97498727E+04   1.93055640E-04   3.47616974E+02   2.27425550E+02   7.05630313E-05   6.90511423E-05   2.35680509E-05
   1.80250000E+03   5.00000000E-01   5.00000000E-01   3.51909170E+04   4.81377772E+04   4.74454721E+05   2.00610319E+04   1.76163861E+04   1.23922461E+05   2.98632772E+04   3.37889956E+04   1.96868152E-02   1.37259269E-02   3.18825196E+04   4.84736272E+04   4.97498727E+04   2.24069522E-04   3.47617025E+02   2.27425585E+02   7.05630313E-05   6.90511410E-05   2.35680362E-05
   1.83750000E+03   5.00000000E-01   5.00000000E-01   3.51913259E+04   4.81351301E+04   4.76532052E+05   2.00610320E+04   1.76163856E+04   1.23922478E+05   2.98597849E+04   3.39154518E+04   2.09365495E-02   1.36026687E-02   3.18954631E+04   4.84739090E+04   4.97498727E+04   2.61818069E-04   3.47617048E+02   2.27425618E+02   7.05630313E-05   6.90511398E-05   2.35680219E-05
   1.87250000E+03   5.00000000E-01   5.00000000E-01   3.51916946E+04   4.81327486E+04   4.77920688E+05   2.00610322E+04   1.76163851E+04   1.23922498E+05   2.98563511E+04   3.40513301E+04   2.20841445E-02   1.34656982E-02   3.19060866E+04   4.84746475E+04   4.97498727E+04   3.07970993E-04   3.47617055E+02   2.27425652E+02   7.05630313E-05   6.90511388E-05   2.35680079E-05
   1.90750000E+03   5.00000000E-01   5.00000000E-01   3.51920279E+04   4.81305917E+04   4.79270232E+05   2.00610323E+04   1.76163847E+04   1.23922520E+05   2.98530289E+04   3.41842113E+04   2.31720287E-02   1.33207692E-02   3.19150830E+04   4.84753750E+04   4.97498727E+04   3.64653271E-04   3.47617064E+02   2.27425685E+02   7.05630313E-05   6.90511379E-05   2.35679943E-05
   1.94250000E+03   5.00000000E-01   5.00000000E-01   3.51923461E+04   4.81285371E+04   4.81345727E+05   2.00610324E+04   1.76163843E+04   1.23922546E+05   2.98498627E+04   3.43004223E+04   2.42672600E-02   1.31728711E-02   3.19232259E+04   4.84756171E+04   4.97498727E+04   4.34577452E-04   3.47617074E+02   2.27425720E+02   7.05630313E-05   6.90511371E-05   2.35679810E-05
   1.97750000E+03   5.00000000E-01   5.00000000E-01   3.51926593E+04   4.81264628E+04   4.84319082E+05   2.00610325E+04   1.76163839E+04   1.23922575E+05   2.98468530E+04   3.43974040E+04   2.53831321E-02   1.30226555E-02   3.19306411E+04   4.84754267E+04   4.97498727E+04   5.21203141E-04   3.47617086E+02   2.27425755E+02   7.05630313E-05   6.90511364E-05   2.35679677E-05
   2.01250000E+03   5.00000000E-01   5.00000000E-01   3.51929697E+04   4.81243770E+04   4.87867537E+05   2.00610326E+04   1.76163835E+04   1.23922608E+05   2.98439757E+04   3.44812529E+04   2.64762483E-02   1.28682724E-02   3.19369434E+04   4.84750098E+04   4.97498727E+04   6.28946889E-04   3.47617102E+02   2.27425792E+02   7.05630313E-05   6.90511358E-05   2.35679543E-05
   2.04750000E+03   5.00000000E-01   5.00000000E-01   3.51932775E+04   4.81223899E+04   4.91546696E+05   2.00610327E+04   1.76163831E+04   1.23922646E+05   2.98412112E+04   3.45595938E+04   2.74840480E-02   1.27082111E-02   3.19416788E+04   4.84745033E+04   4.97498727E+04   7.63451999E-04   3.47617113E+02   2.27425829E+02   7.05630313E-05   6.90511353E-05   2.35679410E-05
   2.08250000E+03   5.00000000E-01   5.00000000E-01   3.51935819E+04   4.81205904E+04   4.95109682E+05   2.00610328E+04   1.76163827E+04   1.23922690E+05   2.98385611E+04   3.46359429E+04   2.83661777E-02   1.25428739E-02   3.19446706E+04   4.84739745E+04   4.97498727E+04   9.31923928E-04   3.47617114E+02   2.27425868E+02   7.05630313E-05   6.90511348E-05   2.35679276E-05
   2.11750000E+03   5.00000000E-01   5.00000000E-01   3.51938822E+04   4.81190226E+04   4.98471847E+05   2.00610329E+04   1.76163823E+04   1.23922740E+05   2.98360410E+04   3.47106373E+04   2.91055123E-02   1.23738238E-02   3.19459595E+04   4.84734550E+04   4.97498727E+04   1.14355047E-03   3.47617107E+02   2.27425908E+02   7.05630313E-05   6.90511344E-05   2.35679143E-05
   2.15250000E+03   5.00000000E-01   5.00000000E-01   3.51941776E+04   4.81177087E+04   5.01601842E+05   2.00610330E+04   1.76163820E+04   1.23922796E+05   2.98336711E+04   3.47829304E+04   2.96969449E-02   1.22029189E-02   3.19456726E+04   4.84729605E+04   4.97498727E+04   1.41002667E-03   3.47617093E+02   2.27425951E+02   7.05630313E-05   6.90511341E-05   2.35679011E-05
   2.18750000E+03   5.00000000E-01   5.00000000E-01   3.51944680E+04   4.81166659E+04   5.04474089E+05   2.00610331E+04   1.76163817E+04   1.23922862E+05   2.98314736E+04   3.48518549E+04   3.01420644E-02   1.20320163E-02   3.19439706E+04   4.84724996E+04   4.97498727E+04   1.74620203E-03   3.47617073E+02   2.27425996E+02   7.05630313E-05   6.90511338E-05   2.35678879E-05
   2.22250000E+03   5.00000000E-01   5.00000000E-01   3.51947538E+04   4.81159124E+04   5.07056418E+05   2.00610333E+04   1.76163814E+04   1.23922936E+05   2.98294724E+04   3.49164199E+04   3.04478108E-02   1.18629254E-02   3.19410374E+04   4.84720765E+04   4.97498727E+04   2.17086822E-03   3.47617046E+02   2.27426045E+02   7.05630313E-05   6.90511335E-05   2.35678749E-05
   2.25750000E+03   5.00000000E-01   5.00000000E-01   3.51950361E+04   4.81154683E+04   5.09308330E+05   2.00610334E+04   1.76163812E+04   1.23923022E+05   2.98276934E+04   3.49756217E+04   3.06261574E-02   1.16974089E-02   3.19370798E+04   4.84716924E+04   4.97498727E+04   2.70770425E-03   3.47617013E+02   2.27426097E+02   7.05630313E-05   6.90511333E-05   2.35678619E-05
   2.29250000E+03   5.00000000E-01   5.00000000E-01   3.51953165E+04   4.81153564E+04   5.11181764E+05   2.00610335E+04   1.76163810E+04   1.23923122E+05   2.98261644E+04   3.50284230E+04   3.06937327E-02   1.15371807E-02   3.19323282E+04   4.84713464E+04   4.97498727E+04   3.38639200E-03   3.47616973E+02   2.27426156E+02   7.05630313E-05   6.90511331E-05   2.35678491E-05
   2.32750000E+03   5.00000000E-01   5.00000000E-01   3.51955968E+04   4.81156013E+04   5.12622429E+05   2.00610337E+04   1.76163809E+04   1.23923236E+05   2.98249150E+04   3.50737370E+04   3.06711422E-02   1.13838904E-02   3.19270345E+04   4.84710361E+04   4.97498727E+04   4.24390726E-03   3.47616927E+02   2.27426220E+02   7.05630313E-05   6.90511329E-05   2.35678365E-05
   2.36250000E+03   5.00000000E-01   5.00000000E-01   3.51958793E+04   4.81162291E+04   5.13571482E+05   2.00610338E+04   1.76163808E+04   1.23923370E+05   2.98239770E+04   3.51104211E+04   3.05820123E-02   1.12390971E-02   3.19214675E+04   4.84707577E+04   4.97498727E+04   5.32597897E-03   3.47616875E+02   2.27426292E+02   7.05630313E-05   6.90511328E-05   2.35678240E-05
   2.39750000E+03   5.00000000E-01   5.00000000E-01   3.51961662E+04   4.81172665E+04   5.13967742E+05   2.00610340E+04   1.76163807E+04   1.23923525E+05   2.98233829E+04   3.51372818E+04   3.04518494E-02   1.11042329E-02   3.19159060E+04   4.84705069E+04   4.97498727E+04   6.68869108E-03   3.47616816E+02   2.27426374E+02   7.05630313E-05   6.90511326E-05   2.35678117E-05
   2.43250000E+03   5.00000000E-01   5.00000000E-01   3.51964597E+04   4.81187396E+04   5.13750625E+05   2.00610341E+04   1.76163807E+04   1.23923707E+05   2.98231656E+04   3.51530900E+04   3.03068114E-02   1.09805575E-02   3.19106285E+04   4.84702789E+04   4.97498727E+04   8.40017727E-03   3.47616750E+02   2.27426465E+02   7.05630313E-05   6.90511325E-05   2.35677996E-05
   2.46750000E+03   5.00000000E-01   5.00000000E-01   3.51967623E+04   4.81206719E+04   5.12863912E+05   2.00610343E+04   1.76163807E+04   1.23923921E+05   2.98233569E+04   3.51566091E+04   3.01724785E-02   1.08691045E-02   3.19058998E+04   4.84700692E+04   4.97498727E+04   1.05423266E-02   3.47616676E+02   2.27426569E+02   7.05630313E-05   6.90511324E-05   2.35677878E-05
   2.50250000E+03   5.00000000E-01   5.00000000E-01   3.51970763E+04   4.81230823E+04   5.11260237E+05   2.00610345E+04   1.76163808E+04   1.23924172E+05   2.98239856E+04   3.51466365E+04   3.00726898E-02   1.07706211E-02   3.19019559E+04   4.84698733E+04   4.97498727E+04   1.32123799E-02   3.47616593E+02   2.27426686E+02   7.05630313E-05   6.90511323E-05   2.35677762E-05
   2.53750000E+03   5.00000000E-01   5.00000000E-01   3.51974043E+04   4.81259828E+04   5.08905904E+05   2.00610346E+04   1.76163809E+04   1.23924468E+05   2.98250754E+04   3.51220601E+04   3.00284989E-02   1.06855060E-02   3.18989867E+04   4.84696874E+04   4.97498727E+04   1.65242514E-02   3.47616500E+02   2.27426819E+02   7.05630313E-05   6.90511322E-05   2.35677648E-05
   2.57250000E+03   5.00000000E-01   5.00000000E-01   3.51977487E+04   4.81293754E+04   5.05785374E+05   2.00610348E+04   1.76163810E+04   1.23924818E+05   2.98266429E+04   3.50819294E+04   3.00572870E-02   1.06137534E-02   3.18971192E+04   4.84695081E+04   4.97498727E+04   2.06093622E-02   3.47616396E+02   2.27426968E+02   7.05630313E-05   6.90511322E-05   2.35677538E-05
   2.60750000E+03   5.00000000E-01   5.00000000E-01   3.51981125E+04   4.81332499E+04   5.01904559E+05   2.00610350E+04   1.76163812E+04   1.23925230E+05   2.98286949E+04   3.50255332E+04   3.01720675E-02   1.05549126E-02   3.18964033E+04   4.84693328E+04   4.97498727E+04   2.56167208E-02   3.47616280E+02   2.27427134E+02   7.05630313E-05   6.90511321E-05   2.35677431E-05
   2.64250000E+03   5.00000000E-01   5.00000000E-01   3.51984987E+04   4.81375830E+04   4.97292122E+05   2.00610353E+04   1.76163814E+04   1.23925716E+05   2.98312272E+04   3.49524760E+04   3.03809904E-02   1.05080743E-02   3.18968028E+04   4.84691598E+04   4.97498727E+04   3.17119441E-02   3.47616151E+02   2.27427318E+02   7.05630313E-05   6.90511320E-05   2.35677327E-05
   2.67750000E+03   5.00000000E-01   5.00000000E-01   3.51989109E+04   4.81423380E+04   4.91998435E+05   2.00610355E+04   1.76163817E+04   1.23926288E+05   2.98342237E+04   3.48627381E+04   3.06870260E-02   1.04718897E-02   3.18981941E+04   4.84689882E+04   4.97498727E+04   3.90748782E-02   3.47616008E+02   2.27427519E+02   7.05630313E-05   6.90511320E-05   2.35677226E-05
   2.71250000E+03   5.00000000E-01   5.00000000E-01   3.51993530E+04   4.81474655E+04   4.86092452E+05   2.00610357E+04   1.76163820E+04   1.23926956E+05   2.98376564E+04   3.47567097E+04   3.10877662E-02   1.04446221E-02   3.19003717E+04   4.84688189E+04   4.97498727E+04   4.78954652E-02   3.47615851E+02   2.27427737E+02   7.05630313E-05   6.90511319E-05   2.35677129E-05