 TITLE = "Mineral Area" 
VARIABLES = "X"          "Y"              "Z"            "Forsterite"     "Fayalite"       "Saponite(Mg)"   "Enstatite(alph" "Ferrosilite(al" "Anorthite"      "Albite(low)"    "Clinochlore"    "Sudoite"        "Montmorillonit" "Kaolinite"      "Tremolite"      "Pargasite"      "Anhydrite"      "Epidote"        "Scolecite"      "Pyrite"         "FeS(am)"        "Quartz(alpha)" 
 ZONE I=         100 , J=           1 , K=           1  F=POINT
   1.75000000E+01   5.00000000E-01   5.00000000E-01   3.48744896E+04   4.74352335E+04   1.87836878E+06   2.00608712E+04   1.76162647E+04   1.22527285E+05   2.92350967E+04   1.06763618E+05   7.69149792E-05   3.17019684E-03   2.48168233E+04   4.78876983E+04   4.91397271E+04   9.10045357E-06   3.47617435E+02   2.26862080E+02   6.30163616E-05   6.35660047E-05   2.35724869E-05
   5.25000000E+01   5.00000000E-01   5.00000000E-01   3.48744896E+04   4.75109031E+04   1.90111111E+06   2.00608712E+04   1.76162928E+04   1.22527285E+05   2.94863440E+04   9.40684860E+04   4.09756776E-05   3.72200549E-03   2.48462041E+04   4.78876580E+04   4.91397271E+04   9.20551088E-06   3.47617438E+02   2.26862127E+02   6.30163616E-05   6.35678512E-05   2.35731446E-05
   8.75000000E+01   5.00000000E-01   5.00000000E-01   3.48744896E+04   4.76093309E+04   1.80898818E+06   2.00608712E+04   1.76163164E+04   1.22527285E+05   2.95904310E+04   9.01981685E+04   3.36007879E-05   4.11321060E-03   2.48668316E+04   4.78875126E+04   4.91397271E+04   9.32364074E-06   3.47617438E+02   2.26862161E+02   6.30163616E-05   6.35692658E-05   2.35732328E-05
   1.22500000E+02   5.00000000E-01   5.00000000E-01   3.48744896E+04   4.77099490E+04   1.68733623E+06   2.00608712E+04   1.76163350E+04   1.22527285E+05   2.96653976E+04   8.81634469E+04   3.23672002E-05   4.51609895E-03   2.48880458E+04   4.78874409E+04   4.91397271E+04   9.45659532E-06   3.47617438E+02   2.26862196E+02   6.30163616E-05   6.35701781E-05   2.35732295E-05
   1.57500000E+02   5.00000000E-01   5.00000000E-01   3.48744896E+04   4.78005870E+04   1.57361958E+06   2.00608713E+04   1.76163493E+04   1.22527285E+05   2.97304554E+04   8.65027730E+04   3.28552363E-05   4.98359197E-03   2.49120360E+04   4.78874455E+04   4.91397271E+04   9.60630577E-06   3.47617438E+02   2.26862237E+02   6.30163616E-05   6.35706553E-05   2.35731956E-05
   1.92500000E+02   5.00000000E-01   5.00000000E-01   3.48744896E+04   4.78769068E+04   1.47725874E+06   2.00608713E+04   1.76163599E+04   1.22527285E+05   2.97854192E+04   8.50958461E+04   3.40130972E-05   5.51609294E-03   2.49386511E+04   4.78874184E+04   4.91397271E+04   9.77494363E-06   3.47617437E+02   2.26862281E+02   6.30163616E-05   6.35708023E-05   2.35731375E-05
   2.27500000E+02   5.00000000E-01   5.00000000E-01   3.48744896E+04   4.79387023E+04   1.39921257E+06   2.00608713E+04   1.76163677E+04   1.22527285E+05   2.98294742E+04   8.39700445E+04   3.55837295E-05   6.10481558E-03   2.49674507E+04   4.78873335E+04   4.91397271E+04   9.96498337E-06   3.47617437E+02   2.26862330E+02   6.30163616E-05   6.35707142E-05   2.35730587E-05
   2.62500000E+02   5.00000000E-01   5.00000000E-01   3.48744896E+04   4.79875285E+04   1.33757952E+06   2.00608713E+04   1.76163732E+04   1.22527285E+05   2.98631207E+04   8.31273604E+04   3.75279616E-05   6.74200529E-03   2.49981095E+04   4.78872987E+04   4.91397271E+04   1.01792695E-05   3.47617437E+02   2.26862381E+02   6.30163616E-05   6.35704670E-05   2.35729639E-05
   2.97500000E+02   5.00000000E-01   5.00000000E-01   3.48744896E+04   4.80254744E+04   1.28982514E+06   2.00608713E+04   1.76163771E+04   1.22527285E+05   2.98876418E+04   8.25398229E+04   3.98802493E-05   7.42297347E-03   2.50304717E+04   4.78873087E+04   4.91397271E+04   1.04210977E-05   3.47617437E+02   2.26862436E+02   6.30163616E-05   6.35701173E-05   2.35728572E-05
   3.32500000E+02   5.00000000E-01   5.00000000E-01   3.48744896E+04   4.80546254E+04   1.25338254E+06   2.00608714E+04   1.76163797E+04   1.22527285E+05   2.99045444E+04   8.21687881E+04   4.27117100E-05   8.14577912E-03   2.50644976E+04   4.78873162E+04   4.91397271E+04   1.06943100E-05   3.47617437E+02   2.26862493E+02   6.30163616E-05   6.35697067E-05   2.35727423E-05
   3.67500000E+02   5.00000000E-01   5.00000000E-01   3.48744896E+04   4.80768402E+04   1.22584370E+06   2.00608714E+04   1.76163813E+04   1.22527285E+05   2.99152806E+04   8.19760335E+04   4.61230413E-05   8.91066711E-03   2.51002120E+04   4.78873585E+04   4.91397271E+04   1.10034059E-05   3.47617437E+02   2.26862553E+02   6.30163616E-05   6.35692648E-05   2.35726223E-05
   4.02500000E+02   5.00000000E-01   5.00000000E-01   3.48744896E+04   4.80936550E+04   1.20523848E+06   2.00608714E+04   1.76163822E+04   1.22527285E+05   2.99211432E+04   8.19250616E+04   5.02508210E-05   9.71989108E-03   2.51376959E+04   4.78874390E+04   4.91397271E+04   1.13536830E-05   3.47617437E+02   2.26862617E+02   6.30163616E-05   6.35688124E-05   2.35724995E-05
   4.37500000E+02   5.00000000E-01   5.00000000E-01   3.48744897E+04   4.81062972E+04   1.18997275E+06   2.00608714E+04   1.76163826E+04   1.22527285E+05   2.99232252E+04   8.19839799E+04   5.52775976E-05   1.05773261E-02   2.51770637E+04   4.78875447E+04   4.91397271E+04   1.17514113E-05   3.47617437E+02   2.26862684E+02   6.30163616E-05   6.35683638E-05   2.35723754E-05
   4.72500000E+02   5.00000000E-01   5.00000000E-01   3.48744897E+04   4.81157242E+04   1.17876391E+06   2.00608715E+04   1.76163826E+04   1.22527285E+05   2.99224310E+04   8.21258491E+04   6.14478845E-05   1.14883314E-02   2.52184517E+04   4.78876710E+04   4.91397271E+04   1.22040508E-05   3.47617437E+02   2.26862754E+02   6.30163616E-05   6.35679288E-05   2.35722515E-05
   5.07500000E+02   5.00000000E-01   5.00000000E-01   3.48744897E+04   4.81226676E+04   1.17060479E+06   2.00608715E+04   1.76163823E+04   1.22527285E+05   2.99195034E+04   8.23278470E+04   6.90928311E-05   1.24598170E-02   2.52620168E+04   4.78878137E+04   4.91397271E+04   1.27205275E-05   3.47617437E+02   2.26862829E+02   6.30163616E-05   6.35675134E-05   2.35721287E-05
   5.42500000E+02   5.00000000E-01   5.00000000E-01   3.48744898E+04   4.81276786E+04   1.16470972E+06   2.00608715E+04   1.76163818E+04   1.22527285E+05   2.99150498E+04   8.25707234E+04   7.86665079E-05   1.35003573E-02   2.53079353E+04   4.78879685E+04   4.91397271E+04   1.33115841E-05   3.47617437E+02   2.26862908E+02   6.30163616E-05   6.35671217E-05   2.35720077E-05
   5.77500000E+02   5.00000000E-01   5.00000000E-01   3.48744899E+04   4.81311677E+04   1.16046842E+06   2.00608716E+04   1.76163811E+04   1.22527285E+05   2.99095658E+04   8.28383038E+04   9.08001840E-05   1.46203487E-02   2.53564022E+04   4.78881318E+04   4.91397271E+04   1.39902297E-05   3.47617436E+02   2.26862993E+02   6.30163616E-05   6.35667555E-05   2.35718891E-05
   6.12500000E+02   5.00000000E-01   5.00000000E-01   3.48744900E+04   4.81334374E+04   1.15741007E+06   2.00608716E+04   1.76163803E+04   1.22527285E+05   2.99034523E+04   8.31171012E+04   1.06384505E-04   1.58321619E-02   2.54076297E+04   4.78883014E+04   4.91397271E+04   1.47723196E-05   3.47617436E+02   2.26863082E+02   6.30163616E-05   6.35664160E-05   2.35717732E-05
   6.47500000E+02   5.00000000E-01   5.00000000E-01   3.48744901E+04   4.81347094E+04   1.15517573E+06   2.00608716E+04   1.76163794E+04   1.22527285E+05   2.98970293E+04   8.33960590E+04   1.26695515E-04   1.71502408E-02   2.54618439E+04   4.78884759E+04   4.91397271E+04   1.56773099E-05   3.47617435E+02   2.26863178E+02   6.30163616E-05   6.35661030E-05   2.35716605E-05
   6.82500000E+02   5.00000000E-01   5.00000000E-01   3.48744904E+04   4.81351455E+04   1.15349747E+06   2.00608717E+04   1.76163785E+04   1.22527286E+05   2.98905449E+04   8.36663886E+04   1.53590644E-04   1.85911067E-02   2.55192790E+04   4.78886549E+04   4.91397271E+04   1.67292458E-05   3.47617434E+02   2.26863280E+02   6.30163616E-05   6.35658160E-05   2.35715510E-05
   7.17500000E+02   5.00000000E-01   5.00000000E-01   3.48744907E+04   4.81348638E+04   1.15218253E+06   2.00608717E+04   1.76163774E+04   1.22527286E+05   2.98841824E+04   8.39214546E+04   1.89818028E-04   2.01732321E-02   2.55801689E+04   4.78888383E+04   4.91397271E+04   1.79580670E-05   3.47617433E+02   2.26863389E+02   6.30163616E-05   6.35655540E-05   2.35714449E-05
   7.52500000E+02   5.00000000E-01   5.00000000E-01   3.48744912E+04   4.81339521E+04   1.15110101E+06   2.00608718E+04   1.76163764E+04   1.22527286E+05   2.98780659E+04   8.41566642E+04   2.39512022E-04   2.19167521E-02   2.56447371E+04   4.78890266E+04   4.91397271E+04   1.94013469E-05   3.47617431E+02   2.26863505E+02   6.30163616E-05   6.35653159E-05   2.35713422E-05
   7.87500000E+02   5.00000000E-01   5.00000000E-01   3.48744919E+04   4.81324766E+04   1.15017600E+06   2.00608718E+04   1.76163752E+04   1.22527286E+05   2.98722666E+04   8.43693265E+04   3.08998961E-04   2.38429878E-02   2.57131846E+04   4.78892199E+04   4.91397271E+04   2.11066308E-05   3.47617428E+02   2.26863630E+02   6.30163616E-05   6.35651003E-05   2.35712430E-05
   8.22500000E+02   5.00000000E-01   5.00000000E-01   3.48744929E+04   4.81304893E+04   1.14937502E+06   2.00608719E+04   1.76163741E+04   1.22527287E+05   2.98668094E+04   8.45584668E+04   4.08126972E-04   2.59737628E-02   2.57856781E+04   4.78894172E+04   4.91397271E+04   2.31346069E-05   3.47617424E+02   2.26863763E+02   6.30163616E-05   6.35649056E-05   2.35711472E-05
   8.57500000E+02   5.00000000E-01   5.00000000E-01   3.48744945E+04   4.81280328E+04   1.14870135E+06   2.00608719E+04   1.76163729E+04   1.22527288E+05   2.98616797E+04   8.47246011E+04   5.52492151E-04   2.83305024E-02   2.58623373E+04   4.78896161E+04   4.91397271E+04   2.55634516E-05   3.47617419E+02   2.26863905E+02   6.30163616E-05   6.35647303E-05   2.35710546E-05
   8.92500000E+02   5.00000000E-01   5.00000000E-01   3.48744967E+04   4.81251439E+04   1.14818404E+06   2.00608720E+04   1.76163717E+04   1.22527288E+05   2.98568320E+04   8.48694929E+04   7.67215917E-04   3.09331214E-02   2.59432251E+04   4.78898134E+04   4.91397271E+04   2.84948421E-05   3.47617411E+02   2.26864057E+02   6.30163616E-05   6.35645730E-05   2.35709652E-05
   9.27500000E+02   5.00000000E-01   5.00000000E-01   3.48745001E+04   4.81218560E+04   1.14786656E+06   2.00608720E+04   1.76163705E+04   1.22527289E+05   2.98521978E+04   8.49959019E+04   1.09343555E-03   3.37987255E-02   2.60283386E+04   4.78900079E+04   4.91397271E+04   3.20623663E-05   3.47617401E+02   2.26864219E+02   6.30163616E-05   6.35644321E-05   2.35708787E-05
   9.62500000E+02   5.00000000E-01   5.00000000E-01   3.48745050E+04   4.81182007E+04   1.14779631E+06   2.00608721E+04   1.76163693E+04   1.22527290E+05   2.98476948E+04   8.51073131E+04   1.59958771E-03   3.69401939E-02   2.61176034E+04   4.78902032E+04   4.91397271E+04   3.64434175E-05   3.47617388E+02   2.26864390E+02   6.30163616E-05   6.35643062E-05   2.35707951E-05
   9.97500000E+02   5.00000000E-01   5.00000000E-01   3.48745123E+04   4.81142081E+04   1.14801970E+06   2.00608721E+04   1.76163681E+04   1.22527292E+05   2.98432348E+04   8.52076022E+04   2.40124290E-03   4.03647575E-02   2.62108727E+04   4.78904074E+04   4.91397271E+04   4.18762155E-05   3.47617371E+02   2.26864572E+02   6.30163616E-05   6.35641939E-05   2.35707140E-05
   1.03250000E+03   5.00000000E-01   5.00000000E-01   3.48745231E+04   4.81099054E+04   1.14858768E+06   2.00608722E+04   1.76163668E+04   1.22527294E+05   2.98387311E+04   8.53005861E+04   3.69635036E-03   4.40727329E-02   2.63079334E+04   4.78906240E+04   4.91397271E+04   4.86844687E-05   3.47617350E+02   2.26864763E+02   6.30163616E-05   6.35640939E-05   2.35706354E-05
   1.06750000E+03   5.00000000E-01   5.00000000E-01   3.48745388E+04   4.81053161E+04   1.14956147E+06   2.00608723E+04   1.76163655E+04   1.22527296E+05   2.98341043E+04   8.53896521E+04   5.82842697E-03   4.80564346E-02   2.64085148E+04   4.78908415E+04   4.91397271E+04   5.73135745E-05   3.47617326E+02   2.26864965E+02   6.30163616E-05   6.35640051E-05   2.35705590E-05
   1.10250000E+03   5.00000000E-01   5.00000000E-01   3.48745616E+04   4.81004622E+04   1.15099615E+06   2.00608724E+04   1.76163642E+04   1.22527299E+05   2.98292858E+04   8.54778176E+04   9.40036434E-03   5.22990785E-02   2.65122916E+04   4.78910415E+04   4.91397271E+04   6.83844664E-05   3.47617297E+02   2.26865177E+02   6.30163616E-05   6.35639262E-05   2.35704848E-05
   1.13750000E+03   5.00000000E-01   5.00000000E-01   3.48745946E+04   4.80953676E+04   1.15291418E+06   2.00608724E+04   1.76163629E+04   1.22527302E+05   2.98242194E+04   8.55679968E+04   1.54798298E-02   5.67738628E-02   2.66188828E+04   4.78912192E+04   4.91397271E+04   8.27748321E-05   3.47617265E+02   2.26865398E+02   6.30163616E-05   6.35638563E-05   2.35704125E-05
   1.17250000E+03   5.00000000E-01   5.00000000E-01   3.48746419E+04   4.80900592E+04   1.15529449E+06   2.00608725E+04   1.76163616E+04   1.22527307E+05   2.98188635E+04   8.56630516E+04   2.59703216E-02   6.14436976E-02   2.67278553E+04   4.78913973E+04   4.91397271E+04   1.01743417E-04   3.47617231E+02   2.26865630E+02   6.30163616E-05   6.35637943E-05   2.35703420E-05
   1.20750000E+03   5.00000000E-01   5.00000000E-01   3.48747083E+04   4.80845642E+04   1.15809619E+06   2.00608726E+04   1.76163603E+04   1.22527312E+05   2.98131931E+04   8.57653421E+04   4.42825193E-02   6.62620759E-02   2.68387424E+04   4.78916102E+04   4.91397271E+04   1.27123248E-04   3.47617196E+02   2.26865871E+02   6.30163616E-05   6.35637395E-05   2.35702732E-05
   1.24250000E+03   5.00000000E-01   5.00000000E-01   3.48747991E+04   4.80789019E+04   1.16132506E+06   2.00608727E+04   1.76163590E+04   1.22527319E+05   2.98072015E+04   8.58756693E+04   7.65556395E-02   7.11754673E-02   2.69510858E+04   4.78918472E+04   4.91397271E+04   1.61626962E-04   3.47617160E+02   2.26866121E+02   6.30163616E-05   6.35636910E-05   2.35702062E-05
   1.27750000E+03   5.00000000E-01   5.00000000E-01   3.48749203E+04   4.80730861E+04   1.16503348E+06   2.00608728E+04   1.76163577E+04   1.22527326E+05   2.98008966E+04   8.59934368E+04   1.33870941E-01   7.61246888E-02   2.70644450E+04   4.78920405E+04   4.91397271E+04   2.09337500E-04   3.47617126E+02   2.26866381E+02   6.30163616E-05   6.35636482E-05   2.35701407E-05
   1.31250000E+03   5.00000000E-01   5.00000000E-01   3.48750788E+04   4.80671386E+04   1.16922370E+06   2.00608729E+04   1.76163564E+04   1.22527336E+05   2.97942939E+04   8.61183846E+04   2.36196820E-01   8.10440612E-02   2.71783530E+04   4.78921418E+04   4.91397271E+04   2.76510303E-04   3.47617096E+02   2.26866650E+02   6.30163616E-05   6.35636103E-05   2.35700767E-05
   1.34750000E+03   5.00000000E-01   5.00000000E-01   3.48752811E+04   4.80610974E+04   1.17377921E+06   2.00608730E+04   1.76163551E+04   1.22527347E+05   2.97874138E+04   8.62516907E+04   4.19290218E-01   8.58616255E-02   2.72922808E+04   4.78921961E+04   4.91397271E+04   3.72908461E-04   3.47617074E+02   2.26866928E+02   6.30163616E-05   6.35635769E-05   2.35700141E-05
   1.38250000E+03   5.00000000E-01   5.00000000E-01   3.48755296E+04   4.80550289E+04   1.17836415E+06   2.00608731E+04   1.76163538E+04   1.22527361E+05   2.97802782E+04   8.63975690E+04   7.46272787E-01   9.04984120E-02   2.74055746E+04   4.78924439E+04   4.91397271E+04   5.14065820E-04   3.47617061E+02   2.26867215E+02   6.30163616E-05   6.35635473E-05   2.35699531E-05
   1.41750000E+03   5.00000000E-01   5.00000000E-01   3.48758132E+04   4.80490102E+04   1.18268245E+06   2.00608732E+04   1.76163525E+04   1.22527378E+05   2.97729263E+04   8.65586935E+04   1.32733407E+00   9.48805571E-02   2.75176175E+04   4.78931075E+04   4.91397271E+04   7.25200942E-04   3.47617055E+02   2.26867512E+02   6.30163616E-05   6.35635212E-05   2.35698935E-05
   1.45250000E+03   5.00000000E-01   5.00000000E-01   3.48761162E+04   4.80429997E+04   1.18744490E+06   2.00608734E+04   1.76163512E+04   1.22527398E+05   2.97654557E+04   8.67199677E+04   2.35986647E+00   9.89777864E-02   2.76284901E+04   4.78936031E+04   4.91397271E+04   1.04814491E-03   3.47617046E+02   2.26867817E+02   6.30163616E-05   6.35634982E-05   2.35698354E-05
   1.48750000E+03   5.00000000E-01   5.00000000E-01   3.48764418E+04   4.80369736E+04   1.19287796E+06   2.00608735E+04   1.76163500E+04   1.22527422E+05   2.97579123E+04   8.68756273E+04   4.18859848E+00   1.02737817E-01   2.77379296E+04   4.78937380E+04   4.91397271E+04   1.55382720E-03   3.47617036E+02   2.26868133E+02   6.30163616E-05   6.35634778E-05   2.35697786E-05
   1.52250000E+03   5.00000000E-01   5.00000000E-01   3.48767936E+04   4.80310869E+04   1.19795880E+06   2.00608737E+04   1.76163487E+04   1.22527450E+05   2.97502746E+04   8.70410710E+04   7.37805545E+00   1.06059551E-01   2.78447497E+04   4.78942776E+04   4.91397271E+04   2.36523671E-03   3.47617048E+02   2.26868458E+02   6.30163616E-05   6.35634599E-05   2.35697232E-05
   1.55750000E+03   5.00000000E-01   5.00000000E-01   3.48771563E+04   4.80254900E+04   1.20224614E+06   2.00608738E+04   1.76163475E+04   1.22527484E+05   2.97425874E+04   8.72191373E+04   1.28500770E+01   1.08887823E-01   2.79482393E+04   4.78954984E+04   4.91397271E+04   3.70069502E-03   3.47617068E+02   2.26868793E+02   6.30163616E-05   6.35634440E-05   2.35696691E-05
   1.59250000E+03   5.00000000E-01   5.00000000E-01   3.48775274E+04   4.80201025E+04   1.20707535E+06   2.00608740E+04   1.76163464E+04   1.22527525E+05   2.97349896E+04   8.73804020E+04   2.22084476E+01   1.11259986E-01   2.80491093E+04   4.78963376E+04   4.91397271E+04   5.95747458E-03   3.47617064E+02   2.26869139E+02   6.30163616E-05   6.35634301E-05   2.35696164E-05
   1.62750000E+03   5.00000000E-01   5.00000000E-01   3.48779131E+04   4.80149283E+04   1.21272157E+06   2.00608741E+04   1.76163452E+04   1.22527572E+05   2.97275031E+04   8.75149597E+04   3.80459988E+01   1.13142364E-01   2.81470760E+04   4.78965443E+04   4.91397271E+04   9.87681313E-03   3.47617045E+02   2.26869497E+02   6.30163616E-05   6.35634177E-05   2.35695647E-05
   1.66250000E+03   5.00000000E-01   5.00000000E-01   3.48783019E+04   4.80101681E+04   1.21851462E+06   2.00608743E+04   1.76163441E+04   1.22527629E+05   2.97200846E+04   8.76275851E+04   6.42433877E+01   1.14452089E-01   2.82409387E+04   4.78964584E+04   4.91397271E+04   1.68775183E-02   3.47616998E+02   2.26869865E+02   6.30163616E-05   6.35634068E-05   2.35695142E-05
   1.69750000E+03   5.00000000E-01   5.00000000E-01   3.48786920E+04   4.80058876E+04   1.22449126E+06   2.00608745E+04   1.76163430E+04   1.22527696E+05   2.97127388E+04   8.77063145E+04   1.06602629E+02   1.15152974E-01   2.83300355E+04   4.78962321E+04   4.91397271E+04   2.97473116E-02   3.47616935E+02   2.26870245E+02   6.30163616E-05   6.35633972E-05   2.35694646E-05
   1.73250000E+03   5.00000000E-01   5.00000000E-01   3.48790993E+04   4.80020034E+04   1.23114897E+06   2.00608747E+04   1.76163420E+04   1.22527775E+05   2.97054661E+04   8.77274226E+04   1.73515061E+02   1.15222254E-01   2.84139146E+04   4.78959710E+04   4.91397271E+04   5.41108589E-02   3.47616925E+02   2.26870635E+02   6.30163616E-05   6.35633887E-05   2.35694159E-05
   1.76750000E+03   5.00000000E-01   5.00000000E-01   3.48795223E+04   4.79986087E+04   1.23849393E+06   2.00608748E+04   1.76163410E+04   1.22527867E+05   2.96981989E+04   8.76735382E+04   2.75604330E+02   1.14595990E-01   2.84914129E+04   4.78957796E+04   4.91397271E+04   1.01625034E-01   3.47616974E+02   2.26871035E+02   6.30163616E-05   6.35633812E-05   2.35693679E-05
   1.80250000E+03   5.00000000E-01   5.00000000E-01   3.48799470E+04   4.79959259E+04   1.24630175E+06   2.00608750E+04   1.76163401E+04   1.22527976E+05   2.96908503E+04   8.75301196E+04   4.24307877E+02   1.13209746E-01   2.85610585E+04   4.78957251E+04   4.91397271E+04   1.97106568E-01   3.47617026E+02   2.26871443E+02   6.30163616E-05   6.35633746E-05   2.35693205E-05
   1.83750000E+03   5.00000000E-01   5.00000000E-01   3.48803526E+04   4.79941582E+04   1.25431517E+06   2.00608752E+04   1.76163393E+04   1.22528102E+05   2.96833566E+04   8.72855226E+04   6.29235070E+02   1.11037845E-01   2.86215287E+04   4.78960035E+04   4.91397271E+04   3.94815705E-01   3.47617048E+02   2.26871856E+02   6.30163616E-05   6.35633687E-05   2.35692738E-05
   1.87250000E+03   5.00000000E-01   5.00000000E-01   3.48807183E+04   4.79934426E+04   1.26241128E+06   2.00608754E+04   1.76163385E+04   1.22528250E+05   2.96757124E+04   8.69318470E+04   8.95556146E+02   1.08122539E-01   2.86720930E+04   4.78967332E+04   4.91397271E+04   8.16525715E-01   3.47617055E+02   2.26872274E+02   6.30163616E-05   6.35633636E-05   2.35692277E-05
   1.90750000E+03   5.00000000E-01   5.00000000E-01   3.48810490E+04   4.79938058E+04   1.27117694E+06   2.00608756E+04   1.76163379E+04   1.22528421E+05   2.96679909E+04   8.64524814E+04   1.22536452E+03   1.04587712E-01   2.87131700E+04   4.78974521E+04   4.91397271E+04   1.74245412E+00   3.47617064E+02   2.26872696E+02   6.30163616E-05   6.35633590E-05   2.35691822E-05
   1.94250000E+03   5.00000000E-01   5.00000000E-01   3.48813648E+04   4.79951878E+04   1.28122135E+06   2.00608758E+04   1.76163373E+04   1.22528621E+05   2.96602868E+04   8.58355705E+04   1.61756888E+03   1.00579260E-01   2.87455705E+04   4.78976913E+04   4.91397271E+04   3.83211507E+00   3.47617074E+02   2.26873124E+02   6.30163616E-05   6.35633550E-05   2.35691371E-05
   1.97750000E+03   5.00000000E-01   5.00000000E-01   3.48816757E+04   4.79975187E+04   1.29234500E+06   2.00608760E+04   1.76163368E+04   1.22528851E+05   2.96526974E+04   8.50941410E+04   2.06451927E+03   9.62344628E-02   2.87698477E+04   4.78975031E+04   4.91397271E+04   8.66421163E+00   3.47617086E+02   2.26873559E+02   6.30163616E-05   6.35633514E-05   2.35690923E-05
   2.01250000E+03   5.00000000E-01   5.00000000E-01   3.48819839E+04   4.80008387E+04   1.30366656E+06   2.00608761E+04   1.76163364E+04   1.22529118E+05   2.96453581E+04   8.42618738E+04   2.55222393E+03   9.16955904E-02   2.87865267E+04   4.78970912E+04   4.91397271E+04   2.00334237E+01   3.47617102E+02   2.26874000E+02   6.30163616E-05   6.35633482E-05   2.35690478E-05
   2.04750000E+03   5.00000000E-01   5.00000000E-01   3.48822894E+04   4.80052633E+04   1.31415749E+06   2.00608763E+04   1.76163360E+04   1.22529427E+05   2.96384596E+04   8.33736281E+04   3.06559921E+03   8.71123034E-02   2.87964443E+04   4.78965907E+04   4.91397271E+04   4.68224216E+01   3.47617113E+02   2.26874449E+02   6.30163616E-05   6.35633454E-05   2.35690037E-05
   2.08250000E+03   5.00000000E-01   5.00000000E-01   3.48825918E+04   4.80108544E+04   1.32313301E+06   2.00608765E+04   1.76163357E+04   1.22529781E+05   2.96322334E+04   8.24437892E+04   3.59594278E+03   8.26273030E-02   2.88008657E+04   4.78960683E+04   4.91397271E+04   1.07818588E+02   3.47617114E+02   2.26874901E+02   6.30163616E-05   6.35633429E-05   2.35689602E-05
   2.11750000E+03   5.00000000E-01   5.00000000E-01   3.48828901E+04   4.80175662E+04   1.33025654E+06   2.00608767E+04   1.76163356E+04   1.22530184E+05   2.96269242E+04   8.14608589E+04   4.14432613E+03   7.83582616E-02   2.88012739E+04   4.78955549E+04   4.91397271E+04   2.32775165E+02   3.47617107E+02   2.26875343E+02   6.30163616E-05   6.35633406E-05   2.35689175E-05
   2.15250000E+03   5.00000000E-01   5.00000000E-01   3.48831836E+04   4.80252355E+04   1.33555127E+06   2.00608769E+04   1.76163355E+04   1.22530635E+05   2.96227414E+04   8.03967938E+04   4.71836364E+03   7.43818661E-02   2.87990197E+04   4.78950664E+04   4.91397271E+04   4.39586344E+02   3.47617093E+02   2.26875755E+02   6.30163616E-05   6.35633386E-05   2.35688757E-05
   2.18750000E+03   5.00000000E-01   5.00000000E-01   3.48834722E+04   4.80336512E+04   1.33952760E+06   2.00608772E+04   1.76163355E+04   1.22531133E+05   2.96197759E+04   7.92367700E+04   5.31925034E+03   7.07157172E-02   2.87948357E+04   4.78946110E+04   4.91397271E+04   6.91264455E+02   3.47617073E+02   2.26876117E+02   6.30163616E-05   6.35633368E-05   2.35688350E-05
   2.22250000E+03   5.00000000E-01   5.00000000E-01   3.48837563E+04   4.80427019E+04   1.34282521E+06   2.00608774E+04   1.76163355E+04   1.22531678E+05   2.96179944E+04   7.80023645E+04   5.93304752E+03   6.73326930E-02   2.87888059E+04   4.78941929E+04   4.91397271E+04   9.14203305E+02   3.47617046E+02   2.26876428E+02   6.30163616E-05   6.35633352E-05   2.35687951E-05
   2.25750000E+03   5.00000000E-01   5.00000000E-01   3.48840371E+04   4.80524177E+04   1.34559090E+06   2.00608776E+04   1.76163357E+04   1.22532276E+05   2.96173350E+04   7.67339949E+04   6.54070774E+03   6.42003851E-02   2.87808684E+04   4.78938134E+04   4.91397271E+04   1.06687200E+03   3.47617013E+02   2.26876697E+02   6.30163616E-05   6.35633337E-05   2.35687561E-05
   2.29250000E+03   5.00000000E-01   5.00000000E-01   3.48843161E+04   4.80629065E+04   1.34752676E+06   2.00608779E+04   1.76163358E+04   1.22532935E+05   2.96177394E+04   7.54699464E+04   7.12705574E+03   6.12898095E-02   2.87709334E+04   4.78934715E+04   4.91397271E+04   1.14392499E+03   3.47616973E+02   2.26876938E+02   6.30163616E-05   6.35633324E-05   2.35687179E-05
   2.32750000E+03   5.00000000E-01   5.00000000E-01   3.48845951E+04   4.80743004E+04   1.34818533E+06   2.00608781E+04   1.76163361E+04   1.22533668E+05   2.96191745E+04   7.42390856E+04   7.68175372E+03   5.85790882E-02   2.87590147E+04   4.78931649E+04   4.91397271E+04   1.15592278E+03   3.47616927E+02   2.26877170E+02   6.30163616E-05   6.35633312E-05   2.35686805E-05
   2.36250000E+03   5.00000000E-01   5.00000000E-01   3.48848764E+04   4.80866915E+04   1.34711706E+06   2.00608784E+04   1.76163364E+04   1.22534490E+05   2.96216783E+04   7.30521607E+04   8.20125496E+03   5.60641118E-02   2.87455490E+04   4.78928898E+04   4.91397271E+04   1.12626095E+03   3.47616875E+02   2.26877411E+02   6.30163616E-05   6.35633301E-05   2.35686438E-05
   2.39750000E+03   5.00000000E-01   5.00000000E-01   3.48851621E+04   4.81000852E+04   1.34406517E+06   2.00608786E+04   1.76163368E+04   1.22535416E+05   2.96253315E+04   7.19037963E+04   8.68736690E+03   5.37490708E-02   2.87312254E+04   4.78926420E+04   4.91397271E+04   1.07854085E+03   3.47616816E+02   2.26877669E+02   6.30163616E-05   6.35633291E-05   2.35686081E-05
   2.43250000E+03   5.00000000E-01   5.00000000E-01   3.48854545E+04   4.81144133E+04   1.33906036E+06   2.00608789E+04   1.76163373E+04   1.22536460E+05   2.96301827E+04   7.07848260E+04   9.14271712E+03   5.16284344E-02   2.87165070E+04   4.78924167E+04   4.91397271E+04   1.02482327E+03   3.47616750E+02   2.26877946E+02   6.30163616E-05   6.35633282E-05   2.35685732E-05
   2.46750000E+03   5.00000000E-01   5.00000000E-01   3.48857561E+04   4.81295828E+04   1.33232620E+06   2.00608792E+04   1.76163378E+04   1.22537640E+05   2.96362060E+04   6.96909407E+04   9.56834852E+03   4.96795478E-02   2.87013398E+04   4.78922095E+04   4.91397271E+04   9.66310505E+02   3.47616676E+02   2.26878246E+02   6.30163616E-05   6.35633274E-05   2.35685393E-05
   2.50250000E+03   5.00000000E-01   5.00000000E-01   3.48860692E+04   4.81454769E+04   1.32406958E+06   2.00608795E+04   1.76163384E+04   1.22538978E+05   2.96433389E+04   6.86231986E+04   9.96378764E+03   4.78742040E-02   2.86854249E+04   4.78920160E+04   4.91397271E+04   9.03960925E+02   3.47616593E+02   2.26878574E+02   6.30163616E-05   6.35633267E-05   2.35685063E-05
   2.53750000E+03   5.00000000E-01   5.00000000E-01   3.48863961E+04   4.81619113E+04   1.31437324E+06   2.00608799E+04   1.76163390E+04   1.22540498E+05   2.96515453E+04   6.75868824E+04   1.03265454E+04   4.61937930E-02   2.86687096E+04   4.78918323E+04   4.91397271E+04   8.43433012E+02   3.47616500E+02   2.26878935E+02   6.30163616E-05   6.35633260E-05   2.35684742E-05
   2.57250000E+03   5.00000000E-01   5.00000000E-01   3.48867397E+04   4.81786284E+04   1.30327399E+06   2.00608802E+04   1.76163396E+04   1.22542222E+05   2.96608238E+04   6.65917998E+04   1.06512642E+04   4.46297824E-02   2.86514492E+04   4.78916551E+04   4.91397271E+04   7.90464344E+02   3.47616396E+02   2.26879328E+02   6.30163616E-05   6.35633254E-05   2.35684430E-05
   2.60750000E+03   5.00000000E-01   5.00000000E-01   3.48871025E+04   4.81953445E+04   1.29085988E+06   2.00608805E+04   1.76163403E+04   1.22544170E+05   2.96711749E+04   6.56515317E+04   1.09303848E+04   4.31751645E-02   2.86339214E+04   4.78914819E+04   4.91397271E+04   7.46792405E+02   3.47616280E+02   2.26879745E+02   6.30163616E-05   6.35633248E-05   2.35684128E-05
   2.64250000E+03   5.00000000E-01   5.00000000E-01   3.48874879E+04   4.82118122E+04   1.27728607E+06   2.00608809E+04   1.76163409E+04   1.22546364E+05   2.96825748E+04   6.47804466E+04   1.11562460E+04   4.18184037E-02   2.86161774E+04   4.78913110E+04   4.91397271E+04   7.10360857E+02   3.47616151E+02   2.26880179E+02   6.30163616E-05   6.35633243E-05   2.35683836E-05
   2.67750000E+03   5.00000000E-01   5.00000000E-01   3.48878991E+04   4.82278542E+04   1.26274274E+06   2.00608813E+04   1.76163415E+04   1.22548825E+05   2.96949689E+04   6.39896176E+04   1.13234129E+04   4.05429175E-02   2.85979795E+04   4.78911415E+04   4.91397271E+04   6.77876156E+02   3.47616008E+02   2.26880623E+02   6.30163616E-05   6.35633238E-05   2.35683553E-05
   2.71250000E+03   5.00000000E-01   5.00000000E-01   3.48883403E+04   4.82433519E+04   1.24741037E+06   2.00608817E+04   1.76163421E+04   1.22551580E+05   2.97082850E+04   6.32846777E+04   1.14296226E+04   3.93305990E-02   2.85789179E+04   4.78909741E+04   4.91397271E+04   6.47382530E+02   3.47615851E+02   2.26881076E+02   6.30163616E-05   6.35633234E-05   2.35683279E-05