 TITLE = "Mineral Area" 
VARIABLES = "X"          "Y"              "Z"            "Forsterite"     "Enstatite(alph" "Anorthite"      "Ferropargasite" "Anhydrite"      "Clinochlore"    "Albite(low)"    "Fayalite"       "Epidote"        "Kaolinite"      "Muscovite(orde"
 ZONE I=          10 , J=           1 , K=           1  F=POINT
   1.75000000E+02   5.00000000E-01   5.00000000E-01   9.99654995E-02   1.00000439E-01   9.68410300E-02   9.99117575E-02   9.99785056E-02   2.37117566E+03   9.99069772E-02   1.00072928E-01   9.99998482E-02   0.00000000E+00   0.00000000E+00
   5.25000000E+02   5.00000000E-01   5.00000000E-01   9.99655029E-02   9.99996199E-02   9.68410300E-02   9.99117575E-02   9.99919352E-02   2.39339805E+03   9.99044752E-02   1.00072847E-01   9.99966603E-02   0.00000000E+00   0.00000000E+00
   8.75000000E+02   5.00000000E-01   5.00000000E-01   9.99655106E-02   9.99990056E-02   9.68410300E-02   9.99117575E-02   1.00001474E-01   2.41481026E+03   9.99020533E-02   1.00072656E-01   9.99903089E-02   0.00000000E+00   0.00000000E+00
   1.22500000E+03   5.00000000E-01   5.00000000E-01   9.99655438E-02   9.99985756E-02   9.68410300E-02   9.99117575E-02   1.00008546E-01   2.43470971E+03   9.98997929E-02   1.00072334E-01   9.99806228E-02   0.00000000E+00   0.00000000E+00
   1.57500000E+03   5.00000000E-01   5.00000000E-01   9.99656129E-02   9.99982684E-02   9.68410300E-02   9.99117575E-02   1.00013604E-01   2.45025252E+03   9.98980209E-02   1.00071761E-01   9.99653556E-02   0.00000000E+00   0.00000000E+00
   1.92500000E+03   5.00000000E-01   5.00000000E-01   9.99657251E-02   9.99980519E-02   9.68410300E-02   9.99117575E-02   1.00017160E-01   2.45990000E+03   9.98969181E-02   1.00070692E-01   9.99416880E-02   0.00000000E+00   0.00000000E+00
   2.27500000E+03   5.00000000E-01   5.00000000E-01   9.99658607E-02   9.99979156E-02   9.68410300E-02   9.99117575E-02   1.00019606E-01   2.46730628E+03   9.98960701E-02   1.00068714E-01   9.99061741E-02   0.00000000E+00   0.00000000E+00
   2.62500000E+03   5.00000000E-01   5.00000000E-01   9.99659845E-02   9.99978562E-02   9.68410300E-02   9.99117575E-02   1.00021222E-01   2.47794942E+03   9.98948492E-02   1.00065298E-01   9.98625152E-02   0.00000000E+00   0.00000000E+00
   2.97500000E+03   5.00000000E-01   5.00000000E-01   9.99660730E-02   9.99978709E-02   9.68410300E-02   9.99117575E-02   1.00022212E-01   2.49505210E+03   9.98928818E-02   1.00060174E-01   9.98279918E-02   0.00000000E+00   0.00000000E+00
   3.32500000E+03   5.00000000E-01   5.00000000E-01   9.99661440E-02   9.99979527E-02   9.68410300E-02   9.99117575E-02   1.00022721E-01   2.51549654E+03   9.98905211E-02   1.00054051E-01   9.98388640E-02   0.00000000E+00   0.00000000E+00
