 TITLE = "Mineral Area" 
VARIABLES = "X"          "Y"              "Z"            "Forsterite"     "Fayalite"       "Brucite"        "Lizardite"      "Chrysotile"     "Hematite"       "Magnetite(am)"  "Saponite(Ca)"   "Saponite(K)"    "Saponite(Mg)"   "Saponite(Na)"   "Beidellite(Ca)" "Beidellite(K)"  "Beidellite(Mg)" "Beidellite(Na)" "Enstatite(alph" "Ferrosilite(al" "Anorthite"      "Albite(low)"    "Clinochlore"    "Sudoite"        "Montmor(MgCa)"  "Montmor(MgK)"   "Montmor(MgMg)"  "Montmor(MgNa)"  "Kaolinite"      "Tremolite"      "Pargasite"      "Anhydrite"      "Epidote"        "Scolecite"      "Pyrite"         "FeS(am)"        "Quartz(alpha)" 
 ZONE I=         200 , J=           1 , K=           1  F=POINT
   8.75000000E+00   5.00000000E-01   5.00000000E-01   1.30823703E+05   4.78881437E+04   0.00000000E+00   0.00000000E+00   0.00000000E+00   6.72286021E+03   0.00000000E+00   3.71440457E-02   1.72330984E+05   5.23643966E-02   1.93285592E+04   3.64618064E-02   3.81004150E-02   3.73111835E-02   3.70035739E-02   2.00600045E+04   1.76155701E+04   1.15076572E+05   2.95258008E+04   4.44039701E+05   3.48847389E-03   8.06411715E-03   8.26036286E-03   8.24873196E-03   8.18390715E-03   3.42519459E+04   4.48241208E+04   4.58897026E+04   0.00000000E+00   2.79806942E+03   1.91031835E-05   6.89726515E-05   6.79107615E-05   2.35938018E-05
   2.62500000E+01   5.00000000E-01   5.00000000E-01   1.30823703E+05   4.78899337E+04   0.00000000E+00   0.00000000E+00   0.00000000E+00   6.72286017E+03   0.00000000E+00   3.72051772E-02   5.89810697E+05   5.61424512E-02   7.53562420E+04   3.64618229E-02   3.81004384E-02   3.73112599E-02   3.70037735E-02   2.00600033E+04   1.76156024E+04   1.15076572E+05   2.96049074E+04   4.33902239E+05   2.77189152E-03   8.06417466E-03   8.26175821E-03   8.24897935E-03   8.18489563E-03   3.42519536E+04   4.48462975E+04   4.58897026E+04   0.00000000E+00   2.79806942E+03   1.91032007E-05   6.89726515E-05   6.79108124E-05   2.36088464E-05
   4.37500000E+01   5.00000000E-01   5.00000000E-01   1.30823703E+05   4.78914170E+04   0.00000000E+00   0.00000000E+00   0.00000000E+00   6.72286016E+03   0.00000000E+00   3.72304941E-02   6.88684810E+05   5.77301425E-02   1.00741152E+05   3.64619882E-02   3.81006622E-02   3.73120269E-02   3.70057261E-02   2.00600026E+04   1.76156272E+04   1.15076572E+05   2.98264060E+04   4.21397734E+05   1.86159598E-03   8.06453812E-03   8.27010162E-03   8.25054131E-03   8.19095481E-03   3.42519944E+04   4.48566950E+04   4.58897026E+04   0.00000000E+00   2.79806942E+03   1.91032842E-05   6.89726515E-05   6.79108352E-05   2.36212281E-05
   6.12500000E+01   5.00000000E-01   5.00000000E-01   1.30823703E+05   4.78930433E+04   0.00000000E+00   0.00000000E+00   0.00000000E+00   6.72286016E+03   0.00000000E+00   3.72555335E-02   8.37700844E+05   5.93930921E-02   1.41078509E+05   3.64624238E-02   3.81012171E-02   3.73140452E-02   3.70107058E-02   2.00600025E+04   1.76156527E+04   1.15076572E+05   3.01253754E+04   4.04236224E+05   1.06257297E-03   8.06531399E-03   8.28676554E-03   8.25387234E-03   8.20342660E-03   3.42520642E+04   4.48649862E+04   4.58897026E+04   0.00000000E+00   2.79806942E+03   1.91034272E-05   6.89726515E-05   6.79108536E-05   2.36307367E-05
   7.87500000E+01   5.00000000E-01   5.00000000E-01   1.30823703E+05   4.78949653E+04   0.00000000E+00   0.00000000E+00   0.00000000E+00   6.72286015E+03   0.00000000E+00   3.72882344E-02   1.01733670E+06   6.15834291E-02   1.98723430E+05   3.64630990E-02   3.81020200E-02   3.73171683E-02   3.70181428E-02   2.00600025E+04   1.76156788E+04   1.15076572E+05   3.04210757E+04   3.86606637E+05   6.09343748E-04   8.06635255E-03   8.30741337E-03   8.25832692E-03   8.21943656E-03   3.42521462E+04   4.48789197E+04   4.58897026E+04   0.00000000E+00   2.79806942E+03   1.91035950E-05   6.89726515E-05   6.79108695E-05   2.36374767E-05
   9.62500000E+01   5.00000000E-01   5.00000000E-01   1.30823703E+05   4.78972363E+04   0.00000000E+00   0.00000000E+00   0.00000000E+00   6.72286014E+03   0.00000000E+00   3.73258137E-02   1.16134014E+06   6.41469251E-02   2.64686788E+05   3.64638887E-02   3.81028873E-02   3.73208139E-02   3.70264783E-02   2.00600026E+04   1.76157054E+04   1.15076572E+05   3.06679792E+04   3.71728527E+05   4.05177502E-04   8.06744190E-03   8.32715750E-03   8.26299449E-03   8.23541834E-03   3.42522257E+04   4.48964106E+04   4.58897026E+04   0.00000000E+00   2.79806942E+03   1.91037586E-05   6.89726515E-05   6.79108831E-05   2.36419834E-05
   1.13750000E+02   5.00000000E-01   5.00000000E-01   1.30823703E+05   4.78998662E+04   0.00000000E+00   0.00000000E+00   0.00000000E+00   6.72286013E+03   0.00000000E+00   3.73645489E-02   1.24473035E+06   6.68573340E-02   3.31601645E+05   3.64646431E-02   3.81036371E-02   3.73242893E-02   3.70340332E-02   2.00600028E+04   1.76157324E+04   1.15076572E+05   3.08487588E+04   3.60876382E+05   3.15031958E-04   8.06841147E-03   8.34273473E-03   8.26714355E-03   8.24877227E-03   3.42522907E+04   4.49153112E+04   4.58897026E+04   0.00000000E+00   2.79806943E+03   1.91038968E-05   6.89726515E-05   6.79108947E-05   2.36448960E-05
   1.31250000E+02   5.00000000E-01   5.00000000E-01   1.30823703E+05   4.79028703E+04   0.00000000E+00   0.00000000E+00   0.00000000E+00   6.72286012E+03   0.00000000E+00   3.74028946E-02   1.27113489E+06   6.96165441E-02   3.95725117E+05   3.64652665E-02   3.81041769E-02   3.73271532E-02   3.70398502E-02   2.00600030E+04   1.76157599E+04   1.15076572E+05   3.09666020E+04   3.53895839E+05   2.73269540E-04   8.06918267E-03   8.35315816E-03   8.27043804E-03   8.25851094E-03   3.42523361E+04   4.49343421E+04   4.58897026E+04   0.00000000E+00   2.79806943E+03   1.91040007E-05   6.89726515E-05   6.79109047E-05   2.36467591E-05
   1.48750000E+02   5.00000000E-01   5.00000000E-01   1.30823703E+05   4.79062787E+04   0.00000000E+00   0.00000000E+00   0.00000000E+00   6.72286011E+03   0.00000000E+00   3.74408119E-02   1.25375174E+06   7.24254296E-02   4.55709173E+05   3.64657301E-02   3.81045003E-02   3.73292748E-02   3.70437486E-02   2.00600032E+04   1.76157881E+04   1.15076572E+05   3.10340324E+04   3.50017425E+05   2.52996161E-04   8.06975144E-03   8.35896539E-03   8.27286190E-03   8.26482532E-03   3.42523626E+04   4.49528443E+04   4.58897026E+04   0.00000000E+00   2.79806943E+03   1.91040711E-05   6.89726515E-05   6.79109131E-05   2.36479695E-05
   1.66250000E+02   5.00000000E-01   5.00000000E-01   1.30823703E+05   4.79101126E+04   0.00000000E+00   0.00000000E+00   0.00000000E+00   6.72286010E+03   0.00000000E+00   3.74785368E-02   1.20788720E+06   7.53033348E-02   5.11618306E+05   3.64660543E-02   3.81046527E-02   3.73307507E-02   3.70460612E-02   2.00600035E+04   1.76158171E+04   1.15076572E+05   3.10658996E+04   3.48311223E+05   2.42807996E-04   8.07015707E-03   8.36137669E-03   8.27458485E-03   8.26850763E-03   3.42523745E+04   4.49704500E+04   4.58897026E+04   0.00000000E+00   2.79806943E+03   1.91041150E-05   6.89726515E-05   6.79109198E-05   2.36487833E-05
   1.83750000E+02   5.00000000E-01   5.00000000E-01   1.30823703E+05   4.79143603E+04   0.00000000E+00   0.00000000E+00   0.00000000E+00   6.72286009E+03   0.00000000E+00   3.75159659E-02   1.14686910E+06   7.82408363E-02   5.64256284E+05   3.64662832E-02   3.81046961E-02   3.73317856E-02   3.70473241E-02   2.00600039E+04   1.76158466E+04   1.15076572E+05   3.10756220E+04   3.47933660E+05   2.37563678E-04   8.07045457E-03   8.36169313E-03   8.27584345E-03   8.27049735E-03   3.42523771E+04   4.49869321E+04   4.58897026E+04   0.00000000E+00   2.79806943E+03   1.91041414E-05   6.89726515E-05   6.79109247E-05   2.36493468E-05
   2.01250000E+02   5.00000000E-01   5.00000000E-01   1.30823703E+05   4.79190107E+04   0.00000000E+00   0.00000000E+00   0.00000000E+00   6.72286009E+03   0.00000000E+00   3.75533019E-02   1.07740695E+06   8.12489860E-02   6.13621300E+05   3.64664461E-02   3.81046702E-02   3.73325154E-02   3.70478866E-02   2.00600042E+04   1.76158765E+04   1.15076572E+05   3.10714813E+04   3.48390446E+05   2.34794264E-04   8.07067992E-03   8.36072782E-03   8.27679251E-03   8.27139527E-03   3.42523736E+04   4.50024347E+04   4.58897026E+04   0.00000000E+00   2.79806943E+03   1.91041560E-05   6.89726515E-05   6.79109280E-05   2.36497480E-05
   2.18750000E+02   5.00000000E-01   5.00000000E-01   1.30823703E+05   4.79240598E+04   0.00000000E+00   0.00000000E+00   0.00000000E+00   6.72286008E+03   0.00000000E+00   3.75909699E-02   1.00298856E+06   8.43561900E-02   6.59187353E+05   3.64665569E-02   3.81045953E-02   3.73330046E-02   3.70479241E-02   2.00600046E+04   1.76159067E+04   1.15076572E+05   3.10580395E+04   3.49418986E+05   2.33274121E-04   8.07085138E-03   8.35891042E-03   8.27751047E-03   8.27151615E-03   3.42523659E+04   4.50174555E+04   4.58897026E+04   0.00000000E+00   2.79806943E+03   1.91041615E-05   6.89726515E-05   6.79109296E-05   2.36500441E-05
   2.36250000E+02   5.00000000E-01   5.00000000E-01   1.30823703E+05   4.79294540E+04   0.00000000E+00   0.00000000E+00   0.00000000E+00   6.72286007E+03   0.00000000E+00   3.76286291E-02   9.27697263E+05   8.75286190E-02   7.01433065E+05   3.64666348E-02   3.81044937E-02   3.73333426E-02   3.70476478E-02   2.00600050E+04   1.76159369E+04   1.15076572E+05   3.10394153E+04   3.50757365E+05   2.32398092E-04   8.07099018E-03   8.35665029E-03   8.27808849E-03   8.27118543E-03   3.42523556E+04   4.50324691E+04   4.58897026E+04   0.00000000E+00   2.79806943E+03   1.91041614E-05   6.89726515E-05   6.79109297E-05   2.36502631E-05
   2.53750000E+02   5.00000000E-01   5.00000000E-01   1.30823703E+05   4.79351403E+04   0.00000000E+00   0.00000000E+00   0.00000000E+00   6.72286007E+03   0.00000000E+00   3.76658684E-02   8.52739873E+05   9.07258745E-02   7.39734711E+05   3.64666852E-02   3.81043729E-02   3.73335540E-02   3.70471258E-02   2.00600055E+04   1.76159670E+04   1.15076572E+05   3.10174179E+04   3.52309233E+05   2.31852233E-04   8.07110332E-03   8.35410249E-03   8.27855659E-03   8.27052191E-03   3.42523436E+04   4.50479054E+04   4.58897026E+04   0.00000000E+00   2.79806943E+03   1.91041568E-05   6.89726515E-05   6.79109284E-05   2.36504240E-05
   2.71250000E+02   5.00000000E-01   5.00000000E-01   1.30823703E+05   4.79410618E+04   0.00000000E+00   0.00000000E+00   0.00000000E+00   6.72286006E+03   0.00000000E+00   3.77021259E-02   7.79318193E+05   9.38958606E-02   7.73726984E+05   3.64667113E-02   3.81042381E-02   3.73336542E-02   3.70464030E-02   2.00600059E+04   1.76159968E+04   1.15076572E+05   3.09931206E+04   3.54011028E+05   2.31477248E-04   8.07119461E-03   8.35135894E-03   8.27893124E-03   8.26959568E-03   3.42523302E+04   4.50639386E+04   4.58897026E+04   0.00000000E+00   2.79806943E+03   1.91041484E-05   6.89726515E-05   6.79109258E-05   2.36505390E-05
   2.88750000E+02   5.00000000E-01   5.00000000E-01   1.30823703E+05   4.79471643E+04   0.00000000E+00   0.00000000E+00   0.00000000E+00   6.72286005E+03   0.00000000E+00   3.77367957E-02   7.08579313E+05   9.69841320E-02   8.03354329E+05   3.64667178E-02   3.81040947E-02   3.73336644E-02   3.70455316E-02   2.00600064E+04   1.76160261E+04   1.15076572E+05   3.09673293E+04   3.55808936E+05   2.31194132E-04   8.07126805E-03   8.34850096E-03   8.27922961E-03   8.26847311E-03   3.42523160E+04   4.50803995E+04   4.58897026E+04   0.00000000E+00   2.79806943E+03   1.91041370E-05   6.89726515E-05   6.79109221E-05   2.36506151E-05
   3.06250000E+02   5.00000000E-01   5.00000000E-01   1.30823703E+05   4.79534069E+04   0.00000000E+00   0.00000000E+00   0.00000000E+00   6.72286004E+03   0.00000000E+00   3.77694238E-02   6.41474808E+05   9.99506088E-02   8.28800685E+05   3.64667103E-02   3.81039481E-02   3.73336110E-02   3.70445701E-02   2.00600069E+04   1.76160549E+04   1.15076572E+05   3.09406733E+04   3.57657192E+05   2.30964501E-04   8.07132818E-03   8.34560443E-03   8.27947108E-03   8.26722097E-03   3.42523015E+04   4.50968478E+04   4.58897026E+04   0.00000000E+00   2.79806943E+03   1.91041235E-05   6.89726515E-05   6.79109175E-05   2.36506559E-05
   3.23750000E+02   5.00000000E-01   5.00000000E-01   1.30823703E+05   4.79597683E+04   0.00000000E+00   0.00000000E+00   0.00000000E+00   6.72286003E+03   0.00000000E+00   3.77998213E-02   5.78692632E+05   1.02779262E-01   8.50398249E+05   3.64666951E-02   3.81038034E-02   3.73335226E-02   3.70435757E-02   2.00600074E+04   1.76160831E+04   1.15076572E+05   3.09136383E+04   3.59518578E+05   2.30770156E-04   8.07137968E-03   8.34273595E-03   8.27967575E-03   8.26590232E-03   3.42522871E+04   4.51127469E+04   4.58897026E+04   0.00000000E+00   2.79806944E+03   1.91041090E-05   6.89726515E-05   6.79109121E-05   2.36506625E-05
   3.41250000E+02   5.00000000E-01   5.00000000E-01   1.30823704E+05   4.79662441E+04   0.00000000E+00   0.00000000E+00   0.00000000E+00   6.72286003E+03   0.00000000E+00   3.78280662E-02   5.20635949E+05   1.05478239E-01   8.68529863E+05   3.64666779E-02   3.81036646E-02   3.73334254E-02   3.70425967E-02   2.00600079E+04   1.76161109E+04   1.15076572E+05   3.08865856E+04   3.61365013E+05   2.30602220E-04   8.07142692E-03   8.33994824E-03   8.27986221E-03   8.26457098E-03   3.42522733E+04   4.51276240E+04   4.58897026E+04   0.00000000E+00   2.79806944E+03   1.91040943E-05   6.89726515E-05   6.79109060E-05   2.36506343E-05
   3.58750000E+02   5.00000000E-01   5.00000000E-01   1.30823704E+05   4.79728429E+04   0.00000000E+00   0.00000000E+00   0.00000000E+00   6.72286002E+03   0.00000000E+00   3.78544430E-02   4.67411371E+05   1.08074440E-01   8.83480633E+05   3.64666627E-02   3.81035340E-02   3.73333374E-02   3.70416644E-02   2.00600084E+04   1.76161381E+04   1.15076572E+05   3.08597290E+04   3.63180834E+05   2.30455588E-04   8.07147303E-03   8.33727270E-03   8.28004377E-03   8.26326270E-03   3.42522603E+04   4.51411710E+04   4.58897026E+04   0.00000000E+00   2.79806944E+03   1.91040799E-05   6.89726515E-05   6.79108993E-05   2.36505707E-05
   3.76250000E+02   5.00000000E-01   5.00000000E-01   1.30823704E+05   4.79795778E+04   0.00000000E+00   0.00000000E+00   0.00000000E+00   6.72286001E+03   0.00000000E+00   3.78793486E-02   4.18936575E+05   1.10605079E-01   8.95472312E+05   3.64666519E-02   3.81034125E-02   3.73332698E-02   3.70407951E-02   2.00600090E+04   1.76161648E+04   1.15076572E+05   3.08331860E+04   3.64958413E+05   2.30326778E-04   8.07151999E-03   8.33472407E-03   8.28022891E-03   8.26199811E-03   3.42522481E+04   4.51532546E+04   4.58897026E+04   0.00000000E+00   2.79806944E+03   1.91040663E-05   6.89726515E-05   6.79108922E-05   2.36504711E-05
   3.93750000E+02   5.00000000E-01   5.00000000E-01   1.30823704E+05   4.79864615E+04   0.00000000E+00   0.00000000E+00   0.00000000E+00   6.72286000E+03   0.00000000E+00   3.79032215E-02   3.74984133E+05   1.13111275E-01   9.04617040E+05   3.64666462E-02   3.81032999E-02   3.73332256E-02   3.70399908E-02   2.00600096E+04   1.76161910E+04   1.15076572E+05   3.08069878E+04   3.66697708E+05   2.30212869E-04   8.07156856E-03   8.33230205E-03   8.28042068E-03   8.26078293E-03   3.42522368E+04   4.51638932E+04   4.58897026E+04   0.00000000E+00   2.79806944E+03   1.91040536E-05   6.89726515E-05   6.79108847E-05   2.36503352E-05
   4.11250000E+02   5.00000000E-01   5.00000000E-01   1.30823704E+05   4.79935017E+04   0.00000000E+00   0.00000000E+00   0.00000000E+00   6.72285999E+03   0.00000000E+00   3.79264890E-02   3.35253185E+05   1.15633025E-01   9.10961816E+05   3.64666451E-02   3.81031952E-02   3.73332021E-02   3.70392440E-02   2.00600102E+04   1.76162167E+04   1.15076572E+05   3.07811131E+04   3.68403058E+05   2.30111271E-04   8.07161846E-03   8.32999655E-03   8.28061797E-03   8.25961236E-03   3.42522263E+04   4.51732179E+04   4.58897026E+04   0.00000000E+00   2.79806944E+03   1.91040418E-05   6.89726515E-05   6.79108768E-05   2.36501636E-05
   4.28750000E+02   5.00000000E-01   5.00000000E-01   1.30823705E+05   4.80006980E+04   0.00000000E+00   0.00000000E+00   0.00000000E+00   6.72285998E+03   0.00000000E+00   3.79495324E-02   2.99417025E+05   1.18205820E-01   9.14532991E+05   3.64666471E-02   3.81030970E-02   3.73331931E-02   3.70385419E-02   2.00600108E+04   1.76162419E+04   1.15076572E+05   3.07555227E+04   3.70080314E+05   2.30019735E-04   8.07166887E-03   8.32779317E-03   8.28081718E-03   8.25847611E-03   3.42522164E+04   4.51814336E+04   4.58897026E+04   0.00000000E+00   2.79806944E+03   1.91040306E-05   6.89726515E-05   6.79108688E-05   2.36499572E-05
   4.46250000E+02   5.00000000E-01   5.00000000E-01   1.30823705E+05   4.80080405E+04   0.00000000E+00   0.00000000E+00   0.00000000E+00   6.72285996E+03   0.00000000E+00   3.79726676E-02   2.67138245E+05   1.20858527E-01   9.15325440E+05   3.64666505E-02   3.81030039E-02   3.73331898E-02   3.70378687E-02   2.00600115E+04   1.76162666E+04   1.15076572E+05   3.07301662E+04   3.71736419E+05   2.29936292E-04   8.07171849E-03   8.32567513E-03   8.28101274E-03   8.25736024E-03   3.42522071E+04   4.51887956E+04   4.58897026E+04   0.00000000E+00   2.79806944E+03   1.91040200E-05   6.89726515E-05   6.79108605E-05   2.36497174E-05
   4.63750000E+02   5.00000000E-01   5.00000000E-01   1.30823705E+05   4.80155099E+04   0.00000000E+00   0.00000000E+00   0.00000000E+00   6.72285995E+03   0.00000000E+00   3.79961312E-02   2.38089340E+05   1.23611758E-01   9.13328870E+05   3.64666528E-02   3.81029144E-02   3.73331820E-02   3.70372076E-02   2.00600122E+04   1.76162907E+04   1.15076572E+05   3.07049951E+04   3.73378162E+05   2.29859273E-04   8.07176577E-03   8.32362569E-03   8.28119808E-03   8.25624967E-03   3.42521982E+04   4.51955901E+04   4.58897026E+04   0.00000000E+00   2.79806944E+03   1.91040097E-05   6.89726515E-05   6.79108522E-05   2.36494460E-05
   4.81250000E+02   5.00000000E-01   5.00000000E-01   1.30823706E+05   4.80230767E+04   0.00000000E+00   0.00000000E+00   0.00000000E+00   6.72285994E+03   0.00000000E+00   3.80200697E-02   2.11963774E+05   1.26476567E-01   9.08547746E+05   3.64666519E-02   3.81028273E-02   3.73331595E-02   3.70365429E-02   2.00600129E+04   1.76163143E+04   1.15076572E+05   3.06799736E+04   3.75011247E+05   2.29787326E-04   8.07180914E-03   8.32163002E-03   8.28136651E-03   8.25513029E-03   3.42521895E+04   4.52021168E+04   4.58897026E+04   0.00000000E+00   2.79806944E+03   1.91039993E-05   6.89726515E-05   6.79108438E-05   2.36491450E-05
   4.98750000E+02   5.00000000E-01   5.00000000E-01   1.30823706E+05   4.80308200E+04   0.00000000E+00   0.00000000E+00   0.00000000E+00   6.72285992E+03   0.00000000E+00   3.80449687E-02   1.88018313E+05   1.29502315E-01   8.98197297E+05   3.64666298E-02   3.81027338E-02   3.73330407E-02   3.70357551E-02   2.00600136E+04   1.76163375E+04   1.15076572E+05   3.06540725E+04   3.76732767E+05   2.29714592E-04   8.07183296E-03   8.31956688E-03   8.28145161E-03   8.25386111E-03   3.42521802E+04   4.52086758E+04   4.58897026E+04   0.00000000E+00   2.79806945E+03   1.91039869E-05   6.89726515E-05   6.79108354E-05   2.36488223E-05
   5.16250000E+02   5.00000000E-01   5.00000000E-01   1.30823706E+05   4.80386308E+04   0.00000000E+00   0.00000000E+00   0.00000000E+00   6.72285991E+03   0.00000000E+00   3.80706253E-02   1.66718574E+05   1.32666534E-01   8.85879654E+05   3.64665979E-02   3.81026401E-02   3.73328779E-02   3.70349272E-02   2.00600144E+04   1.76163602E+04   1.15076572E+05   3.06281594E+04   3.78446370E+05   2.29645002E-04   8.07184750E-03   8.31752473E-03   8.28149711E-03   8.25254386E-03   3.42521710E+04   4.52156406E+04   4.58897026E+04   0.00000000E+00   2.79806945E+03   1.91039738E-05   6.89726515E-05   6.79108271E-05   2.36484777E-05
   5.33750000E+02   5.00000000E-01   5.00000000E-01   1.30823707E+05   4.80464288E+04   0.00000000E+00   0.00000000E+00   0.00000000E+00   6.72285989E+03   0.00000000E+00   3.80967574E-02   1.47698739E+05   1.35932344E-01   8.71328392E+05   3.64665585E-02   3.81025475E-02   3.73326813E-02   3.70340758E-02   2.00600152E+04   1.76163821E+04   1.15076572E+05   3.06025097E+04   3.80146835E+05   2.29579067E-04   8.07185533E-03   8.31552462E-03   8.28151394E-03   8.25120475E-03   3.42521619E+04   4.52232316E+04   4.58897026E+04   0.00000000E+00   2.79806945E+03   1.91039602E-05   6.89726515E-05   6.79108188E-05   2.36481117E-05
   5.51250000E+02   5.00000000E-01   5.00000000E-01   1.30823707E+05   4.80541588E+04   0.00000000E+00   0.00000000E+00   0.00000000E+00   6.72285988E+03   0.00000000E+00   3.81230853E-02   1.30671728E+05   1.39263544E-01   8.54348282E+05   3.64665104E-02   3.81024554E-02   3.73324455E-02   3.70331955E-02   2.00600160E+04   1.76164032E+04   1.15076572E+05   3.05771518E+04   3.81839095E+05   2.29516308E-04   8.07185588E-03   8.31356300E-03   8.28149972E-03   8.24984115E-03   3.42521528E+04   4.52315939E+04   4.58897026E+04   0.00000000E+00   2.79806945E+03   1.91039462E-05   6.89726515E-05   6.79108105E-05   2.36477256E-05
   5.68750000E+02   5.00000000E-01   5.00000000E-01   1.30823708E+05   4.80617790E+04   0.00000000E+00   0.00000000E+00   0.00000000E+00   6.72285986E+03   0.00000000E+00   3.81493102E-02   1.15436063E+05   1.42622791E-01   8.35066050E+05   3.64664529E-02   3.81023638E-02   3.73321674E-02   3.70322838E-02   2.00600169E+04   1.76164235E+04   1.15076572E+05   3.05520952E+04   3.83523642E+05   2.29456449E-04   8.07184867E-03   8.31163743E-03   8.28145250E-03   8.24845158E-03   3.42521438E+04   4.52407715E+04   4.58897026E+04   0.00000000E+00   2.79806945E+03   1.91039316E-05   6.89726515E-05   6.79108024E-05   2.36473206E-05
   5.86250000E+02   5.00000000E-01   5.00000000E-01   1.30823709E+05   4.80692609E+04   0.00000000E+00   0.00000000E+00   0.00000000E+00   6.72285985E+03   0.00000000E+00   3.81751369E-02   1.01825910E+05   1.45974094E-01   8.13733931E+05   3.64663862E-02   3.81022729E-02   3.73318484E-02   3.70313449E-02   2.00600177E+04   1.76164429E+04   1.15076572E+05   3.05273671E+04   3.85197957E+05   2.29399476E-04   8.07183392E-03   8.30974997E-03   8.28137321E-03   8.24704018E-03   3.42521348E+04   4.52506919E+04   4.58897026E+04   0.00000000E+00   2.79806945E+03   1.91039164E-05   6.89726515E-05   6.79107944E-05   2.36468978E-05
   6.03750000E+02   5.00000000E-01   5.00000000E-01   1.30823709E+05   4.80765909E+04   0.00000000E+00   0.00000000E+00   0.00000000E+00   6.72285983E+03   0.00000000E+00   3.82003107E-02   8.96958862E+04   1.49287075E-01   7.90670164E+05   3.64663115E-02   3.81021833E-02   3.73314939E-02   3.70303877E-02   2.00600186E+04   1.76164614E+04   1.15076572E+05   3.05030136E+04   3.86857470E+05   2.29345532E-04   8.07181249E-03   8.30790647E-03   8.28126558E-03   8.24561619E-03   3.42521260E+04   4.52611782E+04   4.58897026E+04   0.00000000E+00   2.79806946E+03   1.91039009E-05   6.89726515E-05   6.79107866E-05   2.36464584E-05
   6.21250000E+02   5.00000000E-01   5.00000000E-01   1.30823710E+05   4.80837689E+04   0.00000000E+00   0.00000000E+00   0.00000000E+00   6.72285981E+03   0.00000000E+00   3.82246482E-02   7.89135457E+04   1.52540367E-01   7.66222896E+05   3.64662308E-02   3.81020958E-02   3.73311125E-02   3.70294247E-02   2.00600196E+04   1.76164791E+04   1.15076572E+05   3.04790932E+04   3.88496428E+05   2.29294815E-04   8.07178577E-03   8.30611497E-03   8.28113552E-03   8.24419225E-03   3.42521173E+04   4.52719834E+04   4.58897026E+04   1.72865589E-22   2.79806946E+03   1.91038852E-05   6.89726515E-05   6.79107789E-05   2.36460034E-05
   6.38750000E+02   5.00000000E-01   5.00000000E-01   1.30823711E+05   4.80908041E+04   0.00000000E+00   0.00000000E+00   0.00000000E+00   6.72285979E+03   0.00000000E+00   3.82480510E-02   6.93546180E+04   1.55722997E-01   7.40735978E+05   3.64661460E-02   3.81020111E-02   3.73307136E-02   3.70284687E-02   2.00600205E+04   1.76164960E+04   1.15076572E+05   3.04556698E+04   3.90108762E+05   2.29247497E-04   8.07175548E-03   8.30438411E-03   8.28099030E-03   8.24278247E-03   3.42521089E+04   4.52828343E+04   4.58897026E+04   3.68436205E-22   2.79806946E+03   1.91038695E-05   6.89726515E-05   6.79107714E-05   2.36455335E-05
   6.56250000E+02   5.00000000E-01   5.00000000E-01   1.30823712E+05   4.80977105E+04   0.00000000E+00   0.00000000E+00   0.00000000E+00   6.72285977E+03   0.00000000E+00   3.82705026E-02   6.09005373E+04   1.58833617E-01   7.14519953E+05   3.64660594E-02   3.81019298E-02   3.73303071E-02   3.70275322E-02   2.00600215E+04   1.76165121E+04   1.15076572E+05   3.04328063E+04   3.91688832E+05   2.29203666E-04   8.07172342E-03   8.30272174E-03   8.28083755E-03   8.24140062E-03   3.42521007E+04   4.52934725E+04   4.58897026E+04   7.87449368E-22   2.79806946E+03   1.91038540E-05   6.89726515E-05   6.79107641E-05   2.36450497E-05
   6.73750000E+02   5.00000000E-01   5.00000000E-01   1.30823713E+05   4.81045002E+04   0.00000000E+00   0.00000000E+00   0.00000000E+00   6.72285975E+03   0.00000000E+00   3.82920521E-02   5.34381193E+04   1.61878121E-01   6.87837108E+05   3.64659728E-02   3.81018526E-02   3.73299014E-02   3.70266250E-02   2.00600225E+04   1.76165274E+04   1.15076572E+05   3.04105593E+04   3.93231851E+05   2.29163310E-04   8.07169130E-03   8.30113400E-03   8.28068457E-03   8.24005880E-03   3.42520930E+04   4.53036850E+04   4.58897026E+04   1.68784146E-21   2.79806946E+03   1.91038390E-05   6.89726515E-05   6.79107570E-05   2.36445528E-05
   6.91250000E+02   5.00000000E-01   5.00000000E-01   1.30823714E+05   4.81111794E+04   0.00000000E+00   0.00000000E+00   0.00000000E+00   6.72285973E+03   0.00000000E+00   3.83127916E-02   4.68599505E+04   1.64866599E-01   6.60888545E+05   3.64658878E-02   3.81017796E-02   3.73295034E-02   3.70257543E-02   2.00600235E+04   1.76165420E+04   1.15076572E+05   3.03889757E+04   3.94734268E+05   2.29126319E-04   8.07166065E-03   8.29962478E-03   8.28053767E-03   8.23876647E-03   3.42520856E+04   4.53133199E+04   4.58897026E+04   3.62854245E-21   2.79806947E+03   1.91038247E-05   6.89726515E-05   6.79107502E-05   2.36440433E-05
   7.08750000E+02   5.00000000E-01   5.00000000E-01   1.30823715E+05   4.81177450E+04   0.00000000E+00   0.00000000E+00   0.00000000E+00   6.72285971E+03   0.00000000E+00   3.83328326E-02   4.10661363E+04   1.67810153E-01   6.33827276E+05   3.64658054E-02   3.81017110E-02   3.73291177E-02   3.70249242E-02   2.00600246E+04   1.76165558E+04   1.15076572E+05   3.03680921E+04   3.96193562E+05   2.29092510E-04   8.07163266E-03   8.29819583E-03   8.28040200E-03   8.23753040E-03   3.42520787E+04   4.53222903E+04   4.58897026E+04   1.38743433E-06   2.79806947E+03   1.91038111E-05   6.89726515E-05   6.79107435E-05   2.36435222E-05
   7.26250000E+02   5.00000000E-01   5.00000000E-01   1.30823716E+05   4.81241824E+04   0.00000000E+00   0.00000000E+00   0.00000000E+00   6.72285968E+03   0.00000000E+00   3.83522846E-02   3.59651940E+04   1.70718039E-01   6.06766932E+05   3.64657263E-02   3.81016466E-02   3.73287474E-02   3.70241366E-02   2.00600257E+04   1.76165689E+04   1.15076572E+05   3.03479359E+04   3.97608076E+05   2.29061656E-04   8.07160831E-03   8.29684704E-03   8.28028157E-03   8.23635492E-03   3.42520721E+04   4.53305700E+04   4.58897026E+04   5.81603431E-06   2.79806947E+03   1.91037982E-05   6.89726515E-05   6.79107371E-05   2.36429902E-05
   7.43750000E+02   5.00000000E-01   5.00000000E-01   1.30823717E+05   4.81304650E+04   0.00000000E+00   0.00000000E+00   0.00000000E+00   6.72285966E+03   0.00000000E+00   3.83712375E-02   3.14745071E+04   1.73595316E-01   5.79791335E+05   3.64656509E-02   3.81015864E-02   3.73283940E-02   3.70233916E-02   2.00600268E+04   1.76165812E+04   1.15076572E+05   3.03285266E+04   3.98976818E+05   2.29033511E-04   8.07158832E-03   8.29557691E-03   8.28017938E-03   8.23524234E-03   3.42520659E+04   4.53381846E+04   4.58897026E+04   1.42836962E-05   2.79806947E+03   1.91037863E-05   6.89726515E-05   6.79107309E-05   2.36424479E-05
   7.61250000E+02   5.00000000E-01   5.00000000E-01   1.30823719E+05   4.81365554E+04   0.00000000E+00   0.00000000E+00   0.00000000E+00   6.72285963E+03   0.00000000E+00   3.83897475E-02   2.75203709E+04   1.76441036E-01   5.52964362E+05   3.64655792E-02   3.81015302E-02   3.73280580E-02   3.70226879E-02   2.00600279E+04   1.76165926E+04   1.15076572E+05   3.03098775E+04   4.00299260E+05   2.29007832E-04   8.07157321E-03   8.29438296E-03   8.28009762E-03   8.23419342E-03   3.42520601E+04   4.53452012E+04   4.58897026E+04   2.93949226E-05   2.79806948E+03   1.91037751E-05   6.89726515E-05   6.79107249E-05   2.36418961E-05
   7.78750000E+02   5.00000000E-01   5.00000000E-01   1.30823721E+05   4.81424069E+04   0.00000000E+00   0.00000000E+00   0.00000000E+00   6.72285960E+03   0.00000000E+00   3.84078275E-02   2.40377073E+04   1.79246972E-01   5.26339228E+05   3.64655113E-02   3.81014776E-02   3.73277395E-02   3.70220238E-02   2.00600291E+04   1.76166032E+04   1.15076572E+05   3.02919967E+04   4.01575141E+05   2.28984388E-04   8.07156338E-03   8.29326212E-03   8.28003791E-03   8.23320789E-03   3.42520547E+04   4.53517154E+04   4.58897026E+04   5.52177136E-05   2.79806948E+03   1.91037649E-05   6.89726515E-05   6.79107191E-05   2.36413355E-05
   7.96250000E+02   5.00000000E-01   5.00000000E-01   1.30823722E+05   4.81479656E+04   0.00000000E+00   0.00000000E+00   0.00000000E+00   6.72285957E+03   0.00000000E+00   3.84254398E-02   2.09695575E+04   1.81996940E-01   4.99967149E+05   3.64654471E-02   3.81014285E-02   3.73274379E-02   3.70213972E-02   2.00600303E+04   1.76166128E+04   1.15076572E+05   3.02748893E+04   4.02804286E+05   2.28962972E-04   8.07155914E-03   8.29221109E-03   8.28000152E-03   8.23228494E-03   3.42520495E+04   4.53578378E+04   4.58897026E+04   9.80661928E-05   2.79806948E+03   1.91037555E-05   6.89726515E-05   6.79107135E-05   2.36407667E-05