 TITLE = "Mineral Area" 
VARIABLES = "X"          "Y"              "Z"            "Forsterite"     "Fayalite"       "Brucite"        "Lizardite"      "Chrysotile"     "Hematite"       "Magnetite(am)"  "Saponite(Ca)"   "Saponite(K)"    "Saponite(Mg)"   "Saponite(Na)"   "Beidellite(Ca)" "Beidellite(K)"  "Beidellite(Mg)" "Beidellite(Na)" "Enstatite(alph" "Ferrosilite(al" "Anorthite"      "Albite(low)"    "Clinochlore"    "Sudoite"        "Montmor(MgCa)"  "Montmor(MgK)"   "Montmor(MgMg)"  "Montmor(MgNa)"  "Kaolinite"      "Tremolite"      "Pargasite"      "Anhydrite"      "Epidote"        "Scolecite"      "Pyrite"         "FeS(am)"        "Quartz(alpha)" 
 ZONE I=         200 , J=           1 , K=           1  F=POINT
   8.75000000E+00   5.00000000E-01   5.00000000E-01   1.30878724E+05   4.78958319E+04   0.00000000E+00   0.00000000E+00   0.00000000E+00   6.61677197E+03   0.00000000E+00   3.71437274E-02   1.58649853E+05   5.23362817E-02   1.81618605E+04   3.64761820E-02   3.81019432E-02   3.73257863E-02   3.70182028E-02   2.00600243E+04   1.76155858E+04   1.15239605E+05   2.95354631E+04   4.36687852E+05   3.60441670E-03   8.06481562E-03   8.26108890E-03   8.24944091E-03   8.18461652E-03   3.42528661E+04   4.48913991E+04   4.59605727E+04   0.00000000E+00   2.80877008E+03   1.91624565E-05   6.90699997E-05   6.79809654E-05   2.35934025E-05
   2.62500000E+01   5.00000000E-01   5.00000000E-01   1.30878724E+05   4.78976212E+04   0.00000000E+00   0.00000000E+00   0.00000000E+00   6.61677193E+03   0.00000000E+00   3.72051316E-02   5.70424195E+05   5.61310617E-02   7.34603108E+04   3.64761969E-02   3.81019644E-02   3.73258556E-02   3.70183839E-02   2.00600231E+04   1.76156180E+04   1.15239605E+05   2.96114892E+04   4.26786903E+05   2.86399621E-03   8.06486948E-03   8.26239581E-03   8.24967262E-03   8.18554234E-03   3.42528731E+04   4.49136095E+04   4.59605727E+04   0.00000000E+00   2.80877008E+03   1.91624725E-05   6.90699997E-05   6.79810160E-05   2.36082344E-05
   4.37500000E+01   5.00000000E-01   5.00000000E-01   1.30878723E+05   4.78991013E+04   0.00000000E+00   0.00000000E+00   0.00000000E+00   6.61677193E+03   0.00000000E+00   3.72304625E-02   6.68713966E+05   5.77194387E-02   9.84608888E+04   3.64763516E-02   3.81021737E-02   3.73265734E-02   3.70202114E-02   2.00600225E+04   1.76156426E+04   1.15239605E+05   2.98269065E+04   4.14593775E+05   1.92334571E-03   8.06521745E-03   8.27038474E-03   8.25116799E-03   8.19134363E-03   3.42529114E+04   4.49240226E+04   4.59605727E+04   0.00000000E+00   2.80877008E+03   1.91625522E-05   6.90699997E-05   6.79810384E-05   2.36204447E-05
   6.12500000E+01   5.00000000E-01   5.00000000E-01   1.30878723E+05   4.79007227E+04   0.00000000E+00   0.00000000E+00   0.00000000E+00   6.61677192E+03   0.00000000E+00   3.72554948E-02   8.13771459E+05   5.93815805E-02   1.37867377E+05   3.64767644E-02   3.81026994E-02   3.73284857E-02   3.70249302E-02   2.00600223E+04   1.76156679E+04   1.15239605E+05   3.01191556E+04   3.97826296E+05   1.09769860E-03   8.06596696E-03   8.28648608E-03   8.25438572E-03   8.20339272E-03   3.42529776E+04   4.49323261E+04   4.59605727E+04   0.00000000E+00   2.80877008E+03   1.91626900E-05   6.90699997E-05   6.79810566E-05   2.36298381E-05
   7.87500000E+01   5.00000000E-01   5.00000000E-01   1.30878723E+05   4.79026390E+04   0.00000000E+00   0.00000000E+00   0.00000000E+00   6.61677191E+03   0.00000000E+00   3.72881926E-02   9.89314280E+05   6.15712826E-02   1.94272625E+05   3.64774072E-02   3.81034637E-02   3.73314590E-02   3.70320122E-02   2.00600223E+04   1.76156939E+04   1.15239605E+05   3.04090126E+04   3.80553507E+05   6.29393238E-04   8.06697436E-03   8.30652063E-03   8.25870640E-03   8.21892402E-03   3.42530555E+04   4.49462806E+04   4.59605727E+04   0.00000000E+00   2.80877008E+03   1.91628522E-05   6.90699997E-05   6.79810722E-05   2.36365122E-05
   9.62500000E+01   5.00000000E-01   5.00000000E-01   1.30878723E+05   4.79049032E+04   0.00000000E+00   0.00000000E+00   0.00000000E+00   6.61677190E+03   0.00000000E+00   3.73257707E-02   1.13075952E+06   6.41341919E-02   2.58904968E+05   3.64781623E-02   3.81042933E-02   3.73349450E-02   3.70399855E-02   2.00600224E+04   1.76157203E+04   1.15239605E+05   3.06517509E+04   3.65930964E+05   4.18444522E-04   8.06803485E-03   8.32575393E-03   8.26325003E-03   8.23448633E-03   3.42531314E+04   4.49637977E+04   4.59605727E+04   0.00000000E+00   2.80877008E+03   1.91630109E-05   6.90699997E-05   6.79810856E-05   2.36409865E-05
   1.13750000E+02   5.00000000E-01   5.00000000E-01   1.30878723E+05   4.79075248E+04   0.00000000E+00   0.00000000E+00   0.00000000E+00   6.61677189E+03   0.00000000E+00   3.73645033E-02   1.21318425E+06   6.68438755E-02   3.24489825E+05   3.64788867E-02   3.81050139E-02   3.73382817E-02   3.70472436E-02   2.00600226E+04   1.76157471E+04   1.15239605E+05   3.08300500E+04   3.55230839E+05   3.25306613E-04   8.06898181E-03   8.34098910E-03   8.26730201E-03   8.24753654E-03   3.42531936E+04   4.49827268E+04   4.59605727E+04   0.00000000E+00   2.80877008E+03   1.91631453E-05   6.90699997E-05   6.79810970E-05   2.36438861E-05
   1.31250000E+02   5.00000000E-01   5.00000000E-01   1.30878723E+05   4.79105190E+04   0.00000000E+00   0.00000000E+00   0.00000000E+00   6.61677188E+03   0.00000000E+00   3.74028442E-02   1.23976968E+06   6.96021432E-02   3.87296754E+05   3.64794870E-02   3.81055347E-02   3.73410393E-02   3.70528512E-02   2.00600228E+04   1.76157743E+04   1.15239605E+05   3.09466732E+04   3.48325273E+05   2.82159344E-04   8.06973680E-03   8.35122315E-03   8.27052699E-03   8.25708225E-03   3.42532372E+04   4.50017862E+04   4.59605727E+04   0.00000000E+00   2.80877008E+03   1.91632465E-05   6.90699997E-05   6.79811068E-05   2.36457460E-05
   1.48750000E+02   5.00000000E-01   5.00000000E-01   1.30878723E+05   4.79139158E+04   0.00000000E+00   0.00000000E+00   0.00000000E+00   6.61677188E+03   0.00000000E+00   3.74407542E-02   1.22328706E+06   7.24098350E-02   4.45961489E+05   3.64799338E-02   3.81058477E-02   3.73430844E-02   3.70566162E-02   2.00600231E+04   1.76158024E+04   1.15239605E+05   3.10136884E+04   3.44472952E+05   2.61216157E-04   8.07029427E-03   8.35694915E-03   8.27290249E-03   8.26328539E-03   3.42532628E+04   4.50203162E+04   4.59605727E+04   0.00000000E+00   2.80877008E+03   1.91633153E-05   6.90699997E-05   6.79811151E-05   2.36469577E-05
   1.66250000E+02   5.00000000E-01   5.00000000E-01   1.30878724E+05   4.79177363E+04   0.00000000E+00   0.00000000E+00   0.00000000E+00   6.61677187E+03   0.00000000E+00   3.74784698E-02   1.17872613E+06   7.52862940E-02   5.00531511E+05   3.64802460E-02   3.81059954E-02   3.73445054E-02   3.70588487E-02   2.00600234E+04   1.76158311E+04   1.15239605E+05   3.10455976E+04   3.42765394E+05   2.50694594E-04   8.07069177E-03   8.35934470E-03   8.27459075E-03   8.26690793E-03   3.42532743E+04   4.50379483E+04   4.59605727E+04   0.00000000E+00   2.80877008E+03   1.91633582E-05   6.90699997E-05   6.79811217E-05   2.36477746E-05
   1.83750000E+02   5.00000000E-01   5.00000000E-01   1.30878724E+05   4.79219687E+04   0.00000000E+00   0.00000000E+00   0.00000000E+00   6.61677186E+03   0.00000000E+00   3.75158879E-02   1.11920639E+06   7.82221252E-02   5.51802573E+05   3.64804656E-02   3.81060375E-02   3.73454980E-02   3.70600623E-02   2.00600237E+04   1.76158605E+04   1.15239605E+05   3.10555901E+04   3.42373091E+05   2.45281823E-04   8.07098287E-03   8.35967937E-03   8.27582216E-03   8.26886587E-03   3.42532768E+04   4.50544551E+04   4.59605727E+04   0.00000000E+00   2.80877008E+03   1.91633839E-05   6.90699997E-05   6.79811265E-05   2.36483417E-05
   2.01250000E+02   5.00000000E-01   5.00000000E-01   1.30878724E+05   4.79266021E+04   0.00000000E+00   0.00000000E+00   0.00000000E+00   6.61677185E+03   0.00000000E+00   3.75532115E-02   1.05134578E+06   8.12283840E-02   5.99778863E+05   3.64806208E-02   3.81060121E-02   3.73461930E-02   3.70605939E-02   2.00600240E+04   1.76158901E+04   1.15239605E+05   3.10518328E+04   3.42808524E+05   2.42426664E-04   8.07120279E-03   8.35874992E-03   8.27674819E-03   8.26974756E-03   3.42532734E+04   4.50699810E+04   4.59605727E+04   0.00000000E+00   2.80877009E+03   1.91633979E-05   6.90699997E-05   6.79811297E-05   2.36487466E-05
   2.18750000E+02   5.00000000E-01   5.00000000E-01   1.30878724E+05   4.79316323E+04   0.00000000E+00   0.00000000E+00   0.00000000E+00   6.61677185E+03   0.00000000E+00   3.75908660E-02   9.78585457E+05   8.43334560E-02   6.43946568E+05   3.64807250E-02   3.81059389E-02   3.73466527E-02   3.70606129E-02   2.00600244E+04   1.76159201E+04   1.15239605E+05   3.10388347E+04   3.43812131E+05   2.40862780E-04   8.07136943E-03   8.35697848E-03   8.27744580E-03   8.26986206E-03   3.42532658E+04   4.50850243E+04   4.59605727E+04   0.00000000E+00   2.80877009E+03   1.91634031E-05   6.90699997E-05   6.79811313E-05   2.36490462E-05
   2.36250000E+02   5.00000000E-01   5.00000000E-01   1.30878724E+05   4.79370057E+04   0.00000000E+00   0.00000000E+00   0.00000000E+00   6.61677184E+03   0.00000000E+00   3.76285105E-02   9.04957283E+05   8.75035283E-02   6.84788854E+05   3.64807968E-02   3.81058395E-02   3.73469635E-02   3.70603243E-02   2.00600248E+04   1.76159502E+04   1.15239605E+05   3.10206746E+04   3.45124578E+05   2.39964451E-04   8.07150369E-03   8.35476812E-03   8.27800464E-03   8.26952966E-03   3.42532559E+04   4.51000605E+04   4.59605727E+04   0.00000000E+00   2.80877009E+03   1.91634027E-05   6.90699997E-05   6.79811314E-05   2.36492686E-05
   2.53750000E+02   5.00000000E-01   5.00000000E-01   1.30878724E+05   4.79426694E+04   0.00000000E+00   0.00000000E+00   0.00000000E+00   6.61677183E+03   0.00000000E+00   3.76657340E-02   8.31653971E+05   9.06981999E-02   7.21701177E+05   3.64808415E-02   3.81057213E-02   3.73471498E-02   3.70597947E-02   2.00600253E+04   1.76159800E+04   1.15239605E+05   3.09991518E+04   3.46649931E+05   2.39407295E-04   8.07161249E-03   8.35227236E-03   8.27845448E-03   8.26886799E-03   3.42532442E+04   4.51155199E+04   4.59605727E+04   0.00000000E+00   2.80877009E+03   1.91633978E-05   6.90699997E-05   6.79811301E-05   2.36494328E-05
   2.71250000E+02   5.00000000E-01   5.00000000E-01   1.30878724E+05   4.79485663E+04   0.00000000E+00   0.00000000E+00   0.00000000E+00   6.61677183E+03   0.00000000E+00   3.77019746E-02   7.59858724E+05   9.38653778E-02   7.54333226E+05   3.64808624E-02   3.81055894E-02   3.73472265E-02   3.70590682E-02   2.00600257E+04   1.76160095E+04   1.15239605E+05   3.09753348E+04   3.48324907E+05   2.39026685E-04   8.07169962E-03   8.34958232E-03   8.27881163E-03   8.26794653E-03   3.42532311E+04   4.51315772E+04   4.59605727E+04   0.00000000E+00   2.80877009E+03   1.91633892E-05   6.90699997E-05   6.79811275E-05   2.36495509E-05
   2.88750000E+02   5.00000000E-01   5.00000000E-01   1.30878724E+05   4.79546422E+04   0.00000000E+00   0.00000000E+00   0.00000000E+00   6.61677182E+03   0.00000000E+00   3.77366265E-02   6.90700450E+05   9.69506296E-02   7.82641517E+05   3.64808638E-02   3.81054491E-02   3.73472144E-02   3.70581961E-02   2.00600262E+04   1.76160386E+04   1.15239605E+05   3.09500248E+04   3.50096002E+05   2.38740882E-04   8.07176903E-03   8.34677846E-03   8.27909311E-03   8.26683093E-03   3.42532173E+04   4.51480628E+04   4.59605727E+04   0.00000000E+00   2.80877009E+03   1.91633776E-05   6.90699997E-05   6.79811239E-05   2.36496301E-05
   3.06250000E+02   5.00000000E-01   5.00000000E-01   1.30878724E+05   4.79608563E+04   0.00000000E+00   0.00000000E+00   0.00000000E+00   6.61677181E+03   0.00000000E+00   3.77692358E-02   6.25115199E+05   9.99138939E-02   8.06819994E+05   3.64808514E-02   3.81053056E-02   3.73471394E-02   3.70572356E-02   2.00600267E+04   1.76160672E+04   1.15239605E+05   3.09238466E+04   3.51917740E+05   2.38510093E-04   8.07182521E-03   8.34393577E-03   8.27931805E-03   8.26558717E-03   3.42532031E+04   4.51645358E+04   4.59605727E+04   0.00000000E+00   2.80877009E+03   1.91633640E-05   6.90699997E-05   6.79811194E-05   2.36496741E-05
   3.23750000E+02   5.00000000E-01   5.00000000E-01   1.30878724E+05   4.79671872E+04   0.00000000E+00   0.00000000E+00   0.00000000E+00   6.61677180E+03   0.00000000E+00   3.77996135E-02   5.63778621E+05   1.02739160E-01   8.27209287E+05   3.64808313E-02   3.81051640E-02   3.73470294E-02   3.70562426E-02   2.00600272E+04   1.76160952E+04   1.15239605E+05   3.08972820E+04   3.53753142E+05   2.38315395E-04   8.07187278E-03   8.34112011E-03   8.27950631E-03   8.26427756E-03   3.42531891E+04   4.51804587E+04   4.59605727E+04   0.00000000E+00   2.80877009E+03   1.91633493E-05   6.90699997E-05   6.79811140E-05   2.36496838E-05
   3.41250000E+02   5.00000000E-01   5.00000000E-01   1.30878724E+05   4.79736307E+04   0.00000000E+00   0.00000000E+00   0.00000000E+00   6.61677180E+03   0.00000000E+00   3.78278379E-02   5.07084962E+05   1.05434592E-01   8.44199524E+05   3.64808091E-02   3.81050281E-02   3.73469100E-02   3.70552645E-02   2.00600277E+04   1.76161227E+04   1.15239605E+05   3.08706898E+04   3.55574271E+05   2.38147534E-04   8.07191607E-03   8.33838363E-03   8.27967629E-03   8.26295533E-03   3.42531756E+04   4.51953581E+04   4.59605727E+04   0.00000000E+00   2.80877009E+03   1.91633344E-05   6.90699997E-05   6.79811080E-05   2.36496590E-05
   3.58750000E+02   5.00000000E-01   5.00000000E-01   1.30878725E+05   4.79801954E+04   0.00000000E+00   0.00000000E+00   0.00000000E+00   6.61677179E+03   0.00000000E+00   3.78541937E-02   4.55135578E+05   1.08027093E-01   8.58083149E+05   3.64807887E-02   3.81049003E-02   3.73467991E-02   3.70543321E-02   2.00600282E+04   1.76161497E+04   1.15239605E+05   3.08442834E+04   3.57365463E+05   2.38001209E-04   8.07195819E-03   8.33575756E-03   8.27984119E-03   8.26165596E-03   3.42531629E+04   4.52089255E+04   4.59605727E+04   0.00000000E+00   2.80877009E+03   1.91633199E-05   6.90699997E-05   6.79811014E-05   2.36495990E-05
   3.76250000E+02   5.00000000E-01   5.00000000E-01   1.30878725E+05   4.79868946E+04   0.00000000E+00   0.00000000E+00   0.00000000E+00   6.61677178E+03   0.00000000E+00   3.78790777E-02   4.07845429E+05   1.10553873E-01   8.69087996E+05   3.64807724E-02   3.81047814E-02   3.73467076E-02   3.70534614E-02   2.00600288E+04   1.76161761E+04   1.15239605E+05   3.08181808E+04   3.59119007E+05   2.37872844E-04   8.07200112E-03   8.33325671E-03   8.28000950E-03   8.26040010E-03   3.42531510E+04   4.52210272E+04   4.59605727E+04   0.00000000E+00   2.80877009E+03   1.91633061E-05   6.90699997E-05   6.79810943E-05   2.36495032E-05
   3.93750000E+02   5.00000000E-01   5.00000000E-01   1.30878725E+05   4.79937408E+04   0.00000000E+00   0.00000000E+00   0.00000000E+00   6.61677177E+03   0.00000000E+00   3.79029284E-02   3.64986806E+05   1.13056038E-01   8.77331559E+05   3.64807611E-02   3.81046712E-02   3.73466386E-02   3.70526548E-02   2.00600294E+04   1.76162021E+04   1.15239605E+05   3.07924152E+04   3.60834701E+05   2.37759471E-04   8.07204562E-03   8.33088105E-03   8.28018436E-03   8.25919370E-03   3.42531400E+04   4.52316818E+04   4.59605727E+04   0.00000000E+00   2.80877009E+03   1.91632932E-05   6.90699997E-05   6.79810869E-05   2.36493714E-05
   4.11250000E+02   5.00000000E-01   5.00000000E-01   1.30878725E+05   4.80007419E+04   0.00000000E+00   0.00000000E+00   0.00000000E+00   6.61677176E+03   0.00000000E+00   3.79261733E-02   3.26260328E+05   1.15573558E-01   8.82864705E+05   3.64807542E-02   3.81045688E-02   3.73465898E-02   3.70519052E-02   2.00600300E+04   1.76162276E+04   1.15239605E+05   3.07669678E+04   3.62516696E+05   2.37658487E-04   8.07209148E-03   8.32862093E-03   8.28036484E-03   8.25803233E-03   3.42531297E+04   4.52410204E+04   4.59605727E+04   0.00000000E+00   2.80877010E+03   1.91632812E-05   6.90699997E-05   6.79810791E-05   2.36492040E-05
   4.28750000E+02   5.00000000E-01   5.00000000E-01   1.30878725E+05   4.80078974E+04   0.00000000E+00   0.00000000E+00   0.00000000E+00   6.61677175E+03   0.00000000E+00   3.79491935E-02   2.91342091E+05   1.18141895E-01   8.85715773E+05   3.64807504E-02   3.81044730E-02   3.73465553E-02   3.70512005E-02   2.00600306E+04   1.76162526E+04   1.15239605E+05   3.07418016E+04   3.64170665E+05   2.37567640E-04   8.07213790E-03   8.32646235E-03   8.28054751E-03   8.25690612E-03   3.42531201E+04   4.52492485E+04   4.59605727E+04   0.00000000E+00   2.80877010E+03   1.91632699E-05   6.90699997E-05   6.79810712E-05   2.36490021E-05
   4.46250000E+02   5.00000000E-01   5.00000000E-01   1.30878726E+05   4.80151976E+04   0.00000000E+00   0.00000000E+00   0.00000000E+00   6.61677173E+03   0.00000000E+00   3.79723048E-02   2.59898645E+05   1.20789877E-01   8.85880419E+05   3.64807480E-02   3.81043822E-02   3.73465267E-02   3.70505256E-02   2.00600313E+04   1.76162771E+04   1.15239605E+05   3.07168684E+04   3.65803381E+05   2.37484969E-04   8.07218364E-03   8.32438894E-03   8.28072704E-03   8.25580160E-03   3.42531111E+04   4.52566216E+04   4.59605727E+04   0.00000000E+00   2.80877010E+03   1.91632591E-05   6.90699997E-05   6.79810630E-05   2.36487671E-05
   4.63750000E+02   5.00000000E-01   5.00000000E-01   1.30878726E+05   4.80226228E+04   0.00000000E+00   0.00000000E+00   0.00000000E+00   6.61677172E+03   0.00000000E+00   3.79957437E-02   2.31607199E+05   1.23538075E-01   8.83347833E+05   3.64807447E-02   3.81042951E-02   3.73464945E-02   3.70498645E-02   2.00600319E+04   1.76163010E+04   1.15239605E+05   3.06921218E+04   3.67421488E+05   2.37408817E-04   8.07222722E-03   8.32238434E-03   8.28089708E-03   8.25470410E-03   3.42531024E+04   4.52634262E+04   4.59605727E+04   0.00000000E+00   2.80877010E+03   1.91632486E-05   6.90699997E-05   6.79810548E-05   2.36485006E-05
   4.81250000E+02   5.00000000E-01   5.00000000E-01   1.30878726E+05   4.80301437E+04   0.00000000E+00   0.00000000E+00   0.00000000E+00   6.61677171E+03   0.00000000E+00   3.80196566E-02   2.06166388E+05   1.26397500E-01   8.78120784E+05   3.64807385E-02   3.81042104E-02   3.73464488E-02   3.70492021E-02   2.00600326E+04   1.76163243E+04   1.15239605E+05   3.06675271E+04   3.69030573E+05   2.37337845E-04   8.07226710E-03   8.32043399E-03   8.28105118E-03   8.25359990E-03   3.42530940E+04   4.52699627E+04   4.59605727E+04   0.00000000E+00   2.80877010E+03   1.91632381E-05   6.90699997E-05   6.79810465E-05   2.36482046E-05
   4.98750000E+02   5.00000000E-01   5.00000000E-01   1.30878727E+05   4.80378385E+04   0.00000000E+00   0.00000000E+00   0.00000000E+00   6.61677170E+03   0.00000000E+00   3.80445280E-02   1.82843642E+05   1.29417306E-01   8.67464342E+05   3.64807122E-02   3.81041199E-02   3.73463122E-02   3.70484248E-02   2.00600334E+04   1.76163473E+04   1.15239605E+05   3.06420745E+04   3.70725984E+05   2.37266388E-04   8.07228809E-03   8.31841990E-03   8.28112475E-03   8.25235185E-03   3.42530850E+04   4.52765315E+04   4.59605727E+04   0.00000000E+00   2.80877010E+03   1.91632257E-05   6.90699997E-05   6.79810382E-05   2.36478869E-05
   5.16250000E+02   5.00000000E-01   5.00000000E-01   1.30878727E+05   4.80455985E+04   0.00000000E+00   0.00000000E+00   0.00000000E+00   6.61677168E+03   0.00000000E+00   3.80701555E-02   1.62098501E+05   1.32575080E-01   8.54897292E+05   3.64806767E-02   3.81040294E-02   3.73461343E-02   3.70476110E-02   2.00600341E+04   1.76163698E+04   1.15239605E+05   3.06166130E+04   3.72413472E+05   2.37198193E-04   8.07230012E-03   8.31642755E-03   8.28116015E-03   8.25105835E-03   3.42530761E+04   4.52835068E+04   4.59605727E+04   0.00000000E+00   2.80877010E+03   1.91632125E-05   6.90699997E-05   6.79810299E-05   2.36475473E-05
   5.33750000E+02   5.00000000E-01   5.00000000E-01   1.30878728E+05   4.80533435E+04   0.00000000E+00   0.00000000E+00   0.00000000E+00   6.61677167E+03   0.00000000E+00   3.80962569E-02   1.43575164E+05   1.35833934E-01   8.40168554E+05   3.64806343E-02   3.81039400E-02   3.73459248E-02   3.70467770E-02   2.00600349E+04   1.76163915E+04   1.15239605E+05   3.05914151E+04   3.74087618E+05   2.37133750E-04   8.07230574E-03   8.31447758E-03   8.28116816E-03   8.24974517E-03   3.42530673E+04   4.52911091E+04   4.59605727E+04   0.00000000E+00   2.80877010E+03   1.91631991E-05   6.90699997E-05   6.79810217E-05   2.36471863E-05
   5.51250000E+02   5.00000000E-01   5.00000000E-01   1.30878728E+05   4.80610182E+04   0.00000000E+00   0.00000000E+00   0.00000000E+00   6.61677165E+03   0.00000000E+00   3.81225523E-02   1.26993267E+05   1.39157624E-01   8.23088022E+05   3.64805837E-02   3.81038515E-02   3.73456791E-02   3.70459177E-02   2.00600358E+04   1.76164123E+04   1.15239605E+05   3.05665107E+04   3.75753127E+05   2.37072598E-04   8.07230442E-03   8.31256668E-03   8.28114664E-03   8.24841002E-03   3.42530586E+04   4.52994839E+04   4.59605727E+04   0.00000000E+00   2.80877011E+03   1.91631851E-05   6.90699997E-05   6.79810136E-05   2.36468052E-05
   5.68750000E+02   5.00000000E-01   5.00000000E-01   1.30878729E+05   4.80685805E+04   0.00000000E+00   0.00000000E+00   0.00000000E+00   6.61677164E+03   0.00000000E+00   3.81487427E-02   1.12156268E+05   1.42508770E-01   8.03778517E+05   3.64805244E-02   3.81037635E-02   3.73453944E-02   3.70450313E-02   2.00600366E+04   1.76164324E+04   1.15239605E+05   3.05419096E+04   3.77410457E+05   2.37014462E-04   8.07229574E-03   8.31069248E-03   8.28109380E-03   8.24705155E-03   3.42530500E+04   4.53086753E+04   4.59605727E+04   0.00000000E+00   2.80877011E+03   1.91631707E-05   6.90699997E-05   6.79810056E-05   2.36464050E-05
   5.86250000E+02   5.00000000E-01   5.00000000E-01   1.30878729E+05   4.80760018E+04   0.00000000E+00   0.00000000E+00   0.00000000E+00   6.61677162E+03   0.00000000E+00   3.81745324E-02   9.89027282E+04   1.45851348E-01   7.82486639E+05   3.64804568E-02   3.81036765E-02   3.73450723E-02   3.70441215E-02   2.00600375E+04   1.76164515E+04   1.15239605E+05   3.05176385E+04   3.79057140E+05   2.36959314E-04   8.07227992E-03   8.30885693E-03   8.28101060E-03   8.24567380E-03   3.42530414E+04   4.53186105E+04   4.59605727E+04   0.00000000E+00   2.80877011E+03   1.91631558E-05   6.90699997E-05   6.79809977E-05   2.36459871E-05
   6.03750000E+02   5.00000000E-01   5.00000000E-01   1.30878730E+05   4.80832684E+04   0.00000000E+00   0.00000000E+00   0.00000000E+00   6.61677160E+03   0.00000000E+00   3.81996669E-02   8.70913064E+04   1.49154954E-01   7.59524666E+05   3.64803819E-02   3.81035909E-02   3.73447182E-02   3.70431974E-02   2.00600384E+04   1.76164698E+04   1.15239605E+05   3.04937419E+04   3.80688707E+05   2.36907276E-04   8.07225780E-03   8.30706562E-03   8.28090071E-03   8.24428574E-03   3.42530330E+04   4.53291125E+04   4.59605727E+04   0.00000000E+00   2.80877011E+03   1.91631405E-05   6.90699997E-05   6.79809899E-05   2.36455524E-05
   6.21250000E+02   5.00000000E-01   5.00000000E-01   1.30878731E+05   4.80903801E+04   0.00000000E+00   0.00000000E+00   0.00000000E+00   6.61677159E+03   0.00000000E+00   3.82239624E-02   7.65932841E+04   1.52398194E-01   7.35234931E+05   3.64803016E-02   3.81035074E-02   3.73443401E-02   3.70422704E-02   2.00600393E+04   1.76164873E+04   1.15239605E+05   3.04702765E+04   3.82299526E+05   2.36858522E-04   8.07223075E-03   8.30532626E-03   8.28076992E-03   8.24289959E-03   3.42530247E+04   4.53399339E+04   4.59605727E+04   1.89403355E-22   2.80877011E+03   1.91631251E-05   6.90699997E-05   6.79809823E-05   2.36451020E-05
   6.38750000E+02   5.00000000E-01   5.00000000E-01   1.30878732E+05   4.80973463E+04   0.00000000E+00   0.00000000E+00   0.00000000E+00   6.61677157E+03   0.00000000E+00   3.82473205E-02   6.72878418E+04   1.55570067E-01   7.09956027E+05   3.64802179E-02   3.81034268E-02   3.73439473E-02   3.70413532E-02   2.00600402E+04   1.76165039E+04   1.15239605E+05   3.04473041E+04   3.83883653E+05   2.36813193E-04   8.07220044E-03   8.30364716E-03   8.28062533E-03   8.24152905E-03   3.42530167E+04   4.53508010E+04   4.59605727E+04   4.01563282E-22   2.80877011E+03   1.91631098E-05   6.90699997E-05   6.79809749E-05   2.36446367E-05
   6.56250000E+02   5.00000000E-01   5.00000000E-01   1.30878732E+05   4.81041809E+04   0.00000000E+00   0.00000000E+00   0.00000000E+00   6.61677155E+03   0.00000000E+00   3.82697246E-02   5.90596082E+04   1.58669191E-01   6.83994117E+05   3.64801329E-02   3.81033497E-02   3.73435493E-02   3.70404572E-02   2.00600412E+04   1.76165198E+04   1.15239605E+05   3.04248856E+04   3.85435552E+05   2.36771350E-04   8.07216864E-03   8.30203585E-03   8.28047438E-03   8.24018744E-03   3.42530090E+04   4.53614551E+04   4.59605727E+04   8.53546336E-22   2.80877012E+03   1.91630948E-05   6.90699997E-05   6.79809677E-05   2.36441573E-05
   6.73750000E+02   5.00000000E-01   5.00000000E-01   1.30878733E+05   4.81108961E+04   0.00000000E+00   0.00000000E+00   0.00000000E+00   6.61677153E+03   0.00000000E+00   3.82912236E-02   5.17983453E+04   1.61701420E-01   6.57608064E+05   3.64800484E-02   3.81032766E-02   3.73431542E-02   3.70395919E-02   2.00600422E+04   1.76165349E+04   1.15239605E+05   3.04030764E+04   3.86950520E+05   2.36732960E-04   8.07213702E-03   8.30049824E-03   8.28032422E-03   8.23888649E-03   3.42530017E+04   4.53716828E+04   4.59605727E+04   1.81905410E-21   2.80877012E+03   1.91630802E-05   6.90699997E-05   6.79809607E-05   2.36436646E-05
   6.91250000E+02   5.00000000E-01   5.00000000E-01   1.30878734E+05   4.81174982E+04   0.00000000E+00   0.00000000E+00   0.00000000E+00   6.61677151E+03   0.00000000E+00   3.83119095E-02   4.53993426E+04   1.64676794E-01   6.30996652E+05   3.64799658E-02   3.81032077E-02   3.73427684E-02   3.70387640E-02   2.00600432E+04   1.76165492E+04   1.15239605E+05   3.03819222E+04   3.88425050E+05   2.36697895E-04   8.07210706E-03   8.29903803E-03   8.28018100E-03   8.23763537E-03   3.42529948E+04   4.53813320E+04   4.59605727E+04   3.88730744E-21   2.80877012E+03   1.91630663E-05   6.90699997E-05   6.79809540E-05   2.36431594E-05
   7.08750000E+02   5.00000000E-01   5.00000000E-01   1.30878736E+05   4.81239841E+04   0.00000000E+00   0.00000000E+00   0.00000000E+00   6.61677149E+03   0.00000000E+00   3.83318937E-02   3.97651553E+04   1.67606357E-01   6.04311232E+05   3.64798862E-02   3.81031430E-02   3.73423965E-02   3.70379773E-02   2.00600442E+04   1.76165628E+04   1.15239605E+05   3.03614590E+04   3.89856640E+05   2.36665959E-04   8.07207996E-03   8.29765687E-03   8.28004979E-03   8.23644066E-03   3.42529882E+04   4.53903158E+04   4.59605727E+04   1.47713939E-06   2.80877012E+03   1.91630532E-05   6.90699997E-05   6.79809474E-05   2.36426424E-05
   7.26250000E+02   5.00000000E-01   5.00000000E-01   1.30878737E+05   4.81303392E+04   0.00000000E+00   0.00000000E+00   0.00000000E+00   6.61677146E+03   0.00000000E+00   3.83512856E-02   3.48065048E+04   1.70499299E-01   5.77664244E+05   3.64798102E-02   3.81030826E-02   3.73420413E-02   3.70372335E-02   2.00600453E+04   1.76165756E+04   1.15239605E+05   3.03417141E+04   3.91243628E+05   2.36636918E-04   8.07205667E-03   8.29635461E-03   8.27993455E-03   8.23530655E-03   3.42529821E+04   4.53986077E+04   4.59605727E+04   6.15197237E-06   2.80877013E+03   1.91630408E-05   6.90699997E-05   6.79809410E-05   2.36421143E-05
   7.43750000E+02   5.00000000E-01   5.00000000E-01   1.30878738E+05   4.81365371E+04   0.00000000E+00   0.00000000E+00   0.00000000E+00   6.61677144E+03   0.00000000E+00   3.83701747E-02   3.04427443E+04   1.73360608E-01   5.51138617E+05   3.64797381E-02   3.81030263E-02   3.73417043E-02   3.70365325E-02   2.00600464E+04   1.76165877E+04   1.15239605E+05   3.03227070E+04   3.92585006E+05   2.36610522E-04   8.07203790E-03   8.29512975E-03   8.27983826E-03   8.23423530E-03   3.42529763E+04   4.54062336E+04   4.59605727E+04   1.50068222E-05   2.80877013E+03   1.91630294E-05   6.90699997E-05   6.79809349E-05   2.36415759E-05
   7.61250000E+02   5.00000000E-01   5.00000000E-01   1.30878740E+05   4.81425404E+04   0.00000000E+00   0.00000000E+00   0.00000000E+00   6.61677141E+03   0.00000000E+00   3.83886172E-02   2.66019188E+04   1.76189262E-01   5.24797461E+05   3.64796701E-02   3.81029737E-02   3.73413861E-02   3.70358730E-02   2.00600476E+04   1.76165989E+04   1.15239605E+05   3.03044514E+04   3.93880214E+05   2.36586524E-04   8.07202418E-03   8.29397985E-03   8.27976310E-03   8.23322765E-03   3.42529709E+04   4.54132605E+04   4.59605727E+04   3.06661877E-05   2.80877013E+03   1.91630188E-05   6.90699997E-05   6.79809289E-05   2.36410279E-05
   7.78750000E+02   5.00000000E-01   5.00000000E-01   1.30878741E+05   4.81483022E+04   0.00000000E+00   0.00000000E+00   0.00000000E+00   6.61677138E+03   0.00000000E+00   3.84066254E-02   2.32204959E+04   1.78976962E-01   4.98693193E+05   3.64796062E-02   3.81029248E-02   3.73410865E-02   3.70352533E-02   2.00600487E+04   1.76166091E+04   1.15239605E+05   3.02869560E+04   3.95128958E+05   2.36564694E-04   8.07201591E-03   8.29290188E-03   8.27971072E-03   8.23228336E-03   3.42529659E+04   4.54197843E+04   4.59605727E+04   5.71847315E-05   2.80877013E+03   1.91630091E-05   6.90699997E-05   6.79809232E-05   2.36404711E-05
   7.96250000E+02   5.00000000E-01   5.00000000E-01   1.30878743E+05   4.81537687E+04   0.00000000E+00   0.00000000E+00   0.00000000E+00   6.61677135E+03   0.00000000E+00   3.84241615E-02   2.02428762E+04   1.81707454E-01   4.72876021E+05   3.64795462E-02   3.81028793E-02   3.73408052E-02   3.70346714E-02   2.00600499E+04   1.76166185E+04   1.15239605E+05   3.02702262E+04   3.96331034E+05   2.36544827E-04   8.07201341E-03   8.29189262E-03   8.27968242E-03   8.23140164E-03   3.42529611E+04   4.54259155E+04   4.59605727E+04   1.00787402E-04   2.80877014E+03   1.91630002E-05   6.90699997E-05   6.79809177E-05   2.36399059E-05