 TITLE = "Mineral Area" 
VARIABLES = "X"          "Y"              "Z"            "Forsterite"     "Enstatite(alph" "Anorthite"      "Tremolite"      "Pargasite"      "Anhydrite"      "Clinochlore"    "Albite(low)"    "Fayalite"       "Epidote"        "Kaolinite"      "Muscovite(orde" "Sudoite"        "Saponite(Mg)"   "Scolecite"      "FeS(am)"        "Quartz(alpha)"  "Montmorillonit"
 ZONE I=         100 , J=           1 , K=           1  F=POINT
   1.75000000E+01   5.00000000E-01   5.00000000E-01   9.99953973E-02   9.99993441E-02   9.99969732E-02   9.91813916E-02   9.91796418E-02   9.26421255E-02   5.28584558E+03   9.97873922E-02   9.99651759E-02   1.00000000E-01   9.79186550E-02   0.00000000E+00   0.00000000E+00   3.98326124E+03   9.63973943E-02   0.00000000E+00   6.30539007E+02   9.99822481E-02
   5.25000000E+01   5.00000000E-01   5.00000000E-01   9.99953973E-02   9.99993441E-02   9.99969732E-02   9.91814032E-02   9.91796418E-02   9.39776297E-02   4.65210993E+03   9.99364224E-02   9.99651813E-02   1.00000000E-01   9.79199531E-02   0.00000000E+00   0.00000000E+00   4.43345420E+03   9.63976344E-02   0.00000000E+00   7.71939932E+02   9.99859240E-02
   8.75000000E+01   5.00000000E-01   5.00000000E-01   9.99953973E-02   9.99993442E-02   9.99969732E-02   9.91814182E-02   9.91796418E-02   9.52729775E-02   4.30278530E+03   1.00009465E-01   9.99651896E-02   1.00000000E-01   9.79206998E-02   0.00000000E+00   0.00000000E+00   4.70188907E+03   9.63978453E-02   0.00000000E+00   8.16735885E+02   9.99885139E-02
   1.22500000E+02   5.00000000E-01   5.00000000E-01   9.99953973E-02   9.99993443E-02   9.99969732E-02   9.91814306E-02   9.91796418E-02   9.64462962E-02   4.15767236E+03   1.00037418E-01   9.99652008E-02   1.00000000E-01   9.79211412E-02   0.00000000E+00   0.00000000E+00   4.81594178E+03   9.63980047E-02   0.00000000E+00   8.27070084E+02   9.99899082E-02
   1.57500000E+02   5.00000000E-01   5.00000000E-01   9.99953973E-02   9.99993444E-02   9.99969732E-02   9.91814393E-02   9.91796418E-02   9.74597912E-02   4.10164473E+03   1.00047011E-01   9.99652146E-02   1.00000000E-01   9.79214745E-02   0.00000000E+00   0.00000000E+00   4.86259245E+03   9.63981313E-02   0.00000000E+00   8.24867247E+02   9.99907385E-02
   1.92500000E+02   5.00000000E-01   5.00000000E-01   9.99953973E-02   9.99993445E-02   9.99969732E-02   9.91814447E-02   9.91796418E-02   9.83049956E-02   4.08131799E+03   1.00049437E-01   9.99652309E-02   1.00000000E-01   9.79217729E-02   0.00000000E+00   0.00000000E+00   4.88261356E+03   9.63982369E-02   0.00000000E+00   8.18012012E+02   9.99913327E-02
   2.27500000E+02   5.00000000E-01   5.00000000E-01   9.99953973E-02   9.99993446E-02   9.99969732E-02   9.91814476E-02   9.91796418E-02   9.89909198E-02   4.07523918E+03   1.00049022E-01   9.99652496E-02   1.00000000E-01   9.79220645E-02   0.00000000E+00   0.00000000E+00   4.89221642E+03   9.63983279E-02   0.00000000E+00   8.09415763E+02   9.99918301E-02
   2.62500000E+02   5.00000000E-01   5.00000000E-01   9.99953973E-02   9.99993447E-02   9.99969732E-02   9.91814485E-02   9.91796418E-02   9.95355057E-02   4.07500328E+03   1.00047433E-01   9.99652705E-02   1.00000000E-01   9.79223606E-02   0.00000000E+00   0.00000000E+00   4.89771819E+03   9.63984081E-02   0.00000000E+00   8.00183700E+02   9.99922879E-02
   2.97500000E+02   5.00000000E-01   5.00000000E-01   9.99953973E-02   9.99993448E-02   9.99969732E-02   9.91814480E-02   9.91796418E-02   9.99600483E-02   4.07730113E+03   1.00045320E-01   9.99652936E-02   1.00000000E-01   9.79226661E-02   0.00000000E+00   0.00000000E+00   4.90160654E+03   9.63984798E-02   0.00000000E+00   7.90747320E+02   9.99927293E-02
   3.32500000E+02   5.00000000E-01   5.00000000E-01   9.99953973E-02   9.99993450E-02   9.99969732E-02   9.91814466E-02   9.91796418E-02   1.00285444E-01   4.08081253E+03   1.00042941E-01   9.99653188E-02   1.00000000E-01   9.79229831E-02   0.00000000E+00   0.00000000E+00   4.90487844E+03   9.63985446E-02   0.00000000E+00   7.81279962E+02   9.99931638E-02
   3.67500000E+02   5.00000000E-01   5.00000000E-01   9.99953973E-02   9.99993451E-02   9.99969732E-02   9.91814445E-02   9.91796418E-02   1.00530955E-01   4.08500346E+03   1.00040401E-01   9.99653460E-02   1.00000000E-01   9.79233125E-02   0.00000000E+00   0.00000000E+00   4.90793961E+03   9.63986037E-02   0.00000000E+00   7.71853230E+02   9.99935950E-02
   4.02500000E+02   5.00000000E-01   5.00000000E-01   9.99953973E-02   9.99993452E-02   9.99969732E-02   9.91814422E-02   9.91796418E-02   1.00713611E-01   4.08965562E+03   1.00037743E-01   9.99653752E-02   1.00000000E-01   9.79236547E-02   0.00000000E+00   0.00000000E+00   4.91095506E+03   9.63986580E-02   0.00000000E+00   7.62497424E+02   9.99940238E-02
   4.37500000E+02   5.00000000E-01   5.00000000E-01   9.99953973E-02   9.99993453E-02   9.99969732E-02   9.91814400E-02   9.91796418E-02   1.00847400E-01   4.09467810E+03   1.00034987E-01   9.99654064E-02   1.00000000E-01   9.79240098E-02   0.00000000E+00   0.00000000E+00   4.91398865E+03   9.63987084E-02   0.00000000E+00   7.53225845E+02   9.99944502E-02
   4.72500000E+02   5.00000000E-01   5.00000000E-01   9.99953973E-02   9.99993455E-02   9.99969732E-02   9.91814385E-02   9.91796418E-02   1.00943554E-01   4.10003077E+03   1.00032144E-01   9.99654394E-02   1.00000000E-01   9.79243779E-02   0.00000000E+00   0.00000000E+00   4.91705938E+03   9.63987553E-02   0.00000000E+00   7.44045171E+02   9.99948739E-02
   5.07500000E+02   5.00000000E-01   5.00000000E-01   9.99953973E-02   9.99993456E-02   9.99969732E-02   9.91814386E-02   9.91796418E-02   1.01010946E-01   4.10569258E+03   1.00029222E-01   9.99654742E-02   1.00000000E-01   9.79247587E-02   0.00000000E+00   0.00000000E+00   4.92016365E+03   9.63987994E-02   0.00000000E+00   7.34957224E+02   9.99952942E-02
   5.42500000E+02   5.00000000E-01   5.00000000E-01   9.99953973E-02   9.99993457E-02   9.99969732E-02   9.91814417E-02   9.91796418E-02   1.01056489E-01   4.11164793E+03   1.00026226E-01   9.99655109E-02   9.99999999E-02   9.79251521E-02   0.00000000E+00   0.00000000E+00   4.92328529E+03   9.63988409E-02   0.00000000E+00   7.25964130E+02   9.99957104E-02
   5.77500000E+02   5.00000000E-01   5.00000000E-01   9.99953973E-02   9.99993459E-02   9.99969732E-02   9.91814487E-02   9.91796418E-02   1.01085514E-01   4.11787996E+03   1.00023166E-01   9.99655495E-02   9.99999999E-02   9.79255580E-02   0.00000000E+00   0.00000000E+00   4.92640311E+03   9.63988803E-02   0.00000000E+00   7.17067023E+02   9.99961218E-02
   6.12500000E+02   5.00000000E-01   5.00000000E-01   9.99953973E-02   9.99993460E-02   9.99969732E-02   9.91814595E-02   9.91796418E-02   1.01102099E-01   4.12436742E+03   1.00020050E-01   9.99655898E-02   9.99999999E-02   9.79259762E-02   0.00000000E+00   0.00000000E+00   4.92949510E+03   9.63989178E-02   0.00000000E+00   7.08266180E+02   9.99965279E-02
   6.47500000E+02   5.00000000E-01   5.00000000E-01   9.99953973E-02   9.99993462E-02   9.99969732E-02   9.91814732E-02   9.91796418E-02   1.01109337E-01   4.13108400E+03   1.00016888E-01   9.99656319E-02   9.99999999E-02   9.79264066E-02   0.00000000E+00   0.00000000E+00   4.93253844E+03   9.63989538E-02   0.00000000E+00   6.99562941E+02   9.99969284E-02
   6.82500000E+02   5.00000000E-01   5.00000000E-01   9.99953973E-02   9.99993463E-02   9.99969732E-02   9.91814889E-02   9.91796418E-02   1.01109568E-01   4.13799924E+03   1.00013691E-01   9.99656758E-02   9.99999999E-02   9.79268492E-02   0.00000000E+00   0.00000000E+00   4.93550604E+03   9.63989883E-02   0.00000000E+00   6.90960359E+02   9.99973229E-02
   7.17500000E+02   5.00000000E-01   5.00000000E-01   9.99953973E-02   9.99993465E-02   9.99969732E-02   9.91815058E-02   9.91796418E-02   1.01104550E-01   4.14507899E+03   1.00010472E-01   9.99657214E-02   9.99999999E-02   9.79273040E-02   0.00000000E+00   0.00000000E+00   4.93836562E+03   9.63990216E-02   0.00000000E+00   6.82461186E+02   9.99977113E-02
   7.52500000E+02   5.00000000E-01   5.00000000E-01   9.99953973E-02   9.99993467E-02   9.99969732E-02   9.91815236E-02   9.91796418E-02   1.01095607E-01   4.15228544E+03   1.00007242E-01   9.99657689E-02   9.99999999E-02   9.79277710E-02   0.00000000E+00   0.00000000E+00   4.94108058E+03   9.63990539E-02   0.00000000E+00   6.74065911E+02   9.99980939E-02
   7.87500000E+02   5.00000000E-01   5.00000000E-01   9.99953973E-02   9.99993468E-02   9.99969732E-02   9.91815420E-02   9.91796418E-02   1.01083730E-01   4.15957768E+03   1.00004015E-01   9.99658181E-02   9.99999998E-02   9.79282505E-02   0.00000000E+00   0.00000000E+00   4.94361016E+03   9.63990855E-02   0.00000000E+00   6.65777125E+02   9.99984709E-02
   8.22500000E+02   5.00000000E-01   5.00000000E-01   9.99953973E-02   9.99993470E-02   9.99969732E-02   9.91815610E-02   9.91796418E-02   1.01069666E-01   4.16691205E+03   1.00000806E-01   9.99658691E-02   9.99999998E-02   9.79287428E-02   0.00000000E+00   0.00000000E+00   4.94591096E+03   9.63991165E-02   0.00000000E+00   6.57597176E+02   9.99988427E-02
   8.57500000E+02   5.00000000E-01   5.00000000E-01   9.99953973E-02   9.99993472E-02   9.99969732E-02   9.91815804E-02   9.91796418E-02   1.01053978E-01   4.17424300E+03   9.99976297E-02   9.99659218E-02   9.99999997E-02   9.79292483E-02   0.00000000E+00   0.00000000E+00   4.94793737E+03   9.63991471E-02   0.00000000E+00   6.49531348E+02   9.99992100E-02
   8.92500000E+02   5.00000000E-01   5.00000000E-01   9.99953973E-02   9.99993474E-02   9.99969732E-02   9.91816003E-02   9.91796418E-02   1.01037094E-01   4.18152336E+03   9.99944992E-02   9.99659762E-02   9.99999997E-02   9.79297678E-02   0.00000000E+00   0.00000000E+00   4.94964423E+03   9.63991776E-02   0.00000000E+00   6.41580127E+02   9.99995738E-02
   9.27500000E+02   5.00000000E-01   5.00000000E-01   9.99953973E-02   9.99993476E-02   9.99969732E-02   9.91816204E-02   9.91796418E-02   1.01019341E-01   4.18870560E+03   9.99914290E-02   9.99660323E-02   9.99999996E-02   9.79303019E-02   0.00000000E+00   0.00000000E+00   4.95098651E+03   9.63992082E-02   0.00000000E+00   6.33746738E+02   9.99999350E-02
   9.62500000E+02   5.00000000E-01   5.00000000E-01   9.99953973E-02   9.99993478E-02   9.99969732E-02   9.91816409E-02   9.91796418E-02   1.01000970E-01   4.19574275E+03   9.99884327E-02   9.99660900E-02   9.99999994E-02   9.79308515E-02   0.00000000E+00   0.00000000E+00   4.95192064E+03   9.63992390E-02   0.00000000E+00   6.26036247E+02   1.00000295E-01
   9.97500000E+02   5.00000000E-01   5.00000000E-01   9.99953973E-02   9.99993480E-02   9.99969732E-02   9.91816615E-02   9.91796418E-02   1.00982177E-01   4.20259004E+03   9.99855228E-02   9.99661492E-02   9.99999993E-02   9.79314176E-02   0.00000000E+00   0.00000000E+00   4.95240560E+03   9.63992703E-02   0.00000000E+00   6.18454278E+02   1.00000654E-01
   1.03250000E+03   5.00000000E-01   5.00000000E-01   9.99953973E-02   9.99993482E-02   9.99969732E-02   9.91816824E-02   9.91796418E-02   1.00963116E-01   4.20920442E+03   9.99827108E-02   9.99662100E-02   9.99999990E-02   9.79320014E-02   0.00000000E+00   0.00000000E+00   4.95240629E+03   9.63993024E-02   0.00000000E+00   6.10999902E+02   1.00001014E-01
   1.06750000E+03   5.00000000E-01   5.00000000E-01   9.99953973E-02   9.99993484E-02   9.99969732E-02   9.91817034E-02   9.91796418E-02   1.00943908E-01   4.21554648E+03   9.99800067E-02   9.99662721E-02   9.99999987E-02   9.79326041E-02   0.00000000E+00   0.00000000E+00   4.95189229E+03   9.63993354E-02   0.00000000E+00   6.03675293E+02   1.00001377E-01
   1.10250000E+03   5.00000000E-01   5.00000000E-01   9.99953973E-02   9.99993487E-02   9.99969732E-02   9.91817243E-02   9.91796418E-02   1.00924650E-01   4.22158107E+03   9.99774191E-02   9.99663355E-02   9.99999983E-02   9.79332269E-02   0.00000000E+00   0.00000000E+00   4.95083981E+03   9.63993696E-02   0.00000000E+00   5.96481984E+02   1.00001743E-01
   1.13750000E+03   5.00000000E-01   5.00000000E-01   9.99953973E-02   9.99993489E-02   9.99969732E-02   9.91817453E-02   9.91796418E-02   1.00905419E-01   4.22727825E+03   9.99749548E-02   9.99664001E-02   9.99999978E-02   9.79338710E-02   0.00000000E+00   0.00000000E+00   4.94923185E+03   9.63994052E-02   0.00000000E+00   5.89424184E+02   1.00002114E-01
   1.17250000E+03   5.00000000E-01   5.00000000E-01   9.99953973E-02   9.99993491E-02   9.99969732E-02   9.91817661E-02   9.91796418E-02   1.00886278E-01   4.23261323E+03   9.99726187E-02   9.99664657E-02   9.99999972E-02   9.79345378E-02   0.00000000E+00   0.00000000E+00   4.94706108E+03   9.63994424E-02   0.00000000E+00   5.82498621E+02   1.00002490E-01
   1.20750000E+03   5.00000000E-01   5.00000000E-01   9.99953973E-02   9.99993494E-02   9.99969732E-02   9.91817868E-02   9.91796418E-02   1.00867275E-01   4.23756754E+03   9.99704137E-02   9.99665323E-02   9.99999963E-02   9.79352283E-02   0.00000000E+00   0.00000000E+00   4.94432793E+03   9.63994814E-02   0.00000000E+00   5.75705577E+02   1.00002873E-01
   1.24250000E+03   5.00000000E-01   5.00000000E-01   9.99953973E-02   9.99993496E-02   9.99969732E-02   9.91818072E-02   9.91796418E-02   1.00848449E-01   4.24212941E+03   9.99683409E-02   9.99665996E-02   9.99999952E-02   9.79359438E-02   0.00000000E+00   0.00000000E+00   4.94104037E+03   9.63995224E-02   0.00000000E+00   5.69048835E+02   1.00003263E-01
   1.27750000E+03   5.00000000E-01   5.00000000E-01   9.99953973E-02   9.99993499E-02   9.99969732E-02   9.91818274E-02   9.91796418E-02   1.00829832E-01   4.24629338E+03   9.99663993E-02   9.99666675E-02   9.99999937E-02   9.79366852E-02   0.00000000E+00   0.00000000E+00   4.93721576E+03   9.63995655E-02   0.00000000E+00   5.62528710E+02   1.00003661E-01
   1.31250000E+03   5.00000000E-01   5.00000000E-01   9.99953973E-02   9.99993502E-02   9.99969732E-02   9.91818471E-02   9.91796418E-02   1.00811444E-01   4.25005981E+03   9.99645863E-02   9.99667358E-02   9.99999917E-02   9.79374532E-02   0.00000000E+00   0.00000000E+00   4.93288185E+03   9.63996110E-02   0.00000000E+00   5.56137377E+02   1.00004066E-01
   1.34750000E+03   5.00000000E-01   5.00000000E-01   9.99953973E-02   9.99993504E-02   9.99969732E-02   9.91818663E-02   9.91796418E-02   1.00793305E-01   4.25343573E+03   9.99628975E-02   9.99668044E-02   9.99999893E-02   9.79382484E-02   0.00000000E+00   0.00000000E+00   4.92807193E+03   9.63996588E-02   0.00000000E+00   5.49872656E+02   1.00004479E-01
   1.38250000E+03   5.00000000E-01   5.00000000E-01   9.99953973E-02   9.99993507E-02   9.99969732E-02   9.91818849E-02   9.91796418E-02   1.00775425E-01   4.25643406E+03   9.99613272E-02   9.99668732E-02   9.99999861E-02   9.79390711E-02   0.00000000E+00   0.00000000E+00   4.92282565E+03   9.63997093E-02   0.00000000E+00   5.43731834E+02   1.00004899E-01
   1.41750000E+03   5.00000000E-01   5.00000000E-01   9.99953974E-02   9.99993510E-02   9.99969732E-02   9.91819029E-02   9.91796418E-02   1.00757811E-01   4.25907299E+03   9.99598684E-02   9.99669418E-02   9.99999821E-02   9.79399215E-02   0.00000000E+00   0.00000000E+00   4.91718778E+03   9.63997625E-02   0.00000000E+00   5.37711730E+02   1.00005327E-01
   1.45250000E+03   5.00000000E-01   5.00000000E-01   9.99953974E-02   9.99993513E-02   9.99969732E-02   9.91819202E-02   9.91796418E-02   1.00740467E-01   4.26137570E+03   9.99585130E-02   9.99670103E-02   9.99999770E-02   9.79407992E-02   0.00000000E+00   0.00000000E+00   4.91120586E+03   9.63998184E-02   0.00000000E+00   5.31813920E+02   1.00005760E-01
   1.48750000E+03   5.00000000E-01   5.00000000E-01   9.99953974E-02   9.99993516E-02   9.99969732E-02   9.91819368E-02   9.91796418E-02   1.00723392E-01   4.26336958E+03   9.99572525E-02   9.99670783E-02   9.99999705E-02   9.79417039E-02   0.00000000E+00   0.00000000E+00   4.90492889E+03   9.63998773E-02   0.00000000E+00   5.26044300E+02   1.00006198E-01
   1.52250000E+03   5.00000000E-01   5.00000000E-01   9.99953974E-02   9.99993519E-02   9.99969732E-02   9.91819526E-02   9.91796418E-02   1.00706585E-01   4.26508363E+03   9.99560777E-02   9.99671459E-02   9.99999624E-02   9.79426347E-02   0.00000000E+00   0.00000000E+00   4.89841200E+03   9.63999393E-02   0.00000000E+00   5.20385625E+02   1.00006640E-01
   1.55750000E+03   5.00000000E-01   5.00000000E-01   9.99953975E-02   9.99993522E-02   9.99969732E-02   9.91819678E-02   9.91796418E-02   1.00690041E-01   4.26654974E+03   9.99549795E-02   9.99672128E-02   9.99999521E-02   9.79435906E-02   0.00000000E+00   0.00000000E+00   4.89170682E+03   9.64000043E-02   0.00000000E+00   5.14830718E+02   1.00007085E-01
   1.59250000E+03   5.00000000E-01   5.00000000E-01   9.99953976E-02   9.99993526E-02   9.99969732E-02   9.91819824E-02   9.91796418E-02   1.00673753E-01   4.26780110E+03   9.99539487E-02   9.99672788E-02   9.99999391E-02   9.79445703E-02   0.00000000E+00   0.00000000E+00   4.88486306E+03   9.64000726E-02   0.00000000E+00   5.09382378E+02   1.00007530E-01
   1.62750000E+03   5.00000000E-01   5.00000000E-01   9.99953976E-02   9.99993529E-02   9.99969732E-02   9.91819962E-02   9.91796418E-02   1.00657714E-01   4.26887034E+03   9.99529766E-02   9.99673439E-02   9.99999229E-02   9.79455723E-02   0.00000000E+00   0.00000000E+00   4.87793058E+03   9.64001442E-02   0.00000000E+00   5.04028629E+02   1.00007975E-01
   1.66250000E+03   5.00000000E-01   5.00000000E-01   9.99953978E-02   9.99993533E-02   9.99969732E-02   9.91820093E-02   9.91796418E-02   1.00641914E-01   4.26978992E+03   9.99520550E-02   9.99674080E-02   9.99999027E-02   9.79465950E-02   0.00000000E+00   0.00000000E+00   4.87095435E+03   9.64002193E-02   0.00000000E+00   4.98765488E+02   1.00008417E-01
   1.69750000E+03   5.00000000E-01   5.00000000E-01   9.99953979E-02   9.99993536E-02   9.99969732E-02   9.91820217E-02   9.91796418E-02   1.00626345E-01   4.27059090E+03   9.99511764E-02   9.99674710E-02   9.99998783E-02   9.79476363E-02   0.00000000E+00   0.00000000E+00   4.86397559E+03   9.64002979E-02   0.00000000E+00   4.93589117E+02   1.00008855E-01
   1.73250000E+03   5.00000000E-01   5.00000000E-01   9.99953981E-02   9.99993540E-02   9.99969732E-02   9.91820335E-02   9.91796418E-02   1.00610996E-01   4.27130301E+03   9.99503342E-02   9.99675328E-02   9.99998490E-02   9.79486944E-02   0.00000000E+00   0.00000000E+00   4.85702939E+03   9.64003804E-02   0.00000000E+00   4.88508355E+02   1.00009288E-01
   1.76750000E+03   5.00000000E-01   5.00000000E-01   9.99953984E-02   9.99993544E-02   9.99969732E-02   9.91820449E-02   9.91796418E-02   1.00595859E-01   4.27195263E+03   9.99495225E-02   9.99675933E-02   9.99998147E-02   9.79497672E-02   0.00000000E+00   0.00000000E+00   4.85014955E+03   9.64004668E-02   0.00000000E+00   4.83508396E+02   1.00009713E-01
   1.80250000E+03   5.00000000E-01   5.00000000E-01   9.99953987E-02   9.99993548E-02   9.99969732E-02   9.91820559E-02   9.91796418E-02   1.00580925E-01   4.27256310E+03   9.99487365E-02   9.99676525E-02   9.99997747E-02   9.79508523E-02   0.00000000E+00   0.00000000E+00   4.84336610E+03   9.64005574E-02   0.00000000E+00   4.78583927E+02   1.00010130E-01
   1.83750000E+03   5.00000000E-01   5.00000000E-01   9.99953992E-02   9.99993552E-02   9.99969732E-02   9.91820664E-02   9.91796418E-02   1.00566184E-01   4.27315502E+03   9.99479724E-02   9.99677105E-02   9.99997279E-02   9.79519478E-02   0.00000000E+00   0.00000000E+00   4.83670328E+03   9.64006524E-02   0.00000000E+00   4.73732025E+02   1.00010537E-01
   1.87250000E+03   5.00000000E-01   5.00000000E-01   9.99953998E-02   9.99993556E-02   9.99969732E-02   9.91820766E-02   9.91796418E-02   1.00551630E-01   4.27374585E+03   9.99472273E-02   9.99677672E-02   9.99996729E-02   9.79530512E-02   0.00000000E+00   0.00000000E+00   4.83018101E+03   9.64007521E-02   0.00000000E+00   4.68950003E+02   1.00010933E-01
   1.90750000E+03   5.00000000E-01   5.00000000E-01   9.99954006E-02   9.99993560E-02   9.99969732E-02   9.91820867E-02   9.91796418E-02   1.00537256E-01   4.27434968E+03   9.99464992E-02   9.99678226E-02   9.99996078E-02   9.79541604E-02   0.00000000E+00   0.00000000E+00   4.82381548E+03   9.64008567E-02   0.00000000E+00   4.64235403E+02   1.00011316E-01
   1.94250000E+03   5.00000000E-01   5.00000000E-01   9.99954016E-02   9.99993564E-02   9.99969732E-02   9.91820966E-02   9.91796418E-02   1.00523057E-01   4.27497699E+03   9.99457869E-02   9.99678769E-02   9.99995315E-02   9.79552731E-02   0.00000000E+00   0.00000000E+00   4.81762052E+03   9.64009666E-02   0.00000000E+00   4.59585982E+02   1.00011686E-01
   1.97750000E+03   5.00000000E-01   5.00000000E-01   9.99954030E-02   9.99993569E-02   9.99969732E-02   9.91821063E-02   9.91796418E-02   1.00509031E-01   4.27563512E+03   9.99450903E-02   9.99679302E-02   9.99994440E-02   9.79563871E-02   0.00000000E+00   0.00000000E+00   4.81160626E+03   9.64010822E-02   0.00000000E+00   4.54999701E+02   1.00012041E-01
   2.01250000E+03   5.00000000E-01   5.00000000E-01   9.99954048E-02   9.99993574E-02   9.99969732E-02   9.91821162E-02   9.91796418E-02   1.00495177E-01   4.27632845E+03   9.99444097E-02   9.99679827E-02   9.99993476E-02   9.79575002E-02   0.00000000E+00   0.00000000E+00   4.80577926E+03   9.64012039E-02   0.00000000E+00   4.50475437E+02   1.00012381E-01
   2.04750000E+03   5.00000000E-01   5.00000000E-01   9.99954072E-02   9.99993578E-02   9.99969732E-02   9.91821262E-02   9.91796418E-02   1.00481494E-01   4.27705878E+03   9.99437464E-02   9.99680344E-02   9.99992452E-02   9.79586103E-02   0.00000000E+00   0.00000000E+00   4.80014303E+03   9.64013321E-02   0.00000000E+00   4.46032957E+02   1.00012705E-01
   2.08250000E+03   5.00000000E-01   5.00000000E-01   9.99954102E-02   9.99993583E-02   9.99969732E-02   9.91821361E-02   9.91796418E-02   1.00467986E-01   4.27782395E+03   9.99431020E-02   9.99680857E-02   9.99991404E-02   9.79597152E-02   0.00000000E+00   0.00000000E+00   4.79470330E+03   9.64014672E-02   0.00000000E+00   4.41647044E+02   1.00013012E-01
   2.11750000E+03   5.00000000E-01   5.00000000E-01   9.99954141E-02   9.99993588E-02   9.99969732E-02   9.91821460E-02   9.91796418E-02   1.00454658E-01   4.27862008E+03   9.99424789E-02   9.99681369E-02   9.99990360E-02   9.79608128E-02   0.00000000E+00   0.00000000E+00   4.78946148E+03   9.64016100E-02   0.00000000E+00   4.37316350E+02   1.00013303E-01
   2.15250000E+03   5.00000000E-01   5.00000000E-01   9.99954192E-02   9.99993594E-02   9.99969732E-02   9.91821557E-02   9.91796418E-02   1.00441516E-01   4.27944104E+03   9.99418802E-02   9.99681883E-02   9.99989340E-02   9.79619010E-02   0.00000000E+00   0.00000000E+00   4.78441742E+03   9.64017608E-02   0.00000000E+00   4.33039637E+02   1.00013575E-01
   2.18750000E+03   5.00000000E-01   5.00000000E-01   9.99954256E-02   9.99993599E-02   9.99969732E-02   9.91821652E-02   9.91796418E-02   1.00428569E-01   4.28027867E+03   9.99413090E-02   9.99682402E-02   9.99988356E-02   9.79629778E-02   0.00000000E+00   0.00000000E+00   4.77956982E+03   9.64019204E-02   0.00000000E+00   4.28815753E+02   1.00013830E-01
   2.22250000E+03   5.00000000E-01   5.00000000E-01   9.99954336E-02   9.99993604E-02   9.99969732E-02   9.91821741E-02   9.91796418E-02   1.00415827E-01   4.28112283E+03   9.99407692E-02   9.99682933E-02   9.99987418E-02   9.79640410E-02   0.00000000E+00   0.00000000E+00   4.77491660E+03   9.64020895E-02   0.00000000E+00   4.24643613E+02   1.00014067E-01
   2.25750000E+03   5.00000000E-01   5.00000000E-01   9.99954437E-02   9.99993610E-02   9.99969732E-02   9.91821824E-02   9.91796418E-02   1.00403303E-01   4.28196161E+03   9.99402652E-02   9.99683479E-02   9.99986518E-02   9.79650885E-02   0.00000000E+00   0.00000000E+00   4.77045515E+03   9.64022687E-02   0.00000000E+00   4.20522175E+02   1.00014285E-01
   2.29250000E+03   5.00000000E-01   5.00000000E-01   9.99954561E-02   9.99993616E-02   9.99969732E-02   9.91821897E-02   9.91796418E-02   1.00391009E-01   4.28278156E+03   9.99398016E-02   9.99684047E-02   9.99985621E-02   9.79661184E-02   0.00000000E+00   0.00000000E+00   4.76618243E+03   9.64024590E-02   0.00000000E+00   4.16450430E+02   1.00014485E-01
   2.32750000E+03   5.00000000E-01   5.00000000E-01   9.99954713E-02   9.99993622E-02   9.99969732E-02   9.91821957E-02   9.91796418E-02   1.00378960E-01   4.28356755E+03   9.99393834E-02   9.99684645E-02   9.99984677E-02   9.79671284E-02   0.00000000E+00   0.00000000E+00   4.76209551E+03   9.64026613E-02   0.00000000E+00   4.12427378E+02   1.00014666E-01
   2.36250000E+03   5.00000000E-01   5.00000000E-01   9.99954895E-02   9.99993628E-02   9.99969732E-02   9.91822002E-02   9.91796418E-02   1.00367170E-01   4.28430258E+03   9.99390162E-02   9.99685280E-02   9.99983636E-02   9.79681163E-02   0.00000000E+00   0.00000000E+00   4.75819180E+03   9.64028765E-02   0.00000000E+00   4.08452018E+02   1.00014828E-01
   2.39750000E+03   5.00000000E-01   5.00000000E-01   9.99955111E-02   9.99993634E-02   9.99969732E-02   9.91822029E-02   9.91796418E-02   1.00355653E-01   4.28496745E+03   9.99387061E-02   9.99685963E-02   9.99982486E-02   9.79690799E-02   0.00000000E+00   0.00000000E+00   4.75446946E+03   9.64031058E-02   0.00000000E+00   4.04523329E+02   1.00014971E-01
   2.43250000E+03   5.00000000E-01   5.00000000E-01   9.99955364E-02   9.99993640E-02   9.99969732E-02   9.91822036E-02   9.91796418E-02   1.00344425E-01   4.28554039E+03   9.99384596E-02   9.99686705E-02   9.99981267E-02   9.79700168E-02   0.00000000E+00   0.00000000E+00   4.75092780E+03   9.64033505E-02   0.00000000E+00   4.00640248E+02   1.00015095E-01
   2.46750000E+03   5.00000000E-01   5.00000000E-01   9.99955656E-02   9.99993647E-02   9.99969732E-02   9.91822025E-02   9.91796418E-02   1.00333497E-01   4.28599684E+03   9.99382838E-02   9.99687519E-02   9.99980073E-02   9.79709246E-02   0.00000000E+00   0.00000000E+00   4.74756772E+03   9.64036118E-02   0.00000000E+00   3.96801654E+02   1.00015199E-01
   2.50250000E+03   5.00000000E-01   5.00000000E-01   9.99955987E-02   9.99993653E-02   9.99969732E-02   9.91821998E-02   9.91796418E-02   1.00322883E-01   4.28630917E+03   9.99381866E-02   9.99688422E-02   9.99979033E-02   9.79718006E-02   0.00000000E+00   0.00000000E+00   4.74439213E+03   9.64038915E-02   0.00000000E+00   3.93006341E+02   1.00015284E-01
   2.53750000E+03   5.00000000E-01   5.00000000E-01   9.99956357E-02   9.99993660E-02   9.99969732E-02   9.91821958E-02   9.91796418E-02   1.00312593E-01   4.28644645E+03   9.99381768E-02   9.99689432E-02   9.99978281E-02   9.79726421E-02   0.00000000E+00   0.00000000E+00   4.74140650E+03   9.64041913E-02   0.00000000E+00   3.89252994E+02   1.00015349E-01
   2.57250000E+03   5.00000000E-01   5.00000000E-01   9.99956766E-02   9.99993667E-02   9.99969732E-02   9.91821911E-02   9.91796418E-02   1.00302637E-01   4.28637397E+03   9.99382639E-02   9.99690575E-02   9.99977930E-02   9.79734461E-02   0.00000000E+00   0.00000000E+00   4.73861946E+03   9.64045134E-02   0.00000000E+00   3.85540155E+02   1.00015394E-01
   2.60750000E+03   5.00000000E-01   5.00000000E-01   9.99957210E-02   9.99993673E-02   9.99969733E-02   9.91821865E-02   9.91796418E-02   1.00293022E-01   4.28605257E+03   9.99384590E-02   9.99691878E-02   9.99978046E-02   9.79742094E-02   0.00000000E+00   0.00000000E+00   4.73604362E+03   9.64048601E-02   0.00000000E+00   3.81866193E+02   1.00015418E-01
   2.64250000E+03   5.00000000E-01   5.00000000E-01   9.99957686E-02   9.99993680E-02   9.99969733E-02   9.91821827E-02   9.91796418E-02   1.00283753E-01   4.28543759E+03   9.99387744E-02   9.99693379E-02   9.99978645E-02   9.79749285E-02   0.00000000E+00   0.00000000E+00   4.73369615E+03   9.64052343E-02   0.00000000E+00   3.78229261E+02   1.00015421E-01
   2.67750000E+03   5.00000000E-01   5.00000000E-01   9.99958192E-02   9.99993687E-02   9.99969733E-02   9.91821802E-02   9.91796418E-02   1.00274833E-01   4.28447763E+03   9.99392245E-02   9.99695123E-02   9.99979697E-02   9.79755996E-02   0.00000000E+00   0.00000000E+00   4.73159899E+03   9.64056395E-02   0.00000000E+00   3.74627251E+02   1.00015403E-01
   2.71250000E+03   5.00000000E-01   5.00000000E-01   9.99958723E-02   9.99993694E-02   9.99969733E-02   9.91821794E-02   9.91796418E-02   1.00266265E-01   4.28311295E+03   9.99398261E-02   9.99697169E-02   9.99981142E-02   9.79762186E-02   0.00000000E+00   0.00000000E+00   4.72977853E+03   9.64060797E-02   0.00000000E+00   3.71057745E+02   1.00015362E-01
   2.74750000E+03   5.00000000E-01   5.00000000E-01   9.99959280E-02   9.99993701E-02   9.99969733E-02   9.91821808E-02   9.91796418E-02   1.00258047E-01   4.28127362E+03   9.99405988E-02   9.99699594E-02   9.99982906E-02   9.79767808E-02   0.00000000E+00   0.00000000E+00   4.72826357E+03   9.64065600E-02   0.00000000E+00   3.67517949E+02   1.00015299E-01
   2.78250000E+03   5.00000000E-01   5.00000000E-01   9.99959854E-02   9.99993709E-02   9.99969733E-02   9.91821850E-02   9.91796418E-02   1.00250178E-01   4.27887407E+03   9.99415665E-02   9.99702500E-02   9.99984897E-02   9.79772810E-02   0.00000000E+00   0.00000000E+00   4.72709453E+03   9.64070866E-02   0.00000000E+00   3.64004624E+02   1.00015211E-01
   2.81750000E+03   5.00000000E-01   5.00000000E-01   9.99960446E-02   9.99993716E-02   9.99969734E-02   9.91821926E-02   9.91796418E-02   1.00242652E-01   4.27581319E+03   9.99427580E-02   9.99706023E-02   9.99987034E-02   9.79777135E-02   0.00000000E+00   0.00000000E+00   4.72630657E+03   9.64076672E-02   0.00000000E+00   3.60513982E+02   1.00015098E-01
   2.85250000E+03   5.00000000E-01   5.00000000E-01   9.99961056E-02   9.99993723E-02   9.99969734E-02   9.91822046E-02   9.91796418E-02   1.00235466E-01   4.27196501E+03   9.99442095E-02   9.99710353E-02   9.99989254E-02   9.79780717E-02   0.00000000E+00   0.00000000E+00   4.72594063E+03   9.64083120E-02   0.00000000E+00   3.57041572E+02   1.00014958E-01