 TITLE = "Mineral Area" 
VARIABLES = "X"          "Y"              "Z"            "Forsterite"     "Fayalite"       "Brucite"        "Lizardite"      "Chrysotile"     "Saponite(Mg)"   "Enstatite(alph" "Ferrosilite(al" "Anorthite"      "Albite(low)"    "Clinochlore"    "Sudoite"        "Montmorillonit" "Kaolinite"      "Tremolite"      "Pargasite"      "Anhydrite"      "Epidote"        "Scolecite"      "Pyrite"         "FeS(am)"        "Quartz(alpha)" 
 ZONE I=         100 , J=           1 , K=           1  F=POINT
   1.75000000E+01   5.00000000E-01   5.00000000E-01   1.08548050E+05   4.51886799E+04   3.56942726E-04   1.48258098E-06   1.23143384E-06   0.00000000E+00   2.00601208E+04   1.76160833E+04   6.14016520E+04   3.17600206E+04   1.56914512E+06   8.48409892E-03   7.09328446E-05   1.18646414E-01   4.53376107E+04   4.63431642E+04   2.24738094E-04   3.47617420E+02   2.24212922E+02   3.68889241E-05   4.29398154E-05   2.36371029E-05
   5.25000000E+01   5.00000000E-01   5.00000000E-01   1.08548050E+05   4.62407682E+04   3.56942805E-04   1.69310973E-06   1.37166877E-06   0.00000000E+00   2.00601223E+04   1.76165471E+04   6.14016521E+04   3.46036804E+04   1.42946018E+06   2.45078613E-03   4.16151948E-03   1.15343700E-01   4.56549468E+04   4.63431642E+04   2.28378978E-04   3.47617441E+02   2.24213165E+02   3.68889241E-05   4.29433419E-05   2.36636507E-05
   8.75000000E+01   5.00000000E-01   5.00000000E-01   1.08548051E+05   4.69373493E+04   3.56942999E-04   1.69100198E-06   1.37887161E-06   0.00000000E+00   2.00601230E+04   1.76167702E+04   6.14016522E+04   3.61552476E+04   1.35325990E+06   2.34268990E-03   2.89055346E-01   1.18628713E-01   4.59280042E+04   4.63431642E+04   2.32460206E-04   3.47617439E+02   2.24213517E+02   3.68889241E-05   4.29449968E-05   2.36709437E-05
   1.22500000E+02   5.00000000E-01   5.00000000E-01   1.08548051E+05   4.72851577E+04   3.56943212E-04   1.55673230E-06   1.29998959E-06   0.00000000E+00   2.00601234E+04   1.76168510E+04   6.14016523E+04   3.68661543E+04   1.31834280E+06   3.02636918E-03   1.03019538E+01   1.24298281E-01   4.59808293E+04   4.63431642E+04   2.37064247E-04   3.47617439E+02   2.24213943E+02   3.68889241E-05   4.29456996E-05   2.36706164E-05
   1.57500000E+02   5.00000000E-01   5.00000000E-01   1.08548052E+05   4.74652678E+04   3.56943445E-04   1.40889624E-06   1.20770074E-06   0.00000000E+00   2.00601237E+04   1.76168750E+04   6.14016525E+04   3.71404905E+04   1.30481250E+06   4.51752516E-03   1.89734976E+02   1.31666217E-01   4.58948992E+04   4.63431642E+04   2.42284068E-04   3.47617438E+02   2.24214436E+02   3.68889241E-05   4.29459148E-05   2.36678988E-05
   1.92500000E+02   5.00000000E-01   5.00000000E-01   1.08548052E+05   4.75736035E+04   3.56943698E-04   1.28318407E-06   1.12605076E-06   0.00000000E+00   2.00601239E+04   1.76168781E+04   6.14016527E+04   3.72206555E+04   1.30017896E+06   7.42193877E-03   2.37802659E+03   1.40471889E-01   4.57613138E+04   4.63431642E+04   2.48223721E-04   3.47617438E+02   2.24214991E+02   3.68889241E-05   4.29458477E-05   2.36646602E-05
   2.27500000E+02   5.00000000E-01   5.00000000E-01   1.08548053E+05   4.76566566E+04   3.56943989E-04   1.19534419E-06   1.06779197E-06   0.00000000E+00   2.00601242E+04   1.76168737E+04   6.14016531E+04   3.71544378E+04   1.29760844E+06   1.27811932E-02   2.06736893E+04   1.50428276E-01   4.56497651E+04   4.63431642E+04   2.55000965E-04   3.47617438E+02   2.24215605E+02   3.68889241E-05   4.29456012E-05   2.36613510E-05
   2.62500000E+02   5.00000000E-01   5.00000000E-01   1.08548053E+05   4.77394857E+04   3.56944358E-04   1.15998692E-06   1.04573795E-06   0.00000000E+00   2.00601246E+04   1.76168671E+04   6.14016537E+04   3.68409901E+04   1.29280375E+06   2.21078877E-02   8.41423622E+04   1.61276532E-01   4.56271147E+04   4.63431642E+04   2.62749392E-04   3.47617438E+02   2.24216272E+02   3.68889241E-05   4.29452325E-05   2.36578894E-05
   2.97500000E+02   5.00000000E-01   5.00000000E-01   1.08548054E+05   4.78158952E+04   3.56944791E-04   1.15001936E-06   1.04180216E-06   0.00000000E+00   2.00601251E+04   1.76168574E+04   6.14016544E+04   3.63654015E+04   1.28776747E+06   3.75407779E-02   1.73360401E+05   1.72789755E-01   4.56496943E+04   4.63431642E+04   2.71631653E-04   3.47617438E+02   2.24216991E+02   3.68889241E-05   4.29447714E-05   2.36543873E-05
   3.32500000E+02   5.00000000E-01   5.00000000E-01   1.08548056E+05   4.78812482E+04   3.56945266E-04   1.14718066E-06   1.04301687E-06   0.00000000E+00   2.00601256E+04   1.76168441E+04   6.14016554E+04   3.58574906E+04   1.28365304E+06   6.20706031E-02   2.64669693E+05   1.84699062E-01   4.56834952E+04   4.63431642E+04   2.81846251E-04   3.47617438E+02   2.24217759E+02   3.68889241E-05   4.29442432E-05   2.36509559E-05
   3.67500000E+02   5.00000000E-01   5.00000000E-01   1.08548057E+05   4.79392573E+04   3.56945777E-04   1.14736138E-06   1.04644797E-06   0.00000000E+00   2.00601262E+04   1.76168286E+04   6.14016567E+04   3.53617236E+04   1.28008436E+06   9.97337514E-02   3.52389896E+05   1.96724661E-01   4.57220080E+04   4.63431642E+04   2.93634426E-04   3.47617438E+02   2.24218573E+02   3.68889241E-05   4.29436714E-05   2.36476258E-05
   4.02500000E+02   5.00000000E-01   5.00000000E-01   1.08548059E+05   4.79927924E+04   3.56946322E-04   1.14883209E-06   1.05084340E-06   0.00000000E+00   2.00601267E+04   1.76168119E+04   6.14016586E+04   3.48908587E+04   1.27678220E+06   1.55524313E-01   4.35429541E+05   2.08749711E-01   4.57632137E+04   4.63431642E+04   3.07291095E-04   3.47617438E+02   2.24219433E+02   3.68889241E-05   4.29430738E-05   2.36443952E-05
   4.37500000E+02   5.00000000E-01   5.00000000E-01   1.08548061E+05   4.80432594E+04   3.56946902E-04   1.15004159E-06   1.05503197E-06   0.00000000E+00   2.00601273E+04   1.76167945E+04   6.14016610E+04   3.44481634E+04   1.27363189E+06   2.35334363E-01   5.13644706E+05   2.20819306E-01   4.58056763E+04   4.63431642E+04   3.23179635E-04   3.47617438E+02   2.24220343E+02   3.68889241E-05   4.29424643E-05   2.36412562E-05
   4.72500000E+02   5.00000000E-01   5.00000000E-01   1.08548063E+05   4.80913111E+04   3.56947516E-04   1.15019840E-06   1.05838771E-06   0.00000000E+00   2.00601279E+04   1.76167768E+04   6.14016641E+04   3.40338446E+04   1.27059593E+06   3.45667085E-01   5.87121139E+05   2.32977478E-01   4.58481018E+04   4.63431642E+04   3.41751623E-04   3.47617438E+02   2.24221306E+02   3.68889241E-05   4.29418540E-05   2.36382031E-05
   5.07500000E+02   5.00000000E-01   5.00000000E-01   1.08548066E+05   4.81373073E+04   3.56948165E-04   1.14926973E-06   1.06085963E-06   0.00000000E+00   2.00601284E+04   1.76167588E+04   6.14016683E+04   3.36471263E+04   1.26766002E+06   4.94348132E-01   6.56023506E+05   2.45225297E-01   4.58893489E+04   4.63431642E+04   3.63573321E-04   3.47617438E+02   2.24222328E+02   3.68889241E-05   4.29412518E-05   2.36352335E-05
   5.42500000E+02   5.00000000E-01   5.00000000E-01   1.08548069E+05   4.81815513E+04   3.56948852E-04   1.14755180E-06   1.06265880E-06   0.00000000E+00   2.00601290E+04   1.76167408E+04   6.14016738E+04   3.32869434E+04   1.26480683E+06   6.91152478E-01   7.20570582E+05   2.57444398E-01   4.59284531E+04   4.63431642E+04   3.89361618E-04   3.47617438E+02   2.24223411E+02   3.68889241E-05   4.29406648E-05   2.36323472E-05
   5.77500000E+02   5.00000000E-01   5.00000000E-01   1.08548073E+05   4.82243218E+04   3.56949578E-04   1.14548694E-06   1.06412405E-06   0.00000000E+00   2.00601296E+04   1.76167229E+04   6.14016809E+04   3.29521236E+04   1.26201433E+06   9.47673320E-01   7.81012356E+05   2.69379903E-01   4.59646363E+04   4.63431642E+04   4.20033276E-04   3.47617438E+02   2.24224560E+02   3.68889241E-05   4.29400983E-05   2.36295450E-05
   6.12500000E+02   5.00000000E-01   5.00000000E-01   1.08548077E+05   4.82657758E+04   3.56950345E-04   1.14363423E-06   1.06570390E-06   0.00000000E+00   2.00601302E+04   1.76167052E+04   6.14016901E+04   3.26414168E+04   1.25926565E+06   1.27732987E+00   8.37594624E+05   2.80822567E-01   4.59973087E+04   4.63431642E+04   4.56773140E-04   3.47617438E+02   2.24225777E+02   3.68889241E-05   4.29395564E-05   2.36268286E-05
   6.47500000E+02   5.00000000E-01   5.00000000E-01   1.08548082E+05   4.83058950E+04   3.56951156E-04   1.14269152E-06   1.06797923E-06   0.00000000E+00   2.00601307E+04   1.76166877E+04   6.14017020E+04   3.23534930E+04   1.25655427E+06   1.69399966E+00   8.90543009E+05   2.91814310E-01   4.60260743E+04   4.63431642E+04   5.01129763E-04   3.47617438E+02   2.24227075E+02   3.68889241E-05   4.29390419E-05   2.36242000E-05
   6.82500000E+02   5.00000000E-01   5.00000000E-01   1.08548088E+05   4.83445974E+04   3.56952014E-04   1.14352802E-06   1.07169512E-06   0.00000000E+00   2.00601313E+04   1.76166705E+04   6.14017175E+04   3.20870282E+04   1.25387553E+06   2.21226666E+00   9.40076276E+05   3.02575723E-01   4.60507258E+04   4.63431642E+04   5.55151291E-04   3.47617438E+02   2.24228471E+02   3.68889241E-05   4.29385567E-05   2.36216614E-05
   7.17500000E+02   5.00000000E-01   5.00000000E-01   1.08548095E+05   4.83819260E+04   3.56952922E-04   1.14722238E-06   1.07779842E-06   0.00000000E+00   2.00601319E+04   1.76166535E+04   6.14017374E+04   3.18408458E+04   1.25120946E+06   2.85157606E+00   9.86438571E+05   3.13262430E-01   4.60712076E+04   4.63431642E+04   6.21581393E-04   3.47617438E+02   2.24229984E+02   3.68889241E-05   4.29381019E-05   2.36192142E-05
   7.52500000E+02   5.00000000E-01   5.00000000E-01   1.08548102E+05   4.84180106E+04   3.56953886E-04   1.15515458E-06   1.08752139E-06   0.00000000E+00   2.00601324E+04   1.76166368E+04   6.14017634E+04   3.16138872E+04   1.24852823E+06   3.63483042E+00   1.02988046E+06   3.23927394E-01   4.60875907E+04   4.63431642E+04   7.04145811E-04   3.47617438E+02   2.24231637E+02   3.68889241E-05   4.29376779E-05   2.36168585E-05
   7.87500000E+02   5.00000000E-01   5.00000000E-01   1.08548111E+05   4.84530158E+04   3.56954912E-04   1.16914326E-06   1.10250704E-06   0.00000000E+00   2.00601330E+04   1.76166204E+04   6.14017970E+04   3.14052092E+04   1.24580253E+06   4.59149199E+00   1.07063924E+06   3.34588408E-01   4.61000342E+04   4.63431642E+04   8.07977999E-04   3.47617438E+02   2.24233456E+02   3.68889241E-05   4.29372846E-05   2.36145934E-05
   8.22500000E+02   5.00000000E-01   5.00000000E-01   1.08548122E+05   4.84871244E+04   3.56956007E-04   1.19167304E-06   1.12501543E-06   0.00000000E+00   2.00601335E+04   1.76166044E+04   6.14018408E+04   3.12139880E+04   1.24300456E+06   5.75753053E+00   1.10892897E+06   3.45230876E-01   4.61087590E+04   4.63431642E+04   9.40262081E-04   3.47617438E+02   2.24235476E+02   3.68889241E-05   4.29369213E-05   2.36124170E-05
   8.57500000E+02   5.00000000E-01   5.00000000E-01   1.08548134E+05   4.85205512E+04   3.56957181E-04   1.22625164E-06   1.15824824E-06   0.00000000E+00   2.00601340E+04   1.76165886E+04   6.14018980E+04   3.10395574E+04   1.24010714E+06   7.18004488E+00   1.14493727E+06   3.55801750E-01   4.61140142E+04   4.63431642E+04   1.11122158E-03   3.47617437E+02   2.24237739E+02   3.68889241E-05   4.29365869E-05   2.36103265E-05
   8.92500000E+02   5.00000000E-01   5.00000000E-01   1.08548150E+05   4.85535243E+04   3.56958446E-04   1.27799995E-06   1.20688457E-06   0.00000000E+00   2.00601345E+04   1.76165731E+04   6.14019731E+04   3.08814365E+04   1.23708558E+06   8.91781585E+00   1.17881525E+06   3.66193362E-01   4.61160609E+04   4.63431642E+04   1.33566901E-03   3.47617437E+02   2.24240302E+02   3.68889241E-05   4.29362802E-05   2.36083184E-05
   9.27500000E+02   5.00000000E-01   5.00000000E-01   1.08548168E+05   4.85862794E+04   3.56959820E-04   1.35462385E-06   1.27796334E-06   0.00000000E+00   2.00601350E+04   1.76165580E+04   6.14020722E+04   3.07393930E+04   1.23391670E+06   1.10504148E+01   1.21067056E+06   3.76256522E-01   4.61151446E+04   4.63431642E+04   1.63548452E-03   3.47617437E+02   2.24243240E+02   3.68889241E-05   4.29359997E-05   2.36063889E-05
   9.62500000E+02   5.00000000E-01   5.00000000E-01   1.08548192E+05   4.86190554E+04   3.56961321E-04   1.46807319E-06   1.38238821E-06   0.00000000E+00   2.00601355E+04   1.76165430E+04   6.14022042E+04   3.06135135E+04   1.23057723E+06   1.36838943E+01   1.24056161E+06   3.85828275E-01   4.61114814E+04   4.63431642E+04   2.04366793E-03   3.47617436E+02   2.24246662E+02   3.68889241E-05   4.29357436E-05   2.36045336E-05
   9.97500000E+02   5.00000000E-01   5.00000000E-01   1.08548223E+05   4.86520679E+04   3.56962978E-04   1.63742524E-06   1.53754234E-06   0.00000000E+00   2.00601359E+04   1.76165283E+04   6.14023822E+04   3.05043020E+04   1.22704215E+06   1.69504814E+01   1.26848731E+06   3.94784503E-01   4.61052685E+04   4.63431642E+04   2.61111930E-03   3.47617435E+02   2.24250727E+02   3.68889241E-05   4.29355103E-05   2.36027478E-05
   1.03250000E+03   5.00000000E-01   5.00000000E-01   1.08548263E+05   4.86854528E+04   3.56964823E-04   1.89393782E-06   1.77187389E-06   0.00000000E+00   2.00601364E+04   1.76165138E+04   6.14026265E+04   3.04128747E+04   1.22328415E+06   2.10167251E+01   1.29435857E+06   4.03123788E-01   4.60966871E+04   4.63431642E+04   3.41827211E-03   3.47617434E+02   2.24255685E+02   3.68889241E-05   4.29352978E-05   2.36010268E-05
   1.06750000E+03   5.00000000E-01   5.00000000E-01   1.08548317E+05   4.87192703E+04   3.56966899E-04   2.28987509E-06   2.13292696E-06   0.00000000E+00   2.00601368E+04   1.76164995E+04   6.14029705E+04   3.03413861E+04   1.21926189E+06   2.61053917E+01   1.31796869E+06   4.10918441E-01   4.60858855E+04   4.63431642E+04   4.59559552E-03   3.47617433E+02   2.24261949E+02   3.68889241E-05   4.29351044E-05   2.35993652E-05
   1.10250000E+03   5.00000000E-01   5.00000000E-01   1.08548389E+05   4.87534435E+04   3.56969256E-04   2.91333513E-06   2.70092386E-06   0.00000000E+00   2.00601372E+04   1.76164851E+04   6.14034737E+04   3.02938774E+04   1.21490574E+06   3.25371876E+01   1.33890610E+06   4.18223886E-01   4.60729357E+04   4.63431642E+04   6.36078164E-03   3.47617431E+02   2.24270248E+02   3.68889241E-05   4.29349279E-05   2.35977572E-05
   1.13750000E+03   5.00000000E-01   5.00000000E-01   1.08548334E+05   4.76506359E+04   3.56965317E-04   3.10117093E-06   2.89199754E-06   1.78486048E+07   2.00601224E+04   1.76161054E+04   6.14044253E+04   2.89294891E+04   3.59511010E+05   3.54076125E+02   3.46370328E+06   6.22559696E-01   4.52397398E+04   4.63431642E+04   9.06997399E-03   3.47617431E+02   2.24287207E+02   3.68889241E-05   4.29347452E-05   2.35774344E-05
   1.17250000E+03   5.00000000E-01   5.00000000E-01   1.08548459E+05   4.81406553E+04   3.56969548E-04   4.43234685E-06   4.11288870E-06   0.00000000E+00   2.00601238E+04   1.76161897E+04   6.14056790E+04   2.91904596E+04   1.29587674E+06   6.63963990E+01   1.25436114E+06   4.88287479E-01   4.52390085E+04   4.63431642E+04   1.34016589E-02   3.47617427E+02   2.24303693E+02   3.68889241E-05   4.29346783E-05   2.35788498E-05
   1.20750000E+03   5.00000000E-01   5.00000000E-01   1.08548623E+05   4.85969401E+04   3.56973646E-04   6.50815387E-06   6.02336351E-06   0.00000000E+00   2.00601248E+04   1.76162485E+04   6.14084669E+04   2.94788626E+04   1.25021448E+06   7.50932860E+01   1.35305852E+06   4.72801258E-01   4.52387650E+04   4.63431642E+04   2.05983506E-02   3.47617426E+02   2.24339786E+02   3.68889241E-05   4.29345653E-05   2.35794316E-05
   1.24250000E+03   5.00000000E-01   5.00000000E-01   1.08548831E+05   4.88556662E+04   3.56978123E-04   9.38602608E-06   8.69447910E-06   0.00000000E+00   2.00601256E+04   1.76162748E+04   6.14179831E+04   2.99465169E+04   1.21640212E+06   9.93096337E+01   1.38623078E+06   4.70896235E-01   4.52387783E+04   4.63431642E+04   3.30250889E-02   3.47617424E+02   2.24453989E+02   3.68889241E-05   4.29344201E-05   2.35794709E-05
   1.27750000E+03   5.00000000E-01   5.00000000E-01   1.08549078E+05   4.88980264E+04   3.56983254E-04   1.23782100E-05   1.15262298E-05   0.00000000E+00   2.00601262E+04   1.76162732E+04   6.15201024E+04   3.12448135E+04   1.19167457E+06   1.60271004E+02   1.25526768E+06   4.73219753E-01   4.52391292E+04   4.63431642E+04   5.53741057E-02   3.47617422E+02   2.25420360E+02   3.68889241E-05   4.29342463E-05   2.35791096E-05
   1.31250000E+03   5.00000000E-01   5.00000000E-01   1.08549349E+05   4.88707571E+04   3.56989898E-04   1.38684114E-05   1.30384454E-05   0.00000000E+00   2.00601268E+04   1.76162611E+04   6.29304461E+04   3.30407865E+04   1.17515323E+06   1.81146356E+02   9.22874503E+05   4.63186909E-01   4.52480274E+04   4.63431642E+04   9.72527946E-02   3.47617420E+02   2.32734311E+02   3.68889241E-05   4.29340832E-05   2.35786501E-05
   1.34750000E+03   5.00000000E-01   5.00000000E-01   1.08549636E+05   4.88793384E+04   3.57000106E-04   1.30110431E-05   1.23875369E-05   0.00000000E+00   2.00601275E+04   1.76162496E+04   6.53853824E+04   3.33513940E+04   1.14917199E+06   1.16064828E+02   7.73137447E+05   4.43422052E-01   4.57315462E+04   4.63431642E+04   1.78904966E-01   3.47617417E+02   2.38874671E+02   3.68889241E-05   4.29339603E-05   2.35782291E-05
   1.38250000E+03   5.00000000E-01   5.00000000E-01   1.08549868E+05   4.82963712E+04   3.57009717E-04   1.06338686E-05   1.02625815E-05   5.42951291E+06   2.00601239E+04   1.76161147E+04   6.76308770E+04   3.28216253E+04   8.67467464E+05   7.61270408E+02   1.33433059E+06   5.52671251E-01   4.66225436E+04   4.63431642E+04   3.44709124E-01   3.47617415E+02   2.40932865E+02   3.68889241E-05   4.29338598E-05   2.35738742E-05
   1.41750000E+03   5.00000000E-01   5.00000000E-01   1.08550166E+05   4.84722043E+04   3.57024891E-04   8.44309776E-06   8.24844429E-06   5.91915130E+05   2.00601242E+04   1.76161191E+04   6.96737104E+04   3.26849770E+04   1.08813107E+06   6.60545393E+02   7.20463326E+05   5.20984129E-01   4.74411128E+04   4.63431642E+04   7.01273725E-01   3.47617413E+02   2.41494960E+02   3.68889241E-05   4.29337987E-05   2.35733972E-05
   1.45250000E+03   5.00000000E-01   5.00000000E-01   1.08550480E+05   4.86398990E+04   3.57043381E-04   6.69993803E-06   6.61342218E-06   1.56637996E+05   2.00601245E+04   1.76161216E+04   7.16086441E+04   3.26039937E+04   1.06670396E+06   5.96740047E+02   6.76392671E+05   4.94371726E-01   4.82048041E+04   4.63431642E+04   1.51267761E+00   3.47617411E+02   2.41474264E+02   3.68889241E-05   4.29337424E-05   2.35729995E-05
   1.48750000E+03   5.00000000E-01   5.00000000E-01   1.08550812E+05   4.87432302E+04   3.57066043E-04   5.38868381E-06   5.36402379E-06   1.02165186E+01   2.00601248E+04   1.76161166E+04   7.34985444E+04   3.25208304E+04   1.03682754E+06   6.76478899E+02   6.49665022E+05   4.79431388E-01   4.89357158E+04   4.63431642E+04   3.47258677E+00   3.47617409E+02   2.41160104E+02   3.68889241E-05   4.29336911E-05   2.35725355E-05
   1.52250000E+03   5.00000000E-01   5.00000000E-01   1.08551159E+05   4.87746440E+04   3.57093971E-04   4.40043723E-06   4.40974555E-06   1.34075769E-08   2.00601249E+04   1.76161038E+04   7.53711230E+04   3.24209223E+04   1.00588167E+06   9.35393941E+02   6.22289159E+05   4.75775867E-01   4.96438709E+04   4.63431642E+04   8.51564141E+00   3.47617409E+02   2.40674034E+02   3.68889241E-05   4.29336460E-05   2.35719815E-05
   1.55750000E+03   5.00000000E-01   5.00000000E-01   1.08551519E+05   4.87715344E+04   3.57128627E-04   3.64627793E-06   3.67309591E-06   1.20807887E-19   2.00601250E+04   1.76160875E+04   7.72266769E+04   3.23182910E+04   9.78927901E+05   1.46867726E+03   5.82311400E+05   4.78922904E-01   5.03296739E+04   4.63431642E+04   2.23970385E+01   3.47617410E+02   2.40056602E+02   3.68889241E-05   4.29336078E-05   2.35713903E-05
   1.59250000E+03   5.00000000E-01   5.00000000E-01   1.08551890E+05   4.87582028E+04   3.57171829E-04   3.06362381E-06   3.09833816E-06   2.29230778E-31   2.00601250E+04   1.76160700E+04   7.90652110E+04   3.22294609E+04   9.53534306E+05   2.78290495E+03   5.31507132E+05   4.88814991E-01   5.09942812E+04   4.63431642E+04   6.34447021E+01   3.47617411E+02   2.39362682E+02   3.68889241E-05   4.29335759E-05   2.35707928E-05
   1.62750000E+03   5.00000000E-01   5.00000000E-01   1.08552269E+05   4.87501745E+04   3.57225876E-04   2.60930740E-06   2.64643285E-06   6.10678753E-43   2.00601251E+04   1.76160531E+04   8.08976256E+04   3.21679507E+04   9.27878998E+05   6.08134498E+03   4.64861021E+05   5.01336502E-01   5.16400872E+04   4.63431642E+04   1.94326080E+02   3.47617413E+02   2.38646355E+02   3.68889241E-05   4.29335494E-05   2.35702168E-05
   1.66250000E+03   5.00000000E-01   5.00000000E-01   1.08552657E+05   4.87534789E+04   3.57293674E-04   2.25397612E-06   2.29053340E-06   3.59026016E-52   2.00601251E+04   1.76160381E+04   8.27343382E+04   3.21641843E+04   9.00606223E+05   1.30899087E+04   3.69924673E+05   5.11220363E-01   5.22670415E+04   4.63431642E+04   6.44907933E+02   3.47617415E+02   2.37945159E+02   3.68889241E-05   4.29335267E-05   2.35696980E-05
   1.69750000E+03   5.00000000E-01   5.00000000E-01   1.08553054E+05   4.87587719E+04   3.57378887E-04   1.97755294E-06   2.01208205E-06   7.06054707E-58   2.00601253E+04   1.76160247E+04   8.46251846E+04   3.22456228E+04   8.71975917E+05   2.14575701E+04   2.53219682E+05   5.14532989E-01   5.28797529E+04   4.63431643E+04   2.30417683E+03   3.47617417E+02   2.37343244E+02   3.68889241E-05   4.29335066E-05   2.35692434E-05
   1.73250000E+03   5.00000000E-01   5.00000000E-01   1.08553466E+05   4.87509370E+04   3.57486222E-04   1.76478368E-06   1.79673305E-06   4.11463755E-60   2.00601256E+04   1.76160128E+04   8.65912615E+04   3.23226849E+04   8.42821109E+05   3.18341261E+04   1.20182939E+05   5.00522765E-01   5.34877012E+04   4.63431643E+04   8.51290695E+03   3.47617420E+02   2.36799617E+02   3.68889241E-05   4.29334877E-05   2.35688781E-05
   1.76750000E+03   5.00000000E-01   5.00000000E-01   1.08553894E+05   4.87285459E+04   3.57621188E-04   1.60150694E-06   1.63081037E-06   1.62973168E-61   2.00601259E+04   1.76159998E+04   8.87564798E+04   3.23268413E+04   8.14695753E+05   3.45351896E+04   3.03251673E+04   4.73918265E-01   5.41995680E+04   4.63431644E+04   2.82633850E+04   3.47617422E+02   2.36351958E+02   3.68889241E-05   4.29334716E-05   2.35685171E-05
   1.80250000E+03   5.00000000E-01   5.00000000E-01   1.08554337E+05   4.86793298E+04   3.57790424E-04   1.47382879E-06   1.50059816E-06   1.39589787E-64   2.00601262E+04   1.76159829E+04   9.11339955E+04   3.22280264E+04   7.90382451E+05   2.60737721E+04   1.29005680E+03   4.35802627E-01   5.49621378E+04   4.63431644E+04   6.71297135E+04   3.47617424E+02   2.35905366E+02   3.68889241E-05   4.29334584E-05   2.35680833E-05
   1.83750000E+03   5.00000000E-01   5.00000000E-01   1.08554794E+05   4.86030989E+04   3.58002424E-04   1.36971773E-06   1.39406329E-06   9.29977559E-69   2.00601265E+04   1.76159624E+04   9.35730203E+04   3.20284626E+04   7.69355434E+05   1.34549370E+04   4.39943870E+00   3.85327175E-01   5.56913420E+04   4.63431645E+04   1.06293413E+05   3.47617426E+02   2.35374237E+02   3.68889241E-05   4.29334470E-05   2.35675878E-05
   1.87250000E+03   5.00000000E-01   5.00000000E-01   1.08555267E+05   4.85213115E+04   3.58267652E-04   1.28029231E-06   1.30224534E-06   8.11996353E-72   2.00601269E+04   1.76159412E+04   9.60315011E+04   3.16612477E+04   7.47505174E+05   4.79452546E+03   1.11806989E-03   3.22837618E-01   5.64307342E+04   4.63431646E+04   1.26635611E+05   3.47617427E+02   2.34756817E+02   3.68889241E-05   4.29334371E-05   2.35670905E-05
   1.90750000E+03   5.00000000E-01   5.00000000E-01   1.08555748E+05   4.84489051E+04   3.58598379E-04   1.20000019E-06   1.21950357E-06   7.57731223E-74   2.00601274E+04   1.76159214E+04   9.86618898E+04   3.10866181E+04   7.23667662E+05   5.21215921E+01   4.99634252E-08   2.41769946E-01   5.72644632E+04   4.63431647E+04   1.30008737E+05   3.47617429E+02   2.34140089E+02   3.68889241E-05   4.29334290E-05   2.35666319E-05
   1.94250000E+03   5.00000000E-01   5.00000000E-01   1.08556236E+05   4.83821381E+04   3.59009873E-04   1.12639578E-06   1.14336152E-06   4.55228321E-74   2.00601280E+04   1.76159042E+04   1.01347081E+05   3.02935972E+04   6.99558931E+05   2.24550090E-02   3.25394810E-12   1.68230197E-01   5.81138442E+04   4.63431649E+04   1.25067030E+05   3.47617430E+02   2.33423987E+02   3.68889241E-05   4.29334222E-05   2.35662608E-05
   1.97750000E+03   5.00000000E-01   5.00000000E-01   1.08556717E+05   4.83313250E+04   3.59519594E-04   1.05884597E-06   1.07320266E-06   4.61904775E-75   2.00601285E+04   1.76158897E+04   1.03966650E+05   2.95014303E+04   6.76850216E+05   5.72451829E-03   9.66130495E-14   1.51407930E-01   5.90022915E+04   4.63431650E+04   1.17367520E+05   3.47617430E+02   2.32629668E+02   3.68889241E-05   4.29334176E-05   2.35659531E-05
   2.01250000E+03   5.00000000E-01   5.00000000E-01   1.08557178E+05   4.83227588E+04   3.60149167E-04   9.97713673E-07   1.00945213E-06   1.01652134E-77   2.00601288E+04   1.76158789E+04   1.06244863E+05   2.87738197E+04   6.59022653E+05   5.13251959E-03   3.62701345E-14   1.47892112E-01   5.97640538E+04   4.63431653E+04   1.09300759E+05   3.47617431E+02   2.31737607E+02   3.68889241E-05   4.29334154E-05   2.35656987E-05
   2.04750000E+03   5.00000000E-01   5.00000000E-01   1.08557628E+05   4.83231273E+04   3.60926220E-04   9.43924700E-07   9.53145676E-07   1.96618635E-79   2.00601291E+04   1.76158707E+04   1.07807057E+05   2.82234338E+04   6.49367187E+05   4.76362527E-03   2.24415968E-14   1.45960329E-01   6.01795180E+04   4.63431656E+04   1.01682247E+05   3.47617431E+02   2.30780076E+02   3.68889241E-05   4.29334138E-05   2.35655099E-05
   2.08250000E+03   5.00000000E-01   5.00000000E-01   1.08558073E+05   4.83240525E+04   3.61883652E-04   8.97968919E-07   9.04866581E-07   3.01639403E-80   2.00601296E+04   1.76158642E+04   1.08821660E+05   2.78584657E+04   6.43490298E+05   4.44160505E-03   1.66678576E-14   1.44893875E-01   6.04264322E+04   4.63431660E+04   9.46885049E+04   3.47617432E+02   2.29909567E+02   3.68889241E-05   4.29334126E-05   2.35653688E-05
   2.11750000E+03   5.00000000E-01   5.00000000E-01   1.08558519E+05   4.83251451E+04   3.63061165E-04   8.59799996E-07   8.64633921E-07   1.38468091E-80   2.00601300E+04   1.76158589E+04   1.09523457E+05   2.76128800E+04   6.39098957E+05   4.14121650E-03   1.32322846E-14   1.44428890E-01   6.06062430E+04   4.63431666E+04   8.82882065E+04   3.47617432E+02   2.29169907E+02   3.68889241E-05   4.29334116E-05   2.35652572E-05
   2.15250000E+03   5.00000000E-01   5.00000000E-01   1.08558971E+05   4.83264111E+04   3.64506757E-04   8.28895135E-07   8.31957972E-07   1.13726410E-80   2.00601306E+04   1.76158544E+04   1.10043993E+05   2.74380536E+04   6.35485003E+05   3.86346886E-03   1.06624045E-14   1.44290310E-01   6.07503248E+04   4.63431673E+04   8.23974588E+04   3.47617432E+02   2.28548556E+02   3.68889241E-05   4.29334107E-05   2.35651642E-05
   2.18750000E+03   5.00000000E-01   5.00000000E-01   1.08559437E+05   4.83279011E+04   3.66278376E-04   8.04390107E-07   8.05976629E-07   1.29662462E-80   2.00601311E+04   1.76158504E+04   1.10453698E+05   2.73061242E+04   6.32360853E+05   3.62470833E-03   8.48105617E-15   1.44145493E-01   6.08713545E+04   4.63431682E+04   7.69375240E+04   3.47617432E+02   2.28024431E+02   3.68889241E-05   4.29334099E-05   2.35650835E-05
   2.22250000E+03   5.00000000E-01   5.00000000E-01   1.08559927E+05   4.83296039E+04   3.68445941E-04   7.85260415E-07   7.85644551E-07   1.79755327E-80   2.00601317E+04   1.76158469E+04   1.10792190E+05   2.72011958E+04   6.29576480E+05   3.43635888E-03   6.57197308E-15   1.43699475E-01   6.09761294E+04   4.63431693E+04   7.18515247E+04   3.47617432E+02   2.27579055E+02   3.68889241E-05   4.29334092E-05   2.35650114E-05
   2.25750000E+03   5.00000000E-01   5.00000000E-01   1.08560448E+05   4.83313844E+04   3.71093834E-04   7.70477179E-07   7.69898833E-07   2.82080682E-80   2.00601323E+04   1.76158437E+04   1.11081606E+05   2.71142909E+04   6.27053276E+05   3.28512931E-03   4.96948727E-15   1.42859677E-01   6.10686035E+04   4.63431707E+04   6.70902399E+04   3.47617432E+02   2.27197769E+02   3.68889241E-05   4.29334085E-05   2.35649457E-05
   2.29250000E+03   5.00000000E-01   5.00000000E-01   1.08561010E+05   4.83330635E+04   3.74323946E-04   7.59113106E-07   7.57773807E-07   4.84518749E-80   2.00601329E+04   1.76158407E+04   1.11333641E+05   2.70405271E+04   6.24757083E+05   3.14151024E-03   3.70417856E-15   1.41735786E-01   6.11508083E+04   4.63431724E+04   6.26123791E+04   3.47617432E+02   2.26869122E+02   3.68889241E-05   4.29334079E-05   2.35648852E-05
   2.32750000E+03   5.00000000E-01   5.00000000E-01   1.08561621E+05   4.83345354E+04   3.78259442E-04   7.50388039E-07   7.48452205E-07   8.99369763E-80   2.00601336E+04   1.76158379E+04   1.11555162E+05   2.69770910E+04   6.22665357E+05   2.98351307E-03   2.74656619E-15   1.40479008E-01   6.12240164E+04   4.63431746E+04   5.84046473E+04   3.47617431E+02   2.26584208E+02   3.68889241E-05   4.29334073E-05   2.35648289E-05
   2.36250000E+03   5.00000000E-01   5.00000000E-01   1.08562291E+05   4.83357671E+04   3.83049388E-04   7.43677409E-07   7.41276744E-07   1.79462910E-79   2.00601343E+04   1.76158352E+04   1.11751286E+05   2.69220851E+04   6.20751506E+05   2.80326241E-03   2.03513680E-15   1.39183065E-01   6.12894539E+04   4.63431772E+04   5.44666965E+04   3.47617430E+02   2.26336062E+02   3.68889241E-05   4.29334067E-05   2.35647763E-05
   2.39750000E+03   5.00000000E-01   5.00000000E-01   1.08563031E+05   4.83367374E+04   3.88874500E-04   7.38496036E-07   7.35734886E-07   3.83929136E-79   2.00601350E+04   1.76158326E+04   1.11926304E+05   2.68740499E+04   6.18986653E+05   2.60014618E-03   1.50870296E-15   1.37885766E-01   6.13483587E+04   4.63431806E+04   5.07678244E+04   3.47617429E+02   2.26119150E+02   3.68889241E-05   4.29334062E-05   2.35647269E-05