 TITLE = "Mineral Area" 
VARIABLES = "X"          "Y"              "Z"            "Forsterite"     "Fayalite"       "Brucite"        "Lizardite"      "Chrysotile"     "Hematite"       "Magnetite(am)"  "Saponite(Ca)"   "Saponite(K)"    "Saponite(Mg)"   "Saponite(Na)"   "Beidellite(Ca)" "Beidellite(K)"  "Beidellite(Mg)" "Beidellite(Na)" "Enstatite(alph" "Ferrosilite(al" "Anorthite"      "Albite(low)"    "Clinochlore"    "Sudoite"        "Montmor(MgCa)"  "Montmor(MgK)"   "Montmor(MgMg)"  "Montmor(MgNa)"  "Kaolinite"      "Tremolite"      "Pargasite"      "Anhydrite"      "Epidote"        "Scolecite"      "Pyrite"         "FeS(am)"        "Quartz(alpha)" 
 ZONE I=         200 , J=           1 , K=           1  F=POINT
   8.75000000E+00   5.00000000E-01   5.00000000E-01   1.31374964E+05   4.79650634E+04   0.00000000E+00   0.00000000E+00   0.00000000E+00   5.64335677E+03   0.00000000E+00   3.71387770E-02   5.37315737E+04   5.19511401E-02   7.99135996E+03   3.66058195E-02   3.81156993E-02   3.74574712E-02   3.71501267E-02   2.00602023E+04   1.76157267E+04   1.16717436E+05   2.96231080E+04   3.69671715E+05   4.83984750E-03   8.07110483E-03   8.26763207E-03   8.25582521E-03   8.19100770E-03   3.42611495E+04   4.55015010E+04   4.66033960E+04   0.00000000E+00   2.90695421E+03   1.97043378E-05   6.99523973E-05   6.86161049E-05   2.35896943E-05
   2.62500000E+01   5.00000000E-01   5.00000000E-01   1.31374964E+05   4.79668560E+04   0.00000000E+00   0.00000000E+00   0.00000000E+00   5.64335674E+03   0.00000000E+00   3.72043357E-02   3.96271239E+05   5.60023430E-02   5.56144901E+04   3.66058236E-02   3.81157050E-02   3.74574898E-02   3.71501754E-02   2.00602014E+04   1.76157582E+04   1.16717436E+05   2.96724770E+04   3.62095140E+05   3.84546268E-03   8.07112962E-03   8.26823331E-03   8.25593185E-03   8.19143367E-03   3.42611514E+04   4.55240244E+04   4.66033960E+04   0.00000000E+00   2.90695421E+03   1.97043444E-05   6.99523973E-05   6.86161530E-05   2.36025990E-05
   4.37500000E+01   5.00000000E-01   5.00000000E-01   1.31374963E+05   4.79683067E+04   0.00000000E+00   0.00000000E+00   0.00000000E+00   5.64335673E+03   0.00000000E+00   3.72299173E-02   4.92563214E+05   5.76048919E-02   7.75917568E+04   3.66058935E-02   3.81157993E-02   3.74578143E-02   3.71510023E-02   2.00602008E+04   1.76157811E+04   1.16717436E+05   2.98328969E+04   3.52669128E+05   2.58141252E-03   8.07134380E-03   8.27315851E-03   8.25685209E-03   8.19500695E-03   3.42611693E+04   4.55345791E+04   4.66033960E+04   0.00000000E+00   2.90695421E+03   1.97043914E-05   6.99523973E-05   6.86161728E-05   2.36132379E-05
   6.12500000E+01   5.00000000E-01   5.00000000E-01   1.31374963E+05   4.79698822E+04   0.00000000E+00   0.00000000E+00   0.00000000E+00   5.64335673E+03   0.00000000E+00   3.72548889E-02   6.03418453E+05   5.92595449E-02   1.08680105E+05   3.66061193E-02   3.81160865E-02   3.74588601E-02   3.71535885E-02   2.00602006E+04   1.76158045E+04   1.16717436E+05   3.00642659E+04   3.39448043E+05   1.47207209E-03   8.07186248E-03   8.28433337E-03   8.25907812E-03   8.20335565E-03   3.42612058E+04   4.55429956E+04   4.66033960E+04   0.00000000E+00   2.90695421E+03   1.97044836E-05   6.99523973E-05   6.86161882E-05   2.36215628E-05
   7.87500000E+01   5.00000000E-01   5.00000000E-01   1.31374963E+05   4.79717429E+04   0.00000000E+00   0.00000000E+00   0.00000000E+00   5.64335672E+03   0.00000000E+00   3.72875577E-02   7.41803842E+05   6.14427725E-02   1.53777949E+05   3.66064947E-02   3.81165328E-02   3.74605958E-02   3.71577336E-02   2.00602006E+04   1.76158287E+04   1.16717436E+05   3.03008635E+04   3.25425507E+05   8.43106811E-04   8.07259414E-03   8.29894133E-03   8.26221468E-03   8.21465357E-03   3.42612508E+04   4.55571397E+04   4.66033960E+04   0.00000000E+00   2.90695421E+03   1.97045966E-05   6.99523973E-05   6.86162016E-05   2.36276191E-05
   9.62500000E+01   5.00000000E-01   5.00000000E-01   1.31374963E+05   4.79739411E+04   0.00000000E+00   0.00000000E+00   0.00000000E+00   5.64335671E+03   0.00000000E+00   3.73251266E-02   8.59264240E+05   6.39998334E-02   2.06231452E+05   3.66069586E-02   3.81170441E-02   3.74627367E-02   3.71626506E-02   2.00602007E+04   1.76158534E+04   1.16717436E+05   3.05050984E+04   3.13168137E+05   5.59863803E-04   8.07339508E-03   8.31357162E-03   8.26564420E-03   8.22644219E-03   3.42612963E+04   4.55748949E+04   4.66033960E+04   0.00000000E+00   2.90695421E+03   1.97047108E-05   6.99523973E-05   6.86162130E-05   2.36317866E-05
   1.13750000E+02   5.00000000E-01   5.00000000E-01   1.31374963E+05   4.79764835E+04   0.00000000E+00   0.00000000E+00   0.00000000E+00   5.64335671E+03   0.00000000E+00   3.73638378E-02   9.32126060E+05   6.67023250E-02   2.59693614E+05   3.66074250E-02   3.81175128E-02   3.74648844E-02   3.71673564E-02   2.00602009E+04   1.76158784E+04   1.16717436E+05   3.06600931E+04   3.03897760E+05   4.34819776E-04   8.07413574E-03   8.32566453E-03   8.26881123E-03   8.23671518E-03   3.42613354E+04   4.55940812E+04   4.66033960E+04   0.00000000E+00   2.90695421E+03   1.97048110E-05   6.99523973E-05   6.86162227E-05   2.36345615E-05
   1.31250000E+02   5.00000000E-01   5.00000000E-01   1.31374963E+05   4.79793831E+04   0.00000000E+00   0.00000000E+00   0.00000000E+00   5.64335670E+03   0.00000000E+00   3.74021332E-02   9.59756466E+05   6.94511509E-02   3.10582206E+05   3.66078248E-02   3.81178674E-02   3.74667201E-02   3.71711369E-02   2.00602011E+04   1.76159039E+04   1.16717436E+05   3.07650340E+04   2.97709996E+05   3.76900932E-04   8.07474168E-03   8.33412585E-03   8.27139764E-03   8.24447539E-03   3.42613639E+04   4.56133997E+04   4.66033960E+04   0.00000000E+00   2.90695421E+03   1.97048885E-05   6.99523973E-05   6.86162310E-05   2.36363907E-05
   1.48750000E+02   5.00000000E-01   5.00000000E-01   1.31374963E+05   4.79826683E+04   0.00000000E+00   0.00000000E+00   0.00000000E+00   5.64335669E+03   0.00000000E+00   3.74399715E-02   9.51055290E+05   7.22467479E-02   3.57395002E+05   3.66081265E-02   3.81180880E-02   3.74681004E-02   3.71737316E-02   2.00602013E+04   1.76159301E+04   1.16717436E+05   3.08279192E+04   2.94115771E+05   3.48811102E-04   8.07519529E-03   8.33907345E-03   8.27332917E-03   8.24964395E-03   3.42613812E+04   4.56321815E+04   4.66033960E+04   0.00000000E+00   2.90695421E+03   1.97049420E-05   6.99523973E-05   6.86162380E-05   2.36376145E-05
   1.66250000E+02   5.00000000E-01   5.00000000E-01   1.31374963E+05   4.79863595E+04   0.00000000E+00   0.00000000E+00   0.00000000E+00   5.64335669E+03   0.00000000E+00   3.74775924E-02   9.18062263E+05   7.51084263E-02   4.00020602E+05   3.66083348E-02   3.81181946E-02   3.74690482E-02   3.71752655E-02   2.00602016E+04   1.76159569E+04   1.16717436E+05   3.08600479E+04   2.92404496E+05   3.34732426E-04   8.07551875E-03   8.34130363E-03   8.27470198E-03   8.25271384E-03   3.42613891E+04   4.56500533E+04   4.66033960E+04   0.00000000E+00   2.90695421E+03   1.97049752E-05   6.99523973E-05   6.86162436E-05   2.36384598E-05
   1.83750000E+02   5.00000000E-01   5.00000000E-01   1.31374964E+05   4.79904451E+04   0.00000000E+00   0.00000000E+00   0.00000000E+00   5.64335668E+03   0.00000000E+00   3.75148983E-02   8.71925186E+05   7.80270853E-02   4.39169316E+05   3.66084752E-02   3.81182247E-02   3.74696823E-02   3.71760595E-02   2.00602019E+04   1.76159843E+04   1.16717436E+05   3.08724572E+04   2.91879233E+05   3.27523516E-04   8.07575246E-03   8.34179600E-03   8.27568976E-03   8.25438515E-03   3.42613908E+04   4.56667844E+04   4.66033960E+04   0.00000000E+00   2.90695422E+03   1.97049945E-05   6.99523973E-05   6.86162477E-05   2.36390604E-05
   2.01250000E+02   5.00000000E-01   5.00000000E-01   1.31374964E+05   4.79949138E+04   0.00000000E+00   0.00000000E+00   0.00000000E+00   5.64335668E+03   0.00000000E+00   3.75520948E-02   8.18391011E+05   8.10138031E-02   4.74892234E+05   3.66085664E-02   3.81182044E-02   3.74700892E-02   3.71763398E-02   2.00602023E+04   1.76160120E+04   1.16717436E+05   3.08722188E+04   2.92116987E+05   3.23755902E-04   8.07592444E-03   8.34119443E-03   8.27641297E-03   8.25513015E-03   3.42613882E+04   4.56825213E+04   4.66033960E+04   0.00000000E+00   2.90695422E+03   1.97050041E-05   6.99523973E-05   6.86162503E-05   2.36394991E-05
   2.18750000E+02   5.00000000E-01   5.00000000E-01   1.31374964E+05   4.79997610E+04   0.00000000E+00   0.00000000E+00   0.00000000E+00   5.64335667E+03   0.00000000E+00   3.75896073E-02   7.60461940E+05   8.40967309E-02   5.06781800E+05   3.66086173E-02   3.81181474E-02   3.74703107E-02   3.71762245E-02   2.00602026E+04   1.76160399E+04   1.16717436E+05   3.08633379E+04   2.92887272E+05   3.21728969E-04   8.07604930E-03   8.33985008E-03   8.27693442E-03   8.25520406E-03   3.42613826E+04   4.56977690E+04   4.66033960E+04   0.00000000E+00   2.90695422E+03   1.97050062E-05   6.99523973E-05   6.86162516E-05   2.36398305E-05
   2.36250000E+02   5.00000000E-01   5.00000000E-01   1.31374964E+05   4.80049331E+04   0.00000000E+00   0.00000000E+00   0.00000000E+00   5.64335666E+03   0.00000000E+00   3.76270975E-02   7.01685814E+05   8.72422066E-02   5.35349521E+05   3.66086415E-02   3.81180695E-02   3.74704090E-02   3.71758623E-02   2.00602030E+04   1.76160678E+04   1.16717436E+05   3.08495045E+04   2.93955787E+05   3.20597195E-04   8.07614469E-03   8.33810593E-03   8.27732979E-03   8.25487833E-03   3.42613750E+04   4.57130095E+04   4.66033960E+04   0.00000000E+00   2.90695422E+03   1.97050034E-05   6.99523973E-05   6.86162516E-05   2.36400829E-05
   2.53750000E+02   5.00000000E-01   5.00000000E-01   1.31374964E+05   4.80103764E+04   0.00000000E+00   0.00000000E+00   0.00000000E+00   5.64335666E+03   0.00000000E+00   3.76641542E-02   6.43130544E+05   9.04097767E-02   5.60158987E+05   3.66086429E-02   3.81179766E-02   3.74704033E-02   3.71753065E-02   2.00602034E+04   1.76160956E+04   1.16717436E+05   3.08324199E+04   2.95230822E+05   3.19924631E-04   8.07621687E-03   8.33610040E-03   8.27762601E-03   8.25425902E-03   3.42613661E+04   4.57286790E+04   4.66033960E+04   0.00000000E+00   2.90695422E+03   1.97049967E-05   6.99523973E-05   6.86162503E-05   2.36402753E-05
   2.71250000E+02   5.00000000E-01   5.00000000E-01   1.31374964E+05   4.80160334E+04   0.00000000E+00   0.00000000E+00   0.00000000E+00   5.64335665E+03   0.00000000E+00   3.77002150E-02   5.85815640E+05   9.35473436E-02   5.80988710E+05   3.66086243E-02   3.81178729E-02   3.74703064E-02   3.71745937E-02   2.00602038E+04   1.76161229E+04   1.16717436E+05   3.08131044E+04   2.96651884E+05   3.19489601E-04   8.07626936E-03   8.33391652E-03   8.27783820E-03   8.25340956E-03   3.42613563E+04   4.57449544E+04   4.66033960E+04   0.00000000E+00   2.90695422E+03   1.97049867E-05   6.99523973E-05   6.86162480E-05   2.36404202E-05
   2.88750000E+02   5.00000000E-01   5.00000000E-01   1.31374964E+05   4.80218492E+04   0.00000000E+00   0.00000000E+00   0.00000000E+00   5.64335665E+03   0.00000000E+00   3.77346745E-02   5.30709833E+05   9.66005730E-02   5.97895131E+05   3.66085894E-02   3.81177624E-02   3.74701348E-02   3.71737654E-02   2.00602043E+04   1.76161499E+04   1.16717436E+05   3.07923129E+04   2.98168518E+05   3.19181009E-04   8.07630570E-03   8.33162624E-03   8.27798159E-03   8.25238857E-03   3.42613458E+04   4.57616640E+04   4.66033960E+04   0.00000000E+00   2.90695422E+03   1.97049742E-05   6.99523973E-05   6.86162447E-05   2.36405253E-05
   3.06250000E+02   5.00000000E-01   5.00000000E-01   1.31374964E+05   4.80277832E+04   0.00000000E+00   0.00000000E+00   0.00000000E+00   5.64335664E+03   0.00000000E+00   3.77670794E-02   4.78613375E+05   9.95295667E-02   6.11151605E+05   3.66085426E-02   3.81176497E-02   3.74699096E-02   3.71728672E-02   2.00602047E+04   1.76161762E+04   1.16717436E+05   3.07706246E+04   2.99738206E+05   3.18943827E-04   8.07632984E-03   8.32929584E-03   8.27807308E-03   8.25125416E-03   3.42613350E+04   4.57783608E+04   4.66033960E+04   0.00000000E+00   2.90695422E+03   1.97049598E-05   6.99523973E-05   6.86162405E-05   2.36405947E-05
   3.23750000E+02   5.00000000E-01   5.00000000E-01   1.31374964E+05   4.80338141E+04   0.00000000E+00   0.00000000E+00   0.00000000E+00   5.64335664E+03   0.00000000E+00   3.77972419E-02   4.30095885E+05   1.02318488E-01   6.21163033E+05   3.66084888E-02   3.81175384E-02   3.74696528E-02   3.71719438E-02   2.00602052E+04   1.76162021E+04   1.16717436E+05   3.07484822E+04   3.01326423E+05   3.18751222E-04   8.07634587E-03   8.32698344E-03   8.27813012E-03   8.25006109E-03   3.42613244E+04   4.57945001E+04   4.66033960E+04   0.00000000E+00   2.90695422E+03   1.97049445E-05   6.99523973E-05   6.86162357E-05   2.36406303E-05
   3.41250000E+02   5.00000000E-01   5.00000000E-01   1.31374964E+05   4.80399384E+04   0.00000000E+00   0.00000000E+00   0.00000000E+00   5.64335663E+03   0.00000000E+00   3.78252416E-02   3.85476824E+05   1.04975637E-01   6.28373634E+05   3.66084324E-02   3.81174318E-02   3.74693847E-02   3.71710330E-02   2.00602057E+04   1.76162273E+04   1.16717436E+05   3.07262171E+04   3.02906842E+05   3.18589776E-04   8.07635760E-03   8.32473548E-03   8.27816901E-03   8.24885652E-03   3.42613142E+04   4.58096019E+04   4.66033960E+04   0.00000000E+00   2.90695422E+03   1.97049290E-05   6.99523973E-05   6.86162303E-05   2.36406324E-05
   3.58750000E+02   5.00000000E-01   5.00000000E-01   1.31374965E+05   4.80461653E+04   0.00000000E+00   0.00000000E+00   0.00000000E+00   5.64335663E+03   0.00000000E+00   3.78513644E-02   3.44816427E+05   1.07527960E-01   6.33132491E+05   3.66083766E-02   3.81173317E-02   3.74691203E-02   3.71701601E-02   2.00602062E+04   1.76162521E+04   1.16717436E+05   3.07040349E+04   3.04463962E+05   3.18452046E-04   8.07636790E-03   8.32258096E-03   8.27820191E-03   8.24767304E-03   3.42613045E+04   4.58233536E+04   4.66033960E+04   0.00000000E+00   2.90695422E+03   1.97049138E-05   6.99523973E-05   6.86162244E-05   2.36406008E-05
   3.76250000E+02   5.00000000E-01   5.00000000E-01   1.31374965E+05   4.80525087E+04   0.00000000E+00   0.00000000E+00   0.00000000E+00   5.64335662E+03   0.00000000E+00   3.78760078E-02   3.08010983E+05   1.10012616E-01   6.35715096E+05   3.66083236E-02   3.81172390E-02   3.74688688E-02   3.71693392E-02   2.00602067E+04   1.76162763E+04   1.16717436E+05   3.06820591E+04   3.05989423E+05   3.18333371E-04   8.07637871E-03   8.32053496E-03   8.27823711E-03   8.24653080E-03   3.42612956E+04   4.58356197E+04   4.66033960E+04   0.00000000E+00   2.90695422E+03   1.97048992E-05   6.99523973E-05   6.86162181E-05   2.36405354E-05
   3.93750000E+02   5.00000000E-01   5.00000000E-01   1.31374965E+05   4.80589818E+04   0.00000000E+00   0.00000000E+00   0.00000000E+00   5.64335661E+03   0.00000000E+00   3.78996109E-02   2.74835210E+05   1.12470541E-01   6.36283308E+05   3.66082743E-02   3.81171536E-02   3.74686344E-02   3.71685746E-02   2.00602073E+04   1.76163001E+04   1.16717436E+05   3.06603401E+04   3.07481554E+05   3.18230299E-04   8.07639097E-03   8.31859991E-03   8.27827853E-03   8.24543762E-03   3.42612873E+04   4.58464189E+04   4.66033960E+04   0.00000000E+00   2.90695422E+03   1.97048854E-05   6.99523973E-05   6.86162114E-05   2.36404361E-05
   4.11250000E+02   5.00000000E-01   5.00000000E-01   1.31374965E+05   4.80655926E+04   0.00000000E+00   0.00000000E+00   0.00000000E+00   5.64335660E+03   0.00000000E+00   3.79226008E-02   2.45006620E+05   1.14941437E-01   6.34921947E+05   3.66082285E-02   3.81170750E-02   3.74684167E-02   3.71678632E-02   2.00602078E+04   1.76163234E+04   1.16717436E+05   3.06388822E+04   3.08942708E+05   3.18140067E-04   8.07640481E-03   8.31676985E-03   8.27832667E-03   8.24439247E-03   3.42612797E+04   4.58558843E+04   4.66033960E+04   0.00000000E+00   2.90695422E+03   1.97048725E-05   6.99523973E-05   6.86162045E-05   2.36403035E-05
   4.28750000E+02   5.00000000E-01   5.00000000E-01   1.31374965E+05   4.80723403E+04   0.00000000E+00   0.00000000E+00   0.00000000E+00   5.64335660E+03   0.00000000E+00   3.79453580E-02   2.18228526E+05   1.17460411E-01   6.31678730E+05   3.66081858E-02   3.81170023E-02   3.74682133E-02   3.71671980E-02   2.00602084E+04   1.76163462E+04   1.16717436E+05   3.06176714E+04   3.10376811E+05   3.18060427E-04   8.07641985E-03   8.31503468E-03   8.27837992E-03   8.24338940E-03   3.42612726E+04   4.58642240E+04   4.66033960E+04   0.00000000E+00   2.90695422E+03   1.97048604E-05   6.99523973E-05   6.86161975E-05   2.36401384E-05
   4.46250000E+02   5.00000000E-01   5.00000000E-01   1.31374966E+05   4.80792150E+04   0.00000000E+00   0.00000000E+00   0.00000000E+00   5.64335659E+03   0.00000000E+00   3.79681973E-02   1.94203749E+05   1.20055861E-01   6.26559913E+05   3.66081452E-02   3.81169346E-02   3.74680196E-02   3.71665702E-02   2.00602091E+04   1.76163685E+04   1.16717436E+05   3.05966820E+04   3.11788923E+05   3.17989515E-04   8.07643532E-03   8.31338201E-03   8.27843502E-03   8.24241913E-03   3.42612660E+04   4.58716971E+04   4.66033960E+04   0.00000000E+00   2.90695422E+03   1.97048489E-05   6.99523973E-05   6.86161902E-05   2.36399420E-05
   4.63750000E+02   5.00000000E-01   5.00000000E-01   1.31374966E+05   4.80861963E+04   0.00000000E+00   0.00000000E+00   0.00000000E+00   5.64335658E+03   0.00000000E+00   3.79913536E-02   1.72651435E+05   1.22747872E-01   6.19555199E+05   3.66081055E-02   3.81168710E-02   3.74678306E-02   3.71659700E-02   2.00602097E+04   1.76163902E+04   1.16717436E+05   3.05758872E+04   3.13184157E+05   3.17925811E-04   8.07645027E-03   8.31179906E-03   8.27848782E-03   8.24147116E-03   3.42612598E+04   4.58785940E+04   4.66033960E+04   0.00000000E+00   2.90695423E+03   1.97048379E-05   6.99523973E-05   6.86161829E-05   2.36397157E-05
   4.81250000E+02   5.00000000E-01   5.00000000E-01   1.31374966E+05   4.80932538E+04   0.00000000E+00   0.00000000E+00   0.00000000E+00   5.64335657E+03   0.00000000E+00   3.80149714E-02   1.53315408E+05   1.25546928E-01   6.10658079E+05   3.66080656E-02   3.81168106E-02   3.74676410E-02   3.71653884E-02   2.00602104E+04   1.76164114E+04   1.16717436E+05   3.05552685E+04   3.14566854E+05   3.17868114E-04   8.07646367E-03   8.31027430E-03   8.27853404E-03   8.24053545E-03   3.42612540E+04   4.58852191E+04   4.66033960E+04   0.00000000E+00   2.90695423E+03   1.97048272E-05   6.99523973E-05   6.86161755E-05   2.36394611E-05
   4.98750000E+02   5.00000000E-01   5.00000000E-01   1.31374967E+05   4.81004567E+04   0.00000000E+00   0.00000000E+00   0.00000000E+00   5.64335656E+03   0.00000000E+00   3.80395230E-02   1.35563965E+05   1.28499792E-01   5.97626894E+05   3.66080162E-02   3.81167488E-02   3.74674090E-02   3.71647630E-02   2.00602110E+04   1.76164322E+04   1.16717436E+05   3.05340066E+04   3.16015160E+05   3.17812769E-04   8.07646444E-03   8.30872017E-03   8.27852664E-03   8.23951132E-03   3.42612480E+04   4.58918769E+04   4.66033960E+04   0.00000000E+00   2.90695423E+03   1.97048155E-05   6.99523973E-05   6.86161681E-05   2.36391846E-05
   5.16250000E+02   5.00000000E-01   5.00000000E-01   1.31374967E+05   4.81077006E+04   0.00000000E+00   0.00000000E+00   0.00000000E+00   5.64335655E+03   0.00000000E+00   3.80648107E-02   1.19789438E+05   1.31584563E-01   5.83200678E+05   3.66079631E-02   3.81166886E-02   3.74671603E-02   3.71641340E-02   2.00602118E+04   1.76164524E+04   1.16717436E+05   3.05127765E+04   3.17454559E+05   3.17761718E-04   8.07645960E-03   8.30719559E-03   8.27849547E-03   8.23846732E-03   3.42612422E+04   4.58989465E+04   4.66033960E+04   0.00000000E+00   2.90695423E+03   1.97048036E-05   6.99523973E-05   6.86161607E-05   2.36388862E-05
   5.33750000E+02   5.00000000E-01   5.00000000E-01   1.31374967E+05   4.81149050E+04   0.00000000E+00   0.00000000E+00   0.00000000E+00   5.64335654E+03   0.00000000E+00   3.80905514E-02   1.05724807E+05   1.34764143E-01   5.67264789E+05   3.66079079E-02   3.81166307E-02   3.74669027E-02   3.71635126E-02   2.00602125E+04   1.76164718E+04   1.16717436E+05   3.04918224E+04   3.18878058E+05   3.17715187E-04   8.07645136E-03   8.30571699E-03   8.27844994E-03   8.23742468E-03   3.42612367E+04   4.59066517E+04   4.66033960E+04   0.00000000E+00   2.90695423E+03   1.97047917E-05   6.99523973E-05   6.86161534E-05   2.36385663E-05
   5.51250000E+02   5.00000000E-01   5.00000000E-01   1.31374968E+05   4.81220122E+04   0.00000000E+00   0.00000000E+00   0.00000000E+00   5.64335653E+03   0.00000000E+00   3.81164618E-02   9.31494272E+04   1.38001721E-01   5.49685107E+05   3.66078505E-02   3.81165749E-02   3.74666359E-02   3.71628985E-02   2.00602133E+04   1.76164904E+04   1.16717436E+05   3.04711880E+04   3.20288167E+05   3.17672837E-04   8.07643973E-03   8.30428314E-03   8.27839006E-03   8.23638404E-03   3.42612314E+04   4.59151399E+04   4.66033960E+04   0.00000000E+00   2.90695423E+03   1.97047799E-05   6.99523973E-05   6.86161462E-05   2.36382258E-05
   5.68750000E+02   5.00000000E-01   5.00000000E-01   1.31374969E+05   4.81289778E+04   0.00000000E+00   0.00000000E+00   0.00000000E+00   5.64335652E+03   0.00000000E+00   3.81422393E-02   8.19095396E+04   1.41259341E-01   5.30556802E+05   3.66077911E-02   3.81165213E-02   3.74663605E-02   3.71622924E-02   2.00602141E+04   1.76165082E+04   1.16717436E+05   3.04508890E+04   3.21684865E+05   3.17634393E-04   8.07642465E-03   8.30289245E-03   8.27831562E-03   8.23534551E-03   3.42612262E+04   4.59244556E+04   4.66033960E+04   0.00000000E+00   2.90695423E+03   1.97047681E-05   6.99523973E-05   6.86161390E-05   2.36378656E-05
   5.86250000E+02   5.00000000E-01   5.00000000E-01   1.31374969E+05   4.81357716E+04   0.00000000E+00   0.00000000E+00   0.00000000E+00   5.64335651E+03   0.00000000E+00   3.81675852E-02   7.18814119E+04   1.44500449E-01   5.10079761E+05   3.66077303E-02   3.81164699E-02   3.74660791E-02   3.71616977E-02   2.00602149E+04   1.76165250E+04   1.16717436E+05   3.04309469E+04   3.23066066E+05   3.17599694E-04   8.07640644E-03   8.30154585E-03   8.27822802E-03   8.23431238E-03   3.42612213E+04   4.59345251E+04   4.66033960E+04   0.00000000E+00   2.90695423E+03   1.97047564E-05   6.99523973E-05   6.86161320E-05   2.36374867E-05
   6.03750000E+02   5.00000000E-01   5.00000000E-01   1.31374970E+05   4.81423783E+04   0.00000000E+00   0.00000000E+00   0.00000000E+00   5.64335650E+03   0.00000000E+00   3.81922418E-02   6.29583292E+04   1.47694133E-01   4.88514090E+05   3.66076690E-02   3.81164210E-02   3.74657962E-02   3.71611201E-02   2.00602157E+04   1.76165409E+04   1.16717436E+05   3.04113930E+04   3.24428183E+05   3.17568634E-04   8.07638586E-03   8.30024663E-03   8.27813050E-03   8.23329107E-03   3.42612166E+04   4.59451689E+04   4.66033960E+04   0.00000000E+00   2.90695423E+03   1.97047449E-05   6.99523973E-05   6.86161250E-05   2.36370901E-05
   6.21250000E+02   5.00000000E-01   5.00000000E-01   1.31374971E+05   4.81487968E+04   0.00000000E+00   0.00000000E+00   0.00000000E+00   5.64335649E+03   0.00000000E+00   3.82160228E-02   5.50436476E+04   1.50818495E-01   4.66149479E+05   3.66076086E-02   3.81163751E-02   3.74655176E-02   3.71605664E-02   2.00602165E+04   1.76165559E+04   1.16717436E+05   3.03922661E+04   3.25766739E+05   3.17541107E-04   8.07636402E-03   8.29899952E-03   8.27802768E-03   8.23229021E-03   3.42612122E+04   4.59561363E+04   4.66033960E+04   4.31093219E-22   2.90695423E+03   1.97047336E-05   6.99523973E-05   6.86161183E-05   2.36366767E-05
   6.38750000E+02   5.00000000E-01   5.00000000E-01   1.31374971E+05   4.81550362E+04   0.00000000E+00   0.00000000E+00   0.00000000E+00   5.64335647E+03   0.00000000E+00   3.82388275E-02   4.80464093E+04   1.53861987E-01   4.43275736E+05   3.66075503E-02   3.81163323E-02   3.74652494E-02   3.71600433E-02   2.00602174E+04   1.76165701E+04   1.16717436E+05   3.03736087E+04   3.27076997E+05   3.17516962E-04   8.07634222E-03   8.29780960E-03   8.27792509E-03   8.23131930E-03   3.42612081E+04   4.59671498E+04   4.66033960E+04   8.71070102E-22   2.90695424E+03   1.97047229E-05   6.99523973E-05   6.86161117E-05   2.36362472E-05
   6.56250000E+02   5.00000000E-01   5.00000000E-01   1.31374972E+05   4.81611100E+04   0.00000000E+00   0.00000000E+00   0.00000000E+00   5.64335646E+03   0.00000000E+00   3.82606369E-02   4.18790934E+04   1.56822608E-01   4.20157739E+05   3.66074955E-02   3.81162930E-02   3.74649972E-02   3.71595567E-02   2.00602183E+04   1.76165834E+04   1.16717436E+05   3.03554636E+04   3.28354496E+05   3.17495996E-04   8.07632183E-03   8.29668144E-03   8.27782849E-03   8.23038758E-03   3.42612043E+04   4.59779472E+04   4.66033960E+04   1.76093595E-21   2.90695424E+03   1.97047128E-05   6.99523973E-05   6.86161052E-05   2.36358025E-05
   6.73750000E+02   5.00000000E-01   5.00000000E-01   1.31374973E+05   4.81670308E+04   0.00000000E+00   0.00000000E+00   0.00000000E+00   5.64335644E+03   0.00000000E+00   3.82814977E-02   3.64573267E+04   1.59705492E-01   3.97021688E+05   3.66074453E-02   3.81162573E-02   3.74647659E-02   3.71591110E-02   2.00602192E+04   1.76165959E+04   1.16717436E+05   3.03378709E+04   3.29595372E+05   3.17477948E-04   8.07630416E-03   8.29561847E-03   8.27774340E-03   8.22950314E-03   3.42612008E+04   4.59883121E+04   4.66033960E+04   3.56164907E-21   2.90695424E+03   1.97047034E-05   6.99523973E-05   6.86160990E-05   2.36353434E-05
   6.91250000E+02   5.00000000E-01   5.00000000E-01   1.31374974E+05   4.81728052E+04   0.00000000E+00   0.00000000E+00   0.00000000E+00   5.64335643E+03   0.00000000E+00   3.83014992E-02   3.17002893E+04   1.62519839E-01   3.74044348E+05   3.66074004E-02   3.81162251E-02   3.74645590E-02   3.71587084E-02   2.00602202E+04   1.76166077E+04   1.16717436E+05   3.03208656E+04   3.30796626E+05   3.17462523E-04   8.07629037E-03   8.29462262E-03   8.27767466E-03   8.22867227E-03   3.42611977E+04   4.59980902E+04   4.66033960E+04   7.20750019E-21   2.90695424E+03   1.97046949E-05   6.99523973E-05   6.86160929E-05   2.36348708E-05
   7.08750000E+02   5.00000000E-01   5.00000000E-01   1.31374975E+05   4.81784300E+04   0.00000000E+00   0.00000000E+00   0.00000000E+00   5.64335641E+03   0.00000000E+00   3.83207500E-02   2.75322896E+04   1.65275716E-01   3.51361656E+05   3.66073614E-02   3.81161965E-02   3.74643789E-02   3.71583499E-02   2.00602211E+04   1.76166187E+04   1.16717436E+05   3.03044772E+04   3.31955997E+05   3.17449411E-04   8.07628145E-03   8.29369442E-03   8.27762637E-03   8.22789948E-03   3.42611949E+04   4.60071934E+04   4.66033960E+04   2.58760399E-06   2.90695424E+03   1.97046873E-05   6.99523973E-05   6.86160871E-05   2.36343853E-05
   7.26250000E+02   5.00000000E-01   5.00000000E-01   1.31374976E+05   4.81838908E+04   0.00000000E+00   0.00000000E+00   0.00000000E+00   5.64335639E+03   0.00000000E+00   3.83393557E-02   2.38836892E+04   1.67981218E-01   3.29075572E+05   3.66073285E-02   3.81161711E-02   3.74642268E-02   3.71580349E-02   2.00602221E+04   1.76166289E+04   1.16717436E+05   3.02887302E+04   3.33071841E+05   3.17438310E-04   8.07627820E-03   8.29283317E-03   8.27760185E-03   8.22718759E-03   3.42611924E+04   4.60155947E+04   4.66033960E+04   1.01580485E-05   2.90695424E+03   1.97046807E-05   6.99523973E-05   6.86160814E-05   2.36338879E-05
   7.43750000E+02   5.00000000E-01   5.00000000E-01   1.31374978E+05   4.81891609E+04   0.00000000E+00   0.00000000E+00   0.00000000E+00   5.64335637E+03   0.00000000E+00   3.83574019E-02   2.06914359E+04   1.70640126E-01   3.07261855E+05   3.66073020E-02   3.81161489E-02   3.74641032E-02   3.71577620E-02   2.00602231E+04   1.76166383E+04   1.16717436E+05   3.02736444E+04   3.34143001E+05   3.17428936E-04   8.07628125E-03   8.29203727E-03   8.27760376E-03   8.22653807E-03   3.42611902E+04   4.60233202E+04   4.66033960E+04   2.32997683E-05   2.90695425E+03   1.97046751E-05   6.99523973E-05   6.86160760E-05   2.36333791E-05
   7.61250000E+02   5.00000000E-01   5.00000000E-01   1.31374979E+05   4.81942025E+04   0.00000000E+00   0.00000000E+00   0.00000000E+00   5.64335635E+03   0.00000000E+00   3.83749396E-02   1.78992274E+04   1.73250120E-01   2.85978067E+05   3.66072818E-02   3.81161296E-02   3.74640080E-02   3.71575291E-02   2.00602242E+04   1.76166469E+04   1.16717436E+05   3.02592361E+04   3.35168664E+05   3.17421036E-04   8.07629114E-03   8.29130447E-03   8.27763418E-03   8.22595136E-03   3.42611883E+04   4.60304378E+04   4.66033960E+04   4.46585979E-05   2.90695425E+03   1.97046705E-05   6.99523973E-05   6.86160707E-05   2.36328598E-05
   7.78750000E+02   5.00000000E-01   5.00000000E-01   1.31374981E+05   4.81989680E+04   0.00000000E+00   0.00000000E+00   0.00000000E+00   5.64335633E+03   0.00000000E+00   3.83919757E-02   1.54573715E+04   1.75801552E-01   2.65271010E+05   3.66072678E-02   3.81161129E-02   3.74639408E-02   3.71573340E-02   2.00602252E+04   1.76166545E+04   1.16717436E+05   3.02455177E+04   3.36148233E+05   3.17414393E-04   8.07630826E-03   8.29063213E-03   8.27769485E-03   8.22542715E-03   3.42611866E+04   4.60370443E+04   4.66033960E+04   7.79096240E-05   2.90695425E+03   1.97046669E-05   6.99523973E-05   6.86160656E-05   2.36323306E-05
   7.96250000E+02   5.00000000E-01   5.00000000E-01   1.31374982E+05   4.82034028E+04   0.00000000E+00   0.00000000E+00   0.00000000E+00   5.64335631E+03   0.00000000E+00   3.84084658E-02   1.33224365E+04   1.78276809E-01   2.45183420E+05   3.66072600E-02   3.81160986E-02   3.74639012E-02   3.71571744E-02   2.00602263E+04   1.76166611E+04   1.16717436E+05   3.02324994E+04   3.37081222E+05   3.17408819E-04   8.07633300E-03   8.29001747E-03   8.27778720E-03   8.22496474E-03   3.42611851E+04   4.60432516E+04   4.66033960E+04   1.28125017E-04   2.90695425E+03   1.97046642E-05   6.99523973E-05   6.86160607E-05   2.36317921E-05