 TITLE = "Mineral Area" 
VARIABLES = "X"          "Y"              "Z"            "Forsterite"     "Fayalite"       "Saponite(Mg)"   "Enstatite(alph" "Ferrosilite(al" "Anorthite"      "Albite(low)"    "Clinochlore"    "Sudoite"        "Montmorillonit" "Kaolinite"      "Tremolite"      "Pargasite"      "Anhydrite"      "Epidote"        "Scolecite"      "Pyrite"         "FeS(am)"        "Quartz(alpha)" 
 ZONE I=         100 , J=           1 , K=           1  F=POINT
   1.75000000E+01   5.00000000E-01   5.00000000E-01   3.49519644E+04   4.75816628E+04   1.56298492E+06   2.00609109E+04   1.76162914E+04   1.22874587E+05   2.93777639E+04   8.92789351E+04   1.55143524E-04   3.72119553E-03   2.61927817E+04   4.80315067E+04   4.92915650E+04   1.10766687E-05   3.47617436E+02   2.27002474E+02   6.48245053E-05   6.48956471E-05   2.35716798E-05
   5.25000000E+01   5.00000000E-01   5.00000000E-01   3.49519644E+04   4.76449788E+04   1.58275958E+06   2.00609109E+04   1.76163148E+04   1.22874587E+05   2.95882591E+04   7.86315474E+04   8.23177816E-05   4.25635807E-03   2.62186101E+04   4.80314662E+04   4.92915650E+04   1.11830048E-05   3.47617438E+02   2.27002513E+02   6.48245053E-05   6.48972206E-05   2.35722238E-05
   8.75000000E+01   5.00000000E-01   5.00000000E-01   3.49519645E+04   4.77269644E+04   1.50600028E+06   2.00609109E+04   1.76163343E+04   1.22874587E+05   2.96747443E+04   7.54175300E+04   6.72597831E-05   4.62580169E-03   2.62366815E+04   4.80313204E+04   4.92915650E+04   1.13022354E-05   3.47617438E+02   2.27002542E+02   6.48245053E-05   6.48984230E-05   2.35722942E-05
   1.22500000E+02   5.00000000E-01   5.00000000E-01   3.49519645E+04   4.78103889E+04   1.40514023E+06   2.00609109E+04   1.76163498E+04   1.22874587E+05   2.97367273E+04   7.37377447E+04   6.45179490E-05   4.99932549E-03   2.62552497E+04   4.80312485E+04   4.92915650E+04   1.14360214E-05   3.47617438E+02   2.27002571E+02   6.48245053E-05   6.48991953E-05   2.35722887E-05
   1.57500000E+02   5.00000000E-01   5.00000000E-01   3.49519645E+04   4.78852104E+04   1.31127107E+06   2.00609109E+04   1.76163615E+04   1.22874587E+05   2.97902396E+04   7.23748411E+04   6.51420508E-05   5.42457000E-03   2.62762094E+04   4.80312531E+04   4.92915650E+04   1.15861722E-05   3.47617438E+02   2.27002604E+02   6.48245053E-05   6.48995960E-05   2.35722577E-05
   1.92500000E+02   5.00000000E-01   5.00000000E-01   3.49519645E+04   4.79479451E+04   1.23207566E+06   2.00609109E+04   1.76163702E+04   1.22874587E+05   2.98351921E+04   7.12277030E+04   6.69959757E-05   5.89943061E-03   2.62994201E+04   4.80312260E+04   4.92915650E+04   1.17547016E-05   3.47617437E+02   2.27002641E+02   6.48245053E-05   6.48997153E-05   2.35722066E-05
   2.27500000E+02   5.00000000E-01   5.00000000E-01   3.49519645E+04   4.79985277E+04   1.16821458E+06   2.00609109E+04   1.76163765E+04   1.22874587E+05   2.98709866E+04   7.03170911E+04   6.95435323E-05   6.41405462E-03   2.63244962E+04   4.80311408E+04   4.92915650E+04   1.19438807E-05   3.47617437E+02   2.27002681E+02   6.48245053E-05   6.48996348E-05   2.35721385E-05
   2.62500000E+02   5.00000000E-01   5.00000000E-01   3.49519645E+04   4.80383259E+04   1.11799280E+06   2.00609110E+04   1.76163810E+04   1.22874587E+05   2.98981026E+04   6.96431266E+04   7.26796814E-05   6.96023516E-03   2.63511535E+04   4.80311059E+04   4.92915650E+04   1.21562927E-05   3.47617437E+02   2.27002724E+02   6.48245053E-05   6.48994194E-05   2.35720573E-05
   2.97500000E+02   5.00000000E-01   5.00000000E-01   3.49519645E+04   4.80691188E+04   1.07925660E+06   2.00609110E+04   1.76163841E+04   1.22874587E+05   2.99176494E+04   6.91811199E+04   7.64365645E-05   7.53298634E-03   2.63792583E+04   4.80311159E+04   4.92915650E+04   1.23948986E-05   3.47617437E+02   2.27002769E+02   6.48245053E-05   6.48991175E-05   2.35719665E-05
   3.32500000E+02   5.00000000E-01   5.00000000E-01   3.49519645E+04   4.80926601E+04   1.04985434E+06   2.00609110E+04   1.76163862E+04   1.22874587E+05   2.99309008E+04   6.88981501E+04   8.09055652E-05   8.12993747E-03   2.64087781E+04   4.80311234E+04   4.92915650E+04   1.26631119E-05   3.47617437E+02   2.27002816E+02   6.48245053E-05   6.48987646E-05   2.35718691E-05
   3.67500000E+02   5.00000000E-01   5.00000000E-01   3.49519645E+04   4.81105032E+04   1.02776559E+06   2.00609110E+04   1.76163875E+04   1.22874587E+05   2.99390712E+04   6.87623379E+04   8.62183363E-05   8.75062036E-03   2.64397333E+04   4.80311658E+04   4.92915650E+04   1.29648836E-05   3.47617437E+02   2.27002865E+02   6.48245053E-05   6.48983859E-05   2.35717675E-05
   4.02500000E+02   5.00000000E-01   5.00000000E-01   3.49519645E+04   4.81239240E+04   1.01135576E+06   2.00609110E+04   1.76163882E+04   1.22874587E+05   2.99432365E+04   6.87432472E+04   9.25521162E-05   9.39620227E-03   2.64721932E+04   4.80312465E+04   4.92915650E+04   1.33048084E-05   3.47617437E+02   2.27002917E+02   6.48245053E-05   6.48979989E-05   2.35716638E-05
   4.37500000E+02   5.00000000E-01   5.00000000E-01   3.49519645E+04   4.81339366E+04   9.99309268E+05   2.00609111E+04   1.76163884E+04   1.22874587E+05   2.99443017E+04   6.88143997E+04   1.00139414E-04   1.00690347E-02   2.65062556E+04   4.80313526E+04   4.92915650E+04   1.36882539E-05   3.47617437E+02   2.27002972E+02   6.48245053E-05   6.48976159E-05   2.35715592E-05
   4.72500000E+02   5.00000000E-01   5.00000000E-01   3.49519646E+04   4.81413298E+04   9.90568874E+05   2.00609111E+04   1.76163884E+04   1.22874587E+05   2.99430133E+04   6.89535389E+04   1.09284390E-04   1.07724572E-02   2.65420361E+04   4.80314793E+04   4.92915650E+04   1.41215196E-05   3.47617437E+02   2.27003029E+02   6.48245053E-05   6.48972449E-05   2.35714547E-05
   5.07500000E+02   5.00000000E-01   5.00000000E-01   3.49519646E+04   4.81467046E+04   9.84306832E+05   2.00609111E+04   1.76163881E+04   1.22874587E+05   2.99399832E+04   6.91418327E+04   1.20388499E-04   1.15107866E-02   2.65796678E+04   4.80316225E+04   4.92915650E+04   1.46120348E-05   3.47617437E+02   2.27003090E+02   6.48245053E-05   6.48968912E-05   2.35713513E-05
   5.42500000E+02   5.00000000E-01   5.00000000E-01   3.49519646E+04   4.81505120E+04   9.79878827E+05   2.00609111E+04   1.76163876E+04   1.22874587E+05   2.99357113E+04   6.93634053E+04   1.33986915E-04   1.22893337E-02   2.66192998E+04   4.80317777E+04   4.92915650E+04   1.51686055E-05   3.47617437E+02   2.27003155E+02   6.48245053E-05   6.48965580E-05   2.35712494E-05
   5.77500000E+02   5.00000000E-01   5.00000000E-01   3.49519647E+04   4.81530870E+04   9.76785037E+05   2.00609112E+04   1.76163870E+04   1.22874587E+05   2.99306049E+04   6.96049200E+04   1.50801177E-04   1.31144459E-02   2.66610974E+04   4.80319415E+04   4.92915650E+04   1.58017257E-05   3.47617436E+02   2.27003223E+02   6.48245053E-05   6.48962470E-05   2.35711496E-05
   6.12500000E+02   5.00000000E-01   5.00000000E-01   3.49519648E+04   4.81546756E+04   9.74640190E+05   2.00609112E+04   1.76163863E+04   1.22874587E+05   2.99249940E+04   6.98552562E+04   1.71815875E-04   1.39935367E-02   2.67052400E+04   4.80321116E+04   4.92915650E+04   1.65239701E-05   3.47617436E+02   2.27003296E+02   6.48245053E-05   6.48959588E-05   2.35710521E-05
   6.47500000E+02   5.00000000E-01   5.00000000E-01   3.49519650E+04   4.81554575E+04   9.73150779E+05   2.00609112E+04   1.76163855E+04   1.22874587E+05   2.99191414E+04   7.01052993E+04   1.98391303E-04   1.49350676E-02   2.67519189E+04   4.80322866E+04   4.92915650E+04   1.73504958E-05   3.47617435E+02   2.27003373E+02   6.48245053E-05   6.48956935E-05   2.35709573E-05
   6.82500000E+02   5.00000000E-01   5.00000000E-01   3.49519652E+04   4.81555629E+04   9.72097927E+05   2.00609113E+04   1.76163847E+04   1.22874588E+05   2.99132508E+04   7.03478097E+04   2.32430691E-04   1.59484558E-02   2.68013317E+04   4.80324661E+04   4.92915650E+04   1.82996841E-05   3.47617434E+02   2.27003455E+02   6.48245053E-05   6.48954505E-05   2.35708652E-05
   7.17500000E+02   5.00000000E-01   5.00000000E-01   3.49519656E+04   4.81550868E+04   9.71324457E+05   2.00609113E+04   1.76163838E+04   1.22874588E+05   2.99074725E+04   7.05773316E+04   2.76631163E-04   1.70438928E-02   2.68536752E+04   4.80326501E+04   4.92915650E+04   1.93939706E-05   3.47617433E+02   2.27003543E+02   6.48245053E-05   6.48952290E-05   2.35707759E-05
   7.52500000E+02   5.00000000E-01   5.00000000E-01   3.49519660E+04   4.81540985E+04   9.70724934E+05   2.00609113E+04   1.76163828E+04   1.22874588E+05   2.99019079E+04   7.07901017E+04   3.34864588E-04   1.82320610E-02   2.69091363E+04   4.80328390E+04   4.92915650E+04   2.06609228E-05   3.47617431E+02   2.27003637E+02   6.48245053E-05   6.48950279E-05   2.35706896E-05
   7.87500000E+02   5.00000000E-01   5.00000000E-01   3.49519667E+04   4.81526504E+04   9.70237743E+05   2.00609114E+04   1.76163819E+04   1.22874588E+05   2.98966145E+04   7.09839310E+04   4.12761970E-04   1.95237444E-02   2.69678823E+04   4.80330328E+04   4.92915650E+04   2.21346546E-05   3.47617428E+02   2.27003737E+02   6.48245053E-05   6.48948459E-05   2.35706062E-05
   8.22500000E+02   5.00000000E-01   5.00000000E-01   3.49519678E+04   4.81507829E+04   9.69838250E+05   2.00609114E+04   1.76163809E+04   1.22874589E+05   2.98916114E+04   7.11580478E+04   5.18619753E-04   2.09293362E-02   2.70300497E+04   4.80332308E+04   4.92915650E+04   2.38576924E-05   3.47617424E+02   2.27003844E+02   6.48245053E-05   6.48946818E-05   2.35705256E-05
   8.57500000E+02   5.00000000E-01   5.00000000E-01   3.49519693E+04   4.81485289E+04   9.69531740E+05   2.00609115E+04   1.76163799E+04   1.22874589E+05   2.98868856E+04   7.13129096E+04   6.64819242E-04   2.24582529E-02   2.70957347E+04   4.80334302E+04   4.92915650E+04   2.58834615E-05   3.47617419E+02   2.27003957E+02   6.48245053E-05   6.48945343E-05   2.35704478E-05
   8.92500000E+02   5.00000000E-01   5.00000000E-01   3.49519716E+04   4.81459166E+04   9.69344888E+05   2.00609115E+04   1.76163789E+04   1.22874590E+05   2.98823980E+04   7.14500044E+04   8.70069081E-04   2.41182724E-02   2.71649835E+04   4.80336281E+04   4.92915650E+04   2.82796250E-05   3.47617411E+02   2.27004079E+02   6.48245053E-05   6.48944019E-05   2.35703727E-05
   9.27500000E+02   5.00000000E-01   5.00000000E-01   3.49519749E+04   4.81429718E+04   9.69315833E+05   2.00609116E+04   1.76163778E+04   1.22874591E+05   2.98780909E+04   7.15716509E+04   1.16297530E-03   2.59148298E-02   2.72377853E+04   4.80338232E+04   4.92915650E+04   3.11326083E-05   3.47617401E+02   2.27004207E+02   6.48245053E-05   6.48942836E-05   2.35703001E-05
   9.62500000E+02   5.00000000E-01   5.00000000E-01   3.49519799E+04   4.81397188E+04   9.69484942E+05   2.00609116E+04   1.76163768E+04   1.22874592E+05   2.98738952E+04   7.16807816E+04   1.58776405E-03   2.78503214E-02   2.73140674E+04   4.80340191E+04   4.92915650E+04   3.45537862E-05   3.47617388E+02   2.27004344E+02   6.48245053E-05   6.48941779E-05   2.35702299E-05
   9.97500000E+02   5.00000000E-01   5.00000000E-01   3.49519872E+04   4.81361813E+04   9.69890959E+05   2.00609117E+04   1.76163757E+04   1.22874593E+05   2.98697370E+04   7.17806606E+04   2.21351770E-03   2.99234945E-02   2.73936942E+04   4.80342239E+04   4.92915650E+04   3.86880297E-05   3.47617371E+02   2.27004488E+02   6.48245053E-05   6.48940838E-05   2.35701619E-05
   1.03250000E+03   5.00000000E-01   5.00000000E-01   3.49519980E+04   4.81323804E+04   9.70577508E+05   2.00609117E+04   1.76163746E+04   1.22874594E+05   2.98655438E+04   7.18744826E+04   3.14919395E-03   3.21290151E-02   2.74764739E+04   4.80344412E+04   4.92915650E+04   4.37256329E-05   3.47617350E+02   2.27004639E+02   6.48245053E-05   6.48940001E-05   2.35700959E-05
   1.06750000E+03   5.00000000E-01   5.00000000E-01   3.49520137E+04   4.81283339E+04   9.71599427E+05   2.00609118E+04   1.76163735E+04   1.22874596E+05   2.98612493E+04   7.19650429E+04   4.56816340E-03   3.44571923E-02   2.75621661E+04   4.80346593E+04   4.92915650E+04   4.99191433E-05   3.47617326E+02   2.27004799E+02   6.48245053E-05   6.48939258E-05   2.35700320E-05
   1.10250000E+03   5.00000000E-01   5.00000000E-01   3.49520366E+04   4.81240585E+04   9.73007014E+05   2.00609118E+04   1.76163724E+04   1.22874598E+05   2.98567961E+04   7.20548259E+04   6.74820565E-03   3.68936923E-02   2.76504849E+04   4.80348599E+04   4.92915650E+04   5.76073654E-05   3.47617297E+02   2.27004966E+02   6.48245053E-05   6.48938600E-05   2.35699698E-05
   1.13750000E+03   5.00000000E-01   5.00000000E-01   3.49520697E+04   4.81195728E+04   9.74819767E+05   2.00609119E+04   1.76163713E+04   1.22874601E+05   2.98521369E+04   7.21462935E+04   1.01364318E-02   3.94193505E-02   2.77410955E+04   4.80350382E+04   4.92915650E+04   6.72499835E-05   3.47617265E+02   2.27005140E+02   6.48245053E-05   6.48938016E-05   2.35699092E-05
   1.17250000E+03   5.00000000E-01   5.00000000E-01   3.49521171E+04   4.81148989E+04   9.77015626E+05   2.00609120E+04   1.76163702E+04   1.22874605E+05   2.98472365E+04   7.22419482E+04   1.54543325E-02   4.20103666E-02   2.78336176E+04   4.80352167E+04   4.92915650E+04   7.94780978E-05   3.47617231E+02   2.27005321E+02   6.48245053E-05   6.48937500E-05   2.35698503E-05
   1.20750000E+03   5.00000000E-01   5.00000000E-01   3.49521836E+04   4.81100588E+04   9.79554596E+05   2.00609121E+04   1.76163691E+04   1.22874609E+05   2.98420734E+04   7.23438916E+04   2.38678865E-02   4.46391512E-02   2.79276430E+04   4.80354303E+04   4.92915650E+04   9.51689442E-05   3.47617196E+02   2.27005509E+02   6.48245053E-05   6.48937044E-05   2.35697929E-05
   1.24250000E+03   5.00000000E-01   5.00000000E-01   3.49522746E+04   4.81050669E+04   9.82445138E+05   2.00609121E+04   1.76163679E+04   1.22874614E+05   2.98366421E+04   7.24527684E+04   3.72658562E-02   4.72759965E-02   2.80227763E+04   4.80356681E+04   4.92915650E+04   1.15557912E-04   3.47617160E+02   2.27005704E+02   6.48245053E-05   6.48936641E-05   2.35697368E-05
   1.27750000E+03   5.00000000E-01   5.00000000E-01   3.49523961E+04   4.80999317E+04   9.85744017E+05   2.00609122E+04   1.76163668E+04   1.22874620E+05   2.98309491E+04   7.25679212E+04   5.87101275E-02   4.98898684E-02   2.81186440E+04   4.80358619E+04   4.92915650E+04   1.42408785E-04   3.47617126E+02   2.27005906E+02   6.48245053E-05   6.48936286E-05   2.35696821E-05
   1.31250000E+03   5.00000000E-01   5.00000000E-01   3.49525549E+04   4.80946693E+04   9.89459614E+05   2.00609123E+04   1.76163657E+04   1.22874628E+05   2.98250067E+04   7.26891130E+04   9.31403434E-02   5.24476696E-02   2.82148485E+04   4.80359635E+04   4.92915650E+04   1.78275929E-04   3.47617096E+02   2.27006114E+02   6.48245053E-05   6.48935972E-05   2.35696287E-05
   1.34750000E+03   5.00000000E-01   5.00000000E-01   3.49527576E+04   4.80893116E+04   9.93482862E+05   2.00609124E+04   1.76163645E+04   1.22874637E+05   2.98188304E+04   7.28176303E+04   1.48446319E-01   5.49141704E-02   2.83109311E+04   4.80360180E+04   4.92915650E+04   2.26913828E-04   3.47617074E+02   2.27006329E+02   6.48245053E-05   6.48935695E-05   2.35695766E-05
   1.38250000E+03   5.00000000E-01   5.00000000E-01   3.49530066E+04   4.80839180E+04   9.97486257E+05   2.00609125E+04   1.76163634E+04   1.22874648E+05   2.98124360E+04   7.29578867E+04   2.36981199E-01   5.72513271E-02   2.84063085E+04   4.80362666E+04   4.92915650E+04   2.93925735E-04   3.47617061E+02   2.27006549E+02   6.48245053E-05   6.48935450E-05   2.35695257E-05
   1.41750000E+03   5.00000000E-01   5.00000000E-01   3.49532908E+04   4.80785581E+04   1.00118188E+06   2.00609126E+04   1.76163623E+04   1.22874661E+05   2.98058557E+04   7.31128934E+04   3.77870549E-01   5.94254771E-02   2.85004373E+04   4.80369321E+04   4.92915650E+04   3.87808679E-04   3.47617055E+02   2.27006776E+02   6.48245053E-05   6.48935235E-05   2.35694762E-05
   1.45250000E+03   5.00000000E-01   5.00000000E-01   3.49535945E+04   4.80731831E+04   1.00528611E+06   2.00609128E+04   1.76163612E+04   1.22874677E+05   2.97991786E+04   7.32681411E+04   6.02223538E-01   6.14301301E-02   2.85934820E+04   4.80374292E+04   4.92915650E+04   5.21674306E-04   3.47617046E+02   2.27007009E+02   6.48245053E-05   6.48935045E-05   2.35694279E-05
   1.48750000E+03   5.00000000E-01   5.00000000E-01   3.49539208E+04   4.80677604E+04   1.01003122E+06   2.00609129E+04   1.76163601E+04   1.22874695E+05   2.97924436E+04   7.34186317E+04   9.58536624E-01   6.32453356E-02   2.86852659E+04   4.80375645E+04   4.92915650E+04   7.16109551E-04   3.47617036E+02   2.27007249E+02   6.48245053E-05   6.48934877E-05   2.35693807E-05
   1.52250000E+03   5.00000000E-01   5.00000000E-01   3.49542733E+04   4.80624332E+04   1.01439808E+06   2.00609130E+04   1.76163590E+04   1.22874718E+05   2.97856254E+04   7.35808325E+04   1.51557983E+00   6.48223283E-02   2.87746903E+04   4.80381057E+04   4.92915650E+04   1.00400153E-03   3.47617048E+02   2.27007495E+02   6.48245053E-05   6.48934730E-05   2.35693347E-05
   1.55750000E+03   5.00000000E-01   5.00000000E-01   3.49546368E+04   4.80573398E+04   1.01793863E+06   2.00609132E+04   1.76163580E+04   1.22874744E+05   2.97787655E+04   7.37593861E+04   2.37318653E+00   6.61408543E-02   2.88611549E+04   4.80393302E+04   4.92915650E+04   1.43886595E-03   3.47617068E+02   2.27007748E+02   6.48245053E-05   6.48934599E-05   2.35692899E-05
   1.59250000E+03   5.00000000E-01   5.00000000E-01   3.49550087E+04   4.80523878E+04   1.02196306E+06   2.00609133E+04   1.76163570E+04   1.22874775E+05   2.97720038E+04   7.39279755E+04   3.69550549E+00   6.72366403E-02   2.89455289E+04   4.80401719E+04   4.92915650E+04   2.10953812E-03   3.47617064E+02   2.27008008E+02   6.48245053E-05   6.48934485E-05   2.35692462E-05
   1.62750000E+03   5.00000000E-01   5.00000000E-01   3.49553952E+04   4.80475641E+04   1.02670373E+06   2.00609135E+04   1.76163559E+04   1.22874812E+05   2.97653741E+04   7.40813121E+04   5.72191999E+00   6.81054798E-02   2.90277394E+04   4.80403792E+04   4.92915650E+04   3.16640072E-03   3.47617045E+02   2.27008277E+02   6.48245053E-05   6.48934384E-05   2.35692035E-05
   1.66250000E+03   5.00000000E-01   5.00000000E-01   3.49557849E+04   4.80430477E+04   1.03141949E+06   2.00609136E+04   1.76163550E+04   1.22874856E+05   2.97588582E+04   7.42309384E+04   8.77185546E+00   6.87181830E-02   2.91068750E+04   4.80402931E+04   4.92915650E+04   4.86913652E-03   3.47616998E+02   2.27008553E+02   6.48245053E-05   6.48934294E-05   2.35691618E-05
   1.69750000E+03   5.00000000E-01   5.00000000E-01   3.49561757E+04   4.80388790E+04   1.03602725E+06   2.00609138E+04   1.76163540E+04   1.22874908E+05   2.97525015E+04   7.43750908E+04   1.32989135E+01   6.90787905E-02   2.91826939E+04   4.80400661E+04   4.92915650E+04   7.67542238E-03   3.47616935E+02   2.27008839E+02   6.48245053E-05   6.48934216E-05   2.35691210E-05
   1.73250000E+03   5.00000000E-01   5.00000000E-01   3.49565839E+04   4.80349431E+04   1.04084348E+06   2.00609139E+04   1.76163531E+04   1.22874969E+05   2.97463687E+04   7.45046726E+04   1.99542582E+01   6.92066598E-02   2.92553424E+04   4.80398042E+04   4.92915650E+04   1.24087228E-02   3.47616925E+02   2.27009134E+02   6.48245053E-05   6.48934146E-05   2.35690810E-05
   1.76750000E+03   5.00000000E-01   5.00000000E-01   3.49570077E+04   4.80312948E+04   1.04564991E+06   2.00609141E+04   1.76163522E+04   1.22875041E+05   2.97404805E+04   7.46203812E+04   2.95784867E+01   6.91025985E-02   2.93244300E+04   4.80396123E+04   4.92915650E+04   2.05818561E-02   3.47616974E+02   2.27009440E+02   6.48245053E-05   6.48934085E-05   2.35690418E-05
   1.80250000E+03   5.00000000E-01   5.00000000E-01   3.49574334E+04   4.80281153E+04   1.04999393E+06   2.00609142E+04   1.76163514E+04   1.22875125E+05   2.97348499E+04   7.47263906E+04   4.31916822E+01   6.87652434E-02   2.93893595E+04   4.80395576E+04   4.92915650E+04   3.50328632E-02   3.47617026E+02   2.27009757E+02   6.48245053E-05   6.48934031E-05   2.35690033E-05
   1.83750000E+03   5.00000000E-01   5.00000000E-01   3.49578398E+04   4.80255681E+04   1.05345836E+06   2.00609144E+04   1.76163506E+04   1.22875224E+05   2.97295024E+04   7.48253406E+04   6.19720868E+01   6.82013720E-02   2.94496159E+04   4.80398368E+04   4.92915650E+04   6.11975076E-02   3.47617048E+02   2.27010085E+02   6.48245053E-05   6.48933984E-05   2.35689657E-05
   1.87250000E+03   5.00000000E-01   5.00000000E-01   3.49582062E+04   4.80237607E+04   1.05589568E+06   2.00609146E+04   1.76163499E+04   1.22875339E+05   2.97244847E+04   7.49143526E+04   8.72736211E+01   6.74310877E-02   2.95050004E+04   4.80405687E+04   4.92915650E+04   1.09702879E-01   3.47617055E+02   2.27010427E+02   6.48245053E-05   6.48933942E-05   2.35689289E-05
   1.90750000E+03   5.00000000E-01   5.00000000E-01   3.49585376E+04   4.80226999E+04   1.05795721E+06   2.00609147E+04   1.76163493E+04   1.22875475E+05   2.97198838E+04   7.49754200E+04   1.20982904E+02   6.64984051E-02   2.95561526E+04   4.80412897E+04   4.92915650E+04   2.01752299E-01   3.47617064E+02   2.27010784E+02   6.48245053E-05   6.48933905E-05   2.35688931E-05
   1.94250000E+03   5.00000000E-01   5.00000000E-01   3.49588540E+04   4.80223168E+04   1.06041462E+06   2.00609149E+04   1.76163487E+04   1.22875634E+05   2.97157694E+04   7.49883214E+04   1.65632978E+02   6.54406170E-02   2.96037643E+04   4.80415297E+04   4.92915650E+04   3.80493202E-01   3.47617074E+02   2.27011158E+02   6.48245053E-05   6.48933872E-05   2.35688579E-05
   1.97750000E+03   5.00000000E-01   5.00000000E-01   3.49591654E+04   4.80225513E+04   1.06342008E+06   2.00609151E+04   1.76163482E+04   1.22875821E+05   2.97121569E+04   7.49445978E+04   2.23916698E+02   6.42682852E-02   2.96477888E+04   4.80413409E+04   4.92915650E+04   7.35377531E-01   3.47617086E+02   2.27011552E+02   6.48245053E-05   6.48933843E-05   2.35688232E-05
   2.01250000E+03   5.00000000E-01   5.00000000E-01   3.49594741E+04   4.80234769E+04   1.06660284E+06   2.00609153E+04   1.76163478E+04   1.22876039E+05   2.97090371E+04   7.48457206E+04   2.98093974E+02   6.29797947E-02   2.96876553E+04   4.80409278E+04   4.92915650E+04   1.45505015E+00   3.47617102E+02   2.27011965E+02   6.48245053E-05   6.48933817E-05   2.35687889E-05
   2.04750000E+03   5.00000000E-01   5.00000000E-01   3.49597802E+04   4.80252652E+04   1.06945195E+06   2.00609154E+04   1.76163474E+04   1.22876294E+05   2.97064153E+04   7.46959344E+04   3.89661923E+02   6.15800890E-02   2.97228060E+04   4.80404258E+04   4.92915650E+04   2.94314541E+00   3.47617113E+02   2.27012399E+02   6.48245053E-05   6.48933794E-05   2.35687550E-05
   2.08250000E+03   5.00000000E-01   5.00000000E-01   3.49600831E+04   4.80280584E+04   1.07165128E+06   2.00609156E+04   1.76163471E+04   1.22876593E+05   2.97043298E+04   7.44958370E+04   4.99544455E+02   6.00890351E-02   2.97530884E+04   4.80399018E+04   4.92915650E+04   6.07166797E+00   3.47617114E+02   2.27012855E+02   6.48245053E-05   6.48933774E-05   2.35687215E-05
   2.11750000E+03   5.00000000E-01   5.00000000E-01   3.49603818E+04   4.80319423E+04   1.07303917E+06   2.00609158E+04   1.76163469E+04   1.22876941E+05   2.97028424E+04   7.42431818E+04   6.28244587E+02   5.85354804E-02   2.97786858E+04   4.80393869E+04   4.92915650E+04   1.27247822E+01   3.47617107E+02   2.27013335E+02   6.48245053E-05   6.48933756E-05   2.35686885E-05
   2.15250000E+03   5.00000000E-01   5.00000000E-01   3.49606758E+04   4.80369627E+04   1.07348956E+06   2.00609159E+04   1.76163468E+04   1.22877346E+05   2.97020305E+04   7.39347387E+04   7.76002905E+02   5.69519634E-02   2.97999890E+04   4.80388969E+04   4.92915650E+04   2.68944961E+01   3.47617093E+02   2.27013839E+02   6.48245053E-05   6.48933740E-05   2.35686560E-05
   2.18750000E+03   5.00000000E-01   5.00000000E-01   3.49609647E+04   4.80431257E+04   1.07286158E+06   2.00609161E+04   1.76163468E+04   1.22877817E+05   2.97019897E+04   7.35657962E+04   9.43328936E+02   5.53739420E-02   2.98175818E+04   4.80384401E+04   4.92915650E+04   5.65247872E+01   3.47617073E+02   2.27014363E+02   6.48245053E-05   6.48933726E-05   2.35686240E-05
   2.22250000E+03   5.00000000E-01   5.00000000E-01   3.49612493E+04   4.80503738E+04   1.07100526E+06   2.00609163E+04   1.76163469E+04   1.22878359E+05   2.97028392E+04   7.31275815E+04   1.13206690E+03   5.38404469E-02   2.98322772E+04   4.80380207E+04   4.92915650E+04   1.15089424E+02   3.47617046E+02   2.27014898E+02   6.48245053E-05   6.48933713E-05   2.35685926E-05
   2.25750000E+03   5.00000000E-01   5.00000000E-01   3.49615304E+04   4.80585543E+04   1.06785182E+06   2.00609165E+04   1.76163471E+04   1.22878976E+05   2.97047115E+04   7.26045694E+04   1.34641282E+03   5.23902979E-02   2.98450526E+04   4.80376401E+04   4.92915650E+04   2.17746627E+02   3.47617013E+02   2.27015425E+02   6.48245053E-05   6.48933702E-05   2.35685619E-05
   2.29250000E+03   5.00000000E-01   5.00000000E-01   3.49618096E+04   4.80674339E+04   1.06362830E+06   2.00609167E+04   1.76163473E+04   1.22879665E+05   2.97076916E+04   7.19780012E+04   1.59148421E+03   5.10459073E-02   2.98566396E+04   4.80372973E+04   4.92915650E+04   3.64904824E+02   3.47616973E+02   2.27015919E+02   6.48245053E-05   6.48933692E-05   2.35685319E-05
   2.32750000E+03   5.00000000E-01   5.00000000E-01   3.49620889E+04   4.80768110E+04   1.05896045E+06   2.00609170E+04   1.76163476E+04   1.22880425E+05   2.97117314E+04   7.12410182E+04   1.86766558E+03   4.97937088E-02   2.98669300E+04   4.80369897E+04   4.92915650E+04   5.26868641E+02   3.47616927E+02   2.27016363E+02   6.48245053E-05   6.48933682E-05   2.35685026E-05
   2.36250000E+03   5.00000000E-01   5.00000000E-01   3.49623704E+04   4.80866292E+04   1.05444855E+06   2.00609172E+04   1.76163479E+04   1.22881258E+05   2.97166695E+04   7.04120553E+04   2.16635742E+03   4.85939697E-02   2.98750915E+04   4.80367138E+04   4.92915650E+04   6.62398379E+02   3.47616875E+02   2.27016755E+02   6.48245053E-05   6.48933674E-05   2.35684738E-05
   2.39750000E+03   5.00000000E-01   5.00000000E-01   3.49626563E+04   4.80969488E+04   1.05012728E+06   2.00609174E+04   1.76163483E+04   1.22882175E+05   2.97223594E+04   6.95274604E+04   2.47355565E+03   4.74150892E-02   2.98804284E+04   4.80364652E+04   4.92915650E+04   7.51715268E+02   3.47616816E+02   2.27017110E+02   6.48245053E-05   6.48933666E-05   2.35684456E-05
   2.43250000E+03   5.00000000E-01   5.00000000E-01   3.49629489E+04   4.81078485E+04   1.04558182E+06   2.00609177E+04   1.76163487E+04   1.22883190E+05   2.97287268E+04   6.86233488E+04   2.77629943E+03   4.62457859E-02   2.98827269E+04   4.80362393E+04   4.92915650E+04   7.97254201E+02   3.47616750E+02   2.27017440E+02   6.48245053E-05   6.48933659E-05   2.35684178E-05
   2.46750000E+03   5.00000000E-01   5.00000000E-01   3.49632506E+04   4.81193863E+04   1.04038783E+06   2.00609180E+04   1.76163491E+04   1.22884319E+05   2.97357295E+04   6.77259734E+04   3.06557550E+03   4.50825866E-02   2.98819094E+04   4.80360314E+04   4.92915650E+04   8.06912278E+02   3.47616676E+02   2.27017762E+02   6.48245053E-05   6.48933653E-05   2.35683904E-05
   2.50250000E+03   5.00000000E-01   5.00000000E-01   3.49635638E+04   4.81315757E+04   1.03424405E+06   2.00609182E+04   1.76163496E+04   1.22885586E+05   2.97433454E+04   6.68511479E+04   3.33602306E+03   4.39252897E-02   2.98779732E+04   4.80358373E+04   4.92915650E+04   7.90398299E+02   3.47616593E+02   2.27018090E+02   6.48245053E-05   6.48933647E-05   2.35683635E-05
   2.53750000E+03   5.00000000E-01   5.00000000E-01   3.49638909E+04   4.81443407E+04   1.02692921E+06   2.00609185E+04   1.76163501E+04   1.22887014E+05   2.97515958E+04   6.60069942E+04   3.58421096E+03   4.27816479E-02   2.98712501E+04   4.80356531E+04   4.92915650E+04   7.60304461E+02   3.47616500E+02   2.27018435E+02   6.48245053E-05   6.48933642E-05   2.35683371E-05
   2.57250000E+03   5.00000000E-01   5.00000000E-01   3.49642345E+04   4.81575067E+04   1.01834402E+06   2.00609188E+04   1.76163506E+04   1.22888624E+05   2.97605317E+04   6.51981268E+04   3.80675476E+03   4.16644493E-02   2.98623477E+04   4.80354754E+04   4.92915650E+04   7.27537990E+02   3.47616396E+02   2.27018800E+02   6.48245053E-05   6.48933638E-05   2.35683112E-05
   2.60750000E+03   5.00000000E-01   5.00000000E-01   3.49645975E+04   4.81708478E+04   1.00854943E+06   2.00609191E+04   1.76163512E+04   1.22890435E+05   2.97701913E+04   6.44293334E+04   3.99949171E+03   4.05830894E-02   2.98518122E+04   4.80353017E+04   4.92915650E+04   6.97521284E+02   3.47616280E+02   2.27019179E+02   6.48245053E-05   6.48933633E-05   2.35682859E-05
   2.64250000E+03   5.00000000E-01   5.00000000E-01   3.49649829E+04   4.81841507E+04   9.97720692E+05   2.00609194E+04   1.76163518E+04   1.22892462E+05   2.97805737E+04   6.37066959E+04   4.15801146E+03   3.95386941E-02   2.98398783E+04   4.80351302E+04   4.92915650E+04   6.70641365E+02   3.47616151E+02   2.27019568E+02   6.48245053E-05   6.48933629E-05   2.35682613E-05
   2.67750000E+03   5.00000000E-01   5.00000000E-01   3.49653942E+04   4.81972541E+04   9.86068426E+05   2.00609198E+04   1.76163523E+04   1.22894726E+05   2.97916376E+04   6.30360272E+04   4.27893887E+03   3.85248293E-02   2.98264352E+04   4.80349602E+04   4.92915650E+04   6.45107689E+02   3.47616008E+02   2.27019959E+02   6.48245053E-05   6.48933626E-05   2.35682374E-05
   2.71250000E+03   5.00000000E-01   5.00000000E-01   3.49658354E+04   4.82100434E+04   9.73778075E+05   2.00609201E+04   1.76163528E+04   1.22897248E+05   2.98033197E+04   6.24208634E+04   4.36077338E+03   3.75317936E-02   2.98111739E+04   4.80347923E+04   4.92915650E+04   6.19833646E+02   3.47615851E+02   2.27020351E+02   6.48245053E-05   6.48933622E-05   2.35682142E-05