 TITLE = "Mineral Area" 
VARIABLES = "X"          "Y"              "Z"            "Forsterite"     "Fayalite"       "Brucite"        "Lizardite"      "Chrysotile"     "Hematite"       "Magnetite(am)"  "Saponite(Ca)"   "Saponite(K)"    "Saponite(Mg)"   "Saponite(Na)"   "Beidellite(Ca)" "Beidellite(K)"  "Beidellite(Mg)" "Beidellite(Na)" "Enstatite(alph" "Ferrosilite(al" "Anorthite"      "Albite(low)"    "Clinochlore"    "Sudoite"        "Montmor(MgCa)"  "Montmor(MgK)"   "Montmor(MgMg)"  "Montmor(MgNa)"  "Kaolinite"      "Tremolite"      "Pargasite"      "Anhydrite"      "Epidote"        "Scolecite"      "Pyrite"         "FeS(am)"        "Quartz(alpha)"  "Titanite"       "Rutile"         "Barite"         "Fluorite"       "Spessartine(al" "Andradite"      "Celestite"      "Zincite"        "Chalcocyanite"  "Chalcocite(alp"
 ZONE I=         200 , J=           1 , K=           1  F=POINT
   8.75000000E+00   5.00000000E-01   5.00000000E-01   1.30827342E+05   4.78880970E+04   1.21652518E-03   1.04664467E-03   9.59522363E-04   6.65686187E+03   4.75066666E-06   3.87012402E-02   8.48919298E-01   4.72488437E-02   1.90289415E+05   3.64626973E-02   3.81004245E-02   3.73120814E-02   3.70044818E-02   2.00600039E+04   1.76155662E+04   1.15113242E+05   2.95236242E+04   4.49197292E+05   0.00000000E+00   8.06412602E-03   8.29712301E-03   8.24873888E-03   8.18390601E-03   3.42519497E+04   4.48328503E+04   4.59071009E+04   0.00000000E+00   2.80472803E+03   1.91328829E-05   6.89944639E-05   6.79220893E-05   2.35937734E-05   3.52255031E+01   4.24384245E+01   1.48166515E+03   3.18127306E+01   3.36987082E+02   3.85411906E+01   3.97154279E+01   5.65531050E+02   3.90435146E+01   5.60033985E+01
   2.62500000E+01   5.00000000E-01   5.00000000E-01   1.30827341E+05   4.78901917E+04   1.21652293E-03   9.34034302E-04   8.80191794E-04   6.65686183E+03   4.75111511E-06   3.95601477E-02   1.70619573E+00   5.19780390E-02   4.92648179E+05   3.64627033E-02   3.81004331E-02   3.73121095E-02   3.70045551E-02   2.00600034E+04   1.76156050E+04   1.15113242E+05   2.95760257E+04   4.42560822E+05   0.00000000E+00   8.06415638E-03   8.29719700E-03   8.24886950E-03   8.18442785E-03   3.42519528E+04   4.48537497E+04   4.59071009E+04   0.00000000E+00   2.80472803E+03   1.91328907E-05   6.89944639E-05   6.79220893E-05   2.36096946E-05   3.52254930E+01   4.24384314E+01   1.45161687E+03   3.18127294E+01   3.36987082E+02   3.85411906E+01   3.97154279E+01   5.65531071E+02   3.90435146E+01   5.60021253E+01
   4.37500000E+01   5.00000000E-01   5.00000000E-01   1.30827341E+05   4.78922879E+04   1.21652203E-03   8.76833565E-04   8.38824247E-04   6.65686183E+03   4.75141364E-06   4.01194599E-02   2.16173302E+00   5.51374090E-02   5.40541224E+05   3.64627601E-02   3.81005100E-02   3.73123728E-02   3.70052253E-02   2.00600032E+04   1.76156392E+04   1.15113242E+05   2.97130223E+04   4.35198999E+05   0.00000000E+00   8.06433300E-03   8.29760392E-03   8.24962849E-03   8.18737073E-03   3.42519679E+04   4.48684280E+04   4.59071009E+04   0.00000000E+00   2.80472803E+03   1.91329244E-05   6.89944639E-05   6.79220893E-05   2.36234456E-05   3.52254868E+01   4.24384378E+01   1.43968883E+03   3.18127284E+01   3.36987082E+02   3.85411906E+01   3.97154279E+01   5.65531072E+02   3.90435146E+01   5.60021253E+01
   6.12500000E+01   5.00000000E-01   5.00000000E-01   1.30827341E+05   4.78944782E+04   1.21652160E-03   8.47493394E-04   8.17356424E-04   6.65686183E+03   4.75167435E-06   4.05817341E-02   2.47654090E+00   5.78116337E-02   6.66732572E+05   3.64629278E-02   3.81007248E-02   3.73131502E-02   3.70071453E-02   2.00600032E+04   1.76156723E+04   1.15113242E+05   2.99133609E+04   4.23690391E+05   0.00000000E+00   8.06474467E-03   8.29849314E-03   8.25139594E-03   8.19399318E-03   3.42519963E+04   4.48805459E+04   4.59071009E+04   0.00000000E+00   2.80472803E+03   1.91329868E-05   6.89944639E-05   6.79220893E-05   2.36347209E-05   3.52254840E+01   4.24384439E+01   1.43463029E+03   3.18127274E+01   3.36987082E+02   3.85411906E+01   3.97154279E+01   5.65531093E+02   3.90435146E+01   5.60021253E+01
   7.87500000E+01   5.00000000E-01   5.00000000E-01   1.30827341E+05   4.78969156E+04   1.21652139E-03   8.32740116E-04   8.06561960E-04   6.65686182E+03   4.75193975E-06   4.10667565E-02   2.81778685E+00   6.06943005E-02   8.48785292E+05   3.64632390E-02   3.81010992E-02   3.73145895E-02   3.70105875E-02   2.00600033E+04   1.76157050E+04   1.15113242E+05   3.01391675E+04   4.10191909E+05   0.00000000E+00   8.06538545E-03   8.29978278E-03   8.25414454E-03   8.20391588E-03   3.42520356E+04   4.48961334E+04   4.59071009E+04   0.00000000E+00   2.80472803E+03   1.91330717E-05   6.89944639E-05   6.79220893E-05   2.36434623E-05   3.52254831E+01   4.24384494E+01   1.43233529E+03   3.18127266E+01   3.36987082E+02   3.85411906E+01   3.97154279E+01   5.65531132E+02   3.90435146E+01   5.60021253E+01
   9.62500000E+01   5.00000000E-01   5.00000000E-01   1.30827341E+05   4.78996461E+04   1.21652128E-03   8.24933575E-04   8.00911592E-04   6.65686181E+03   4.75222229E-06   4.15787285E-02   3.17136232E+00   6.38181900E-02   1.03457052E+06   3.64636803E-02   3.81015958E-02   3.73166278E-02   3.70152949E-02   2.00600034E+04   1.76157373E+04   1.15113242E+05   3.03564343E+04   3.97063437E+05   0.00000000E+00   8.06617417E-03   8.30124957E-03   8.25752466E-03   8.21562527E-03   3.42520814E+04   4.49160715E+04   4.59071009E+04   0.00000000E+00   2.80472803E+03   1.91331689E-05   6.89944639E-05   6.79220893E-05   2.36499394E-05   3.52254829E+01   4.24384545E+01   1.43120657E+03   3.18127258E+01   3.36987082E+02   3.85411906E+01   3.97154278E+01   5.65531183E+02   3.90435146E+01   5.60021253E+01
   1.13750000E+02   5.00000000E-01   5.00000000E-01   1.30827341E+05   4.79026537E+04   1.21652122E-03   8.20471084E-04   7.97753552E-04   6.65686181E+03   4.75252497E-06   4.20905632E-02   3.48178361E+00   6.70202261E-02   1.19094637E+06   3.64641898E-02   3.81021268E-02   3.73189772E-02   3.70205090E-02   2.00600036E+04   1.76157689E+04   1.15113242E+05   3.05412923E+04   3.85915725E+05   0.00000000E+00   8.06699219E-03   8.30263486E-03   8.26102692E-03   8.22718368E-03   3.42521270E+04   4.49390601E+04   4.59071009E+04   0.00000000E+00   2.80472803E+03   1.91332652E-05   6.89944639E-05   6.79220893E-05   2.36545871E-05   3.52254830E+01   4.24384590E+01   1.43059120E+03   3.18127250E+01   3.36987082E+02   3.85411906E+01   3.97154278E+01   5.65531242E+02   3.90435146E+01   5.60021252E+01
   1.31250000E+02   5.00000000E-01   5.00000000E-01   1.30827341E+05   4.79059065E+04   1.21652121E-03   8.17747785E-04   7.95897223E-04   6.65686180E+03   4.75284895E-06   4.25795191E-02   3.70809503E+00   7.01505781E-02   1.30752336E+06   3.64646987E-02   3.81026104E-02   3.73213189E-02   3.70254668E-02   2.00600038E+04   1.76157997E+04   1.15113242E+05   3.06846892E+04   3.77330809E+05   0.00000000E+00   8.06774718E-03   8.30377300E-03   8.26425543E-03   8.23722535E-03   3.42521672E+04   4.49634687E+04   4.59071009E+04   0.00000000E+00   2.80472803E+03   1.91333512E-05   6.89944639E-05   6.79220893E-05   2.36578480E-05   3.52254832E+01   4.24384629E+01   1.43021070E+03   3.18127243E+01   3.36987082E+02   3.85411906E+01   3.97154278E+01   5.65531309E+02   3.90435146E+01   5.60021252E+01
   1.48750000E+02   5.00000000E-01   5.00000000E-01   1.30827341E+05   4.79093756E+04   1.21652122E-03   8.16048629E-04   7.94810932E-04   6.65686179E+03   4.75319538E-06   4.30338618E-02   3.83521086E+00   7.31203319E-02   1.38677197E+06   3.64651631E-02   3.81030045E-02   3.73234506E-02   3.70297315E-02   2.00600041E+04   1.76158298E+04   1.15113242E+05   3.07886373E+04   3.71177185E+05   0.00000000E+00   8.06839709E-03   8.30461669E-03   8.26703047E-03   8.24524159E-03   3.42521997E+04   4.49880471E+04   4.59071009E+04   0.00000000E+00   2.80472803E+03   1.91334229E-05   6.89944639E-05   6.79220893E-05   2.36600942E-05   3.52254834E+01   4.24384663E+01   1.42994170E+03   3.18127237E+01   3.36987082E+02   3.85411906E+01   3.97154278E+01   5.65531382E+02   3.90435146E+01   5.60021252E+01
   1.66250000E+02   5.00000000E-01   5.00000000E-01   1.30827341E+05   4.79130377E+04   1.21652126E-03   8.15032073E-04   7.94241193E-04   6.65686179E+03   4.75356540E-06   4.34495223E-02   3.86749622E+00   7.58876910E-02   1.43598622E+06   3.64655665E-02   3.81033020E-02   3.73252981E-02   3.70331834E-02   2.00600043E+04   1.76158591E+04   1.15113242E+05   3.08600524E+04   3.67018695E+05   0.00000000E+00   8.06893784E-03   8.30519278E-03   8.26933531E-03   8.25131077E-03   3.42522243E+04   4.50119776E+04   4.59071009E+04   0.00000000E+00   2.80472803E+03   1.91334806E-05   6.89944639E-05   6.79220893E-05   2.36616083E-05   3.52254836E+01   4.24384692E+01   1.42972760E+03   3.18127231E+01   3.36987082E+02   3.85411906E+01   3.97154278E+01   5.65531459E+02   3.90435146E+01   5.60021252E+01
   1.83750000E+02   5.00000000E-01   5.00000000E-01   1.30827341E+05   4.79168715E+04   1.21652130E-03   8.14513847E-04   7.94051766E-04   6.65686178E+03   4.75396004E-06   4.38262850E-02   3.81946936E+00   7.84373686E-02   1.46301427E+06   3.64659106E-02   3.81035147E-02   3.73268688E-02   3.70358890E-02   2.00600046E+04   1.76158876E+04   1.15113242E+05   3.09066312E+04   3.64373508E+05   0.00000000E+00   8.06938416E-03   8.30555601E-03   8.27123368E-03   8.25576667E-03   3.42522423E+04   4.50347329E+04   4.59071009E+04   0.00000000E+00   2.80472803E+03   1.91335262E-05   6.89944639E-05   6.79220893E-05   2.36625938E-05   3.52254836E+01   4.24384715E+01   1.42954165E+03   3.18127225E+01   3.36987082E+02   3.85411906E+01   3.97154278E+01   5.65531541E+02   3.90435146E+01   5.60021252E+01
   2.01250000E+02   5.00000000E-01   5.00000000E-01   1.30827341E+05   4.79208568E+04   1.21652136E-03   8.14381767E-04   7.94160048E-04   6.65686177E+03   4.75438017E-06   4.41656797E-02   3.70914202E+00   8.07681589E-02   1.47451656E+06   3.64662047E-02   3.81036604E-02   3.73282072E-02   3.70379860E-02   2.00600049E+04   1.76159152E+04   1.15113242E+05   3.09350184E+04   3.62827169E+05   0.00000000E+00   8.06975624E-03   8.30576228E-03   8.27281264E-03   8.25898916E-03   3.42522551E+04   4.50559666E+04   4.59071009E+04   0.00000000E+00   2.80472804E+03   1.91335623E-05   6.89944639E-05   6.79220893E-05   2.36631930E-05   3.52254835E+01   4.24384732E+01   1.42937080E+03   3.18127220E+01   3.36987082E+02   3.85411906E+01   3.97154278E+01   5.65531626E+02   3.90435146E+01   5.60021252E+01
   2.18750000E+02   5.00000000E-01   5.00000000E-01   1.30827341E+05   4.79249737E+04   1.21652143E-03   8.14561468E-04   7.94511510E-04   6.65686176E+03   4.75482658E-06   4.44700737E-02   3.55425824E+00   8.28870800E-02   1.47556122E+06   3.64664603E-02   3.81037565E-02   3.73293662E-02   3.70396198E-02   2.00600052E+04   1.76159420E+04   1.15113242E+05   3.09503373E+04   3.62061002E+05   0.00000000E+00   8.07007312E-03   8.30585795E-03   8.27415409E-03   8.26131062E-03   3.42522638E+04   4.50754593E+04   4.59071009E+04   0.00000000E+00   2.80472804E+03   1.91335913E-05   6.89944639E-05   6.79220893E-05   2.36635045E-05   3.52254833E+01   4.24384744E+01   1.42920859E+03   3.18127216E+01   3.36987082E+02   3.85411906E+01   3.97154278E+01   5.65531714E+02   3.90435146E+01   5.60021252E+01
   2.36250000E+02   5.00000000E-01   5.00000000E-01   1.30827341E+05   4.79292034E+04   1.21652151E-03   8.15000945E-04   7.95068203E-04   6.65686176E+03   4.75530001E-06   4.47422867E-02   3.37045346E+00   8.48065381E-02   1.46977498E+06   3.64666878E-02   3.81038172E-02   3.73303943E-02   3.70409147E-02   2.00600055E+04   1.76159680E+04   1.15113242E+05   3.09563130E+04   3.61844074E+05   0.00000000E+00   8.07035031E-03   8.30587778E-03   8.27532468E-03   8.26298950E-03   3.42522697E+04   4.50930929E+04   4.59071009E+04   0.00000000E+00   2.80472804E+03   1.91336150E-05   6.89944639E-05   6.79220893E-05   2.36635971E-05   3.52254830E+01   4.24384751E+01   1.42905173E+03   3.18127211E+01   3.36987082E+02   3.85411906E+01   3.97154278E+01   5.65531805E+02   3.90435146E+01   5.60021252E+01
   2.53750000E+02   5.00000000E-01   5.00000000E-01   1.30827341E+05   4.79335285E+04   1.21652159E-03   8.15662315E-04   7.95802644E-04   6.65686175E+03   4.75580129E-06   4.49853891E-02   3.17054130E+00   8.65425802E-02   1.45964880E+06   3.64668957E-02   3.81038532E-02   3.73313306E-02   3.70419675E-02   2.00600059E+04   1.76159932E+04   1.15113242E+05   3.09555692E+04   3.62014575E+05   0.00000000E+00   8.07059945E-03   8.30584639E-03   8.27637440E-03   8.26421378E-03   3.42522734E+04   4.51088355E+04   4.59071009E+04   0.00000000E+00   2.80472804E+03   1.91336349E-05   6.89944639E-05   6.79220893E-05   2.36635192E-05   3.52254825E+01   4.24384753E+01   1.42889857E+03   3.18127207E+01   3.36987082E+02   3.85411906E+01   3.97154278E+01   5.65531898E+02   3.90435146E+01   5.60021252E+01
   2.71250000E+02   5.00000000E-01   5.00000000E-01   1.30827341E+05   4.79379336E+04   1.21652169E-03   8.16517173E-04   7.96694361E-04   6.65686174E+03   4.75633134E-06   4.52025565E-02   2.96443447E+00   8.81135074E-02   1.44683658E+06   3.64670903E-02   3.81038721E-02   3.73322046E-02   3.70428484E-02   2.00600062E+04   1.76160174E+04   1.15113242E+05   3.09499234E+04   3.62461364E+05   0.00000000E+00   8.07082881E-03   8.30578053E-03   8.27733873E-03   8.26511418E-03   3.42522757E+04   4.51227272E+04   4.59071009E+04   0.00000000E+00   2.80472804E+03   1.91336522E-05   6.89944639E-05   6.79220893E-05   2.36633058E-05   3.52254818E+01   4.24384749E+01   1.42874825E+03   3.18127204E+01   3.36987082E+02   3.85411906E+01   3.97154278E+01   5.65531993E+02   3.90435146E+01   5.60021252E+01
   2.88750000E+02   5.00000000E-01   5.00000000E-01   1.30827342E+05   4.79424054E+04   1.21652179E-03   8.17544218E-04   7.97728173E-04   6.65686173E+03   4.75689126E-06   4.53969463E-02   2.75940068E+00   8.95386637E-02   1.43239787E+06   3.64672760E-02   3.81038790E-02   3.73330367E-02   3.70436056E-02   2.00600066E+04   1.76160409E+04   1.15113242E+05   3.09406255E+04   3.63109038E+05   0.00000000E+00   8.07104398E-03   8.30569127E-03   8.27824164E-03   8.26577830E-03   3.42522769E+04   4.51348649E+04   4.59071009E+04   0.00000000E+00   2.80472804E+03   1.91336674E-05   6.89944639E-05   6.79220893E-05   2.36629828E-05   3.52254811E+01   4.24384741E+01   1.42860037E+03   3.18127200E+01   3.36987082E+02   3.85411906E+01   3.97154278E+01   5.65532090E+02   3.90435146E+01   5.60021252E+01
   3.06250000E+02   5.00000000E-01   5.00000000E-01   1.30827342E+05   4.79469326E+04   1.21652189E-03   8.18728393E-04   7.98893614E-04   6.65686172E+03   4.75748234E-06   4.55715936E-02   2.56046996E+00   9.08373956E-02   1.41698060E+06   3.64674558E-02   3.81038774E-02   3.73338403E-02   3.70442708E-02   2.00600070E+04   1.76160635E+04   1.15113242E+05   3.09285345E+04   3.63906829E+05   0.00000000E+00   8.07124852E-03   8.30558571E-03   8.27909834E-03   8.26626272E-03   3.42522774E+04   4.51453873E+04   4.59071009E+04   0.00000000E+00   2.80472804E+03   1.91336811E-05   6.89944639E-05   6.79220893E-05   2.36625698E-05   3.52254802E+01   4.24384729E+01   1.42845477E+03   3.18127197E+01   3.36987082E+02   3.85411907E+01   3.97154278E+01   5.65532188E+02   3.90435146E+01   5.60021252E+01
   3.23750000E+02   5.00000000E-01   5.00000000E-01   1.30827342E+05   4.79515062E+04   1.21652201E-03   8.20060831E-04   8.00184990E-04   6.65686171E+03   4.75810614E-06   4.57293292E-02   2.37088287E+00   9.20282130E-02   1.40095502E+06   3.64676314E-02   3.81038692E-02   3.73346230E-02   3.70448626E-02   2.00600074E+04   1.76160853E+04   1.15113242E+05   3.09142448E+04   3.64820650E+05   0.00000000E+00   8.07144449E-03   8.30546830E-03   8.27991768E-03   8.26660243E-03   3.42522772E+04   4.51544597E+04   4.59071009E+04   0.00000000E+00   2.80472804E+03   1.91336936E-05   6.89944639E-05   6.79220893E-05   2.36620823E-05   3.52254791E+01   4.24384712E+01   1.42831140E+03   3.18127194E+01   3.36987082E+02   3.85411907E+01   3.97154278E+01   5.65532289E+02   3.90435146E+01   5.60021252E+01
   3.41250000E+02   5.00000000E-01   5.00000000E-01   1.30827342E+05   4.79561188E+04   1.21652213E-03   8.21538956E-04   8.01601567E-04   6.65686170E+03   4.75876442E-06   4.58727230E-02   2.19251706E+00   9.31281858E-02   1.38451129E+06   3.64678034E-02   3.81038557E-02   3.73353882E-02   3.70453912E-02   2.00600078E+04   1.76161064E+04   1.15113242E+05   3.08981743E+04   3.65827463E+05   0.00000000E+00   8.07163291E-03   8.30534176E-03   8.28070403E-03   8.26681798E-03   3.42522765E+04   4.51622600E+04   4.59071009E+04   0.00000000E+00   2.80472804E+03   1.91337050E-05   6.89944639E-05   6.79220893E-05   2.36615327E-05   3.52254780E+01   4.24384691E+01   1.42817027E+03   3.18127191E+01   3.36987082E+02   3.85411907E+01   3.97154278E+01   5.65532392E+02   3.90435146E+01   5.60021252E+01
   3.58750000E+02   5.00000000E-01   5.00000000E-01   1.30827342E+05   4.79607647E+04   1.21652226E-03   8.23166297E-04   8.03147510E-04   6.65686169E+03   4.75945921E-06   4.60040554E-02   2.02626090E+00   9.41525894E-02   1.36773104E+06   3.64679719E-02   3.81038374E-02   3.73361364E-02   3.70458608E-02   2.00600082E+04   1.76161267E+04   1.15113242E+05   3.08806261E+04   3.66911302E+05   0.00000000E+00   8.07181411E-03   8.30520774E-03   8.28145879E-03   8.26692088E-03   3.42522753E+04   4.51689659E+04   4.59071009E+04   0.00000000E+00   2.80472804E+03   1.91337155E-05   6.89944639E-05   6.79220893E-05   2.36609313E-05   3.52254768E+01   4.24384666E+01   1.42803144E+03   3.18127189E+01   3.36987082E+02   3.85411907E+01   3.97154278E+01   5.65532496E+02   3.90435146E+01   5.60021252E+01
   3.76250000E+02   5.00000000E-01   5.00000000E-01   1.30827342E+05   4.79654394E+04   1.21652239E-03   8.24951885E-04   8.04831493E-04   6.65686168E+03   4.76019272E-06   4.61253158E-02   1.87232065E+00   9.51147969E-02   1.35063873E+06   3.64681368E-02   3.81038147E-02   3.73368662E-02   3.70462724E-02   2.00600086E+04   1.76161462E+04   1.15113242E+05   3.08618315E+04   3.68060486E+05   0.00000000E+00   8.07198803E-03   8.30506731E-03   8.28218167E-03   8.26691756E-03   3.42522738E+04   4.51747455E+04   4.59071009E+04   0.00000000E+00   2.80472804E+03   1.91337251E-05   6.89944639E-05   6.79220893E-05   2.36602865E-05   3.52254755E+01   4.24384638E+01   1.42789498E+03   3.18127186E+01   3.36987082E+02   3.85411907E+01   3.97154278E+01   5.65532602E+02   3.90435146E+01   5.60021252E+01
   3.93750000E+02   5.00000000E-01   5.00000000E-01   1.30827342E+05   4.79701399E+04   1.21652254E-03   8.26909393E-04   8.06666075E-04   6.65686167E+03   4.76096737E-06   4.62382221E-02   1.73045867E+00   9.60263706E-02   1.33323551E+06   3.64682974E-02   3.81037877E-02   3.73375755E-02   3.70466255E-02   2.00600090E+04   1.76161652E+04   1.15113242E+05   3.08419787E+04   3.69265749E+05   0.00000000E+00   8.07215440E-03   8.30492124E-03   8.28287159E-03   8.26681221E-03   3.42522718E+04   4.51797503E+04   4.59071009E+04   0.00000000E+00   2.80472805E+03   1.91337337E-05   6.89944639E-05   6.79220893E-05   2.36596056E-05   3.52254741E+01   4.24384607E+01   1.42776098E+03   3.18127184E+01   3.36987082E+02   3.85411907E+01   3.97154278E+01   5.65532711E+02   3.90435146E+01   5.60021252E+01
   4.11250000E+02   5.00000000E-01   5.00000000E-01   1.30827343E+05   4.79748634E+04   1.21652269E-03   8.29056254E-04   8.08667041E-04   6.65686165E+03   4.76178573E-06   4.63442523E-02   1.60016619E+00   9.68972653E-02   1.31551700E+06   3.64684533E-02   3.81037567E-02   3.73382619E-02   3.70469194E-02   2.00600095E+04   1.76161834E+04   1.15113242E+05   3.08212310E+04   3.70519136E+05   0.00000000E+00   8.07231295E-03   8.30477023E-03   8.28352735E-03   8.26660851E-03   3.42522695E+04   4.51841130E+04   4.59071009E+04   0.00000000E+00   2.80472805E+03   1.91337415E-05   6.89944639E-05   6.79220893E-05   2.36588948E-05   3.52254726E+01   4.24384573E+01   1.42762952E+03   3.18127182E+01   3.36987082E+02   3.85411907E+01   3.97154278E+01   5.65532821E+02   3.90435146E+01   5.60021252E+01
   4.28750000E+02   5.00000000E-01   5.00000000E-01   1.30827343E+05   4.79796079E+04   1.21652285E-03   8.31412911E-04   8.10852842E-04   6.65686164E+03   4.76265058E-06   4.64446750E-02   1.48077998E+00   9.77360319E-02   1.29747786E+06   3.64686039E-02   3.81037218E-02   3.73389230E-02   3.70471539E-02   2.00600100E+04   1.76162011E+04   1.15113242E+05   3.07997354E+04   3.71813498E+05   0.00000000E+00   8.07246342E-03   8.30461495E-03   8.28414792E-03   8.26631043E-03   3.42522668E+04   4.51879484E+04   4.59071009E+04   4.46735794E-23   2.80472805E+03   1.91337483E-05   6.89944639E-05   6.79220893E-05   2.36581591E-05   3.52254711E+01   4.24384536E+01   1.42750068E+03   3.18127180E+01   3.36987082E+02   3.85411907E+01   3.97154278E+01   5.65532934E+02   3.90435146E+01   5.60021252E+01
   4.46250000E+02   5.00000000E-01   5.00000000E-01   1.30827343E+05   4.79843714E+04   1.21652302E-03   8.34002300E-04   8.13244204E-04   6.65686163E+03   4.76356482E-06   4.65405693E-02   1.37155593E+00   9.85499323E-02   1.27910827E+06   3.64687489E-02   3.81036832E-02   3.73395570E-02   3.70473289E-02   2.00600105E+04   1.76162181E+04   1.15113242E+05   3.07776258E+04   3.73142383E+05   0.00000000E+00   8.07260563E-03   8.30445603E-03   8.28473250E-03   8.26592227E-03   3.42522637E+04   4.51913565E+04   4.59071009E+04   0.00000000E+00   2.80472805E+03   1.91337542E-05   6.89944639E-05   6.79220893E-05   2.36574031E-05   3.52254695E+01   4.24384496E+01   1.42737454E+03   3.18127178E+01   3.36987082E+02   3.85411907E+01   3.97154278E+01   5.65533049E+02   3.90435146E+01   5.60021252E+01
   4.63750000E+02   5.00000000E-01   5.00000000E-01   1.30827343E+05   4.79891514E+04   1.21652320E-03   8.36849545E-04   8.15863909E-04   6.65686161E+03   4.76453155E-06   4.66328304E-02   1.27171460E+00   9.93449405E-02   1.26038897E+06   3.64688876E-02   3.81036412E-02   3.73401616E-02   3.70474447E-02   2.00600110E+04   1.76162346E+04   1.15113242E+05   3.07550235E+04   3.74500095E+05   0.00000000E+00   8.07273942E-03   8.30429411E-03   8.28528043E-03   8.26544841E-03   3.42522603E+04   4.51944255E+04   4.59071009E+04   3.34261415E-09   2.80472805E+03   1.91337592E-05   6.89944639E-05   6.79220893E-05   2.36566305E-05   3.52254679E+01   4.24384455E+01   1.42725119E+03   3.18127177E+01   3.36987082E+02   3.85411907E+01   3.97154278E+01   5.65533167E+02   3.90435146E+01   5.60021252E+01
   4.81250000E+02   5.00000000E-01   5.00000000E-01   1.30827344E+05   4.79939454E+04   1.21652339E-03   8.39981906E-04   8.18736771E-04   6.65686159E+03   4.76555409E-06   4.67221678E-02   1.18047110E+00   1.00125674E-01   1.24128989E+06   3.64690197E-02   3.81035958E-02   3.73407349E-02   3.70475014E-02   2.00600115E+04   1.76162506E+04   1.15113242E+05   3.07320370E+04   3.75881704E+05   0.00000000E+00   8.07286464E-03   8.30412975E-03   8.28579110E-03   8.26489308E-03   3.42522567E+04   4.51972332E+04   4.59071009E+04   2.11473932E-08   2.80472805E+03   1.91337634E-05   6.89944639E-05   6.79220893E-05   2.36558445E-05   3.52254663E+01   4.24384411E+01   1.42713069E+03   3.18127175E+01   3.36987082E+02   3.85411907E+01   3.97154278E+01   5.65533287E+02   3.90435146E+01   5.60021252E+01
   4.98750000E+02   5.00000000E-01   5.00000000E-01   1.30827344E+05   4.79987503E+04   1.21652359E-03   8.43428960E-04   8.21889818E-04   6.65686158E+03   4.76663593E-06   4.68091044E-02   1.09705786E+00   1.00895346E-01   1.22177439E+06   3.64691447E-02   3.81035473E-02   3.73412747E-02   3.70474992E-02   2.00600120E+04   1.76162661E+04   1.15113242E+05   3.07087631E+04   3.77282934E+05   0.00000000E+00   8.07298115E-03   8.30396348E-03   8.28626392E-03   8.26426041E-03   3.42522527E+04   4.51998467E+04   4.59071009E+04   4.87680056E-08   2.80472806E+03   1.91337666E-05   6.89944639E-05   6.79220893E-05   2.36550481E-05   3.52254646E+01   4.24384366E+01   1.42701312E+03   3.18127174E+01   3.36987082E+02   3.85411907E+01   3.97154278E+01   5.65533409E+02   3.90435146E+01   5.60021251E+01
   5.16250000E+02   5.00000000E-01   5.00000000E-01   1.30827345E+05   4.80035626E+04   1.21652380E-03   8.47223046E-04   8.25352684E-04   6.65686156E+03   4.76778087E-06   4.68939877E-02   1.02074385E+00   1.01655829E-01   1.20180746E+06   3.64692621E-02   3.81034959E-02   3.73417790E-02   3.70474382E-02   2.00600126E+04   1.76162810E+04   1.15113242E+05   3.06852898E+04   3.78699926E+05   0.00000000E+00   8.07308883E-03   8.30379579E-03   8.28669848E-03   8.26355463E-03   3.42522484E+04   4.52023194E+04   4.59071009E+04   9.09935780E-08   2.80472806E+03   1.91337690E-05   6.89944639E-05   6.79220893E-05   2.36542437E-05   3.52254630E+01   4.24384319E+01   1.42689856E+03   3.18127173E+01   3.36987082E+02   3.85411907E+01   3.97154279E+01   5.65533535E+02   3.90435146E+01   5.60021251E+01
   5.33750000E+02   5.00000000E-01   5.00000000E-01   1.30827345E+05   4.80083784E+04   1.21652402E-03   8.51399967E-04   8.29158232E-04   6.65686154E+03   4.76899292E-06   4.69770177E-02   9.50850003E-01   1.02407872E-01   1.18136442E+06   3.64693716E-02   3.81034418E-02   3.73422462E-02   3.70473197E-02   2.00600132E+04   1.76162955E+04   1.15113242E+05   3.06616998E+04   3.80128956E+05   0.00000000E+00   8.07318768E-03   8.30362719E-03   8.28709476E-03   8.26278053E-03   3.42522439E+04   4.52046888E+04   4.59071009E+04   1.54959627E-07   2.80472806E+03   1.91337704E-05   6.89944639E-05   6.79220893E-05   2.36534335E-05   3.52254612E+01   4.24384271E+01   1.42678705E+03   3.18127172E+01   3.36987082E+02   3.85411907E+01   3.97154279E+01   5.65533663E+02   3.90435146E+01   5.60021251E+01
   5.51250000E+02   5.00000000E-01   5.00000000E-01   1.30827346E+05   4.80131939E+04   1.21652426E-03   8.55999900E-04   8.33343357E-04   6.65686152E+03   4.77027644E-06   4.70582898E-02   8.86759506E-01   1.03151447E-01   1.16043586E+06   3.64694729E-02   3.81033852E-02   3.73426756E-02   3.70471457E-02   2.00600138E+04   1.76163095E+04   1.15113242E+05   3.06380723E+04   3.81566245E+05   0.00000000E+00   8.07327781E-03   8.30345824E-03   8.28745330E-03   8.26194381E-03   3.42522391E+04   4.52069754E+04   4.59071009E+04   2.51340486E-07   2.80472806E+03   1.91337711E-05   6.89944639E-05   6.79220893E-05   2.36526195E-05   3.52254595E+01   4.24384221E+01   1.42667867E+03   3.18127171E+01   3.36987082E+02   3.85411907E+01   3.97154279E+01   5.65533794E+02   3.90435146E+01   5.60021251E+01
   5.68750000E+02   5.00000000E-01   5.00000000E-01   1.30827346E+05   4.80180048E+04   1.21652450E-03   8.61068456E-04   8.37949931E-04   6.65686149E+03   4.77163609E-06   4.71378405E-02   8.27921179E-01   1.03886136E-01   1.13902680E+06   3.64695661E-02   3.81033265E-02   3.73430672E-02   3.70469195E-02   2.00600144E+04   1.76163230E+04   1.15113242E+05   3.06144852E+04   3.83007914E+05   0.00000000E+00   8.07335951E-03   8.30328953E-03   8.28777533E-03   8.26105110E-03   3.42522341E+04   4.52091842E+04   4.59071009E+04   3.96176886E-07   2.80472806E+03   1.91337710E-05   6.89944639E-05   6.79220893E-05   2.36518034E-05   3.52254578E+01   4.24384171E+01   1.42657346E+03   3.18127170E+01   3.36987082E+02   3.85411907E+01   3.97154279E+01   5.65533928E+02   3.90435146E+01   5.60021251E+01
   5.86250000E+02   5.00000000E-01   5.00000000E-01   1.30827347E+05   4.80228068E+04   1.21652477E-03   8.66657812E-04   8.43025823E-04   6.65686147E+03   4.77307690E-06   4.72156846E-02   7.73846223E-01   1.04611422E-01   1.11715004E+06   3.64696513E-02   3.81032661E-02   3.73434219E-02   3.70466449E-02   2.00600150E+04   1.76163361E+04   1.15113242E+05   3.05910132E+04   3.84450115E+05   0.00000000E+00   8.07343318E-03   8.30312167E-03   8.28806265E-03   8.26010972E-03   3.42522289E+04   4.52113094E+04   4.59071009E+04   6.13694408E-07   2.80472807E+03   1.91337701E-05   6.89944639E-05   6.79220893E-05   2.36509865E-05   3.52254561E+01   4.24384120E+01   1.42647150E+03   3.18127169E+01   3.36987082E+02   3.85411907E+01   3.97154279E+01   5.65534065E+02   3.90435146E+01   5.60021251E+01
   6.03750000E+02   5.00000000E-01   5.00000000E-01   1.30827348E+05   4.80275948E+04   1.21652505E-03   8.72827875E-04   8.48625961E-04   6.65686145E+03   4.77460433E-06   4.72918324E-02   7.24100081E-01   1.05326817E-01   1.09481700E+06   3.64697288E-02   3.81032043E-02   3.73437411E-02   3.70463266E-02   2.00600157E+04   1.76163487E+04   1.15113242E+05   3.05677263E+04   3.85889259E+05   0.00000000E+00   8.07349933E-03   8.30295524E-03   8.28831738E-03   8.25912713E-03   3.42522235E+04   4.52133400E+04   4.59071009E+04   9.40678031E-07   2.80472807E+03   1.91337685E-05   6.89944639E-05   6.79220893E-05   2.36501702E-05   3.52254543E+01   4.24384069E+01   1.42637281E+03   3.18127168E+01   3.36987082E+02   3.85411907E+01   3.97154279E+01   5.65534205E+02   3.90435146E+01   5.60021251E+01
   6.21250000E+02   5.00000000E-01   5.00000000E-01   1.30827348E+05   4.80323634E+04   1.21652534E-03   8.79647511E-04   8.54813463E-04   6.65686142E+03   4.77622425E-06   4.73662833E-02   6.78292357E-01   1.06031778E-01   1.07202964E+06   3.64697989E-02   3.81031416E-02   3.73440259E-02   3.70459684E-02   2.00600164E+04   1.76163609E+04   1.15113242E+05   3.05446870E+04   3.87322256E+05   0.00000000E+00   8.07355845E-03   8.30279075E-03   8.28854170E-03   8.25811038E-03   3.42522181E+04   4.52152646E+04   4.59071009E+04   1.43330722E-06   2.80472807E+03   1.91337663E-05   6.89944639E-05   6.79220893E-05   2.36493555E-05   3.52254526E+01   4.24384017E+01   1.42627746E+03   3.18127168E+01   3.36987082E+02   3.85411907E+01   3.97154279E+01   5.65534348E+02   3.90435146E+01   5.60021251E+01