 TITLE = "Mineral Area" 
VARIABLES = "X"          "Y"              "Z"            "Forsterite"     "Fayalite"       "Brucite"        "Lizardite"      "Chrysotile"     "Hematite"       "Magnetite(am)"  "Saponite(Ca)"   "Saponite(K)"    "Saponite(Mg)"   "Saponite(Na)"   "Beidellite(Ca)" "Beidellite(K)"  "Beidellite(Mg)" "Beidellite(Na)" "Enstatite(alph" "Ferrosilite(al" "Anorthite"      "Albite(low)"    "Clinochlore"    "Sudoite"        "Montmor(MgCa)"  "Montmor(MgK)"   "Montmor(MgMg)"  "Montmor(MgNa)"  "Kaolinite"      "Tremolite"      "Pargasite"      "Anhydrite"      "Epidote"        "Scolecite"      "Pyrite"         "FeS(am)"        "Quartz(alpha)" 
 ZONE I=         200 , J=           1 , K=           1  F=POINT
   8.75000000E+00   5.00000000E-01   5.00000000E-01   1.30933768E+05   4.79035210E+04   0.00000000E+00   0.00000000E+00   0.00000000E+00   6.51027802E+03   0.00000000E+00   3.71433793E-02   1.45314372E+05   5.23062660E-02   1.69996228E+04   3.64905632E-02   3.81034714E-02   3.73403948E-02   3.70328376E-02   2.00600441E+04   1.76156015E+04   1.15402869E+05   2.95451389E+04   4.29318206E+05   3.72421300E-03   8.06551415E-03   8.26181513E-03   8.25014994E-03   8.18532603E-03   3.42537864E+04   4.49587784E+04   4.60315523E+04   0.00000000E+00   2.81951166E+03   1.92219134E-05   6.91674852E-05   6.80512419E-05   2.35930010E-05
   2.62500000E+01   5.00000000E-01   5.00000000E-01   1.30933768E+05   4.79053098E+04   0.00000000E+00   0.00000000E+00   0.00000000E+00   6.51027799E+03   0.00000000E+00   3.72050793E-02   5.51061493E+05   5.61192197E-02   7.15508997E+04   3.64905766E-02   3.81034905E-02   3.73404572E-02   3.70330007E-02   2.00600429E+04   1.76156336E+04   1.15402869E+05   2.96181020E+04   4.19657351E+05   2.95916283E-03   8.06556444E-03   8.26303531E-03   8.25036628E-03   8.18619042E-03   3.42537927E+04   4.49810224E+04   4.60315523E+04   0.00000000E+00   2.81951166E+03   1.92219282E-05   6.91674852E-05   6.80512921E-05   2.36076198E-05
   4.37500000E+01   5.00000000E-01   5.00000000E-01   1.30933767E+05   4.79067866E+04   0.00000000E+00   0.00000000E+00   0.00000000E+00   6.51027798E+03   0.00000000E+00   3.72304261E-02   6.48822997E+05   5.77083972E-02   9.61742686E+04   3.64907209E-02   3.81036857E-02   3.73411269E-02   3.70347058E-02   2.00600423E+04   1.76156580E+04   1.15402869E+05   2.98274315E+04   4.07775094E+05   1.98714906E-03   8.06589703E-03   8.27067215E-03   8.25179551E-03   8.19173558E-03   3.42538285E+04   4.49914512E+04   4.60315523E+04   0.00000000E+00   2.81951166E+03   1.92220042E-05   6.91674852E-05   6.80513143E-05   2.36196581E-05
   6.12500000E+01   5.00000000E-01   5.00000000E-01   1.30933767E+05   4.79084032E+04   0.00000000E+00   0.00000000E+00   0.00000000E+00   6.51027798E+03   0.00000000E+00   3.72554512E-02   7.89945964E+05   5.93697204E-02   1.34650353E+05   3.64911112E-02   3.81041826E-02   3.73429350E-02   3.70391683E-02   2.00600421E+04   1.76156831E+04   1.15402869E+05   3.01129521E+04   3.91401724E+05   1.13399289E-03   8.06662030E-03   8.28621364E-03   8.25490050E-03   8.20336403E-03   3.42538911E+04   4.49997672E+04   4.60315523E+04   0.00000000E+00   2.81951166E+03   1.92221367E-05   6.91674852E-05   6.80513321E-05   2.36289357E-05
   7.87500000E+01   5.00000000E-01   5.00000000E-01   1.30933767E+05   4.79103136E+04   0.00000000E+00   0.00000000E+00   0.00000000E+00   6.51027797E+03   0.00000000E+00   3.72881460E-02   9.61386779E+05   6.15587716E-02   1.89812513E+05   3.64917223E-02   3.81049091E-02   3.73457609E-02   3.70459006E-02   2.00600421E+04   1.76157089E+04   1.15402869E+05   3.03969515E+04   3.74486600E+05   6.50110030E-04   8.06759663E-03   8.30563666E-03   8.25908768E-03   8.21841807E-03   3.42539650E+04   4.50137427E+04   4.60315523E+04   0.00000000E+00   2.81951166E+03   1.92222933E-05   6.91674852E-05   6.80513475E-05   2.36355433E-05
   9.62500000E+01   5.00000000E-01   5.00000000E-01   1.30933767E+05   4.79125708E+04   0.00000000E+00   0.00000000E+00   0.00000000E+00   6.51027796E+03   0.00000000E+00   3.73257228E-02   1.10025344E+06   6.41210824E-02   2.53109635E+05   3.64924432E-02   3.81057013E-02   3.73490891E-02   3.70535158E-02   2.00600422E+04   1.76157351E+04   1.15402869E+05   3.06355034E+04   3.60120985E+05   4.32152995E-04   8.06862825E-03   8.32435885E-03   8.26350734E-03   8.23356079E-03   3.42540373E+04   4.50312860E+04   4.60315523E+04   0.00000000E+00   2.81951166E+03   1.92224471E-05   6.91674852E-05   6.80513606E-05   2.36399850E-05
   1.13750000E+02   5.00000000E-01   5.00000000E-01   1.30933767E+05   4.79151841E+04   0.00000000E+00   0.00000000E+00   0.00000000E+00   6.51027795E+03   0.00000000E+00   3.73644528E-02   1.18169487E+06   6.68300272E-02   3.17361330E+05   3.64931378E-02   3.81063929E-02   3.73522884E-02   3.70604797E-02   2.00600424E+04   1.76157617E+04   1.15402869E+05   3.08113021E+04   3.49574136E+05   3.35922889E-04   8.06955253E-03   8.33925057E-03   8.26746199E-03   8.24630631E-03   3.42540968E+04   4.50502435E+04   4.60315523E+04   0.00000000E+00   2.81951166E+03   1.92225777E-05   6.91674852E-05   6.80513719E-05   2.36428714E-05
   1.31250000E+02   5.00000000E-01   5.00000000E-01   1.30933767E+05   4.79181684E+04   0.00000000E+00   0.00000000E+00   0.00000000E+00   6.51027794E+03   0.00000000E+00   3.74027889E-02   1.20844953E+06   6.95873334E-02   3.78850272E+05   3.64937151E-02   3.81068948E-02   3.73549404E-02   3.70658790E-02   2.00600426E+04   1.76157888E+04   1.15402869E+05   3.09266911E+04   3.42744412E+05   2.91344470E-04   8.07029125E-03   8.34929381E-03   8.27061717E-03   8.25565803E-03   3.42541387E+04   4.50693316E+04   4.60315523E+04   0.00000000E+00   2.81951166E+03   1.92226764E-05   6.91674852E-05   6.80513815E-05   2.36447280E-05
   1.48750000E+02   5.00000000E-01   5.00000000E-01   1.30933767E+05   4.79215534E+04   0.00000000E+00   0.00000000E+00   0.00000000E+00   6.51027793E+03   0.00000000E+00   3.74406915E-02   1.19286104E+06   7.23938051E-02   4.36196100E+05   3.64941454E-02   3.81071974E-02   3.73569094E-02   3.70695112E-02   2.00600429E+04   1.76158166E+04   1.15402869E+05   3.09932833E+04   3.38918646E+05   2.69709047E-04   8.07083737E-03   8.35493762E-03   8.27294412E-03   8.26174923E-03   3.42541633E+04   4.50878893E+04   4.60315523E+04   0.00000000E+00   2.81951166E+03   1.92227435E-05   6.91674852E-05   6.80513896E-05   2.36459411E-05
   1.66250000E+02   5.00000000E-01   5.00000000E-01   1.30933768E+05   4.79253603E+04   0.00000000E+00   0.00000000E+00   0.00000000E+00   6.51027792E+03   0.00000000E+00   3.74783975E-02   1.14960048E+06   7.52687838E-02   4.89429159E+05   3.64944456E-02   3.81073405E-02   3.73582759E-02   3.70716640E-02   2.00600432E+04   1.76158452E+04   1.15402869E+05   3.10252314E+04   3.37209897E+05   2.58842936E-04   8.07122672E-03   8.35731694E-03   8.27459762E-03   8.26531168E-03   3.42541744E+04   4.51055479E+04   4.60315523E+04   0.00000000E+00   2.81951166E+03   1.92227853E-05   6.91674852E-05   6.80513961E-05   2.36467611E-05
   1.83750000E+02   5.00000000E-01   5.00000000E-01   1.30933768E+05   4.79295773E+04   0.00000000E+00   0.00000000E+00   0.00000000E+00   6.51027792E+03   0.00000000E+00   3.75158044E-02   1.09157706E+06   7.82029037E-02   5.39336915E+05   3.64946559E-02   3.81073813E-02   3.73592267E-02   3.70728289E-02   2.00600435E+04   1.76158743E+04   1.15402869E+05   3.10354939E+04   3.36802845E+05   2.53256105E-04   8.07151142E-03   8.35766971E-03   8.27580185E-03   8.26723782E-03   3.42541768E+04   4.51220795E+04   4.60315523E+04   0.00000000E+00   2.81951166E+03   1.92228103E-05   6.91674852E-05   6.80514009E-05   2.36473318E-05
   2.01250000E+02   5.00000000E-01   5.00000000E-01   1.30933768E+05   4.79341933E+04   0.00000000E+00   0.00000000E+00   0.00000000E+00   6.51027791E+03   0.00000000E+00   3.75531154E-02   1.02531622E+06   8.12072234E-02   5.85929411E+05   3.64948035E-02   3.81073564E-02   3.73598875E-02   3.70733300E-02   2.00600438E+04   1.76159038E+04   1.15402869E+05   3.10321213E+04   3.37216815E+05   2.50312387E-04   8.07172594E-03   8.35677623E-03   8.27670494E-03   8.26810348E-03   3.42541736E+04   4.51376287E+04   4.60315523E+04   0.00000000E+00   2.81951166E+03   1.92228239E-05   6.91674852E-05   6.80514040E-05   2.36477403E-05
   2.18750000E+02   5.00000000E-01   5.00000000E-01   1.30933768E+05   4.79392044E+04   0.00000000E+00   0.00000000E+00   0.00000000E+00   6.51027790E+03   0.00000000E+00   3.75907558E-02   9.54212029E+05   8.43101073E-02   6.28704947E+05   3.64949012E-02   3.81072849E-02   3.73603181E-02   3.70733312E-02   2.00600442E+04   1.76159336E+04   1.15402869E+05   3.10195694E+04   3.38195312E+05   2.48703377E-04   8.07188779E-03   8.35505102E-03   8.27738232E-03   8.26821191E-03   3.42541662E+04   4.51526945E+04   4.60315523E+04   0.00000000E+00   2.81951166E+03   1.92228287E-05   6.91674852E-05   6.80514056E-05   2.36480435E-05
   2.36250000E+02   5.00000000E-01   5.00000000E-01   1.30933768E+05   4.79445568E+04   0.00000000E+00   0.00000000E+00   0.00000000E+00   6.51027790E+03   0.00000000E+00   3.76283852E-02   8.82244517E+05   8.74777588E-02   6.68150975E+05   3.64949671E-02   3.81071877E-02   3.73606025E-02   3.70730310E-02   2.00600446E+04   1.76159633E+04   1.15402869E+05   3.10018764E+04   3.39481621E+05   2.47782097E-04   8.07201754E-03   8.35289079E-03   8.27792217E-03   8.26787826E-03   3.42541565E+04   4.51677533E+04   4.60315523E+04   0.00000000E+00   2.81951167E+03   1.92228279E-05   6.91674852E-05   6.80514057E-05   2.36482693E-05
   2.53750000E+02   5.00000000E-01   5.00000000E-01   1.30933768E+05   4.79501975E+04   0.00000000E+00   0.00000000E+00   0.00000000E+00   6.51027789E+03   0.00000000E+00   3.76655926E-02   8.10592345E+05   9.06697740E-02   7.03682032E+05   3.64950064E-02   3.81070722E-02   3.73607643E-02   3.70724947E-02   2.00600451E+04   1.76159930E+04   1.15402869E+05   3.09808315E+04   3.40980230E+05   2.47213373E-04   8.07212204E-03   8.35044751E-03   8.27835394E-03   8.26721894E-03   3.42541451E+04   4.51832359E+04   4.60315523E+04   0.00000000E+00   2.81951167E+03   1.92228228E-05   6.91674852E-05   6.80514044E-05   2.36484366E-05
   2.71250000E+02   5.00000000E-01   5.00000000E-01   1.30933768E+05   4.79560695E+04   0.00000000E+00   0.00000000E+00   0.00000000E+00   6.51027788E+03   0.00000000E+00   3.77018157E-02   7.40420196E+05   9.38340624E-02   7.34962669E+05   3.64950221E-02   3.81069433E-02   3.73608184E-02   3.70717656E-02   2.00600455E+04   1.76160223E+04   1.15402869E+05   3.09574983E+04   3.42628143E+05   2.46827065E-04   8.07220506E-03   8.34781147E-03   8.27869384E-03   8.26630282E-03   3.42541324E+04   4.51993173E+04   4.60315523E+04   0.00000000E+00   2.81951167E+03   1.92228140E-05   6.91674852E-05   6.80514018E-05   2.36485579E-05
   2.88750000E+02   5.00000000E-01   5.00000000E-01   1.30933768E+05   4.79621184E+04   0.00000000E+00   0.00000000E+00   0.00000000E+00   6.51027787E+03   0.00000000E+00   3.77364492E-02   6.72838878E+05   9.69162042E-02   7.61961286E+05   3.64950186E-02   3.81068060E-02   3.73607848E-02   3.70708938E-02   2.00600460E+04   1.76160511E+04   1.15402869E+05   3.09326731E+04   3.44372169E+05   2.46538606E-04   8.07227051E-03   8.34506226E-03   8.27895869E-03   8.26519481E-03   3.42541189E+04   4.52158276E+04   4.60315523E+04   0.00000000E+00   2.81951167E+03   1.92228022E-05   6.91674852E-05   6.80513982E-05   2.36486402E-05
   3.06250000E+02   5.00000000E-01   5.00000000E-01   1.30933768E+05   4.79683035E+04   0.00000000E+00   0.00000000E+00   0.00000000E+00   6.51027787E+03   0.00000000E+00   3.77690389E-02   6.08769009E+05   9.98761566E-02   7.84881606E+05   3.64950016E-02   3.81066657E-02   3.73606891E-02   3.70699354E-02   2.00600464E+04   1.76160795E+04   1.15402869E+05   3.09069764E+04   3.46167133E+05   2.46306743E-04   8.07232280E-03   8.34227396E-03   8.27916739E-03   8.26396010E-03   3.42541051E+04   4.52323253E+04   4.60315523E+04   0.00000000E+00   2.81951167E+03   1.92227885E-05   6.91674852E-05   6.80513937E-05   2.36486872E-05
   3.23750000E+02   5.00000000E-01   5.00000000E-01   1.30933768E+05   4.79746035E+04   0.00000000E+00   0.00000000E+00   0.00000000E+00   6.51027786E+03   0.00000000E+00   3.77993962E-02   5.48874041E+05   1.02697928E-01   8.04072450E+05   3.64949768E-02   3.81065273E-02   3.73605585E-02   3.70689450E-02   2.00600469E+04   1.76161073E+04   1.15402869E+05   3.08808858E+04   3.47976294E+05   2.46111801E-04   8.07236652E-03   8.33951166E-03   8.27933956E-03   8.26266021E-03   3.42540914E+04   4.52482722E+04   4.60315523E+04   0.00000000E+00   2.81951167E+03   1.92227737E-05   6.91674852E-05   6.80513884E-05   2.36487001E-05
   3.41250000E+02   5.00000000E-01   5.00000000E-01   1.30933768E+05   4.79810141E+04   0.00000000E+00   0.00000000E+00   0.00000000E+00   6.51027785E+03   0.00000000E+00   3.78275994E-02   4.93539419E+05   1.05389697E-01   8.19930996E+05   3.64949497E-02   3.81063944E-02   3.73604181E-02   3.70679691E-02   2.00600475E+04   1.76161345E+04   1.15402869E+05   3.08547576E+04   3.49771871E+05   2.45944132E-04   8.07240594E-03   8.33682695E-03   8.27949338E-03   8.26134777E-03   3.42540783E+04   4.52631940E+04   4.60315523E+04   0.00000000E+00   2.81951167E+03   1.92227586E-05   6.91674852E-05   6.80513825E-05   2.36486786E-05
   3.58750000E+02   5.00000000E-01   5.00000000E-01   1.30933769E+05   4.79875441E+04   0.00000000E+00   0.00000000E+00   0.00000000E+00   6.51027784E+03   0.00000000E+00   3.78539334E-02   4.42861376E+05   1.07978372E-01   8.32756840E+05   3.64949243E-02   3.81062694E-02   3.73602853E-02   3.70670378E-02   2.00600480E+04   1.76161612E+04   1.15402869E+05   3.08288045E+04   3.51538198E+05   2.45798235E-04   8.07244414E-03   8.33425085E-03   8.27964197E-03   8.26005801E-03   3.42540659E+04   4.52767817E+04   4.60315523E+04   0.00000000E+00   2.81951167E+03   1.92227439E-05   6.91674852E-05   6.80513760E-05   2.36486221E-05
   3.76250000E+02   5.00000000E-01   5.00000000E-01   1.30933769E+05   4.79942068E+04   0.00000000E+00   0.00000000E+00   0.00000000E+00   6.51027783E+03   0.00000000E+00   3.78787949E-02   3.96752273E+05   1.10501160E-01   8.42783750E+05   3.64949029E-02   3.81061532E-02   3.73601710E-02   3.70661670E-02   2.00600486E+04   1.76161875E+04   1.15402869E+05   3.08031455E+04   3.53267486E+05   2.45670431E-04   8.07248311E-03   8.33179826E-03   8.27979379E-03   8.25881155E-03   3.42540543E+04   4.52889016E+04   4.60315523E+04   0.00000000E+00   2.81951167E+03   1.92227300E-05   6.91674852E-05   6.80513690E-05   2.36485300E-05
   3.93750000E+02   5.00000000E-01   5.00000000E-01   1.30933769E+05   4.80010149E+04   0.00000000E+00   0.00000000E+00   0.00000000E+00   6.51027783E+03   0.00000000E+00   3.79026227E-02   3.54984218E+05   1.12999149E-01   8.50134506E+05   3.64948862E-02   3.81060455E-02   3.73600785E-02   3.70653594E-02   2.00600491E+04   1.76162132E+04   1.15402869E+05   3.07778154E+04   3.54959370E+05   2.45557708E-04   8.07252363E-03   8.32946942E-03   8.27995210E-03   8.25761457E-03   3.42540436E+04   4.52995721E+04   4.60315523E+04   0.00000000E+00   2.81951167E+03   1.92227169E-05   6.91674852E-05   6.80513616E-05   2.36484022E-05
   4.11250000E+02   5.00000000E-01   5.00000000E-01   1.30933769E+05   4.80079762E+04   0.00000000E+00   0.00000000E+00   0.00000000E+00   6.51027782E+03   0.00000000E+00   3.79258440E-02   3.17259380E+05   1.15512286E-01   8.54863829E+05   3.64948738E-02   3.81059455E-02   3.73600056E-02   3.70646084E-02   2.00600497E+04   1.76162385E+04   1.15402869E+05   3.07527980E+04   3.56617811E+05   2.45457445E-04   8.07256552E-03   8.32725509E-03   8.28011612E-03   8.25646302E-03   3.42540336E+04   4.53089247E+04   4.60315523E+04   0.00000000E+00   2.81951167E+03   1.92227047E-05   6.91674852E-05   6.80513540E-05   2.36482391E-05
   4.28750000E+02   5.00000000E-01   5.00000000E-01   1.30933769E+05   4.80150902E+04   0.00000000E+00   0.00000000E+00   0.00000000E+00   6.51027780E+03   0.00000000E+00   3.79488400E-02   2.83256691E+05   1.18075999E-01   8.57002084E+05   3.64948645E-02   3.81058520E-02   3.73599468E-02   3.70639024E-02   2.00600504E+04   1.76162633E+04   1.15402869E+05   3.07280585E+04   3.58248302E+05   2.45367391E-04   8.07260805E-03   8.32514169E-03   8.28028262E-03   8.25534749E-03   3.42540243E+04   4.53171651E+04   4.60315523E+04   0.00000000E+00   2.81951167E+03   1.92226932E-05   6.91674852E-05   6.80513461E-05   2.36480416E-05
   4.46250000E+02   5.00000000E-01   5.00000000E-01   1.30933770E+05   4.80223472E+04   0.00000000E+00   0.00000000E+00   0.00000000E+00   6.51027779E+03   0.00000000E+00   3.79719264E-02   2.52646664E+05   1.20719078E-01   8.56545778E+05   3.64948566E-02   3.81057635E-02   3.73598943E-02   3.70632272E-02   2.00600510E+04   1.76162875E+04   1.15402869E+05   3.07035512E+04   3.59857442E+05   2.45285593E-04   8.07265000E-03   8.32311328E-03   8.28044649E-03   8.25425492E-03   3.42540154E+04   4.53245493E+04   4.60315523E+04   0.00000000E+00   2.81951168E+03   1.92226823E-05   6.91674852E-05   6.80513381E-05   2.36478112E-05
   4.63750000E+02   5.00000000E-01   5.00000000E-01   1.30933770E+05   4.80297274E+04   0.00000000E+00   0.00000000E+00   0.00000000E+00   6.51027778E+03   0.00000000E+00   3.79953396E-02   2.25111207E+05   1.23462050E-01   8.53483697E+05   3.64948480E-02   3.81056788E-02   3.73598389E-02   3.70625672E-02   2.00600517E+04   1.76163112E+04   1.15402869E+05   3.06792314E+04   3.61451724E+05   2.45210407E-04   8.07268996E-03   8.32115385E-03   8.28060162E-03   8.25317110E-03   3.42540070E+04   4.53313641E+04   4.60315523E+04   0.00000000E+00   2.81951168E+03   1.92226716E-05   6.91674852E-05   6.80513299E-05   2.36475495E-05
   4.81250000E+02   5.00000000E-01   5.00000000E-01   1.30933770E+05   4.80372014E+04   0.00000000E+00   0.00000000E+00   0.00000000E+00   6.51027777E+03   0.00000000E+00   3.80192258E-02   2.00354093E+05   1.26315880E-01   8.47817032E+05   3.64948367E-02   3.81055967E-02   3.73597714E-02   3.70619084E-02   2.00600524E+04   1.76163343E+04   1.15402869E+05   3.06550661E+04   3.63036616E+05   2.45140504E-04   8.07272644E-03   8.31924917E-03   8.28074178E-03   8.25208267E-03   3.42539988E+04   4.53379104E+04   4.60315523E+04   0.00000000E+00   2.81951168E+03   1.92226611E-05   6.91674852E-05   6.80513217E-05   2.36472585E-05
   4.98750000E+02   5.00000000E-01   5.00000000E-01   1.30933771E+05   4.80448466E+04   0.00000000E+00   0.00000000E+00   0.00000000E+00   6.51027776E+03   0.00000000E+00   3.80440684E-02   1.77653503E+05   1.29329506E-01   8.36861577E+05   3.64948066E-02   3.81055092E-02   3.73596184E-02   3.70611428E-02   2.00600531E+04   1.76163571E+04   1.15402869E+05   3.06300650E+04   3.64705691E+05   2.45070424E-04   8.07274469E-03   8.31728448E-03   8.28080427E-03   8.25085640E-03   3.42539902E+04   4.53444891E+04   4.60315523E+04   0.00000000E+00   2.81951168E+03   1.92226486E-05   6.91674852E-05   6.80513135E-05   2.36469457E-05
   5.16250000E+02   5.00000000E-01   5.00000000E-01   1.30933771E+05   4.80525548E+04   0.00000000E+00   0.00000000E+00   0.00000000E+00   6.51027774E+03   0.00000000E+00   3.80696654E-02   1.57462647E+05   1.32480574E-01   8.24052154E+05   3.64947678E-02   3.81054219E-02   3.73594267E-02   3.70603444E-02   2.00600539E+04   1.76163793E+04   1.15402869E+05   3.06050581E+04   3.66366821E+05   2.45003726E-04   8.07275433E-03   8.31534230E-03   8.28083002E-03   8.24958733E-03   3.42539817E+04   4.53514748E+04   4.60315523E+04   0.00000000E+00   2.81951168E+03   1.92226356E-05   6.91674852E-05   6.80513054E-05   2.36466111E-05
   5.33750000E+02   5.00000000E-01   5.00000000E-01   1.30933772E+05   4.80602457E+04   0.00000000E+00   0.00000000E+00   0.00000000E+00   6.51027773E+03   0.00000000E+00   3.80957347E-02   1.39435715E+05   1.35732181E-01   8.09153007E+05   3.64947226E-02   3.81053359E-02   3.73592059E-02   3.70595290E-02   2.00600547E+04   1.76164007E+04   1.15402869E+05   3.05803153E+04   3.68014391E+05   2.44940876E-04   8.07275785E-03   8.31344287E-03   8.28082970E-03   8.24830079E-03   3.42539732E+04   4.53590885E+04   4.60315523E+04   0.00000000E+00   2.81951168E+03   1.92226222E-05   6.91674852E-05   6.80512973E-05   2.36462551E-05
   5.51250000E+02   5.00000000E-01   5.00000000E-01   1.30933772E+05   4.80678638E+04   0.00000000E+00   0.00000000E+00   0.00000000E+00   6.51027771E+03   0.00000000E+00   3.81219960E-02   1.23299043E+05   1.39048040E-01   7.91979350E+05   3.64946699E-02   3.81052508E-02   3.73589517E-02   3.70586920E-02   2.00600555E+04   1.76164214E+04   1.15402869E+05   3.05558679E+04   3.69652877E+05   2.44881428E-04   8.07275479E-03   8.31158309E-03   8.28080140E-03   8.24699483E-03   3.42539649E+04   4.53674758E+04   4.60315523E+04   0.00000000E+00   2.81951168E+03   1.92226084E-05   6.91674852E-05   6.80512892E-05   2.36458788E-05
   5.68750000E+02   5.00000000E-01   5.00000000E-01   1.30933773E+05   4.80753667E+04   0.00000000E+00   0.00000000E+00   0.00000000E+00   6.51027770E+03   0.00000000E+00   3.81481501E-02   1.08860989E+05   1.42390729E-01   7.72650238E+05   3.64946093E-02   3.81051666E-02   3.73586619E-02   3.70578319E-02   2.00600563E+04   1.76164412E+04   1.15402869E+05   3.05317262E+04   3.71282699E+05   2.44825110E-04   8.07274477E-03   8.30976067E-03   8.28074349E-03   8.24566822E-03   3.42539566E+04   4.53766810E+04   4.60315523E+04   0.00000000E+00   2.81951169E+03   1.92225941E-05   6.91674852E-05   6.80512813E-05   2.36454835E-05
   5.86250000E+02   5.00000000E-01   5.00000000E-01   1.30933773E+05   4.80827259E+04   0.00000000E+00   0.00000000E+00   0.00000000E+00   6.51027768E+03   0.00000000E+00   3.81739011E-02   9.59644705E+04   1.45724191E-01   7.51406706E+05   3.64945410E-02   3.81050834E-02   3.73583382E-02   3.70569525E-02   2.00600572E+04   1.76164601E+04   1.15402869E+05   3.05079162E+04   3.72901439E+05   2.44771881E-04   8.07272801E-03   8.30797746E-03   8.28065697E-03   8.24432494E-03   3.42539485E+04   4.53866310E+04   4.60315523E+04   0.00000000E+00   2.81951169E+03   1.92225795E-05   6.91674852E-05   6.80512735E-05   2.36450703E-05
   6.03750000E+02   5.00000000E-01   5.00000000E-01   1.30933774E+05   4.80899275E+04   0.00000000E+00   0.00000000E+00   0.00000000E+00   6.51027767E+03   0.00000000E+00   3.81989942E-02   8.44721525E+04   1.49017988E-01   7.28555091E+05   3.64944662E-02   3.81050018E-02   3.73579858E-02   3.70560624E-02   2.00600581E+04   1.76164782E+04   1.15402869E+05   3.04844809E+04   3.74504727E+05   2.44721842E-04   8.07270535E-03   8.30623877E-03   8.28054545E-03   8.24297364E-03   3.42539404E+04   4.53971487E+04   4.60315523E+04   0.00000000E+00   2.81951169E+03   1.92225645E-05   6.91674852E-05   6.80512658E-05   2.36446403E-05
   6.21250000E+02   5.00000000E-01   5.00000000E-01   1.30933775E+05   4.80969712E+04   0.00000000E+00   0.00000000E+00   0.00000000E+00   6.51027765E+03   0.00000000E+00   3.82232454E-02   7.42590152E+04   1.52250698E-01   7.04431899E+05   3.64943867E-02   3.81049224E-02   3.73576126E-02   3.70551727E-02   2.00600590E+04   1.76164954E+04   1.15402869E+05   3.04614749E+04   3.76087056E+05   2.44675136E-04   8.07267813E-03   8.30455201E-03   8.28041460E-03   8.24162617E-03   3.42539326E+04   4.54079863E+04   4.60315523E+04   2.07507459E-22   2.81951169E+03   1.92225495E-05   6.91674852E-05   6.80512583E-05   2.36441944E-05
   6.38750000E+02   5.00000000E-01   5.00000000E-01   1.30933776E+05   4.81038666E+04   0.00000000E+00   0.00000000E+00   0.00000000E+00   6.51027763E+03   0.00000000E+00   3.82465563E-02   6.52076659E+04   1.55411287E-01   6.79370426E+05   3.64943044E-02   3.81048460E-02   3.73572275E-02   3.70542952E-02   2.00600599E+04   1.76165118E+04   1.15402869E+05   3.04389583E+04   3.77642606E+05   2.44631878E-04   8.07264798E-03   8.30292513E-03   8.28027133E-03   8.24029576E-03   3.42539250E+04   4.54188696E+04   4.60315523E+04   4.37633538E-22   2.81951169E+03   1.92225345E-05   6.91674852E-05   6.80512510E-05   2.36437335E-05
   6.56250000E+02   5.00000000E-01   5.00000000E-01   1.30933776E+05   4.81106273E+04   0.00000000E+00   0.00000000E+00   0.00000000E+00   6.51027762E+03   0.00000000E+00   3.82689102E-02   5.72059105E+04   1.58498335E-01   6.53672420E+05   3.64942214E-02   3.81047731E-02   3.73568396E-02   3.70534408E-02   2.00600609E+04   1.76165274E+04   1.15402869E+05   3.04169899E+04   3.79165953E+05   2.44592100E-04   8.07261660E-03   8.30136535E-03   8.28012292E-03   8.23899532E-03   3.42539178E+04   4.54295396E+04   4.60315523E+04   9.25112088E-22   2.81951169E+03   1.92225199E-05   6.91674852E-05   6.80512439E-05   2.36432584E-05
   6.73750000E+02   5.00000000E-01   5.00000000E-01   1.30933777E+05   4.81172658E+04   0.00000000E+00   0.00000000E+00   0.00000000E+00   6.51027760E+03   0.00000000E+00   3.82903557E-02   5.01464444E+04   1.61517650E-01   6.27593276E+05   3.64941393E-02   3.81047041E-02   3.73564565E-02   3.70526185E-02   2.00600619E+04   1.76165422E+04   1.15402869E+05   3.03956237E+04   3.80652473E+05   2.44555746E-04   8.07258567E-03   8.29987834E-03   8.27997634E-03   8.23773619E-03   3.42539109E+04   4.54397826E+04   4.60315523E+04   1.96028924E-21   2.81951170E+03   1.92225059E-05   6.91674852E-05   6.80512370E-05   2.36427700E-05
   6.91250000E+02   5.00000000E-01   5.00000000E-01   1.30933778E+05   4.81237885E+04   0.00000000E+00   0.00000000E+00   0.00000000E+00   6.51027758E+03   0.00000000E+00   3.83109849E-02   4.39272516E+04   1.64479218E-01   6.01329440E+05   3.64940595E-02   3.81046392E-02   3.73560845E-02   3.70518343E-02   2.00600629E+04   1.76165563E+04   1.15402869E+05   3.03749041E+04   3.82098709E+05   2.44522671E-04   8.07255660E-03   8.29846761E-03   8.27983761E-03   8.23652725E-03   3.42539044E+04   4.54494462E+04   4.60315523E+04   4.16412574E-21   2.81951170E+03   1.92224924E-05   6.91674852E-05   6.80512303E-05   2.36422688E-05
   7.08750000E+02   5.00000000E-01   5.00000000E-01   1.30933780E+05   4.81301922E+04   0.00000000E+00   0.00000000E+00   0.00000000E+00   6.51027755E+03   0.00000000E+00   3.83309088E-02   3.84533312E+04   1.67394020E-01   5.75030592E+05   3.64939830E-02   3.81045786E-02   3.73557279E-02   3.70510919E-02   2.00600639E+04   1.76165696E+04   1.15402869E+05   3.03548668E+04   3.83502178E+05   2.44492665E-04   8.07253058E-03   8.29713469E-03   8.27971170E-03   8.23537487E-03   3.42538983E+04   4.54584433E+04   4.60315523E+04   1.57248447E-06   2.81951170E+03   1.92224798E-05   6.91674852E-05   6.80512238E-05   2.36417558E-05
   7.26250000E+02   5.00000000E-01   5.00000000E-01   1.30933781E+05   4.81364624E+04   0.00000000E+00   0.00000000E+00   0.00000000E+00   6.51027753E+03   0.00000000E+00   3.83502367E-02   3.36376048E+04   1.70271171E-01   5.48807985E+05   3.64939105E-02   3.81045221E-02   3.73553894E-02   3.70503928E-02   2.00600650E+04   1.76165822E+04   1.15402869E+05   3.03355386E+04   3.84861217E+05   2.44465487E-04   8.07250855E-03   8.29587941E-03   8.27960251E-03   8.23428313E-03   3.42538925E+04   4.54667475E+04   4.60315523E+04   6.50661502E-06   2.81951170E+03   1.92224680E-05   6.91674852E-05   6.80512175E-05   2.36412317E-05
   7.43750000E+02   5.00000000E-01   5.00000000E-01   1.30933782E+05   4.81425728E+04   0.00000000E+00   0.00000000E+00   0.00000000E+00   6.51027751E+03   0.00000000E+00   3.83690580E-02   2.94013926E+04   1.73115583E-01   5.22743673E+05   3.64938421E-02   3.81044696E-02   3.73550704E-02   3.70497367E-02   2.00600661E+04   1.76165940E+04   1.15402869E+05   3.03169394E+04   3.86174797E+05   2.44440882E-04   8.07249121E-03   8.29470026E-03   8.27951300E-03   8.23325419E-03   3.42538872E+04   4.54743846E+04   4.60315523E+04   1.57647667E-05   2.81951170E+03   1.92224571E-05   6.91674852E-05   6.80512115E-05   2.36406971E-05
   7.61250000E+02   5.00000000E-01   5.00000000E-01   1.30933784E+05   4.81484859E+04   0.00000000E+00   0.00000000E+00   0.00000000E+00   6.51027748E+03   0.00000000E+00   3.83874283E-02   2.56744871E+04   1.75926151E-01   4.96900029E+05   3.64937781E-02   3.81044208E-02   3.73547713E-02   3.70491223E-02   2.00600672E+04   1.76166049E+04   1.15402869E+05   3.02990830E+04   3.87442330E+05   2.44418603E-04   8.07247910E-03   8.29359483E-03   8.27944535E-03   8.23228881E-03   3.42538822E+04   4.54814218E+04   4.60315523E+04   3.19885965E-05   2.81951171E+03   1.92224470E-05   6.91674852E-05   6.80512056E-05   2.36401529E-05
   7.78750000E+02   5.00000000E-01   5.00000000E-01   1.30933785E+05   4.81541548E+04   0.00000000E+00   0.00000000E+00   0.00000000E+00   6.51027745E+03   0.00000000E+00   3.84053598E-02   2.23949005E+04   1.78694493E-01   4.71328699E+05   3.64937185E-02   3.81043756E-02   3.73544922E-02   3.70485477E-02   2.00600683E+04   1.76166150E+04   1.15402869E+05   3.02819787E+04   3.88663487E+05   2.44398418E-04   8.07247261E-03   8.29256016E-03   8.27940123E-03   8.23138675E-03   3.42538775E+04   4.54879551E+04   4.60315523E+04   5.92143288E-05   2.81951171E+03   1.92224379E-05   6.91674852E-05   6.80511999E-05   2.36395996E-05
   7.96250000E+02   5.00000000E-01   5.00000000E-01   1.30933787E+05   4.81595257E+04   0.00000000E+00   0.00000000E+00   0.00000000E+00   6.51027742E+03   0.00000000E+00   3.84228143E-02   1.95083913E+04   1.81404279E-01   4.46078921E+05   3.64936632E-02   3.81043336E-02   3.73542328E-02   3.70480111E-02   2.00600695E+04   1.76166241E+04   1.15402869E+05   3.02656323E+04   3.89838033E+05   2.44380122E-04   8.07247209E-03   8.29159306E-03   8.27938197E-03   8.23054725E-03   3.42538731E+04   4.54940952E+04   4.60315523E+04   1.03570304E-04   2.81951171E+03   1.92224296E-05   6.91674852E-05   6.80511945E-05   2.36390380E-05