 TITLE = "Mineral Area" 
VARIABLES = "X"          "Y"              "Z"            "Forsterite"     "Fayalite"       "Brucite"        "Lizardite"      "Chrysotile"     "Saponite(Mg)"   "Enstatite(alph" "Ferrosilite(al" "Anorthite"      "Albite(low)"    "Clinochlore"    "Sudoite"        "Montmorillonit" "Kaolinite"      "Tremolite"      "Pargasite"      "Anhydrite"      "Epidote"        "Scolecite"      "Pyrite"         "FeS(am)"        "Quartz(alpha)" 
 ZONE I=         100 , J=           1 , K=           1  F=POINT
   1.75000000E+01   5.00000000E-01   5.00000000E-01   1.13018733E+05   4.56329176E+04   4.65228531E-04   4.04492302E-06   3.77843632E-06   0.00000000E+00   2.00603097E+04   1.76160747E+04   7.03358286E+04   3.23875056E+04   1.30555049E+06   1.89043740E-01   2.52824725E-01   1.58174475E+00   4.59028514E+04   4.70343005E+04   2.63023042E-04   3.47617429E+02   2.24879705E+02   4.22348185E-05   4.74143717E-05   2.36180012E-05
   5.25000000E+01   5.00000000E-01   5.00000000E-01   1.13018734E+05   4.64388434E+04   4.65228836E-04   4.64850888E-06   4.21424314E-06   0.00000000E+00   2.00603108E+04   1.76164304E+04   7.03358287E+04   3.45538841E+04   1.19913169E+06   5.46087137E-02   6.47534272E+00   1.53767532E+00   4.59928400E+04   4.70343005E+04   2.66601514E-04   3.47617439E+02   2.24879947E+02   4.22348185E-05   4.74179360E-05   2.36368134E-05
   8.75000000E+01   5.00000000E-01   5.00000000E-01   1.13018734E+05   4.70162355E+04   4.65229051E-04   4.66207295E-06   4.23540687E-06   0.00000000E+00   2.00603113E+04   1.76166098E+04   7.03358288E+04   3.57086911E+04   1.14234378E+06   5.22000959E-02   2.36691327E+02   1.58144093E+00   4.60738809E+04   4.70343005E+04   2.70608370E-04   3.47617439E+02   2.24880298E+02   4.22348185E-05   4.74197433E-05   2.36417696E-05
   1.22500000E+02   5.00000000E-01   5.00000000E-01   1.13018734E+05   4.73217918E+04   4.65229238E-04   4.37905415E-06   4.04296055E-06   0.00000000E+00   2.00603114E+04   1.76166774E+04   7.03358289E+04   3.62326034E+04   1.11496332E+06   6.74339127E-02   5.42153636E+03   1.65699518E+00   4.60442433E+04   4.70343005E+04   2.75117046E-04   3.47617438E+02   2.24880725E+02   4.22348185E-05   4.74206004E-05   2.36411495E-05
   1.57500000E+02   5.00000000E-01   5.00000000E-01   1.13018734E+05   4.75009102E+04   4.65229478E-04   4.17627318E-06   3.90261635E-06   0.00000000E+00   2.00603116E+04   1.76167004E+04   7.03358291E+04   3.62508654E+04   1.10096574E+06   1.00659994E-01   4.65863378E+04   1.75515200E+00   4.59985498E+04   4.70343005E+04   2.80206014E-04   3.47617438E+02   2.24881217E+02   4.22348185E-05   4.74209494E-05   2.36385623E-05
   1.92500000E+02   5.00000000E-01   5.00000000E-01   1.13018735E+05   4.76259643E+04   4.65229796E-04   4.11197472E-06   3.86188460E-06   0.00000000E+00   2.00603118E+04   1.76167064E+04   7.03358294E+04   3.58879796E+04   1.09176334E+06   1.65376317E-01   1.31502291E+05   1.87238627E+00   4.59944134E+04   4.70343005E+04   2.85962040E-04   3.47617438E+02   2.24881770E+02   4.22348185E-05   4.74209880E-05   2.36353793E-05
   2.27500000E+02   5.00000000E-01   5.00000000E-01   1.13018735E+05   4.77142414E+04   4.65230159E-04   4.08643416E-06   3.84940940E-06   0.00000000E+00   2.00603121E+04   1.76167025E+04   7.03358299E+04   3.54188256E+04   1.08608641E+06   2.84791387E-01   2.21739330E+05   2.00490865E+00   4.60007236E+04   4.70343005E+04   2.92488939E-04   3.47617438E+02   2.24882380E+02   4.22348185E-05   4.74208162E-05   2.36322025E-05
   2.62500000E+02   5.00000000E-01   5.00000000E-01   1.13018736E+05   4.77831465E+04   4.65230555E-04   4.07504190E-06   3.84731676E-06   0.00000000E+00   2.00603123E+04   1.76166938E+04   7.03358305E+04   3.49499479E+04   1.08209960E+06   4.92608912E-01   3.06622317E+05   2.14933988E+00   4.60107815E+04   4.70343005E+04   2.99909366E-04   3.47617438E+02   2.24883044E+02   4.22348185E-05   4.74205015E-05   2.36292004E-05
   2.97500000E+02   5.00000000E-01   5.00000000E-01   1.13018736E+05   4.78431014E+04   4.65230982E-04   4.07230227E-06   3.85168900E-06   0.00000000E+00   2.00603126E+04   1.76166826E+04   7.03358313E+04   3.45064874E+04   1.07876181E+06   8.36484663E-01   3.85542534E+05   2.30267561E+00   4.60237581E+04   4.70343005E+04   3.08368342E-04   3.47617438E+02   2.24883762E+02   4.22348185E-05   4.74200866E-05   2.36263830E-05
   3.32500000E+02   5.00000000E-01   5.00000000E-01   1.13018737E+05   4.78986675E+04   4.65231438E-04   4.07612100E-06   3.86108596E-06   0.00000000E+00   2.00603130E+04   1.76166702E+04   7.03358325E+04   3.40929462E+04   1.07565116E+06   1.38305813E+00   4.59130505E+05   2.46130281E+00   4.60392915E+04   4.70343005E+04   3.18038222E-04   3.47617438E+02   2.24884529E+02   4.22348185E-05   4.74196003E-05   2.36237193E-05
   3.67500000E+02   5.00000000E-01   5.00000000E-01   1.13018738E+05   4.79516510E+04   4.65231925E-04   4.08539289E-06   3.87477913E-06   0.00000000E+00   2.00603133E+04   1.76166569E+04   7.03358340E+04   3.37085557E+04   1.07261677E+06   2.22226779E+00   5.27978327E+05   2.62147917E+00   4.60569569E+04   4.70343005E+04   3.29125195E-04   3.47617438E+02   2.24885343E+02   4.22348185E-05   4.74190641E-05   2.36211762E-05
   4.02500000E+02   5.00000000E-01   5.00000000E-01   1.13018739E+05   4.80026785E+04   4.65232441E-04   4.09764108E-06   3.89091144E-06   0.00000000E+00   2.00603136E+04   1.76166431E+04   7.03358361E+04   3.33512777E+04   1.06961961E+06   3.46539138E+00   5.92522410E+05   2.78164238E+00   4.60762321E+04   4.70343005E+04   3.41877682E-04   3.47617438E+02   2.24886203E+02   4.22348185E-05   4.74184951E-05   2.36187289E-05
   4.37500000E+02   5.00000000E-01   5.00000000E-01   1.13018740E+05   4.80519071E+04   4.65232988E-04   4.10888397E-06   3.90634561E-06   0.00000000E+00   2.00603139E+04   1.76166289E+04   7.03358388E+04   3.30190053E+04   1.06666245E+06   5.24371518E+00   6.53078413E+05   2.94239033E+00   4.60964986E+04   4.70343005E+04   3.56597244E-04   3.47617438E+02   2.24887113E+02   4.22348185E-05   4.74179075E-05   2.36163617E-05
   4.72500000E+02   5.00000000E-01   5.00000000E-01   1.13018742E+05   4.80993647E+04   4.65233565E-04   4.11708112E-06   3.91940667E-06   0.00000000E+00   2.00603143E+04   1.76166145E+04   7.03358425E+04   3.27098921E+04   1.06375796E+06   7.70214170E+00   7.09890415E+05   3.10430750E+00   4.61170772E+04   4.70343005E+04   3.73652848E-04   3.47617438E+02   2.24888076E+02   4.22348185E-05   4.74173131E-05   2.36140662E-05
   5.07500000E+02   5.00000000E-01   5.00000000E-01   1.13018743E+05   4.81450974E+04   4.65234174E-04   4.12250376E-06   3.93025253E-06   0.00000000E+00   2.00603146E+04   1.76166000E+04   7.03358472E+04   3.24224207E+04   1.06091318E+06   1.10150400E+01   7.63169366E+05   3.26740623E+00   4.61372807E+04   4.70343005E+04   3.93499672E-04   3.47617438E+02   2.24889097E+02   4.22348185E-05   4.74167217E-05   2.36118388E-05
   5.42500000E+02   5.00000000E-01   5.00000000E-01   1.13018745E+05   4.81892462E+04   4.65234818E-04   4.12636876E-06   3.93982862E-06   0.00000000E+00   2.00603149E+04   1.76165855E+04   7.03358535E+04   3.21553536E+04   1.05812128E+06   1.54002128E+01   8.13126224E+05   3.43010771E+00   4.61564507E+04   4.70343005E+04   4.16704120E-04   3.47617438E+02   2.24890181E+02   4.22348185E-05   4.74161414E-05   2.36096785E-05
   5.77500000E+02   5.00000000E-01   5.00000000E-01   1.13018748E+05   4.82320033E+04   4.65235497E-04   4.13028600E-06   3.94944153E-06   0.00000000E+00   2.00603152E+04   1.76165712E+04   7.03358616E+04   3.19076144E+04   1.05536741E+06   2.11159750E+01   8.59972066E+05   3.58901459E+00   4.61739898E+04   4.70343005E+04   4.43977424E-04   3.47617438E+02   2.24891329E+02   4.22348185E-05   4.74155784E-05   2.36075853E-05
   6.12500000E+02   5.00000000E-01   5.00000000E-01   1.13018750E+05   4.82734800E+04   4.65236215E-04   4.13622255E-06   3.96074235E-06   0.00000000E+00   2.00603155E+04   1.76165570E+04   7.03358722E+04   3.16781828E+04   1.05264125E+06   2.84613271E+01   9.03894827E+05   3.74133801E+00   4.61893938E+04   4.70343005E+04   4.76221164E-04   3.47617438E+02   2.24892546E+02   4.22348185E-05   4.74150376E-05   2.36055602E-05
   6.47500000E+02   5.00000000E-01   5.00000000E-01   1.13018753E+05   4.83136342E+04   4.65236973E-04   4.14663243E-06   3.97584728E-06   0.00000000E+00   2.00603158E+04   1.76165431E+04   7.03358858E+04   3.14660245E+04   1.04994299E+06   3.77454792E+01   9.45051441E+05   3.88763565E+00   4.62022843E+04   4.70343005E+04   5.14589607E-04   3.47617438E+02   2.24893843E+02   4.22348185E-05   4.74145222E-05   2.36036048E-05
   6.82500000E+02   5.00000000E-01   5.00000000E-01   1.13018757E+05   4.83523730E+04   4.65237778E-04   4.16461261E-06   3.99748445E-06   0.00000000E+00   2.00603160E+04   1.76165293E+04   7.03359035E+04   3.12701392E+04   1.04727481E+06   4.92933791E+01   9.83587176E+05   4.03084534E+00   4.62124264E+04   4.70343005E+04   5.60576155E-04   3.47617438E+02   2.24895239E+02   4.22348185E-05   4.74140348E-05   2.36017209E-05
   7.17500000E+02   5.00000000E-01   5.00000000E-01   1.13018761E+05   4.83897356E+04   4.65238632E-04   4.19407405E-06   4.02915758E-06   0.00000000E+00   2.00603163E+04   1.76165159E+04   7.03359264E+04   3.10896778E+04   1.04462341E+06   6.35382876E+01   1.01967201E+06   4.17303897E+00   4.62197091E+04   4.70343005E+04   6.16134852E-04   3.47617438E+02   2.24896751E+02   4.22348185E-05   4.74135768E-05   2.35999099E-05
   7.52500000E+02   5.00000000E-01   5.00000000E-01   1.13018765E+05   4.84258514E+04   4.65239542E-04   4.24010703E-06   4.07548096E-06   0.00000000E+00   2.00603165E+04   1.76165027E+04   7.03359561E+04   3.09239032E+04   1.04196705E+06   8.09904969E+01   1.05348453E+06   4.31492053E+00   4.62241323E+04   4.70343005E+04   6.83853247E-04   3.47617438E+02   2.24898404E+02   4.22348185E-05   4.74131490E-05   2.35981718E-05
   7.87500000E+02   5.00000000E-01   5.00000000E-01   1.13018771E+05   4.84608862E+04   4.65240515E-04   4.30952045E-06   4.14267453E-06   0.00000000E+00   2.00603168E+04   1.76164897E+04   7.03359946E+04   3.07721808E+04   1.03928164E+06   1.02306453E+02   1.08519392E+06   4.45672532E+00   4.62257751E+04   4.70343005E+04   7.67201714E-04   3.47617438E+02   2.24900223E+02   4.22348185E-05   4.74127515E-05   2.35965059E-05
   8.22500000E+02   5.00000000E-01   5.00000000E-01   1.13018778E+05   4.84950243E+04   4.65241561E-04   4.41172643E-06   4.23937278E-06   0.00000000E+00   2.00603170E+04   1.76164771E+04   7.03360447E+04   3.06339786E+04   1.03654342E+06   1.28287590E+02   1.11495150E+06   4.59825705E+00   4.62247747E+04   4.70343005E+04   8.70898396E-04   3.47617437E+02   2.24902242E+02   4.22348185E-05   4.74123839E-05   2.35949105E-05
   8.57500000E+02   5.00000000E-01   5.00000000E-01   1.13018786E+05   4.85284813E+04   4.65242692E-04   4.56013134E-06   4.37789718E-06   0.00000000E+00   2.00603172E+04   1.76164647E+04   7.03361102E+04   3.05089021E+04   1.03372795E+06   1.59983304E+02   1.14288787E+06   4.73880719E+00   4.62212957E+04   4.70343005E+04   1.00145190E-03   3.47617437E+02   2.24904505E+02   4.22348185E-05   4.74120451E-05   2.35933832E-05
   8.92500000E+02   5.00000000E-01   5.00000000E-01   1.13018796E+05   4.85614850E+04   4.65243925E-04   4.77443609E-06   4.57635677E-06   0.00000000E+00   2.00603173E+04   1.76164526E+04   7.03361962E+04   3.03967217E+04   1.03081179E+06   1.98703263E+02   1.16910317E+06   4.87693976E+00   4.62155167E+04   4.70343005E+04   1.16798178E-03   3.47617437E+02   2.24907068E+02   4.22348185E-05   4.74117342E-05   2.35919209E-05
   9.27500000E+02   5.00000000E-01   5.00000000E-01   1.13018810E+05   4.85942698E+04   4.65245280E-04   5.08443534E-06   4.86211461E-06   0.00000000E+00   2.00603175E+04   1.76164407E+04   7.03363096E+04   3.02974346E+04   1.02777161E+06   2.46220353E+02   1.19365905E+06   5.01066600E+00   4.62076043E+04   4.70343005E+04   1.38348137E-03   3.47617436E+02   2.24910007E+02   4.22348185E-05   4.74114495E-05   2.35905203E-05
   9.62500000E+02   5.00000000E-01   5.00000000E-01   1.13018828E+05   4.86270714E+04   4.65246784E-04   5.53651852E-06   5.27771085E-06   0.00000000E+00   2.00603176E+04   1.76164291E+04   7.03364607E+04   3.02113360E+04   1.02458255E+06   3.04897466E+02   1.21657192E+06   5.13781417E+00   4.61977026E+04   4.70343005E+04   1.66679861E-03   3.47617436E+02   2.24913430E+02   4.22348185E-05   4.74111894E-05   2.35891775E-05
   9.97500000E+02   5.00000000E-01   5.00000000E-01   1.13018852E+05   4.86601007E+04   4.65248471E-04   6.20500023E-06   5.89117568E-06   0.00000000E+00   2.00603177E+04   1.76164177E+04   7.03366645E+04   3.01391179E+04   1.02121682E+06   3.77680631E+02   1.23780199E+06   5.25673004E+00   4.61859455E+04   4.70343005E+04   2.04580686E-03   3.47617435E+02   2.24917497E+02   4.22348185E-05   4.74109523E-05   2.35878885E-05
   1.03250000E+03   5.00000000E-01   5.00000000E-01   1.13018885E+05   4.86934874E+04   4.65250386E-04   7.21204603E-06   6.81416742E-06   0.00000000E+00   2.00603178E+04   1.76164064E+04   7.03369442E+04   3.00820642E+04   1.01764324E+06   4.68280543E+02   1.25722313E+06   5.36739340E+00   4.61724627E+04   4.70343005E+04   2.56259123E-03   3.47617434E+02   2.24922459E+02   4.22348185E-05   4.74107363E-05   2.35866490E-05
   1.06750000E+03   5.00000000E-01   5.00000000E-01   1.13018932E+05   4.87272836E+04   4.65252581E-04   8.76262610E-06   8.23385199E-06   0.00000000E+00   2.00603179E+04   1.76163952E+04   7.03373382E+04   3.00424757E+04   1.01381555E+06   5.81660360E+02   1.27459039E+06   5.47076541E+00   4.61573683E+04   4.70343005E+04   3.28213088E-03   3.47617433E+02   2.24928729E+02   4.22348185E-05   4.74105395E-05   2.35854545E-05
   1.10250000E+03   5.00000000E-01   5.00000000E-01   1.13018996E+05   4.87614037E+04   4.65255125E-04   1.12035989E-05   1.04670929E-05   0.00000000E+00   2.00603179E+04   1.76163840E+04   7.03379144E+04   3.00245163E+04   1.00965767E+06   7.24965281E+02   1.28944839E+06   5.56758186E+00   4.61407327E+04   4.70343005E+04   4.30719767E-03   3.47617431E+02   2.24937040E+02   4.22348185E-05   4.74103598E-05   2.35842998E-05
   1.13750000E+03   5.00000000E-01   5.00000000E-01   1.13019024E+05   4.82904208E+04   4.65254437E-04   1.39331155E-05   1.29938048E-05   7.33196413E+06   2.00603119E+04   1.76162181E+04   7.03389084E+04   2.94528388E+04   6.55698264E+05   2.27511251E+03   2.16282828E+06   6.68347505E+00   4.58953471E+04   4.70343005E+04   5.79726170E-03   3.47617430E+02   2.24951513E+02   4.22348185E-05   4.74101872E-05   2.35755404E-05
   1.17250000E+03   5.00000000E-01   5.00000000E-01   1.13019146E+05   4.85331104E+04   4.65258496E-04   1.98655347E-05   1.84361062E-05   0.00000000E+00   2.00603123E+04   1.76162487E+04   7.03404004E+04   2.96008724E+04   1.03448880E+06   1.35026987E+03   1.27253378E+06   6.13527604E+00   4.58946033E+04   4.70343005E+04   8.03547742E-03   3.47617428E+02   2.24969293E+02   4.22348185E-05   4.74100764E-05   2.35756379E-05
   1.20750000E+03   5.00000000E-01   5.00000000E-01   1.13019308E+05   4.87345859E+04   4.65262831E-04   2.90804693E-05   2.69201319E-05   0.00000000E+00   2.00603126E+04   1.76162650E+04   7.03436041E+04   2.98126428E+04   1.01158468E+06   1.62868133E+03   1.30976066E+06   6.10057372E+00   4.58943368E+04   4.70343005E+04   1.15021360E-02   3.47617426E+02   2.25005799E+02   4.22348185E-05   4.74099443E-05   2.35753839E-05
   1.24250000E+03   5.00000000E-01   5.00000000E-01   1.13019515E+05   4.88328129E+04   4.65267813E-04   4.18129125E-05   3.87429444E-05   0.00000000E+00   2.00603127E+04   1.76162657E+04   7.03545071E+04   3.02346192E+04   9.92542252E+05   2.18322334E+03   1.30001805E+06   6.13356187E+00   4.58942778E+04   4.70343005E+04   1.70438764E-02   3.47617424E+02   2.25120460E+02   4.22348185E-05   4.74097929E-05   2.35748949E-05
   1.27750000E+03   5.00000000E-01   5.00000000E-01   1.13019762E+05   4.88038581E+04   4.65273714E-04   5.49871246E-05   5.12179384E-05   0.00000000E+00   2.00603127E+04   1.76162510E+04   7.04714843E+04   3.15092913E+04   9.74262561E+05   3.54019749E+03   1.14290751E+06   6.19175294E+00   4.58944599E+04   4.70343005E+04   2.62012846E-02   3.47617422E+02   2.26089746E+02   4.22348185E-05   4.74096161E-05   2.35741857E-05
   1.31250000E+03   5.00000000E-01   5.00000000E-01   1.13020034E+05   4.87566986E+04   4.65281629E-04   6.14528982E-05   5.77923357E-05   0.00000000E+00   2.00603127E+04   1.76162328E+04   7.20870346E+04   3.32904714E+04   9.59216300E+05   4.00972695E+03   7.90057461E+05   6.07524812E+00   4.59031580E+04   4.70343005E+04   4.18180042E-02   3.47617419E+02   2.33425416E+02   4.22348185E-05   4.74094516E-05   2.35734970E-05
   1.34750000E+03   5.00000000E-01   5.00000000E-01   1.13020320E+05   4.87645031E+04   4.65294195E-04   5.75230429E-05   5.47808978E-05   0.00000000E+00   2.00603128E+04   1.76162184E+04   7.48991673E+04   3.35780515E+04   9.32822591E+05   2.57224954E+03   6.27673142E+05   5.82525979E+00   4.63931154E+04   4.70343005E+04   6.92196885E-02   3.47617417E+02   2.39583984E+02   4.22348185E-05   4.74093301E-05   2.35729209E-05
   1.38250000E+03   5.00000000E-01   5.00000000E-01   1.13020613E+05   4.87503885E+04   4.65309765E-04   4.77726795E-05   4.61051279E-05   7.07462029E+03   2.00603129E+04   1.76162003E+04   7.74708276E+04   3.33962027E+04   8.98226101E+05   3.33440308E+03   5.68184456E+05   5.75696696E+00   4.72981900E+04   4.70343005E+04   1.19076774E-01   3.47617415E+02   2.41643624E+02   4.22348185E-05   4.74092360E-05   2.35722998E-05
   1.41750000E+03   5.00000000E-01   5.00000000E-01   1.13020917E+05   4.87253781E+04   4.65328701E-04   3.79159788E-05   3.70421412E-05   1.27303498E-07   2.00603129E+04   1.76161812E+04   7.98108548E+04   3.32339148E+04   8.67816619E+05   4.89941001E+03   5.05599254E+05   5.72908916E+00   4.81286196E+04   4.70343005E+04   2.13576229E-01   3.47617413E+02   2.42207608E+02   4.22348185E-05   4.74091596E-05   2.35716735E-05
   1.45250000E+03   5.00000000E-01   5.00000000E-01   1.13021238E+05   4.86997043E+04   4.65351977E-04   3.00746108E-05   2.96863557E-05   3.01320563E-20   2.00603129E+04   1.76161625E+04   8.20272953E+04   3.31017490E+04   8.38720879E+05   7.17681115E+03   4.38655228E+05   5.70343769E+00   4.89033756E+04   4.70343005E+04   4.00553851E-01   3.47617411E+02   2.42186964E+02   4.22348185E-05   4.74090970E-05   2.35710617E-05
   1.48750000E+03   5.00000000E-01   5.00000000E-01   1.13021577E+05   4.86776846E+04   4.65380798E-04   2.41818406E-05   2.40710524E-05   1.54824002E-32   2.00603129E+04   1.76161448E+04   8.41920746E+04   3.29775477E+04   8.10400626E+05   1.01963782E+04   3.67142191E+05   5.67053914E+00   4.96448786E+04   4.70343005E+04   7.87713723E-01   3.47617409E+02   2.41871609E+02   4.22348185E-05   4.74090454E-05   2.35704837E-05
   1.52250000E+03   5.00000000E-01   5.00000000E-01   1.13021934E+05   4.86604784E+04   4.65416667E-04   1.97466420E-05   1.97881299E-05   1.76288761E-42   2.00603129E+04   1.76161285E+04   8.63368276E+04   3.28505794E+04   7.82514114E+05   1.41098183E+04   2.90420414E+05   5.62686328E+00   5.03632970E+04   4.70343006E+04   1.62889319E+00   3.47617409E+02   2.41383156E+02   4.22348185E-05   4.74090028E-05   2.35699574E-05
   1.55750000E+03   5.00000000E-01   5.00000000E-01   1.13022306E+05   4.86475317E+04   4.65461470E-04   1.63653363E-05   1.64853530E-05   6.38181679E-49   2.00603130E+04   1.76161140E+04   8.84617383E+04   3.27281522E+04   7.54926628E+05   1.90480639E+04   2.06907130E+05   5.56044935E+00   5.10590394E+04   4.70343006E+04   3.55206901E+00   3.47617410E+02   2.40761990E+02   4.22348185E-05   4.74089675E-05   2.35694970E-05
   1.59250000E+03   5.00000000E-01   5.00000000E-01   1.13022692E+05   4.86360760E+04   4.65517578E-04   1.37544753E-05   1.39099905E-05   1.97654924E-52   2.00603131E+04   1.76161009E+04   9.05664106E+04   3.26179991E+04   7.28006654E+05   2.40924231E+04   1.20237924E+05   5.44591343E+00   5.17332790E+04   4.70343006E+04   8.19192892E+00   3.47617411E+02   2.40062425E+02   4.22348185E-05   4.74089381E-05   2.35691002E-05
   1.62750000E+03   5.00000000E-01   5.00000000E-01   1.13023088E+05   4.86177107E+04   4.65587952E-04   1.17188677E-05   1.18853196E-05   9.31852405E-55   2.00603133E+04   1.76160881E+04   9.26627138E+04   3.25132943E+04   7.03018699E+05   2.63609335E+04   4.53472099E+04   5.25218045E+00   5.23884450E+04   4.70343006E+04   2.00354737E+01   3.47617413E+02   2.39337778E+02   4.22348185E-05   4.74089134E-05   2.35687365E-05
   1.66250000E+03   5.00000000E-01   5.00000000E-01   1.13023493E+05   4.85844105E+04   4.65676351E-04   1.01257806E-05   1.02897799E-05   2.74960146E-57   2.00603135E+04   1.76160737E+04   9.47613838E+04   3.23855958E+04   6.81080782E+05   2.24615000E+04   4.37425608E+03   4.94433412E+00   5.30244856E+04   4.70343006E+04   5.20958881E+01   3.47617415E+02   2.38623017E+02   4.22348185E-05   4.74088929E-05   2.35683513E-05
   1.69750000E+03   5.00000000E-01   5.00000000E-01   1.13023906E+05   4.85298310E+04   4.65787457E-04   8.88511775E-06   9.04005164E-06   7.20409438E-61   2.00603136E+04   1.76160563E+04   9.69168360E+04   3.22071067E+04   6.62070580E+05   1.20686453E+04   5.32947209E+01   4.53198538E+00   5.36460749E+04   4.70343007E+04   1.44247000E+02   3.47617417E+02   2.37997145E+02   4.22348185E-05   4.74088756E-05   2.35679086E-05
   1.73250000E+03   5.00000000E-01   5.00000000E-01   1.13024333E+05   4.84662122E+04   4.65927463E-04   7.92960589E-06   8.07296771E-06   1.90283756E-63   2.00603139E+04   1.76160386E+04   9.91461035E+04   3.18595503E+04   6.42861288E+05   4.28510572E+03   6.11231037E-02   3.93419491E+00   5.42628298E+04   4.70343007E+04   4.25182979E+02   3.47617420E+02   2.37408211E+02   4.22348185E-05   4.74088603E-05   2.35674731E-05
   1.76750000E+03   5.00000000E-01   5.00000000E-01   1.13024777E+05   4.84100532E+04   4.66103455E-04   7.19638177E-06   7.32787372E-06   1.35251778E-64   2.00603142E+04   1.76160224E+04   1.01557728E+05   3.13106961E+04   6.21485476E+05   2.37853497E+02   2.22869042E-05   3.17808105E+00   5.49850071E+04   4.70343007E+04   1.32532746E+03   3.47617422E+02   2.36853354E+02   4.22348185E-05   4.74088480E-05   2.35670854E-05
   1.80250000E+03   5.00000000E-01   5.00000000E-01   1.13025239E+05   4.83618181E+04   4.66323964E-04   6.62334811E-06   6.74349029E-06   1.10177442E-64   2.00603145E+04   1.76160089E+04   1.04014479E+05   3.05910207E+04   5.99568774E+05   5.39419980E-01   1.45789121E-08   2.38948628E+00   5.57586196E+04   4.70343008E+04   4.26504343E+03   3.47617424E+02   2.36107095E+02   4.22348185E-05   4.74088383E-05   2.35667794E-05
   1.83750000E+03   5.00000000E-01   5.00000000E-01   1.13025710E+05   4.83281543E+04   4.66599064E-04   6.15575933E-06   6.26502366E-06   4.23773981E-65   2.00603149E+04   1.76159979E+04   1.06240204E+05   2.99128970E+04   5.80584215E+05   1.47242293E-01   8.34420569E-10   2.16294571E+00   5.64966386E+04   4.70343009E+04   1.31454757E+04   3.47617426E+02   2.35137285E+02   4.22348185E-05   4.74088320E-05   2.35665346E-05
   1.87250000E+03   5.00000000E-01   5.00000000E-01   1.13026182E+05   4.83213711E+04   4.66941288E-04   5.75271456E-06   5.85114702E-06   1.56598807E-66   2.00603152E+04   1.76159898E+04   1.08082707E+05   2.93322232E+04   5.65847673E+05   1.32983913E-01   3.42735157E-10   2.09414465E+00   5.71180143E+04   4.70343010E+04   3.32499148E+04   3.47617427E+02   2.34026954E+02   4.22348185E-05   4.74088289E-05   2.35663346E-05
   1.90750000E+03   5.00000000E-01   5.00000000E-01   1.13026651E+05   4.83206116E+04   4.67367088E-04   5.39043830E-06   5.47775645E-06   1.88544046E-67   2.00603154E+04   1.76159836E+04   1.09309717E+05   2.89102443E+04   5.57812855E+05   1.25245961E-01   2.14169367E-10   2.04330179E+00   5.74566848E+04   4.70343011E+04   6.09250666E+04   3.47617429E+02   2.32855111E+02   4.22348185E-05   4.74088268E-05   2.35661889E-05
   1.94250000E+03   5.00000000E-01   5.00000000E-01   1.13027114E+05   4.83206380E+04   4.67896260E-04   5.05809082E-06   5.13388348E-06   8.87714479E-68   2.00603158E+04   1.76159790E+04   1.10106738E+05   2.86308342E+04   5.52878734E+05   1.18703469E-01   1.55151819E-10   2.00217832E+00   5.76593007E+04   4.70343012E+04   8.33714832E+04   3.47617430E+02   2.31808235E+02   4.22348185E-05   4.74088251E-05   2.35660826E-05
   1.97750000E+03   5.00000000E-01   5.00000000E-01   1.13027566E+05   4.83211411E+04   4.68552826E-04   4.75346777E-06   4.81744688E-06   9.43216693E-68   2.00603161E+04   1.76159753E+04   1.10677802E+05   2.84366092E+04   5.49056757E+05   1.12900582E-01   1.20595674E-10   1.96989567E+00   5.78135348E+04   4.70343014E+04   9.47506188E+04   3.47617430E+02   2.30925753E+02   4.22348185E-05   4.74088238E-05   2.35660002E-05
   2.01250000E+03   5.00000000E-01   5.00000000E-01   1.13028004E+05   4.83219233E+04   4.69365994E-04   4.47877156E-06   4.53097702E-06   1.62043493E-67   2.00603165E+04   1.76159722E+04   1.11118568E+05   2.82925302E+04   5.45821568E+05   1.07452405E-01   9.76888120E-11   1.94594302E+00   5.79421117E+04   4.70343017E+04   9.74696020E+04   3.47617431E+02   2.30183798E+02   4.22348185E-05   4.74088226E-05   2.35659326E-05
   2.04750000E+03   5.00000000E-01   5.00000000E-01   1.13028428E+05   4.83228526E+04   4.70371167E-04   4.23718679E-06   4.27808153E-06   3.61839416E-67   2.00603169E+04   1.76159696E+04   1.11474951E+05   2.81806372E+04   5.42979074E+05   1.02005655E-01   8.11159644E-11   1.92984279E+00   5.80531766E+04   4.70343020E+04   9.54057809E+04   3.47617431E+02   2.29554949E+02   4.22348185E-05   4.74088215E-05   2.35658741E-05
   2.08250000E+03   5.00000000E-01   5.00000000E-01   1.13028842E+05   4.83238776E+04   4.71611188E-04   4.03069469E-06   4.06114342E-06   9.14854991E-67   2.00603173E+04   1.76159673E+04   1.11772765E+05   2.80908615E+04   5.40419011E+05   9.63624188E-02   6.81693835E-11   1.92091911E+00   5.81513151E+04   4.70343023E+04   9.11720814E+04   3.47617432E+02   2.29017416E+02   4.22348185E-05   4.74088206E-05   2.35658215E-05
   2.11750000E+03   5.00000000E-01   5.00000000E-01   1.13029248E+05   4.83250055E+04   4.73137837E-04   3.85912192E-06   3.88028472E-06   2.42020959E-66   2.00603178E+04   1.76159651E+04   1.12028459E+05   2.80168486E+04   5.38068102E+05   9.05581382E-02   5.72976835E-11   1.91781480E+00   5.82395180E+04   4.70343028E+04   8.61374307E+04   3.47617432E+02   2.28554605E+02   4.22348185E-05   4.74088198E-05   2.35657727E-05
   2.15250000E+03   5.00000000E-01   5.00000000E-01   1.13029654E+05   4.83262876E+04   4.75013633E-04   3.72014208E-06   3.73332857E-06   6.43877142E-66   2.00603183E+04   1.76159631E+04   1.12253529E+05   2.79541172E+04   5.35877037E+05   8.49086000E-02   4.75498986E-11   1.91790571E+00   5.83197082E+04   4.70343034E+04   8.09351188E+04   3.47617432E+02   2.28153793E+02   4.22348185E-05   4.74088191E-05   2.35657263E-05
   2.18750000E+03   5.00000000E-01   5.00000000E-01   1.13030067E+05   4.83277860E+04   4.77314026E-04   3.60988248E-06   3.61641202E-06   1.69592281E-65   2.00603187E+04   1.76159612E+04   1.12456659E+05   2.78992122E+04   5.33811959E+05   7.99276746E-02   3.84595169E-11   1.91727353E+00   5.83931954E+04   4.70343042E+04   7.58371074E+04   3.47617432E+02   2.27805059E+02   4.22348185E-05   4.74088184E-05   2.35656817E-05
   2.22250000E+03   5.00000000E-01   5.00000000E-01   1.13030494E+05   4.83294934E+04   4.80130049E-04   3.52374554E-06   3.52484394E-06   4.39978033E-65   2.00603193E+04   1.76159594E+04   1.12644239E+05   2.78495613E+04   5.31849440E+05   7.59510606E-02   3.01089330E-11   1.91224900E+00   5.84610987E+04   4.70343052E+04   7.09548860E+04   3.47617432E+02   2.27500488E+02   4.22348185E-05   4.74088177E-05   2.35656388E-05
   2.25750000E+03   5.00000000E-01   5.00000000E-01   1.13030943E+05   4.83312765E+04   4.83571569E-04   3.45711219E-06   3.45385250E-06   1.12564250E-64   2.00603198E+04   1.76159577E+04   1.12819490E+05   2.78037638E+04   5.29983136E+05   7.27310892E-02   2.29193245E-11   1.90173598E+00   5.85241287E+04   4.70343064E+04   6.63196585E+04   3.47617432E+02   2.27233561E+02   4.22348185E-05   4.74088171E-05   2.35655974E-05
   2.29250000E+03   5.00000000E-01   5.00000000E-01   1.13031423E+05   4.83329569E+04   4.87771260E-04   3.40581905E-06   3.39910209E-06   2.86971040E-64   2.00603203E+04   1.76159560E+04   1.12982720E+05   2.77614682E+04   5.28223619E+05   6.96390467E-02   1.71613770E-11   1.88727321E+00   5.85823095E+04   4.70343080E+04   6.19285626E+04   3.47617432E+02   2.26998818E+02   4.22348185E-05   4.74088166E-05   2.35655575E-05
   2.32750000E+03   5.00000000E-01   5.00000000E-01   1.13031940E+05   4.83344296E+04   4.92889504E-04   3.36636333E-06   3.35692337E-06   7.40048063E-64   2.00603209E+04   1.76159543E+04   1.13133607E+05   2.77226983E+04   5.26577686E+05   6.62003910E-02   1.27656641E-11   1.87092318E+00   5.86355967E+04   4.70343099E+04   5.77866570E+04   3.47617431E+02   2.26791749E+02   4.22348185E-05   4.74088160E-05   2.35655191E-05
   2.36250000E+03   5.00000000E-01   5.00000000E-01   1.13032504E+05   4.83356616E+04   4.99120416E-04   3.33594089E-06   3.32436543E-06   1.95566979E-63   2.00603215E+04   1.76159527E+04   1.13272547E+05   2.76874030E+04   5.25038817E+05   6.22476113E-02   9.48115674E-12   1.85396639E+00   5.86843161E+04   4.70343122E+04   5.39024790E+04   3.47617430E+02   2.26608654E+02   4.22348185E-05   4.74088155E-05   2.35654824E-05
   2.39750000E+03   5.00000000E-01   5.00000000E-01   1.13033123E+05   4.83366318E+04   5.06699328E-04   3.31237349E-06   3.29912732E-06   5.34703867E-63   2.00603221E+04   1.76159512E+04   1.13400617E+05   2.76553659E+04   5.23592330E+05   5.77717224E-02   7.04088704E-12   1.83692836E+00   5.87290695E+04   4.70343151E+04   5.02499010E+04   3.47617429E+02   2.26446467E+02   4.22348185E-05   4.74088150E-05   2.35654471E-05