 TITLE = "Mineral Area" 
VARIABLES = "X"          "Y"              "Z"            "Forsterite"     "Fayalite"       "Saponite(Mg)"   "Enstatite(alph" "Ferrosilite(al" "Anorthite"      "Albite(low)"    "Clinochlore"    "Sudoite"        "Montmorillonit" "Kaolinite"      "Tremolite"      "Pargasite"      "Anhydrite"      "Epidote"        "Scolecite"      "Pyrite"         "FeS(am)"        "Quartz(alpha)" 
 ZONE I=         100 , J=           1 , K=           1  F=POINT
   1.75000000E+01   5.00000000E-01   5.00000000E-01   3.45663382E+04   4.68541116E+04   3.14288780E+06   2.00607126E+04   1.76161580E+04   1.21148062E+05   2.86594801E+04   1.75651256E+05   5.14545871E-06   1.66943456E-03   2.00098622E+04   4.73168439E+04   4.85371321E+04   4.17922295E-06   3.47617433E+02   2.26301388E+02   5.62833968E-05   5.85194133E-05   2.35756616E-05
   5.25000000E+01   5.00000000E-01   5.00000000E-01   3.45663382E+04   4.69780514E+04   3.17547394E+06   2.00607126E+04   1.76162047E+04   1.21148062E+05   2.90680243E+04   1.55079252E+05   2.78036531E-06   2.16411792E-03   2.00488311E+04   4.73168040E+04   4.85371321E+04   4.25937310E-06   3.47617439E+02   2.26301465E+02   5.62833968E-05   5.85221993E-05   2.35767879E-05
   8.75000000E+01   5.00000000E-01   5.00000000E-01   3.45663382E+04   4.71408543E+04   3.02389814E+06   2.00607126E+04   1.76162442E+04   1.21148062E+05   2.92419106E+04   1.48589945E+05   2.30951774E-06   2.55185071E-03   2.00765522E+04   4.73166604E+04   4.85371321E+04   4.35036386E-06   3.47617438E+02   2.26301521E+02   5.62833968E-05   5.85243353E-05   2.35769545E-05
   1.22500000E+02   5.00000000E-01   5.00000000E-01   3.45663382E+04   4.73090828E+04   2.82070129E+06   2.00607126E+04   1.76162757E+04   1.21148062E+05   2.93681884E+04   1.45147820E+05   2.25856547E-06   2.97863277E-03   2.01050793E+04   4.73165896E+04   4.85371321E+04   4.45385097E-06   3.47617438E+02   2.26301579E+02   5.62833968E-05   5.85257179E-05   2.35769639E-05
   1.57500000E+02   5.00000000E-01   5.00000000E-01   3.45663382E+04   4.74621743E+04   2.62863673E+06   2.00607127E+04   1.76163001E+04   1.21148062E+05   2.94788867E+04   1.42312929E+05   2.33694905E-06   3.50933888E-03   2.01374597E+04   4.73165940E+04   4.85371321E+04   4.57172567E-06   3.47617438E+02   2.26301646E+02   5.62833968E-05   5.85264467E-05   2.35769210E-05
   1.92500000E+02   5.00000000E-01   5.00000000E-01   3.45663382E+04   4.75923410E+04   2.46420967E+06   2.00607127E+04   1.76163184E+04   1.21148062E+05   2.95735732E+04   1.39879668E+05   2.47718106E-06   4.15988425E-03   2.01735378E+04   4.73165673E+04   4.85371321E+04   4.70618721E-06   3.47617437E+02   2.26301721E+02   5.62833968E-05   5.85266782E-05   2.35768368E-05
   2.27500000E+02   5.00000000E-01   5.00000000E-01   3.45663382E+04   4.76987369E+04   2.32969759E+06   2.00607127E+04   1.76163319E+04   1.21148062E+05   2.96505476E+04   1.37900945E+05   2.66571740E-06   4.93487265E-03   2.02127262E+04   4.73164834E+04   4.85371321E+04   4.85982633E-06   3.47617437E+02   2.26301802E+02   5.62833968E-05   5.85265554E-05   2.35767171E-05
   2.62500000E+02   5.00000000E-01   5.00000000E-01   3.45663382E+04   4.77835858E+04   2.22247934E+06   2.00607128E+04   1.76163417E+04   1.21148062E+05   2.97103350E+04   1.36387566E+05   2.90524730E-06   5.83801548E-03   2.02545852E+04   4.73164491E+04   4.85371321E+04   5.03572491E-06   3.47617437E+02   2.26301889E+02   5.62833968E-05   5.85261916E-05   2.35765692E-05
   2.97500000E+02   5.00000000E-01   5.00000000E-01   3.45663382E+04   4.78501534E+04   2.13858000E+06   2.00607128E+04   1.76163486E+04   1.21148062E+05   2.97548614E+04   1.35299895E+05   3.20577926E-06   6.87526411E-03   2.02988948E+04   4.73164589E+04   4.85371321E+04   5.23758064E-06   3.47617437E+02   2.26301981E+02   5.62833968E-05   5.85256723E-05   2.35764003E-05
   3.32500000E+02   5.00000000E-01   5.00000000E-01   3.45663382E+04   4.79018056E+04   2.07383004E+06   2.00607128E+04   1.76163533E+04   1.21148062E+05   2.97865266E+04   1.34577492E+05   3.58315135E-06   8.05572908E-03   2.03455954E+04   4.73164663E+04   4.85371321E+04   5.46986365E-06   3.47617437E+02   2.26302079E+02   5.62833968E-05   5.85250596E-05   2.35762169E-05
   3.67500000E+02   5.00000000E-01   5.00000000E-01   3.45663382E+04   4.79415925E+04   2.02430939E+06   2.00607129E+04   1.76163564E+04   1.21148062E+05   2.98077080E+04   1.34157480E+05   4.06002631E-06   9.39216211E-03   2.03947255E+04   4.73165081E+04   4.85371321E+04   5.73801530E-06   3.47617437E+02   2.26302181E+02   5.62833968E-05   5.85243983E-05   2.35760239E-05
   4.02500000E+02   5.00000000E-01   5.00000000E-01   3.45663382E+04   4.79720757E+04   1.98672852E+06   2.00607129E+04   1.76163583E+04   1.21148062E+05   2.98205515E+04   1.33979569E+05   4.66865704E-06   1.09017166E-02   2.04464012E+04   4.73165876E+04   4.85371321E+04   6.04870756E-06   3.47617437E+02   2.26302290E+02   5.62833968E-05   5.85237197E-05   2.35758254E-05
   4.37500000E+02   5.00000000E-01   5.00000000E-01   3.45663382E+04   4.79953238E+04   1.95839169E+06   2.00607130E+04   1.76163592E+04   1.21148062E+05   2.98268928E+04   1.33990473E+05   5.45522336E-06   1.26064979E-02   2.05007879E+04   4.73166921E+04   4.85371321E+04   6.41018297E-06   3.47617437E+02   2.26302405E+02   5.62833968E-05   5.85230455E-05   2.35756244E-05
   4.72500000E+02   5.00000000E-01   5.00000000E-01   3.45663383E+04   4.80129641E+04   1.93712106E+06   2.00607130E+04   1.76163594E+04   1.21148062E+05   2.98282641E+04   1.34144666E+05   6.48676990E-06   1.45344413E-02   2.05580859E+04   4.73168169E+04   4.85371321E+04   6.83270422E-06   3.47617437E+02   2.26302526E+02   5.62833968E-05   5.85223903E-05   2.35754231E-05
   5.07500000E+02   5.00000000E-01   5.00000000E-01   3.45663383E+04   4.80262498E+04   1.92119419E+06   2.00607131E+04   1.76163591E+04   1.21148062E+05   2.98259299E+04   1.34403436E+05   7.86247738E-06   1.67206259E-02   2.06185266E+04   4.73169579E+04   4.85371321E+04   7.32915512E-06   3.47617437E+02   2.26302655E+02   5.62833968E-05   5.85217638E-05   2.35752233E-05
   5.42500000E+02   5.00000000E-01   5.00000000E-01   3.45663384E+04   4.80361317E+04   1.90926016E+06   2.00607131E+04   1.76163584E+04   1.21148062E+05   2.98209282E+04   1.34734071E+05   9.73215019E-06   1.92089512E-02   2.06823712E+04   4.73171108E+04   4.85371321E+04   7.91585163E-06   3.47617437E+02   2.26302792E+02   5.62833968E-05   5.85211717E-05   2.35750263E-05
   5.77500000E+02   5.00000000E-01   5.00000000E-01   3.45663385E+04   4.80433227E+04   1.90026587E+06   2.00607132E+04   1.76163575E+04   1.21148062E+05   2.98141068E+04   1.35109054E+05   1.23272654E-05   2.20542447E-02   2.07499095E+04   4.73172722E+04   4.85371321E+04   8.61364746E-06   3.47617436E+02   2.26302939E+02   5.62833968E-05   5.85206175E-05   2.35748329E-05
   6.12500000E+02   5.00000000E-01   5.00000000E-01   3.45663386E+04   4.80483524E+04   1.89339673E+06   2.00607132E+04   1.76163563E+04   1.21148063E+05   2.98061534E+04   1.35505432E+05   1.60143885E-05   2.53247905E-02   2.08214585E+04   4.73174397E+04   4.85371321E+04   9.44945734E-06   3.47617436E+02   2.26303094E+02   5.62833968E-05   5.85201026E-05   2.35746440E-05
   6.47500000E+02   5.00000000E-01   5.00000000E-01   3.45663387E+04   4.80516116E+04   1.88803026E+06   2.00607133E+04   1.76163549E+04   1.21148063E+05   2.97976170E+04   1.35904375E+05   2.13894356E-05   2.91052348E-02   2.08973578E+04   4.73176122E+04   4.85371321E+04   1.04583796E-05   3.47617435E+02   2.26303261E+02   5.62833968E-05   5.85196271E-05   2.35744601E-05
   6.82500000E+02   5.00000000E-01   5.00000000E-01   3.45663390E+04   4.80533886E+04   1.88370051E+06   2.00607133E+04   1.76163535E+04   1.21148063E+05   2.97889246E+04   1.36290883E+05   2.94485635E-05   3.34997882E-02   2.09779621E+04   4.73177891E+04   4.85371321E+04   1.16866890E-05   3.47617434E+02   2.26303440E+02   5.62833968E-05   5.85191904E-05   2.35742814E-05
   7.17500000E+02   5.00000000E-01   5.00000000E-01   3.45663393E+04   4.80538968E+04   1.88007057E+06   2.00607134E+04   1.76163519E+04   1.21148063E+05   2.97803930E+04   1.36653587E+05   4.19068615E-05   3.86355989E-02   2.10636304E+04   4.73179703E+04   4.85371321E+04   1.31961090E-05   3.47617433E+02   2.26303631E+02   5.62833968E-05   5.85187911E-05   2.35741083E-05
   7.52500000E+02   5.00000000E-01   5.00000000E-01   3.45663398E+04   4.80532965E+04   1.87691106E+06   2.00607135E+04   1.76163502E+04   1.21148064E+05   2.97722391E+04   1.36984555E+05   6.18104738E-05   4.46660987E-02   2.11547115E+04   4.73181563E+04   4.85371321E+04   1.50699933E-05   3.47617431E+02   2.26303837E+02   5.62833968E-05   5.85184275E-05   2.35739407E-05
   7.87500000E+02   5.00000000E-01   5.00000000E-01   3.45663405E+04   4.80517114E+04   1.87408243E+06   2.00607135E+04   1.76163485E+04   1.21148065E+05   2.97645901E+04   1.37279062E+05   9.47488381E-05   5.17740318E-02   2.12515275E+04   4.73183473E+04   4.85371321E+04   1.74223937E-05   3.47617428E+02   2.26304057E+02   5.62833968E-05   5.85180975E-05   2.35737787E-05
   8.22500000E+02   5.00000000E-01   5.00000000E-01   3.45663416E+04   4.80492403E+04   1.87151955E+06   2.00607136E+04   1.76163467E+04   1.21148065E+05   2.97574942E+04   1.37535290E+05   1.51332208E-04   6.01737513E-02   2.13543562E+04   4.73185423E+04   4.85371321E+04   2.04115600E-05   3.47617424E+02   2.26304294E+02   5.62833968E-05   5.85177991E-05   2.35736222E-05
   8.57500000E+02   5.00000000E-01   5.00000000E-01   3.45663431E+04   4.80459655E+04   1.86921673E+06   2.00607137E+04   1.76163449E+04   1.21148066E+05   2.97509329E+04   1.37753954E+05   2.52420652E-04   7.01122284E-02   2.14634141E+04   4.73187388E+04   4.85371321E+04   2.42603564E-05   3.47617419E+02   2.26304548E+02   5.62833968E-05   5.85175299E-05   2.35734709E-05
   8.92500000E+02   5.00000000E-01   5.00000000E-01   3.45663453E+04   4.80419586E+04   1.86721178E+06   2.00607138E+04   1.76163430E+04   1.21148068E+05   2.97448346E+04   1.37937879E+05   4.40525399E-04   8.18680755E-02   2.15788405E+04   4.73189337E+04   4.85371321E+04   2.92876503E-05   3.47617411E+02   2.26304819E+02   5.62833968E-05   5.85172878E-05   2.35733246E-05
   9.27500000E+02   5.00000000E-01   5.00000000E-01   3.45663487E+04   4.80372846E+04   1.86556912E+06   2.00607139E+04   1.76163411E+04   1.21148069E+05   2.97390887E+04   1.38091544E+05   8.05492656E-04   9.57477922E-02   2.17006850E+04   4.73191259E+04   4.85371321E+04   3.59574210E-05   3.47617401E+02   2.26305109E+02   5.62833968E-05   5.85170706E-05   2.35731831E-05
   9.62500000E+02   5.00000000E-01   5.00000000E-01   3.45663536E+04   4.80320038E+04   1.86436429E+06   2.00607140E+04   1.76163392E+04   1.21148071E+05   2.97335603E+04   1.38220600E+05   1.54426392E-03   1.12078460E-01   2.18288989E+04   4.73193189E+04   4.85371321E+04   4.49570312E-05   3.47617388E+02   2.26305418E+02   5.62833968E-05   5.85168761E-05   2.35730461E-05
   9.97500000E+02   5.00000000E-01   5.00000000E-01   3.45663609E+04   4.80261731E+04   1.86367450E+06   2.00607140E+04   1.76163373E+04   1.21148074E+05   2.97281035E+04   1.38331320E+05   3.10441622E-03   1.31196327E-01   2.19633319E+04   4.73195207E+04   4.85371321E+04   5.73244465E-05   3.47617371E+02   2.26305746E+02   5.62833968E-05   5.85167023E-05   2.35729131E-05
   1.03250000E+03   5.00000000E-01   5.00000000E-01   3.45663715E+04   4.80198446E+04   1.86358059E+06   2.00607141E+04   1.76163353E+04   1.21148077E+05   2.97225746E+04   1.38429962E+05   6.53979157E-03   1.53431159E-01   2.21037372E+04   4.73197347E+04   4.85371321E+04   7.46593695E-05   3.47617350E+02   2.26306094E+02   5.62833968E-05   5.85165473E-05   2.35727840E-05
   1.06750000E+03   5.00000000E-01   5.00000000E-01   3.45663871E+04   4.80130647E+04   1.86416977E+06   2.00607142E+04   1.76163333E+04   1.21148081E+05   2.97168411E+04   1.38522235E+05   1.44181160E-02   1.79086200E-01   2.22497804E+04   4.73199496E+04   4.85371321E+04   9.94814483E-05   3.47617326E+02   2.26306462E+02   5.62833968E-05   5.85164092E-05   2.35726585E-05
   1.10250000E+03   5.00000000E-01   5.00000000E-01   3.45664098E+04   4.80058773E+04   1.86551725E+06   2.00607144E+04   1.76163313E+04   1.21148086E+05   2.97107884E+04   1.38613234E+05   3.32018641E-02   2.08413151E-01   2.24010441E+04   4.73201472E+04   4.85371321E+04   1.35852367E-04   3.47617297E+02   2.26306850E+02   5.62833968E-05   5.85162864E-05   2.35725363E-05
   1.13750000E+03   5.00000000E-01   5.00000000E-01   3.45664425E+04   4.79983270E+04   1.86765868E+06   2.00607145E+04   1.76163293E+04   1.21148093E+05   2.97043234E+04   1.38707612E+05   7.96506769E-02   2.41583184E-01   2.25570294E+04   4.73203228E+04   4.85371321E+04   1.90483238E-04   3.47617266E+02   2.26307258E+02   5.62833968E-05   5.85161773E-05   2.35724172E-05
   1.17250000E+03   5.00000000E-01   5.00000000E-01   3.45664895E+04   4.79904611E+04   1.87057923E+06   2.00607146E+04   1.76163273E+04   1.21148100E+05   2.96973779E+04   1.38809546E+05   1.98419752E-01   2.78657180E-01   2.27171625E+04   4.73204987E+04   4.85371321E+04   2.74758179E-04   3.47617232E+02   2.26307686E+02   5.62833968E-05   5.85160804E-05   2.35723009E-05
   1.20750000E+03   5.00000000E-01   5.00000000E-01   3.45665553E+04   4.79823271E+04   1.87423843E+06   2.00607147E+04   1.76163253E+04   1.21148110E+05   2.96899096E+04   1.38922183E+05   5.11363453E-01   3.19559736E-01   2.28808131E+04   4.73207091E+04   4.85371321E+04   4.08536139E-04   3.47617196E+02   2.26308134E+02   5.62833968E-05   5.85159945E-05   2.35721873E-05
   1.24250000E+03   5.00000000E-01   5.00000000E-01   3.45666453E+04   4.79739654E+04   1.87864031E+06   2.00607149E+04   1.76163232E+04   1.21148121E+05   2.96819029E+04   1.39046331E+05   1.35798991E+00   3.64061364E-01   2.30473300E+04   4.73209433E+04   4.85371321E+04   6.27506917E-04   3.47617161E+02   2.26308602E+02   5.62833968E-05   5.85159184E-05   2.35720764E-05
   1.27750000E+03   5.00000000E-01   5.00000000E-01   3.45667656E+04   4.79654133E+04   1.88384384E+06   2.00607150E+04   1.76163212E+04   1.21148136E+05   2.96733600E+04   1.39179905E+05   3.70056695E+00   4.11753589E-01   2.32160399E+04   4.73211343E+04   4.85371321E+04   9.97873861E-04   3.47617127E+02   2.26309090E+02   5.62833968E-05   5.85158510E-05   2.35719679E-05
   1.31250000E+03   5.00000000E-01   5.00000000E-01   3.45669227E+04   4.79567217E+04   1.88989747E+06   2.00607151E+04   1.76163192E+04   1.21148153E+05   2.96642802E+04   1.39317506E+05   1.02980221E+01   4.61989856E-01   2.33861662E+04   4.73212344E+04   4.85371321E+04   1.64663874E-03   3.47617097E+02   2.26309598E+02   5.62833968E-05   5.85157913E-05   2.35718616E-05
   1.34750000E+03   5.00000000E-01   5.00000000E-01   3.45671233E+04   4.79479727E+04   1.89686039E+06   2.00607153E+04   1.76163171E+04   1.21148174E+05   2.96546223E+04   1.39445203E+05   2.90804830E+01   5.13749252E-01   2.35566667E+04   4.73212881E+04   4.85371321E+04   2.82627070E-03   3.47617074E+02   2.26310125E+02   5.62833968E-05   5.85157385E-05   2.35717576E-05
   1.38250000E+03   5.00000000E-01   5.00000000E-01   3.45673696E+04   4.79393146E+04   1.90495051E+06   2.00607155E+04   1.76163151E+04   1.21148199E+05   2.96442069E+04   1.39524518E+05   8.24784818E+01   5.65240728E-01   2.37257953E+04   4.73215329E+04   4.85371321E+04   5.05792776E-03   3.47617061E+02   2.26310669E+02   5.62833968E-05   5.85156917E-05   2.35716556E-05
   1.41750000E+03   5.00000000E-01   5.00000000E-01   3.45676508E+04   4.79310008E+04   1.91541809E+06   2.00607156E+04   1.76163132E+04   1.21148229E+05   2.96325028E+04   1.39444060E+05   2.30546185E+02   6.12944444E-01   2.38902525E+04   4.73221885E+04   4.85371321E+04   9.46112016E-03   3.47617056E+02   2.26311225E+02   5.62833968E-05   5.85156504E-05   2.35715551E-05
   1.45250000E+03   5.00000000E-01   5.00000000E-01   3.45679512E+04   4.79233679E+04   1.93261512E+06   2.00607158E+04   1.76163112E+04   1.21148265E+05   2.96182469E+04   1.38923853E+05   6.13273968E+02   6.49829584E-01   2.40438077E+04   4.73226783E+04   4.85371321E+04   1.85443016E-02   3.47617046E+02   2.26311779E+02   5.62833968E-05   5.85156139E-05   2.35714548E-05
   1.48750000E+03   5.00000000E-01   5.00000000E-01   3.45682740E+04   4.79170352E+04   1.96249911E+06   2.00607160E+04   1.76163094E+04   1.21148307E+05   2.95991764E+04   1.37537245E+05   1.45752568E+03   6.64144262E-01   2.41752368E+04   4.73228116E+04   4.85371321E+04   3.81832873E-02   3.47617036E+02   2.26312304E+02   5.62833968E-05   5.85155819E-05   2.35713526E-05
   1.52250000E+03   5.00000000E-01   5.00000000E-01   3.45686229E+04   4.79127262E+04   2.00683484E+06   2.00607162E+04   1.76163076E+04   1.21148356E+05   2.95734161E+04   1.35069253E+05   2.90650237E+03   6.46801315E-01   2.42734779E+04   4.73233447E+04   4.85371321E+04   8.27969449E-02   3.47617048E+02   2.26312773E+02   5.62833968E-05   5.85155538E-05   2.35712467E-05
   1.55750000E+03   5.00000000E-01   5.00000000E-01   3.45689825E+04   4.79105207E+04   2.06020564E+06   2.00607165E+04   1.76163058E+04   1.21148412E+05   2.95414785E+04   1.31836986E+05   4.83152900E+03   6.02039371E-01   2.43374450E+04   4.73245510E+04   4.85371321E+04   1.89532974E-01   3.47617068E+02   2.26313180E+02   5.62833968E-05   5.85155292E-05   2.35711372E-05
   1.59250000E+03   5.00000000E-01   5.00000000E-01   3.45693505E+04   4.79097171E+04   2.11658284E+06   2.00607167E+04   1.76163041E+04   1.21148476E+05   2.95056052E+04   1.28327368E+05   6.97975674E+03   5.42713247E-01   2.43747441E+04   4.73253802E+04   4.85371321E+04   4.59083895E-01   3.47617064E+02   2.26313537E+02   5.62833968E-05   5.85155075E-05   2.35710254E-05
   1.62750000E+03   5.00000000E-01   5.00000000E-01   3.45697330E+04   4.79095925E+04   2.17137745E+06   2.00607169E+04   1.76163024E+04   1.21148549E+05   2.94680825E+04   1.24903173E+05   9.14728912E+03   4.80015239E-01   2.43936114E+04   4.73255844E+04   4.85371321E+04   1.17906288E+00   3.47617045E+02   2.26313864E+02   5.62833968E-05   5.85154883E-05   2.35709131E-05
   1.66250000E+03   5.00000000E-01   5.00000000E-01   3.45701186E+04   4.79097997E+04   2.22181843E+06   2.00607171E+04   1.76163007E+04   1.21148633E+05   2.94306152E+04   1.21753468E+05   1.12171314E+04   4.20537267E-01   2.44001224E+04   4.73254996E+04   4.85371321E+04   3.21562139E+00   3.47616998E+02   2.26314175E+02   5.62833968E-05   5.85154712E-05   2.35708022E-05
   1.69750000E+03   5.00000000E-01   5.00000000E-01   3.45705055E+04   4.79101510E+04   2.26798490E+06   2.00607174E+04   1.76162990E+04   1.21148731E+05   2.93942304E+04   1.18888176E+05   1.31571561E+04   3.67104705E-01   2.43983247E+04   4.73252759E+04   4.85371321E+04   9.31158430E+00   3.47616935E+02   2.26314482E+02   5.62833968E-05   5.85154560E-05   2.35706937E-05
   1.73250000E+03   5.00000000E-01   5.00000000E-01   3.45709095E+04   4.79105366E+04   2.31091333E+06   2.00607176E+04   1.76162974E+04   1.21148843E+05   2.93594434E+04   1.16250406E+05   1.49742681E+04   3.20335080E-01   2.43906227E+04   4.73250179E+04   4.85371321E+04   2.84798112E+01   3.47616925E+02   2.26314788E+02   5.62833968E-05   5.85154424E-05   2.35705879E-05
   1.76750000E+03   5.00000000E-01   5.00000000E-01   3.45713290E+04   4.79111282E+04   2.35040737E+06   2.00607179E+04   1.76162958E+04   1.21148973E+05   2.93265487E+04   1.13818892E+05   1.66722154E+04   2.79940545E-01   2.43783860E+04   4.73248289E+04   4.85371321E+04   8.99771720E+01   3.47616974E+02   2.26315094E+02   5.62833968E-05   5.85154303E-05   2.35704851E-05
   1.80250000E+03   5.00000000E-01   5.00000000E-01   3.45717504E+04   4.79123207E+04   2.38564797E+06   2.00607181E+04   1.76162942E+04   1.21149121E+05   2.92957869E+04   1.11571579E+05   1.82607205E+04   2.45360140E-01   2.43626959E+04   4.73247750E+04   4.85371321E+04   2.73404811E+02   3.47617026E+02   2.26315389E+02   5.62833968E-05   5.85154194E-05   2.35703856E-05
   1.83750000E+03   5.00000000E-01   5.00000000E-01   3.45721529E+04   4.79145289E+04   2.41585875E+06   2.00607184E+04   1.76162928E+04   1.21149286E+05   2.92673797E+04   1.09454520E+05   1.97651339E+04   2.15952936E-01   2.43445753E+04   4.73250501E+04   4.85371321E+04   6.88936877E+02   3.47617048E+02   2.26315648E+02   5.62833968E-05   5.85154097E-05   2.35702896E-05
   1.87250000E+03   5.00000000E-01   5.00000000E-01   3.45725158E+04   4.79178662E+04   2.44150519E+06   2.00607187E+04   1.76162916E+04   1.21149469E+05   2.92414382E+04   1.07401575E+05   2.12112176E+04   1.91011441E-01   2.43248076E+04   4.73257711E+04   4.85371321E+04   1.27321928E+03   3.47617055E+02   2.26315846E+02   5.62833968E-05   5.85154011E-05   2.35701973E-05
   1.90750000E+03   5.00000000E-01   5.00000000E-01   3.45728441E+04   4.79220696E+04   2.46519482E+06   2.00607190E+04   1.76162904E+04   1.21149668E+05   2.92178563E+04   1.05352190E+05   2.26131392E+04   1.69773076E-01   2.43038270E+04   4.73264814E+04   4.85371321E+04   1.77929782E+03   3.47617064E+02   2.26315990E+02   5.62833968E-05   5.85153933E-05   2.35701085E-05
   1.94250000E+03   5.00000000E-01   5.00000000E-01   3.45731576E+04   4.79268299E+04   2.48876749E+06   2.00607193E+04   1.76162893E+04   1.21149888E+05   2.91964281E+04   1.03302648E+05   2.39652579E+04   1.51549495E-01   2.42817323E+04   4.73267178E+04   4.85371321E+04   2.07686445E+03   3.47617073E+02   2.26316103E+02   5.62833968E-05   5.85153863E-05   2.35700225E-05
   1.97750000E+03   5.00000000E-01   5.00000000E-01   3.45734664E+04   4.79320382E+04   2.51197584E+06   2.00607195E+04   1.76162883E+04   1.21150134E+05   2.91770184E+04   1.01295246E+05   2.52519553E+04   1.35820085E-01   2.42584963E+04   4.73265318E+04   4.85371321E+04   2.18901610E+03   3.47617086E+02   2.26316207E+02   5.62833968E-05   5.85153801E-05   2.35699392E-05
   2.01250000E+03   5.00000000E-01   5.00000000E-01   3.45737725E+04   4.79378878E+04   2.53365513E+06   2.00607198E+04   1.76162874E+04   1.21150410E+05   2.91596079E+04   9.93594016E+04   2.64671176E+04   1.22213208E-01   2.42341969E+04   4.73261248E+04   4.85371321E+04   2.19364162E+03   3.47617102E+02   2.26316317E+02   5.62833968E-05   5.85153745E-05   2.35698584E-05
   2.04750000E+03   5.00000000E-01   5.00000000E-01   3.45740761E+04   4.79447402E+04   2.55281256E+06   2.00607201E+04   1.76162866E+04   1.21150722E+05   2.91442349E+04   9.74940112E+04   2.76167849E+04   1.10439588E-01   2.42090330E+04   4.73256303E+04   4.85371321E+04   2.15150594E+03   3.47617113E+02   2.26316440E+02   5.62833968E-05   5.85153694E-05   2.35697801E-05
   2.08250000E+03   5.00000000E-01   5.00000000E-01   3.45743767E+04   4.79529429E+04   2.56912746E+06   2.00607204E+04   1.76162859E+04   1.21151073E+05   2.91309296E+04   9.56728478E+04   2.87148320E+04   1.00246599E-01   2.41832586E+04   4.73251141E+04   4.85371321E+04   2.08681970E+03   3.47617114E+02   2.26316579E+02   5.62833968E-05   5.85153649E-05   2.35697042E-05
   2.11750000E+03   5.00000000E-01   5.00000000E-01   3.45746732E+04   4.79627894E+04   2.58259378E+06   2.00607207E+04   1.76162853E+04   1.21151471E+05   2.91197006E+04   9.38666336E+04   2.97750187E+04   9.14090775E-02   2.41571158E+04   4.73246069E+04   4.85371321E+04   2.00431712E+03   3.47617107E+02   2.26316738E+02   5.62833968E-05   5.85153609E-05   2.35696308E-05
   2.15250000E+03   5.00000000E-01   5.00000000E-01   3.45749652E+04   4.79745335E+04   2.59322152E+06   2.00607210E+04   1.76162850E+04   1.21151922E+05   2.91105554E+04   9.20474180E+04   3.08103675E+04   8.37348032E-02   2.41308626E+04   4.73241241E+04   4.85371321E+04   1.91056857E+03   3.47617093E+02   2.26316918E+02   5.62833968E-05   5.85153572E-05   2.35695598E-05
   2.18750000E+03   5.00000000E-01   5.00000000E-01   3.45752523E+04   4.79883742E+04   2.60098821E+06   2.00607214E+04   1.76162848E+04   1.21152433E+05   2.91035091E+04   9.01870414E+04   3.18340219E+04   7.70629434E-02   2.41047893E+04   4.73236742E+04   4.85371321E+04   1.81857369E+03   3.47617073E+02   2.26317119E+02   5.62833968E-05   5.85153540E-05   2.35694911E-05
   2.22250000E+03   5.00000000E-01   5.00000000E-01   3.45755352E+04   4.80044388E+04   2.60589601E+06   2.00607217E+04   1.76162848E+04   1.21153010E+05   2.90985673E+04   8.82650593E+04   3.28554805E+04   7.12543849E-02   2.40791396E+04   4.73232610E+04   4.85371321E+04   1.73408422E+03   3.47617046E+02   2.26317337E+02   5.62833968E-05   5.85153510E-05   2.35694247E-05
   2.25750000E+03   5.00000000E-01   5.00000000E-01   3.45758148E+04   4.80227947E+04   2.60805009E+06   2.00607220E+04   1.76162850E+04   1.21153661E+05   2.90957133E+04   8.62660017E+04   3.38817552E+04   6.61853287E-02   2.40540338E+04   4.73228860E+04   4.85371321E+04   1.65606255E+03   3.47617013E+02   2.26317568E+02   5.62833968E-05   5.85153484E-05   2.35693604E-05
   2.29250000E+03   5.00000000E-01   5.00000000E-01   3.45760928E+04   4.80434650E+04   2.60755046E+06   2.00607224E+04   1.76162853E+04   1.21154395E+05   2.90948874E+04   8.41924202E+04   3.49123306E+04   6.17391727E-02   2.40293484E+04   4.73225483E+04   4.85371321E+04   1.57389269E+03   3.47616973E+02   2.26317814E+02   5.62833968E-05   5.85153460E-05   2.35692983E-05
   2.32750000E+03   5.00000000E-01   5.00000000E-01   3.45763710E+04   4.80664291E+04   2.60436489E+06   2.00607228E+04   1.76162859E+04   1.21155227E+05   2.90960203E+04   8.20633845E+04   3.59397947E+04   5.78154181E-02   2.40049043E+04   4.73222453E+04   4.85371321E+04   1.47919437E+03   3.47616927E+02   2.26318083E+02   5.62833968E-05   5.85153438E-05   2.35692381E-05
   2.36250000E+03   5.00000000E-01   5.00000000E-01   3.45766515E+04   4.80915823E+04   2.59842570E+06   2.00607232E+04   1.76162866E+04   1.21156175E+05   2.90990904E+04   7.98911252E+04   3.69589459E+04   5.43420429E-02   2.39807931E+04   4.73219735E+04   4.85371321E+04   1.37911927E+03   3.47616875E+02   2.26318385E+02   5.62833968E-05   5.85153419E-05   2.35691798E-05
   2.39750000E+03   5.00000000E-01   5.00000000E-01   3.45769366E+04   4.81187000E+04   2.58978151E+06   2.00607236E+04   1.76162874E+04   1.21157256E+05   2.91041067E+04   7.76815954E+04   3.79660060E+04   5.12660033E-02   2.39572890E+04   4.73217286E+04   4.85371321E+04   1.28483865E+03   3.47616816E+02   2.26318724E+02   5.62833968E-05   5.85153401E-05   2.35691234E-05
   2.43250000E+03   5.00000000E-01   5.00000000E-01   3.45772285E+04   4.81474573E+04   2.57863697E+06   2.00607240E+04   1.76162883E+04   1.21158489E+05   2.91110497E+04   7.54484244E+04   3.89532062E+04   4.85364091E-02   2.39345131E+04   4.73215061E+04   4.85371321E+04   1.19925919E+03   3.47616750E+02   2.26319098E+02   5.62833968E-05   5.85153385E-05   2.35690689E-05
   2.46750000E+03   5.00000000E-01   5.00000000E-01   3.45775297E+04   4.81774872E+04   2.56529877E+06   2.00607244E+04   1.76162894E+04   1.21159897E+05   2.91198378E+04   7.32165838E+04   3.99082748E+04   4.60969902E-02   2.39122143E+04   4.73213013E+04   4.85371321E+04   1.11745590E+03   3.47616676E+02   2.26319511E+02   5.62833968E-05   5.85153371E-05   2.35690162E-05
   2.50250000E+03   5.00000000E-01   5.00000000E-01   3.45778424E+04   4.82083923E+04   2.55002752E+06   2.00607249E+04   1.76162905E+04   1.21161508E+05   2.91303653E+04   7.10163757E+04   4.08172669E+04   4.38952824E-02   2.38899912E+04   4.73211101E+04   4.85371321E+04   1.03707012E+03   3.47616593E+02   2.26319966E+02   5.62833968E-05   5.85153357E-05   2.35689651E-05
   2.53750000E+03   5.00000000E-01   5.00000000E-01   3.45781692E+04   4.82397133E+04   2.53294068E+06   2.00607253E+04   1.76162916E+04   1.21163354E+05   2.91425659E+04   6.88805798E+04   4.16648687E+04   4.18946813E-02   2.38676967E+04   4.73209286E+04   4.85371321E+04   9.62276616E+02   3.47616500E+02   2.26320470E+02   5.62833968E-05   5.85153345E-05   2.35689157E-05
   2.57250000E+03   5.00000000E-01   5.00000000E-01   3.45785125E+04   4.82709401E+04   2.51408500E+06   2.00607258E+04   1.76162927E+04   1.21165467E+05   2.91564221E+04   6.68449509E+04   4.24334522E+04   4.00729138E-02   2.38454869E+04   4.73207536E+04   4.85371321E+04   8.97923972E+02   3.47616397E+02   2.26321019E+02   5.62833968E-05   5.85153333E-05   2.35688679E-05
   2.60750000E+03   5.00000000E-01   5.00000000E-01   3.45788753E+04   4.83015799E+04   2.49354472E+06   2.00607263E+04   1.76162938E+04   1.21167879E+05   2.91719333E+04   6.49458132E+04   4.31044501E+04   3.84125809E-02   2.38235707E+04   4.73205824E+04   4.85371321E+04   8.44903563E+02   3.47616280E+02   2.26321608E+02   5.62833968E-05   5.85153323E-05   2.35688217E-05
   2.64250000E+03   5.00000000E-01   5.00000000E-01   3.45792607E+04   4.83312317E+04   2.47147328E+06   2.00607268E+04   1.76162948E+04   1.21170623E+05   2.91890849E+04   6.32147605E+04   4.36615290E+04   3.68944988E-02   2.38019812E+04   4.73204135E+04   4.85371321E+04   8.00375923E+02   3.47616151E+02   2.26322230E+02   5.62833968E-05   5.85153313E-05   2.35687770E-05
   2.67750000E+03   5.00000000E-01   5.00000000E-01   3.45796720E+04   4.83596214E+04   2.44807093E+06   2.00607274E+04   1.76162958E+04   1.21173736E+05   2.92078379E+04   6.16733894E+04   4.40935421E+04   3.54964694E-02   2.37805061E+04   4.73202461E+04   4.85371321E+04   7.60509155E+02   3.47616008E+02   2.26322880E+02   5.62833968E-05   5.85153304E-05   2.35687340E-05
   2.71250000E+03   5.00000000E-01   5.00000000E-01   3.45801132E+04   4.83865787E+04   2.42353086E+06   2.00607279E+04   1.76162967E+04   1.21177264E+05   2.92281385E+04   6.03323246E+04   4.43950605E+04   3.41960599E-02   2.37587778E+04   4.73200807E+04   4.85371321E+04   7.23142596E+02   3.47615851E+02   2.26323555E+02   5.62833968E-05   5.85153296E-05   2.35686924E-05