 TITLE = "Mineral Area" 
VARIABLES = "X"          "Y"              "Z"            "Forsterite"     "Enstatite(alph" "Anorthite"      "Ferropargasite" "Anhydrite"      "Clinochlore"    "Albite(low)"    "Fayalite"       "Epidote"        "Kaolinite"      "Muscovite(orde" "Sudoite"        "Saponite(Mg)"   "Scolecite"      "Pyrite"         "Quartz(alpha)" 
 ZONE I=         100 , J=           1 , K=           1  F=POINT
   1.75000000E+01   5.00000000E-01   5.00000000E-01   9.96715025E-02   9.99687188E-02   9.78924143E-02   9.91612189E-02   0.00000000E+00   2.55517030E+05   8.93906356E-02   9.65475289E-02   1.00000000E-01   8.04555598E-02   1.27798179E+04   0.00000000E+00   1.49866015E+04   0.00000000E+00   0.00000000E+00   3.01602138E+02
   5.25000000E+01   5.00000000E-01   5.00000000E-01   9.96715025E-02   9.99687196E-02   9.78924143E-02   9.91612189E-02   0.00000000E+00   1.50532784E+05   9.18421370E-02   9.65477642E-02   9.99999987E-02   8.05390515E-02   1.45791232E+04   0.00000000E+00   1.50831237E+04   0.00000000E+00   0.00000000E+00   3.60237965E+02
   8.75000000E+01   5.00000000E-01   5.00000000E-01   9.96715025E-02   9.99687208E-02   9.78924143E-02   9.91612189E-02   0.00000000E+00   1.09555210E+05   9.30433433E-02   9.65480961E-02   9.99999985E-02   8.05733852E-02   1.41785590E+04   0.00000000E+00   1.73254634E+04   0.00000000E+00   0.00000000E+00   3.88073312E+02
   1.22500000E+02   5.00000000E-01   5.00000000E-01   9.96715025E-02   9.99687221E-02   9.78924143E-02   9.91612189E-02   0.00000000E+00   9.03059018E+04   9.36983817E-02   9.65485120E-02   9.99999986E-02   8.06030256E-02   1.37472666E+04   0.00000000E+00   1.82653039E+04   0.00000000E+00   0.00000000E+00   4.01632738E+02
   1.57500000E+02   5.00000000E-01   5.00000000E-01   9.96715025E-02   9.99687235E-02   9.78924143E-02   9.91612189E-02   0.00000000E+00   8.01603971E+04   9.40615428E-02   9.65490009E-02   9.99999987E-02   8.06345064E-02   1.34500692E+04   0.00000000E+00   1.88020567E+04   0.00000000E+00   0.00000000E+00   4.07463610E+02
   1.92500000E+02   5.00000000E-01   5.00000000E-01   9.96715025E-02   9.99687249E-02   9.78924143E-02   9.91612189E-02   0.00000000E+00   7.46066689E+04   9.42542194E-02   9.65495521E-02   9.99999988E-02   8.06693200E-02   1.32730365E+04   0.00000000E+00   1.91843996E+04   0.00000000E+00   0.00000000E+00   4.08740227E+02
   2.27500000E+02   5.00000000E-01   5.00000000E-01   9.96715025E-02   9.99687264E-02   9.78924143E-02   9.91612189E-02   0.00000000E+00   7.16639785E+04   9.43408452E-02   9.65501552E-02   9.99999989E-02   8.07078233E-02   1.31846130E+04   0.00000000E+00   1.94994464E+04   0.00000000E+00   0.00000000E+00   4.07190928E+02
   2.62500000E+02   5.00000000E-01   5.00000000E-01   9.96715025E-02   9.99687280E-02   9.78924143E-02   9.91612189E-02   0.00000000E+00   7.03338229E+04   9.43582561E-02   9.65508002E-02   9.99999990E-02   8.07500927E-02   1.31586850E+04   0.00000000E+00   1.97833445E+04   0.00000000E+00   0.00000000E+00   4.03827781E+02
   2.97500000E+02   5.00000000E-01   5.00000000E-01   9.96715025E-02   9.99687296E-02   9.78924143E-02   9.91612189E-02   0.00000000E+00   7.00627765E+04   9.43286959E-02   9.65514774E-02   9.99999991E-02   8.07961473E-02   1.31763579E+04   0.00000000E+00   2.00530087E+04   0.00000000E+00   0.00000000E+00   3.99272939E+02
   3.32500000E+02   5.00000000E-01   5.00000000E-01   9.96715025E-02   9.99687313E-02   9.78924143E-02   9.91612189E-02   0.00000000E+00   7.05218322E+04   9.42662337E-02   9.65521780E-02   9.99999992E-02   8.08460105E-02   1.32243617E+04   0.00000000E+00   2.03168765E+04   0.00000000E+00   0.00000000E+00   3.93923511E+02
   3.67500000E+02   5.00000000E-01   5.00000000E-01   9.96715025E-02   9.99687331E-02   9.78924143E-02   9.91612189E-02   0.00000000E+00   7.15054931E+04   9.41800729E-02   9.65528934E-02   9.99999994E-02   8.08997244E-02   1.32934155E+04   0.00000000E+00   2.05793846E+04   0.00000000E+00   0.00000000E+00   3.88039521E+02
   4.02500000E+02   5.00000000E-01   5.00000000E-01   9.96715025E-02   9.99687349E-02   9.78924143E-02   9.91612189E-02   0.00000000E+00   7.28804419E+04   9.40764395E-02   9.65536161E-02   9.99999995E-02   8.09573491E-02   1.33769700E+04   0.00000000E+00   2.08426772E+04   0.00000000E+00   0.00000000E+00   3.81795775E+02
   4.37500000E+02   5.00000000E-01   5.00000000E-01   9.96715025E-02   9.99687367E-02   9.78924143E-02   9.91612189E-02   0.00000000E+00   7.45581310E+04   9.39596655E-02   9.65543390E-02   9.99999997E-02   8.10189555E-02   1.34703341E+04   0.00000000E+00   2.11075180E+04   0.00000000E+00   0.00000000E+00   3.75312879E+02
   4.72500000E+02   5.00000000E-01   5.00000000E-01   9.96715025E-02   9.99687386E-02   9.78924144E-02   9.91612189E-02   0.00000000E+00   7.64775789E+04   9.38328747E-02   9.65550558E-02   1.00000000E-01   8.10846219E-02   1.35700825E+04   0.00000000E+00   2.13737884E+04   0.00000000E+00   0.00000000E+00   3.68676175E+02
   5.07500000E+02   5.00000000E-01   5.00000000E-01   9.96715025E-02   9.99687406E-02   9.78924144E-02   9.91612189E-02   0.00000000E+00   7.85952427E+04   9.36984112E-02   9.65557608E-02   1.00000000E-01   8.11544312E-02   1.36736542E+04   0.00000000E+00   2.16407450E+04   0.00000000E+00   0.00000000E+00   3.61947716E+02
   5.42500000E+02   5.00000000E-01   5.00000000E-01   9.96715025E-02   9.99687427E-02   9.78924144E-02   9.91612189E-02   3.72201961E-02   8.09449629E+04   9.35553774E-02   9.65564766E-02   1.00000000E-01   8.12283110E-02   1.37795469E+04   0.00000000E+00   2.19183766E+04   0.00000000E+00   0.00000000E+00   3.55092522E+02
   5.77500000E+02   5.00000000E-01   5.00000000E-01   9.96715025E-02   9.99687448E-02   9.78924145E-02   9.91612189E-02   1.23753191E-01   8.37610496E+04   9.33952063E-02   9.65573184E-02   9.99999983E-02   8.13056552E-02   1.38880553E+04   0.00000000E+00   2.22393437E+04   0.00000000E+00   0.00000000E+00   3.47841957E+02
   6.12500000E+02   5.00000000E-01   5.00000000E-01   9.96715025E-02   9.99687470E-02   9.78924145E-02   9.91612189E-02   1.40241598E-01   8.67552861E+04   9.32324732E-02   9.65581987E-02   9.99999980E-02   8.13872839E-02   1.39985826E+04   0.00000000E+00   2.25129850E+04   0.00000000E+00   0.00000000E+00   3.40582612E+02
   6.47500000E+02   5.00000000E-01   5.00000000E-01   9.96715025E-02   9.99687493E-02   9.78924146E-02   9.91612189E-02   1.41950225E-01   8.98270134E+04   9.30699525E-02   9.65590923E-02   9.99999979E-02   8.14731479E-02   1.41059661E+04   0.00000000E+00   2.27679862E+04   0.00000000E+00   0.00000000E+00   3.33422572E+02
   6.82500000E+02   5.00000000E-01   5.00000000E-01   9.96715025E-02   9.99687516E-02   9.78924146E-02   9.91612189E-02   1.41608937E-01   9.29510990E+04   9.29084022E-02   9.65599927E-02   9.99999977E-02   8.15632606E-02   1.42087090E+04   0.00000000E+00   2.30125022E+04   0.00000000E+00   0.00000000E+00   3.26383592E+02
   7.17500000E+02   5.00000000E-01   5.00000000E-01   9.96715025E-02   9.99687540E-02   9.78924147E-02   9.91612189E-02   1.40888248E-01   9.61126722E+04   9.27485453E-02   9.65608962E-02   9.99999975E-02   8.16576918E-02   1.43064135E+04   0.00000000E+00   2.32454050E+04   0.00000000E+00   0.00000000E+00   3.19476947E+02
   7.52500000E+02   5.00000000E-01   5.00000000E-01   9.96715025E-02   9.99687565E-02   9.78924148E-02   9.91612189E-02   1.40080089E-01   9.92965110E+04   9.25911285E-02   9.65617995E-02   9.99999974E-02   8.17565252E-02   1.43988972E+04   0.00000000E+00   2.34642376E+04   0.00000000E+00   0.00000000E+00   3.12713076E+02
   7.87500000E+02   5.00000000E-01   5.00000000E-01   9.96715025E-02   9.99687590E-02   9.78924148E-02   9.91612189E-02   1.39238140E-01   1.02404488E+05   9.24337792E-02   9.65626996E-02   9.99999972E-02   8.18582448E-02   1.44714530E+04   2.68663350E+02   2.36677604E+04   0.00000000E+00   0.00000000E+00   3.06122268E+02
   8.22500000E+02   5.00000000E-01   5.00000000E-01   9.96715025E-02   9.99687617E-02   9.78924149E-02   9.91612189E-02   1.38375319E-01   1.05500564E+05   9.22816476E-02   9.65635914E-02   9.99999970E-02   8.19647959E-02   1.45425393E+04   3.87855246E+02   2.38539654E+04   0.00000000E+00   0.00000000E+00   2.99703238E+02
   8.57500000E+02   5.00000000E-01   5.00000000E-01   9.96715025E-02   9.99687644E-02   9.78924150E-02   9.91612189E-02   1.37497412E-01   1.08543615E+05   9.21342223E-02   9.65644712E-02   9.99999968E-02   8.20757917E-02   1.46076915E+04   5.00795003E+02   2.40184879E+04   0.00000000E+00   0.00000000E+00   2.93467534E+02
   8.92500000E+02   5.00000000E-01   5.00000000E-01   9.96715025E-02   9.99687672E-02   9.78924152E-02   9.91612189E-02   1.36608714E-01   1.11509694E+05   9.19921699E-02   9.65653347E-02   9.99999967E-02   8.21913433E-02   1.46671744E+04   6.11687102E+02   2.41596105E+04   0.00000000E+00   0.00000000E+00   2.87425848E+02
   9.27500000E+02   5.00000000E-01   5.00000000E-01   9.96715025E-02   9.99687700E-02   9.78924153E-02   9.91612189E-02   1.35712959E-01   1.14373714E+05   9.18561434E-02   9.65661773E-02   9.99999966E-02   8.23115933E-02   1.47214104E+04   7.22509909E+02   2.42752860E+04   0.00000000E+00   0.00000000E+00   2.81588643E+02
   9.62500000E+02   5.00000000E-01   5.00000000E-01   9.96715025E-02   9.99687730E-02   9.78924154E-02   9.91612189E-02   1.34813480E-01   1.17109867E+05   9.17267518E-02   9.65669942E-02   9.99999964E-02   8.24367146E-02   1.47709184E+04   8.34356862E+02   2.43637175E+04   0.00000000E+00   0.00000000E+00   2.75965811E+02
   9.97500000E+02   5.00000000E-01   5.00000000E-01   9.96715025E-02   9.99687760E-02   9.78924156E-02   9.91612189E-02   1.33913261E-01   1.19692316E+05   9.16045461E-02   9.65677804E-02   9.99999963E-02   8.25669119E-02   1.48162977E+04   9.47882536E+02   2.44233993E+04   0.00000000E+00   0.00000000E+00   2.70566346E+02
   1.03250000E+03   5.00000000E-01   5.00000000E-01   9.96715026E-02   9.99687791E-02   9.78924158E-02   9.91612189E-02   1.33014963E-01   1.22095929E+05   9.14900061E-02   9.65685308E-02   9.99999962E-02   8.27024226E-02   1.48582052E+04   1.06349144E+03   2.44531477E+04   0.00000000E+00   0.00000000E+00   2.65398056E+02
   1.06750000E+03   5.00000000E-01   5.00000000E-01   9.96715026E-02   9.99687823E-02   9.78924160E-02   9.91612189E-02   1.32120950E-01   1.24297032E+05   9.13835290E-02   9.65692404E-02   9.99999960E-02   8.28435156E-02   1.48973278E+04   1.18143148E+03   2.44521285E+04   0.00000000E+00   0.00000000E+00   2.60467301E+02
   1.10250000E+03   5.00000000E-01   5.00000000E-01   9.96715026E-02   9.99687856E-02   9.78924163E-02   9.91612189E-02   1.31233309E-01   1.26274151E+05   9.12854207E-02   9.65699040E-02   9.99999958E-02   8.29904879E-02   1.49343521E+04   1.30184553E+03   2.44198800E+04   0.00000000E+00   0.00000000E+00   2.55778768E+02
   1.13750000E+03   5.00000000E-01   5.00000000E-01   9.96715026E-02   9.99687890E-02   9.78924165E-02   9.91612189E-02   1.30353875E-01   1.28008716E+05   9.11958881E-02   9.65705171E-02   9.99999955E-02   8.31436596E-02   1.49699319E+04   1.42480255E+03   2.43563328E+04   0.00000000E+00   0.00000000E+00   2.51335283E+02
   1.17250000E+03   5.00000000E-01   5.00000000E-01   9.96715026E-02   9.99687924E-02   9.78924168E-02   9.91612189E-02   1.29484251E-01   1.29485681E+05   9.11150346E-02   9.65710751E-02   9.99999952E-02   8.33033666E-02   1.50046577E+04   1.55031789E+03   2.42618242E+04   0.00000000E+00   0.00000000E+00   2.47137666E+02
   1.20750000E+03   5.00000000E-01   5.00000000E-01   9.96715027E-02   9.99687959E-02   9.78924171E-02   9.91612189E-02   1.28625828E-01   1.30694052E+05   9.10428567E-02   9.65715741E-02   9.99999949E-02   8.34699518E-02   1.50390281E+04   1.67836682E+03   2.41371072E+04   0.00000000E+00   0.00000000E+00   2.43184624E+02
   1.24250000E+03   5.00000000E-01   5.00000000E-01   9.96715027E-02   9.99687996E-02   9.78924175E-02   9.91612189E-02   1.27779804E-01   1.31627266E+05   9.09792440E-02   9.65720107E-02   9.99999944E-02   8.36437550E-02   1.50734278E+04   1.80889496E+03   2.39833523E+04   0.00000000E+00   0.00000000E+00   2.39472714E+02
   1.27750000E+03   5.00000000E-01   5.00000000E-01   9.96715028E-02   9.99688033E-02   9.78924179E-02   9.91612189E-02   1.26947200E-01   1.32283427E+05   9.09239812E-02   9.65723821E-02   9.99999939E-02   8.38251027E-02   1.51081111E+04   1.94182592E+03   2.38021404E+04   0.00000000E+00   0.00000000E+00   2.35996341E+02
   1.31250000E+03   5.00000000E-01   5.00000000E-01   9.96715029E-02   9.99688071E-02   9.78924183E-02   9.91612189E-02   1.26128877E-01   1.32665350E+05   9.08767523E-02   9.65726862E-02   9.99999933E-02   8.40142978E-02   1.51431941E+04   2.07706802E+03   2.35954459E+04   0.00000000E+00   0.00000000E+00   2.32747819E+02
   1.34750000E+03   5.00000000E-01   5.00000000E-01   9.96715030E-02   9.99688110E-02   9.78924188E-02   9.91612189E-02   1.25325554E-01   1.32780438E+05   9.08371479E-02   9.65729216E-02   9.99999926E-02   8.42116091E-02   1.51786554E+04   2.21452038E+03   2.33656090E+04   0.00000000E+00   0.00000000E+00   2.29717494E+02
   1.38250000E+03   5.00000000E-01   5.00000000E-01   9.96715032E-02   9.99688150E-02   9.78924193E-02   9.91612189E-02   1.24537815E-01   1.32640378E+05   9.08046747E-02   9.65730880E-02   9.99999917E-02   8.44172639E-02   1.52143443E+04   2.35407841E+03   2.31152947E+04   0.00000000E+00   0.00000000E+00   2.26893928E+02
   1.41750000E+03   5.00000000E-01   5.00000000E-01   9.96715034E-02   9.99688190E-02   9.78924198E-02   9.91612189E-02   1.23766129E-01   1.32260690E+05   9.07787669E-02   9.65731854E-02   9.99999906E-02   8.46314410E-02   1.52499966E+04   2.49563935E+03   2.28474414E+04   0.00000000E+00   0.00000000E+00   2.24264133E+02
   1.45250000E+03   5.00000000E-01   5.00000000E-01   9.96715037E-02   9.99688232E-02   9.78924204E-02   9.91612189E-02   1.23010856E-01   1.31660130E+05   9.07587997E-02   9.65732150E-02   9.99999893E-02   8.48542664E-02   1.52852556E+04   2.63910743E+03   2.25651973E+04   0.00000000E+00   0.00000000E+00   2.21813850E+02
   1.48750000E+03   5.00000000E-01   5.00000000E-01   9.96715042E-02   9.99688275E-02   9.78924211E-02   9.91612189E-02   1.22272263E-01   1.30860014E+05   9.07441041E-02   9.65731781E-02   9.99999877E-02   8.50858119E-02   1.53196968E+04   2.78439885E+03   2.22718494E+04   0.00000000E+00   0.00000000E+00   2.19527861E+02
   1.52250000E+03   5.00000000E-01   5.00000000E-01   9.96715048E-02   9.99688319E-02   9.78924218E-02   9.91612189E-02   1.21550532E-01   1.29883472E+05   9.07339822E-02   9.65730772E-02   9.99999857E-02   8.53260950E-02   1.53528541E+04   2.93144601E+03   2.19707472E+04   0.00000000E+00   0.00000000E+00   2.17390321E+02
   1.55750000E+03   5.00000000E-01   5.00000000E-01   9.96715056E-02   9.99688363E-02   9.78924226E-02   9.91612189E-02   1.20845766E-01   1.28754695E+05   9.07277227E-02   9.65729149E-02   9.99999833E-02   8.55750821E-02   1.53842451E+04   3.08020097E+03   2.16652240E+04   0.00000000E+00   0.00000000E+00   2.15385097E+02
   1.59250000E+03   5.00000000E-01   5.00000000E-01   9.96715066E-02   9.99688409E-02   9.78924234E-02   9.91612189E-02   1.20158003E-01   1.27498205E+05   9.07246163E-02   9.65726943E-02   9.99999803E-02   8.58326920E-02   1.54133945E+04   3.23063787E+03   2.13585228E+04   0.00000000E+00   0.00000000E+00   2.13496091E+02
   1.62750000E+03   5.00000000E-01   5.00000000E-01   9.96715079E-02   9.99688456E-02   9.78924243E-02   9.91612189E-02   1.19487223E-01   1.26138194E+05   9.07239692E-02   9.65724190E-02   9.99999765E-02   8.60988021E-02   1.54398530E+04   3.38275398E+03   2.10537268E+04   0.00000000E+00   0.00000000E+00   2.11707550E+02
   1.66250000E+03   5.00000000E-01   5.00000000E-01   9.96715095E-02   9.99688504E-02   9.78924252E-02   9.91612189E-02   1.18833352E-01   1.24697941E+05   9.07251158E-02   9.65720926E-02   9.99999719E-02   8.63732535E-02   1.54632124E+04   3.53656964E+03   2.07537015E+04   0.00000000E+00   0.00000000E+00   2.10004329E+02
   1.69750000E+03   5.00000000E-01   5.00000000E-01   9.96715114E-02   9.99688553E-02   9.78924263E-02   9.91612189E-02   1.18196271E-01   1.23199349E+05   9.07274286E-02   9.65717188E-02   9.99999661E-02   8.66558578E-02   1.54831152E+04   3.69212676E+03   2.04610486E+04   0.00000000E+00   0.00000000E+00   2.08372119E+02
   1.73250000E+03   5.00000000E-01   5.00000000E-01   9.96715137E-02   9.99688603E-02   9.78924274E-02   9.91612189E-02   1.17575825E-01   1.21662586E+05   9.07303270E-02   9.65713018E-02   9.99999589E-02   8.69464022E-02   1.54992602E+04   3.84948638E+03   2.01780743E+04   0.00000000E+00   0.00000000E+00   2.06797618E+02
   1.76750000E+03   5.00000000E-01   5.00000000E-01   9.96715163E-02   9.99688654E-02   9.78924285E-02   9.91612189E-02   1.16971824E-01   1.20105844E+05   9.07332822E-02   9.65708453E-02   9.99999499E-02   8.72446552E-02   1.55114032E+04   4.00872526E+03   1.99067713E+04   0.00000000E+00   0.00000000E+00   2.05268662E+02
   1.80250000E+03   5.00000000E-01   5.00000000E-01   9.96715192E-02   9.99688706E-02   9.78924298E-02   9.91612189E-02   1.16384052E-01   1.18545211E+05   9.07358217E-02   9.65703533E-02   9.99999388E-02   8.75503703E-02   1.55193551E+04   4.16993188E+03   1.96488148E+04   0.00000000E+00   0.00000000E+00   2.03774297E+02
   1.83750000E+03   5.00000000E-01   5.00000000E-01   9.96715224E-02   9.99688759E-02   9.78924311E-02   9.91612189E-02   1.15812270E-01   1.16994626E+05   9.07375303E-02   9.65698296E-02   9.99999252E-02   8.78632895E-02   1.55229774E+04   4.33320218E+03   1.94055701E+04   0.00000000E+00   0.00000000E+00   2.02304815E+02
   1.87250000E+03   5.00000000E-01   5.00000000E-01   9.96715259E-02   9.99688814E-02   9.78924325E-02   9.91612189E-02   1.15256222E-01   1.15465921E+05   9.07380503E-02   9.65692780E-02   9.99999085E-02   8.81831453E-02   1.55221754E+04   4.49863516E+03   1.91781104E+04   0.00000000E+00   0.00000000E+00   2.00851743E+02
   1.90750000E+03   5.00000000E-01   5.00000000E-01   9.96715296E-02   9.99688870E-02   9.78924340E-02   9.91612189E-02   1.14715637E-01   1.13968916E+05   9.07370792E-02   9.65687021E-02   9.99998882E-02   8.85096621E-02   1.55168915E+04   4.66632872E+03   1.89672420E+04   0.00000000E+00   0.00000000E+00   1.99407804E+02
   1.94250000E+03   5.00000000E-01   5.00000000E-01   9.96715335E-02   9.99688927E-02   9.78924356E-02   9.91612189E-02   1.14190234E-01   1.12511568E+05   9.07343674E-02   9.65681054E-02   9.99998638E-02   8.88425565E-02   1.55070978E+04   4.83637574E+03   1.87735349E+04   0.00000000E+00   0.00000000E+00   1.97966855E+02
   1.97750000E+03   5.00000000E-01   5.00000000E-01   9.96715377E-02   9.99688985E-02   9.78924373E-02   9.91612189E-02   1.13679724E-01   1.11100138E+05   9.07297138E-02   9.65674914E-02   9.99998345E-02   8.91815373E-02   1.54927893E+04   5.00886078E+03   1.85973563E+04   0.00000000E+00   0.00000000E+00   1.96523799E+02
   2.01250000E+03   5.00000000E-01   5.00000000E-01   9.96715421E-02   9.99689045E-02   9.78924391E-02   9.91612189E-02   1.13183813E-01   1.09739383E+05   9.07229619E-02   9.65668631E-02   9.99997995E-02   8.95263048E-02   1.54739771E+04   5.18385715E+03   1.84389054E+04   0.00000000E+00   0.00000000E+00   1.95074493E+02
   2.04750000E+03   5.00000000E-01   5.00000000E-01   9.96715467E-02   9.99689106E-02   9.78924409E-02   9.91612189E-02   1.12702206E-01   1.08432742E+05   9.07139948E-02   9.65662238E-02   9.99997580E-02   8.98765495E-02   1.54506836E+04   5.36142469E+03   1.82982475E+04   0.00000000E+00   0.00000000E+00   1.93615641E+02
   2.08250000E+03   5.00000000E-01   5.00000000E-01   9.96715514E-02   9.99689168E-02   9.78924429E-02   9.91612189E-02   1.12234605E-01   1.07182533E+05   9.07027305E-02   9.65655764E-02   9.99997092E-02   9.02319510E-02   1.54229372E+04   5.54160801E+03   1.81753467E+04   0.00000000E+00   0.00000000E+00   1.92144694E+02
   2.11750000E+03   5.00000000E-01   5.00000000E-01   9.96715562E-02   9.99689231E-02   9.78924450E-02   9.91612189E-02   1.11780713E-01   1.05990130E+05   9.06891171E-02   9.65649237E-02   9.99996521E-02   9.05921764E-02   1.53907693E+04   5.72443532E+03   1.80700958E+04   0.00000000E+00   0.00000000E+00   1.90659744E+02
   2.15250000E+03   5.00000000E-01   5.00000000E-01   9.96715612E-02   9.99689296E-02   9.78924471E-02   9.91612189E-02   1.11340237E-01   1.04854897E+05   9.06731279E-02   9.65642684E-02   9.99995855E-02   9.09568959E-02   1.53542343E+04   5.90993281E+03   1.79824518E+04   0.00000000E+00   0.00000000E+00   1.89159388E+02
   2.18750000E+03   5.00000000E-01   5.00000000E-01   9.96715663E-02   9.99689363E-02   9.78924494E-02   9.91612189E-02   1.10912886E-01   1.03777042E+05   9.06547570E-02   9.65636129E-02   9.99995085E-02   9.13257441E-02   1.53133551E+04   6.09809958E+03   1.79121977E+04   0.00000000E+00   0.00000000E+00   1.87642694E+02
   2.22250000E+03   5.00000000E-01   5.00000000E-01   9.96715715E-02   9.99689431E-02   9.78924518E-02   9.91612189E-02   1.10498371E-01   1.02756838E+05   9.06340158E-02   9.65629597E-02   9.99994199E-02   9.16983310E-02   1.52681413E+04   6.28890384E+03   1.78590999E+04   0.00000000E+00   0.00000000E+00   1.86109113E+02
   2.25750000E+03   5.00000000E-01   5.00000000E-01   9.96715768E-02   9.99689500E-02   9.78924543E-02   9.91612189E-02   1.10096410E-01   1.01793538E+05   9.06109298E-02   9.65623110E-02   9.99993189E-02   9.20742568E-02   1.52186105E+04   6.48230206E+03   1.78230035E+04   0.00000000E+00   0.00000000E+00   1.84558378E+02
   2.29250000E+03   5.00000000E-01   5.00000000E-01   9.96715823E-02   9.99689571E-02   9.78924569E-02   9.91612189E-02   1.09706724E-01   1.00886138E+05   9.05855352E-02   9.65616688E-02   9.99992046E-02   9.24531021E-02   1.51647761E+04   6.67823501E+03   1.78037728E+04   0.00000000E+00   0.00000000E+00   1.82990438E+02
   2.32750000E+03   5.00000000E-01   5.00000000E-01   9.96715878E-02   9.99689643E-02   9.78924595E-02   9.91612189E-02   1.09329039E-01   1.00033348E+05   9.05578756E-02   9.65610350E-02   9.99990761E-02   9.28344285E-02   1.51066489E+04   6.87662883E+03   1.78013231E+04   0.00000000E+00   0.00000000E+00   1.81405393E+02
   2.36250000E+03   5.00000000E-01   5.00000000E-01   9.96715936E-02   9.99689717E-02   9.78924623E-02   9.91612189E-02   1.08963087E-01   9.92336208E+04   9.05279996E-02   9.65604114E-02   9.99989334E-02   9.32177789E-02   1.50442381E+04   7.07739679E+03   1.78156300E+04   0.00000000E+00   0.00000000E+00   1.79803440E+02
   2.39750000E+03   5.00000000E-01   5.00000000E-01   9.96715995E-02   9.99689793E-02   9.78924652E-02   9.91612189E-02   1.08608604E-01   9.84854046E+04   9.04959587E-02   9.65597995E-02   9.99987766E-02   9.36026727E-02   1.49775476E+04   7.28043899E+03   1.78467172E+04   0.00000000E+00   0.00000000E+00   1.78184837E+02
   2.43250000E+03   5.00000000E-01   5.00000000E-01   9.96716058E-02   9.99689870E-02   9.78924682E-02   9.91612189E-02   1.08265329E-01   9.77874754E+04   9.04618052E-02   9.65592008E-02   9.99986066E-02   9.39886003E-02   1.49065714E+04   7.48563993E+03   1.78946402E+04   0.00000000E+00   0.00000000E+00   1.76549840E+02
   2.46750000E+03   5.00000000E-01   5.00000000E-01   9.96716124E-02   9.99689948E-02   9.78924713E-02   9.91612189E-02   1.07933009E-01   9.71384976E+04   9.04255914E-02   9.65586165E-02   9.99984252E-02   9.43750300E-02   1.48313027E+04   7.69287376E+03   1.79595310E+04   0.00000000E+00   0.00000000E+00   1.74898684E+02
   2.50250000E+03   5.00000000E-01   5.00000000E-01   9.96716196E-02   9.99690029E-02   9.78924745E-02   9.91612189E-02   1.07611392E-01   9.65371996E+04   9.03873678E-02   9.65580478E-02   9.99982347E-02   9.47614059E-02   1.47517319E+04   7.90200488E+03   1.80415785E+04   0.00000000E+00   0.00000000E+00   1.73231549E+02
   2.53750000E+03   5.00000000E-01   5.00000000E-01   9.96716276E-02   9.99690111E-02   9.78924779E-02   9.91612189E-02   1.07300231E-01   9.59824376E+04   9.03471826E-02   9.65574955E-02   9.99980383E-02   9.51471459E-02   1.46678466E+04   8.11288831E+03   1.81410254E+04   0.00000000E+00   0.00000000E+00   1.71548542E+02
   2.57250000E+03   5.00000000E-01   5.00000000E-01   9.96716364E-02   9.99690195E-02   9.78924813E-02   9.91612189E-02   1.06999283E-01   9.54731971E+04   9.03050803E-02   9.65569605E-02   9.99978402E-02   9.55316417E-02   1.45796319E+04   8.32537159E+03   1.82581639E+04   0.00000000E+00   0.00000000E+00   1.69849678E+02
   2.60750000E+03   5.00000000E-01   5.00000000E-01   9.96716464E-02   9.99690281E-02   9.78924848E-02   9.91612189E-02   1.06708308E-01   9.50086381E+04   9.02611020E-02   9.65564434E-02   9.99976451E-02   9.59142582E-02   1.44870701E+04   8.53929502E+03   1.83933299E+04   0.00000000E+00   0.00000000E+00   1.68134863E+02
   2.64250000E+03   5.00000000E-01   5.00000000E-01   9.96716578E-02   9.99690368E-02   9.78924884E-02   9.91612189E-02   1.06427068E-01   9.45880853E+04   9.02152846E-02   9.65559447E-02   9.99974581E-02   9.62943330E-02   1.43901425E+04   8.75449254E+03   1.85468955E+04   0.00000000E+00   0.00000000E+00   1.66403881E+02
   2.67750000E+03   5.00000000E-01   5.00000000E-01   9.96716708E-02   9.99690458E-02   9.78924920E-02   9.91612189E-02   1.06155327E-01   9.42106294E+04   9.01676604E-02   9.65554648E-02   9.99972848E-02   9.66711845E-02   1.42888355E+04   8.97079745E+03   1.87192951E+04   0.00000000E+00   0.00000000E+00   1.64656379E+02
   2.71250000E+03   5.00000000E-01   5.00000000E-01   9.96716854E-02   9.99690549E-02   9.78924958E-02   9.91612189E-02   1.05892853E-01   9.38762542E+04   9.01182579E-02   9.65550039E-02   9.99971302E-02   9.70440907E-02   1.41831233E+04   9.18803135E+03   1.89109167E+04   0.00000000E+00   0.00000000E+00   1.62891889E+02
   2.74750000E+03   5.00000000E-01   5.00000000E-01   9.96716967E-02   9.99690642E-02   9.78924997E-02   9.91612189E-02   1.05639416E-01   9.35852965E+04   9.00671012E-02   9.65545622E-02   9.99969649E-02   9.74122991E-02   1.40729803E+04   9.40600031E+03   1.91221769E+04   0.00000000E+00   0.00000000E+00   1.61109796E+02
   2.78250000E+03   5.00000000E-01   5.00000000E-01   9.96717081E-02   9.99690737E-02   9.78925036E-02   9.91612189E-02   1.05394785E-01   9.33377970E+04   9.00142111E-02   9.65541397E-02   9.99967789E-02   9.77750336E-02   1.39583855E+04   9.62452210E+03   1.93534930E+04   0.00000000E+00   0.00000000E+00   1.59309392E+02
   2.81750000E+03   5.00000000E-01   5.00000000E-01   9.96717200E-02   9.99690834E-02   9.78925077E-02   9.91612189E-02   1.05158733E-01   9.31340134E+04   8.99596052E-02   9.65537365E-02   9.99965797E-02   9.81314861E-02   1.38393195E+04   9.84340967E+03   1.96052629E+04   0.00000000E+00   0.00000000E+00   1.57489791E+02
   2.85250000E+03   5.00000000E-01   5.00000000E-01   9.96717322E-02   9.99690933E-02   9.78925118E-02   9.91612189E-02   1.04931032E-01   9.29744695E+04   8.99032983E-02   9.65533522E-02   9.99963777E-02   9.84808190E-02   1.37157637E+04   1.00624703E+04   1.98778503E+04   0.00000000E+00   0.00000000E+00   1.55649991E+02
   2.88750000E+03   5.00000000E-01   5.00000000E-01   9.96717446E-02   9.99691034E-02   9.78925159E-02   9.91612189E-02   1.04711459E-01   9.28598783E+04   8.98453033E-02   9.65529867E-02   9.99961793E-02   9.88221700E-02   1.35877021E+04   1.02815086E+04   2.01715699E+04   0.00000000E+00   0.00000000E+00   1.53788892E+02
   2.92250000E+03   5.00000000E-01   5.00000000E-01   9.96717572E-02   9.99691137E-02   9.78925202E-02   9.91612189E-02   1.04499787E-01   9.27911078E+04   8.97856319E-02   9.65526396E-02   9.99959850E-02   9.91546557E-02   1.34551223E+04   1.05003282E+04   2.04866714E+04   0.00000000E+00   0.00000000E+00   1.51905382E+02
   2.95750000E+03   5.00000000E-01   5.00000000E-01   9.96717698E-02   9.99691242E-02   9.78925245E-02   9.91612189E-02   1.04295793E-01   9.27691842E+04   8.97242957E-02   9.65523105E-02   9.99957914E-02   9.94773762E-02   1.33180166E+04   1.07187314E+04   2.08233237E+04   0.00000000E+00   0.00000000E+00   1.49998057E+02
   2.99250000E+03   5.00000000E-01   5.00000000E-01   9.96717823E-02   9.99691350E-02   9.78925289E-02   9.91612189E-02   1.04099254E-01   9.27952640E+04   8.96613068E-02   9.65519989E-02   9.99955924E-02   9.97894201E-02   1.31763829E+04   1.09365197E+04   2.11815977E+04   0.00000000E+00   0.00000000E+00   1.48065533E+02
   3.02750000E+03   5.00000000E-01   5.00000000E-01   9.96717948E-02   9.99691459E-02   9.78925334E-02   9.91612189E-02   1.03909949E-01   9.28706381E+04   8.95966793E-02   9.65517043E-02   9.99953803E-02   1.00089870E-01   1.30302266E+04   1.11534940E+04   2.15614507E+04   0.00000000E+00   0.00000000E+00   1.46106364E+02
   3.06250000E+03   5.00000000E-01   5.00000000E-01   9.96718072E-02   9.99691571E-02   9.78925379E-02   9.91612189E-02   1.03727657E-01   9.29967123E+04   8.95304301E-02   9.65514262E-02   9.99951469E-02   1.00377806E-01   1.28795616E+04   1.13694547E+04   2.19627099E+04   0.00000000E+00   0.00000000E+00   1.44119055E+02
   3.09750000E+03   5.00000000E-01   5.00000000E-01   9.96718193E-02   9.99691686E-02   9.78925425E-02   9.91612189E-02   1.03552157E-01   9.31749890E+04   8.94625804E-02   9.65511641E-02   9.99948833E-02   1.00652309E-01   1.27244119E+04   1.15842021E+04   2.23850573E+04   0.00000000E+00   0.00000000E+00   1.42102087E+02
   3.13250000E+03   5.00000000E-01   5.00000000E-01   9.96718312E-02   9.99691802E-02   9.78925472E-02   9.91612189E-02   1.03383231E-01   9.34070511E+04   8.93931567E-02   9.65509172E-02   9.99945813E-02   1.00912426E-01   1.25648144E+04   1.17975373E+04   2.28280151E+04   0.00000000E+00   0.00000000E+00   1.40053957E+02
   3.16750000E+03   5.00000000E-01   5.00000000E-01   9.96718428E-02   9.99691921E-02   9.78925519E-02   9.91612189E-02   1.03220662E-01   9.36945386E+04   8.93221919E-02   9.65506851E-02   9.99942325E-02   1.01157195E-01   1.24008196E+04   1.20092629E+04   2.32909335E+04   0.00000000E+00   0.00000000E+00   1.37973300E+02