 TITLE = "Mineral Area" 
VARIABLES = "X"          "Y"              "Z"            "Forsterite"     "Enstatite(alph" "Anorthite"      "Ferropargasite" "Anhydrite"      "Clinochlore"    "Albite(low)"   
 ZONE I=          35 , J=           1 , K=           1  F=POINT
   5.00000000E+01   5.00000000E-01   5.00000000E-01   1.00000054E-01   1.00000003E-01   9.99996973E-02   9.99999992E-02   9.99999996E-02   1.00000011E-01   9.99999984E-02
   1.50000000E+02   5.00000000E-01   5.00000000E-01   1.00000064E-01   1.00000002E-01   9.99996973E-02   9.99999992E-02   9.99999996E-02   1.00000011E-01   9.99999984E-02
   2.50000000E+02   5.00000000E-01   5.00000000E-01   1.00000068E-01   1.00000001E-01   9.99996973E-02   9.99999992E-02   9.99999996E-02   1.00000011E-01   9.99999984E-02
   3.50000000E+02   5.00000000E-01   5.00000000E-01   1.00000069E-01   1.00000001E-01   9.99996973E-02   9.99999992E-02   9.99999996E-02   1.00000011E-01   9.99999984E-02
   4.50000000E+02   5.00000000E-01   5.00000000E-01   1.00000069E-01   1.00000000E-01   9.99996973E-02   9.99999992E-02   9.99999997E-02   1.00000011E-01   9.99999984E-02
   5.50000000E+02   5.00000000E-01   5.00000000E-01   1.00000069E-01   1.00000000E-01   9.99996973E-02   9.99999992E-02   9.99999997E-02   1.00000011E-01   9.99999984E-02
   6.50000000E+02   5.00000000E-01   5.00000000E-01   1.00000068E-01   1.00000000E-01   9.99996973E-02   9.99999992E-02   9.99999997E-02   1.00000011E-01   9.99999984E-02
   7.50000000E+02   5.00000000E-01   5.00000000E-01   1.00000068E-01   1.00000000E-01   9.99996973E-02   9.99999992E-02   9.99999997E-02   1.00000011E-01   9.99999984E-02
   8.50000000E+02   5.00000000E-01   5.00000000E-01   1.00000068E-01   1.00000000E-01   9.99996973E-02   9.99999992E-02   9.99999998E-02   1.00000011E-01   9.99999984E-02
   9.50000000E+02   5.00000000E-01   5.00000000E-01   1.00000068E-01   1.00000000E-01   9.99996973E-02   9.99999992E-02   9.99999998E-02   1.00000011E-01   9.99999984E-02
   1.05000000E+03   5.00000000E-01   5.00000000E-01   1.00000068E-01   1.00000000E-01   9.99996973E-02   9.99999992E-02   9.99999998E-02   1.00000011E-01   9.99999984E-02
   1.15000000E+03   5.00000000E-01   5.00000000E-01   1.00000067E-01   1.00000000E-01   9.99996973E-02   9.99999992E-02   9.99999999E-02   1.00000011E-01   9.99999984E-02
   1.25000000E+03   5.00000000E-01   5.00000000E-01   1.00000067E-01   1.00000000E-01   9.99996973E-02   9.99999992E-02   1.00000000E-01   1.00000011E-01   9.99999984E-02
   1.35000000E+03   5.00000000E-01   5.00000000E-01   1.00000067E-01   1.00000000E-01   9.99996973E-02   9.99999992E-02   1.00000000E-01   1.00000011E-01   9.99999984E-02
   1.45000000E+03   5.00000000E-01   5.00000000E-01   1.00000067E-01   1.00000000E-01   9.99996973E-02   9.99999992E-02   1.00000000E-01   1.00000011E-01   9.99999984E-02
   1.55000000E+03   5.00000000E-01   5.00000000E-01   1.00000066E-01   1.00000000E-01   9.99996973E-02   9.99999992E-02   1.00000000E-01   1.00000011E-01   9.99999984E-02
   1.65000000E+03   5.00000000E-01   5.00000000E-01   1.00000066E-01   1.00000000E-01   9.99996973E-02   9.99999992E-02   1.00000000E-01   1.00000011E-01   9.99999984E-02
   1.75000000E+03   5.00000000E-01   5.00000000E-01   1.00000066E-01   1.00000000E-01   9.99996973E-02   9.99999992E-02   1.00000000E-01   1.00000011E-01   9.99999984E-02
   1.85000000E+03   5.00000000E-01   5.00000000E-01   1.00000065E-01   1.00000000E-01   9.99996973E-02   9.99999992E-02   1.00000001E-01   1.00000011E-01   9.99999984E-02
   1.95000000E+03   5.00000000E-01   5.00000000E-01   1.00000065E-01   1.00000000E-01   9.99996973E-02   9.99999992E-02   1.00000001E-01   1.00000011E-01   9.99999984E-02
   2.05000000E+03   5.00000000E-01   5.00000000E-01   1.00000065E-01   1.00000000E-01   9.99996973E-02   9.99999992E-02   1.00000001E-01   1.00000011E-01   9.99999984E-02
   2.15000000E+03   5.00000000E-01   5.00000000E-01   1.00000064E-01   1.00000000E-01   9.99996973E-02   9.99999992E-02   1.00000001E-01   1.00000011E-01   9.99999984E-02
   2.25000000E+03   5.00000000E-01   5.00000000E-01   1.00000064E-01   1.00000000E-01   9.99996973E-02   9.99999992E-02   1.00000001E-01   1.00000011E-01   9.99999984E-02
   2.35000000E+03   5.00000000E-01   5.00000000E-01   1.00000063E-01   1.00000000E-01   9.99996973E-02   9.99999992E-02   1.00000001E-01   1.00000011E-01   9.99999984E-02
   2.45000000E+03   5.00000000E-01   5.00000000E-01   1.00000063E-01   1.00000000E-01   9.99996973E-02   9.99999992E-02   1.00000002E-01   1.00000011E-01   9.99999984E-02
   2.55000000E+03   5.00000000E-01   5.00000000E-01   1.00000063E-01   1.00000000E-01   9.99996973E-02   9.99999992E-02   1.00000002E-01   1.00000011E-01   9.99999984E-02
   2.65000000E+03   5.00000000E-01   5.00000000E-01   1.00000062E-01   1.00000000E-01   9.99996973E-02   9.99999992E-02   1.00000002E-01   1.00000011E-01   9.99999984E-02
   2.75000000E+03   5.00000000E-01   5.00000000E-01   1.00000062E-01   1.00000000E-01   9.99996973E-02   9.99999992E-02   1.00000003E-01   1.00000011E-01   9.99999984E-02
   2.85000000E+03   5.00000000E-01   5.00000000E-01   1.00000061E-01   1.00000000E-01   9.99996973E-02   9.99999992E-02   1.00000003E-01   1.00000011E-01   9.99999984E-02
   2.95000000E+03   5.00000000E-01   5.00000000E-01   1.00000061E-01   1.00000000E-01   9.99996973E-02   9.99999992E-02   1.00000004E-01   1.00000011E-01   9.99999984E-02
   3.05000000E+03   5.00000000E-01   5.00000000E-01   1.00000060E-01   1.00000000E-01   9.99996973E-02   9.99999992E-02   1.00000004E-01   1.00000010E-01   9.99999984E-02
   3.15000000E+03   5.00000000E-01   5.00000000E-01   1.00000060E-01   1.00000000E-01   9.99996973E-02   9.99999992E-02   1.00000005E-01   1.00000010E-01   9.99999984E-02
   3.25000000E+03   5.00000000E-01   5.00000000E-01   1.00000059E-01   1.00000000E-01   9.99996973E-02   9.99999992E-02   1.00000005E-01   1.00000010E-01   9.99999984E-02
   3.35000000E+03   5.00000000E-01   5.00000000E-01   1.00000059E-01   1.00000000E-01   9.99996973E-02   9.99999992E-02   1.00000006E-01   1.00000010E-01   9.99999984E-02
   3.45000000E+03   5.00000000E-01   5.00000000E-01   1.00000059E-01   1.00000000E-01   9.99996973E-02   9.99999992E-02   1.00000006E-01   1.00000010E-01   9.99999984E-02
