 TITLE = "Mineral Area" 
VARIABLES = "X"          "Y"              "Z"            "Forsterite"     "Fayalite"       "Brucite"        "Lizardite"      "Chrysotile"     "Hematite"       "Magnetite(am)"  "Saponite(Ca)"   "Saponite(K)"    "Saponite(Mg)"   "Saponite(Na)"   "Beidellite(Ca)" "Beidellite(K)"  "Beidellite(Mg)" "Beidellite(Na)" "Enstatite(alph" "Ferrosilite(al" "Anorthite"      "Albite(low)"    "Clinochlore"    "Sudoite"        "Montmor(MgCa)"  "Montmor(MgK)"   "Montmor(MgMg)"  "Montmor(MgNa)"  "Kaolinite"      "Tremolite"      "Pargasite"      "Anhydrite"      "Epidote"        "Scolecite"      "Pyrite"         "FeS(am)"        "Quartz(alpha)" 
 ZONE I=         200 , J=           1 , K=           1  F=POINT
   8.75000000E+00   5.00000000E-01   5.00000000E-01   1.30988835E+05   4.79112111E+04   0.00000000E+00   0.00000000E+00   0.00000000E+00   6.40337681E+03   0.00000000E+00   3.71429972E-02   1.32340976E+05   5.22741034E-02   1.58425041E+04   3.65049501E-02   3.81049996E-02   3.73550090E-02   3.70474781E-02   2.00600639E+04   1.76156172E+04   1.15566365E+05   2.95548288E+04   4.21930488E+05   3.84799086E-03   8.06621275E-03   8.26254156E-03   8.25085905E-03   8.18603570E-03   3.42547067E+04   4.50262586E+04   4.61026415E+04   0.00000000E+00   2.83029431E+03   1.92815548E-05   6.92651083E-05   6.81215909E-05   2.35925971E-05
   2.62500000E+01   5.00000000E-01   5.00000000E-01   1.30988835E+05   4.79129994E+04   0.00000000E+00   0.00000000E+00   0.00000000E+00   6.40337677E+03   0.00000000E+00   3.72050198E-02   5.31718043E+05   5.61068898E-02   6.96269279E+04   3.65049621E-02   3.81050167E-02   3.73550649E-02   3.70476242E-02   2.00600627E+04   1.76156492E+04   1.15566365E+05   2.96247482E+04   4.12513516E+05   3.05749320E-03   8.06625955E-03   8.26367680E-03   8.25106033E-03   8.18683992E-03   3.42547123E+04   4.50485366E+04   4.61026415E+04   0.00000000E+00   2.83029431E+03   1.92815685E-05   6.92651083E-05   6.81216409E-05   2.36070026E-05
   4.37500000E+01   5.00000000E-01   5.00000000E-01   1.30988835E+05   4.79144729E+04   0.00000000E+00   0.00000000E+00   0.00000000E+00   6.40337677E+03   0.00000000E+00   3.72303845E-02   6.29011849E+05   5.76969985E-02   9.38809009E+04   3.65050963E-02   3.81051982E-02   3.73556874E-02   3.70492094E-02   2.00600621E+04   1.76156734E+04   1.15566365E+05   2.98279836E+04   4.00941545E+05   2.05307448E-03   8.06657686E-03   8.27096407E-03   8.25242391E-03   8.19213079E-03   3.42547457E+04   4.50589810E+04   4.61026415E+04   0.00000000E+00   2.83029431E+03   1.92816407E-05   6.92651083E-05   6.81216627E-05   2.36188682E-05
   6.12500000E+01   5.00000000E-01   5.00000000E-01   1.30988835E+05   4.79160846E+04   0.00000000E+00   0.00000000E+00   0.00000000E+00   6.40337676E+03   0.00000000E+00   3.72554025E-02   7.66226449E+05   5.93574935E-02   1.31427272E+05   3.65054645E-02   3.81056669E-02   3.73573932E-02   3.70534201E-02   2.00600619E+04   1.76156983E+04   1.15566365E+05   3.01067674E+04   3.84962344E+05   1.17149491E-03   8.06727403E-03   8.28594853E-03   8.25541673E-03   8.20334075E-03   3.42548048E+04   4.50673095E+04   4.61026415E+04   0.00000000E+00   2.83029431E+03   1.92817681E-05   6.92651083E-05   6.81216803E-05   2.36280292E-05
   7.87500000E+01   5.00000000E-01   5.00000000E-01   1.30988835E+05   4.79179892E+04   0.00000000E+00   0.00000000E+00   0.00000000E+00   6.40337676E+03   0.00000000E+00   3.72880941E-02   9.33556731E+05   6.15458773E-02   1.85342924E+05   3.65060441E-02   3.81063560E-02   3.73600740E-02   3.70598083E-02   2.00600619E+04   1.76157239E+04   1.15566365E+05   3.03848946E+04   3.68405757E+05   6.71516517E-04   8.06821937E-03   8.30476186E-03   8.25947082E-03   8.21791900E-03   3.42548748E+04   4.50813059E+04   4.61026415E+04   0.00000000E+00   2.83029432E+03   1.92819191E-05   6.92651083E-05   6.81216954E-05   2.36345699E-05
   9.62500000E+01   5.00000000E-01   5.00000000E-01   1.30988835E+05   4.79202394E+04   0.00000000E+00   0.00000000E+00   0.00000000E+00   6.40337675E+03   0.00000000E+00   3.73256697E-02   1.06982406E+06   6.41075776E-02   2.47300519E+05   3.65067314E-02   3.81071114E-02   3.73632464E-02   3.70670698E-02   2.00600620E+04   1.76157499E+04   1.15566365E+05   3.06192383E+04   3.54298463E+05   4.46317787E-04   8.06922212E-03   8.32297270E-03   8.26376651E-03   8.23264208E-03   3.42549435E+04   4.50988756E+04   4.61026415E+04   0.00000000E+00   2.83029432E+03   1.92820679E-05   6.92651083E-05   6.81217083E-05   2.36389786E-05
   1.13750000E+02   5.00000000E-01   5.00000000E-01   1.30988835E+05   4.79228442E+04   0.00000000E+00   0.00000000E+00   0.00000000E+00   6.40337674E+03   0.00000000E+00   3.73643973E-02   1.15026380E+06   6.68157696E-02   3.10215789E+05   3.65073964E-02   3.81077742E-02   3.73663094E-02   3.70737418E-02   2.00600622E+04   1.76157763E+04   1.15566365E+05   3.07925159E+04   3.43906188E+05   3.46892316E-04   8.07012366E-03   8.33751955E-03   8.26762357E-03   8.24508191E-03   3.42550004E+04   4.51178615E+04   4.61026415E+04   0.00000000E+00   2.83029432E+03   1.92821948E-05   6.92651083E-05   6.81217194E-05   2.36418516E-05
   1.31250000E+02   5.00000000E-01   5.00000000E-01   1.30988835E+05   4.79258183E+04   0.00000000E+00   0.00000000E+00   0.00000000E+00   6.40337673E+03   0.00000000E+00   3.74027284E-02   1.17717556E+06   6.95720945E-02   3.70385237E+05   3.65079509E-02   3.81082573E-02   3.73688565E-02   3.70789339E-02   2.00600624E+04   1.76158032E+04   1.15566365E+05   3.09066562E+04   3.37153203E+05   3.00834895E-04   8.07084603E-03   8.34737052E-03   8.27070867E-03   8.25423857E-03   3.42550406E+04   4.51369783E+04   4.61026415E+04   0.00000000E+00   2.83029432E+03   1.92822908E-05   6.92651083E-05   6.81217289E-05   2.36437051E-05
   1.48750000E+02   5.00000000E-01   5.00000000E-01   1.30988835E+05   4.79291914E+04   0.00000000E+00   0.00000000E+00   0.00000000E+00   6.40337672E+03   0.00000000E+00   3.74406235E-02   1.16247454E+06   7.23773186E-02   4.26412559E+05   3.65083647E-02   3.81085495E-02   3.73707500E-02   3.70824339E-02   2.00600627E+04   1.76158309E+04   1.15566365E+05   3.09728173E+04   3.33354474E+05   2.78484058E-04   8.07138076E-03   8.35293113E-03   8.27298688E-03   8.26021711E-03   3.42550643E+04   4.51555638E+04   4.61026415E+04   0.00000000E+00   2.83029432E+03   1.92823563E-05   6.92651083E-05   6.81217368E-05   2.36449195E-05
   1.66250000E+02   5.00000000E-01   5.00000000E-01   1.30988835E+05   4.79329846E+04   0.00000000E+00   0.00000000E+00   0.00000000E+00   6.40337671E+03   0.00000000E+00   3.74783197E-02   1.12051098E+06   7.52507813E-02   4.78310837E+05   3.65086530E-02   3.81086881E-02   3.73720625E-02   3.70845075E-02   2.00600630E+04   1.76158592E+04   1.15566365E+05   3.10048010E+04   3.31644710E+05   2.67261866E-04   8.07176194E-03   8.35529372E-03   8.27460554E-03   8.26371917E-03   3.42550749E+04   4.51732490E+04   4.61026415E+04   0.00000000E+00   2.83029432E+03   1.92823970E-05   6.92651083E-05   6.81217432E-05   2.36457425E-05
   1.83750000E+02   5.00000000E-01   5.00000000E-01   1.30988835E+05   4.79371859E+04   0.00000000E+00   0.00000000E+00   0.00000000E+00   6.40337671E+03   0.00000000E+00   3.75157151E-02   1.06398178E+06   7.81831468E-02   5.26858976E+05   3.65088542E-02   3.81087275E-02   3.73729719E-02   3.70856241E-02   2.00600633E+04   1.76158881E+04   1.15566365E+05   3.10153331E+04   3.31222905E+05   2.61495176E-04   8.07204025E-03   8.35566447E-03   8.27578261E-03   8.26561349E-03   3.42550772E+04   4.51898054E+04   4.61026415E+04   0.00000000E+00   2.83029432E+03   1.92824213E-05   6.92651083E-05   6.81217479E-05   2.36463169E-05
   2.01250000E+02   5.00000000E-01   5.00000000E-01   1.30988835E+05   4.79417845E+04   0.00000000E+00   0.00000000E+00   0.00000000E+00   6.40337670E+03   0.00000000E+00   3.75530131E-02   9.99318848E+05   8.11854767E-02   5.72072723E+05   3.65089943E-02   3.81087031E-02   3.73735989E-02   3.70860955E-02   2.00600636E+04   1.76159174E+04   1.15566365E+05   3.10123466E+04   3.31615298E+05   2.58459986E-04   8.07224937E-03   8.35480706E-03   8.27666284E-03   8.26646329E-03   3.42550741E+04   4.52053779E+04   4.61026415E+04   0.00000000E+00   2.83029432E+03   1.92824344E-05   6.92651083E-05   6.81217510E-05   2.36467291E-05
   2.18750000E+02   5.00000000E-01   5.00000000E-01   1.30988835E+05   4.79467762E+04   0.00000000E+00   0.00000000E+00   0.00000000E+00   6.40337669E+03   0.00000000E+00   3.75906392E-02   9.29868860E+05   8.42861134E-02   6.13462417E+05   3.65090857E-02   3.81086333E-02   3.73740012E-02   3.70860794E-02   2.00600640E+04   1.76159469E+04   1.15566365E+05   3.10002434E+04   3.32568504E+05   2.56804419E-04   8.07240646E-03   8.35312836E-03   8.27732013E-03   8.26656600E-03   3.42550669E+04   4.52204664E+04   4.61026415E+04   0.00000000E+00   2.83029432E+03   1.92824388E-05   6.92651083E-05   6.81217525E-05   2.36470358E-05
   2.36250000E+02   5.00000000E-01   5.00000000E-01   1.30988835E+05   4.79521072E+04   0.00000000E+00   0.00000000E+00   0.00000000E+00   6.40337669E+03   0.00000000E+00   3.76282531E-02   8.59559530E+05   8.74512766E-02   6.51519531E+05   3.65091459E-02   3.81085385E-02   3.73742598E-02   3.70857685E-02   2.00600644E+04   1.76159765E+04   1.15566365E+05   3.09830204E+04   3.33828461E+05   2.55859513E-04   8.07253175E-03   8.35101864E-03   8.27784116E-03   8.26623153E-03   3.42550575E+04   4.52355477E+04   4.61026415E+04   0.00000000E+00   2.83029432E+03   1.92824378E-05   6.92651083E-05   6.81217526E-05   2.36472650E-05
   2.53750000E+02   5.00000000E-01   5.00000000E-01   1.30988835E+05   4.79577246E+04   0.00000000E+00   0.00000000E+00   0.00000000E+00   6.40337668E+03   0.00000000E+00   3.76654437E-02   7.89555531E+05   9.06405590E-02   6.85677584E+05   3.65091798E-02   3.81084257E-02   3.73743979E-02   3.70852264E-02   2.00600649E+04   1.76160059E+04   1.15566365E+05   3.09624568E+04   3.35300090E+05   2.55278940E-04   8.07263200E-03   8.34862829E-03   8.27825509E-03   8.26557508E-03   3.42550464E+04   4.52510536E+04   4.61026415E+04   0.00000000E+00   2.83029432E+03   1.92824324E-05   6.92651083E-05   6.81217513E-05   2.36474355E-05
   2.71250000E+02   5.00000000E-01   5.00000000E-01   1.30988835E+05   4.79635713E+04   0.00000000E+00   0.00000000E+00   0.00000000E+00   6.40337667E+03   0.00000000E+00   3.77016489E-02   7.21003112E+05   9.38018721E-02   7.15615855E+05   3.65091905E-02   3.81082997E-02   3.73744300E-02   3.70844956E-02   2.00600653E+04   1.76160350E+04   1.15566365E+05   3.09396110E+04   3.36920688E+05   2.54886858E-04   8.07271097E-03   8.34604675E-03   8.27857798E-03   8.26466489E-03   3.42550340E+04   4.52671591E+04   4.61026415E+04   0.00000000E+00   2.83029432E+03   1.92824234E-05   6.92651083E-05   6.81217488E-05   2.36475599E-05
   2.88750000E+02   5.00000000E-01   5.00000000E-01   1.30988835E+05   4.79695928E+04   0.00000000E+00   0.00000000E+00   0.00000000E+00   6.40337667E+03   0.00000000E+00   3.77362633E-02   6.54995062E+05   9.68808082E-02   7.41314437E+05   3.65091824E-02   3.81081656E-02   3.73743759E-02   3.70836253E-02   2.00600658E+04   1.76160636E+04   1.15566365E+05   3.09152745E+04   3.38637382E+05   2.54595775E-04   8.07277251E-03   8.34335272E-03   8.27882648E-03   8.26356512E-03   3.42550209E+04   4.52836942E+04   4.61026415E+04   0.00000000E+00   2.83029432E+03   1.92824115E-05   6.92651083E-05   6.81217452E-05   2.36476452E-05
   3.06250000E+02   5.00000000E-01   5.00000000E-01   1.30988835E+05   4.79757485E+04   0.00000000E+00   0.00000000E+00   0.00000000E+00   6.40337666E+03   0.00000000E+00   3.77688328E-02   5.92436655E+05   9.98373433E-02   7.62986605E+05   3.65091608E-02   3.81080286E-02   3.73742604E-02   3.70826701E-02   2.00600662E+04   1.76160917E+04   1.15566365E+05   3.08900629E+04   3.40405303E+05   2.54362925E-04   8.07282099E-03   8.34061938E-03   8.27901925E-03   8.26234012E-03   3.42550074E+04   4.53002167E+04   4.61026415E+04   0.00000000E+00   2.83029433E+03   1.92823976E-05   6.92651083E-05   6.81217408E-05   2.36476953E-05
   3.23750000E+02   5.00000000E-01   5.00000000E-01   1.30988835E+05   4.79820169E+04   0.00000000E+00   0.00000000E+00   0.00000000E+00   6.40337665E+03   0.00000000E+00   3.77991690E-02   5.33979247E+05   1.02655505E-01   7.80989125E+05   3.65091316E-02   3.81078933E-02   3.73741103E-02   3.70816835E-02   2.00600667E+04   1.76161193E+04   1.15566365E+05   3.08644501E+04   3.42187959E+05   2.54167849E-04   8.07286093E-03   8.33791100E-03   8.27917565E-03   8.26105066E-03   3.42549941E+04   4.53161874E+04   4.61026415E+04   0.00000000E+00   2.83029433E+03   1.92823827E-05   6.92651083E-05   6.81217355E-05   2.36477113E-05
   3.41250000E+02   5.00000000E-01   5.00000000E-01   1.30988836E+05   4.79883941E+04   0.00000000E+00   0.00000000E+00   0.00000000E+00   6.40337664E+03   0.00000000E+00   3.78273502E-02   4.79999607E+05   1.05343487E-01   7.95725983E+05   3.65091000E-02   3.81077635E-02   3.73739498E-02   3.70807110E-02   2.00600672E+04   1.76161463E+04   1.15566365E+05   3.08387896E+04   3.43957726E+05   2.54000494E-04   8.07289656E-03   8.33527861E-03   8.27931366E-03   8.25974873E-03   3.42549814E+04   4.53311316E+04   4.61026415E+04   0.00000000E+00   2.83029433E+03   1.92823675E-05   6.92651083E-05   6.81217296E-05   2.36476930E-05
   3.58750000E+02   5.00000000E-01   5.00000000E-01   1.30988836E+05   4.79948888E+04   0.00000000E+00   0.00000000E+00   0.00000000E+00   6.40337664E+03   0.00000000E+00   3.78536614E-02   4.30588974E+05   1.07928203E-01   8.07503728E+05   3.65090699E-02   3.81076414E-02   3.73737964E-02   3.70797821E-02   2.00600678E+04   1.76161728E+04   1.15566365E+05   3.08132933E+04   3.45698944E+05   2.53855147E-04   8.07293092E-03   8.33275303E-03   8.27944629E-03   8.25846928E-03   3.42549693E+04   4.53447397E+04   4.61026415E+04   0.00000000E+00   2.83029433E+03   1.92823527E-05   6.92651083E-05   6.81217232E-05   2.36476399E-05
   3.76250000E+02   5.00000000E-01   5.00000000E-01   1.30988836E+05   4.80015144E+04   0.00000000E+00   0.00000000E+00   0.00000000E+00   6.40337663E+03   0.00000000E+00   3.78784996E-02   3.85657232E+05   1.10446855E-01   8.16561921E+05   3.65090435E-02   3.81075278E-02   3.73736605E-02   3.70789126E-02   2.00600683E+04   1.76161988E+04   1.15566365E+05   3.07880810E+04   3.47403744E+05   2.53728025E-04   8.07296602E-03   8.33034919E-03   8.27958199E-03   8.25723292E-03   3.42549580E+04   4.53568778E+04   4.61026415E+04   0.00000000E+00   2.83029433E+03   1.92823386E-05   6.92651083E-05   6.81217163E-05   2.36475515E-05
   3.93750000E+02   5.00000000E-01   5.00000000E-01   1.30988836E+05   4.80082837E+04   0.00000000E+00   0.00000000E+00   0.00000000E+00   6.40337662E+03   0.00000000E+00   3.79023035E-02   3.44976413E+05   1.12940514E-01   8.23028549E+05   3.65090217E-02   3.81074227E-02   3.73735456E-02   3.70781053E-02   2.00600689E+04   1.76162243E+04   1.15566365E+05   3.07631894E+04   3.49071601E+05   2.53616067E-04   8.07300264E-03   8.32806764E-03   8.27972412E-03   8.25604605E-03   3.42549476E+04   4.53675643E+04   4.61026415E+04   0.00000000E+00   2.83029433E+03   1.92823253E-05   6.92651083E-05   6.81217090E-05   2.36474275E-05
   4.11250000E+02   5.00000000E-01   5.00000000E-01   1.30988836E+05   4.80152044E+04   0.00000000E+00   0.00000000E+00   0.00000000E+00   6.40337661E+03   0.00000000E+00   3.79255003E-02   3.08250302E+05   1.15449103E-01   8.26962176E+05   3.65090041E-02   3.81073252E-02   3.73734498E-02   3.70773542E-02   2.00600695E+04   1.76162493E+04   1.15566365E+05   3.07386047E+04   3.50706280E+05   2.53516636E-04   8.07304066E-03   8.32589953E-03   8.27987205E-03   8.25490500E-03   3.42549379E+04   4.53769310E+04   4.61026415E+04   0.00000000E+00   2.83029433E+03   1.92823130E-05   6.92651083E-05   6.81217015E-05   2.36472686E-05
   4.28750000E+02   5.00000000E-01   5.00000000E-01   1.30988837E+05   4.80222761E+04   0.00000000E+00   0.00000000E+00   0.00000000E+00   6.40337660E+03   0.00000000E+00   3.79484711E-02   2.75160707E+05   1.18008015E-01   8.28395225E+05   3.65089895E-02   3.81072341E-02   3.73733681E-02   3.70766483E-02   2.00600701E+04   1.76162739E+04   1.15566365E+05   3.07142948E+04   3.52313093E+05   2.53427482E-04   8.07307937E-03   8.32383171E-03   8.28002276E-03   8.25380078E-03   3.42549288E+04   4.53851837E+04   4.61026415E+04   0.00000000E+00   2.83029433E+03   1.92823013E-05   6.92651083E-05   6.81216937E-05   2.36470755E-05
   4.46250000E+02   5.00000000E-01   5.00000000E-01   1.30988837E+05   4.80294889E+04   0.00000000E+00   0.00000000E+00   0.00000000E+00   6.40337659E+03   0.00000000E+00   3.79715316E-02   2.45382115E+05   1.20645999E-01   8.27325137E+05   3.65089764E-02   3.81071480E-02   3.73732929E-02   3.70759740E-02   2.00600708E+04   1.76162979E+04   1.15566365E+05   3.06902159E+04   3.53898461E+05   2.53346660E-04   8.07311762E-03   8.32184867E-03   8.28017136E-03   8.25272080E-03   3.42549202E+04   4.53925789E+04   4.61026415E+04   0.00000000E+00   2.83029433E+03   1.92822903E-05   6.92651083E-05   6.81216858E-05   2.36468497E-05
   4.63750000E+02   5.00000000E-01   5.00000000E-01   1.30988837E+05   4.80368232E+04   0.00000000E+00   0.00000000E+00   0.00000000E+00   6.40337658E+03   0.00000000E+00   3.79949179E-02   2.18601116E+05   1.23383537E-01   8.23740397E+05   3.65089628E-02   3.81070658E-02   3.73732158E-02   3.70753166E-02   2.00600714E+04   1.76163213E+04   1.15566365E+05   3.06663255E+04   3.55468721E+05   2.53272539E-04   8.07315405E-03   8.31993478E-03   8.28031198E-03   8.25165127E-03   3.42549121E+04   4.53994040E+04   4.61026415E+04   0.00000000E+00   2.83029433E+03   1.92822795E-05   6.92651083E-05   6.81216777E-05   2.36465927E-05
   4.81250000E+02   5.00000000E-01   5.00000000E-01   1.30988838E+05   4.80442494E+04   0.00000000E+00   0.00000000E+00   0.00000000E+00   6.40337656E+03   0.00000000E+00   3.80187761E-02   1.94526589E+05   1.26231545E-01   8.17640745E+05   3.65089468E-02   3.81069862E-02   3.73731278E-02   3.70746626E-02   2.00600721E+04   1.76163442E+04   1.15566365E+05   3.06425922E+04   3.57029218E+05   2.53203805E-04   8.07318724E-03   8.31807612E-03   8.28043863E-03   8.25057926E-03   3.42549042E+04   4.54059601E+04   4.61026415E+04   0.00000000E+00   2.83029433E+03   1.92822688E-05   6.92651083E-05   6.81216696E-05   2.36463066E-05
   4.98750000E+02   5.00000000E-01   5.00000000E-01   1.30988838E+05   4.80518439E+04   0.00000000E+00   0.00000000E+00   0.00000000E+00   6.40337655E+03   0.00000000E+00   3.80435885E-02   1.72447558E+05   1.29238738E-01   8.06393619E+05   3.65089131E-02   3.81069018E-02   3.73729598E-02   3.70739100E-02   2.00600729E+04   1.76163667E+04   1.15566365E+05   3.06180455E+04   3.58671720E+05   2.53135203E-04   8.07320286E-03   8.31616120E-03   8.28049047E-03   8.24937542E-03   3.42548959E+04   4.54125486E+04   4.61026415E+04   0.00000000E+00   2.83029434E+03   1.92822564E-05   6.92651083E-05   6.81216615E-05   2.36459987E-05
   5.16250000E+02   5.00000000E-01   5.00000000E-01   1.30988838E+05   4.80594991E+04   0.00000000E+00   0.00000000E+00   0.00000000E+00   6.40337654E+03   0.00000000E+00   3.80691536E-02   1.52810645E+05   1.32382815E-01   7.93349245E+05   3.65088714E-02   3.81068177E-02   3.73727558E-02   3.70731282E-02   2.00600736E+04   1.76163887E+04   1.15566365E+05   3.05934967E+04   3.60306236E+05   2.53070103E-04   8.07321021E-03   8.31426960E-03   8.28050706E-03   8.24813150E-03   3.42548877E+04   4.54195447E+04   4.61026415E+04   0.00000000E+00   2.83029434E+03   1.92822434E-05   6.92651083E-05   6.81216535E-05   2.36456689E-05
   5.33750000E+02   5.00000000E-01   5.00000000E-01   1.30988839E+05   4.80671346E+04   0.00000000E+00   0.00000000E+00   0.00000000E+00   6.40337653E+03   0.00000000E+00   3.80951892E-02   1.35280002E+05   1.35626861E-01   7.78287167E+05   3.65088237E-02   3.81067351E-02   3.73725250E-02   3.70723325E-02   2.00600744E+04   1.76164100E+04   1.15566365E+05   3.05692125E+04   3.61926960E+05   2.53008945E-04   8.07321175E-03   8.31242109E-03   8.28049893E-03   8.24687236E-03   3.42548796E+04   4.54271698E+04   4.61026415E+04   0.00000000E+00   2.83029434E+03   1.92822301E-05   6.92651083E-05   6.81216455E-05   2.36453177E-05
   5.51250000E+02   5.00000000E-01   5.00000000E-01   1.30988839E+05   4.80746947E+04   0.00000000E+00   0.00000000E+00   0.00000000E+00   6.40337651E+03   0.00000000E+00   3.81214148E-02   1.19588650E+05   1.38934542E-01   7.61028119E+05   3.65087692E-02   3.81066536E-02   3.73722639E-02   3.70715191E-02   2.00600752E+04   1.76164304E+04   1.15566365E+05   3.05452258E+04   3.63538136E+05   2.52951300E-04   8.07320708E-03   8.31061285E-03   8.28046438E-03   8.24559634E-03   3.42548716E+04   4.54355697E+04   4.61026415E+04   0.00000000E+00   2.83029434E+03   1.92822165E-05   6.92651083E-05   6.81216375E-05   2.36449463E-05
   5.68750000E+02   5.00000000E-01   5.00000000E-01   1.30988840E+05   4.80821369E+04   0.00000000E+00   0.00000000E+00   0.00000000E+00   6.40337650E+03   0.00000000E+00   3.81475307E-02   1.05549810E+05   1.42268391E-01   7.41687544E+05   3.65087075E-02   3.81065731E-02   3.73719704E-02   3.70706865E-02   2.00600760E+04   1.76164499E+04   1.15566365E+05   3.05215474E+04   3.65140142E+05   2.52896896E-04   8.07319586E-03   8.30884265E-03   8.28040198E-03   8.24430242E-03   3.42548637E+04   4.54447887E+04   4.61026415E+04   0.00000000E+00   2.83029434E+03   1.92822024E-05   6.92651083E-05   6.81216297E-05   2.36445557E-05
   5.86250000E+02   5.00000000E-01   5.00000000E-01   1.30988840E+05   4.80894324E+04   0.00000000E+00   0.00000000E+00   0.00000000E+00   6.40337648E+03   0.00000000E+00   3.81732409E-02   9.30107175E+04   1.45592310E-01   7.20500983E+05   3.65086389E-02   3.81064938E-02   3.73716465E-02   3.70698387E-02   2.00600769E+04   1.76164686E+04   1.15566365E+05   3.04982028E+04   3.66730610E+05   2.52845679E-04   8.07317831E-03   8.30711222E-03   8.28031276E-03   8.24299443E-03   3.42548560E+04   4.54547536E+04   4.61026415E+04   0.00000000E+00   2.83029434E+03   1.92821881E-05   6.92651083E-05   6.81216220E-05   2.36441472E-05
   6.03750000E+02   5.00000000E-01   5.00000000E-01   1.30988841E+05   4.80965673E+04   0.00000000E+00   0.00000000E+00   0.00000000E+00   6.40337647E+03   0.00000000E+00   3.81982903E-02   8.18380062E+04   1.48875826E-01   6.97768856E+05   3.65085646E-02   3.81064162E-02   3.73712974E-02   3.70689838E-02   2.00600778E+04   1.76164864E+04   1.15566365E+05   3.04752333E+04   3.68305268E+05   2.52797727E-04   8.07315526E-03   8.30542662E-03   8.28020026E-03   8.24168077E-03   3.42548483E+04   4.54652871E+04   4.61026415E+04   0.00000000E+00   2.83029434E+03   1.92821735E-05   6.92651083E-05   6.81216144E-05   2.36437217E-05
   6.21250000E+02   5.00000000E-01   5.00000000E-01   1.30988842E+05   4.81035412E+04   0.00000000E+00   0.00000000E+00   0.00000000E+00   6.40337645E+03   0.00000000E+00   3.82224949E-02   7.19103250E+04   1.52097484E-01   6.73821827E+05   3.65084863E-02   3.81063410E-02   3.73709306E-02   3.70681323E-02   2.00600787E+04   1.76165034E+04   1.15566365E+05   3.04526917E+04   3.69858735E+05   2.52753156E-04   8.07312803E-03   8.30379292E-03   8.28007004E-03   8.24037289E-03   3.42548409E+04   4.54761408E+04   4.61026415E+04   2.27324608E-22   2.83029435E+03   1.92821588E-05   6.92651083E-05   6.81216070E-05   2.36432803E-05
   6.38750000E+02   5.00000000E-01   5.00000000E-01   1.30988843E+05   4.81103636E+04   0.00000000E+00   0.00000000E+00   0.00000000E+00   6.40337643E+03   0.00000000E+00   3.82457559E-02   6.31136836E+04   1.55246212E-01   6.48987866E+05   3.65084058E-02   3.81062687E-02   3.73705547E-02   3.70672956E-02   2.00600796E+04   1.76165195E+04   1.15566365E+05   3.04306359E+04   3.71385319E+05   2.52712047E-04   8.07309820E-03   8.30221874E-03   8.27992883E-03   8.23908357E-03   3.42548338E+04   4.54870404E+04   4.61026415E+04   4.76904977E-22   2.83029435E+03   1.92821443E-05   6.92651083E-05   6.81215998E-05   2.36428237E-05
   6.56250000E+02   5.00000000E-01   5.00000000E-01   1.30988844E+05   4.81170483E+04   0.00000000E+00   0.00000000E+00   0.00000000E+00   6.40337642E+03   0.00000000E+00   3.82680565E-02   5.53390466E+04   1.58320548E-01   6.23564260E+05   3.65083250E-02   3.81062000E-02   3.73701784E-02   3.70664838E-02   2.00600806E+04   1.76165349E+04   1.15566365E+05   3.04091229E+04   3.72879705E+05   2.52674408E-04   8.07306745E-03   8.30071099E-03   8.27978374E-03   8.23782527E-03   3.42548270E+04   4.54977263E+04   4.61026415E+04   1.00259177E-21   2.83029435E+03   1.92821301E-05   6.92651083E-05   6.81215927E-05   2.36423529E-05
   6.73750000E+02   5.00000000E-01   5.00000000E-01   1.30988845E+05   4.81236078E+04   0.00000000E+00   0.00000000E+00   0.00000000E+00   6.40337640E+03   0.00000000E+00   3.82894453E-02   4.84820295E+04   1.61326249E-01   5.97802899E+05   3.65082457E-02   3.81061351E-02   3.73698090E-02   3.70657054E-02   2.00600815E+04   1.76165494E+04   1.15566365E+05   3.03882051E+04   3.74337357E+05   2.52640158E-04   8.07303738E-03   8.29927506E-03   8.27964154E-03   8.23660896E-03   3.42548205E+04   4.55079845E+04   4.61026415E+04   2.11229705E-21   2.83029435E+03   1.92821166E-05   6.92651083E-05   6.81215859E-05   2.36418685E-05
   6.91250000E+02   5.00000000E-01   5.00000000E-01   1.30988846E+05   4.81300485E+04   0.00000000E+00   0.00000000E+00   0.00000000E+00   6.40337638E+03   0.00000000E+00   3.83100141E-02   4.24433022E+04   1.64273239E-01   5.71897866E+05   3.65081691E-02   3.81060743E-02   3.73694523E-02   3.70649660E-02   2.00600825E+04   1.76165633E+04   1.15566365E+05   3.03679258E+04   3.75754865E+05   2.52609132E-04   8.07300940E-03   8.29791429E-03   8.27950813E-03   8.23544321E-03   3.42548144E+04   4.55176625E+04   4.61026415E+04   4.46022469E-21   2.83029435E+03   1.92821036E-05   6.92651083E-05   6.81215793E-05   2.36413714E-05
   7.08750000E+02   5.00000000E-01   5.00000000E-01   1.30988847E+05   4.81363673E+04   0.00000000E+00   0.00000000E+00   0.00000000E+00   6.40337636E+03   0.00000000E+00   3.83298739E-02   3.71303016E+04   1.67172428E-01   5.45997161E+05   3.65080961E-02   3.81060177E-02   3.73691126E-02   3.70642689E-02   2.00600836E+04   1.76165763E+04   1.15566365E+05   3.03483200E+04   3.77129770E+05   2.52581109E-04   8.07298468E-03   8.29663010E-03   8.27938839E-03   8.23433419E-03   3.42548087E+04   4.55266729E+04   4.61026415E+04   1.67381235E-06   2.83029436E+03   1.92820915E-05   6.92651083E-05   6.81215729E-05   2.36408624E-05
   7.26250000E+02   5.00000000E-01   5.00000000E-01   1.30988848E+05   4.81425498E+04   0.00000000E+00   0.00000000E+00   0.00000000E+00   6.40337633E+03   0.00000000E+00   3.83491336E-02   3.24581453E+04   1.70032853E-01   5.20210856E+05   3.65080273E-02   3.81059651E-02   3.73687923E-02   3.70636153E-02   2.00600846E+04   1.76165887E+04   1.15566365E+05   3.03294145E+04   3.78460405E+05   2.52555840E-04   8.07296412E-03   8.29542228E-03   8.27928616E-03   8.23328583E-03   3.42548034E+04   4.55349894E+04   4.61026415E+04   6.88095650E-06   2.83029436E+03   1.92820803E-05   6.92651083E-05   6.81215667E-05   2.36403420E-05
   7.43750000E+02   5.00000000E-01   5.00000000E-01   1.30988849E+05   4.81485695E+04   0.00000000E+00   0.00000000E+00   0.00000000E+00   6.40337631E+03   0.00000000E+00   3.83678822E-02   2.83501179E+04   1.72859338E-01   4.94620148E+05   3.65079630E-02   3.81059164E-02   3.73684927E-02   3.70630048E-02   2.00600857E+04   1.76166002E+04   1.15566365E+05   3.03112291E+04   3.79745723E+05   2.52533066E-04   8.07294844E-03   8.29428930E-03   8.27920434E-03   8.23230025E-03   3.42547985E+04   4.55426377E+04   4.61026415E+04   1.65590974E-05   2.83029436E+03   1.92820699E-05   6.92651083E-05   6.81215607E-05   2.36398112E-05
   7.61250000E+02   5.00000000E-01   5.00000000E-01   1.30988851E+05   4.81543892E+04   0.00000000E+00   0.00000000E+00   0.00000000E+00   6.40337629E+03   0.00000000E+00   3.83861753E-02   2.47377576E+04   1.75650685E-01   4.69286701E+05   3.65079034E-02   3.81058714E-02   3.73682144E-02   3.70624362E-02   2.00600868E+04   1.76166108E+04   1.15566365E+05   3.02937780E+04   3.80985107E+05   2.52512537E-04   8.07293816E-03   8.29322879E-03   8.27914516E-03   8.23137817E-03   3.42547938E+04   4.55496852E+04   4.61026415E+04   3.33639990E-05   2.83029436E+03   1.92820604E-05   6.92651083E-05   6.81215549E-05   2.36392706E-05
   7.78750000E+02   5.00000000E-01   5.00000000E-01   1.30988852E+05   4.81599617E+04   0.00000000E+00   0.00000000E+00   0.00000000E+00   6.40337626E+03   0.00000000E+00   3.84040246E-02   2.15606193E+04   1.78398422E-01   4.44261425E+05   3.65078484E-02   3.81058298E-02   3.73679573E-02   3.70619075E-02   2.00600880E+04   1.76166206E+04   1.15566365E+05   3.02770709E+04   3.82178194E+05   2.52494022E-04   8.07293369E-03   8.29223783E-03   8.27911027E-03   8.23051936E-03   3.42547896E+04   4.55562279E+04   4.61026415E+04   6.13081411E-05   2.83029437E+03   1.92820519E-05   6.92651083E-05   6.81215493E-05   2.36387208E-05
   7.96250000E+02   5.00000000E-01   5.00000000E-01   1.30988854E+05   4.81652334E+04   0.00000000E+00   0.00000000E+00   0.00000000E+00   6.40337623E+03   0.00000000E+00   3.84213914E-02   1.87658180E+04   1.81086129E-01   4.19592619E+05   3.65077980E-02   3.81057914E-02   3.73677211E-02   3.70614169E-02   2.00600891E+04   1.76166294E+04   1.15566365E+05   3.02611142E+04   3.83324717E+05   2.52477319E-04   8.07293538E-03   8.29131332E-03   8.27910105E-03   8.22972310E-03   3.42547856E+04   4.55623768E+04   4.61026415E+04   1.06415732E-04   2.83029437E+03   1.92820442E-05   6.92651083E-05   6.81215439E-05   2.36381626E-05