 TITLE = "Mineral Area" 
VARIABLES = "X"          "Y"              "Z"            "Forsterite"     "Fayalite"       "Brucite"        "Lizardite"      "Chrysotile"     "Hematite"       "Magnetite(am)"  "Saponite(Ca)"   "Saponite(K)"    "Saponite(Mg)"   "Saponite(Na)"   "Beidellite(Ca)" "Beidellite(K)"  "Beidellite(Mg)" "Beidellite(Na)" "Enstatite(alph" "Ferrosilite(al" "Anorthite"      "Albite(low)"    "Clinochlore"    "Sudoite"        "Montmor(MgCa)"  "Montmor(MgK)"   "Montmor(MgMg)"  "Montmor(MgNa)"  "Kaolinite"      "Tremolite"      "Pargasite"      "Anhydrite"      "Epidote"        "Scolecite"      "Pyrite"         "FeS(am)"        "Quartz(alpha)"  "Titanite"       "Rutile"         "Barite"         "Fluorite"       "Spessartine(al" "Andradite"      "Celestite"      "Zincite"        "Chalcocyanite"  "Chalcocite(alp"
 ZONE I=         200 , J=           1 , K=           1  F=POINT
   8.75000000E+00   5.00000000E-01   5.00000000E-01   1.30882364E+05   4.78957844E+04   1.21989052E-03   1.06251425E-03   9.74231559E-04   6.55052088E+03   5.22782162E-06   3.86973360E-02   8.40769823E-01   4.72202120E-02   1.77474712E+05   3.64770732E-02   3.81019526E-02   3.73266846E-02   3.70191111E-02   2.00600237E+04   1.76155819E+04   1.15276327E+05   2.95333627E+04   4.41700269E+05   0.00000000E+00   8.06482452E-03   8.29719601E-03   8.24944796E-03   8.18461591E-03   3.42528699E+04   4.49001415E+04   4.59779979E+04   0.00000000E+00   2.81545415E+03   1.91922481E-05   6.90918428E-05   6.79923069E-05   2.35933642E-05   3.52255075E+01   4.24384234E+01   1.48080073E+03   3.18127320E+01   3.38307426E+02   3.85412061E+01   3.97154285E+01   5.65567333E+02   3.90435151E+01   5.60033756E+01
   2.62500000E+01   5.00000000E-01   5.00000000E-01   1.30882364E+05   4.78978770E+04   1.21988830E-03   9.48727885E-04   8.94066623E-04   6.55052085E+03   5.22831511E-06   3.95587982E-02   1.69800364E+00   5.19623392E-02   4.75225384E+05   3.64770787E-02   3.81019605E-02   3.73267102E-02   3.70191781E-02   2.00600232E+04   1.76156205E+04   1.15276327E+05   2.95836184E+04   4.35231269E+05   0.00000000E+00   8.06485300E-03   8.29726542E-03   8.24957050E-03   8.18510547E-03   3.42528728E+04   4.49210728E+04   4.59779979E+04   0.00000000E+00   2.81545415E+03   1.91922553E-05   6.90918428E-05   6.79923069E-05   2.36090523E-05   3.52254978E+01   4.24384301E+01   1.45129816E+03   3.18127309E+01   3.38307426E+02   3.85412061E+01   3.97154284E+01   5.65567355E+02   3.90435151E+01   5.60021251E+01
   4.37500000E+01   5.00000000E-01   5.00000000E-01   1.30882363E+05   4.78999689E+04   1.21988739E-03   8.90679163E-04   8.52084779E-04   6.55052084E+03   5.22864330E-06   4.01181829E-02   2.15219987E+00   5.51213483E-02   5.22580400E+05   3.64771316E-02   3.81020322E-02   3.73269557E-02   3.70198030E-02   2.00600230E+04   1.76156545E+04   1.15276327E+05   2.97160261E+04   4.28101935E+05   0.00000000E+00   8.06502098E-03   8.29765244E-03   8.25029235E-03   8.18790450E-03   3.42528869E+04   4.49357731E+04   4.59779979E+04   0.00000000E+00   2.81545415E+03   1.91922873E-05   6.90918428E-05   6.79923069E-05   2.36226071E-05   3.52254916E+01   4.24384365E+01   1.43958276E+03   3.18127299E+01   3.38307426E+02   3.85412061E+01   3.97154284E+01   5.65567356E+02   3.90435151E+01   5.60021250E+01
   6.12500000E+01   5.00000000E-01   5.00000000E-01   1.30882363E+05   4.79021534E+04   1.21988697E-03   8.60891596E-04   8.30289218E-04   6.55052084E+03   5.22892973E-06   4.05803141E-02   2.46573206E+00   5.77939875E-02   6.44354936E+05   3.64772892E-02   3.81022340E-02   3.73276861E-02   3.70216072E-02   2.00600230E+04   1.76156873E+04   1.15276327E+05   2.99105016E+04   4.16939712E+05   0.00000000E+00   8.06541507E-03   8.29850379E-03   8.25198428E-03   8.19424457E-03   3.42529136E+04   4.49479092E+04   4.59779979E+04   0.00000000E+00   2.81545415E+03   1.91923468E-05   6.90918428E-05   6.79923069E-05   2.36337404E-05   3.52254889E+01   4.24384424E+01   1.43461377E+03   3.18127289E+01   3.38307426E+02   3.85412061E+01   3.97154284E+01   5.65567377E+02   3.90435151E+01   5.60021250E+01
   7.87500000E+01   5.00000000E-01   5.00000000E-01   1.30882363E+05   4.79045843E+04   1.21988676E-03   8.45913597E-04   8.19330199E-04   6.55052084E+03   5.22922124E-06   4.10652897E-02   2.80600513E+00   6.06755972E-02   8.20913048E+05   3.64775828E-02   3.81025871E-02   3.73290440E-02   3.70248551E-02   2.00600231E+04   1.76157199E+04   1.15276327E+05   3.01304068E+04   4.03803756E+05   0.00000000E+00   8.06603101E-03   8.29974371E-03   8.25462619E-03   8.20378334E-03   3.42529507E+04   4.49635201E+04   4.59779979E+04   0.00000000E+00   2.81545415E+03   1.91924280E-05   6.90918428E-05   6.79923069E-05   2.36423927E-05   3.52254879E+01   4.24384478E+01   1.43235927E+03   3.18127281E+01   3.38307426E+02   3.85412061E+01   3.97154284E+01   5.65567415E+02   3.90435151E+01   5.60021250E+01
   9.62500000E+01   5.00000000E-01   5.00000000E-01   1.30882363E+05   4.79073074E+04   1.21988665E-03   8.37988707E-04   8.13594145E-04   6.55052083E+03   5.22953153E-06   4.15772806E-02   3.15892045E+00   6.37988039E-02   1.00200539E+06   3.64780011E-02   3.81030579E-02   3.73309760E-02   3.70293180E-02   2.00600232E+04   1.76157519E+04   1.15276327E+05   3.03427776E+04   3.90977831E+05   0.00000000E+00   8.06679246E-03   8.30116057E-03   8.25788934E-03   8.21509036E-03   3.42529941E+04   4.49834881E+04   4.59779979E+04   0.00000000E+00   2.81545415E+03   1.91925213E-05   6.90918428E-05   6.79923069E-05   2.36488216E-05   3.52254877E+01   4.24384528E+01   1.43125045E+03   3.18127273E+01   3.38307426E+02   3.85412061E+01   3.97154284E+01   5.65567465E+02   3.90435151E+01   5.60021250E+01
   1.13750000E+02   5.00000000E-01   5.00000000E-01   1.30882363E+05   4.79103064E+04   1.21988659E-03   8.33458652E-04   8.10388309E-04   6.55052082E+03   5.22986389E-06   4.20891426E-02   3.46899298E+00   6.70002150E-02   1.15509331E+06   3.64784864E-02   3.81035639E-02   3.73332137E-02   3.70342864E-02   2.00600234E+04   1.76157833E+04   1.15276327E+05   3.05242026E+04   3.80042223E+05   0.00000000E+00   8.06758570E-03   8.30250538E-03   8.26128525E-03   8.22630354E-03   3.42530374E+04   4.50065113E+04   4.59779979E+04   0.00000000E+00   2.81545415E+03   1.91926141E-05   6.90918428E-05   6.79923069E-05   2.36534481E-05   3.52254878E+01   4.24384572E+01   1.43064591E+03   3.18127265E+01   3.38307426E+02   3.85412061E+01   3.97154284E+01   5.65567524E+02   3.90435151E+01   5.60021250E+01
   1.31250000E+02   5.00000000E-01   5.00000000E-01   1.30882363E+05   4.79135492E+04   1.21988658E-03   8.30693992E-04   8.08503810E-04   6.55052082E+03   5.23021958E-06   4.25781089E-02   3.69525797E+00   7.01298541E-02   1.26965081E+06   3.64789731E-02   3.81040269E-02   3.73354534E-02   3.70390315E-02   2.00600237E+04   1.76158140E+04   1.15276327E+05   3.06655147E+04   3.71586417E+05   0.00000000E+00   8.06832056E-03   8.30361552E-03   8.26442748E-03   8.23608625E-03   3.42530758E+04   4.50309565E+04   4.59779979E+04   0.00000000E+00   2.81545415E+03   1.91926973E-05   6.90918428E-05   6.79923069E-05   2.36567038E-05   3.52254881E+01   4.24384611E+01   1.43027209E+03   3.18127259E+01   3.38307426E+02   3.85412061E+01   3.97154284E+01   5.65567590E+02   3.90435151E+01   5.60021250E+01
   1.48750000E+02   5.00000000E-01   5.00000000E-01   1.30882363E+05   4.79170069E+04   1.21988659E-03   8.28968853E-04   8.07400918E-04   6.55052081E+03   5.23059986E-06   4.30324372E-02   3.82258754E+00   7.30987581E-02   1.34779796E+06   3.64794186E-02   3.81044057E-02   3.73374982E-02   3.70431271E-02   2.00600239E+04   1.76158439E+04   1.15276327E+05   3.07683791E+04   3.65500591E+05   0.00000000E+00   8.06895495E-03   8.30444213E-03   8.26713608E-03   8.24392345E-03   3.42531068E+04   4.50555718E+04   4.59779979E+04   0.00000000E+00   2.81545415E+03   1.91927669E-05   6.90918428E-05   6.79923069E-05   2.36589535E-05   3.52254883E+01   4.24384644E+01   1.43000779E+03   3.18127252E+01   3.38307426E+02   3.85412061E+01   3.97154284E+01   5.65567661E+02   3.90435151E+01   5.60021250E+01
   1.66250000E+02   5.00000000E-01   5.00000000E-01   1.30882363E+05   4.79206559E+04   1.21988662E-03   8.27936582E-04   8.06822349E-04   6.55052080E+03   5.23100600E-06   4.34480584E-02   3.85528718E+00   7.58651218E-02   1.39650122E+06   3.64798063E-02   3.81046925E-02   3.73392735E-02   3.70464497E-02   2.00600242E+04   1.76158730E+04   1.15276327E+05   3.08393701E+04   3.61369693E+05   0.00000000E+00   8.06948380E-03   8.30500908E-03   8.26939007E-03   8.24987418E-03   3.42531305E+04   4.50795382E+04   4.59779979E+04   0.00000000E+00   2.81545415E+03   1.91928229E-05   6.90918428E-05   6.79923069E-05   2.36604754E-05   3.52254884E+01   4.24384672E+01   1.42979744E+03   3.18127247E+01   3.38307426E+02   3.85412061E+01   3.97154284E+01   5.65567738E+02   3.90435151E+01   5.60021250E+01
   1.83750000E+02   5.00000000E-01   5.00000000E-01   1.30882364E+05   4.79244751E+04   1.21988667E-03   8.27410168E-04   8.06629840E-04   6.55052080E+03   5.23143913E-06   4.38247590E-02   3.80781645E+00   7.84136668E-02   1.42336927E+06   3.64801371E-02   3.81048980E-02   3.73407837E-02   3.70490568E-02   2.00600244E+04   1.76159012E+04   1.15276327E+05   3.08859283E+04   3.58727634E+05   0.00000000E+00   8.06992075E-03   8.30536841E-03   8.27124848E-03   8.25425304E-03   3.42531478E+04   4.51023276E+04   4.59779979E+04   0.00000000E+00   2.81545415E+03   1.91928673E-05   6.90918428E-05   6.79923069E-05   2.36614705E-05   3.52254885E+01   4.24384695E+01   1.42961471E+03   3.18127241E+01   3.38307426E+02   3.85412061E+01   3.97154284E+01   5.65567818E+02   3.90435151E+01   5.60021250E+01
   2.01250000E+02   5.00000000E-01   5.00000000E-01   1.30882364E+05   4.79284442E+04   1.21988673E-03   8.27275771E-04   8.06739565E-04   6.55052079E+03   5.23190021E-06   4.41640722E-02   3.69813718E+00   8.07432035E-02   1.43490723E+06   3.64804198E-02   3.81050389E-02   3.73420700E-02   3.70510775E-02   2.00600247E+04   1.76159287E+04   1.15276327E+05   3.09145291E+04   3.57170334E+05   0.00000000E+00   8.07028510E-03   8.30557401E-03   8.27279453E-03   8.25742519E-03   3.42531601E+04   4.51235932E+04   4.59779979E+04   0.00000000E+00   2.81545416E+03   1.91929024E-05   6.90918428E-05   6.79923069E-05   2.36620798E-05   3.52254884E+01   4.24384712E+01   1.42944683E+03   3.18127236E+01   3.38307426E+02   3.85412061E+01   3.97154284E+01   5.65567902E+02   3.90435151E+01   5.60021250E+01
   2.18750000E+02   5.00000000E-01   5.00000000E-01   1.30882364E+05   4.79325433E+04   1.21988680E-03   8.27457919E-04   8.07096185E-04   6.55052078E+03   5.23239010E-06   4.44683683E-02   3.54395329E+00   8.28607680E-02   1.43608952E+06   3.64806651E-02   3.81051318E-02   3.73431824E-02   3.70526497E-02   2.00600250E+04   1.76159553E+04   1.15276327E+05   3.09301911E+04   3.56385491E+05   0.00000000E+00   8.07059526E-03   8.30567093E-03   8.27410746E-03   8.25971294E-03   3.42531685E+04   4.51431152E+04   4.59779979E+04   0.00000000E+00   2.81545416E+03   1.91929305E-05   6.90918428E-05   6.79923069E-05   2.36624013E-05   3.52254882E+01   4.24384724E+01   1.42928743E+03   3.18127232E+01   3.38307426E+02   3.85412061E+01   3.97154284E+01   5.65567989E+02   3.90435151E+01   5.60021250E+01
   2.36250000E+02   5.00000000E-01   5.00000000E-01   1.30882364E+05   4.79367537E+04   1.21988687E-03   8.27903835E-04   8.07661191E-04   6.55052077E+03   5.23290963E-06   4.47404699E-02   3.36086894E+00   8.47787836E-02   1.43048918E+06   3.64808831E-02   3.81051904E-02   3.73441673E-02   3.70538930E-02   2.00600253E+04   1.76159811E+04   1.15276327E+05   3.09365781E+04   3.56145910E+05   0.00000000E+00   8.07086634E-03   8.30569312E-03   8.27525214E-03   8.26136831E-03   3.42531741E+04   4.51607752E+04   4.59779979E+04   0.00000000E+00   2.81545416E+03   1.91929536E-05   6.90918428E-05   6.79923069E-05   2.36625037E-05   3.52254878E+01   4.24384730E+01   1.42913329E+03   3.18127227E+01   3.38307426E+02   3.85412061E+01   3.97154284E+01   5.65568079E+02   3.90435151E+01   5.60021250E+01
   2.53750000E+02   5.00000000E-01   5.00000000E-01   1.30882364E+05   4.79410579E+04   1.21988696E-03   8.28575070E-04   8.08406686E-04   6.55052077E+03   5.23345969E-06   4.49834497E-02   3.16167407E+00   8.65133116E-02   1.42056798E+06   3.64810818E-02   3.81052250E-02   3.73450625E-02   3.70549004E-02   2.00600257E+04   1.76160060E+04   1.15276327E+05   3.09362785E+04   3.56291884E+05   0.00000000E+00   8.07110970E-03   8.30566471E-03   8.27627743E-03   8.26257533E-03   3.42531777E+04   4.51765415E+04   4.59779979E+04   0.00000000E+00   2.81545416E+03   1.91929729E-05   6.90918428E-05   6.79923069E-05   2.36624352E-05   3.52254873E+01   4.24384732E+01   1.42898277E+03   3.18127224E+01   3.38307426E+02   3.85412061E+01   3.97154284E+01   5.65568170E+02   3.90435151E+01   5.60021250E+01
   2.71250000E+02   5.00000000E-01   5.00000000E-01   1.30882364E+05   4.79454407E+04   1.21988705E-03   8.29442790E-04   8.09311894E-04   6.55052076E+03   5.23404130E-06   4.52004850E-02   2.95626410E+00   8.80826639E-02   1.40796501E+06   3.64812675E-02   3.81052429E-02   3.73458962E-02   3.70557401E-02   2.00600260E+04   1.76160301E+04   1.15276327E+05   3.09310908E+04   3.56713406E+05   0.00000000E+00   8.07133348E-03   8.30560217E-03   8.27721818E-03   8.26346241E-03   3.42531799E+04   4.51904540E+04   4.59779979E+04   0.00000000E+00   2.81545416E+03   1.91929895E-05   6.90918428E-05   6.79923069E-05   2.36622309E-05   3.52254867E+01   4.24384728E+01   1.42883505E+03   3.18127220E+01   3.38307426E+02   3.85412061E+01   3.97154284E+01   5.65568264E+02   3.90435151E+01   5.60021250E+01
   2.88750000E+02   5.00000000E-01   5.00000000E-01   1.30882364E+05   4.79498888E+04   1.21988715E-03   8.30485373E-04   8.10361404E-04   6.55052075E+03   5.23465566E-06   4.53947347E-02   2.75189482E+00   8.95061922E-02   1.39373320E+06   3.64814444E-02   3.81052492E-02   3.73466884E-02   3.70564590E-02   2.00600264E+04   1.76160533E+04   1.15276327E+05   3.09222550E+04   3.57335643E+05   0.00000000E+00   8.07154317E-03   8.30551641E-03   8.27809797E-03   8.26411587E-03   3.42531810E+04   4.52026099E+04   4.59779979E+04   0.00000000E+00   2.81545416E+03   1.91930041E-05   6.90918428E-05   6.79923069E-05   2.36619167E-05   3.52254859E+01   4.24384720E+01   1.42868972E+03   3.18127216E+01   3.38307426E+02   3.85412061E+01   3.97154284E+01   5.65568360E+02   3.90435151E+01   5.60021250E+01
   3.06250000E+02   5.00000000E-01   5.00000000E-01   1.30882364E+05   4.79543909E+04   1.21988726E-03   8.31687533E-04   8.11544590E-04   6.55052074E+03   5.23530420E-06   4.55692349E-02   2.55358871E+00   9.08032471E-02   1.37851845E+06   3.64816153E-02   3.81052471E-02   3.73474521E-02   3.70570878E-02   2.00600268E+04   1.76160758E+04   1.15276327E+05   3.09106258E+04   3.58108078E+05   0.00000000E+00   8.07174229E-03   8.30541446E-03   8.27893184E-03   8.26459163E-03   3.42531813E+04   4.52131481E+04   4.59779979E+04   0.00000000E+00   2.81545416E+03   1.91930173E-05   6.90918428E-05   6.79923069E-05   2.36615123E-05   3.52254850E+01   4.24384708E+01   1.42854663E+03   3.18127213E+01   3.38307426E+02   3.85412061E+01   3.97154284E+01   5.65568457E+02   3.90435151E+01   5.60021250E+01
   3.23750000E+02   5.00000000E-01   5.00000000E-01   1.30882364E+05   4.79589379E+04   1.21988737E-03   8.33040266E-04   8.12855672E-04   6.55052073E+03   5.23598862E-06   4.57268168E-02   2.36458221E+00   9.19923400E-02   1.36269131E+06   3.64817819E-02   3.81052387E-02   3.73481948E-02   3.70576450E-02   2.00600271E+04   1.76160974E+04   1.15276327E+05   3.08967957E+04   3.58996704E+05   0.00000000E+00   8.07193288E-03   8.30530074E-03   8.27972858E-03   8.26492439E-03   3.42531811E+04   4.52222342E+04   4.59779979E+04   0.00000000E+00   2.81545416E+03   1.91930292E-05   6.90918428E-05   6.79923069E-05   2.36610333E-05   3.52254840E+01   4.24384691E+01   1.42840573E+03   3.18127210E+01   3.38307426E+02   3.85412061E+01   3.97154284E+01   5.65568557E+02   3.90435151E+01   5.60021250E+01
   3.41250000E+02   5.00000000E-01   5.00000000E-01   1.30882364E+05   4.79635226E+04   1.21988749E-03   8.34540960E-04   8.14293906E-04   6.55052072E+03   5.23671086E-06   4.58700507E-02   2.18675151E+00   9.30905397E-02   1.34644344E+06   3.64819450E-02   3.81052250E-02   3.73489199E-02   3.70581406E-02   2.00600275E+04   1.76161182E+04   1.15276327E+05   3.08811823E+04   3.59978478E+05   0.00000000E+00   8.07211599E-03   8.30517794E-03   8.28049258E-03   8.26513464E-03   3.42531804E+04   4.52300462E+04   4.59779979E+04   0.00000000E+00   2.81545416E+03   1.91930402E-05   6.90918428E-05   6.79923069E-05   2.36604919E-05   3.52254829E+01   4.24384671E+01   1.42826702E+03   3.18127208E+01   3.38307426E+02   3.85412061E+01   3.97154284E+01   5.65568658E+02   3.90435151E+01   5.60021250E+01
   3.58750000E+02   5.00000000E-01   5.00000000E-01   1.30882364E+05   4.79681392E+04   1.21988762E-03   8.36193199E-04   8.15863523E-04   6.55052071E+03   5.23747314E-06   4.60012171E-02   2.02098534E+00   9.41131188E-02   1.32985830E+06   3.64821046E-02   3.81052067E-02   3.73496280E-02   3.70585788E-02   2.00600279E+04   1.76161383E+04   1.15276327E+05   3.08640890E+04   3.61037394E+05   0.00000000E+00   8.07229194E-03   8.30504773E-03   8.28122529E-03   8.26523393E-03   3.42531792E+04   4.52367622E+04   4.59779979E+04   0.00000000E+00   2.81545416E+03   1.91930502E-05   6.90918428E-05   6.79923069E-05   2.36598987E-05   3.52254817E+01   4.24384647E+01   1.42813058E+03   3.18127205E+01   3.38307426E+02   3.85412061E+01   3.97154284E+01   5.65568761E+02   3.90435151E+01   5.60021250E+01
   3.76250000E+02   5.00000000E-01   5.00000000E-01   1.30882365E+05   4.79727834E+04   1.21988775E-03   8.38006155E-04   8.17573334E-04   6.55052070E+03   5.23827789E-06   4.61223054E-02   1.86749166E+00   9.50734465E-02   1.31296218E+06   3.64822605E-02   3.81051842E-02   3.73503178E-02   3.70589607E-02   2.00600284E+04   1.76161577E+04   1.15276327E+05   3.08457476E+04   3.62161724E+05   0.00000000E+00   8.07246068E-03   8.30491116E-03   8.28192650E-03   8.26522874E-03   3.42531776E+04   4.52425504E+04   4.59779979E+04   0.00000000E+00   2.81545416E+03   1.91930593E-05   6.90918428E-05   6.79923069E-05   2.36592620E-05   3.52254803E+01   4.24384619E+01   1.42799646E+03   3.18127203E+01   3.38307426E+02   3.85412061E+01   3.97154284E+01   5.65568866E+02   3.90435151E+01   5.60021250E+01
   3.93750000E+02   5.00000000E-01   5.00000000E-01   1.30882365E+05   4.79774518E+04   1.21988790E-03   8.39993718E-04   8.19436095E-04   6.55052069E+03   5.23912776E-06   4.62350333E-02   1.72603531E+00   9.59830805E-02   1.29575781E+06   3.64824121E-02   3.81051576E-02   3.73509872E-02   3.70592860E-02   2.00600288E+04   1.76161764E+04   1.15276327E+05   3.08263466E+04   3.63342167E+05   0.00000000E+00   8.07262198E-03   8.30476902E-03   8.28259520E-03   8.26512337E-03   3.42531757E+04   4.52475627E+04   4.59779979E+04   0.00000000E+00   2.81545417E+03   1.91930675E-05   6.90918428E-05   6.79923069E-05   2.36585891E-05   3.52254790E+01   4.24384588E+01   1.42786476E+03   3.18127201E+01   3.38307426E+02   3.85412061E+01   3.97154284E+01   5.65568973E+02   3.90435151E+01   5.60021250E+01
   4.11250000E+02   5.00000000E-01   5.00000000E-01   1.30882365E+05   4.79821421E+04   1.21988805E-03   8.42173594E-04   8.21467838E-04   6.55052067E+03   5.24002559E-06   4.63408786E-02   1.59611042E+00   9.68519708E-02   1.27824216E+06   3.64825591E-02   3.81051271E-02   3.73516339E-02   3.70595541E-02   2.00600293E+04   1.76161945E+04   1.15276327E+05   3.08060494E+04   3.64570745E+05   0.00000000E+00   8.07277556E-03   8.30462200E-03   8.28323025E-03   8.26492151E-03   3.42531734E+04   4.52519319E+04   4.59779979E+04   0.00000000E+00   2.81545417E+03   1.91930748E-05   6.90918428E-05   6.79923069E-05   2.36578863E-05   3.52254775E+01   4.24384555E+01   1.42773554E+03   3.18127199E+01   3.38307426E+02   3.85412061E+01   3.97154284E+01   5.65569082E+02   3.90435151E+01   5.60021250E+01
   4.28750000E+02   5.00000000E-01   5.00000000E-01   1.30882365E+05   4.79868520E+04   1.21988821E-03   8.44566547E-04   8.23687306E-04   6.55052066E+03   5.24097441E-06   4.64411097E-02   1.47705681E+00   9.76886633E-02   1.26041104E+06   3.64827009E-02   3.81050929E-02   3.73522560E-02   3.70597648E-02   2.00600297E+04   1.76162119E+04   1.15276327E+05   3.07850028E+04   3.65840301E+05   0.00000000E+00   8.07292120E-03   8.30447075E-03   8.28383069E-03   8.26462715E-03   3.42531707E+04   4.52557731E+04   4.59779979E+04   5.11938369E-23   2.81545417E+03   1.91930812E-05   6.90918428E-05   6.79923069E-05   2.36571585E-05   3.52254760E+01   4.24384518E+01   1.42760891E+03   3.18127197E+01   3.38307426E+02   3.85412061E+01   3.97154284E+01   5.65569194E+02   3.90435151E+01   5.60021250E+01
   4.46250000E+02   5.00000000E-01   5.00000000E-01   1.30882366E+05   4.79915794E+04   1.21988837E-03   8.47195874E-04   8.26115550E-04   6.55052065E+03   5.24197741E-06   4.65368053E-02   1.36813348E+00   9.85004150E-02   1.24225577E+06   3.64828371E-02   3.81050552E-02   3.73528513E-02   3.70599181E-02   2.00600302E+04   1.76162288E+04   1.15276327E+05   3.07633406E+04   3.67144383E+05   0.00000000E+00   8.07305872E-03   8.30431593E-03   8.28439575E-03   8.26424455E-03   3.42531677E+04   4.52591863E+04   4.59779979E+04   0.00000000E+00   2.81545417E+03   1.91930868E-05   6.90918428E-05   6.79923069E-05   2.36564103E-05   3.52254745E+01   4.24384479E+01   1.42748492E+03   3.18127195E+01   3.38307426E+02   3.85412061E+01   3.97154284E+01   5.65569307E+02   3.90435151E+01   5.60021249E+01
   4.63750000E+02   5.00000000E-01   5.00000000E-01   1.30882366E+05   4.79963221E+04   1.21988855E-03   8.50087095E-04   8.28775709E-04   6.55052063E+03   5.24303801E-06   4.66288605E-02   1.26856393E+00   9.92931945E-02   1.22375831E+06   3.64829673E-02   3.81050141E-02   3.73534180E-02   3.70600145E-02   2.00600307E+04   1.76162451E+04   1.15276327E+05   3.07411835E+04   3.68477295E+05   0.00000000E+00   8.07318796E-03   8.30415815E-03   8.28492482E-03   8.26377807E-03   3.42531644E+04   4.52622599E+04   4.59779979E+04   3.80530770E-09   2.81545417E+03   1.91930914E-05   6.90918428E-05   6.79923069E-05   2.36556455E-05   3.52254729E+01   4.24384439E+01   1.42736367E+03   3.18127194E+01   3.38307426E+02   3.85412061E+01   3.97154284E+01   5.65569423E+02   3.90435151E+01   5.60021249E+01
   4.81250000E+02   5.00000000E-01   5.00000000E-01   1.30882366E+05   4.80010775E+04   1.21988874E-03   8.53267897E-04   8.31692990E-04   6.55052061E+03   5.24415984E-06   4.67179845E-02   1.17756611E+00   1.00071614E-01   1.20488992E+06   3.64830909E-02   3.81049698E-02   3.73539541E-02   3.70600539E-02   2.00600313E+04   1.76162609E+04   1.15276327E+05   3.07186396E+04   3.69834110E+05   0.00000000E+00   8.07330878E-03   8.30399797E-03   8.28541731E-03   8.26323192E-03   3.42531608E+04   4.52650718E+04   4.59779979E+04   2.39897872E-08   2.81545417E+03   1.91930952E-05   6.90918428E-05   6.79923069E-05   2.36548673E-05   3.52254712E+01   4.24384396E+01   1.42724523E+03   3.18127192E+01   3.38307426E+02   3.85412061E+01   3.97154284E+01   5.65569542E+02   3.90435151E+01   5.60021249E+01
   4.98750000E+02   5.00000000E-01   5.00000000E-01   1.30882367E+05   4.80058424E+04   1.21988894E-03   8.56768321E-04   8.34894843E-04   6.55052060E+03   5.24534675E-06   4.68046996E-02   1.09437510E+00   1.00838881E-01   1.18561531E+06   3.64832076E-02   3.81049226E-02   3.73544575E-02   3.70600366E-02   2.00600318E+04   1.76162761E+04   1.15276327E+05   3.06958054E+04   3.71210556E+05   0.00000000E+00   8.07342104E-03   8.30383591E-03   8.28587267E-03   8.26261014E-03   3.42531569E+04   4.52676892E+04   4.59779979E+04   5.51186742E-08   2.81545417E+03   1.91930982E-05   6.90918428E-05   6.79923069E-05   2.36540786E-05   3.52254696E+01   4.24384351E+01   1.42712966E+03   3.18127191E+01   3.38307426E+02   3.85412061E+01   3.97154284E+01   5.65569663E+02   3.90435151E+01   5.60021249E+01
   5.16250000E+02   5.00000000E-01   5.00000000E-01   1.30882367E+05   4.80106134E+04   1.21988915E-03   8.60621215E-04   8.38411368E-04   6.55052058E+03   5.24660288E-06   4.68893528E-02   1.01826226E+00   1.01596863E-01   1.16590077E+06   3.64833169E-02   3.81048726E-02   3.73549264E-02   3.70599630E-02   2.00600323E+04   1.76162909E+04   1.15276327E+05   3.06727686E+04   3.72602776E+05   0.00000000E+00   8.07352465E-03   8.30367244E-03   8.28629052E-03   8.26191691E-03   3.42531528E+04   4.52701656E+04   4.59779979E+04   1.02445786E-07   2.81545418E+03   1.91931002E-05   6.90918428E-05   6.79923069E-05   2.36532818E-05   3.52254679E+01   4.24384305E+01   1.42701704E+03   3.18127190E+01   3.38307426E+02   3.85412061E+01   3.97154284E+01   5.65569787E+02   3.90435151E+01   5.60021249E+01
   5.33750000E+02   5.00000000E-01   5.00000000E-01   1.30882367E+05   4.80153866E+04   1.21988937E-03   8.64862944E-04   8.42275945E-04   6.55052056E+03   5.24793268E-06   4.69721441E-02   9.48550785E-01   1.02346304E-01   1.14572274E+06   3.64834185E-02   3.81048200E-02   3.73553592E-02   3.70598340E-02   2.00600329E+04   1.76163052E+04   1.15276327E+05   3.06496110E+04   3.74007060E+05   0.00000000E+00   8.07361960E-03   8.30350809E-03   8.28667083E-03   8.26115695E-03   3.42531484E+04   4.52725385E+04   4.59779979E+04   1.73757672E-07   2.81545418E+03   1.91931015E-05   6.90918428E-05   6.79923069E-05   2.36524792E-05   3.52254662E+01   4.24384258E+01   1.42690743E+03   3.18127188E+01   3.38307426E+02   3.85412061E+01   3.97154284E+01   5.65569913E+02   3.90435151E+01   5.60021249E+01
   5.51250000E+02   5.00000000E-01   5.00000000E-01   1.30882368E+05   4.80201582E+04   1.21988960E-03   8.69534316E-04   8.46526048E-04   6.55052054E+03   5.24934090E-06   4.70531681E-02   8.84625832E-01   1.03087173E-01   1.12507274E+06   3.64835122E-02   3.81047650E-02   3.73557553E-02   3.70596518E-02   2.00600335E+04   1.76163190E+04   1.15276327E+05   3.06264116E+04   3.75419645E+05   0.00000000E+00   8.07370600E-03   8.30334338E-03   8.28701417E-03   8.26033584E-03   3.42531437E+04   4.52748285E+04   4.59779979E+04   2.80639938E-07   2.81545418E+03   1.91931019E-05   6.90918428E-05   6.79923069E-05   2.36516726E-05   3.52254645E+01   4.24384210E+01   1.42680088E+03   3.18127187E+01   3.38307426E+02   3.85412061E+01   3.97154284E+01   5.65570043E+02   3.90435151E+01   5.60021249E+01
   5.68750000E+02   5.00000000E-01   5.00000000E-01   1.30882369E+05   4.80249239E+04   1.21988985E-03   8.74681660E-04   8.51204208E-04   6.55052052E+03   5.25083269E-06   4.71324611E-02   8.25938002E-01   1.03819045E-01   1.10395654E+06   3.64835979E-02   3.81047081E-02   3.73561147E-02   3.70594194E-02   2.00600341E+04   1.76163323E+04   1.15276327E+05   3.06032472E+04   3.76836676E+05   0.00000000E+00   8.07378413E-03   8.30317890E-03   8.28732173E-03   8.25946008E-03   3.42531389E+04   4.52770407E+04   4.59779979E+04   4.40407032E-07   2.81545418E+03   1.91931015E-05   6.90918428E-05   6.79923069E-05   2.36508638E-05   3.52254628E+01   4.24384160E+01   1.42669745E+03   3.18127187E+01   3.38307426E+02   3.85412061E+01   3.97154284E+01   5.65570175E+02   3.90435151E+01   5.60021249E+01
   5.86250000E+02   5.00000000E-01   5.00000000E-01   1.30882369E+05   4.80296794E+04   1.21989011E-03   8.80357973E-04   8.56359046E-04   6.55052050E+03   5.25241357E-06   4.72100376E-02   7.72000061E-01   1.04541401E-01   1.08238769E+06   3.64836760E-02   3.81046495E-02   3.73564383E-02   3.70591408E-02   2.00600348E+04   1.76163452E+04   1.15276327E+05   3.05801920E+04   3.78254329E+05   0.00000000E+00   8.07385439E-03   8.30301525E-03   8.28759527E-03   8.25853683E-03   3.42531339E+04   4.52791691E+04   4.59779979E+04   6.79060919E-07   2.81545419E+03   1.91931004E-05   6.90918428E-05   6.79923069E-05   2.36500542E-05   3.52254611E+01   4.24384110E+01   1.42659720E+03   3.18127186E+01   3.38307426E+02   3.85412061E+01   3.97154284E+01   5.65570311E+02   3.90435151E+01   5.60021249E+01
   6.03750000E+02   5.00000000E-01   5.00000000E-01   1.30882370E+05   4.80344198E+04   1.21989039E-03   8.86624104E-04   8.62046356E-04   6.55052047E+03   5.25408953E-06   4.72859074E-02   7.22378830E-01   1.05253750E-01   1.06037840E+06   3.64837465E-02   3.81045897E-02   3.73567274E-02   3.70588202E-02   2.00600354E+04   1.76163576E+04   1.15276327E+05   3.05573155E+04   3.79669038E+05   0.00000000E+00   8.07391728E-03   8.30285300E-03   8.28783691E-03   8.25757343E-03   3.42531287E+04   4.52812026E+04   4.59779979E+04   1.03585562E-06   2.81545419E+03   1.91930987E-05   6.90918428E-05   6.79923069E-05   2.36492451E-05   3.52254593E+01   4.24384060E+01   1.42650018E+03   3.18127185E+01   3.38307426E+02   3.85412061E+01   3.97154284E+01   5.65570449E+02   3.90435151E+01   5.60021249E+01
   6.21250000E+02   5.00000000E-01   5.00000000E-01   1.30882371E+05   4.80391395E+04   1.21989068E-03   8.93550002E-04   8.68330249E-04   6.55052045E+03   5.25586705E-06   4.73600695E-02   6.76685124E-01   1.05955544E-01   1.03793160E+06   3.64838098E-02   3.81045289E-02   3.73569832E-02   3.70584616E-02   2.00600361E+04   1.76163696E+04   1.15276327E+05   3.05346795E+04   3.81077723E+05   0.00000000E+00   8.07397328E-03   8.30269265E-03   8.28804877E-03   8.25657676E-03   3.42531234E+04   4.52831301E+04   4.59779979E+04   1.57038491E-06   2.81545419E+03   1.91930963E-05   6.90918428E-05   6.79923069E-05   2.36484375E-05   3.52254576E+01   4.24384009E+01   1.42640643E+03   3.18127184E+01   3.38307426E+02   3.85412061E+01   3.97154285E+01   5.65570591E+02   3.90435151E+01   5.60021249E+01