 TITLE = "Mineral Area" 
VARIABLES = "X"          "Y"              "Z"            "Forsterite"     "Fayalite"       "Brucite"        "Lizardite"      "Chrysotile"     "Saponite(Mg)"   "Enstatite(alph" "Ferrosilite(al" "Anorthite"      "Albite(low)"    "Clinochlore"    "Sudoite"        "Montmorillonit" "Kaolinite"      "Tremolite"      "Pargasite"      "Anhydrite"      "Epidote"        "Scolecite"      "Pyrite"         "FeS(am)"        "Quartz(alpha)" 
 ZONE I=         100 , J=           1 , K=           1  F=POINT
   1.75000000E+01   5.00000000E-01   5.00000000E-01   1.09464618E+05   4.52768778E+04   3.77198882E-04   1.77221884E-06   1.51935845E-06   0.00000000E+00   2.00601601E+04   1.76160802E+04   6.31641789E+04   3.19052340E+04   1.51587052E+06   1.61939145E-02   3.96335625E-04   2.03493849E-01   4.54417065E+04   4.64863082E+04   2.32229123E-04   3.47617422E+02   2.24351672E+02   3.79437769E-05   4.38357890E-05   2.36331233E-05
   5.25000000E+01   5.00000000E-01   5.00000000E-01   1.09464618E+05   4.62816346E+04   3.77199016E-04   2.06144339E-06   1.71494435E-06   0.00000000E+00   2.00601616E+04   1.76165226E+04   6.31641790E+04   3.46127547E+04   1.38287273E+06   4.67790636E-03   1.98645933E-02   1.97828266E-01   4.57051901E+04   4.64863082E+04   2.35870588E-04   3.47617441E+02   2.24351915E+02   3.79437769E-05   4.38393322E-05   2.36580447E-05
   8.75000000E+01   5.00000000E-01   5.00000000E-01   1.09464618E+05   4.69543009E+04   3.77199217E-04   2.06803572E-06   1.72850822E-06   0.00000000E+00   2.00601622E+04   1.76167368E+04   6.31641791E+04   3.60814720E+04   1.31074107E+06   4.47157899E-03   1.21385744E+00   2.03461731E-01   4.59360098E+04   4.64863082E+04   2.39951608E-04   3.47617439E+02   2.24352266E+02   3.79437769E-05   4.38410185E-05   2.36648483E-05
   1.22500000E+02   5.00000000E-01   5.00000000E-01   1.09464619E+05   4.72928643E+04   3.77199426E-04   1.91229719E-06   1.63404995E-06   0.00000000E+00   2.00601626E+04   1.76168148E+04   6.31641792E+04   3.67581163E+04   1.27749748E+06   5.77654288E-03   4.00214638E+01   2.13185103E-01   4.59695830E+04   4.64863082E+04   2.44553193E-04   3.47617439E+02   2.24352693E+02   3.79437769E-05   4.38417513E-05   2.36644708E-05
   1.57500000E+02   5.00000000E-01   5.00000000E-01   1.09464619E+05   4.74699073E+04   3.77199651E-04   1.73935345E-06   1.52294188E-06   0.00000000E+00   2.00601628E+04   1.76168383E+04   6.31641794E+04   3.70185068E+04   1.26450028E+06   8.62276736E-03   6.96432739E+02   2.25821313E-01   4.58778433E+04   4.64863082E+04   2.49766803E-04   3.47617438E+02   2.24353186E+02   3.79437769E-05   4.38419918E-05   2.36618467E-05
   1.92500000E+02   5.00000000E-01   5.00000000E-01   1.09464620E+05   4.75787610E+04   3.77199902E-04   1.59840888E-06   1.42919491E-06   0.00000000E+00   2.00601630E+04   1.76168417E+04   6.31641797E+04   3.70725247E+04   1.25954066E+06   1.41665285E-02   7.94434726E+03   2.40922830E-01   4.57541067E+04   4.64863082E+04   2.55693944E-04   3.47617438E+02   2.24353741E+02   3.79437769E-05   4.38419456E-05   2.36586966E-05
   2.27500000E+02   5.00000000E-01   5.00000000E-01   1.09464620E+05   4.76683386E+04   3.77200215E-04   1.52139933E-06   1.37812713E-06   0.00000000E+00   2.00601633E+04   1.76168383E+04   6.31641801E+04   3.68965196E+04   1.25507567E+06   2.43959316E-02   4.91353250E+04   2.57994632E-01   4.56888040E+04   4.64863082E+04   2.62446955E-04   3.47617438E+02   2.24354354E+02   3.79437769E-05   4.38417167E-05   2.36553384E-05
   2.62500000E+02   5.00000000E-01   5.00000000E-01   1.09464621E+05   4.77527933E+04   3.77200605E-04   1.49744210E-06   1.36463311E-06   0.00000000E+00   2.00601637E+04   1.76168318E+04   6.31641806E+04   3.64791590E+04   1.24958960E+06   4.21981226E-02   1.30780922E+05   2.76593543E-01   4.56926568E+04   4.64863082E+04   2.70157400E-04   3.47617438E+02   2.24355021E+02   3.79437769E-05   4.38413590E-05   2.36518697E-05
   2.97500000E+02   5.00000000E-01   5.00000000E-01   1.09464622E+05   4.78245366E+04   3.77201043E-04   1.48976267E-06   1.36287382E-06   0.00000000E+00   2.00601642E+04   1.76168211E+04   6.31641814E+04   3.59824358E+04   1.24508989E+06   7.16554239E-02   2.21574297E+05   2.96335201E-01   4.57158645E+04   4.64863082E+04   2.78985999E-04   3.47617438E+02   2.24355739E+02   3.79437769E-05   4.38409043E-05   2.36484595E-05
   3.32500000E+02   5.00000000E-01   5.00000000E-01   1.09464623E+05   4.78865236E+04   3.77201519E-04   1.48779283E-06   1.36527833E-06   0.00000000E+00   2.00601646E+04   1.76168076E+04   6.31641824E+04   3.54850744E+04   1.24136594E+06   1.18476363E-01   3.10028410E+05   3.16757199E-01   4.57456883E+04   4.64863082E+04   2.89126768E-04   3.47617438E+02   2.24356506E+02   3.79437769E-05   4.38403822E-05   2.36451675E-05
   3.67500000E+02   5.00000000E-01   5.00000000E-01   1.09464624E+05   4.79427938E+04   3.77202029E-04   1.48895497E-06   1.37001506E-06   0.00000000E+00   2.00601651E+04   1.76167924E+04   6.31641838E+04   3.50094842E+04   1.23800340E+06   1.90365332E-01   3.93986910E+05   3.37378837E-01   4.57794415E+04   4.64863082E+04   3.00814548E-04   3.47617438E+02   2.24357320E+02   3.79437769E-05   4.38398156E-05   2.36419943E-05
   4.02500000E+02   5.00000000E-01   5.00000000E-01   1.09464626E+05   4.79954917E+04   3.77202573E-04   1.49156951E-06   1.37585957E-06   0.00000000E+00   2.00601656E+04   1.76167762E+04   6.31641856E+04   3.45615080E+04   1.23481063E+06   2.96854715E-01   4.73150260E+05   3.57999463E-01   4.58157181E+04   4.64863082E+04   3.14335580E-04   3.47617438E+02   2.24358181E+02   3.79437769E-05   4.38392223E-05   2.36389256E-05
   4.37500000E+02   5.00000000E-01   5.00000000E-01   1.09464628E+05   4.80455617E+04   3.77203150E-04   1.49379872E-06   1.38140986E-06   0.00000000E+00   2.00601661E+04   1.76167594E+04   6.31641881E+04   3.41419568E+04   1.23172307E+06   4.49190910E-01   5.47596084E+05   3.78696295E-01   4.58532635E+04   4.64863082E+04   3.30041523E-04   3.47617438E+02   2.24359090E+02   3.79437769E-05   4.38386159E-05   2.36359486E-05
   4.72500000E+02   5.00000000E-01   5.00000000E-01   1.09464630E+05   4.80934278E+04   3.77203761E-04   1.49469080E-06   1.38590595E-06   0.00000000E+00   2.00601667E+04   1.76167423E+04   6.31641914E+04   3.37500777E+04   1.22872604E+06   6.59786750E-01   6.17486621E+05   3.99544775E-01   4.58908980E+04   4.64863082E+04   3.48368063E-04   3.47617438E+02   2.24360054E+02   3.79437769E-05   4.38380076E-05   2.36330555E-05
   5.07500000E+02   5.00000000E-01   5.00000000E-01   1.09464633E+05   4.81393415E+04   3.77204407E-04   1.49423918E-06   1.38931166E-06   0.00000000E+00   2.00601672E+04   1.76167251E+04   6.31641957E+04   3.33847073E+04   1.22581517E+06   9.43579303E-01   6.83014964E+05   4.20546686E-01   4.59275646E+04   4.64863082E+04   3.69859807E-04   3.47617438E+02   2.24361076E+02   3.79437769E-05   4.38374065E-05   2.36302431E-05
   5.42500000E+02   5.00000000E-01   5.00000000E-01   1.09464636E+05   4.81835542E+04   3.77205090E-04   1.49284403E-06   1.39191814E-06   0.00000000E+00   2.00601677E+04   1.76167078E+04   6.31642013E+04   3.30446362E+04   1.22297782E+06   1.31922636E+00   7.44407363E+05   4.41498996E-01   4.59623550E+04   4.64863082E+04   3.95203916E-04   3.47617438E+02   2.24362159E+02   3.79437769E-05   4.38368197E-05   2.36275107E-05
   5.77500000E+02   5.00000000E-01   5.00000000E-01   1.09464639E+05   4.82263190E+04   3.77205812E-04   1.49108415E-06   1.39417451E-06   0.00000000E+00   2.00601682E+04   1.76166907E+04   6.31642086E+04   3.27286606E+04   1.22019466E+06   1.80885618E+00   8.01910145E+05   4.61964570E-01   4.59945223E+04   4.64863082E+04   4.25276021E-04   3.47617438E+02   2.24363308E+02   3.79437769E-05   4.38362530E-05   2.36248587E-05
   6.12500000E+02   5.00000000E-01   5.00000000E-01   1.09464643E+05   4.82677801E+04   3.77206574E-04   1.48968479E-06   1.39666842E-06   0.00000000E+00   2.00601687E+04   1.76166737E+04   6.31642181E+04   3.24355543E+04   1.21745085E+06   2.43808240E+00   8.55759021E+05   4.81584542E-01   4.60234887E+04   4.64863082E+04   4.61203545E-04   3.47617438E+02   2.24364525E+02   3.79437769E-05   4.38357105E-05   2.36222887E-05
   6.47500000E+02   5.00000000E-01   5.00000000E-01   1.09464647E+05   4.83079128E+04   3.77207380E-04   1.48955049E-06   1.40015864E-06   0.00000000E+00   2.00601693E+04   1.76166569E+04   6.31642303E+04   3.21640387E+04   1.21474164E+06   3.23339341E+00   9.06165914E+05   5.00430786E-01   4.60488570E+04   4.64863082E+04   5.04454065E-04   3.47617438E+02   2.24365823E+02   3.79437769E-05   4.38351950E-05   2.36198026E-05
   6.82500000E+02   5.00000000E-01   5.00000000E-01   1.09464653E+05   4.83466324E+04   3.77208233E-04   1.49181054E-06   1.40561910E-06   0.00000000E+00   2.00601698E+04   1.76166404E+04   6.31642462E+04   3.19128550E+04   1.21206408E+06   4.22262597E+00   9.53334177E+05   5.18881570E-01   4.60704096E+04   4.64863082E+04   5.56960297E-04   3.47617438E+02   2.24367219E+02   3.79437769E-05   4.38347086E-05   2.36174024E-05
   7.17500000E+02   5.00000000E-01   5.00000000E-01   1.09464659E+05   4.83839809E+04   3.77209137E-04   1.49787121E-06   1.41428981E-06   0.00000000E+00   2.00601702E+04   1.76166242E+04   6.31642668E+04   3.16808957E+04   1.20939978E+06   5.44289553E+00   9.97492136E+05   5.37203738E-01   4.60880755E+04   4.64863082E+04   6.21299403E-04   3.47617438E+02   2.24368732E+02   3.79437769E-05   4.38342525E-05   2.36150895E-05
   7.52500000E+02   5.00000000E-01   5.00000000E-01   1.09464666E+05   4.84200877E+04   3.77210096E-04   1.50953796E-06   1.42778838E-06   0.00000000E+00   2.00601707E+04   1.76166082E+04   6.31642934E+04   3.14671724E+04   1.20672235E+06   6.93791669E+00   1.03887489E+06   5.55488081E-01   4.61019072E+04   4.64863082E+04   7.00953817E-04   3.47617438E+02   2.24370385E+02   3.79437769E-05   4.38338272E-05   2.36128641E-05
   7.87500000E+02   5.00000000E-01   5.00000000E-01   1.09464674E+05   4.84551177E+04   3.77211118E-04   1.52919747E-06   1.44827638E-06   0.00000000E+00   2.00601712E+04   1.76165926E+04   6.31643280E+04   3.12708102E+04   1.20400370E+06   8.76392461E+00   1.07770515E+06   5.73765073E-01   4.61120440E+04   4.64863082E+04   8.00696468E-04   3.47617438E+02   2.24372204E+02   3.79437769E-05   4.38334325E-05   2.36107253E-05
   8.22500000E+02   5.00000000E-01   5.00000000E-01   1.09464684E+05   4.84892541E+04   3.77212210E-04   1.56011845E-06   1.47873272E-06   0.00000000E+00   2.00601717E+04   1.76165772E+04   6.31643731E+04   3.10910504E+04   1.20121702E+06   1.09895754E+01   1.11418363E+06   5.92009641E-01   4.61186860E+04   4.64863082E+04   9.27169106E-04   3.47617437E+02   2.24374224E+02   3.79437769E-05   4.38330678E-05   2.36086711E-05
   8.57500000E+02   5.00000000E-01   5.00000000E-01   1.09464695E+05   4.85227119E+04   3.77213383E-04   1.60692416E-06   1.52338391E-06   0.00000000E+00   2.00601721E+04   1.76165621E+04   6.31644319E+04   3.09272876E+04   1.19833586E+06   1.37047673E+01   1.14848605E+06   6.10130774E-01   4.61220606E+04   4.64863082E+04   1.08976584E-03   3.47617437E+02   2.24376487E+02   3.79437769E-05   4.38327321E-05   2.36066990E-05
   8.92500000E+02   5.00000000E-01   5.00000000E-01   1.09464710E+05   4.85557192E+04   3.77214649E-04   1.67637347E-06   1.58841400E-06   0.00000000E+00   2.00601725E+04   1.76165474E+04   6.31645092E+04   3.07790974E+04   1.19533591E+06   1.70216962E+01   1.18075314E+06   6.27943799E-01   4.61224079E+04   4.64863082E+04   1.30200817E-03   3.47617437E+02   2.24379050E+02   3.79437769E-05   4.38324241E-05   2.36048056E-05
   9.27500000E+02   5.00000000E-01   5.00000000E-01   1.09464727E+05   4.85885117E+04   3.77216026E-04   1.77864765E-06   1.68313445E-06   0.00000000E+00   2.00601730E+04   1.76165329E+04   6.31646111E+04   3.06462989E+04   1.19219419E+06   2.10922408E+01   1.21108359E+06   6.45192849E-01   4.61199516E+04   4.64863082E+04   1.58372783E-03   3.47617437E+02   2.24381989E+02   3.79437769E-05   4.38321423E-05   2.36029870E-05
   9.62500000E+02   5.00000000E-01   5.00000000E-01   1.09464750E+05   4.86213276E+04   3.77217535E-04   1.92954847E-06   1.82198000E-06   0.00000000E+00   2.00601734E+04   1.76165186E+04   6.31647469E+04   3.05290258E+04   1.18888731E+06   2.61188251E+01   1.23952820E+06   6.61598465E-01   4.61148866E+04   4.64863082E+04   1.96460659E-03   3.47617436E+02   2.24385411E+02   3.79437769E-05   4.38318851E-05   2.36012390E-05
   9.97500000E+02   5.00000000E-01   5.00000000E-01   1.09464779E+05   4.86543817E+04   3.77219205E-04   2.15432051E-06   2.02797786E-06   0.00000000E+00   2.00601737E+04   1.76165046E+04   6.31649299E+04   3.04278243E+04   1.18539000E+06   3.23538317E+01   1.26607939E+06   6.76947791E-01   4.61073890E+04   4.64863082E+04   2.49004825E-03   3.47617435E+02   2.24389477E+02   3.79437769E-05   4.38316507E-05   2.35995571E-05
   1.03250000E+03   5.00000000E-01   5.00000000E-01   1.09464818E+05   4.86878089E+04   3.77221071E-04   2.49435448E-06   2.33883511E-06   0.00000000E+00   2.00601741E+04   1.76164908E+04   6.31651812E+04   3.03438485E+04   1.18167452E+06   4.01151538E+01   1.29064253E+06   6.91238379E-01   4.60976196E+04   4.64863082E+04   3.23115917E-03   3.47617434E+02   2.24394437E+02   3.79437769E-05   4.38314373E-05   2.35979365E-05
   1.06750000E+03   5.00000000E-01   5.00000000E-01   1.09464870E+05   4.87216678E+04   3.77223177E-04   3.01890549E-06   2.81760731E-06   0.00000000E+00   2.00601744E+04   1.76164770E+04   6.31655351E+04   3.02792861E+04   1.17769901E+06   4.98279857E+01   1.31300605E+06   7.04594200E-01   4.60857074E+04   4.64863082E+04   4.30216113E-03   3.47617433E+02   2.24400702E+02   3.79437769E-05   4.38312429E-05   2.35963722E-05
   1.10250000E+03   5.00000000E-01   5.00000000E-01   1.09464940E+05   4.87558799E+04   3.77225577E-04   3.84480370E-06   3.57075944E-06   0.00000000E+00   2.00601747E+04   1.76164634E+04   6.31660528E+04   3.02382061E+04   1.17339325E+06   6.21044603E+01   1.33275391E+06   7.17110264E-01   4.60717076E+04   4.64863082E+04   5.89163323E-03   3.47617431E+02   2.24409005E+02   3.79437769E-05   4.38310655E-05   2.35948583E-05
   1.13750000E+03   5.00000000E-01   5.00000000E-01   1.09464903E+05   4.77850621E+04   3.77222185E-04   4.24082230E-06   3.95480958E-06   1.55665069E+07   2.00601619E+04   1.76161293E+04   6.31670156E+04   2.90403748E+04   4.27061373E+05   5.21262665E+02   3.18688529E+06   1.02050605E+00   4.53755477E+04   4.64863082E+04   8.30437577E-03   3.47617431E+02   2.24425501E+02   3.79437769E-05   4.38308848E-05   2.35770397E-05
   1.17250000E+03   5.00000000E-01   5.00000000E-01   1.09465027E+05   4.82257164E+04   3.77226399E-04   6.05779748E-06   5.62134808E-06   0.00000000E+00   2.00601631E+04   1.76162022E+04   6.31683151E+04   2.92768558E+04   1.24194733E+06   1.24679741E+02   1.26511060E+06   8.27895189E-01   4.53748138E+04   4.64863082E+04   1.21143002E-02   3.47617427E+02   2.24442240E+02   3.79437769E-05   4.38308098E-05   2.35781580E-05
   1.20750000E+03   5.00000000E-01   5.00000000E-01   1.09465191E+05   4.86285966E+04   3.77230551E-04   8.88818321E-06   8.22652596E-06   0.00000000E+00   2.00601639E+04   1.76162517E+04   6.31711848E+04   2.95486215E+04   1.20106216E+06   1.42713172E+02   1.35129805E+06   8.06026506E-01   4.53745647E+04   4.64863082E+04   1.83560987E-02   3.47617426E+02   2.24478417E+02   3.79437769E-05   4.38306930E-05   2.35785449E-05
   1.24250000E+03   5.00000000E-01   5.00000000E-01   1.09465398E+05   4.88522780E+04   3.77235129E-04   1.28083978E-05   1.18654960E-05   0.00000000E+00   2.00601646E+04   1.76162721E+04   6.31809747E+04   3.00061133E+04   1.17049502E+06   1.89180570E+02   1.37567630E+06   8.04311753E-01   4.53745579E+04   4.64863082E+04   2.89689405E-02   3.47617424E+02   2.24592716E+02   3.79437769E-05   4.38305463E-05   2.35784557E-05
   1.27750000E+03   5.00000000E-01   5.00000000E-01   1.09465645E+05   4.88781818E+04   3.77240408E-04   1.68782905E-05   1.57177730E-05   0.00000000E+00   2.00601650E+04   1.76162673E+04   6.32860254E+04   3.12987559E+04   1.14730466E+06   3.05559771E+02   1.24017791E+06   8.09042089E-01   4.53748563E+04   4.64863082E+04   4.77346133E-02   3.47617422E+02   2.25559697E+02   3.79437769E-05   4.38303717E-05   2.35780029E-05
   1.31250000E+03   5.00000000E-01   5.00000000E-01   1.09465916E+05   4.88460112E+04   3.77247292E-04   1.88960773E-05   1.77665952E-05   0.00000000E+00   2.00601654E+04   1.76162537E+04   6.47368525E+04   3.30910318E+04   1.13118274E+06   3.45485779E+02   9.03980279E+05   7.92311863E-01   4.53836709E+04   4.64863082E+04   8.22419447E-02   3.47617420E+02   2.32878174E+02   3.79437769E-05   4.38302081E-05   2.35774777E-05
   1.34750000E+03   5.00000000E-01   5.00000000E-01   1.09466202E+05   4.88549275E+04   3.77257945E-04   1.77157234E-05   1.68679429E-05   0.00000000E+00   2.00601660E+04   1.76162414E+04   6.72622568E+04   3.33965998E+04   1.10503395E+06   2.21403508E+02   7.50717696E+05   7.58753493E-01   4.58684444E+04   4.64863082E+04   1.48120913E-01   3.47617417E+02   2.39022330E+02   3.79437769E-05   4.38300853E-05   2.35770109E-05
   1.38250000E+03   5.00000000E-01   5.00000000E-01   1.09466448E+05   4.84013965E+04   3.77268687E-04   1.45417270E-05   1.40340210E-05   4.12956358E+06   2.00601633E+04   1.76161340E+04   6.95721124E+04   3.29481631E+04   8.83287503E+05   9.98934757E+02   1.16152142E+06   8.97756729E-01   4.67625026E+04   4.64863082E+04   2.78997426E-01   3.47617415E+02   2.41080916E+02   3.79437769E-05   4.38299862E-05   2.35735588E-05
   1.41750000E+03   5.00000000E-01   5.00000000E-01   1.09466748E+05   4.85491508E+04   3.77284631E-04   1.15457937E-05   1.12796211E-05   3.63468563E+05   2.00601636E+04   1.76161353E+04   7.16735532E+04   3.28112191E+04   1.04672370E+06   8.81751029E+02   6.76981656E+05   8.48128467E-01   4.75835291E+04   4.64863082E+04   5.53516080E-01   3.47617413E+02   2.41643249E+02   3.79437769E-05   4.38299222E-05   2.35730936E-05
   1.45250000E+03   5.00000000E-01   5.00000000E-01   1.09467065E+05   4.86819653E+04   3.77304064E-04   9.16174709E-06   9.04344562E-06   1.19144520E+04   2.00601639E+04   1.76161342E+04   7.36640035E+04   3.27241945E+04   1.02369090E+06   8.67124173E+02   6.30843710E+05   8.10250197E-01   4.83495130E+04   4.64863082E+04   1.16116006E+00   3.47617411E+02   2.41622476E+02   3.79437769E-05   4.38298640E-05   2.35726797E-05
   1.48750000E+03   5.00000000E-01   5.00000000E-01   1.09467397E+05   4.87382147E+04   3.77327838E-04   7.36779143E-06   7.33406819E-06   3.36710042E-04   2.00601640E+04   1.76161240E+04   7.56081664E+04   3.26290159E+04   9.89948344E+05   1.15175620E+03   6.06516936E+05   7.98202661E-01   4.90826187E+04   4.64863082E+04   2.58438625E+00   3.47617409E+02   2.41308254E+02   3.79437769E-05   4.38298118E-05   2.35721488E-05
   1.52250000E+03   5.00000000E-01   5.00000000E-01   1.09467745E+05   4.87472192E+04   3.77357215E-04   6.01608280E-06   6.02879114E-06   1.92060205E-15   2.00601641E+04   1.76161088E+04   7.75344814E+04   3.25207194E+04   9.60873213E+05   1.65427076E+03   5.68997368E+05   7.96297809E-01   4.97928993E+04   4.64863082E+04   6.12457927E+00   3.47617409E+02   2.40821875E+02   3.79437769E-05   4.38297671E-05   2.35715628E-05
   1.55750000E+03   5.00000000E-01   5.00000000E-01   1.09468107E+05   4.87364052E+04   3.77393722E-04   4.98479452E-06   5.02143065E-06   8.27959945E-28   2.00601641E+04   1.76160916E+04   7.94432626E+04   3.24119797E+04   9.34405667E+05   2.62874797E+03   5.21626989E+05   8.03114292E-01   5.04807606E+04   4.64863082E+04   1.55138027E+01   3.47617410E+02   2.40203978E+02   3.79437769E-05   4.38297296E-05   2.35709615E-05
   1.59250000E+03   5.00000000E-01   5.00000000E-01   1.09468480E+05   4.87233246E+04   3.77439283E-04   4.18825840E-06   4.23568538E-06   1.54923547E-39   2.00601641E+04   1.76160742E+04   8.13345009E+04   3.23185704E+04   9.08651363E+05   4.96628869E+03   4.62106669E+05   8.19262988E-01   5.11473627E+04   4.64863083E+04   4.21718400E+01   3.47617411E+02   2.39509444E+02   3.79437769E-05   4.38296985E-05   2.35703744E-05
   1.62750000E+03   5.00000000E-01   5.00000000E-01   1.09468862E+05   4.87213954E+04   3.77496349E-04   3.56742089E-06   3.61815020E-06   3.28607843E-49   2.00601642E+04   1.76160585E+04   8.32193535E+04   3.22542638E+04   8.81854823E+05   1.05206602E+04   3.80921974E+05   8.36234860E-01   5.17951077E+04   4.64863083E+04   1.23502604E+02   3.47617413E+02   2.38792263E+02   3.79437769E-05   4.38296726E-05   2.35698373E-05
   1.66250000E+03   5.00000000E-01   5.00000000E-01   1.09469254E+05   4.87329435E+04   3.77568007E-04   3.08198300E-06   3.13194917E-06   3.47479895E-55   2.00601643E+04   1.76160456E+04   8.51083731E+04   3.22486824E+04   8.53176176E+05   2.01557569E+04   2.69726039E+05   8.41477842E-01   5.24239447E+04   4.64863083E+04   3.90753252E+02   3.47617415E+02   2.38089721E+02   3.79437769E-05   4.38296503E-05   2.35693840E-05
   1.69750000E+03   5.00000000E-01   5.00000000E-01   1.09469655E+05   4.87333561E+04   3.77658060E-04   2.70421514E-06   2.75141675E-06   7.17116615E-59   2.00601645E+04   1.76160331E+04   8.70526924E+04   3.23237823E+04   8.25225261E+05   2.68471100E+04   1.58816744E+05   8.32771955E-01   5.30384955E+04   4.64863083E+04   1.33274641E+03   3.47617417E+02   2.37486005E+02   3.79437769E-05   4.38296303E-05   2.35689799E-05
   1.73250000E+03   5.00000000E-01   5.00000000E-01   1.09470070E+05   4.87086658E+04   3.77771479E-04   2.41332928E-06   2.45700627E-06   1.53066514E-60   2.00601648E+04   1.76160203E+04   8.90738794E+04   3.23751884E+04   7.98560465E+05   3.22564790E+04   5.01578461E+04   7.97474782E-01   5.36482688E+04   4.64863084E+04   4.79581152E+03   3.47617420E+02   2.36939859E+02   3.79437769E-05   4.38296116E-05   2.35686272E-05
   1.76750000E+03   5.00000000E-01   5.00000000E-01   1.09470502E+05   4.86683591E+04   3.77914146E-04   2.19005821E-06   2.23011708E-06   1.85778590E-62   2.00601651E+04   1.76160053E+04   9.12988615E+04   3.23007586E+04   7.73581730E+05   2.80020317E+04   3.37607898E+03   7.38687464E-01   5.43622723E+04   4.64863084E+04   1.66751865E+04   3.47617422E+02   2.36487573E+02   3.79437769E-05   4.38295961E-05   2.35682328E-05
   1.80250000E+03   5.00000000E-01   5.00000000E-01   1.09470948E+05   4.86085684E+04   3.78093014E-04   2.01546107E-06   2.05205447E-06   4.04977518E-66   2.00601654E+04   1.76159867E+04   9.37406650E+04   3.20883090E+04   7.51182210E+05   1.66336577E+04   2.47503304E+01   6.63332237E-01   5.51271305E+04   4.64863085E+04   4.57771814E+04   3.47617424E+02   2.36034161E+02   3.79437769E-05   4.38295836E-05   2.35677654E-05
   1.83750000E+03   5.00000000E-01   5.00000000E-01   1.09471409E+05   4.85303670E+04   3.78317034E-04   1.87311682E-06   1.90639713E-06   4.90266346E-70   2.00601657E+04   1.76159660E+04   9.62414657E+04   3.17733704E+04   7.30452776E+05   5.71229823E+03   2.20135959E-02   5.71090151E-01   5.58585229E+04   4.64863086E+04   8.46843119E+04   3.47617426E+02   2.35491898E+02   3.79437769E-05   4.38295728E-05   2.35672721E-05
   1.87250000E+03   5.00000000E-01   5.00000000E-01   1.09471886E+05   4.84534410E+04   3.78597345E-04   1.75089785E-06   1.78091091E-06   1.28421863E-71   2.00601661E+04   1.76159464E+04   9.87379789E+04   3.12577289E+04   7.08187389E+05   3.42293157E+02   1.34866960E-06   4.44802400E-01   5.66001345E+04   4.64863087E+04   1.11886896E+05   3.47617427E+02   2.34839341E+02   3.79437769E-05   4.38295633E-05   2.35668201E-05
   1.90750000E+03   5.00000000E-01   5.00000000E-01   1.09472373E+05   4.83882235E+04   3.78946815E-04   1.64115710E-06   1.66782450E-06   5.38240834E-72   2.00601667E+04   1.76159294E+04   1.01307600E+05   3.05330135E+04   6.84055590E+05   1.06457563E-01   6.09496338E-11   3.05363934E-01   5.74363655E+04   4.64863088E+04   1.21648553E+05   3.47617429E+02   2.34116136E+02   3.79437769E-05   4.38295555E-05   2.35664433E-05
   1.94250000E+03   5.00000000E-01   5.00000000E-01   1.09472858E+05   4.83344643E+04   3.79380790E-04   1.54039382E-06   1.56358338E-06   1.00516520E-72   2.00601671E+04   1.76159149E+04   1.03849438E+05   2.97686173E+04   6.61819719E+05   1.18453949E-02   8.50000272E-13   2.64720971E-01   5.82875326E+04   4.64863089E+04   1.20624978E+05   3.47617430E+02   2.33297010E+02   3.79437769E-05   4.38295500E-05   2.35661344E-05
   1.97750000E+03   5.00000000E-01   5.00000000E-01   1.09473325E+05   4.83222163E+04   3.79917806E-04   1.44773182E-06   1.46733204E-06   4.04395280E-75   2.00601675E+04   1.76159040E+04   1.06166291E+05   2.90407470E+04   6.43094705E+05   1.02924472E-02   2.66922532E-13   2.56719541E-01   5.90803724E+04   4.64863091E+04   1.15021866E+05   3.47617430E+02   2.32386567E+02   3.79437769E-05   4.38295472E-05   2.35658763E-05
   2.01250000E+03   5.00000000E-01   5.00000000E-01   1.09473779E+05   4.83221913E+04   3.80581887E-04   1.36409044E-06   1.38010645E-06   7.19472858E-77   2.00601678E+04   1.76158957E+04   1.07829153E+05   2.84652122E+04   6.32305867E+05   9.56423207E-03   1.57064620E-13   2.52318025E-01   5.95458125E+04   4.64863094E+04   1.08031043E+05   3.47617431E+02   2.31384965E+02   3.79437769E-05   4.38295455E-05   2.35656834E-05
   2.04750000E+03   5.00000000E-01   5.00000000E-01   1.09474225E+05   4.83230051E+04   3.81401818E-04   1.29055362E-06   1.30312804E-06   1.12936199E-77   2.00601682E+04   1.76158893E+04   1.08903246E+05   2.80797013E+04   6.26043295E+05   8.95973478E-03   1.14609038E-13   2.49553558E-01   5.98102312E+04   4.64863097E+04   1.00951709E+05   3.47617431E+02   2.30452097E+02   3.79437769E-05   4.38295441E-05   2.35655415E-05
   2.08250000E+03   5.00000000E-01   5.00000000E-01   1.09474665E+05   4.83239934E+04   3.82412278E-04   1.22771691E-06   1.23711439E-06   5.73851334E-78   2.00601686E+04   1.76158841E+04   1.09634622E+05   2.78228558E+04   6.21514906E+05   8.39839664E-03   9.09660349E-14   2.48014847E-01   5.99967397E+04   4.64863101E+04   9.42282129E+04   3.47617432E+02   2.29655580E+02   3.79437769E-05   4.38295430E-05   2.35654314E-05
   2.11750000E+03   5.00000000E-01   5.00000000E-01   1.09475103E+05   4.83251055E+04   3.83655254E-04   1.17552016E-06   1.18209496E-06   5.34474051E-78   2.00601691E+04   1.76158797E+04   1.10169747E+05   2.76423691E+04   6.17841317E+05   7.85471894E-03   7.43185311E-14   2.47379211E-01   6.01443450E+04   4.64863106E+04   8.79667631E+04   3.47617432E+02   2.28986934E+02   3.79437769E-05   4.38295421E-05   2.35653409E-05
   2.15250000E+03   5.00000000E-01   5.00000000E-01   1.09475546E+05   4.83263797E+04   3.85181477E-04   1.13325217E-06   1.13740400E-06   6.89292567E-78   2.00601696E+04   1.76158760E+04   1.10585919E+05   2.75080533E+04   6.14687496E+05   7.34169448E-03   6.07181846E-14   2.47237688E-01   6.02677686E+04   4.64863113E+04   8.21508777E+04   3.47617432E+02   2.28423729E+02   3.79437769E-05   4.38295412E-05   2.35652629E-05
   2.18750000E+03   5.00000000E-01   5.00000000E-01   1.09476002E+05   4.83278739E+04   3.87052177E-04   1.09973282E-06   1.10186438E-06   1.06912969E-77   2.00601702E+04   1.76158726E+04   1.10926300E+05   2.74026690E+04   6.11886022E+05   6.89622897E-03   4.86528059E-14   2.47050488E-01   6.03743103E+04   4.64863122E+04   7.67343628E+04   3.47617432E+02   2.27945704E+02   3.79437769E-05   4.38295404E-05   2.35651933E-05
   2.22250000E+03   5.00000000E-01   5.00000000E-01   1.09476480E+05   4.83295789E+04   3.89341230E-04   1.07356193E-06   1.07404747E-06   1.85025863E-77   2.00601707E+04   1.76158696E+04   1.11216382E+05   2.73159943E+04   6.09340507E+05   6.54311233E-03   3.78617663E-14   2.46326912E-01   6.04683637E+04   4.64863133E+04   7.16760175E+04   3.47617432E+02   2.27536881E+02   3.79437769E-05   4.38295397E-05   2.35651298E-05
   2.25750000E+03   5.00000000E-01   5.00000000E-01   1.09476987E+05   4.83313607E+04   3.92137785E-04   1.05333296E-06   1.05250022E-06   3.43215201E-77   2.00601713E+04   1.76158667E+04   1.11470578E+05   2.72421655E+04   6.07000977E+05   6.25864473E-03   2.87050518E-14   2.44915948E-01   6.05525981E+04   4.64863146E+04   6.69342164E+04   3.47617432E+02   2.27184849E+02   3.79437769E-05   4.38295391E-05   2.35650711E-05
   2.29250000E+03   5.00000000E-01   5.00000000E-01   1.09477533E+05   4.83330405E+04   3.95549497E-04   1.03777814E-06   1.03590240E-06   6.72044892E-77   2.00601719E+04   1.76158641E+04   1.11696125E+05   2.71780907E+04   6.04850072E+05   5.98743651E-03   2.14329914E-14   2.43009924E-01   6.06282915E+04   4.64863163E+04   6.24713802E+04   3.47617432E+02   2.26879877E+02   3.79437769E-05   4.38295385E-05   2.35650164E-05
   2.32750000E+03   5.00000000E-01   5.00000000E-01   1.09478126E+05   4.83345129E+04   3.99706495E-04   1.02583083E-06   1.02313664E-06   1.38688578E-76   2.00601726E+04   1.76158616E+04   1.11897186E+05   2.71220367E+04   6.02875757E+05   5.68800611E-03   1.59106151E-14   2.40870656E-01   6.06962444E+04   4.64863185E+04   5.82760316E+04   3.47617431E+02   2.26614329E+02   3.79437769E-05   4.38295379E-05   2.35649650E-05
   2.36250000E+03   5.00000000E-01   5.00000000E-01   1.09478776E+05   4.83357448E+04   4.04766278E-04   1.01663708E-06   1.01330427E-06   3.02220636E-76   2.00601733E+04   1.76158592E+04   1.12077161E+05   2.70727852E+04   6.01058351E+05   5.34557503E-03   1.17990354E-14   2.38660465E-01   6.07573730E+04   4.64863211E+04   5.43487390E+04   3.47617430E+02   2.26382173E+02   3.79437769E-05   4.38295374E-05   2.35649166E-05
   2.39750000E+03   5.00000000E-01   5.00000000E-01   1.09479491E+05   4.83367152E+04   4.10919782E-04   1.00953353E-06   1.00570455E-06   6.96850063E-76   2.00601739E+04   1.76158569E+04   1.12239211E+05   2.70293203E+04   5.99373699E+05   4.95912207E-03   8.75213544E-15   2.36445242E-01   6.08127033E+04   4.64863243E+04   5.06593201E+04   3.47617429E+02   2.26178569E+02   3.79437769E-05   4.38295368E-05   2.35648709E-05