 TITLE = "Mineral Area" 
VARIABLES = "X"          "Y"              "Z"            "Forsterite"     "Fayalite"       "Brucite"        "Lizardite"      "Chrysotile"     "Hematite"       "Magnetite(am)"  "Saponite(Ca)"   "Saponite(K)"    "Saponite(Mg)"   "Saponite(Na)"   "Beidellite(Ca)" "Beidellite(K)"  "Beidellite(Mg)" "Beidellite(Na)" "Enstatite(alph" "Ferrosilite(al" "Anorthite"      "Albite(low)"    "Clinochlore"    "Sudoite"        "Montmor(MgCa)"  "Montmor(MgK)"   "Montmor(MgMg)"  "Montmor(MgNa)"  "Kaolinite"      "Tremolite"      "Pargasite"      "Anhydrite"      "Epidote"        "Scolecite"      "Pyrite"         "FeS(am)"        "Quartz(alpha)"  "Titanite"       "Rutile"         "Barite"         "Fluorite"       "Spessartine(al" "Andradite"      "Celestite"      "Zincite"        "Chalcocyanite"  "Chalcocite(alp"
 ZONE I=         200 , J=           1 , K=           1  F=POINT
   8.75000000E+00   5.00000000E-01   5.00000000E-01   1.31467028E+05   4.79773257E+04   1.25614125E-03   1.24162076E-03   1.14146250E-03   5.39796213E+03   1.44343266E-05   3.86308718E-02   7.26117834E-01   4.67794323E-02   6.23325160E+04   3.66298070E-02   3.81181548E-02   3.74818302E-02   3.71745391E-02   2.00602334E+04   1.76157476E+04   1.17019318E+05   2.96372694E+04   3.61117977E+05   0.00000000E+00   8.07223253E-03   8.29797028E-03   8.25696870E-03   8.19214771E-03   3.42626261E+04   4.56196621E+04   4.67362796E+04   0.00000000E+00   2.93170740E+03   1.98329712E-05   7.01325582E-05   6.87410964E-05   2.35888940E-05   3.52255530E+01   4.24384118E+01   1.47165132E+03   3.18127472E+01   3.52625564E+02   3.85413698E+01   3.97154344E+01   5.65952061E+02   3.90435203E+01   5.60031323E+01
   2.62500000E+01   5.00000000E-01   5.00000000E-01   1.31467027E+05   4.79794004E+04   1.25613935E-03   1.11901109E-03   1.05498977E-03   5.39796210E+03   1.44356926E-05   3.95364847E-02   1.59255505E+00   5.17485861E-02   2.94670872E+05   3.66298085E-02   3.81181570E-02   3.74818372E-02   3.71745575E-02   2.00602332E+04   1.76157845E+04   1.17019318E+05   2.96664301E+04   3.56562272E+05   0.00000000E+00   8.07224440E-03   8.29799916E-03   8.25701975E-03   8.19235162E-03   3.42626269E+04   4.56409474E+04   4.67362796E+04   0.00000000E+00   2.93170740E+03   1.98329740E-05   7.01325582E-05   6.87410964E-05   2.36020689E-05   3.52255477E+01   4.24384171E+01   1.44791452E+03   3.18127463E+01   3.52625564E+02   3.85413698E+01   3.97154344E+01   5.65952106E+02   3.90435203E+01   5.60021228E+01
   4.37500000E+01   5.00000000E-01   5.00000000E-01   1.31467027E+05   4.79814445E+04   1.25613850E-03   1.05143160E-03   1.00609964E-03   5.39796210E+03   1.44365897E-05   4.00983609E-02   2.03407015E+00   5.49123415E-02   3.39784682E+05   3.66298287E-02   3.81181843E-02   3.74819309E-02   3.71747961E-02   2.00602330E+04   1.76158161E+04   1.17019318E+05   2.97516293E+04   3.51781094E+05   0.00000000E+00   8.07232996E-03   8.29819640E-03   8.25738739E-03   8.19377824E-03   3.42626325E+04   4.56558837E+04   4.67362796E+04   0.00000000E+00   2.93170740E+03   1.98329894E-05   7.01325582E-05   6.87410964E-05   2.36134853E-05   3.52255423E+01   4.24384222E+01   1.43845456E+03   3.18127455E+01   3.52625564E+02   3.85413698E+01   3.97154344E+01   5.65952108E+02   3.90435203E+01   5.60021227E+01
   6.12500000E+01   5.00000000E-01   5.00000000E-01   1.31467027E+05   4.79835618E+04   1.25613810E-03   1.01651567E-03   9.80546022E-04   5.39796210E+03   1.44373664E-05   4.05587537E-02   2.33216824E+00   5.75654172E-02   4.17697860E+05   3.66298977E-02   3.81182725E-02   3.74822507E-02   3.71755872E-02   2.00602330E+04   1.76158463E+04   1.17019318E+05   2.98851476E+04   3.44192916E+05   0.00000000E+00   8.07255267E-03   8.29867849E-03   8.25834330E-03   8.19736536E-03   3.42626445E+04   4.56682144E+04   4.67362796E+04   0.00000000E+00   2.93170740E+03   1.98330213E-05   7.01325582E-05   6.87410964E-05   2.36230439E-05   3.52255397E+01   4.24384269E+01   1.43443665E+03   3.18127447E+01   3.52625564E+02   3.85413698E+01   3.97154344E+01   5.65952124E+02   3.90435203E+01   5.60021227E+01
   7.87500000E+01   5.00000000E-01   5.00000000E-01   1.31467027E+05   4.79859161E+04   1.25613789E-03   9.98959064E-04   9.67698333E-04   5.39796209E+03   1.44381548E-05   4.10429650E-02   2.65977049E+00   6.04325457E-02   5.36499964E+05   3.66300345E-02   3.81184369E-02   3.74828831E-02   3.71771026E-02   2.00602330E+04   1.76158764E+04   1.17019318E+05   3.00427857E+04   3.34879181E+05   0.00000000E+00   8.07292161E-03   8.29942379E-03   8.25992517E-03   8.20308790E-03   3.42626619E+04   4.56840755E+04   4.67362796E+04   0.00000000E+00   2.93170740E+03   1.98330667E-05   7.01325582E-05   6.87410964E-05   2.36306851E-05   3.52255388E+01   4.24384312E+01   1.43261264E+03   3.18127440E+01   3.52625564E+02   3.85413698E+01   3.97154344E+01   5.65952155E+02   3.90435203E+01   5.60021227E+01
   9.62500000E+01   5.00000000E-01   5.00000000E-01   1.31467027E+05   4.79885530E+04   1.25613778E-03   9.89679569E-04   9.60981539E-04   5.39796209E+03   1.44389924E-05   4.15551173E-02   3.00407789E+00   6.35465779E-02   6.66410589E+05   3.66302416E-02   3.81186704E-02   3.74838396E-02   3.71793187E-02   2.00602332E+04   1.76159062E+04   1.17019318E+05   3.02021623E+04   3.25333086E+05   0.00000000E+00   8.07340428E-03   8.30032818E-03   8.26199259E-03   8.21027609E-03   3.42626831E+04   4.57043635E+04   4.67362796E+04   0.00000000E+00   2.93170740E+03   1.98331214E-05   7.01325582E-05   6.87410964E-05   2.36365509E-05   3.52255388E+01   4.24384351E+01   1.43171522E+03   3.18127434E+01   3.52625564E+02   3.85413698E+01   3.97154344E+01   5.65952198E+02   3.90435203E+01   5.60021227E+01
   1.13750000E+02   5.00000000E-01   5.00000000E-01   1.31467027E+05   4.79914530E+04   1.25613773E-03   9.84377627E-04   9.57229877E-04   5.39796208E+03   1.44398880E-05   4.20673344E-02   3.30972096E+00   6.67401270E-02   7.82547084E+05   3.66304978E-02   3.81189391E-02   3.74850205E-02   3.71819547E-02   2.00602334E+04   1.76159354E+04   1.17019318E+05   3.03453204E+04   3.16765752E+05   0.00000000E+00   8.07393656E-03   8.30124310E-03   8.26427000E-03   8.21784517E-03   3.42627056E+04   4.57277557E+04   4.67362796E+04   0.00000000E+00   2.93170740E+03   1.98331787E-05   7.01325582E-05   6.87410964E-05   2.36409187E-05   3.52255390E+01   4.24384386E+01   1.43122572E+03   3.18127428E+01   3.52625564E+02   3.85413698E+01   3.97154344E+01   5.65952248E+02   3.90435203E+01   5.60021227E+01
   1.31250000E+02   5.00000000E-01   5.00000000E-01   1.31467027E+05   4.79945811E+04   1.25613771E-03   9.81140558E-04   9.55023933E-04   5.39796208E+03   1.44408447E-05   4.25564757E-02   3.53550065E+00   6.98610836E-02   8.73766062E+05   3.66307694E-02   3.81192010E-02   3.74862697E-02   3.71846253E-02   2.00602336E+04   1.76159639E+04   1.17019318E+05   3.04626417E+04   3.09796983E+05   0.00000000E+00   8.07445480E-03   8.30204601E-03   8.26648455E-03   8.22482133E-03   3.42627265E+04   4.57525926E+04   4.67362796E+04   0.00000000E+00   2.93170740E+03   1.98332325E-05   7.01325582E-05   6.87410964E-05   2.36441008E-05   3.52255392E+01   4.24384417E+01   1.43092284E+03   3.18127422E+01   3.52625564E+02   3.85413698E+01   3.97154344E+01   5.65952304E+02   3.90435203E+01   5.60021227E+01
   1.48750000E+02   5.00000000E-01   5.00000000E-01   1.31467027E+05   4.79979070E+04   1.25613772E-03   9.79118368E-04   9.53731536E-04   5.39796207E+03   1.44418661E-05   4.30106753E-02   3.66565234E+00   7.28196837E-02   9.38794915E+05   3.66310284E-02   3.81194268E-02   3.74874583E-02   3.71870398E-02   2.00602338E+04   1.76159916E+04   1.17019318E+05   3.05525112E+04   3.04522935E+05   0.00000000E+00   8.07491991E-03   8.30267911E-03   8.26846915E-03   8.23067825E-03   3.42627443E+04   4.57776024E+04   4.67362796E+04   0.00000000E+00   2.93170740E+03   1.98332791E-05   7.01325582E-05   6.87410964E-05   2.36463794E-05   3.52255395E+01   4.24384443E+01   1.43070852E+03   3.18127417E+01   3.52625564E+02   3.85413698E+01   3.97154344E+01   5.65952365E+02   3.90435203E+01   5.60021227E+01
   1.66250000E+02   5.00000000E-01   5.00000000E-01   1.31467027E+05   4.80014061E+04   1.25613775E-03   9.77906099E-04   9.53052081E-04   5.39796207E+03   1.44429556E-05   4.34258473E-02   3.70366651E+00   7.55739120E-02   9.81151715E+05   3.66312597E-02   3.81196048E-02   3.74885175E-02   3.71890630E-02   2.00602341E+04   1.76160185E+04   1.17019318E+05   3.06179654E+04   3.00747942E+05   0.00000000E+00   8.07531842E-03   8.30313861E-03   8.27016666E-03   8.23530141E-03   3.42627582E+04   4.58019529E+04   4.67362796E+04   0.00000000E+00   2.93170740E+03   1.98333176E-05   7.01325582E-05   6.87410964E-05   2.36479821E-05   3.52255396E+01   4.24384465E+01   1.43053779E+03   3.18127413E+01   3.52625564E+02   3.85413698E+01   3.97154344E+01   5.65952430E+02   3.90435203E+01   5.60021227E+01
   1.83750000E+02   5.00000000E-01   5.00000000E-01   1.31467027E+05   4.80050569E+04   1.25613779E-03   9.77285647E-04   9.52824304E-04   5.39796206E+03   1.44441164E-05   4.38018030E-02   3.66323510E+00   7.81085472E-02   1.00581006E+06   3.66314593E-02   3.81197362E-02   3.74894286E-02   3.71906792E-02   2.00602343E+04   1.76160445E+04   1.17019318E+05   3.06636646E+04   2.98177316E+05   0.00000000E+00   8.07565316E-03   8.30344885E-03   8.27158966E-03   8.23881263E-03   3.42627687E+04   4.58251075E+04   4.67362796E+04   0.00000000E+00   2.93170740E+03   1.98333486E-05   7.01325582E-05   6.87410964E-05   2.36490808E-05   3.52255396E+01   4.24384482E+01   1.43038939E+03   3.18127408E+01   3.52625564E+02   3.85413698E+01   3.97154344E+01   5.65952498E+02   3.90435203E+01   5.60021227E+01
   2.01250000E+02   5.00000000E-01   5.00000000E-01   1.31467027E+05   4.80088392E+04   1.25613784E-03   9.77124316E-04   9.52950506E-04   5.39796206E+03   1.44453512E-05   4.41401135E-02   3.56168560E+00   8.04225751E-02   1.01751001E+06   3.66316293E-02   3.81198280E-02   3.74902024E-02   3.71919359E-02   2.00602346E+04   1.76160697E+04   1.17019318E+05   3.06941839E+04   2.96523653E+05   0.00000000E+00   8.07593413E-03   8.30364243E-03   8.27278146E-03   8.24142098E-03   3.42627761E+04   4.58467139E+04   4.67362796E+04   0.00000000E+00   2.93170740E+03   1.98333731E-05   7.01325582E-05   6.87410964E-05   2.36498013E-05   3.52255396E+01   4.24384495E+01   1.43025296E+03   3.18127404E+01   3.52625564E+02   3.85413698E+01   3.97154344E+01   5.65952570E+02   3.90435203E+01   5.60021227E+01
   2.18750000E+02   5.00000000E-01   5.00000000E-01   1.31467027E+05   4.80127332E+04   1.25613790E-03   9.77334125E-04   9.53366188E-04   5.39796205E+03   1.44466622E-05   4.44431885E-02   3.41622500E+00   8.25232462E-02   1.02013115E+06   3.66317748E-02   3.81198888E-02   3.74908620E-02   3.71929021E-02   2.00602349E+04   1.76160941E+04   1.17019318E+05   3.07133387E+04   2.95548242E+05   0.00000000E+00   8.07617292E-03   8.30374984E-03   8.27379187E-03   8.24333822E-03   3.42627812E+04   4.58665486E+04   4.67362796E+04   0.00000000E+00   2.93170740E+03   1.98333927E-05   7.01325582E-05   6.87410964E-05   2.36502343E-05   3.52255393E+01   4.24384504E+01   1.43012337E+03   3.18127401E+01   3.52625564E+02   3.85413698E+01   3.97154344E+01   5.65952644E+02   3.90435203E+01   5.60021227E+01
   2.36250000E+02   5.00000000E-01   5.00000000E-01   1.31467027E+05   4.80167204E+04   1.25613797E-03   9.77853516E-04   9.54026444E-04   5.39796205E+03   1.44480519E-05   4.47138860E-02   3.24207822E+00   8.44231938E-02   1.01660294E+06   3.66319012E-02   3.81199266E-02   3.74914327E-02   3.71936457E-02   2.00602352E+04   1.76161176E+04   1.17019318E+05   3.07240664E+04   2.95068065E+05   0.00000000E+00   8.07637996E-03   8.30379574E-03   8.27466576E-03   8.24474359E-03   3.42627846E+04   4.58844917E+04   4.67362796E+04   0.00000000E+00   2.93170740E+03   1.98334083E-05   7.01325582E-05   6.87410964E-05   2.36504450E-05   3.52255390E+01   4.24384508E+01   1.42999802E+03   3.18127397E+01   3.52625564E+02   3.85413698E+01   3.97154344E+01   5.65952721E+02   3.90435203E+01   5.60021227E+01
   2.53750000E+02   5.00000000E-01   5.00000000E-01   1.31467027E+05   4.80207837E+04   1.25613804E-03   9.78637603E-04   9.54898723E-04   5.39796204E+03   1.44495225E-05   4.49553089E-02   3.05175253E+00   8.61386608E-02   1.00902680E+06   3.66320133E-02   3.81199478E-02   3.74919371E-02   3.71942240E-02   2.00602355E+04   1.76161402E+04   1.17019318E+05   3.07285338E+04   2.94948902E+05   0.00000000E+00   8.07656364E-03   8.30379858E-03   8.27543918E-03   8.24577548E-03   3.42627866E+04   4.59005106E+04   4.67362796E+04   0.00000000E+00   2.93170740E+03   1.98334211E-05   7.01325582E-05   6.87410964E-05   2.36504810E-05   3.52255385E+01   4.24384509E+01   1.42987557E+03   3.18127394E+01   3.52625564E+02   3.85413698E+01   3.97154344E+01   5.65952799E+02   3.90435203E+01   5.60021227E+01
   2.71250000E+02   5.00000000E-01   5.00000000E-01   1.31467028E+05   4.80249082E+04   1.25613813E-03   9.79652687E-04   9.55958751E-04   5.39796204E+03   1.44510767E-05   4.51706585E-02   2.85493984E+00   8.76881020E-02   9.98852126E+05   3.66321151E-02   3.81199573E-02   3.74923932E-02   3.71946815E-02   2.00602358E+04   1.76161620E+04   1.17019318E+05   3.07283034E+04   2.95094837E+05   0.00000000E+00   8.07673023E-03   8.30377149E-03   8.27613905E-03   8.24653476E-03   3.42627876E+04   4.59146460E+04   4.67362796E+04   0.00000000E+00   2.93170740E+03   1.98334318E-05   7.01325582E-05   6.87410964E-05   2.36503773E-05   3.52255378E+01   4.24384505E+01   1.42975538E+03   3.18127391E+01   3.52625564E+02   3.85413698E+01   3.97154344E+01   5.65952880E+02   3.90435203E+01   5.60021227E+01
   2.88750000E+02   5.00000000E-01   5.00000000E-01   1.31467028E+05   4.80290810E+04   1.25613822E-03   9.80873469E-04   9.57188505E-04   5.39796203E+03   1.44527179E-05   4.53631118E-02   2.65875686E+00   8.90909690E-02   9.87041964E+05   3.66322093E-02   3.81199584E-02   3.74928144E-02   3.71950502E-02   2.00602361E+04   1.76161830E+04   1.17019318E+05   3.07244899E+04   2.95438379E+05   0.00000000E+00   8.07688420E-03   8.30372349E-03   8.27678443E-03   8.24709196E-03   3.42627880E+04   4.59269966E+04   4.67362796E+04   0.00000000E+00   2.93170740E+03   1.98334409E-05   7.01325582E-05   6.87410964E-05   2.36501602E-05   3.52255371E+01   4.24384498E+01   1.42963710E+03   3.18127388E+01   3.52625564E+02   3.85413698E+01   3.97154344E+01   5.65952962E+02   3.90435203E+01   5.60021227E+01
   3.06250000E+02   5.00000000E-01   5.00000000E-01   1.31467028E+05   4.80332912E+04   1.25613831E-03   9.82282045E-04   9.58575548E-04   5.39796203E+03   1.44544497E-05   4.55357175E-02   2.46813886E+00   9.03666703E-02   9.74209068E+05   3.66322982E-02   3.81199535E-02   3.74932099E-02   3.71953522E-02   2.00602365E+04   1.76162031E+04   1.17019318E+05   3.07178870E+04   2.95932452E+05   0.00000000E+00   8.07702849E-03   8.30366061E-03   8.27738802E-03   8.24749455E-03   3.42627878E+04   4.59377036E+04   4.67362796E+04   0.00000000E+00   2.93170740E+03   1.98334488E-05   7.01325582E-05   6.87410964E-05   2.36498502E-05   3.52255362E+01   4.24384488E+01   1.42952062E+03   3.18127386E+01   3.52625564E+02   3.85413698E+01   3.97154344E+01   5.65953046E+02   3.90435203E+01   5.60021227E+01
   3.23750000E+02   5.00000000E-01   5.00000000E-01   1.31467028E+05   4.80375300E+04   1.25613842E-03   9.83867868E-04   9.60113116E-04   5.39796202E+03   1.44562768E-05   4.56913150E-02   2.28627564E+00   9.15337380E-02   9.60721792E+05   3.66323828E-02   3.81199441E-02   3.74935856E-02   3.71956017E-02   2.00602368E+04   1.76162224E+04   1.17019318E+05   3.07090618E+04   2.96544319E+05   0.00000000E+00   8.07716496E-03   8.30358679E-03   8.27795773E-03   8.24777333E-03   3.42627873E+04   4.59469353E+04   4.67362796E+04   0.00000000E+00   2.93170740E+03   1.98334557E-05   7.01325582E-05   6.87410964E-05   2.36494634E-05   3.52255352E+01   4.24384474E+01   1.42940590E+03   3.18127383E+01   3.52625564E+02   3.85413698E+01   3.97154344E+01   5.65953131E+02   3.90435203E+01   5.60021227E+01
   3.41250000E+02   5.00000000E-01   5.00000000E-01   1.31467028E+05   4.80417902E+04   1.25613852E-03   9.85627894E-04   9.61800360E-04   5.39796201E+03   1.44582044E-05   4.58324789E-02   2.11502752E+00   9.26092296E-02   9.46784990E+05   3.66324638E-02   3.81199312E-02   3.74939442E-02   3.71958068E-02   2.00602372E+04   1.76162410E+04   1.17019318E+05   3.06984256E+04   2.97251079E+05   0.00000000E+00   8.07729463E-03   8.30350454E-03   8.27849789E-03   8.24794748E-03   3.42627864E+04   4.59548724E+04   4.67362796E+04   0.00000000E+00   2.93170740E+03   1.98334618E-05   7.01325582E-05   6.87410964E-05   2.36490126E-05   3.52255341E+01   4.24384457E+01   1.42929294E+03   3.18127381E+01   3.52625564E+02   3.85413698E+01   3.97154344E+01   5.65953218E+02   3.90435203E+01   5.60021227E+01
   3.58750000E+02   5.00000000E-01   5.00000000E-01   1.31467028E+05   4.80460662E+04   1.25613864E-03   9.87566366E-04   9.63642281E-04   5.39796200E+03   1.44602383E-05   4.59614910E-02   1.95528952E+00   9.36083829E-02   9.32501425E+05   3.66325415E-02   3.81199152E-02   3.74942870E-02   3.71959719E-02   2.00602376E+04   1.76162588E+04   1.17019318E+05   3.06862838E+04   2.98036365E+05   0.00000000E+00   8.07741794E-03   8.30341547E-03   8.27901049E-03   8.24802865E-03   3.42627852E+04   4.59616959E+04   4.67362796E+04   0.00000000E+00   2.93170741E+03   1.98334672E-05   7.01325582E-05   6.87410964E-05   2.36485085E-05   3.52255329E+01   4.24384437E+01   1.42918179E+03   3.18127379E+01   3.52625564E+02   3.85413698E+01   3.97154344E+01   5.65953307E+02   3.90435203E+01   5.60021227E+01
   3.76250000E+02   5.00000000E-01   5.00000000E-01   1.31467028E+05   4.80503538E+04   1.25613876E-03   9.89694106E-04   9.65649270E-04   5.39796200E+03   1.44623852E-05   4.60803394E-02   1.80729097E+00   9.45445154E-02   9.17917221E+05   3.66326158E-02   3.81198966E-02   3.74946138E-02   3.71960990E-02   2.00602380E+04   1.76162759E+04   1.17019318E+05   3.06728730E+04   2.98887958E+05   0.00000000E+00   8.07753502E-03   8.30332066E-03   8.27949601E-03   8.24802399E-03   3.42627838E+04   4.59675768E+04   4.67362796E+04   0.00000000E+00   2.93170741E+03   1.98334719E-05   7.01325582E-05   6.87410964E-05   2.36479599E-05   3.52255317E+01   4.24384414E+01   1.42907252E+03   3.18127377E+01   3.52625564E+02   3.85413698E+01   3.97154344E+01   5.65953398E+02   3.90435203E+01   5.60021227E+01
   3.93750000E+02   5.00000000E-01   5.00000000E-01   1.31467028E+05   4.80546496E+04   1.25613890E-03   9.92027493E-04   9.67836372E-04   5.39796199E+03   1.44646521E-05   4.61907398E-02   1.67082738E+00   9.54291241E-02   9.03052786E+05   3.66326866E-02   3.81198754E-02   3.74949236E-02   3.71961888E-02   2.00602384E+04   1.76162924E+04   1.17019318E+05   3.06583854E+04   2.99796136E+05   0.00000000E+00   8.07764580E-03   8.30322091E-03   8.27995424E-03   8.24793845E-03   3.42627822E+04   4.59726693E+04   4.67362796E+04   0.00000000E+00   2.93170741E+03   1.98334759E-05   7.01325582E-05   6.87410964E-05   2.36473742E-05   3.52255304E+01   4.24384389E+01   1.42896519E+03   3.18127375E+01   3.52625564E+02   3.85413698E+01   3.97154344E+01   5.65953490E+02   3.90435203E+01   5.60021227E+01
   4.11250000E+02   5.00000000E-01   5.00000000E-01   1.31467029E+05   4.80589512E+04   1.25613903E-03   9.94587409E-04   9.70222493E-04   5.39796198E+03   1.44670468E-05   4.62941668E-02   1.54542862E+00   9.62720933E-02   8.87919967E+05   3.66327535E-02   3.81198519E-02   3.74952156E-02   3.71962419E-02   2.00602388E+04   1.76163082E+04   1.17019318E+05   3.06429861E+04   3.00752646E+05   0.00000000E+00   8.07775018E-03   8.30311689E-03   8.28038473E-03   8.24777616E-03   3.42627804E+04   4.59771084E+04   4.67362796E+04   0.00000000E+00   2.93170741E+03   1.98334793E-05   7.01325582E-05   6.87410964E-05   2.36467576E-05   3.52255290E+01   4.24384362E+01   1.42885986E+03   3.18127374E+01   3.52625564E+02   3.85413698E+01   3.97154344E+01   5.65953584E+02   3.90435203E+01   5.60021227E+01
   4.28750000E+02   5.00000000E-01   5.00000000E-01   1.31467029E+05   4.80632565E+04   1.25613918E-03   9.97398345E-04   9.72829739E-04   5.39796197E+03   1.44695772E-05   4.63918854E-02   1.43047217E+00   9.70819013E-02   8.72527556E+05   3.66328164E-02   3.81198262E-02   3.74954887E-02   3.71962588E-02   2.00602392E+04   1.76163235E+04   1.17019318E+05   3.06268210E+04   3.01750196E+05   0.00000000E+00   8.07784807E-03   8.30300923E-03   8.28078711E-03   8.24754120E-03   3.42627784E+04   4.59810110E+04   4.67362796E+04   2.17025214E-22   2.93170741E+03   1.98334820E-05   7.01325582E-05   6.87410964E-05   2.36461155E-05   3.52255276E+01   4.24384332E+01   1.42875660E+03   3.18127372E+01   3.52625564E+02   3.85413698E+01   3.97154344E+01   5.65953680E+02   3.90435203E+01   5.60021227E+01
   4.46250000E+02   5.00000000E-01   5.00000000E-01   1.31467029E+05   4.80675633E+04   1.25613934E-03   1.00048778E-03   9.75682936E-04   5.39796196E+03   1.44722521E-05   4.64849704E-02   1.32525465E+00   9.78657352E-02   8.56879490E+05   3.66328751E-02   3.81197985E-02   3.74957420E-02   3.71962402E-02   2.00602397E+04   1.76163381E+04   1.17019318E+05   3.06100215E+04   3.02782287E+05   0.00000000E+00   8.07793939E-03   8.30289852E-03   8.28116111E-03   8.24723768E-03   3.42627761E+04   4.59844788E+04   4.67362796E+04   0.00000000E+00   2.93170741E+03   1.98334841E-05   7.01325582E-05   6.87410964E-05   2.36454522E-05   3.52255261E+01   4.24384301E+01   1.42865548E+03   3.18127371E+01   3.52625564E+02   3.85413698E+01   3.97154344E+01   5.65953778E+02   3.90435203E+01   5.60021226E+01
   4.63750000E+02   5.00000000E-01   5.00000000E-01   1.31467029E+05   4.80718694E+04   1.25613950E-03   1.00388580E-03   9.78809376E-04   5.39796195E+03   1.44750807E-05   4.65743125E-02   1.22903598E+00   9.86294911E-02   8.40971194E+05   3.66329293E-02   3.81197689E-02   3.74959747E-02   3.71961867E-02   2.00602401E+04   1.76163522E+04   1.17019318E+05   3.05927051E+04   3.03843206E+05   0.00000000E+00   8.07802412E-03   8.30278529E-03   8.28150657E-03   8.24686964E-03   3.42627737E+04   4.59876014E+04   4.67362796E+04   1.50331099E-08   2.93170741E+03   1.98334855E-05   7.01325582E-05   6.87410964E-05   2.36447716E-05   3.52255246E+01   4.24384268E+01   1.42855656E+03   3.18127370E+01   3.52625564E+02   3.85413698E+01   3.97154344E+01   5.65953878E+02   3.90435203E+01   5.60021226E+01
   4.81250000E+02   5.00000000E-01   5.00000000E-01   1.31467030E+05   4.80761721E+04   1.25613967E-03   1.00762505E-03   9.82238779E-04   5.39796194E+03   1.44780727E-05   4.66606156E-02   1.14106859E+00   9.93777052E-02   8.24788568E+05   3.66329789E-02   3.81197376E-02   3.74961859E-02   3.71960990E-02   2.00602406E+04   1.76163658E+04   1.17019318E+05   3.05749763E+04   3.04928007E+05   0.00000000E+00   8.07810218E-03   8.30267005E-03   8.28182328E-03   8.24644090E-03   3.42627712E+04   4.59904583E+04   4.67362796E+04   9.12595408E-08   2.93170741E+03   1.98334864E-05   7.01325582E-05   6.87410964E-05   2.36440768E-05   3.52255230E+01   4.24384233E+01   1.42845990E+03   3.18127368E+01   3.52625564E+02   3.85413698E+01   3.97154344E+01   5.65953980E+02   3.90435203E+01   5.60021226E+01
   4.98750000E+02   5.00000000E-01   5.00000000E-01   1.31467030E+05   4.80804684E+04   1.25613986E-03   1.01174097E-03   9.86003511E-04   5.39796192E+03   1.44812386E-05   4.67443963E-02   1.06061979E+00   1.00113508E-01   8.08311436E+05   3.66330236E-02   3.81197047E-02   3.74963745E-02   3.71959775E-02   2.00602411E+04   1.76163789E+04   1.17019318E+05   3.05569279E+04   3.06032402E+05   0.00000000E+00   8.07817354E-03   8.30255323E-03   8.28211107E-03   8.24595506E-03   3.42627685E+04   4.59931174E+04   4.67362796E+04   2.01547840E-07   2.93170741E+03   1.98334866E-05   7.01325582E-05   6.87410964E-05   2.36433708E-05   3.52255215E+01   4.24384197E+01   1.42836556E+03   3.18127367E+01   3.52625564E+02   3.85413698E+01   3.97154344E+01   5.65954085E+02   3.90435203E+01   5.60021226E+01
   5.16250000E+02   5.00000000E-01   5.00000000E-01   1.31467031E+05   4.80847546E+04   1.25614005E-03   1.01627226E-03   9.90139060E-04   5.39796191E+03   1.44845895E-05   4.68259953E-02   9.86990719E-01   1.00838688E-01   7.91520425E+05   3.66330632E-02   3.81196703E-02   3.74965398E-02   3.71958230E-02   2.00602416E+04   1.76163915E+04   1.17019318E+05   3.05386433E+04   3.07152554E+05   0.00000000E+00   8.07823817E-03   8.30243525E-03   8.28236987E-03   8.24541571E-03   3.42627657E+04   4.59956332E+04   4.67362796E+04   3.59423029E-07   2.93170741E+03   1.98334863E-05   7.01325582E-05   6.87410964E-05   2.36426560E-05   3.52255199E+01   4.24384160E+01   1.42827360E+03   3.18127366E+01   3.52625564E+02   3.85413698E+01   3.97154344E+01   5.65954192E+02   3.90435203E+01   5.60021226E+01
   5.33750000E+02   5.00000000E-01   5.00000000E-01   1.31467031E+05   4.80890271E+04   1.25614026E-03   1.02126180E-03   9.94684781E-04   5.39796190E+03   1.44881375E-05   4.69056056E-02   9.19531672E-01   1.01553916E-01   7.74404319E+05   3.66330976E-02   3.81196347E-02   3.74966810E-02   3.71956365E-02   2.00602421E+04   1.76164036E+04   1.17019318E+05   3.05201992E+04   3.08284837E+05   0.00000000E+00   8.07829609E-03   8.30231651E-03   8.28259985E-03   8.24482678E-03   3.42627627E+04   4.59980440E+04   4.67362796E+04   5.83797968E-07   2.93170742E+03   1.98334854E-05   7.01325582E-05   6.87410964E-05   2.36419345E-05   3.52255183E+01   4.24384122E+01   1.42818405E+03   3.18127366E+01   3.52625564E+02   3.85413698E+01   3.97154344E+01   5.65954301E+02   3.90435203E+01   5.60021226E+01
   5.51250000E+02   5.00000000E-01   5.00000000E-01   1.31467032E+05   4.80932819E+04   1.25614047E-03   1.02675772E-03   9.99684864E-04   5.39796188E+03   1.44918956E-05   4.69833160E-02   8.57652251E-01   1.02259092E-01   7.56964560E+05   3.66331267E-02   3.81195978E-02   3.74967981E-02   3.71954194E-02   2.00602427E+04   1.76164152E+04   1.17019318E+05   3.05016684E+04   3.09425660E+05   0.00000000E+00   8.07834746E-03   8.30219746E-03   8.28280158E-03   8.24419276E-03   3.42627596E+04   4.60003703E+04   4.67362796E+04   9.01193185E-07   2.93170742E+03   1.98334839E-05   7.01325582E-05   6.87410964E-05   2.36412081E-05   3.52255167E+01   4.24384083E+01   1.42809698E+03   3.18127365E+01   3.52625564E+02   3.85413698E+01   3.97154344E+01   5.65954413E+02   3.90435203E+01   5.60021226E+01
   5.68750000E+02   5.00000000E-01   5.00000000E-01   1.31467032E+05   4.80975150E+04   1.25614071E-03   1.03281464E-03   1.00518947E-03   5.39796187E+03   1.44958776E-05   4.70591566E-02   8.00824820E-01   1.02953730E-01   7.39214864E+05   3.66331506E-02   3.81195600E-02   3.74968914E-02   3.71951742E-02   2.00602432E+04   1.76164264E+04   1.17019318E+05   3.04831208E+04   3.10571409E+05   0.00000000E+00   8.07839249E-03   8.30207855E-03   8.28297613E-03   8.24351879E-03   3.42627565E+04   4.60026176E+04   4.67362796E+04   1.34891150E-06   2.93170742E+03   1.98334820E-05   7.01325582E-05   6.87410964E-05   2.36404785E-05   3.52255151E+01   4.24384044E+01   1.42801243E+03   3.18127364E+01   3.52625564E+02   3.85413698E+01   3.97154344E+01   5.65954527E+02   3.90435203E+01   5.60021226E+01
   5.86250000E+02   5.00000000E-01   5.00000000E-01   1.31467033E+05   4.81017222E+04   1.25614095E-03   1.03949506E-03   1.01125594E-03   5.39796185E+03   1.45000986E-05   4.71331363E-02   7.48581367E-01   1.03637254E-01   7.21176095E+05   3.66331695E-02   3.81195216E-02   3.74969617E-02   3.71949035E-02   2.00602438E+04   1.76164371E+04   1.17019318E+05   3.04646232E+04   3.11718524E+05   0.00000000E+00   8.07843154E-03   8.30196025E-03   8.28312498E-03   8.24281051E-03   3.42627532E+04   4.60047797E+04   4.67362796E+04   1.97959726E-06   2.93170742E+03   1.98334795E-05   7.01325582E-05   6.87410964E-05   2.36397470E-05   3.52255134E+01   4.24384004E+01   1.42793045E+03   3.18127363E+01   3.52625564E+02   3.85413698E+01   3.97154344E+01   5.65954644E+02   3.90435203E+01   5.60021226E+01
   6.03750000E+02   5.00000000E-01   5.00000000E-01   1.31467034E+05   4.81058990E+04   1.25614121E-03   1.04687077E-03   1.01795008E-03   5.39796184E+03   1.45045748E-05   4.72052593E-02   7.00505618E-01   1.04309110E-01   7.02868680E+05   3.66331835E-02   3.81194826E-02   3.74970101E-02   3.71946103E-02   2.00602444E+04   1.76164474E+04   1.17019318E+05   3.04462382E+04   3.12863667E+05   0.00000000E+00   8.07846502E-03   8.30184302E-03   8.28324993E-03   8.24207373E-03   3.42627499E+04   4.60068455E+04   4.67362796E+04   2.86781236E-06   2.93170742E+03   1.98334766E-05   7.01325582E-05   6.87410964E-05   2.36390149E-05   3.52255118E+01   4.24383963E+01   1.42785106E+03   3.18127363E+01   3.52625564E+02   3.85413698E+01   3.97154344E+01   5.65954763E+02   3.90435203E+01   5.60021226E+01
   6.21250000E+02   5.00000000E-01   5.00000000E-01   1.31467034E+05   4.81100401E+04   1.25614148E-03   1.05502425E-03   1.02534752E-03   5.39796182E+03   1.45093241E-05   4.72755181E-02   6.56223271E-01   1.04968689E-01   6.84305745E+05   3.66331930E-02   3.81194434E-02   3.74970379E-02   3.71942974E-02   2.00602450E+04   1.76164573E+04   1.17019318E+05   3.04280220E+04   3.14003901E+05   0.00000000E+00   8.07849336E-03   8.30172725E-03   8.28335280E-03   8.24131396E-03   3.42627466E+04   4.60088034E+04   4.67362796E+04   4.11956341E-06   2.93170742E+03   1.98334734E-05   7.01325582E-05   6.87410964E-05   2.36382832E-05   3.52255102E+01   4.24383922E+01   1.42777433E+03   3.18127362E+01   3.52625564E+02   3.85413698E+01   3.97154344E+01   5.65954885E+02   3.90435203E+01   5.60021226E+01