 TITLE = "Mineral Area" 
VARIABLES = "X"          "Y"              "Z"            "Forsterite"     "Fayalite"       "Brucite"        "Lizardite"      "Chrysotile"     "Hematite"       "Magnetite(am)"  "Saponite(Ca)"   "Saponite(K)"    "Saponite(Mg)"   "Saponite(Na)"   "Beidellite(Ca)" "Beidellite(K)"  "Beidellite(Mg)" "Beidellite(Na)" "Enstatite(alph" "Ferrosilite(al" "Anorthite"      "Albite(low)"    "Clinochlore"    "Sudoite"        "Montmor(MgCa)"  "Montmor(MgK)"   "Montmor(MgMg)"  "Montmor(MgNa)"  "Kaolinite"      "Tremolite"      "Pargasite"      "Anhydrite"      "Epidote"        "Scolecite"      "Pyrite"         "FeS(am)"        "Quartz(alpha)" 
 ZONE I=         200 , J=           1 , K=           1  F=POINT
   8.75000000E+00   5.00000000E-01   5.00000000E-01   1.31264527E+05   4.79496739E+04   0.00000000E+00   0.00000000E+00   0.00000000E+00   5.86254960E+03   0.00000000E+00   3.71403480E-02   7.38069214E+04   5.20664808E-02   1.01751068E+04   3.65769717E-02   3.81126419E-02   3.74281680E-02   3.71207700E-02   2.00601628E+04   1.76156955E+04   1.16387411E+05   2.96035152E+04   3.84701486E+05   4.53327696E-03   8.06970677E-03   8.26617667E-03   8.25440590E-03   8.18958637E-03   3.42593085E+04   4.53652180E+04   4.64597794E+04   0.00000000E+00   2.88484519E+03   1.95826200E-05   6.97553468E-05   6.84744558E-05   2.35905383E-05
   2.62500000E+01   5.00000000E-01   5.00000000E-01   1.31264527E+05   4.79514636E+04   0.00000000E+00   0.00000000E+00   0.00000000E+00   5.86254957E+03   0.00000000E+00   3.72045870E-02   4.35071164E+05   5.60360126E-02   5.97319170E+04   3.65769777E-02   3.81126504E-02   3.74281958E-02   3.71208424E-02   2.00601618E+04   1.76157271E+04   1.16387411E+05   2.96585966E+04   3.76572171E+05   3.60190604E-03   8.06973736E-03   8.26691880E-03   8.25453750E-03   8.19011213E-03   3.42593114E+04   4.53876688E+04   4.64597794E+04   0.00000000E+00   2.88484519E+03   1.95826284E-05   6.97553468E-05   6.84745044E-05   2.36038725E-05
   4.37500000E+01   5.00000000E-01   5.00000000E-01   1.31264527E+05   4.79529207E+04   0.00000000E+00   0.00000000E+00   0.00000000E+00   5.86254957E+03   0.00000000E+00   3.72300856E-02   5.31174135E+05   5.76336372E-02   8.22931531E+04   3.65770647E-02   3.81127679E-02   3.74285996E-02   3.71218713E-02   2.00601612E+04   1.76157504E+04   1.16387411E+05   2.98312751E+04   3.66538853E+05   2.41809714E-03   8.06998028E-03   8.27250248E-03   8.25558127E-03   8.19416410E-03   3.42593334E+04   4.53981919E+04   4.64597794E+04   0.00000000E+00   2.88484519E+03   1.95826825E-05   6.97553468E-05   6.84745247E-05   2.36148650E-05
   6.12500000E+01   5.00000000E-01   5.00000000E-01   1.31264527E+05   4.79545068E+04   0.00000000E+00   0.00000000E+00   0.00000000E+00   5.86254956E+03   0.00000000E+00   3.72550692E-02   6.49352541E+05   5.92899284E-02   1.15213723E+05   3.65773291E-02   3.81131042E-02   3.74298240E-02   3.71248972E-02   2.00601610E+04   1.76157742E+04   1.16387411E+05   3.00762408E+04   3.52530190E+05   1.37915424E-03   8.07054917E-03   8.28474927E-03   8.25802297E-03   8.20331771E-03   3.42593760E+04   4.54065832E+04   4.64597794E+04   0.00000000E+00   2.88484519E+03   1.95827846E-05   6.97553468E-05   6.84745408E-05   2.36234324E-05
   7.87500000E+01   5.00000000E-01   5.00000000E-01   1.31264527E+05   4.79563805E+04   0.00000000E+00   0.00000000E+00   0.00000000E+00   5.86254956E+03   0.00000000E+00   3.72877445E-02   7.96028052E+05   6.14747134E-02   1.62846244E+05   3.65777601E-02   3.81136166E-02   3.74318171E-02   3.71296534E-02   2.00601610E+04   1.76157988E+04   1.16387411E+05   3.03247800E+04   3.37779444E+05   7.90058951E-04   8.07134126E-03   8.30054683E-03   8.26141897E-03   8.21554327E-03   3.42594277E+04   4.54206849E+04   4.64597794E+04   0.00000000E+00   2.88484519E+03   1.95829083E-05   6.97553468E-05   6.84745546E-05   2.36296300E-05
   9.62500000E+01   5.00000000E-01   5.00000000E-01   1.31264527E+05   4.79585941E+04   0.00000000E+00   0.00000000E+00   0.00000000E+00   5.86254955E+03   0.00000000E+00   3.73253149E-02   9.18970438E+05   6.40331653E-02   2.18037991E+05   3.65782855E-02   3.81141951E-02   3.74342419E-02   3.71352163E-02   2.00601611E+04   1.76158239E+04   1.16387411E+05   3.05377351E+04   3.24986021E+05   5.24759312E-04   8.07219978E-03   8.31619970E-03   8.26509551E-03   8.22816919E-03   3.42594796E+04   4.54383869E+04   4.64597794E+04   0.00000000E+00   2.88484519E+03   1.95830323E-05   6.97553468E-05   6.84745665E-05   2.36338683E-05
   1.13750000E+02   5.00000000E-01   5.00000000E-01   1.31264527E+05   4.79611549E+04   0.00000000E+00   0.00000000E+00   0.00000000E+00   5.86254954E+03   0.00000000E+00   3.73640305E-02   9.94100990E+05   6.67373641E-02   2.74218852E+05   3.65788071E-02   3.81147178E-02   3.74366440E-02   3.71404696E-02   2.00601613E+04   1.76158493E+04   1.16387411E+05   3.06980699E+04   3.15387797E+05   4.07635984E-04   8.07298669E-03   8.32900063E-03   8.26846082E-03   8.23906587E-03   3.42595236E+04   4.54575158E+04   4.64597794E+04   0.00000000E+00   2.88484519E+03   1.95831401E-05   6.97553468E-05   6.84745766E-05   2.36366721E-05
   1.31250000E+02   5.00000000E-01   5.00000000E-01   1.31264527E+05   4.79640765E+04   0.00000000E+00   0.00000000E+00   0.00000000E+00   5.86254953E+03   0.00000000E+00   3.74023363E-02   1.02159669E+06   6.94884501E-02   3.27767158E+05   3.65792502E-02   3.81151085E-02   3.74386787E-02   3.71446461E-02   2.00601615E+04   1.76158752E+04   1.16387411E+05   3.08057239E+04   3.09033354E+05   3.53385077E-04   8.07362624E-03   8.33786686E-03   8.27119113E-03   8.24723057E-03   3.42595554E+04   4.54767764E+04   4.64597794E+04   0.00000000E+00   2.88484519E+03   1.95832230E-05   6.97553468E-05   6.84745853E-05   2.36385086E-05
   1.48750000E+02   5.00000000E-01   5.00000000E-01   1.31264527E+05   4.79673877E+04   0.00000000E+00   0.00000000E+00   0.00000000E+00   5.86254953E+03   0.00000000E+00   3.74401916E-02   1.01122097E+06   7.22869668E-02   3.77209788E+05   3.65795833E-02   3.81153494E-02   3.74402028E-02   3.71474957E-02   2.00601617E+04   1.76159018E+04   1.16387411E+05   3.08695932E+04   3.05377858E+05   3.27070206E-04   8.07410326E-03   8.34299519E-03   8.27322268E-03   8.25263441E-03   3.42595745E+04   4.54955019E+04   4.64597794E+04   0.00000000E+00   2.88484519E+03   1.95832799E-05   6.97553468E-05   6.84745925E-05   2.36397296E-05
   1.66250000E+02   5.00000000E-01   5.00000000E-01   1.31264527E+05   4.79711091E+04   0.00000000E+00   0.00000000E+00   0.00000000E+00   5.86254952E+03   0.00000000E+00   3.74778353E-02   9.75685272E+05   7.51522359E-02   4.22471551E+05   3.65798139E-02   3.81154651E-02   3.74412522E-02   3.71491811E-02   2.00601620E+04   1.76159291E+04   1.16387411E+05   3.09017000E+04   3.03665962E+05   3.13875025E-04   8.07444330E-03   8.34526603E-03   8.27466606E-03   8.25582946E-03   3.42595832E+04   4.55133202E+04   4.64597794E+04   0.00000000E+00   2.88484519E+03   1.95833153E-05   6.97553468E-05   6.84745983E-05   2.36405684E-05
   1.83750000E+02   5.00000000E-01   5.00000000E-01   1.31264527E+05   4.79752290E+04   0.00000000E+00   0.00000000E+00   0.00000000E+00   5.86254951E+03   0.00000000E+00   3.75151685E-02   9.26591525E+05   7.80750844E-02   4.64283959E+05   3.65799711E-02   3.81154979E-02   3.74419624E-02   3.71500644E-02   2.00601623E+04   1.76159569E+04   1.16387411E+05   3.09135750E+04   3.03170283E+05   3.07112109E-04   8.07468972E-03   8.34572445E-03   8.27570774E-03   8.25756451E-03   3.42595850E+04   4.55300012E+04   4.64597794E+04   0.00000000E+00   2.88484519E+03   1.95833360E-05   6.97553468E-05   6.84746026E-05   2.36411614E-05
   2.01250000E+02   5.00000000E-01   5.00000000E-01   1.31264527E+05   4.79797362E+04   0.00000000E+00   0.00000000E+00   0.00000000E+00   5.86254951E+03   0.00000000E+00   3.75523961E-02   8.69888024E+05   8.10665869E-02   5.02688848E+05   3.65800757E-02   3.81154763E-02   3.74424293E-02   3.71503961E-02   2.00601627E+04   1.76159851E+04   1.16387411E+05   3.09125430E+04   3.03452891E+05   3.03570840E-04   8.07487218E-03   8.34504918E-03   8.27647523E-03   8.25833827E-03   3.42595823E+04   4.55456909E+04   4.64597794E+04   0.00000000E+00   2.88484519E+03   1.95833466E-05   6.97553468E-05   6.84746054E-05   2.36415925E-05
   2.18750000E+02   5.00000000E-01   5.00000000E-01   1.31264527E+05   4.79846262E+04   0.00000000E+00   0.00000000E+00   0.00000000E+00   5.86254950E+03   0.00000000E+00   3.75899436E-02   8.08677712E+05   8.41549564E-02   5.37255584E+05   3.65801374E-02   3.81154156E-02   3.74426992E-02   3.71503055E-02   2.00601630E+04   1.76160135E+04   1.16387411E+05   3.09027263E+04   3.04276539E+05   3.01658456E-04   8.07500605E-03   8.34360768E-03   8.27703458E-03   8.25841829E-03   3.42595762E+04   4.55608930E+04   4.64597794E+04   0.00000000E+00   2.88484519E+03   1.95833493E-05   6.97553468E-05   6.84746067E-05   2.36419168E-05
   2.36250000E+02   5.00000000E-01   5.00000000E-01   1.31264527E+05   4.79898456E+04   0.00000000E+00   0.00000000E+00   0.00000000E+00   5.86254950E+03   0.00000000E+00   3.76274720E-02   7.46619572E+05   8.73064968E-02   5.68491430E+05   3.65801710E-02   3.81153327E-02   3.74428396E-02   3.71499535E-02   2.00601634E+04   1.76160419E+04   1.16387411E+05   3.08879059E+04   3.05401062E+05   3.00584078E-04   8.07510971E-03   8.34175685E-03   8.27746469E-03   8.25808734E-03   3.42595681E+04   4.55760878E+04   4.64597794E+04   0.00000000E+00   2.88484519E+03   1.95833470E-05   6.97553468E-05   6.84746067E-05   2.36421626E-05
   2.53750000E+02   5.00000000E-01   5.00000000E-01   1.31264527E+05   4.79953407E+04   0.00000000E+00   0.00000000E+00   0.00000000E+00   5.86254949E+03   0.00000000E+00   3.76645702E-02   6.84808992E+05   9.04807725E-02   5.95923301E+05   3.65801809E-02   3.81152339E-02   3.74428710E-02   3.71493968E-02   2.00601638E+04   1.76160701E+04   1.16387411E+05   3.08698065E+04   3.06733725E+05   2.99939495E-04   8.07518960E-03   8.33963871E-03   8.27779316E-03   8.25745421E-03   3.42595586E+04   4.55917104E+04   4.64597794E+04   0.00000000E+00   2.88484520E+03   1.95833406E-05   6.97553468E-05   6.84746054E-05   2.36423489E-05
   2.71250000E+02   5.00000000E-01   5.00000000E-01   1.31264527E+05   4.80010542E+04   0.00000000E+00   0.00000000E+00   0.00000000E+00   5.86254948E+03   0.00000000E+00   3.77006761E-02   6.24301312E+05   9.36256933E-02   6.19302020E+05   3.65801697E-02   3.81151235E-02   3.74428066E-02   3.71486736E-02   2.00601643E+04   1.76160980E+04   1.16387411E+05   3.08494600E+04   3.08213370E+05   2.99517229E-04   8.07524929E-03   8.33733820E-03   8.27803538E-03   8.25658376E-03   3.42595480E+04   4.56079371E+04   4.64597794E+04   0.00000000E+00   2.88484520E+03   1.95833309E-05   6.97553468E-05   6.84746030E-05   2.36424881E-05
   2.88750000E+02   5.00000000E-01   5.00000000E-01   1.31264527E+05   4.80069315E+04   0.00000000E+00   0.00000000E+00   0.00000000E+00   5.86254948E+03   0.00000000E+00   3.77351840E-02   5.66100366E+05   9.66869071E-02   6.38663190E+05   3.65801414E-02   3.81150061E-02   3.74426638E-02   3.71478275E-02   2.00601647E+04   1.76161254E+04   1.16387411E+05   3.08276321E+04   3.09788818E+05   2.99213503E-04   8.07529243E-03   8.33492930E-03   8.27820703E-03   8.25553628E-03   3.42595367E+04   4.56245967E+04   4.64597794E+04   0.00000000E+00   2.88484520E+03   1.95833184E-05   6.97553468E-05   6.84745997E-05   2.36425879E-05
   3.06250000E+02   5.00000000E-01   5.00000000E-01   1.31264527E+05   4.80129317E+04   0.00000000E+00   0.00000000E+00   0.00000000E+00   5.86254947E+03   0.00000000E+00   3.77676405E-02   5.11036021E+05   9.96244814E-02   6.54264212E+05   3.65801007E-02   3.81148861E-02   3.74424648E-02   3.71469069E-02   2.00601652E+04   1.76161523E+04   1.16387411E+05   3.08049132E+04   3.11416839E+05   2.98977103E-04   8.07532307E-03   8.33248036E-03   8.27832551E-03   8.25437173E-03   3.42595252E+04   4.56412435E+04   4.64597794E+04   0.00000000E+00   2.88484520E+03   1.95833041E-05   6.97553468E-05   6.84745955E-05   2.36426521E-05
   3.23750000E+02   5.00000000E-01   5.00000000E-01   1.31264528E+05   4.80190338E+04   0.00000000E+00   0.00000000E+00   0.00000000E+00   5.86254947E+03   0.00000000E+00   3.77978577E-02   4.59700754E+05   1.02422541E-01   6.66497585E+05   3.65800527E-02   3.81147677E-02   3.74422330E-02   3.71459590E-02   2.00601656E+04   1.76161786E+04   1.16387411E+05   3.07817553E+04   3.13062304E+05   2.98783186E-04   8.07534545E-03   8.33005136E-03   8.27840884E-03   8.25314670E-03   3.42595138E+04   4.56573345E+04   4.64597794E+04   0.00000000E+00   2.88484520E+03   1.95832888E-05   6.97553468E-05   6.84745905E-05   2.36426825E-05
   3.41250000E+02   5.00000000E-01   5.00000000E-01   1.31264528E+05   4.80252340E+04   0.00000000E+00   0.00000000E+00   0.00000000E+00   5.86254946E+03   0.00000000E+00   3.78259148E-02   4.12429805E+05   1.05089356E-01   6.75797392E+05   3.65800021E-02   3.81146542E-02   3.74419899E-02   3.71450238E-02   2.00601661E+04   1.76162044E+04   1.16387411E+05   3.07584969E+04   3.14698477E+05   2.98619385E-04   8.07536350E-03   8.32769015E-03   8.27847384E-03   8.25190981E-03   3.42595028E+04   4.56723911E+04   4.64597794E+04   0.00000000E+00   2.88484520E+03   1.95832733E-05   6.97553468E-05   6.84745850E-05   2.36426792E-05
   3.58750000E+02   5.00000000E-01   5.00000000E-01   1.31264528E+05   4.80315414E+04   0.00000000E+00   0.00000000E+00   0.00000000E+00   5.86254945E+03   0.00000000E+00   3.78520974E-02   3.69291561E+05   1.07651864E-01   6.82501698E+05   3.65799523E-02   3.81145475E-02   3.74417511E-02   3.71441279E-02   2.00601667E+04   1.76162297E+04   1.16387411E+05   3.07353456E+04   3.16309789E+05   2.98478804E-04   8.07538014E-03   8.32542632E-03   8.27853295E-03   8.25069441E-03   3.42594924E+04   4.56861016E+04   4.64597794E+04   0.00000000E+00   2.88484520E+03   1.95832581E-05   6.97553468E-05   6.84745789E-05   2.36426420E-05
   3.76250000E+02   5.00000000E-01   5.00000000E-01   1.31264528E+05   4.80379698E+04   0.00000000E+00   0.00000000E+00   0.00000000E+00   5.86254945E+03   0.00000000E+00   3.78768028E-02   3.30185516E+05   1.10147239E-01   6.86876600E+05   3.65799056E-02   3.81144485E-02   3.74415263E-02   3.71432860E-02   2.00601672E+04   1.76162545E+04   1.16387411E+05   3.07124242E+04   3.17888005E+05   2.98357057E-04   8.07539735E-03   8.32327496E-03   8.27859450E-03   8.24952082E-03   3.42594828E+04   4.56983310E+04   4.64597794E+04   0.00000000E+00   2.88484520E+03   1.95832435E-05   6.97553468E-05   6.84745724E-05   2.36425705E-05
   3.93750000E+02   5.00000000E-01   5.00000000E-01   1.31264528E+05   4.80445322E+04   0.00000000E+00   0.00000000E+00   0.00000000E+00   5.86254944E+03   0.00000000E+00   3.79004700E-02   2.94885019E+05   1.12616462E-01   6.89074776E+05   3.65798626E-02   3.81143571E-02   3.74413194E-02   3.71425020E-02   2.00601678E+04   1.76162787E+04   1.16387411E+05   3.06897791E+04   3.19431785E+05   2.98250815E-04   8.07541602E-03   8.32123798E-03   8.27866229E-03   8.24839651E-03   3.42594739E+04   4.57090979E+04   4.64597794E+04   0.00000000E+00   2.88484520E+03   1.95832298E-05   6.97553468E-05   6.84745656E-05   2.36424647E-05
   4.11250000E+02   5.00000000E-01   5.00000000E-01   1.31264528E+05   4.80512365E+04   0.00000000E+00   0.00000000E+00   0.00000000E+00   5.86254943E+03   0.00000000E+00   3.79235262E-02   2.63103203E+05   1.15099304E-01   6.89173693E+05   3.65798234E-02   3.81142728E-02   3.74411297E-02   3.71417720E-02   2.00601683E+04   1.76163026E+04   1.16387411E+05   3.06674093E+04   3.20943894E+05   2.98157354E-04   8.07543619E-03   8.31930861E-03   8.27873649E-03   8.24731971E-03   3.42594656E+04   4.57185350E+04   4.64597794E+04   0.00000000E+00   2.88484520E+03   1.95832170E-05   6.97553468E-05   6.84745585E-05   2.36423251E-05
   4.28750000E+02   5.00000000E-01   5.00000000E-01   1.31264529E+05   4.80580822E+04   0.00000000E+00   0.00000000E+00   0.00000000E+00   5.86254942E+03   0.00000000E+00   3.79463520E-02   2.34536958E+05   1.17630966E-01   6.87216560E+05   3.65797872E-02   3.81141945E-02   3.74409541E-02   3.71410881E-02   2.00601689E+04   1.76163259E+04   1.16387411E+05   3.06452954E+04   3.22428673E+05   2.98074425E-04   8.07545742E-03   8.31747585E-03   8.27881509E-03   8.24628356E-03   3.42594579E+04   4.57268497E+04   4.64597794E+04   0.00000000E+00   2.88484520E+03   1.95832049E-05   6.97553468E-05   6.84745512E-05   2.36421526E-05
   4.46250000E+02   5.00000000E-01   5.00000000E-01   1.31264529E+05   4.80650592E+04   0.00000000E+00   0.00000000E+00   0.00000000E+00   5.86254941E+03   0.00000000E+00   3.79692626E-02   2.08880887E+05   1.20239959E-01   6.83206716E+05   3.65797528E-02   3.81141213E-02   3.74407872E-02   3.71404399E-02   2.00601696E+04   1.76163487E+04   1.16387411E+05   3.06234062E+04   3.23891591E+05   2.98000138E-04   8.07547881E-03   8.31572639E-03   8.27889435E-03   8.24527786E-03   3.42594508E+04   4.57343005E+04   4.64597794E+04   0.00000000E+00   2.88484520E+03   1.95831934E-05   6.97553468E-05   6.84745438E-05   2.36419483E-05
   4.63750000E+02   5.00000000E-01   5.00000000E-01   1.31264529E+05   4.80721475E+04   0.00000000E+00   0.00000000E+00   0.00000000E+00   5.86254940E+03   0.00000000E+00   3.79924932E-02   1.85844847E+05   1.22946498E-01   6.77132919E+05   3.65797189E-02   3.81140522E-02   3.74406228E-02   3.71398164E-02   2.00601702E+04   1.76163709E+04   1.16387411E+05   3.06017102E+04   3.25338137E+05   2.97932939E-04   8.07549928E-03   8.31404661E-03   8.27896963E-03   8.24429111E-03   3.42594440E+04   4.57411768E+04   4.64597794E+04   0.00000000E+00   2.88484520E+03   1.95831823E-05   6.97553468E-05   6.84745362E-05   2.36417138E-05
   4.81250000E+02   5.00000000E-01   5.00000000E-01   1.31264530E+05   4.80793170E+04   0.00000000E+00   0.00000000E+00   0.00000000E+00   5.86254939E+03   0.00000000E+00   3.80161889E-02   1.65162799E+05   1.25761211E-01   6.68989728E+05   3.65796842E-02   3.81139860E-02   3.74404550E-02   3.71392073E-02   2.00601709E+04   1.76163926E+04   1.16387411E+05   3.05801847E+04   3.26772964E+05   2.97871593E-04   8.07551771E-03   8.31242427E-03   8.27903612E-03   8.24331241E-03   3.42594375E+04   4.57477822E+04   4.64597794E+04   0.00000000E+00   2.88484521E+03   1.95831716E-05   6.97553468E-05   6.84745286E-05   2.36414507E-05
   4.98750000E+02   5.00000000E-01   5.00000000E-01   1.31264530E+05   4.80866391E+04   0.00000000E+00   0.00000000E+00   0.00000000E+00   5.86254938E+03   0.00000000E+00   3.80408253E-02   1.46179704E+05   1.28731496E-01   6.56418263E+05   3.65796377E-02   3.81139176E-02   3.74402339E-02   3.71385392E-02   2.00601716E+04   1.76164139E+04   1.16387411E+05   3.05579650E+04   3.28278297E+05   2.97811966E-04   8.07552205E-03   8.31076478E-03   8.27904277E-03   8.24223271E-03   3.42594309E+04   4.57544201E+04   4.64597794E+04   0.00000000E+00   2.88484521E+03   1.95831595E-05   6.97553468E-05   6.84745211E-05   2.36411658E-05
   5.16250000E+02   5.00000000E-01   5.00000000E-01   1.31264530E+05   4.80940084E+04   0.00000000E+00   0.00000000E+00   0.00000000E+00   5.86254937E+03   0.00000000E+00   3.80662035E-02   1.29304934E+05   1.31835340E-01   6.42335639E+05   3.65795862E-02   3.81138504E-02   3.74399906E-02   3.71378602E-02   2.00601723E+04   1.76164347E+04   1.16387411E+05   3.05357658E+04   3.29775104E+05   2.97756418E-04   8.07551997E-03   8.30913295E-03   8.27902217E-03   8.24112714E-03   3.42594244E+04   4.57614687E+04   4.64597794E+04   0.00000000E+00   2.88484521E+03   1.95831472E-05   6.97553468E-05   6.84745135E-05   2.36408590E-05
   5.33750000E+02   5.00000000E-01   5.00000000E-01   1.31264531E+05   4.81013446E+04   0.00000000E+00   0.00000000E+00   0.00000000E+00   5.86254936E+03   0.00000000E+00   3.80920408E-02   1.14251972E+05   1.35035717E-01   6.26597271E+05   3.65795315E-02   3.81137853E-02   3.74397332E-02   3.71371829E-02   2.00601731E+04   1.76164546E+04   1.16387411E+05   3.05138381E+04   3.31256707E+05   2.97705245E-04   8.07551377E-03   8.30754622E-03   8.27898406E-03   8.24001803E-03   3.42594181E+04   4.57691510E+04   4.64597794E+04   0.00000000E+00   2.88484521E+03   1.95831348E-05   6.97553468E-05   6.84745060E-05   2.36405307E-05
   5.51250000E+02   5.00000000E-01   5.00000000E-01   1.31264531E+05   4.81085905E+04   0.00000000E+00   0.00000000E+00   0.00000000E+00   5.86254935E+03   0.00000000E+00   3.81180548E-02   1.00787006E+05   1.38295986E-01   6.09054931E+05   3.65794732E-02   3.81137220E-02   3.74394605E-02   3.71365059E-02   2.00601738E+04   1.76164738E+04   1.16387411E+05   3.04922224E+04   3.32726127E+05   2.97658085E-04   8.07550332E-03   8.30600294E-03   8.27892799E-03   8.23890539E-03   3.42594120E+04   4.57776138E+04   4.64597794E+04   0.00000000E+00   2.88484521E+03   1.95831223E-05   6.97553468E-05   6.84744986E-05   2.36401819E-05
   5.68750000E+02   5.00000000E-01   5.00000000E-01   1.31264532E+05   4.81157026E+04   0.00000000E+00   0.00000000E+00   0.00000000E+00   5.86254934E+03   0.00000000E+00   3.81439440E-02   8.87470224E+04   1.41578369E-01   5.89808605E+05   3.65794115E-02   3.81136606E-02   3.74391724E-02   3.71358294E-02   2.00601746E+04   1.76164921E+04   1.16387411E+05   3.04709328E+04   3.34183479E+05   2.97614668E-04   8.07548848E-03   8.30450130E-03   8.27885337E-03   8.23778898E-03   3.42594061E+04   4.57869019E+04   4.64597794E+04   0.00000000E+00   2.88484521E+03   1.95831098E-05   6.97553468E-05   6.84744912E-05   2.36398137E-05
   5.86250000E+02   5.00000000E-01   5.00000000E-01   1.31264532E+05   4.81226509E+04   0.00000000E+00   0.00000000E+00   0.00000000E+00   5.86254933E+03   0.00000000E+00   3.81694107E-02   7.80002117E+04   1.44846482E-01   5.69067799E+05   3.65793468E-02   3.81136011E-02   3.74388714E-02   3.71351570E-02   2.00601755E+04   1.76165095E+04   1.16387411E+05   3.04499918E+04   3.35626609E+05   2.97574866E-04   8.07546956E-03   8.30304245E-03   8.27876148E-03   8.23667222E-03   3.42594004E+04   4.57969414E+04   4.64597794E+04   0.00000000E+00   2.88484521E+03   1.95830972E-05   6.97553468E-05   6.84744840E-05   2.36394270E-05
   6.03750000E+02   5.00000000E-01   5.00000000E-01   1.31264533E+05   4.81294207E+04   0.00000000E+00   0.00000000E+00   0.00000000E+00   5.86254931E+03   0.00000000E+00   3.81941981E-02   6.84324509E+04   1.48069588E-01   5.47103886E+05   3.65792801E-02   3.81135440E-02   3.74385622E-02   3.71344951E-02   2.00601763E+04   1.76165259E+04   1.16387411E+05   3.04294335E+04   3.37051737E+05   2.97538628E-04   8.07544733E-03   8.30163020E-03   8.27865564E-03   8.23556211E-03   3.42593948E+04   4.58075537E+04   4.64597794E+04   0.00000000E+00   2.88484521E+03   1.95830846E-05   6.97553468E-05   6.84744768E-05   2.36390228E-05
   6.21250000E+02   5.00000000E-01   5.00000000E-01   1.31264534E+05   4.81360113E+04   0.00000000E+00   0.00000000E+00   0.00000000E+00   5.86254930E+03   0.00000000E+00   3.82181208E-02   5.99402183E+04   1.51225959E-01   5.24218243E+05   3.65792129E-02   3.81134896E-02   3.74382510E-02   3.71338515E-02   2.00601772E+04   1.76165416E+04   1.16387411E+05   3.04093007E+04   3.38454123E+05   2.97505915E-04   8.07542294E-03   8.30026995E-03   8.27854075E-03   8.23446809E-03   3.42593896E+04   4.58184886E+04   4.64597794E+04   3.59485280E-22   2.88484521E+03   1.95830723E-05   6.97553468E-05   6.84744699E-05   2.36386021E-05
   6.38750000E+02   5.00000000E-01   5.00000000E-01   1.31264535E+05   4.81424318E+04   0.00000000E+00   0.00000000E+00   0.00000000E+00   5.86254929E+03   0.00000000E+00   3.82410790E-02   5.24261225E+04   1.54304240E-01   5.00711718E+05   3.65791466E-02   3.81134384E-02   3.74379448E-02   3.71332344E-02   2.00601781E+04   1.76165563E+04   1.16387411E+05   3.03896406E+04   3.39828745E+05   2.97476646E-04   8.07539778E-03   8.29896754E-03   8.27842268E-03   8.23340062E-03   3.42593846E+04   4.58294696E+04   4.64597794E+04   7.34179041E-22   2.88484522E+03   1.95830603E-05   6.97553468E-05   6.84744631E-05   2.36381656E-05
   6.56250000E+02   5.00000000E-01   5.00000000E-01   1.31264535E+05   4.81486962E+04   0.00000000E+00   0.00000000E+00   0.00000000E+00   5.86254927E+03   0.00000000E+00   3.82630545E-02   4.57966081E+04   1.57302641E-01   4.76858655E+05   3.65790828E-02   3.81133907E-02   3.74376500E-02   3.71326508E-02   2.00601790E+04   1.76165703E+04   1.16387411E+05   3.03705002E+04   3.41170886E+05   2.97450680E-04   8.07537332E-03   8.29772823E-03   8.27830758E-03   8.23236990E-03   3.42593800E+04   4.58402351E+04   4.64597794E+04   1.50083541E-21   2.88484522E+03   1.95830489E-05   6.97553468E-05   6.84744565E-05   2.36377142E-05
   6.73750000E+02   5.00000000E-01   5.00000000E-01   1.31264536E+05   4.81548168E+04   0.00000000E+00   0.00000000E+00   0.00000000E+00   5.86254926E+03   0.00000000E+00   3.82840947E-02   3.99616659E+04   1.60226539E-01   4.52892803E+05   3.65790226E-02   3.81133467E-02   3.74373723E-02   3.71321062E-02   2.00601799E+04   1.76165835E+04   1.16387411E+05   3.03519232E+04   3.42476474E+05   2.97427808E-04   8.07535096E-03   8.29655602E-03   8.27820134E-03   8.23138486E-03   3.42593756E+04   4.58505696E+04   4.64597794E+04   3.07107093E-21   2.88484522E+03   1.95830382E-05   6.97553468E-05   6.84744501E-05   2.36372487E-05
   6.91250000E+02   5.00000000E-01   5.00000000E-01   1.31264537E+05   4.81608004E+04   0.00000000E+00   0.00000000E+00   0.00000000E+00   5.86254924E+03   0.00000000E+00   3.83042902E-02   3.48352419E+04   1.63085416E-01   4.28996020E+05   3.65789671E-02   3.81133064E-02   3.74371158E-02   3.71316040E-02   2.00601809E+04   1.76165959E+04   1.16387411E+05   3.03339473E+04   3.43742382E+05   2.97407773E-04   8.07533193E-03   8.29545328E-03   8.27810915E-03   8.23045251E-03   3.42593717E+04   4.58603193E+04   4.64597794E+04   6.29054381E-21   2.88484522E+03   1.95830283E-05   6.97553468E-05   6.84744439E-05   2.36367699E-05
   7.08750000E+02   5.00000000E-01   5.00000000E-01   1.31264539E+05   4.81666439E+04   0.00000000E+00   0.00000000E+00   0.00000000E+00   5.86254922E+03   0.00000000E+00   3.83237503E-02   3.03368603E+04   1.65889665E-01   4.05307747E+05   3.65789168E-02   3.81132698E-02   3.74368834E-02   3.71311458E-02   2.00601819E+04   1.76166075E+04   1.16387411E+05   3.03166038E+04   3.44966279E+05   2.97390291E-04   8.07531727E-03   8.29442083E-03   8.27803532E-03   8.22957784E-03   3.42593680E+04   4.58693961E+04   4.64597794E+04   2.28711953E-06   2.88484522E+03   1.95830193E-05   6.97553468E-05   6.84744379E-05   2.36362786E-05
   7.26250000E+02   5.00000000E-01   5.00000000E-01   1.31264540E+05   4.81723329E+04   0.00000000E+00   0.00000000E+00   0.00000000E+00   5.86254920E+03   0.00000000E+00   3.83425823E-02   2.63925509E+04   1.68647746E-01   3.81932236E+05   3.65788722E-02   3.81132368E-02   3.74366769E-02   3.71307314E-02   2.00601829E+04   1.76166184E+04   1.16387411E+05   3.02999178E+04   3.46146511E+05   2.97375072E-04   8.07530782E-03   8.29345812E-03   8.27798336E-03   8.22876404E-03   3.42593648E+04   4.58777735E+04   4.64597794E+04   9.09743133E-06   2.88484522E+03   1.95830112E-05   6.97553468E-05   6.84744321E-05   2.36357755E-05
   7.43750000E+02   5.00000000E-01   5.00000000E-01   1.31264541E+05   4.81778409E+04   0.00000000E+00   0.00000000E+00   0.00000000E+00   5.86254918E+03   0.00000000E+00   3.83608729E-02   2.29353728E+04   1.71363846E-01   3.58946700E+05   3.65788335E-02   3.81132072E-02   3.74364969E-02   3.71303600E-02   2.00601839E+04   1.76166284E+04   1.16387411E+05   3.02839094E+04   3.47281946E+05   2.97361837E-04   8.07530423E-03   8.29256359E-03   8.27795601E-03   8.22801281E-03   3.42593618E+04   4.58854774E+04   4.64597794E+04   2.11550858E-05   2.88484523E+03   1.95830041E-05   6.97553468E-05   6.84744264E-05   2.36352614E-05
   7.61250000E+02   5.00000000E-01   5.00000000E-01   1.31264543E+05   4.81831303E+04   0.00000000E+00   0.00000000E+00   0.00000000E+00   5.86254916E+03   0.00000000E+00   3.83786751E-02   1.99055598E+04   1.74036091E-01   3.36409711E+05   3.65788007E-02   3.81131806E-02   3.74363437E-02   3.71300295E-02   2.00601850E+04   1.76166376E+04   1.16387411E+05   3.02685943E+04   3.48371824E+05   2.97350335E-04   8.07530705E-03   8.29173497E-03   8.27795542E-03   8.22732467E-03   3.42593591E+04   4.58925755E+04   4.64597794E+04   4.11308396E-05   2.88484523E+03   1.95829979E-05   6.97553468E-05   6.84744210E-05   2.36347369E-05
   7.78750000E+02   5.00000000E-01   5.00000000E-01   1.31264544E+05   4.81881538E+04   0.00000000E+00   0.00000000E+00   0.00000000E+00   5.86254914E+03   0.00000000E+00   3.83959976E-02   1.72503553E+04   1.76655303E-01   3.14369057E+05   3.65787738E-02   3.81131570E-02   3.74362169E-02   3.71297381E-02   2.00601860E+04   1.76166459E+04   1.16387411E+05   3.02539843E+04   3.49415614E+05   2.97340340E-04   8.07531669E-03   8.29096958E-03   8.27798331E-03   8.22669941E-03   3.42593567E+04   4.58991645E+04   4.64597794E+04   7.28291040E-05   2.88484523E+03   1.95829928E-05   6.97553468E-05   6.84744158E-05   2.36342029E-05
   7.96250000E+02   5.00000000E-01   5.00000000E-01   1.31264546E+05   4.81928571E+04   0.00000000E+00   0.00000000E+00   0.00000000E+00   5.86254911E+03   0.00000000E+00   3.84127987E-02   1.49236337E+04   1.79204359E-01   2.92868887E+05   3.65787526E-02   3.81131360E-02   3.74361163E-02   3.71294834E-02   2.00601871E+04   1.76166533E+04   1.16387411E+05   3.02400885E+04   3.50412891E+05   2.97331659E-04   8.07533351E-03   8.29026454E-03   8.27804115E-03   8.22613632E-03   3.42593546E+04   4.59053560E+04   4.64597794E+04   1.21635049E-04   2.88484523E+03   1.95829886E-05   6.97553468E-05   6.84744107E-05   2.36336598E-05