 TITLE = "Mineral Area" 
VARIABLES = "X"          "Y"              "Z"            "Forsterite"     "Enstatite(alph" "Anorthite"      "Ferropargasite" "Anhydrite"      "Clinochlore"    "Albite(low)"    "Fayalite"       "Epidote"        "Kaolinite"      "Muscovite(orde"
 ZONE I=          10 , J=           1 , K=           1  F=POINT
   1.75000000E+02   5.00000000E-01   5.00000000E-01   9.99967124E-02   9.99996962E-02   9.96975315E-02   9.99915947E-02   9.99779437E-02   5.54375237E+02   9.99880287E-02   1.00003259E-01   9.99996149E-02   0.00000000E+00   0.00000000E+00
   5.25000000E+02   5.00000000E-01   5.00000000E-01   9.99967125E-02   9.99996962E-02   9.96975315E-02   9.99915947E-02   9.99855747E-02   5.91876683E+02   9.99859591E-02   1.00000533E-01   9.99958603E-02   0.00000000E+00   0.00000000E+00
   8.75000000E+02   5.00000000E-01   5.00000000E-01   9.99967174E-02   9.99996971E-02   9.96975315E-02   9.99915947E-02   9.99931172E-02   6.43263759E+02   9.99830153E-02   9.99967238E-02   9.99867806E-02   0.00000000E+00   0.00000000E+00
   1.22500000E+03   5.00000000E-01   5.00000000E-01   9.99967476E-02   9.99996986E-02   9.96975315E-02   9.99915947E-02   9.99994018E-02   6.99772911E+02   9.99796395E-02   9.99914512E-02   9.99663959E-02   0.00000000E+00   0.00000000E+00
   1.57500000E+03   5.00000000E-01   5.00000000E-01   9.99968132E-02   9.99997001E-02   9.96975315E-02   9.99915947E-02   1.00004000E-01   7.56759594E+02   9.99760942E-02   9.99844402E-02   9.99199117E-02   0.00000000E+00   0.00000000E+00
   1.92500000E+03   5.00000000E-01   5.00000000E-01   9.99969214E-02   9.99997011E-02   9.96975315E-02   9.99915947E-02   1.00007108E-01   8.09402442E+02   9.99726979E-02   9.99765773E-02   9.98172339E-02   0.00000000E+00   0.00000000E+00
   2.27500000E+03   5.00000000E-01   5.00000000E-01   9.99970513E-02   9.99997010E-02   9.96975315E-02   9.99915947E-02   1.00009091E-01   8.46949028E+02   9.99702066E-02   9.99702176E-02   9.95815239E-02   0.00000000E+00   0.00000000E+00
   2.62500000E+03   5.00000000E-01   5.00000000E-01   9.99971656E-02   9.99997001E-02   9.96975315E-02   9.99915947E-02   1.00010251E-01   8.65947079E+02   9.99689247E-02   9.99668995E-02   9.90266617E-02   0.00000000E+00   0.00000000E+00
   2.97500000E+03   5.00000000E-01   5.00000000E-01   9.99972374E-02   9.99997003E-02   9.96975315E-02   9.99915947E-02   1.00010820E-01   8.79521270E+02   9.99680000E-02   9.99657241E-02   9.79133490E-02   0.00000000E+00   0.00000000E+00
   3.32500000E+03   5.00000000E-01   5.00000000E-01   9.99972793E-02   9.99997017E-02   9.96975315E-02   9.99915947E-02   1.00010974E-01   9.06035961E+02   9.99638376E-02   9.99653779E-02   9.63225996E-02   0.00000000E+00   7.69303802E+01
