 TITLE = "Mineral Area" 
VARIABLES = "X"          "Y"              "Z"            "Forsterite"     "Fayalite"       "Brucite"        "Lizardite"      "Chrysotile"     "Hematite"       "Magnetite(am)"  "Saponite(Ca)"   "Saponite(K)"    "Saponite(Mg)"   "Saponite(Na)"   "Beidellite(Ca)" "Beidellite(K)"  "Beidellite(Mg)" "Beidellite(Na)" "Enstatite(alph" "Ferrosilite(al" "Anorthite"      "Albite(low)"    "Clinochlore"    "Sudoite"        "Montmor(MgCa)"  "Montmor(MgK)"   "Montmor(MgMg)"  "Montmor(MgNa)"  "Kaolinite"      "Tremolite"      "Pargasite"      "Anhydrite"      "Epidote"        "Scolecite"      "Pyrite"         "FeS(am)"        "Quartz(alpha)" 
 ZONE I=         200 , J=           1 , K=           1  F=POINT
   8.75000000E+00   5.00000000E-01   5.00000000E-01   1.31043926E+05   4.79189020E+04   0.00000000E+00   0.00000000E+00   0.00000000E+00   6.29606677E+03   0.00000000E+00   3.71425766E-02   1.19745467E+05   5.22394898E-02   1.46910584E+04   3.65193426E-02   3.81065280E-02   3.73696289E-02   3.70621244E-02   2.00600836E+04   1.76156329E+04   1.15730092E+05   2.95645333E+04   4.14524432E+05   3.97588261E-03   8.06691142E-03   8.26326817E-03   8.25156825E-03   8.18674552E-03   3.42556270E+04   4.50938401E+04   4.61738405E+04   0.00000000E+00   2.84111821E+03   1.93413812E-05   6.93628692E-05   6.81920127E-05   2.35921909E-05
   2.62500000E+01   5.00000000E-01   5.00000000E-01   1.31043925E+05   4.79206902E+04   0.00000000E+00   0.00000000E+00   0.00000000E+00   6.29606674E+03   0.00000000E+00   3.72049526E-02   5.12386025E+05   5.60940297E-02   6.76869150E+04   3.65193533E-02   3.81065432E-02   3.73696785E-02   3.70622541E-02   2.00600825E+04   1.76156648E+04   1.15730092E+05   2.96314302E+04   4.05355369E+05   3.15909254E-03   8.06695479E-03   8.26432039E-03   8.25175481E-03   8.18749092E-03   3.42556321E+04   4.51161520E+04   4.61738405E+04   0.00000000E+00   2.84111821E+03   1.93413938E-05   6.93628692E-05   6.81920623E-05   2.36063826E-05
   4.37500000E+01   5.00000000E-01   5.00000000E-01   1.31043925E+05   4.79221603E+04   0.00000000E+00   0.00000000E+00   0.00000000E+00   6.29606674E+03   0.00000000E+00   3.72303376E-02   6.09278016E+05   5.76852195E-02   9.15800786E+04   3.65194775E-02   3.81067111E-02   3.73702550E-02   3.70637222E-02   2.00600819E+04   1.76156888E+04   1.15730092E+05   2.98285648E+04   3.94093036E+05   2.12119270E-03   8.06725695E-03   8.27126071E-03   8.25305323E-03   8.19252944E-03   3.42556630E+04   4.51266121E+04   4.61738405E+04   0.00000000E+00   2.84111821E+03   1.93414623E-05   6.93628692E-05   6.81920839E-05   2.36180749E-05
   6.12500000E+01   5.00000000E-01   5.00000000E-01   1.31043925E+05   4.79237671E+04   0.00000000E+00   0.00000000E+00   0.00000000E+00   6.29606673E+03   0.00000000E+00   3.72553483E-02   7.42612275E+05   5.93448782E-02   1.28197571E+05   3.65198241E-02   3.81071522E-02   3.73718604E-02   3.70676859E-02   2.00600817E+04   1.76157135E+04   1.15730092E+05   3.01006026E+04   3.78508084E+05   1.21024505E-03   8.06792815E-03   8.28569099E-03   8.25593447E-03   8.20332307E-03   3.42557186E+04   4.51349532E+04   4.61738405E+04   0.00000000E+00   2.84111821E+03   1.93415846E-05   6.93628692E-05   6.81921012E-05   2.36271186E-05
   7.87500000E+01   5.00000000E-01   5.00000000E-01   1.31043925E+05   4.79256656E+04   0.00000000E+00   0.00000000E+00   0.00000000E+00   6.29606672E+03   0.00000000E+00   3.72880368E-02   9.05823403E+05   6.15325777E-02   1.80863128E+05   3.65203729E-02   3.81078046E-02   3.73743985E-02   3.70737355E-02   2.00600817E+04   1.76157389E+04   1.15730092E+05   3.03728421E+04   3.62310958E+05   6.93635854E-04   8.06884260E-03   8.30389648E-03   8.25985588E-03   8.21742702E-03   3.42557849E+04   4.51489706E+04   4.61738405E+04   0.00000000E+00   2.84111821E+03   1.93417301E-05   6.93628692E-05   6.81921160E-05   2.36335919E-05
   9.62500000E+01   5.00000000E-01   5.00000000E-01   1.31043925E+05   4.79279087E+04   0.00000000E+00   0.00000000E+00   0.00000000E+00   6.29606671E+03   0.00000000E+00   3.73256112E-02   1.03946978E+06   6.40936548E-02   2.41476602E+05   3.65210269E-02   3.81085236E-02   3.73774171E-02   3.70806476E-02   2.00600818E+04   1.76157648E+04   1.15730092E+05   3.06029548E+04   3.48463449E+05   4.60954281E-04   8.06981648E-03   8.32159570E-03   8.26402761E-03   8.23173035E-03   3.42558501E+04   4.51665667E+04   4.61738405E+04   0.00000000E+00   2.84111821E+03   1.93418739E-05   6.93628692E-05   6.81921287E-05   2.36379672E-05
   1.13750000E+02   5.00000000E-01   5.00000000E-01   1.31043925E+05   4.79305049E+04   0.00000000E+00   0.00000000E+00   0.00000000E+00   6.29606670E+03   0.00000000E+00   3.73643363E-02   1.11888866E+06   6.68010794E-02   3.03051887E+05   3.65216626E-02   3.81091578E-02   3.73803451E-02   3.70870302E-02   2.00600820E+04   1.76157910E+04   1.15730092E+05   3.07736897E+04   3.38227110E+05   3.58226833E-04   8.07069521E-03   8.33579619E-03   8.26778679E-03   8.24386346E-03   3.42559043E+04   4.51855811E+04   4.61738405E+04   0.00000000E+00   2.84111821E+03   1.93419970E-05   6.93628692E-05   6.81921396E-05   2.36408267E-05
   1.31250000E+02   5.00000000E-01   5.00000000E-01   1.31043925E+05   4.79334689E+04   0.00000000E+00   0.00000000E+00   0.00000000E+00   6.29606670E+03   0.00000000E+00   3.74026624E-02   1.14594488E+06   6.95564023E-02   3.61900077E+05   3.65221944E-02   3.81096222E-02   3.73827880E-02   3.70920163E-02   2.00600822E+04   1.76158177E+04   1.15730092E+05   3.08865657E+04   3.31551811E+05   3.10640954E-04   8.07140116E-03   8.34545335E-03   8.27080151E-03   8.25282394E-03   3.42559428E+04   4.52047265E+04   4.61738405E+04   0.00000000E+00   2.84111821E+03   1.93420904E-05   6.93628692E-05   6.81921489E-05   2.36426769E-05
   1.48750000E+02   5.00000000E-01   5.00000000E-01   1.31043925E+05   4.79368299E+04   0.00000000E+00   0.00000000E+00   0.00000000E+00   6.29606669E+03   0.00000000E+00   3.74405499E-02   1.13212444E+06   7.23603497E-02   4.16609087E+05   3.65225918E-02   3.81099041E-02   3.73846065E-02   3.70953848E-02   2.00600825E+04   1.76158451E+04   1.15730092E+05   3.09522870E+04   3.27780629E+05   2.87550740E-04   8.07192444E-03   8.35092971E-03   8.27303078E-03   8.25868907E-03   3.42559655E+04   4.52233400E+04   4.61738405E+04   0.00000000E+00   2.84111821E+03   1.93421542E-05   6.93628692E-05   6.81921567E-05   2.36438926E-05
   1.66250000E+02   5.00000000E-01   5.00000000E-01   1.31043925E+05   4.79406091E+04   0.00000000E+00   0.00000000E+00   0.00000000E+00   6.29606668E+03   0.00000000E+00   3.74782361E-02   1.09145448E+06   7.52322588E-02   4.67174607E+05   3.65228684E-02   3.81100381E-02   3.73858653E-02   3.70973797E-02   2.00600828E+04   1.76158732E+04   1.15730092E+05   3.09843028E+04   3.26070039E+05   2.75960547E-04   8.07229743E-03   8.35327506E-03   8.27461452E-03   8.26213039E-03   3.42559758E+04   4.52410517E+04   4.61738405E+04   0.00000000E+00   2.84111821E+03   1.93421939E-05   6.93628692E-05   6.81921630E-05   2.36447187E-05
   1.83750000E+02   5.00000000E-01   5.00000000E-01   1.31043925E+05   4.79447946E+04   0.00000000E+00   0.00000000E+00   0.00000000E+00   6.29606667E+03   0.00000000E+00   3.75156197E-02   1.03641744E+06   7.81628243E-02   5.14366690E+05   3.65230606E-02   3.81100761E-02   3.73867338E-02   3.70984485E-02   2.00600831E+04   1.76159019E+04   1.15730092E+05   3.09951042E+04   3.25633475E+05   2.70008001E-04   8.07256935E-03   8.35366364E-03   8.27576444E-03   8.26399286E-03   3.42559780E+04   4.52576329E+04   4.61738405E+04   0.00000000E+00   2.84111821E+03   1.93422174E-05   6.93628692E-05   6.81921676E-05   2.36452968E-05
   2.01250000E+02   5.00000000E-01   5.00000000E-01   1.31043925E+05   4.79493755E+04   0.00000000E+00   0.00000000E+00   0.00000000E+00   6.29606667E+03   0.00000000E+00   3.75529045E-02   9.73350715E+05   8.11631109E-02   5.58206635E+05   3.65231933E-02   3.81100523E-02   3.73873276E-02   3.70988906E-02   2.00600835E+04   1.76159310E+04   1.15730092E+05   3.09925053E+04   3.26004178E+05   2.66878327E-04   8.07277309E-03   8.35284241E-03   8.27662190E-03   8.26482699E-03   3.42559749E+04   4.52732288E+04   4.61738405E+04   0.00000000E+00   2.84111821E+03   1.93422300E-05   6.93628692E-05   6.81921706E-05   2.36457128E-05
   2.18750000E+02   5.00000000E-01   5.00000000E-01   1.31043925E+05   4.79543474E+04   0.00000000E+00   0.00000000E+00   0.00000000E+00   6.29606666E+03   0.00000000E+00   3.75905157E-02   9.05553128E+05   8.42614377E-02   5.98216743E+05   3.65232785E-02   3.81099843E-02   3.73877021E-02   3.70988581E-02   2.00600838E+04   1.76159603E+04   1.15730092E+05   3.09808535E+04   3.26931904E+05   2.65174718E-04   8.07292546E-03   8.35121051E-03   8.27725925E-03   8.26492434E-03   3.42559680E+04   4.52883399E+04   4.61738405E+04   0.00000000E+00   2.84111822E+03   1.93422340E-05   6.93628692E-05   6.81921721E-05   2.36460230E-05
   2.36250000E+02   5.00000000E-01   5.00000000E-01   1.31043925E+05   4.79596569E+04   0.00000000E+00   0.00000000E+00   0.00000000E+00   6.29606665E+03   0.00000000E+00   3.76281136E-02   8.36899647E+05   8.74240408E-02   6.34892233E+05   3.65233330E-02   3.81098917E-02   3.73879356E-02   3.70985372E-02   2.00600842E+04   1.76159896E+04   1.15730092E+05   3.09641038E+04   3.28165286E+05   2.64205487E-04   8.07304632E-03   8.34915170E-03   8.27776164E-03   8.26458951E-03   3.42559588E+04   4.53034439E+04   4.61738405E+04   0.00000000E+00   2.84111822E+03   1.93422327E-05   6.93628692E-05   6.81921722E-05   2.36462555E-05
   2.53750000E+02   5.00000000E-01   5.00000000E-01   1.31043925E+05   4.79652506E+04   0.00000000E+00   0.00000000E+00   0.00000000E+00   6.29606665E+03   0.00000000E+00   3.76652869E-02   7.68540998E+05   9.06105092E-02   6.67685512E+05   3.65233617E-02   3.81097817E-02   3.73880507E-02   3.70979902E-02   2.00600847E+04   1.76160188E+04   1.15730092E+05   3.09440249E+04   3.29609689E+05   2.63612772E-04   8.07314238E-03   8.34681475E-03   8.27815794E-03   8.26393647E-03   3.42559480E+04   4.53189730E+04   4.61738405E+04   0.00000000E+00   2.84111822E+03   1.93422272E-05   6.93628692E-05   6.81921709E-05   2.36464292E-05
   2.71250000E+02   5.00000000E-01   5.00000000E-01   1.31043925E+05   4.79710715E+04   0.00000000E+00   0.00000000E+00   0.00000000E+00   6.29606664E+03   0.00000000E+00   3.77014737E-02   7.01605080E+05   9.37687553E-02   6.96290446E+05   3.65233677E-02   3.81096587E-02   3.73880617E-02   3.70972588E-02   2.00600851E+04   1.76160476E+04   1.15730092E+05   3.09216703E+04   3.31202708E+05   2.63214838E-04   8.07321735E-03   8.34428824E-03   8.27846409E-03   8.26303281E-03   3.42559360E+04   4.53351027E+04   4.61738405E+04   0.00000000E+00   2.84111822E+03   1.93422180E-05   6.93628692E-05   6.81921684E-05   2.36465566E-05
   2.88750000E+02   5.00000000E-01   5.00000000E-01   1.31043926E+05   4.79770652E+04   0.00000000E+00   0.00000000E+00   0.00000000E+00   6.29606663E+03   0.00000000E+00   3.77360682E-02   6.37166734E+05   9.68443837E-02   7.20698634E+05   3.65233551E-02   3.81095279E-02   3.73879880E-02   3.70963909E-02   2.00600855E+04   1.76160760E+04   1.15730092E+05   3.08978264E+04   3.32891794E+05   2.62921163E-04   8.07327505E-03   8.34164996E-03   8.27869653E-03   8.26194195E-03   3.42559232E+04   4.53516626E+04   4.61738405E+04   0.00000000E+00   2.84111822E+03   1.93422059E-05   6.93628692E-05   6.81921649E-05   2.36466450E-05
   3.06250000E+02   5.00000000E-01   5.00000000E-01   1.31043926E+05   4.79831909E+04   0.00000000E+00   0.00000000E+00   0.00000000E+00   6.29606663E+03   0.00000000E+00   3.77686169E-02   5.76115979E+05   9.97973888E-02   7.41132672E+05   3.65233293E-02   3.81093941E-02   3.73878537E-02   3.70954402E-02   2.00600860E+04   1.76161039E+04   1.15730092E+05   3.08731041E+04   3.34632391E+05   2.62687413E-04   8.07331979E-03   8.33897217E-03   8.27887368E-03   8.26072740E-03   3.42559102E+04   4.53682099E+04   4.61738405E+04   0.00000000E+00   2.84111822E+03   1.93421919E-05   6.93628692E-05   6.81921605E-05   2.36466980E-05
   3.23750000E+02   5.00000000E-01   5.00000000E-01   1.31043926E+05   4.79894273E+04   0.00000000E+00   0.00000000E+00   0.00000000E+00   6.29606662E+03   0.00000000E+00   3.77989311E-02   5.19092180E+05   1.02611818E-01   7.57957019E+05   3.65232958E-02   3.81092621E-02   3.73876850E-02   3.70944587E-02   2.00600865E+04   1.76161312E+04   1.15730092E+05   3.08479731E+04   3.36388264E+05   2.62492320E-04   8.07335603E-03   8.33631832E-03   8.27901466E-03   8.25944910E-03   3.42558972E+04   4.53842046E+04   4.61738405E+04   0.00000000E+00   2.84111822E+03   1.93421769E-05   6.93628692E-05   6.81921553E-05   2.36467170E-05
   3.41250000E+02   5.00000000E-01   5.00000000E-01   1.31043926E+05   4.79957705E+04   0.00000000E+00   0.00000000E+00   0.00000000E+00   6.29606661E+03   0.00000000E+00   3.78270895E-02   4.66463549E+05   1.05295879E-01   7.71582224E+05   3.65232599E-02   3.81091354E-02   3.73875057E-02   3.70934909E-02   2.00600870E+04   1.76161580E+04   1.15730092E+05   3.08227840E+04   3.38131952E+05   2.62325403E-04   8.07338795E-03   8.33373884E-03   8.27913722E-03   8.25815844E-03   3.42558848E+04   4.53991712E+04   4.61738405E+04   0.00000000E+00   2.84111822E+03   1.93421616E-05   6.93628692E-05   6.81921495E-05   2.36467019E-05
   3.58750000E+02   5.00000000E-01   5.00000000E-01   1.31043926E+05   4.80022293E+04   0.00000000E+00   0.00000000E+00   0.00000000E+00   6.29606661E+03   0.00000000E+00   3.78533772E-02   4.18316464E+05   1.07876492E-01   7.82321592E+05   3.65232253E-02   3.81090163E-02   3.73873326E-02   3.70925657E-02   2.00600876E+04   1.76161843E+04   1.15730092E+05   3.07977482E+04   3.39847804E+05   2.62180734E-04   8.07341856E-03   8.33126433E-03   8.27925426E-03   8.25689005E-03   3.42558731E+04   4.54127997E+04   4.61738405E+04   0.00000000E+00   2.84111822E+03   1.93421466E-05   6.93628692E-05   6.81921431E-05   2.36466522E-05
   3.76250000E+02   5.00000000E-01   5.00000000E-01   1.31043926E+05   4.80088170E+04   0.00000000E+00   0.00000000E+00   0.00000000E+00   6.29606660E+03   0.00000000E+00   3.78781911E-02   3.74558459E+05   1.10390853E-01   7.90420328E+05   3.65231943E-02   3.81089055E-02   3.73871764E-02   3.70916988E-02   2.00600881E+04   1.76162100E+04   1.15730092E+05   3.07729860E+04   3.41527873E+05   2.62054418E-04   8.07344987E-03   8.32890978E-03   8.27937422E-03   8.25566452E-03   3.42558621E+04   4.54249560E+04   4.61738405E+04   0.00000000E+00   2.84111822E+03   1.93421324E-05   6.93628692E-05   6.81921363E-05   2.36465673E-05
   3.93750000E+02   5.00000000E-01   5.00000000E-01   1.31043926E+05   4.80155467E+04   0.00000000E+00   0.00000000E+00   0.00000000E+00   6.29606659E+03   0.00000000E+00   3.79019701E-02   3.34961592E+05   1.12880017E-01   7.96011550E+05   3.65231676E-02   3.81088030E-02   3.73870404E-02   3.70908933E-02   2.00600887E+04   1.76162353E+04   1.15730092E+05   3.07485361E+04   3.43171472E+05   2.61943344E-04   8.07348269E-03   8.32667600E-03   8.27950055E-03   8.25448847E-03   3.42558520E+04   4.54356586E+04   4.61738405E+04   0.00000000E+00   2.84111822E+03   1.93421191E-05   6.93628692E-05   6.81921291E-05   2.36464472E-05
   4.11250000E+02   5.00000000E-01   5.00000000E-01   1.31043927E+05   4.80224260E+04   0.00000000E+00   0.00000000E+00   0.00000000E+00   6.29606658E+03   0.00000000E+00   3.79251413E-02   2.99231342E+05   1.15383880E-01   7.99157653E+05   3.65231451E-02   3.81087080E-02   3.73869230E-02   3.70901434E-02   2.00600893E+04   1.76162601E+04   1.15730092E+05   3.07243872E+04   3.44782171E+05   2.61844860E-04   8.07351692E-03   8.32455458E-03   8.27963279E-03   8.25335862E-03   3.42558425E+04   4.54450393E+04   4.61738405E+04   0.00000000E+00   2.84111822E+03   1.93421066E-05   6.93628692E-05   6.81921217E-05   2.36462923E-05
   4.28750000E+02   5.00000000E-01   5.00000000E-01   1.31043927E+05   4.80294545E+04   0.00000000E+00   0.00000000E+00   0.00000000E+00   6.29606657E+03   0.00000000E+00   3.79480858E-02   2.67052433E+05   1.17937799E-01   7.99893153E+05   3.65231255E-02   3.81086193E-02   3.73868197E-02   3.70894390E-02   2.00600899E+04   1.76162844E+04   1.15730092E+05   3.07005096E+04   3.46365094E+05   2.61756715E-04   8.07355190E-03   8.32253278E-03   8.27976811E-03   8.25226640E-03   3.42558337E+04   4.54533044E+04   4.61738405E+04   0.00000000E+00   2.84111822E+03   1.93420948E-05   6.93628692E-05   6.81921140E-05   2.36461035E-05
   4.46250000E+02   5.00000000E-01   5.00000000E-01   1.31043927E+05   4.80366223E+04   0.00000000E+00   0.00000000E+00   0.00000000E+00   6.29606656E+03   0.00000000E+00   3.79711191E-02   2.38103336E+05   1.20570481E-01   7.98216507E+05   3.65231075E-02   3.81085357E-02   3.73867232E-02   3.70887669E-02   2.00600905E+04   1.76163082E+04   1.15730092E+05   3.06768620E+04   3.47926482E+05   2.61676975E-04   8.07358656E-03   8.32059552E-03   8.27990186E-03   8.25119968E-03   3.42558254E+04   4.54607107E+04   4.61738405E+04   0.00000000E+00   2.84111823E+03   1.93420836E-05   6.93628692E-05   6.81921061E-05   2.36458822E-05
   4.63750000E+02   5.00000000E-01   5.00000000E-01   1.31043927E+05   4.80439097E+04   0.00000000E+00   0.00000000E+00   0.00000000E+00   6.29606655E+03   0.00000000E+00   3.79944773E-02   2.12075311E+05   1.23302360E-01   7.94116014E+05   3.65230892E-02   3.81084560E-02   3.73866256E-02   3.70881134E-02   2.00600912E+04   1.76163314E+04   1.15730092E+05   3.06534038E+04   3.49472510E+05   2.61604021E-04   8.07361956E-03   8.31872756E-03   8.28002839E-03   8.25014514E-03   3.42558175E+04   4.54675459E+04   4.61738405E+04   0.00000000E+00   2.84111823E+03   1.93420727E-05   6.93628692E-05   6.81920982E-05   2.36456299E-05
   4.81250000E+02   5.00000000E-01   5.00000000E-01   1.31043928E+05   4.80512870E+04   0.00000000E+00   0.00000000E+00   0.00000000E+00   6.29606654E+03   0.00000000E+00   3.80183062E-02   1.88682311E+05   1.26144300E-01   7.87590094E+05   3.65230688E-02   3.81083790E-02   3.73865187E-02   3.70874656E-02   2.00600919E+04   1.76163540E+04   1.15730092E+05   3.06301053E+04   3.51008397E+05   2.61536554E-04   8.07364955E-03   8.31691530E-03   8.28014196E-03   8.24909020E-03   3.42558099E+04   4.54741119E+04   4.61738405E+04   0.00000000E+00   2.84111823E+03   1.93420620E-05   6.93628692E-05   6.81920902E-05   2.36453485E-05
   4.98750000E+02   5.00000000E-01   5.00000000E-01   1.31043928E+05   4.80588297E+04   0.00000000E+00   0.00000000E+00   0.00000000E+00   6.29606652E+03   0.00000000E+00   3.80430870E-02   1.67224303E+05   1.29144780E-01   7.76058790E+05   3.65230319E-02   3.81082977E-02   3.73863371E-02   3.70867272E-02   2.00600926E+04   1.76163763E+04   1.15730092E+05   3.06060164E+04   3.52624073E+05   2.61469534E-04   8.07366265E-03   8.31505056E-03   8.28018364E-03   8.24790953E-03   3.42558020E+04   4.54807103E+04   4.61738405E+04   0.00000000E+00   2.84111823E+03   1.93420496E-05   6.93628692E-05   6.81920822E-05   2.36450454E-05
   5.16250000E+02   5.00000000E-01   5.00000000E-01   1.31043929E+05   4.80664306E+04   0.00000000E+00   0.00000000E+00   0.00000000E+00   6.29606651E+03   0.00000000E+00   3.80686186E-02   1.48141052E+05   1.32281558E-01   7.62787072E+05   3.65229875E-02   3.81082169E-02   3.73861221E-02   3.70859633E-02   2.00600934E+04   1.76163981E+04   1.15730092E+05   3.05819291E+04   3.54231701E+05   2.61406134E-04   8.07366783E-03   8.31320995E-03   8.28019158E-03   8.24669152E-03   3.42557941E+04   4.54877169E+04   4.61738405E+04   0.00000000E+00   2.84111823E+03   1.93420367E-05   6.93628692E-05   6.81920743E-05   2.36447204E-05
   5.33750000E+02   5.00000000E-01   5.00000000E-01   1.31043929E+05   4.80740094E+04   0.00000000E+00   0.00000000E+00   0.00000000E+00   6.29606650E+03   0.00000000E+00   3.80946188E-02   1.31106645E+05   1.35517701E-01   7.47569756E+05   3.65229377E-02   3.81081377E-02   3.73858828E-02   3.70851887E-02   2.00600941E+04   1.76164191E+04   1.15730092E+05   3.05581074E+04   3.55825291E+05   2.61346769E-04   8.07366752E-03   8.31141283E-03   8.28017617E-03   8.24546055E-03   3.42557863E+04   4.54953534E+04   4.61738405E+04   0.00000000E+00   2.84111823E+03   1.93420235E-05   6.93628692E-05   6.81920663E-05   2.36443740E-05
   5.51250000E+02   5.00000000E-01   5.00000000E-01   1.31043930E+05   4.80815101E+04   0.00000000E+00   0.00000000E+00   0.00000000E+00   6.29606649E+03   0.00000000E+00   3.81208067E-02   1.15860768E+05   1.38816825E-01   7.30233314E+05   3.65228818E-02   3.81080598E-02   3.73856162E-02   3.70843999E-02   2.00600949E+04   1.76164393E+04   1.15730092E+05   3.05345855E+04   3.57408850E+05   2.61291024E-04   8.07366138E-03   8.30965658E-03   8.28013597E-03   8.24421532E-03   3.42557787E+04   4.55037659E+04   4.61738405E+04   0.00000000E+00   2.84111823E+03   1.93420101E-05   6.93628692E-05   6.81920585E-05   2.36440073E-05
   5.68750000E+02   5.00000000E-01   5.00000000E-01   1.31043930E+05   4.80888900E+04   0.00000000E+00   0.00000000E+00   0.00000000E+00   6.29606647E+03   0.00000000E+00   3.81468823E-02   1.02221473E+05   1.42141412E-01   7.10889728E+05   3.65228193E-02   3.81079831E-02   3.73853207E-02   3.70835961E-02   2.00600958E+04   1.76164586E+04   1.15730092E+05   3.05113749E+04   3.58982711E+05   2.61238629E-04   8.07364909E-03   8.30793906E-03   8.28006969E-03   8.24295493E-03   3.42557712E+04   4.55129986E+04   4.61738405E+04   0.00000000E+00   2.84111823E+03   1.93419963E-05   6.93628692E-05   6.81920508E-05   2.36436214E-05
   5.86250000E+02   5.00000000E-01   5.00000000E-01   1.31043931E+05   4.80961201E+04   0.00000000E+00   0.00000000E+00   0.00000000E+00   6.29606646E+03   0.00000000E+00   3.81725495E-02   9.00402725E+04   1.45455320E-01   6.89769130E+05   3.65227508E-02   3.81079077E-02   3.73849982E-02   3.70827810E-02   2.00600966E+04   1.76164770E+04   1.15730092E+05   3.04885002E+04   3.60544553E+05   2.61189516E-04   8.07363091E-03   8.30626189E-03   8.27997842E-03   8.24168315E-03   3.42557639E+04   4.55229784E+04   4.61738405E+04   0.00000000E+00   2.84111824E+03   1.93419822E-05   6.93628692E-05   6.81920431E-05   2.36432174E-05
   6.03750000E+02   5.00000000E-01   5.00000000E-01   1.31043931E+05   4.81031864E+04   0.00000000E+00   0.00000000E+00   0.00000000E+00   6.29606644E+03   0.00000000E+00   3.81975527E-02   7.91877323E+04   1.48728037E-01   6.67166047E+05   3.65226773E-02   3.81078342E-02   3.73846539E-02   3.70819624E-02   2.00600975E+04   1.76164946E+04   1.15730092E+05   3.04660015E+04   3.62090204E+05   2.61143739E-04   8.07360765E-03   8.30462987E-03   8.27986565E-03   8.24040808E-03   3.42557567E+04   4.55335276E+04   4.61738405E+04   0.00000000E+00   2.84111824E+03   1.93419679E-05   6.93628692E-05   6.81920357E-05   2.36427964E-05
   6.21250000E+02   5.00000000E-01   5.00000000E-01   1.31043932E+05   4.81100885E+04   0.00000000E+00   0.00000000E+00   0.00000000E+00   6.29606643E+03   0.00000000E+00   3.82217079E-02   6.95461386E+04   1.51938067E-01   6.43405294E+05   3.65226004E-02   3.81077631E-02   3.73842950E-02   3.70811504E-02   2.00600984E+04   1.76165113E+04   1.15730092E+05   3.04439295E+04   3.63614408E+05   2.61101383E-04   8.07358058E-03   8.30304975E-03   8.27973680E-03   8.23914077E-03   3.42557497E+04   4.55443976E+04   4.61738405E+04   2.49015056E-22   2.84111824E+03   1.93419537E-05   6.93628692E-05   6.81920283E-05   2.36423594E-05
   6.38750000E+02   5.00000000E-01   5.00000000E-01   1.31043933E+05   4.81168358E+04   0.00000000E+00   0.00000000E+00   0.00000000E+00   6.29606641E+03   0.00000000E+00   3.82449160E-02   6.10048785E+04   1.55074297E-01   6.18809478E+05   3.65225221E-02   3.81076950E-02   3.73839299E-02   3.70803555E-02   2.00600993E+04   1.76165271E+04   1.15730092E+05   3.04223401E+04   3.65111603E+05   2.61062502E-04   8.07355126E-03   8.30152880E-03   8.27959843E-03   8.23789354E-03   3.42557430E+04   4.55553134E+04   4.61738405E+04   5.19657822E-22   2.84111824E+03   1.93419396E-05   6.93628692E-05   6.81920212E-05   2.36419071E-05
   6.56250000E+02   5.00000000E-01   5.00000000E-01   1.31043934E+05   4.81234421E+04   0.00000000E+00   0.00000000E+00   0.00000000E+00   6.29606639E+03   0.00000000E+00   3.82671600E-02   5.34580565E+04   1.58135216E-01   5.93671383E+05   3.65224440E-02   3.81076304E-02   3.73835667E-02   3.70795874E-02   2.00601002E+04   1.76165422E+04   1.15730092E+05   3.04012883E+04   3.66576589E+05   2.61027071E-04   8.07352132E-03   8.30007361E-03   8.27945746E-03   8.23667843E-03   3.42557366E+04   4.55660152E+04   4.61738405E+04   1.08646592E-21   2.84111824E+03   1.93419260E-05   6.93628692E-05   6.81920143E-05   2.36414404E-05
   6.73750000E+02   5.00000000E-01   5.00000000E-01   1.31043935E+05   4.81299200E+04   0.00000000E+00   0.00000000E+00   0.00000000E+00   6.29606638E+03   0.00000000E+00   3.82884885E-02   4.68041950E+04   1.61126523E-01   5.68239357E+05   3.65223678E-02   3.81075697E-02   3.73832125E-02   3.70788539E-02   2.00601012E+04   1.76165565E+04   1.15730092E+05   3.03808248E+04   3.68004917E+05   2.60994987E-04   8.07349233E-03   8.29868929E-03   8.27932051E-03   8.23550600E-03   3.42557306E+04   4.55762887E+04   4.61738405E+04   2.27588211E-21   2.84111824E+03   1.93419129E-05   6.93628692E-05   6.81920075E-05   2.36409600E-05
   6.91250000E+02   5.00000000E-01   5.00000000E-01   1.31043936E+05   4.81362760E+04   0.00000000E+00   0.00000000E+00   0.00000000E+00   6.29606636E+03   0.00000000E+00   3.83089929E-02   4.09466408E+04   1.64058076E-01   5.42705096E+05   3.65222946E-02   3.81075130E-02   3.73828728E-02   3.70781602E-02   2.00601022E+04   1.76165701E+04   1.15730092E+05   3.03609920E+04   3.69393228E+05   2.60966066E-04   8.07346566E-03   8.29737901E-03   8.27919332E-03   8.23438454E-03   3.42557249E+04   4.55859810E+04   4.61738405E+04   4.77691165E-21   2.84111825E+03   1.93419005E-05   6.93628692E-05   6.81920010E-05   2.36404668E-05
   7.08750000E+02   5.00000000E-01   5.00000000E-01   1.31043937E+05   4.81425070E+04   0.00000000E+00   0.00000000E+00   0.00000000E+00   6.29606634E+03   0.00000000E+00   3.83287841E-02   3.57952629E+04   1.66940704E-01   5.17214911E+05   3.65222255E-02   3.81074604E-02   3.73825515E-02   3.70775093E-02   2.00601032E+04   1.76165829E+04   1.15730092E+05   3.03418241E+04   3.70739086E+05   2.60940076E-04   8.07344244E-03   8.29614407E-03   8.27908068E-03   8.23331997E-03   3.42557197E+04   4.55950048E+04   4.61738405E+04   1.78148537E-06   2.84111825E+03   1.93418890E-05   6.93628692E-05   6.81919946E-05   2.36399616E-05
   7.26250000E+02   5.00000000E-01   5.00000000E-01   1.31043938E+05   4.81485986E+04   0.00000000E+00   0.00000000E+00   0.00000000E+00   6.29606631E+03   0.00000000E+00   3.83479708E-02   3.12673711E+04   1.69783354E-01   4.91877703E+05   3.65221609E-02   3.81074118E-02   3.73822509E-02   3.70769020E-02   2.00601043E+04   1.76165950E+04   1.15730092E+05   3.03233476E+04   3.72040824E+05   2.60916757E-04   8.07342359E-03   8.29498421E-03   8.27898635E-03   8.23231611E-03   3.42557147E+04   4.56033335E+04   4.61738405E+04   7.27603887E-06   2.84111825E+03   1.93418783E-05   6.93628692E-05   6.81919885E-05   2.36394449E-05
   7.43750000E+02   5.00000000E-01   5.00000000E-01   1.31043940E+05   4.81545244E+04   0.00000000E+00   0.00000000E+00   0.00000000E+00   6.29606629E+03   0.00000000E+00   3.83666417E-02   2.72882117E+04   1.72590754E-01   4.66773832E+05   3.65221011E-02   3.81073669E-02   3.73819724E-02   3.70763381E-02   2.00601054E+04   1.76166062E+04   1.15730092E+05   3.03055826E+04   3.73297376E+05   2.60895847E-04   8.07340980E-03   8.29389789E-03   8.27891323E-03   8.23137498E-03   3.42557102E+04   4.56109930E+04   4.61738405E+04   1.73914408E-05   2.84111825E+03   1.93418685E-05   6.93628692E-05   6.81919826E-05   2.36389177E-05
   7.61250000E+02   5.00000000E-01   5.00000000E-01   1.31043941E+05   4.81602469E+04   0.00000000E+00   0.00000000E+00   0.00000000E+00   6.29606627E+03   0.00000000E+00   3.83848518E-02   2.37910670E+04   1.75361605E-01   4.41964283E+05   3.65220461E-02   3.81073257E-02   3.73817163E-02   3.70758160E-02   2.00601065E+04   1.76166166E+04   1.15730092E+05   3.02885433E+04   3.74508095E+05   2.60877094E-04   8.07340160E-03   8.29288278E-03   8.27886351E-03   8.23049730E-03   3.42557060E+04   4.56180508E+04   4.61738405E+04   3.47942891E-05   2.84111826E+03   1.93418597E-05   6.93628692E-05   6.81919769E-05   2.36383806E-05
   7.78750000E+02   5.00000000E-01   5.00000000E-01   1.31043943E+05   4.81657193E+04   0.00000000E+00   0.00000000E+00   0.00000000E+00   6.29606624E+03   0.00000000E+00   3.84026125E-02   2.07170332E+04   1.78087327E-01   4.17499270E+05   3.65219961E-02   3.81072877E-02   3.73814826E-02   3.70753338E-02   2.00601076E+04   1.76166261E+04   1.15730092E+05   3.02722401E+04   3.75672587E+05   2.60860270E-04   8.07339940E-03   8.29193600E-03   8.27883889E-03   8.22968285E-03   3.42557021E+04   4.56246029E+04   4.61738405E+04   6.34678050E-05   2.84111826E+03   1.93418517E-05   6.93628692E-05   6.81919713E-05   2.36378343E-05
   7.96250000E+02   5.00000000E-01   5.00000000E-01   1.31043944E+05   4.81708876E+04   0.00000000E+00   0.00000000E+00   0.00000000E+00   6.29606621E+03   0.00000000E+00   3.84198847E-02   1.80145809E+04   1.80751400E-01   3.93426191E+05   3.65219510E-02   3.81072528E-02   3.73812710E-02   3.70748897E-02   2.00601087E+04   1.76166346E+04   1.15730092E+05   3.02566800E+04   3.76790549E+05   2.60845171E-04   8.07340356E-03   8.29105451E-03   8.27884077E-03   8.22893092E-03   3.42556985E+04   4.56307606E+04   4.61738405E+04   1.09324455E-04   2.84111826E+03   1.93418447E-05   6.93628692E-05   6.81919660E-05   2.36372794E-05