 TITLE = "Mineral Area" 
VARIABLES = "X"          "Y"              "Z"            "Forsterite"     "Fayalite"       "Brucite"        "Lizardite"      "Chrysotile"     "Hematite"       "Magnetite(am)"  "Saponite(Ca)"   "Saponite(K)"    "Saponite(Mg)"   "Saponite(Na)"   "Beidellite(Ca)" "Beidellite(K)"  "Beidellite(Mg)" "Beidellite(Na)" "Enstatite(alph" "Ferrosilite(al" "Anorthite"      "Albite(low)"    "Clinochlore"    "Sudoite"        "Montmor(MgCa)"  "Montmor(MgK)"   "Montmor(MgMg)"  "Montmor(MgNa)"  "Kaolinite"      "Tremolite"      "Pargasite"      "Anhydrite"      "Epidote"        "Scolecite"      "Pyrite"         "FeS(am)"        "Quartz(alpha)"  "Titanite"       "Rutile"         "Barite"         "Fluorite"       "Spessartine(al" "Andradite"      "Celestite"      "Zincite"        "Chalcocyanite"  "Chalcocite(alp"
 ZONE I=         200 , J=           1 , K=           1  F=POINT
   8.75000000E+00   5.00000000E-01   5.00000000E-01   1.30937409E+05   4.79034728E+04   1.22326517E-03   1.07858162E-03   9.89136273E-04   6.44377322E+03   5.75290178E-06   3.86931545E-02   8.32290379E-01   4.71900574E-02   1.64954656E+05   3.64914547E-02   3.81034808E-02   3.73412934E-02   3.70337463E-02   2.00600435E+04   1.76155976E+04   1.15439643E+05   2.95431114E+04   4.34185835E+05   0.00000000E+00   8.06552308E-03   8.29726901E-03   8.25015711E-03   8.18532593E-03   3.42537902E+04   4.49675336E+04   4.60490044E+04   0.00000000E+00   2.82622129E+03   1.92517974E-05   6.91893592E-05   6.80625971E-05   2.35929530E-05   3.52255120E+01   4.24384223E+01   1.47993652E+03   3.18127334E+01   3.39632943E+02   3.85412215E+01   3.97154290E+01   5.65603617E+02   3.90435155E+01   5.60033526E+01
   2.62500000E+01   5.00000000E-01   5.00000000E-01   1.30937409E+05   4.79055633E+04   1.22326297E-03   9.63648049E-04   9.08156867E-04   6.44377318E+03   5.75344485E-06   3.95573500E-02   1.68957828E+00   5.19460551E-02   4.57873189E+05   3.64914597E-02   3.81034880E-02   3.73413167E-02   3.70338072E-02   2.00600431E+04   1.76156361E+04   1.15439643E+05   2.95912430E+04   4.27886203E+05   0.00000000E+00   8.06554974E-03   8.29733396E-03   8.25027178E-03   8.18578403E-03   3.42537928E+04   4.49884970E+04   4.60490044E+04   0.00000000E+00   2.82622129E+03   1.92518041E-05   6.91893592E-05   6.80625971E-05   2.36084074E-05   3.52255025E+01   4.24384289E+01   1.45097937E+03   3.18127323E+01   3.39632943E+02   3.85412215E+01   3.97154290E+01   5.65603641E+02   3.90435155E+01   5.60021248E+01
   4.37500000E+01   5.00000000E-01   5.00000000E-01   1.30937409E+05   4.79076508E+04   1.22326207E-03   9.04741441E-04   8.65553504E-04   6.44377318E+03   5.75380564E-06   4.01168238E-02   2.14244003E+00   5.51047804E-02   5.04738117E+05   3.64915089E-02   3.81035547E-02   3.73415450E-02   3.70343882E-02   2.00600428E+04   1.76156698E+04   1.15439643E+05   2.97190801E+04   4.20987824E+05   0.00000000E+00   8.06570920E-03   8.29770139E-03   8.25095706E-03   8.18844140E-03   3.42538060E+04   4.50032193E+04   4.60490044E+04   0.00000000E+00   2.82622129E+03   1.92518344E-05   6.91893592E-05   6.80625971E-05   2.36217651E-05   3.52254964E+01   4.24384351E+01   1.43947663E+03   3.18127313E+01   3.39632943E+02   3.85412215E+01   3.97154290E+01   5.65603642E+02   3.90435155E+01   5.60021248E+01
   6.12500000E+01   5.00000000E-01   5.00000000E-01   1.30937409E+05   4.79098295E+04   1.22326165E-03   8.74500235E-04   8.43425616E-04   6.44377318E+03   5.75412032E-06   4.05788076E-02   2.45466627E+00   5.77757886E-02   6.22134216E+05   3.64916568E-02   3.81037438E-02   3.73422298E-02   3.70360801E-02   2.00600428E+04   1.76157024E+04   1.15439643E+05   2.99077080E+04   4.10170718E+05   0.00000000E+00   8.06608593E-03   8.29851534E-03   8.25257440E-03   8.19450259E-03   3.42538310E+04   4.50153737E+04   4.60490044E+04   0.00000000E+00   2.82622129E+03   1.92518911E-05   6.91893592E-05   6.80625971E-05   2.36327554E-05   3.52254937E+01   4.24384409E+01   1.43459721E+03   3.18127304E+01   3.39632943E+02   3.85412215E+01   3.97154290E+01   5.65603663E+02   3.90435155E+01   5.60021248E+01
   7.87500000E+01   5.00000000E-01   5.00000000E-01   1.30937409E+05   4.79122538E+04   1.22326144E-03   8.59294368E-04   8.32299731E-04   6.44377317E+03   5.75444051E-06   4.10637328E-02   2.79393429E+00   6.06562970E-02   7.93199904E+05   3.64919332E-02   3.81040763E-02   3.73435085E-02   3.70391388E-02   2.00600429E+04   1.76157347E+04   1.15439643E+05   3.01217133E+04   3.97397188E+05   0.00000000E+00   8.06667725E-03   8.29970599E-03   8.25511063E-03   8.20366100E-03   3.42538659E+04   4.50310080E+04   4.60490044E+04   0.00000000E+00   2.82622129E+03   1.92519686E-05   6.91893592E-05   6.80625971E-05   2.36413176E-05   3.52254928E+01   4.24384463E+01   1.43238325E+03   3.18127296E+01   3.39632943E+02   3.85412215E+01   3.97154290E+01   5.65603700E+02   3.90435155E+01   5.60021248E+01
   9.62500000E+01   5.00000000E-01   5.00000000E-01   1.30937409E+05   4.79149694E+04   1.22326133E-03   8.51249513E-04   8.26476821E-04   6.44377317E+03   5.75478128E-06   4.15757421E-02   3.14616819E+00   6.37787957E-02   9.69575303E+05   3.64923290E-02   3.81045218E-02   3.73453365E-02   3.70433626E-02   2.00600430E+04   1.76157666E+04   1.15439643E+05   3.03291695E+04   3.84875036E+05   0.00000000E+00   8.06741158E-03   8.30107313E-03   8.25825737E-03   8.21456752E-03   3.42539069E+04   4.50510060E+04   4.60490044E+04   0.00000000E+00   2.82622129E+03   1.92520580E-05   6.91893592E-05   6.80625971E-05   2.36476975E-05   3.52254926E+01   4.24384511E+01   1.43129432E+03   3.18127288E+01   3.39632943E+02   3.85412215E+01   3.97154290E+01   5.65603750E+02   3.90435155E+01   5.60021248E+01
   1.13750000E+02   5.00000000E-01   5.00000000E-01   1.30937409E+05   4.79179597E+04   1.22326127E-03   8.46650987E-04   8.23222550E-04   6.44377316E+03   5.75514621E-06   4.20876323E-02   3.45588234E+00   6.69795650E-02   1.11934356E+06   3.64927905E-02   3.81050032E-02   3.73474644E-02   3.70480893E-02   2.00600432E+04   1.76157978E+04   1.15439643E+05   3.05071330E+04   3.74153352E+05   0.00000000E+00   8.06818003E-03   8.30237742E-03   8.26154697E-03   8.22543543E-03   3.42539481E+04   4.50740637E+04   4.60490044E+04   0.00000000E+00   2.82622129E+03   1.92521474E-05   6.91893592E-05   6.80625971E-05   2.36523023E-05   3.52254927E+01   4.24384554E+01   1.43070061E+03   3.18127281E+01   3.39632943E+02   3.85412215E+01   3.97154290E+01   5.65603808E+02   3.90435155E+01   5.60021248E+01
   1.31250000E+02   5.00000000E-01   5.00000000E-01   1.30937409E+05   4.79211924E+04   1.22326126E-03   8.43844412E-04   8.21309507E-04   6.44377315E+03   5.75553670E-06   4.25766097E-02   3.68210098E+00   7.01084754E-02   1.23185350E+06   3.64932554E-02   3.81054459E-02   3.73496033E-02   3.70526243E-02   2.00600435E+04   1.76158282E+04   1.15439643E+05   3.06463328E+04   3.65828382E+05   0.00000000E+00   8.06889470E-03   8.30345938E-03   8.26460268E-03   8.23495811E-03   3.42539846E+04   4.50985456E+04   4.60490044E+04   0.00000000E+00   2.82622129E+03   1.92522278E-05   6.91893592E-05   6.80625971E-05   2.36555526E-05   3.52254929E+01   4.24384593E+01   1.43033348E+03   3.18127274E+01   3.39632943E+02   3.85412215E+01   3.97154290E+01   5.65603873E+02   3.90435155E+01   5.60021248E+01
   1.48750000E+02   5.00000000E-01   5.00000000E-01   1.30937409E+05   4.79246385E+04   1.22326127E-03   8.42092938E-04   8.20189792E-04   6.44377315E+03   5.75595414E-06   4.30309238E-02   3.80965168E+00   7.30765115E-02   1.30887882E+06   3.64936821E-02   3.81058095E-02   3.73515622E-02   3.70565523E-02   2.00600437E+04   1.76158579E+04   1.15439643E+05   3.07480920E+04   3.59811675E+05   0.00000000E+00   8.06951350E-03   8.30426872E-03   8.26724453E-03   8.24261497E-03   3.42540143E+04   4.51231978E+04   4.60490044E+04   0.00000000E+00   2.82622129E+03   1.92522952E-05   6.91893592E-05   6.80625971E-05   2.36578057E-05   3.52254931E+01   4.24384625E+01   1.43007389E+03   3.18127268E+01   3.39632943E+02   3.85412215E+01   3.97154290E+01   5.65603943E+02   3.90435155E+01   5.60021248E+01
   1.66250000E+02   5.00000000E-01   5.00000000E-01   1.30937409E+05   4.79282743E+04   1.22326130E-03   8.41044732E-04   8.19602273E-04   6.44377314E+03   5.75639991E-06   4.34465050E-02   3.84277787E+00   7.58418576E-02   1.35705829E+06   3.64940542E-02   3.81060857E-02   3.73532660E-02   3.70597467E-02   2.00600440E+04   1.76158868E+04   1.15439643E+05   3.08186445E+04   3.55709247E+05   0.00000000E+00   8.07003039E-03   8.30482638E-03   8.26944740E-03   8.24844618E-03   3.42540371E+04   4.51472002E+04   4.60490044E+04   0.00000000E+00   2.82622129E+03   1.92523496E-05   6.91893592E-05   6.80625971E-05   2.36593354E-05   3.52254933E+01   4.24384653E+01   1.42986727E+03   3.18127262E+01   3.39632943E+02   3.85412215E+01   3.97154290E+01   5.65604019E+02   3.90435155E+01   5.60021248E+01
   1.83750000E+02   5.00000000E-01   5.00000000E-01   1.30937409E+05   4.79320786E+04   1.22326135E-03   8.40510014E-04   8.19406637E-04   6.44377313E+03   5.75687528E-06   4.38231423E-02   3.79587857E+00   7.83892436E-02   1.38375952E+06   3.64943719E-02   3.81062840E-02   3.73547164E-02   3.70622561E-02   2.00600442E+04   1.76159149E+04   1.15439643E+05   3.08651735E+04   3.53070831E+05   0.00000000E+00   8.07045792E-03   8.30518170E-03   8.27126565E-03   8.25274727E-03   3.42540537E+04   4.51700238E+04   4.60490044E+04   0.00000000E+00   2.82622130E+03   1.92523927E-05   6.91893592E-05   6.80625971E-05   2.36603401E-05   3.52254933E+01   4.24384675E+01   1.42968778E+03   3.18127257E+01   3.39632943E+02   3.85412215E+01   3.97154290E+01   5.65604098E+02   3.90435155E+01   5.60021248E+01
   2.01250000E+02   5.00000000E-01   5.00000000E-01   1.30937409E+05   4.79360313E+04   1.22326141E-03   8.40373260E-04   8.19517822E-04   6.44377313E+03   5.75738129E-06   4.41623720E-02   3.68686428E+00   8.07174963E-02   1.39533053E+06   3.64946433E-02   3.81064201E-02   3.73559512E-02   3.70642010E-02   2.00600445E+04   1.76159421E+04   1.15439643E+05   3.08939833E+04   3.51502826E+05   0.00000000E+00   8.07081452E-03   8.30538656E-03   8.27277871E-03   8.25586865E-03   3.42540655E+04   4.51913214E+04   4.60490044E+04   0.00000000E+00   2.82622130E+03   1.92524269E-05   6.91893592E-05   6.80625971E-05   2.36609595E-05   3.52254932E+01   4.24384691E+01   1.42952287E+03   3.18127252E+01   3.39632943E+02   3.85412215E+01   3.97154290E+01   5.65604181E+02   3.90435155E+01   5.60021248E+01
   2.18750000E+02   5.00000000E-01   5.00000000E-01   1.30937409E+05   4.79401124E+04   1.22326147E-03   8.40557884E-04   8.19879671E-04   6.44377312E+03   5.75791888E-06   4.44665678E-02   3.53339784E+00   8.28336700E-02   1.39665050E+06   3.64948785E-02   3.81065099E-02   3.73570176E-02   3.70657124E-02   2.00600448E+04   1.76159686E+04   1.15439643E+05   3.09099868E+04   3.50699391E+05   0.00000000E+00   8.07111796E-03   8.30548470E-03   8.27406312E-03   8.25812251E-03   3.42540735E+04   4.52108726E+04   4.60490044E+04   0.00000000E+00   2.82622130E+03   1.92524542E-05   6.91893592E-05   6.80625971E-05   2.36612912E-05   3.52254930E+01   4.24384703E+01   1.42936628E+03   3.18127248E+01   3.39632943E+02   3.85412215E+01   3.97154290E+01   5.65604266E+02   3.90435155E+01   5.60021248E+01
   2.36250000E+02   5.00000000E-01   5.00000000E-01   1.30937409E+05   4.79443032E+04   1.22326155E-03   8.41010322E-04   8.20453102E-04   6.44377311E+03   5.75848897E-06   4.47385549E-02   3.35105150E+00   8.47502055E-02   1.39123776E+06   3.64950870E-02   3.81065664E-02   3.73579600E-02   3.70669047E-02   2.00600451E+04   1.76159941E+04   1.15439643E+05   3.09167850E+04   3.50437133E+05   0.00000000E+00   8.07138293E-03   8.30550924E-03   8.27518193E-03   8.25975436E-03   3.42540789E+04   4.52285592E+04   4.60490044E+04   0.00000000E+00   2.82622130E+03   1.92524765E-05   6.91893592E-05   6.80625971E-05   2.36614034E-05   3.52254927E+01   4.24384709E+01   1.42921485E+03   3.18127243E+01   3.39632943E+02   3.85412215E+01   3.97154289E+01   5.65604355E+02   3.90435155E+01   5.60021248E+01
   2.53750000E+02   5.00000000E-01   5.00000000E-01   1.30937409E+05   4.79485863E+04   1.22326163E-03   8.41691554E-04   8.21209806E-04   6.44377310E+03   5.75909254E-06   4.49814086E-02   3.15259106E+00   8.64831787E-02   1.38152416E+06   3.64952768E-02   3.81065996E-02   3.73588146E-02   3.70678676E-02   2.00600455E+04   1.76160189E+04   1.15439643E+05   3.09169306E+04   3.50558496E+05   0.00000000E+00   8.07162054E-03   8.30548380E-03   8.27618291E-03   8.26094424E-03   3.42540823E+04   4.52443491E+04   4.60490044E+04   0.00000000E+00   2.82622130E+03   1.92524951E-05   6.91893592E-05   6.80625971E-05   2.36613444E-05   3.52254922E+01   4.24384711E+01   1.42906698E+03   3.18127240E+01   3.39632943E+02   3.85412215E+01   3.97154289E+01   5.65604445E+02   3.90435155E+01   5.60021248E+01
   2.71250000E+02   5.00000000E-01   5.00000000E-01   1.30937409E+05   4.79529465E+04   1.22326173E-03   8.42572313E-04   8.22128693E-04   6.44377310E+03   5.75973071E-06   4.51983080E-02   2.94789439E+00   8.80509129E-02   1.36913353E+06   3.64954537E-02   3.81066166E-02   3.73596088E-02   3.70686669E-02   2.00600458E+04   1.76160427E+04   1.15439643E+05   3.09122026E+04   3.50954632E+05   0.00000000E+00   8.07183876E-03   8.30542459E-03   8.27710020E-03   8.26181820E-03   3.42540844E+04   4.52582825E+04   4.60490044E+04   0.00000000E+00   2.82622130E+03   1.92525112E-05   6.91893592E-05   6.80625971E-05   2.36611493E-05   3.52254915E+01   4.24384707E+01   1.42892185E+03   3.18127236E+01   3.39632943E+02   3.85412215E+01   3.97154289E+01   5.65604538E+02   3.90435155E+01   5.60021248E+01
   2.88750000E+02   5.00000000E-01   5.00000000E-01   1.30937409E+05   4.79573705E+04   1.22326182E-03   8.43630650E-04   8.23194121E-04   6.44377309E+03   5.76040479E-06   4.53924135E-02   2.74420516E+00   8.94727677E-02   1.35511195E+06   3.64956219E-02   3.81066222E-02   3.73603620E-02   3.70693484E-02   2.00600462E+04   1.76160658E+04   1.15439643E+05   3.09038309E+04   3.51551297E+05   0.00000000E+00   8.07204300E-03   8.30534234E-03   8.27795701E-03   8.26246124E-03   3.42540854E+04   4.52704566E+04   4.60490044E+04   0.00000000E+00   2.82622130E+03   1.92525253E-05   6.91893592E-05   6.80625971E-05   2.36608439E-05   3.52254908E+01   4.24384699E+01   1.42877908E+03   3.18127233E+01   3.39632943E+02   3.85412215E+01   3.97154289E+01   5.65604632E+02   3.90435155E+01   5.60021248E+01
   3.06250000E+02   5.00000000E-01   5.00000000E-01   1.30937410E+05   4.79618471E+04   1.22326193E-03   8.44851046E-04   8.24395302E-04   6.44377308E+03   5.76111636E-06   4.55667620E-02   2.54653820E+00   9.07680980E-02   1.34010308E+06   3.64957841E-02   3.81066197E-02   3.73610867E-02   3.70699418E-02   2.00600465E+04   1.76160880E+04   1.15439643E+05   3.08926653E+04   3.52298236E+05   0.00000000E+00   8.07223673E-03   8.30524402E-03   8.27876821E-03   8.26292860E-03   3.42540857E+04   4.52810106E+04   4.60490044E+04   0.00000000E+00   2.82622130E+03   1.92525379E-05   6.91893592E-05   6.80625971E-05   2.36604482E-05   3.52254899E+01   4.24384687E+01   1.42863849E+03   3.18127230E+01   3.39632943E+02   3.85412215E+01   3.97154289E+01   5.65604729E+02   3.90435155E+01   5.60021248E+01
   3.23750000E+02   5.00000000E-01   5.00000000E-01   1.30937410E+05   4.79663672E+04   1.22326204E-03   8.46224361E-04   8.25726369E-04   6.44377307E+03   5.76186727E-06   4.57241856E-02   2.35812578E+00   9.19554167E-02   1.32447776E+06   3.64959420E-02   3.81066110E-02   3.73617903E-02   3.70704653E-02   2.00600469E+04   1.76161094E+04   1.15439643E+05   3.08792967E+04   3.53161526E+05   0.00000000E+00   8.07242200E-03   8.30513399E-03   8.27954252E-03   8.26325470E-03   3.42540854E+04   4.52901104E+04   4.60490044E+04   0.00000000E+00   2.82622130E+03   1.92525493E-05   6.91893592E-05   6.80625971E-05   2.36599776E-05   3.52254889E+01   4.24384671E+01   1.42850006E+03   3.18127227E+01   3.39632943E+02   3.85412215E+01   3.97154289E+01   5.65604827E+02   3.90435155E+01   5.60021248E+01
   3.41250000E+02   5.00000000E-01   5.00000000E-01   1.30937410E+05   4.79709236E+04   1.22326216E-03   8.47747943E-04   8.27186568E-04   6.44377306E+03   5.76265965E-06   4.58672547E-02   2.18084259E+00   9.30517914E-02   1.30842907E+06   3.64960963E-02   3.81065973E-02   3.73624762E-02   3.70709287E-02   2.00600473E+04   1.76161300E+04   1.15439643E+05   3.08641423E+04   3.54118123E+05   0.00000000E+00   8.07259982E-03   8.30501495E-03   8.28028434E-03   8.26345993E-03   3.42540847E+04   4.52979341E+04   4.60490044E+04   0.00000000E+00   2.82622130E+03   1.92525598E-05   6.91893592E-05   6.80625971E-05   2.36594446E-05   3.52254877E+01   4.24384651E+01   1.42836378E+03   3.18127224E+01   3.39632943E+02   3.85412215E+01   3.97154289E+01   5.65604927E+02   3.90435155E+01   5.60021248E+01
   3.58750000E+02   5.00000000E-01   5.00000000E-01   1.30937410E+05   4.79755105E+04   1.22326229E-03   8.49425434E-04   8.28780199E-04   6.44377305E+03   5.76349595E-06   4.59982500E-02   2.01557780E+00   9.40724920E-02   1.29204234E+06   3.64962472E-02   3.81065791E-02   3.73631451E-02   3.70713364E-02   2.00600477E+04   1.76161499E+04   1.15439643E+05   3.08475058E+04   3.55151980E+05   0.00000000E+00   8.07277056E-03   8.30488855E-03   8.28099519E-03   8.26355588E-03   3.42540835E+04   4.53046601E+04   4.60490044E+04   0.00000000E+00   2.82622130E+03   1.92525693E-05   6.91893592E-05   6.80625971E-05   2.36588595E-05   3.52254865E+01   4.24384627E+01   1.42822972E+03   3.18127222E+01   3.39632943E+02   3.85412215E+01   3.97154290E+01   5.65605028E+02   3.90435155E+01   5.60021248E+01
   3.76250000E+02   5.00000000E-01   5.00000000E-01   1.30937410E+05   4.79801236E+04   1.22326242E-03   8.51266150E-04   8.30516209E-04   6.44377304E+03   5.76437883E-06   4.61191607E-02   1.86254109E+00   9.50308836E-02   1.27534568E+06   3.64963943E-02   3.81065568E-02   3.73637957E-02   3.70716896E-02   2.00600481E+04   1.76161691E+04   1.15439643E+05   3.08296194E+04   3.56251324E+05   0.00000000E+00   8.07293417E-03   8.30475585E-03   8.28167492E-03   8.26354912E-03   3.42540819E+04   4.53104570E+04   4.60490044E+04   0.00000000E+00   2.82622130E+03   1.92525780E-05   6.91893592E-05   6.80625971E-05   2.36582310E-05   3.52254852E+01   4.24384600E+01   1.42809795E+03   3.18127219E+01   3.39632943E+02   3.85412215E+01   3.97154290E+01   5.65605132E+02   3.90435155E+01   5.60021247E+01
   3.93750000E+02   5.00000000E-01   5.00000000E-01   1.30937410E+05   4.79847596E+04   1.22326256E-03   8.53284200E-04   8.32407554E-04   6.44377303E+03   5.76531120E-06   4.62317045E-02   1.72149982E+00   9.59385193E-02   1.25834343E+06   3.64965372E-02   3.81065306E-02   3.73644262E-02   3.70719879E-02   2.00600486E+04   1.76161876E+04   1.15439644E+05   3.08106721E+04   3.57406816E+05   0.00000000E+00   8.07309044E-03   8.30461765E-03   8.28232259E-03   8.26344399E-03   3.42540800E+04   4.53154768E+04   4.60490044E+04   0.00000000E+00   2.82622131E+03   1.92525857E-05   6.91893592E-05   6.80625971E-05   2.36575662E-05   3.52254838E+01   4.24384569E+01   1.42796854E+03   3.18127217E+01   3.39632943E+02   3.85412215E+01   3.97154290E+01   5.65605238E+02   3.90435155E+01   5.60021247E+01
   4.11250000E+02   5.00000000E-01   5.00000000E-01   1.30937411E+05   4.79894161E+04   1.22326271E-03   8.55497567E-04   8.34470520E-04   6.44377301E+03   5.76629617E-06   4.63373590E-02   1.59195111E+00   9.68053440E-02   1.24103389E+06   3.64966755E-02   3.81065006E-02   3.73650344E-02   3.70722311E-02   2.00600490E+04   1.76162055E+04   1.15439644E+05   3.07908271E+04   3.58610456E+05   0.00000000E+00   8.07323911E-03   8.30447463E-03   8.28293715E-03   8.26324426E-03   3.42540777E+04   4.53198526E+04   4.60490044E+04   0.00000000E+00   2.82622131E+03   1.92525926E-05   6.91893592E-05   6.80625971E-05   2.36568713E-05   3.52254824E+01   4.24384536E+01   1.42784158E+03   3.18127215E+01   3.39632943E+02   3.85412215E+01   3.97154290E+01   5.65605346E+02   3.90435155E+01   5.60021247E+01
   4.28750000E+02   5.00000000E-01   5.00000000E-01   1.30937411E+05   4.79940908E+04   1.22326287E-03   8.57927343E-04   8.36724144E-04   6.44377300E+03   5.76733708E-06   4.64373922E-02   1.47323792E+00   9.76398984E-02   1.22341406E+06   3.64968087E-02   3.81064671E-02   3.73656183E-02   3.70724189E-02   2.00600495E+04   1.76162227E+04   1.15439644E+05   3.07702314E+04   3.59855077E+05   0.00000000E+00   8.07337996E-03   8.30432744E-03   8.28351766E-03   8.26295388E-03   3.42540751E+04   4.53236996E+04   4.60490044E+04   5.86635622E-23   2.82622131E+03   1.92525986E-05   6.91893592E-05   6.80625971E-05   2.36561515E-05   3.52254809E+01   4.24384501E+01   1.42771714E+03   3.18127213E+01   3.39632943E+02   3.85412215E+01   3.97154290E+01   5.65605456E+02   3.90435155E+01   5.60021247E+01
   4.46250000E+02   5.00000000E-01   5.00000000E-01   1.30937411E+05   4.79987817E+04   1.22326304E-03   8.60597189E-04   8.39189807E-04   6.44377299E+03   5.76843743E-06   4.65328826E-02   1.36462237E+00   9.84494342E-02   1.20547641E+06   3.64969364E-02   3.81064301E-02   3.73661760E-02   3.70725515E-02   2.00600500E+04   1.76162394E+04   1.15439644E+05   3.07490181E+04   3.61134227E+05   0.00000000E+00   8.07351283E-03   8.30417672E-03   8.28406342E-03   8.26257713E-03   3.42540722E+04   4.53271179E+04   4.60490044E+04   0.00000000E+00   2.82622131E+03   1.92526038E-05   6.91893592E-05   6.80625971E-05   2.36554112E-05   3.52254794E+01   4.24384463E+01   1.42759531E+03   3.18127212E+01   3.39632943E+02   3.85412215E+01   3.97154290E+01   5.65605568E+02   3.90435155E+01   5.60021247E+01
   4.63750000E+02   5.00000000E-01   5.00000000E-01   1.30937411E+05   4.80034866E+04   1.22326321E-03   8.63533028E-04   8.41891013E-04   6.44377297E+03   5.76960098E-06   4.66247251E-02   1.26533103E+00   9.92399149E-02   1.18720411E+06   3.64970582E-02   3.81063901E-02   3.73667058E-02   3.70726293E-02   2.00600505E+04   1.76162555E+04   1.15439644E+05   3.07273080E+04   3.62442209E+05   0.00000000E+00   8.07363756E-03   8.30402310E-03   8.28457385E-03   8.26211832E-03   3.42540689E+04   4.53301961E+04   4.60490044E+04   4.33186283E-09   2.82622131E+03   1.92526081E-05   6.91893592E-05   6.80625971E-05   2.36546542E-05   3.52254778E+01   4.24384422E+01   1.42747617E+03   3.18127210E+01   3.39632943E+02   3.85412215E+01   3.97154290E+01   5.65605682E+02   3.90435155E+01   5.60021247E+01
   4.81250000E+02   5.00000000E-01   5.00000000E-01   1.30937412E+05   4.80082027E+04   1.22326340E-03   8.66762981E-04   8.44853363E-04   6.44377296E+03   5.77083169E-06   4.67136283E-02   1.17458470E+00   1.00015947E-01   1.16856977E+06   3.64971737E-02   3.81063470E-02   3.73672058E-02   3.70726523E-02   2.00600510E+04   1.76162711E+04   1.15439644E+05   3.07052085E+04   3.63774100E+05   0.00000000E+00   8.07375404E-03   8.30386710E-03   8.28504839E-03   8.26158161E-03   3.42540654E+04   4.53330122E+04   4.60490044E+04   2.72129748E-08   2.82622131E+03   1.92526116E-05   6.91893592E-05   6.80625971E-05   2.36538838E-05   3.52254761E+01   4.24384380E+01   1.42735978E+03   3.18127209E+01   3.39632943E+02   3.85412215E+01   3.97154290E+01   5.65605799E+02   3.90435155E+01   5.60021247E+01
   4.98750000E+02   5.00000000E-01   5.00000000E-01   1.30937412E+05   4.80129270E+04   1.22326360E-03   8.70317561E-04   8.48104740E-04   6.44377294E+03   5.77213382E-06   4.68001143E-02   1.09162118E+00   1.00780732E-01   1.14953946E+06   3.64972823E-02   3.81063010E-02   3.73676739E-02   3.70726209E-02   2.00600515E+04   1.76162862E+04   1.15439644E+05   3.06828159E+04   3.65125628E+05   0.00000000E+00   8.07386212E-03   8.30370925E-03   8.28548653E-03   8.26097101E-03   3.42540616E+04   4.53356335E+04   4.60490044E+04   6.22932826E-08   2.82622131E+03   1.92526142E-05   6.91893592E-05   6.80625971E-05   2.36531027E-05   3.52254745E+01   4.24384337E+01   1.42724621E+03   3.18127207E+01   3.39632943E+02   3.85412215E+01   3.97154290E+01   5.65605919E+02   3.90435155E+01   5.60021247E+01
   5.16250000E+02   5.00000000E-01   5.00000000E-01   1.30937412E+05   4.80176560E+04   1.22326381E-03   8.74230131E-04   8.51675717E-04   6.44377292E+03   5.77351191E-06   4.68845297E-02   1.01571432E+00   1.01536132E-01   1.13008077E+06   3.64973838E-02   3.81062524E-02   3.73681085E-02   3.70725353E-02   2.00600521E+04   1.76163007E+04   1.15439644E+05   3.06602173E+04   3.66492942E+05   0.00000000E+00   8.07396172E-03   8.30355003E-03   8.28588791E-03   8.26029063E-03   3.42540576E+04   4.53381136E+04   4.60490044E+04   1.15333292E-07   2.82622132E+03   1.92526160E-05   6.91893592E-05   6.80625971E-05   2.36523136E-05   3.52254728E+01   4.24384291E+01   1.42713553E+03   3.18127206E+01   3.39632943E+02   3.85412215E+01   3.97154290E+01   5.65606041E+02   3.90435155E+01   5.60021247E+01
   5.33750000E+02   5.00000000E-01   5.00000000E-01   1.30937413E+05   4.80223860E+04   1.22326403E-03   8.78537627E-04   8.55600195E-04   6.44377290E+03   5.77497084E-06   4.69670738E-02   9.46189570E-01   1.02282886E-01   1.11017127E+06   3.64974777E-02   3.81062013E-02   3.73685080E-02   3.70723967E-02   2.00600527E+04   1.76163148E+04   1.15439644E+05   3.06374941E+04   3.67872341E+05   0.00000000E+00   8.07405282E-03   8.30338992E-03   8.28625252E-03   8.25954511E-03   3.42540533E+04   4.53404901E+04   4.60490044E+04   1.94825201E-07   2.82622132E+03   1.92526170E-05   6.91893592E-05   6.80625971E-05   2.36515185E-05   3.52254711E+01   4.24384245E+01   1.42702781E+03   3.18127205E+01   3.39632943E+02   3.85412215E+01   3.97154290E+01   5.65606166E+02   3.90435155E+01   5.60021247E+01
   5.51250000E+02   5.00000000E-01   5.00000000E-01   1.30937413E+05   4.80271130E+04   1.22326426E-03   8.83281498E-04   8.59916239E-04   6.44377288E+03   5.77651584E-06   4.70478410E-02   8.82434129E-01   1.03020957E-01   1.08980341E+06   3.64975640E-02   3.81061480E-02   3.73688719E-02   3.70722071E-02   2.00600533E+04   1.76163284E+04   1.15439644E+05   3.06147245E+04   3.69260081E+05   0.00000000E+00   8.07413555E-03   8.30322947E-03   8.28658092E-03   8.25873991E-03   3.42540488E+04   4.53427835E+04   4.60490044E+04   3.13336234E-07   2.82622132E+03   1.92526172E-05   6.91893592E-05   6.80625971E-05   2.36507195E-05   3.52254694E+01   4.24384198E+01   1.42692310E+03   3.18127204E+01   3.39632943E+02   3.85412215E+01   3.97154290E+01   5.65606294E+02   3.90435155E+01   5.60021247E+01
   5.68750000E+02   5.00000000E-01   5.00000000E-01   1.30937414E+05   4.80318328E+04   1.22326451E-03   8.88508800E-04   8.64667049E-04   6.44377286E+03   5.77815255E-06   4.71268671E-02   8.23900414E-01   1.03749918E-01   1.06898373E+06   3.64976426E-02   3.81060928E-02   3.73692003E-02   3.70719694E-02   2.00600539E+04   1.76163416E+04   1.15439644E+05   3.05919848E+04   3.70652330E+05   0.00000000E+00   8.07421017E-03   8.30306924E-03   8.28687429E-03   8.25788140E-03   3.42540441E+04   4.53449989E+04   4.60490044E+04   4.89544073E-07   2.82622132E+03   1.92526166E-05   6.91893592E-05   6.80625971E-05   2.36499181E-05   3.52254677E+01   4.24384149E+01   1.42682145E+03   3.18127203E+01   3.39632943E+02   3.85412215E+01   3.97154290E+01   5.65606425E+02   3.90435155E+01   5.60021247E+01
   5.86250000E+02   5.00000000E-01   5.00000000E-01   1.30937415E+05   4.80365410E+04   1.22326477E-03   8.94273365E-04   8.69902011E-04   6.44377284E+03   5.77988706E-06   4.72041663E-02   7.70102792E-01   1.04469245E-01   1.04772647E+06   3.64977137E-02   3.81060361E-02   3.73694940E-02   3.70716875E-02   2.00600545E+04   1.76163543E+04   1.15439644E+05   3.05693486E+04   3.72045289E+05   0.00000000E+00   8.07427709E-03   8.30290981E-03   8.28713436E-03   8.25697661E-03   3.42540393E+04   4.53471305E+04   4.60490044E+04   7.51339106E-07   2.82622132E+03   1.92526153E-05   6.91893592E-05   6.80625971E-05   2.36491157E-05   3.52254660E+01   4.24384100E+01   1.42672292E+03   3.18127203E+01   3.39632943E+02   3.85412215E+01   3.97154290E+01   5.65606558E+02   3.90435155E+01   5.60021247E+01
   6.03750000E+02   5.00000000E-01   5.00000000E-01   1.30937415E+05   4.80412329E+04   1.22326504E-03   9.00636998E-04   8.75677795E-04   6.44377282E+03   5.78172594E-06   4.72797479E-02   7.20609493E-01   1.05178442E-01   1.02604467E+06   3.64977775E-02   3.81059782E-02   3.73697542E-02   3.70713655E-02   2.00600551E+04   1.76163665E+04   1.15439644E+05   3.05468844E+04   3.73435412E+05   0.00000000E+00   8.07433678E-03   8.30275174E-03   8.28736320E-03   8.25603272E-03   3.42540343E+04   4.53491671E+04   4.60490044E+04   1.14058144E-06   2.82622133E+03   1.92526134E-05   6.91893592E-05   6.80625971E-05   2.36483138E-05   3.52254643E+01   4.24384050E+01   1.42662756E+03   3.18127202E+01   3.39632943E+02   3.85412215E+01   3.97154290E+01   5.65606695E+02   3.90435155E+01   5.60021247E+01
   6.21250000E+02   5.00000000E-01   5.00000000E-01   1.30937416E+05   4.80459029E+04   1.22326533E-03   9.07670749E-04   8.82059520E-04   6.44377279E+03   5.78367631E-06   4.73536107E-02   6.75032572E-01   1.05876959E-01   1.00394222E+06   3.64978343E-02   3.81059195E-02   3.73699823E-02   3.70710073E-02   2.00600558E+04   1.76163783E+04   1.15439644E+05   3.05246538E+04   3.74819632E+05   0.00000000E+00   8.07438974E-03   8.30259554E-03   8.28756293E-03   8.25505649E-03   3.42540292E+04   4.53510975E+04   4.60490044E+04   1.72044130E-06   2.82622133E+03   1.92526109E-05   6.91893592E-05   6.80625971E-05   2.36475133E-05   3.52254626E+01   4.24384000E+01   1.42653542E+03   3.18127201E+01   3.39632943E+02   3.85412215E+01   3.97154290E+01   5.65606835E+02   3.90435155E+01   5.60021247E+01