 TITLE = "Mineral Area" 
VARIABLES = "X"          "Y"              "Z"            "Forsterite"     "Fayalite"       "Brucite"        "Lizardite"      "Chrysotile"     "Saponite(Mg)"   "Enstatite(alph" "Ferrosilite(al" "Anorthite"      "Albite(low)"    "Clinochlore"    "Sudoite"        "Montmorillonit" "Kaolinite"      "Tremolite"      "Pargasite"      "Anhydrite"      "Epidote"        "Scolecite"      "Pyrite"         "FeS(am)"        "Quartz(alpha)" 
 ZONE I=         100 , J=           1 , K=           1  F=POINT
   1.75000000E+01   5.00000000E-01   5.00000000E-01   1.11321043E+05   4.54597094E+04   4.21226037E-04   2.66080105E-06   2.40222226E-06   0.00000000E+00   2.00602388E+04   1.76160759E+04   6.68425065E+04   3.21747319E+04   1.40669777E+06   5.90183809E-02   1.21046022E-02   5.98747157E-01   4.56736878E+04   4.67739245E+04   2.47962006E-04   3.47617426E+02   2.24629429E+02   4.01448619E-05   4.56842239E-05   2.36251383E-05
   5.25000000E+01   5.00000000E-01   5.00000000E-01   1.11321043E+05   4.63638465E+04   4.21226271E-04   3.11978630E-06   2.72391429E-06   0.00000000E+00   2.00602401E+04   1.76164738E+04   6.68425066E+04   3.46007289E+04   1.28752827E+06   1.70485306E-02   4.31953073E-01   5.82070896E-01   4.58369509E+04   4.67739245E+04   2.51584290E-04   3.47617439E+02   2.24629672E+02   4.01448619E-05   4.56877881E-05   2.36468321E-05
   8.75000000E+01   5.00000000E-01   5.00000000E-01   1.11321044E+05   4.69874259E+04   4.21226482E-04   3.14013365E-06   2.74844359E-06   0.00000000E+00   2.00602407E+04   1.76166699E+04   6.68425067E+04   3.59040267E+04   1.22351470E+06   1.62965743E-02   2.02509494E+01   5.98641893E-01   4.59858822E+04   4.67739245E+04   2.55642051E-04   3.47617439E+02   2.24630023E+02   4.01448619E-05   4.56895378E-05   2.36526682E-05
   1.22500000E+02   5.00000000E-01   5.00000000E-01   1.11321044E+05   4.73078058E+04   4.21226679E-04   2.92556410E-06   2.60985962E-06   0.00000000E+00   2.00602409E+04   1.76167424E+04   6.68425068E+04   3.65106026E+04   1.19355102E+06   2.10524867E-02   5.65728715E+02   6.27247066E-01   4.59819688E+04   4.67739245E+04   2.60212852E-04   3.47617439E+02   2.24630450E+02   4.01448619E-05   4.56903336E-05   2.36521899E-05
   1.57500000E+02   5.00000000E-01   5.00000000E-01   1.11321044E+05   4.74809216E+04   4.21226894E-04   2.70021082E-06   2.45739776E-06   0.00000000E+00   2.00602411E+04   1.76167650E+04   6.68425070E+04   3.67150998E+04   1.18107250E+06   3.14254889E-02   8.21769023E+03   6.64420604E-01   4.58909742E+04   4.67739245E+04   2.65383487E-04   3.47617438E+02   2.24630943E+02   4.01448619E-05   4.56906284E-05   2.36496914E-05
   1.92500000E+02   5.00000000E-01   5.00000000E-01   1.11321044E+05   4.75995104E+04   4.21227175E-04   2.57644624E-06   2.37349677E-06   0.00000000E+00   2.00602413E+04   1.76167699E+04   6.68425073E+04   3.65802693E+04   1.17340205E+06   5.16295934E-02   5.31267519E+04   7.08833181E-01   4.58358197E+04   4.67739245E+04   2.71246155E-04   3.47617438E+02   2.24631498E+02   4.01448619E-05   4.56906282E-05   2.36465052E-05
   2.27500000E+02   5.00000000E-01   5.00000000E-01   1.11321045E+05   4.76960298E+04   4.21227531E-04   2.53746694E-06   2.35021158E-06   0.00000000E+00   2.00602416E+04   1.76167675E+04   6.68425077E+04   3.61700908E+04   1.16689838E+06   8.89103715E-02   1.36861311E+05   7.59024493E-01   4.58347493E+04   4.67739245E+04   2.77907284E-04   3.47617438E+02   2.24632108E+02   4.01448619E-05   4.56904315E-05   2.36431279E-05
   2.62500000E+02   5.00000000E-01   5.00000000E-01   1.11321046E+05   4.77722757E+04   4.21227933E-04   2.52306629E-06   2.34475777E-06   0.00000000E+00   2.00602419E+04   1.76167594E+04   6.68425083E+04   3.56840203E+04   1.16221673E+06   1.53789952E-01   2.26582146E+05   8.13717711E-01   4.58475930E+04   4.67739245E+04   2.85495530E-04   3.47617438E+02   2.24632774E+02   4.01448619E-05   4.56900935E-05   2.36398409E-05
   2.97500000E+02   5.00000000E-01   5.00000000E-01   1.11321046E+05   4.78363629E+04   4.21228371E-04   2.51792056E-06   2.34608495E-06   0.00000000E+00   2.00602423E+04   1.76167480E+04   6.68425091E+04   3.52019426E+04   1.15852571E+06   2.61146242E-01   3.12573659E+05   8.71780475E-01   4.58658464E+04   4.67739245E+04   2.94164317E-04   3.47617438E+02   2.24633491E+02   4.01448619E-05   4.56896565E-05   2.36367171E-05
   3.32500000E+02   5.00000000E-01   5.00000000E-01   1.11321047E+05   4.78941002E+04   4.21228841E-04   2.51830507E-06   2.35154662E-06   0.00000000E+00   2.00602427E+04   1.76167348E+04   6.68425102E+04   3.47443041E+04   1.15523703E+06   4.31783783E-01   3.93528986E+05   9.31846572E-01   4.58879103E+04   4.67739245E+04   3.04097032E-04   3.47617438E+02   2.24634259E+02   4.01448619E-05   4.56891508E-05   2.36337476E-05
   3.67500000E+02   5.00000000E-01   5.00000000E-01   1.11321048E+05   4.79482256E+04   4.21229343E-04   2.52268507E-06   2.36007623E-06   0.00000000E+00   2.00602431E+04   1.76167205E+04   6.68425117E+04   3.43154758E+04   1.15210224E+06   6.93780958E-01   4.69554123E+05   9.92499863E-01   4.59129050E+04   4.67739245E+04   3.15514263E-04   3.47617438E+02   2.24635073E+02   4.01448619E-05   4.56885982E-05   2.36309052E-05
   4.02500000E+02   5.00000000E-01   5.00000000E-01   1.11321050E+05   4.79998555E+04   4.21229876E-04   2.52908657E-06   2.37021171E-06   0.00000000E+00   2.00602435E+04   1.76167055E+04   6.68425136E+04   3.39152353E+04   1.14903945E+06   1.08187820E+00   5.40940441E+05   1.05314928E+00   4.59399647E+04   4.67739245E+04   3.28683278E-04   3.47617438E+02   2.24635933E+02   4.01448619E-05   4.56880159E-05   2.36281656E-05
   4.37500000E+02   5.00000000E-01   5.00000000E-01   1.11321051E+05   4.80493954E+04   4.21230442E-04   2.53479077E-06   2.37984036E-06   0.00000000E+00   2.00602439E+04   1.76166900E+04   6.68425162E+04   3.35421296E+04   1.14603448E+06   1.63706256E+00   6.07956446E+05   1.11402152E+00   4.59681783E+04   4.67739245E+04   3.43930429E-04   3.47617438E+02   2.24636843E+02   4.01448619E-05   4.56874179E-05   2.36255128E-05
   4.72500000E+02   5.00000000E-01   5.00000000E-01   1.11321053E+05   4.80970045E+04   4.21231040E-04   2.53838999E-06   2.38781967E-06   0.00000000E+00   2.00602443E+04   1.76166744E+04   6.68425197E+04   3.31945223E+04   1.14309374E+06   2.40457207E+00   6.70834188E+05   1.17533816E+00   4.59966309E+04   4.67739245E+04   3.61657476E-04   3.47617438E+02   2.24637806E+02   4.01448619E-05   4.56868155E-05   2.36229378E-05
   5.07500000E+02   5.00000000E-01   5.00000000E-01   1.11321055E+05   4.81428018E+04   4.21231672E-04   2.53997650E-06   2.39417810E-06   0.00000000E+00   2.00602447E+04   1.76166586E+04   6.68425242E+04   3.28709235E+04   1.14022186E+06   3.43884417E+00   7.29788741E+05   1.23710416E+00   4.60244592E+04   4.67739245E+04   3.82363265E-04   3.47617438E+02   2.24638828E+02   4.01448619E-05   4.56862183E-05   2.36204368E-05
   5.42500000E+02   5.00000000E-01   5.00000000E-01   1.11321058E+05   4.81869704E+04   4.21232339E-04   2.54027234E-06   2.39946058E-06   0.00000000E+00   2.00602451E+04   1.76166428E+04   6.68425302E+04   3.25700426E+04   1.13741066E+06   4.80787620E+00   7.85044471E+05   1.29872200E+00   4.60508830E+04   4.67739245E+04   4.06672784E-04   3.47617438E+02   2.24639911E+02   4.01448619E-05   4.56856338E-05   2.36180089E-05
   5.77500000E+02   5.00000000E-01   5.00000000E-01   1.11321061E+05   4.82297271E+04   4.21233044E-04   2.54026876E-06   2.40445519E-06   0.00000000E+00   2.00602455E+04   1.76166271E+04   6.68425379E+04   3.22907120E+04   1.13464391E+06   6.59231344E+00   8.36831997E+05   1.35890558E+00   4.60752296E+04   4.67739245E+04   4.35376502E-04   3.47617438E+02   2.24641060E+02   4.01448619E-05   4.56850681E-05   2.36156541E-05
   6.12500000E+02   5.00000000E-01   5.00000000E-01   1.11321064E+05   4.82711969E+04   4.21233789E-04   2.54118972E-06   2.41017271E-06   0.00000000E+00   2.00602459E+04   1.76166116E+04   6.68425480E+04   3.20318006E+04   1.13190962E+06   8.88550317E+00   8.85362946E+05   1.41659911E+00   4.60969544E+04   4.67739245E+04   4.69484139E-04   3.47617438E+02   2.24642277E+02   4.01448619E-05   4.56845255E-05   2.36133737E-05
   6.47500000E+02   5.00000000E-01   5.00000000E-01   1.11321067E+05   4.83113451E+04   4.21234576E-04   2.54456108E-06   2.41791226E-06   0.00000000E+00   2.00602463E+04   1.76165963E+04   6.68425609E+04   3.17921546E+04   1.12920596E+06   1.17839805E+01   9.30820388E+05   1.47201388E+00   4.61156647E+04   4.67739245E+04   5.10298973E-04   3.47617438E+02   2.24643575E+02   4.01448619E-05   4.56840093E-05   2.36111694E-05
   6.82500000E+02   5.00000000E-01   5.00000000E-01   1.11321072E+05   4.83500823E+04   4.21235410E-04   2.55229798E-06   2.42934450E-06   0.00000000E+00   2.00602467E+04   1.76165813E+04   6.68425777E+04   3.15706520E+04   1.12653294E+06   1.53891941E+01   9.73376726E+05   1.52626242E+00   4.61311289E+04   4.67739245E+04   5.59521906E-04   3.47617438E+02   2.24644970E+02   4.01448619E-05   4.56835217E-05   2.36090432E-05
   7.17500000E+02   5.00000000E-01   5.00000000E-01   1.11321077E+05   4.83874489E+04   4.21236295E-04   2.56680247E-06   2.44660576E-06   0.00000000E+00   2.00602471E+04   1.76165665E+04   6.68425995E+04   3.13663249E+04   1.12387505E+06   1.98364081E+01   1.01322912E+06   1.58012946E+00   4.61432505E+04   4.67739245E+04   6.19399195E-04   3.47617438E+02   2.24646484E+02   4.01448619E-05   4.56830639E-05   2.36069964E-05
   7.52500000E+02   5.00000000E-01   5.00000000E-01   1.11321082E+05   4.84235743E+04   4.21237235E-04   2.59118036E-06   2.47249645E-06   0.00000000E+00   2.00602474E+04   1.76165520E+04   6.68426277E+04   3.11783212E+04   1.12120853E+06   2.52849362E+01   1.05058250E+06   1.63388181E+00   4.61520499E+04   4.67739245E+04   6.92934941E-04   3.47617438E+02   2.24648136E+02   4.01448619E-05   4.56826367E-05   2.36050292E-05
   7.87500000E+02   5.00000000E-01   5.00000000E-01   1.11321089E+05   4.84586238E+04   4.21238239E-04   2.62956273E-06   2.51077549E-06   0.00000000E+00   2.00602478E+04   1.76165378E+04   6.68426643E+04   3.10058974E+04   1.11850761E+06   3.19397220E+01   1.08563116E+06   1.68760884E+00   4.61576305E+04   4.67739245E+04   7.84201131E-04   3.47617438E+02   2.24649956E+02   4.01448619E-05   4.56822400E-05   2.36031408E-05
   8.22500000E+02   5.00000000E-01   5.00000000E-01   1.11321097E+05   4.84927812E+04   4.21239314E-04   2.68763491E-06   2.56664291E-06   0.00000000E+00   2.00602481E+04   1.76165239E+04   6.68427120E+04   3.08484188E+04   1.11574727E+06   4.00509751E+01   1.11854982E+06   1.74123654E+00   4.61601547E+04   4.67739245E+04   8.98797145E-04   3.47617437E+02   2.24651975E+02   4.01448619E-05   4.56818732E-05   2.36013293E-05
   8.57500000E+02   5.00000000E-01   5.00000000E-01   1.11321107E+05   4.85262618E+04   4.21240473E-04   2.77346799E-06   2.64749868E-06   0.00000000E+00   2.00602484E+04   1.76165102E+04   6.68427742E+04   3.07053954E+04   1.11290232E+06   4.99463199E+01   1.14949081E+06   1.79449692E+00   4.61598116E+04   4.67739245E+04   1.04454216E-03   3.47617437E+02   2.24654239E+02   4.01448619E-05   4.56815355E-05   2.35995924E-05
   8.92500000E+02   5.00000000E-01   5.00000000E-01   1.11321120E+05   4.85592935E+04   4.21241729E-04   2.89889337E-06   2.76419555E-06   0.00000000E+00   2.00602487E+04   1.76164968E+04   6.68428559E+04   3.05765095E+04   1.10994917E+06   6.20346400E+01   1.17857425E+06   1.84684655E+00   4.61568028E+04   4.67739245E+04   1.23253692E-03   3.47617437E+02   2.24656802E+02   4.01448619E-05   4.56812255E-05   2.35979267E-05
   9.27500000E+02   5.00000000E-01   5.00000000E-01   1.11321135E+05   4.85921115E+04   4.21243102E-04   3.08177053E-06   2.93310469E-06   0.00000000E+00   2.00602490E+04   1.76164837E+04   6.68429638E+04   3.04616777E+04   1.10686498E+06   7.68694384E+01   1.20588068E+06   1.89753263E+00   4.61513146E+04   4.67739245E+04   1.47882287E-03   3.47617437E+02   2.24659741E+02   4.01448619E-05   4.56809419E-05   2.35963286E-05
   9.62500000E+02   5.00000000E-01   5.00000000E-01   1.11321155E+05   4.86249527E+04   4.21244616E-04   3.34986384E-06   3.17964268E-06   0.00000000E+00   2.00602492E+04   1.76164708E+04   6.68431074E+04   3.03611220E+04   1.10362598E+06   9.51884220E+01   1.23144494E+06   1.94573303E+00   4.61435052E+04   4.67739245E+04   1.80702737E-03   3.47617436E+02   2.24663164E+02   4.01448619E-05   4.56806828E-05   2.35947943E-05
   9.97500000E+02   5.00000000E-01   5.00000000E-01   1.11321182E+05   4.86580299E+04   4.21246303E-04   3.74759233E-06   3.54440730E-06   0.00000000E+00   2.00602495E+04   1.76164581E+04   6.68433011E+04   3.02754682E+04   1.10020611E+06   1.17911361E+02   1.25524530E+06   1.99082157E+00   4.61335167E+04   4.67739245E+04   2.25267251E-03   3.47617435E+02   2.24667231E+02   4.01448619E-05   4.56804467E-05   2.35933192E-05
   1.03250000E+03   5.00000000E-01   5.00000000E-01   1.11321217E+05   4.86914754E+04   4.21248200E-04   4.34788353E-06   4.09395661E-06   0.00000000E+00   2.00602497E+04   1.76164456E+04   6.68435670E+04   3.02059413E+04   1.09657646E+06   1.46196766E+02   1.27717426E+06   2.03279090E+00   4.61214786E+04   4.67739245E+04   2.87035639E-03   3.47617434E+02   2.24672192E+02   4.01448619E-05   4.56802316E-05   2.35918991E-05
   1.06750000E+03   5.00000000E-01   5.00000000E-01   1.11321266E+05   4.87253445E+04   4.21250359E-04   5.27293175E-06   4.93972680E-06   0.00000000E+00   2.00602499E+04   1.76164332E+04   6.68439414E+04   3.01547905E+04   1.09269371E+06   1.81594183E+02   1.29700788E+06   2.07200540E+00   4.61074928E+04   4.67739245E+04   3.74602049E-03   3.47617433E+02   2.24678461E+02   4.01448619E-05   4.56800357E-05   2.35905289E-05
   1.10250000E+03   5.00000000E-01   5.00000000E-01   1.11321334E+05   4.87595547E+04   4.21252839E-04   6.72920109E-06   6.27012333E-06   0.00000000E+00   2.00602500E+04   1.76164209E+04   6.68444891E+04   3.01261367E+04   1.08848576E+06   2.26334418E+02   1.31431722E+06   2.10874422E+00   4.60915971E+04   4.67739245E+04   5.01846396E-03   3.47617431E+02   2.24686769E+02   4.01448619E-05   4.56798569E-05   2.35892032E-05
   1.13750000E+03   5.00000000E-01   5.00000000E-01   1.11321331E+05   4.80523692E+04   4.21250739E-04   7.93106853E-06   7.39628799E-06   1.11371386E+07   2.00602408E+04   1.76161764E+04   6.68454710E+04   2.92595802E+04   5.53444471E+05   1.12991865E+03   2.64194991E+06   2.74317539E+00   4.56483881E+04   4.67739245E+04   6.90693155E-03   3.47617430E+02   2.24702257E+02   4.01448619E-05   4.56796805E-05   2.35762509E-05
   1.17250000E+03   5.00000000E-01   5.00000000E-01   1.11321454E+05   4.83907709E+04   4.21254889E-04   1.13173179E-05   1.05025064E-05   0.00000000E+00   2.00602416E+04   1.76162269E+04   6.68468681E+04   2.94482340E+04   1.13328042E+06   4.38221282E+02   1.27660894E+06   2.37782398E+00   4.56476490E+04   4.67739245E+04   9.81311889E-03   3.47617428E+02   2.24719530E+02   4.01448619E-05   4.56795877E-05   2.35768068E-05
   1.20750000E+03   5.00000000E-01   5.00000000E-01   1.11321617E+05   4.86868952E+04   4.21259139E-04   1.65830160E-05   1.53499774E-05   0.00000000E+00   2.00602421E+04   1.76162583E+04   6.68499090E+04   2.96875208E+04   1.10194240E+06   5.14801279E+02   1.33741581E+06   2.34075079E+00   4.56473898E+04   4.67739245E+04   1.44384269E-02   3.47617426E+02   2.24755879E+02   4.01448619E-05   4.56794630E-05   2.35768331E-05
   1.24250000E+03   5.00000000E-01   5.00000000E-01   1.11321824E+05   4.88426604E+04   4.21263923E-04   2.38649279E-05   2.21107597E-05   0.00000000E+00   2.00602425E+04   1.76162678E+04   6.68602700E+04   3.01254124E+04   1.07764612E+06   6.86076666E+02   1.34425990E+06   2.34495663E+00   4.56473500E+04   4.67739245E+04   2.20562221E-02   3.47617424E+02   2.24870371E+02   4.01448619E-05   4.56793137E-05   2.35765120E-05
   1.27750000E+03   5.00000000E-01   5.00000000E-01   1.11322070E+05   4.88377914E+04   4.21269512E-04   3.14073901E-05   2.92517907E-05   0.00000000E+00   2.00602426E+04   1.76162572E+04   6.69714382E+04   3.14074361E+04   1.05728924E+06   1.11024502E+03   1.19904121E+06   2.36331151E+00   4.56475687E+04   4.67739245E+04   3.50628797E-02   3.47617422E+02   2.25838571E+02   4.01448619E-05   4.56791377E-05   2.35759002E-05
   1.31250000E+03   5.00000000E-01   5.00000000E-01   1.11322341E+05   4.87969174E+04   4.21276908E-04   3.51207086E-05   3.30257935E-05   0.00000000E+00   2.00602428E+04   1.76162407E+04   6.85067522E+04   3.31927753E+04   1.04184065E+06   1.25639722E+03   8.54854902E+05   2.31694165E+00   4.56562793E+04   4.67739245E+04   5.80673892E-02   3.47617419E+02   2.33166103E+02   4.01448619E-05   4.56789734E-05   2.35752656E-05
   1.34750000E+03   5.00000000E-01   5.00000000E-01   1.11322626E+05   4.88062253E+04   4.21288517E-04   3.28919686E-05   3.13216384E-05   0.00000000E+00   2.00602431E+04   1.76162272E+04   7.11792201E+04   3.34883537E+04   1.01540894E+06   8.05533963E+02   6.95268831E+05   2.22031707E+00   4.61436970E+04   4.67739245E+04   1.00116178E-01   3.47617417E+02   2.39317851E+02   4.01448619E-05   4.56788511E-05   2.35747248E-05
   1.38250000E+03   5.00000000E-01   5.00000000E-01   1.11322900E+05   4.85998735E+04   4.21301732E-04   2.71954822E-05   2.62460857E-05   1.74877034E+06   2.00602421E+04   1.76161710E+04   7.36233637E+04   3.31935346E+04   9.02416838E+05   1.75381875E+03   8.32492314E+05   2.37264770E+00   4.70436827E+04   4.67739245E+04   1.79957922E-01   3.47617415E+02   2.41377031E+02   4.01448619E-05   4.56787549E-05   2.35729238E-05
   1.41750000E+03   5.00000000E-01   5.00000000E-01   1.11323203E+05   4.86770365E+04   4.21319287E-04   2.15913276E-05   2.10936231E-05   6.29305509E+03   2.00602423E+04   1.76161645E+04   7.58471311E+04   3.30521002E+04   9.59464990E+05   1.80691864E+03   5.85321247E+05   2.27390714E+00   4.78696459E+04   4.67739245E+04   3.38969318E-01   3.47617413E+02   2.41939958E+02   4.01448619E-05   4.56786844E-05   2.35724490E-05
   1.45250000E+03   5.00000000E-01   5.00000000E-01   1.11323521E+05   4.87061950E+04   4.21340597E-04   1.71286142E-05   1.69074611E-05   1.97672247E-05   2.00602424E+04   1.76161515E+04   7.79535229E+04   3.29380786E+04   9.26361805E+05   2.53028381E+03   5.46692256E+05   2.24853862E+00   4.86402353E+04   4.67739245E+04   6.71165728E-01   3.47617411E+02   2.41919444E+02   4.01448619E-05   4.56786226E-05   2.35718882E-05
   1.48750000E+03   5.00000000E-01   5.00000000E-01   1.11323857E+05   4.87052888E+04   4.21366857E-04   1.37723770E-05   1.37093098E-05   1.32189729E-17   2.00602424E+04   1.76161352E+04   8.00108709E+04   3.28245109E+04   8.96750621E+05   3.62044973E+03   4.98093931E+05   2.23814417E+00   4.93777485E+04   4.67739245E+04   1.40127651E+00   3.47617409E+02   2.41604789E+02   4.01448619E-05   4.56785703E-05   2.35712925E-05
   1.52250000E+03   5.00000000E-01   5.00000000E-01   1.11324208E+05   4.86920271E+04   4.21399431E-04   1.12449313E-05   1.12686144E-05   1.03084791E-30   2.00602424E+04   1.76161180E+04   8.20492828E+04   3.27039634E+04   8.69212674E+05   5.27545171E+03   4.41845192E+05   2.23794998E+00   5.00922993E+04   4.67739245E+04   3.09482963E+00   3.47617409E+02   2.41117569E+02   4.01448619E-05   4.56785268E-05   2.35706978E-05
   1.55750000E+03   5.00000000E-01   5.00000000E-01   1.11324574E+05   4.86775487E+04   4.21440024E-04   9.31763756E-06   9.38602661E-06   3.35601167E-42   2.00602424E+04   1.76161011E+04   8.40690583E+04   3.25866489E+04   8.42413597E+05   8.20709095E+03   3.75896455E+05   2.24960532E+00   5.07842963E+04   4.67739245E+04   7.25500656E+00   3.47617410E+02   2.40498415E+02   4.01448619E-05   4.56784907E-05   2.35701330E-05
   1.59250000E+03   5.00000000E-01   5.00000000E-01   1.11324954E+05   4.86718091E+04   4.21490817E-04   7.82989453E-06   7.91847026E-06   5.02607283E-50   2.00602424E+04   1.76160862E+04   8.60700640E+04   3.24875682E+04   8.15003498E+05   1.41024158E+04   2.91187861E+05   2.26605095E+00   5.14549070E+04   4.67739245E+04   1.81155883E+01   3.47617411E+02   2.39801998E+02   4.01448619E-05   4.56784608E-05   2.35696325E-05
   1.62750000E+03   5.00000000E-01   5.00000000E-01   1.11325344E+05   4.86779891E+04   4.21554553E-04   6.67060601E-06   6.76539460E-06   3.37060232E-54   2.00602426E+04   1.76160738E+04   8.80638095E+04   3.24168426E+04   7.86602061E+05   2.27202770E+04   1.88051860E+05   2.25002255E+00   5.21065477E+04   4.67739245E+04   4.83487682E+01   3.47617413E+02   2.39081878E+02   4.01448619E-05   4.56784357E-05   2.35692170E-05
   1.66250000E+03   5.00000000E-01   5.00000000E-01   1.11325743E+05   4.86761444E+04   4.21634576E-04   5.76366534E-06   5.85705480E-06   1.19737455E-56   2.00602428E+04   1.76160621E+04   9.00611987E+04   3.23914047E+04   7.59712022E+05   2.86398494E+04   9.04607194E+04   2.19023729E+00   5.27391661E+04   4.67739246E+04   1.38329337E+02   3.47617415E+02   2.38375232E+02   4.01448619E-05   4.56784138E-05   2.35688534E-05
   1.69750000E+03   5.00000000E-01   5.00000000E-01   1.11326151E+05   4.86428548E+04   4.21735099E-04   5.05742428E-06   5.14565268E-06   1.94114481E-59   2.00602430E+04   1.76160478E+04   9.21160205E+04   3.24106613E+04   7.36601050E+05   2.62800100E+04   2.36797382E+04   2.10780620E+00   5.33574121E+04   4.67739246E+04   4.24739113E+02   3.47617417E+02   2.37765760E+02   4.01448619E-05   4.56783944E-05   2.35684705E-05
   1.73250000E+03   5.00000000E-01   5.00000000E-01   1.11326572E+05   4.85883689E+04   4.21861858E-04   4.51346287E-06   4.59510113E-06   5.19716702E-62   2.00602432E+04   1.76160313E+04   9.42489824E+04   3.22855194E+04   7.15542555E+05   1.87743087E+04   4.16705340E+02   1.92195587E+00   5.39708509E+04   4.67739246E+04   1.39337571E+03   3.47617420E+02   2.37206803E+02   4.01448619E-05   4.56783773E-05   2.35680512E-05
   1.76750000E+03   5.00000000E-01   5.00000000E-01   1.11327009E+05   4.85292932E+04   4.22021219E-04   4.09591303E-06   4.17078450E-06   6.71214545E-65   2.00602435E+04   1.76160133E+04   9.65922204E+04   3.19775931E+04   6.94014696E+05   9.92205267E+03   1.00667708E+00   1.69983071E+00   5.46891451E+04   4.67739247E+04   4.76150458E+03   3.47617422E+02   2.36733507E+02   4.01448619E-05   4.56783636E-05   2.35675984E-05
   1.80250000E+03   5.00000000E-01   5.00000000E-01   1.11327462E+05   4.84662750E+04   4.22220931E-04   3.76950015E-06   3.83789672E-06   8.74734008E-68   2.00602438E+04   1.76159948E+04   9.91480008E+04   3.15225616E+04   6.72340224E+05   2.14918838E+03   6.58042795E-04   1.44188030E+00   5.54585992E+04   4.67739247E+04   1.55282999E+04   3.47617424E+02   2.36239440E+02   4.01448619E-05   4.56783525E-05   2.35671501E-05
   1.83750000E+03   5.00000000E-01   5.00000000E-01   1.11327933E+05   4.84050589E+04   4.22471228E-04   3.50361784E-06   3.56583879E-06   3.18214364E-68   2.00602442E+04   1.76159786E+04   1.01653302E+05   3.08611959E+04   6.50365302E+05   1.48553950E+00   2.67412004E-08   1.00330902E+00   5.61943906E+04   4.67739248E+04   4.02516618E+04   3.47617426E+02   2.35544623E+02   4.01448619E-05   4.56783427E-05   2.35667797E-05
   1.87250000E+03   5.00000000E-01   5.00000000E-01   1.11328417E+05   4.83427486E+04   4.22783690E-04   3.27508124E-06   3.33119513E-06   7.50006976E-68   2.00602447E+04   1.76159644E+04   1.03975059E+05   3.01768733E+04   6.29411601E+05   5.24473094E-02   8.22575752E-11   8.18776645E-01   5.69403121E+04   4.67739249E+04   7.25577254E+04   3.47617427E+02   2.34664225E+02   4.01448619E-05   4.56783349E-05   2.35664839E-05
   1.90750000E+03   5.00000000E-01   5.00000000E-01   1.11328895E+05   4.83224225E+04   4.23171637E-04   3.06920649E-06   3.11901982E-06   1.21541953E-69   2.00602450E+04   1.76159535E+04   1.06190593E+05   2.95144919E+04   6.09871824E+05   4.12701836E-02   1.62747717E-11   7.81972435E-01   5.77444595E+04   4.67739250E+04   9.62560411E+04   3.47617429E+02   2.33719833E+02   4.01448619E-05   4.56783309E-05   2.35662249E-05
   1.94250000E+03   5.00000000E-01   5.00000000E-01   1.11329362E+05   4.83209092E+04   4.23653093E-04   2.87997805E-06   2.92322989E-06   1.66693964E-71   2.00602453E+04   1.76159453E+04   1.07942054E+05   2.89314745E+04   5.97371769E+05   3.81969349E-02   8.28338277E-12   7.62488279E-01   5.82817823E+04   4.67739252E+04   1.06589008E+05   3.47617430E+02   2.32647504E+02   4.01448619E-05   4.56783286E-05   2.35660250E-05
   1.97750000E+03   5.00000000E-01   5.00000000E-01   1.11329820E+05   4.83212500E+04   4.24250059E-04   2.70654622E-06   2.74307299E-06   2.25425251E-72   2.00602456E+04   1.76159390E+04   1.09099420E+05   2.85201182E+04   5.90428937E+05   3.59050765E-02   5.63928185E-12   7.48403948E-01   5.85756762E+04   4.67739254E+04   1.07724051E+05   3.47617430E+02   2.31594176E+02   4.01448619E-05   4.56783269E-05   2.35658812E-05
   2.01250000E+03   5.00000000E-01   5.00000000E-01   1.11330266E+05   4.83219915E+04   4.24988900E-04   2.55017839E-06   2.58000449E-06   1.21686161E-72   2.00602460E+04   1.76159341E+04   1.09879792E+05   2.82453374E+04   5.85638931E+05   3.39512851E-02   4.33274372E-12   7.38367199E-01   5.87740116E+04   4.67739256E+04   1.04247212E+05   3.47617431E+02   2.30680500E+02   4.01448619E-05   4.56783255E-05   2.35657736E-05
   2.04750000E+03   5.00000000E-01   5.00000000E-01   1.11330701E+05   4.83229056E+04   4.25901629E-04   2.41267339E-06   2.43606327E-06   1.35029486E-72   2.00602464E+04   1.76159301E+04   1.10442759E+05   2.80540532E+04   5.81850234E+05   3.21099404E-02   3.51322543E-12   7.31732175E-01   5.89275677E+04   4.67739259E+04   9.89104948E+04   3.47617431E+02   2.29912203E+02   4.01448619E-05   4.56783244E-05   2.35656879E-05
   2.08250000E+03   5.00000000E-01   5.00000000E-01   1.11331128E+05   4.83239238E+04   4.27027038E-04   2.29515270E-06   2.31259928E-06   2.16800205E-72   2.00602469E+04   1.76159267E+04   1.10874315E+05   2.79135726E+04   5.78646214E+05   3.02641522E-02   2.91722494E-12   7.28029305E-01   5.90546330E+04   4.67739263E+04   9.30412093E+04   3.47617432E+02   2.29265929E+02   4.01448619E-05   4.56783234E-05   2.35656156E-05
   2.11750000E+03   5.00000000E-01   5.00000000E-01   1.11331550E+05   4.83250484E+04   4.28412027E-04   2.19751541E-06   2.20967980E-06   4.19216496E-72   2.00602473E+04   1.76159237E+04   1.11221710E+05   2.78054017E+04   5.75825161E+05   2.83989393E-02   2.43556337E-12   7.26644733E-01   5.91639534E+04   4.67739268E+04   8.72033216E+04   3.47617432E+02   2.28718149E+02   4.01448619E-05   4.56783225E-05   2.35655519E-05
   2.15250000E+03   5.00000000E-01   5.00000000E-01   1.11331974E+05   4.83263287E+04   4.30113235E-04   2.11843653E-06   2.12606502E-06   8.88134011E-72   2.00602478E+04   1.76159211E+04   1.11512783E+05   2.77185441E+04   5.73273659E+05   2.66001427E-02   2.01299836E-12   7.26535476E-01   5.92603278E+04   4.67739275E+04   8.16043312E+04   3.47617432E+02   2.28250059E+02   4.01448619E-05   4.56783217E-05   2.35654939E-05
   2.18750000E+03   5.00000000E-01   5.00000000E-01   1.11332408E+05   4.83278261E+04   4.32199005E-04   2.05571128E-06   2.05955582E-06   1.96776636E-71   2.00602483E+04   1.76159186E+04   1.11765323E+05   2.76459133E+04   5.70922366E+05   2.50214989E-02   1.62388438E-12   7.26192059E-01   5.93466585E+04   4.67739283E+04   7.63053044E+04   3.47617432E+02   2.27847250E+02   4.01448619E-05   4.56783210E-05   2.35654398E-05
   2.22250000E+03   5.00000000E-01   5.00000000E-01   1.11332860E+05   4.83295329E+04   4.34751799E-04   2.00672229E-06   2.00748161E-06   4.45366819E-71   2.00602489E+04   1.76159163E+04   1.11991062E+05   2.75828171E+04   5.68726687E+05   2.37638076E-02   1.26902516E-12   7.24211090E-01   5.94250152E+04   4.67739294E+04   7.13160710E+04   3.47617432E+02   2.27498613E+02   4.01448619E-05   4.56783203E-05   2.35653889E-05
   2.25750000E+03   5.00000000E-01   5.00000000E-01   1.11333337E+05   4.83313158E+04   4.37871131E-04   1.96883991E-06   1.96712583E-06   1.01921973E-70   2.00602494E+04   1.76159141E+04   1.12196512E+05   2.75265552E+04   5.66666818E+05   2.27470050E-02   9.64778308E-13   7.20169651E-01   5.94967128E+04   4.67739307E+04   6.66193208E+04   3.47617432E+02   2.27195353E+02   4.01448619E-05   4.56783197E-05   2.35653406E-05
   2.29250000E+03   5.00000000E-01   5.00000000E-01   1.11333849E+05   4.83329961E+04   4.41677170E-04   1.93969388E-06   1.93602010E-06   2.36559210E-70   2.00602500E+04   1.76159120E+04   1.12384122E+05   2.74759411E+04   5.64744264E+05   2.17730057E-02   7.21733655E-13   7.14645595E-01   5.95621824E+04   4.67739323E+04   6.21891103E+04   3.47617432E+02   2.26930360E+02   4.01448619E-05   4.56783191E-05   2.35652946E-05
   2.32750000E+03   5.00000000E-01   5.00000000E-01   1.11334404E+05   4.83344688E+04   4.46315181E-04   1.91728991E-06   1.91207535E-06   5.62493019E-70   2.00602506E+04   1.76159100E+04   1.12555009E+05   2.74304415E+04   5.62959449E+05   2.06926622E-02   5.36498079E-13   7.08416646E-01   5.96216654E+04   4.67739343E+04   5.80195345E+04   3.47617431E+02   2.26697904E+02   4.01448619E-05   4.56783186E-05   2.35652509E-05
   2.36250000E+03   5.00000000E-01   5.00000000E-01   1.11335010E+05   4.83357009E+04   4.51960979E-04   1.90003148E-06   1.89361145E-06   1.38349020E-69   2.00602512E+04   1.76159080E+04   1.12710567E+05   2.73896229E+04   5.61301252E+05   1.94531677E-02   3.98251113E-13   7.01965359E-01   5.96756938E+04   4.67739368E+04   5.41138805E+04   3.47617430E+02   2.26493366E+02   4.01448619E-05   4.56783181E-05   2.35652093E-05
   2.39750000E+03   5.00000000E-01   5.00000000E-01   1.11335676E+05   4.83366713E+04   4.58827710E-04   1.88667837E-06   1.87931829E-06   3.54550007E-69   2.00602519E+04   1.76159061E+04   1.12852584E+05   2.73529998E+04   5.59751594E+05   1.80514181E-02   2.95627884E-13   6.95489044E-01   5.97250214E+04   4.67739399E+04   5.04434055E+04   3.47617429E+02   2.26312971E+02   4.01448619E-05   4.56783176E-05   2.35651697E-05