 TITLE = "Mineral Area" 
VARIABLES = "X"          "Y"              "Z"            "Forsterite"     "Fayalite"       "Brucite"        "Lizardite"      "Chrysotile"     "Hematite"       "Magnetite(am)"  "Saponite(Ca)"   "Saponite(K)"    "Saponite(Mg)"   "Saponite(Na)"   "Beidellite(Ca)" "Beidellite(K)"  "Beidellite(Mg)" "Beidellite(Na)" "Enstatite(alph" "Ferrosilite(al" "Anorthite"      "Albite(low)"    "Clinochlore"    "Sudoite"        "Montmor(MgCa)"  "Montmor(MgK)"   "Montmor(MgMg)"  "Montmor(MgNa)"  "Kaolinite"      "Tremolite"      "Pargasite"      "Anhydrite"      "Epidote"        "Scolecite"      "Pyrite"         "FeS(am)"        "Quartz(alpha)" 
 ZONE I=         200 , J=           1 , K=           1  F=POINT
   8.75000000E+00   5.00000000E-01   5.00000000E-01   1.31154176E+05   4.79342864E+04   0.00000000E+00   0.00000000E+00   0.00000000E+00   6.08020117E+03   0.00000000E+00   3.71415959E-02   9.58069295E+04   5.21614340E-02   1.24120584E+04   3.65481449E-02   3.81095848E-02   3.73988861E-02   3.70914347E-02   2.00601232E+04   1.76156642E+04   1.16058250E+05   2.95839886E+04   3.99655040E+05   4.24470391E-03   8.06830895E-03   8.26472200E-03   8.25298689E-03   8.18816561E-03   3.42574677E+04   4.52293101E+04   4.63165719E+04   0.00000000E+00   2.86289163E+03   1.94615974E-05   6.95588094E-05   6.83330769E-05   2.35913707E-05
   2.62500000E+01   5.00000000E-01   5.00000000E-01   1.31154176E+05   4.79360747E+04   0.00000000E+00   0.00000000E+00   0.00000000E+00   6.08020113E+03   0.00000000E+00   3.72047921E-02   4.73757099E+05   5.60665360E-02   6.37552865E+04   3.65481531E-02   3.81095964E-02   3.73989241E-02   3.70915340E-02   2.00601221E+04   1.76156960E+04   1.16058250E+05   2.96449150E+04   3.90995029E+05   3.37265142E-03   8.06834574E-03   8.26561431E-03   8.25314512E-03   8.18879775E-03   3.42574716E+04   4.52516908E+04   4.63165719E+04   0.00000000E+00   2.86289163E+03   1.94616078E-05   6.95588094E-05   6.83331260E-05   2.36051342E-05
   4.37500000E+01   5.00000000E-01   5.00000000E-01   1.31154176E+05   4.79375383E+04   0.00000000E+00   0.00000000E+00   0.00000000E+00   6.08020113E+03   0.00000000E+00   3.72302260E-02   5.70066760E+05   5.76604311E-02   8.69567427E+04   3.65482582E-02   3.81097384E-02   3.73994118E-02   3.70927762E-02   2.00601215E+04   1.76157196E+04   1.16058250E+05   2.98298349E+04   3.80349338E+05   2.26437931E-03   8.06861798E-03   8.27186962E-03   8.25431492E-03   8.19333807E-03   3.42574980E+04   4.52621823E+04   4.63165719E+04   0.00000000E+00   2.86289163E+03   1.94616690E-05   6.95588094E-05   6.83331469E-05   2.36164780E-05
   6.12500000E+01   5.00000000E-01   5.00000000E-01   1.31154176E+05   4.79391349E+04   0.00000000E+00   0.00000000E+00   0.00000000E+00   6.08020113E+03   0.00000000E+00   3.72552227E-02   6.95742404E+05   5.93184038E-02   1.21721622E+05   3.65485627E-02   3.81101259E-02   3.74008224E-02   3.70962605E-02   2.00601214E+04   1.76157439E+04   1.16058250E+05   3.00883599E+04   3.65552496E+05   1.29170168E-03   8.06923770E-03   8.28520135E-03   8.25697499E-03   8.20330650E-03   3.42575469E+04   4.52705484E+04   4.63165719E+04   0.00000000E+00   2.86289163E+03   1.94617811E-05   6.95588094E-05   6.83331636E-05   2.36252851E-05
   7.87500000E+01   5.00000000E-01   5.00000000E-01   1.31154176E+05   4.79410212E+04   0.00000000E+00   0.00000000E+00   0.00000000E+00   6.08020112E+03   0.00000000E+00   3.72879047E-02   8.50699444E+05   6.15046841E-02   1.71878241E+05   3.65490515E-02   3.81107069E-02   3.74030826E-02   3.71016507E-02   2.00601214E+04   1.76157689E+04   1.16058250E+05   3.03487849E+04   3.50076528E+05   7.40134472E-04   8.07009073E-03   8.30219821E-03   8.26063264E-03   8.21646750E-03   3.42576057E+04   4.52846079E+04   4.63165719E+04   0.00000000E+00   2.86289163E+03   1.94619156E-05   6.95588094E-05   6.83331779E-05   2.36316219E-05
   9.62500000E+01   5.00000000E-01   5.00000000E-01   1.31154176E+05   4.79432498E+04   0.00000000E+00   0.00000000E+00   0.00000000E+00   6.08020111E+03   0.00000000E+00   3.73254769E-02   9.79042901E+05   6.40644779E-02   2.29791483E+05   3.65496402E-02   3.81113546E-02   3.74057997E-02   3.71078780E-02   2.00601215E+04   1.76157944E+04   1.16058250E+05   3.05703720E+04   3.36752671E+05   4.91722892E-04   8.07100691E-03   8.31887452E-03   8.26455668E-03   8.22993202E-03   3.42576642E+04   4.53022569E+04   4.63165719E+04   0.00000000E+00   2.86289163E+03   1.94620495E-05   6.95588094E-05   6.83331902E-05   2.36359295E-05
   1.13750000E+02   5.00000000E-01   5.00000000E-01   1.31154176E+05   4.79458286E+04   0.00000000E+00   0.00000000E+00   0.00000000E+00   6.08020110E+03   0.00000000E+00   3.73641972E-02   1.05636299E+06   6.67703241E-02   2.88678008E+05   3.65502182E-02   3.81119325E-02   3.74084618E-02   3.71136900E-02   2.00601216E+04   1.76158202E+04   1.16058250E+05   3.07359583E+04   3.26832156E+05   3.82053549E-04   8.07183987E-03   8.33237851E-03   8.26811950E-03   8.24144917E-03   3.42577132E+04   4.53213284E+04   4.63165719E+04   0.00000000E+00   2.86289163E+03   1.94621650E-05   6.95588094E-05   6.83332007E-05   2.36387615E-05
   1.31250000E+02   5.00000000E-01   5.00000000E-01   1.31154176E+05   4.79487716E+04   0.00000000E+00   0.00000000E+00   0.00000000E+00   6.08020109E+03   0.00000000E+00   3.74025132E-02   1.08366934E+06   6.95235791E-02   3.44880533E+05   3.65507053E-02   3.81123598E-02   3.74106988E-02   3.71182684E-02   2.00601219E+04   1.76158465E+04   1.16058250E+05   3.08462604E+04   3.20315011E+05   3.31253969E-04   8.07251279E-03   8.34164375E-03   8.27099269E-03   8.25001430E-03   3.42577483E+04   4.53405313E+04   4.63165719E+04   0.00000000E+00   2.86289163E+03   1.94622532E-05   6.95588094E-05   6.83332097E-05   2.36406050E-05
   1.48750000E+02   5.00000000E-01   5.00000000E-01   1.31154176E+05   4.79521081E+04   0.00000000E+00   0.00000000E+00   0.00000000E+00   6.08020109E+03   0.00000000E+00   3.74403849E-02   1.07158798E+06   7.23248833E-02   3.96955991E+05   3.65510703E-02   3.81126211E-02   3.74123689E-02   3.71213759E-02   2.00601221E+04   1.76158735E+04   1.16058250E+05   3.09110766E+04   3.16600432E+05   3.06609021E-04   8.07301305E-03   8.34694857E-03   8.27312356E-03   8.25565053E-03   3.42577692E+04   4.53592007E+04   4.63165719E+04   0.00000000E+00   2.86289163E+03   1.94623135E-05   6.95588094E-05   6.83332172E-05   2.36418233E-05
   1.66250000E+02   5.00000000E-01   5.00000000E-01   1.31154176E+05   4.79558588E+04   0.00000000E+00   0.00000000E+00   0.00000000E+00   6.08020108E+03   0.00000000E+00   3.74780505E-02   1.03349336E+06   7.51935671E-02   4.44864924E+05   3.65513236E-02   3.81127459E-02   3.74135220E-02   3.71232149E-02   2.00601224E+04   1.76159012E+04   1.16058250E+05   3.09431464E+04   3.14888727E+05   2.94245011E-04   8.07336961E-03   8.34925791E-03   8.27463729E-03   8.25896949E-03   3.42577787E+04   4.53769656E+04   4.63165719E+04   0.00000000E+00   2.86289163E+03   1.94623511E-05   6.95588094E-05   6.83332233E-05   2.36426558E-05
   1.83750000E+02   5.00000000E-01   5.00000000E-01   1.31154176E+05   4.79600120E+04   0.00000000E+00   0.00000000E+00   0.00000000E+00   6.08020107E+03   0.00000000E+00   3.75154096E-02   9.81432751E+05   7.81203895E-02   4.89358805E+05   3.65514981E-02   3.81127813E-02   3.74143102E-02   3.71241898E-02   2.00601227E+04   1.76159295E+04   1.16058250E+05   3.09544855E+04   3.14422611E+05   2.87901720E-04   8.07362877E-03   8.34968174E-03   8.27573303E-03   8.26076830E-03   3.42577807E+04   4.53935967E+04   4.63165719E+04   0.00000000E+00   2.86289163E+03   1.94623732E-05   6.95588094E-05   6.83332277E-05   2.36432412E-05
   2.01250000E+02   5.00000000E-01   5.00000000E-01   1.31154176E+05   4.79645567E+04   0.00000000E+00   0.00000000E+00   0.00000000E+00   6.08020107E+03   0.00000000E+00   3.75526667E-02   9.21551444E+05   8.11164205E-02   5.30469569E+05   3.65516165E-02   3.81127586E-02   3.74148394E-02   3.71245754E-02   2.00601231E+04   1.76159581E+04   1.16058250E+05   3.09526664E+04   3.14749548E+05   2.84573513E-04   8.07382183E-03   8.34893322E-03   8.27654528E-03   8.26157176E-03   3.42577778E+04   4.54092394E+04   4.63165719E+04   0.00000000E+00   2.86289163E+03   1.94623848E-05   6.95588094E-05   6.83332306E-05   2.36436647E-05
   2.18750000E+02   5.00000000E-01   5.00000000E-01   1.31154176E+05   4.79694883E+04   0.00000000E+00   0.00000000E+00   0.00000000E+00   6.08020106E+03   0.00000000E+00   3.75902471E-02   8.57051341E+05   8.42099292E-02   5.67743217E+05   3.65516896E-02   3.81126942E-02   3.74151602E-02   3.71245122E-02   2.00601234E+04   1.76159869E+04   1.16058250E+05   3.09419256E+04   3.15625702E+05   2.82769103E-04   8.07396486E-03   8.34739581E-03   8.27714326E-03   8.26165957E-03   3.42577713E+04   4.54243959E+04   4.63165719E+04   0.00000000E+00   2.86289163E+03   1.94623882E-05   6.95588094E-05   6.83332321E-05   2.36439820E-05
   2.36250000E+02   5.00000000E-01   5.00000000E-01   1.31154176E+05   4.79747535E+04   0.00000000E+00   0.00000000E+00   0.00000000E+00   6.08020105E+03   0.00000000E+00   3.76278114E-02   7.91700548E+05   8.73671854E-02   6.01681629E+05   3.65517334E-02   3.81126064E-02   3.74153456E-02   3.71241739E-02   2.00601238E+04   1.76160158E+04   1.16058250E+05   3.09261326E+04   3.16805210E+05   2.81748995E-04   8.07407701E-03   8.34544002E-03   8.27760904E-03   8.26132553E-03   3.42577626E+04   4.54395453E+04   4.63165719E+04   0.00000000E+00   2.86289163E+03   1.94623863E-05   6.95588094E-05   6.83332321E-05   2.36442212E-05
   2.53750000E+02   5.00000000E-01   5.00000000E-01   1.31154176E+05   4.79802988E+04   0.00000000E+00   0.00000000E+00   0.00000000E+00   6.08020105E+03   0.00000000E+00   3.76649486E-02   7.26622049E+05   9.05477676E-02   6.31774675E+05   3.65517523E-02   3.81125019E-02   3.74154171E-02   3.71236199E-02   2.00601242E+04   1.76160445E+04   1.16058250E+05   3.09070345E+04   3.18194359E+05   2.81131063E-04   8.07416486E-03   8.34321131E-03   8.27797085E-03   8.26068109E-03   3.42577525E+04   4.54551211E+04   4.63165719E+04   0.00000000E+00   2.86289164E+03   1.94623803E-05   6.95588094E-05   6.83332308E-05   2.36444012E-05
   2.71250000E+02   5.00000000E-01   5.00000000E-01   1.31154176E+05   4.79860670E+04   0.00000000E+00   0.00000000E+00   0.00000000E+00   6.08020104E+03   0.00000000E+00   3.77010964E-02   6.62907300E+05   9.36995890E-02   6.57744992E+05   3.65517493E-02   3.81123851E-02   3.74153885E-02   3.71228903E-02   2.00601247E+04   1.76160729E+04   1.16058250E+05   3.08856743E+04   3.19731355E+05   2.80721165E-04   8.07423204E-03   8.34079650E-03   8.27824439E-03   8.25979251E-03   3.42577412E+04   4.54712992E+04   4.63165719E+04   0.00000000E+00   2.86289164E+03   1.94623708E-05   6.95588094E-05   6.83332283E-05   2.36445346E-05
   2.88750000E+02   5.00000000E-01   5.00000000E-01   1.31154176E+05   4.79920036E+04   0.00000000E+00   0.00000000E+00   0.00000000E+00   6.08020104E+03   0.00000000E+00   3.77356494E-02   6.01595494E+05   9.67682769E-02   6.79606598E+05   3.65517284E-02   3.81122608E-02   3.74152782E-02   3.71220308E-02   2.00601251E+04   1.76161008E+04   1.16058250E+05   3.08628284E+04   3.21364320E+05   2.80422399E-04   8.07428229E-03   8.33827149E-03   8.27844569E-03   8.25872165E-03   3.42577291E+04   4.54879088E+04   4.63165719E+04   0.00000000E+00   2.86289164E+03   1.94623585E-05   6.95588094E-05   6.83332249E-05   2.36446288E-05
   3.06250000E+02   5.00000000E-01   5.00000000E-01   1.31154176E+05   4.79980678E+04   0.00000000E+00   0.00000000E+00   0.00000000E+00   6.08020103E+03   0.00000000E+00   3.77681539E-02   5.43546400E+05   9.97138628E-02   6.97600011E+05   3.65516946E-02   3.81121339E-02   3.74151094E-02   3.71210924E-02   2.00601256E+04   1.76161282E+04   1.16058250E+05   3.08390975E+04   3.23049343E+05   2.80187122E-04   8.07431980E-03   8.33570665E-03   8.27859270E-03   8.25753030E-03   3.42577168E+04   4.55045058E+04   4.63165719E+04   0.00000000E+00   2.86289164E+03   1.94623443E-05   6.95588094E-05   6.83332206E-05   2.36446876E-05
   3.23750000E+02   5.00000000E-01   5.00000000E-01   1.31154177E+05   4.80042384E+04   0.00000000E+00   0.00000000E+00   0.00000000E+00   6.08020102E+03   0.00000000E+00   3.77984218E-02   4.89375725E+05   1.02520433E-01   7.12104282E+05   3.65516533E-02   3.81120085E-02   3.74149067E-02   3.71201249E-02   2.00601261E+04   1.76161550E+04   1.16058250E+05   3.08149428E+04   3.24750725E+05   2.79992351E-04   8.07434891E-03   8.33316372E-03   8.27870398E-03   8.25627676E-03   3.42577046E+04   4.55205486E+04   4.63165719E+04   0.00000000E+00   2.86289164E+03   1.94623291E-05   6.95588094E-05   6.83332155E-05   2.36447125E-05
   3.41250000E+02   5.00000000E-01   5.00000000E-01   1.31154177E+05   4.80105116E+04   0.00000000E+00   0.00000000E+00   0.00000000E+00   6.08020102E+03   0.00000000E+00   3.78265318E-02   4.39434934E+05   1.05196226E-01   7.23542299E+05   3.65516095E-02   3.81118883E-02   3.74146930E-02   3.71191704E-02   2.00601266E+04   1.76161813E+04   1.16058250E+05   3.07907091E+04   3.26441352E+05   2.79826701E-04   8.07437367E-03   8.33069189E-03   8.27879684E-03   8.25501108E-03   3.42576929E+04   4.55355601E+04   4.63165719E+04   0.00000000E+00   2.86289164E+03   1.94623137E-05   6.95588094E-05   6.83332098E-05   2.36447035E-05
   3.58750000E+02   5.00000000E-01   5.00000000E-01   1.31154177E+05   4.80168964E+04   0.00000000E+00   0.00000000E+00   0.00000000E+00   6.08020101E+03   0.00000000E+00   3.78527693E-02   3.93801109E+05   1.07768171E-01   7.32240213E+05   3.65515668E-02   3.81117752E-02   3.74144844E-02   3.71182568E-02   2.00601271E+04   1.76162071E+04   1.16058250E+05   3.07666060E+04   3.28105604E+05   2.79683781E-04   8.07439708E-03   8.32832130E-03   8.27888396E-03   8.25376727E-03   3.42576819E+04   4.55492296E+04   4.63165719E+04   0.00000000E+00   2.86289164E+03   1.94622986E-05   6.95588094E-05   6.83332036E-05   2.36446602E-05
   3.76250000E+02   5.00000000E-01   5.00000000E-01   1.31154177E+05   4.80234063E+04   0.00000000E+00   0.00000000E+00   0.00000000E+00   6.08020100E+03   0.00000000E+00   3.78775316E-02   3.52377475E+05   1.10273454E-01   7.38454028E+05   3.65515272E-02   3.81116702E-02   3.74142911E-02   3.71173994E-02   2.00601277E+04   1.76162324E+04   1.16058250E+05   3.07427551E+04   3.29735387E+05   2.79559461E-04   8.07442111E-03   8.32606698E-03   8.27897374E-03   8.25256582E-03   3.42576715E+04   4.55614223E+04   4.63165719E+04   0.00000000E+00   2.86289164E+03   1.94622841E-05   6.95588094E-05   6.83331970E-05   2.36445822E-05
   3.93750000E+02   5.00000000E-01   5.00000000E-01   1.31154177E+05   4.80300542E+04   0.00000000E+00   0.00000000E+00   0.00000000E+00   6.08020099E+03   0.00000000E+00   3.79012575E-02   3.14936480E+05   1.12753096E-01   7.42326833E+05   3.65514918E-02   3.81115731E-02   3.74141168E-02   3.71166014E-02   2.00601282E+04   1.76162572E+04   1.16058250E+05   3.07191991E+04   3.31329686E+05   2.79450526E-04   8.07444662E-03   8.32393032E-03   8.27906979E-03   8.25141378E-03   3.42576620E+04   4.55721570E+04   4.63165719E+04   0.00000000E+00   2.86289164E+03   1.94622706E-05   6.95588094E-05   6.83331900E-05   2.36444695E-05
   4.11250000E+02   5.00000000E-01   5.00000000E-01   1.31154178E+05   4.80368481E+04   0.00000000E+00   0.00000000E+00   0.00000000E+00   6.08020098E+03   0.00000000E+00   3.79243740E-02   2.81187243E+05   1.15246932E-01   7.43928600E+05   3.65514603E-02   3.81114833E-02   3.74139604E-02   3.71158583E-02   2.00601288E+04   1.76162815E+04   1.16058250E+05   3.06959316E+04   3.32891677E+05   2.79354290E-04   8.07447359E-03   8.32190372E-03   8.27917198E-03   8.25030863E-03   3.42576531E+04   4.55815659E+04   4.63165719E+04   0.00000000E+00   2.86289164E+03   1.94622578E-05   6.95588094E-05   6.83331827E-05   2.36443224E-05
   4.28750000E+02   5.00000000E-01   5.00000000E-01   1.31154178E+05   4.80437874E+04   0.00000000E+00   0.00000000E+00   0.00000000E+00   6.08020097E+03   0.00000000E+00   3.79472623E-02   2.50820459E+05   1.17790246E-01   7.43298114E+05   3.65514317E-02   3.81113997E-02   3.74138178E-02   3.71151610E-02   2.00601294E+04   1.76163053E+04   1.16058250E+05   3.06729280E+04   3.34426098E+05   2.79268501E-04   8.07450145E-03   8.31997531E-03   8.27927788E-03   8.24924265E-03   3.42576449E+04   4.55898558E+04   4.63165719E+04   0.00000000E+00   2.86289164E+03   1.94622458E-05   6.95588094E-05   6.83331752E-05   2.36441420E-05
   4.46250000E+02   5.00000000E-01   5.00000000E-01   1.31154178E+05   4.80508623E+04   0.00000000E+00   0.00000000E+00   0.00000000E+00   6.08020096E+03   0.00000000E+00   3.79702375E-02   2.23522620E+05   1.20411653E-01   7.40436084E+05   3.65514048E-02   3.81113212E-02   3.74136830E-02   3.71144977E-02   2.00601300E+04   1.76163286E+04   1.16058250E+05   3.06501519E+04   3.35938815E+05   2.79191247E-04   8.07452922E-03   8.31813086E-03   8.27938331E-03   8.24820467E-03   3.42576371E+04   4.55972843E+04   4.63165719E+04   0.00000000E+00   2.86289164E+03   1.94622344E-05   6.95588094E-05   6.83331676E-05   2.36439294E-05
   4.63750000E+02   5.00000000E-01   5.00000000E-01   1.31154178E+05   4.80580527E+04   0.00000000E+00   0.00000000E+00   0.00000000E+00   6.08020095E+03   0.00000000E+00   3.79935354E-02   1.98994298E+05   1.23131483E-01   7.35330773E+05   3.65513780E-02   3.81112466E-02   3.74135488E-02   3.71138562E-02   2.00601307E+04   1.76163513E+04   1.16058250E+05   3.06275671E+04   3.37435672E+05   2.79120940E-04   8.07455570E-03   8.31635596E-03   8.27948310E-03   8.24718225E-03   3.42576298E+04   4.56041400E+04   4.63165719E+04   0.00000000E+00   2.86289164E+03   1.94622234E-05   6.95588094E-05   6.83331598E-05   2.36436862E-05
   4.81250000E+02   5.00000000E-01   5.00000000E-01   1.31154179E+05   4.80653288E+04   0.00000000E+00   0.00000000E+00   0.00000000E+00   6.08020094E+03   0.00000000E+00   3.80173015E-02   1.76959507E+05   1.25960490E-01   7.27978354E+05   3.65513497E-02   3.81111749E-02   3.74134082E-02   3.71132246E-02   2.00601314E+04   1.76163735E+04   1.16058250E+05   3.06051472E+04   3.38921615E+05   2.79056312E-04   8.07457963E-03   8.31463765E-03   8.27957197E-03   8.24616365E-03   3.42576228E+04   4.56107257E+04   4.63165719E+04   0.00000000E+00   2.86289165E+03   1.94622126E-05   6.95588094E-05   6.83331520E-05   2.36434142E-05
   4.98750000E+02   5.00000000E-01   5.00000000E-01   1.31154179E+05   4.80727642E+04   0.00000000E+00   0.00000000E+00   0.00000000E+00   6.08020093E+03   0.00000000E+00   3.80420142E-02   1.56740434E+05   1.28946644E-01   7.15907050E+05   3.65513073E-02   3.81111000E-02   3.74132037E-02   3.71125185E-02   2.00601321E+04   1.76163953E+04   1.16058250E+05   3.05819840E+04   3.40482801E+05   2.78992766E-04   8.07458806E-03   8.31287447E-03   8.27959489E-03   8.24503158E-03   3.42576155E+04   4.56173438E+04   4.63165719E+04   0.00000000E+00   2.86289165E+03   1.94622004E-05   6.95588094E-05   6.83331443E-05   2.36431204E-05
   5.16250000E+02   5.00000000E-01   5.00000000E-01   1.31154179E+05   4.80802526E+04   0.00000000E+00   0.00000000E+00   0.00000000E+00   6.08020092E+03   0.00000000E+00   3.80674736E-02   1.38762298E+05   1.32067818E-01   7.02209433E+05   3.65512586E-02   3.81110259E-02   3.74129712E-02   3.71117942E-02   2.00601328E+04   1.76164166E+04   1.16058250E+05   3.05588310E+04   3.42035756E+05   2.78933073E-04   8.07458930E-03   8.31113713E-03   8.27958722E-03   8.24386780E-03   3.42576083E+04   4.56243714E+04   4.63165719E+04   0.00000000E+00   2.86289165E+03   1.94621877E-05   6.95588094E-05   6.83331365E-05   2.36428047E-05
   5.33750000E+02   5.00000000E-01   5.00000000E-01   1.31154180E+05   4.80877136E+04   0.00000000E+00   0.00000000E+00   0.00000000E+00   6.08020091E+03   0.00000000E+00   3.80933973E-02   1.22718953E+05   1.35287040E-01   6.86710710E+05   3.65512056E-02   3.81109537E-02   3.74127195E-02   3.71110653E-02   2.00601336E+04   1.76164371E+04   1.16058250E+05   3.05359459E+04   3.43574134E+05   2.78877593E-04   8.07458570E-03   8.30944405E-03   8.27955903E-03   8.24269568E-03   3.42576012E+04   4.56320307E+04   4.63165719E+04   0.00000000E+00   2.86289165E+03   1.94621749E-05   6.95588094E-05   6.83331288E-05   2.36424676E-05
   5.51250000E+02   5.00000000E-01   5.00000000E-01   1.31154180E+05   4.80950908E+04   0.00000000E+00   0.00000000E+00   0.00000000E+00   6.08020090E+03   0.00000000E+00   3.81195037E-02   1.08363364E+05   1.38567810E-01   6.69249483E+05   3.65511478E-02   3.81108830E-02   3.74124464E-02   3.71103297E-02   2.00601344E+04   1.76164568E+04   1.16058250E+05   3.05133661E+04   3.45101457E+05   2.78825939E-04   8.07457705E-03   8.30779310E-03   8.27950938E-03   8.24151458E-03   3.42575944E+04   4.56404684E+04   4.63165719E+04   0.00000000E+00   2.86289165E+03   1.94621619E-05   6.95588094E-05   6.83331212E-05   2.36421101E-05
   5.68750000E+02   5.00000000E-01   5.00000000E-01   1.31154181E+05   4.81023410E+04   0.00000000E+00   0.00000000E+00   0.00000000E+00   6.08020088E+03   0.00000000E+00   3.81454921E-02   9.55231294E+04   1.41872493E-01   6.49931329E+05   3.65510849E-02   3.81108139E-02   3.74121512E-02   3.71095869E-02   2.00601352E+04   1.76164756E+04   1.16058250E+05   3.04911042E+04   3.46617958E+05   2.78777842E-04   8.07456311E-03   8.30618231E-03   8.27943733E-03   8.24032394E-03   3.42575877E+04   4.56497287E+04   4.63165719E+04   0.00000000E+00   2.86289165E+03   1.94621486E-05   6.95588094E-05   6.83331136E-05   2.36417333E-05
   5.86250000E+02   5.00000000E-01   5.00000000E-01   1.31154182E+05   4.81094348E+04   0.00000000E+00   0.00000000E+00   0.00000000E+00   6.08020087E+03   0.00000000E+00   3.81710656E-02   8.40581921E+04   1.45164844E-01   6.28975838E+05   3.65510175E-02   3.81107464E-02   3.74118361E-02   3.71088406E-02   2.00601360E+04   1.76164935E+04   1.16058250E+05   3.04691837E+04   3.48121404E+05   2.78733205E-04   8.07454416E-03   8.30461305E-03   8.27934405E-03   8.23912733E-03   3.42575811E+04   4.56597384E+04   4.63165719E+04   0.00000000E+00   2.86289165E+03   1.94621352E-05   6.95588094E-05   6.83331062E-05   2.36413382E-05
   6.03750000E+02   5.00000000E-01   5.00000000E-01   1.31154182E+05   4.81163579E+04   0.00000000E+00   0.00000000E+00   0.00000000E+00   6.08020086E+03   0.00000000E+00   3.81959683E-02   7.38468602E+04   1.48414253E-01   6.06665863E+05   3.65509466E-02   3.81106810E-02   3.74115059E-02   3.71080979E-02   2.00601369E+04   1.76165105E+04   1.16058250E+05   3.04476417E+04   3.49607820E+05   2.78692031E-04   8.07452098E-03   8.30308963E-03   8.27923294E-03   8.23793230E-03   3.42575748E+04   4.56703191E+04   4.63165719E+04   0.00000000E+00   2.86289165E+03   1.94621217E-05   6.95588094E-05   6.83330989E-05   2.36409258E-05
   6.21250000E+02   5.00000000E-01   5.00000000E-01   1.31154183E+05   4.81231097E+04   0.00000000E+00   0.00000000E+00   0.00000000E+00   6.08020084E+03   0.00000000E+00   3.82200154E-02   6.47785912E+04   1.51599127E-01   5.83314500E+05   3.65508738E-02   3.81106182E-02   3.74111675E-02   3.71073677E-02   2.00601378E+04   1.76165267E+04   1.16058250E+05   3.04265251E+04   3.51072208E+05   2.78654345E-04   8.07449480E-03   8.30161813E-03   8.27910915E-03   8.23674910E-03   3.42575686E+04   4.56812215E+04   4.63165719E+04   2.98817745E-22   2.86289166E+03   1.94621084E-05   6.95588094E-05   6.83330917E-05   2.36404972E-05
   6.38750000E+02   5.00000000E-01   5.00000000E-01   1.31154184E+05   4.81296997E+04   0.00000000E+00   0.00000000E+00   0.00000000E+00   6.08020083E+03   0.00000000E+00   3.82431075E-02   5.67494435E+04   1.54708250E-01   5.59233536E+05   3.65508008E-02   3.81105586E-02   3.74108284E-02   3.71066595E-02   2.00601387E+04   1.76165420E+04   1.16058250E+05   3.04058853E+04   3.52509268E+05   2.78620134E-04   8.07446708E-03   8.30020512E-03   8.27897892E-03   8.23558915E-03   3.42575628E+04   4.56921699E+04   4.63165719E+04   6.17007644E-22   2.86289166E+03   1.94620953E-05   6.95588094E-05   6.83330848E-05   2.36400530E-05
   6.56250000E+02   5.00000000E-01   5.00000000E-01   1.31154185E+05   4.81361416E+04   0.00000000E+00   0.00000000E+00   0.00000000E+00   6.08020081E+03   0.00000000E+00   3.82652273E-02   4.96597373E+04   1.57739993E-01   5.34706624E+05   3.65507290E-02   3.81105024E-02   3.74104961E-02   3.71059816E-02   2.00601396E+04   1.76165566E+04   1.16058250E+05   3.03857734E+04   3.53914037E+05   2.78589318E-04   8.07443938E-03   8.29885652E-03   8.27884877E-03   8.23446356E-03   3.42575573E+04   4.57029036E+04   4.63165719E+04   1.27579639E-21   2.86289166E+03   1.94620827E-05   6.95588094E-05   6.83330780E-05   2.36395943E-05
   6.73750000E+02   5.00000000E-01   5.00000000E-01   1.31154186E+05   4.81424480E+04   0.00000000E+00   0.00000000E+00   0.00000000E+00   6.08020080E+03   0.00000000E+00   3.82864228E-02   4.34137616E+04   1.60699918E-01   5.09974896E+05   3.65506601E-02   3.81104500E-02   3.74101768E-02   3.71053405E-02   2.00601406E+04   1.76165703E+04   1.16058250E+05   3.03662369E+04   3.55282250E+05   2.78561741E-04   8.07441317E-03   8.29757692E-03   8.27872498E-03   8.23338210E-03   3.42575521E+04   4.57132076E+04   4.63165719E+04   2.64180181E-21   2.86289166E+03   1.94620708E-05   6.95588094E-05   6.83330714E-05   2.36391217E-05
   6.91250000E+02   5.00000000E-01   5.00000000E-01   1.31154187E+05   4.81486255E+04   0.00000000E+00   0.00000000E+00   0.00000000E+00   6.08020078E+03   0.00000000E+00   3.83067850E-02   3.79201843E+04   1.63597719E-01   4.85225183E+05   3.65505950E-02   3.81104016E-02   3.74098754E-02   3.71047408E-02   2.00601415E+04   1.76165833E+04   1.16058250E+05   3.03473158E+04   3.56610656E+05   2.78537181E-04   8.07438978E-03   8.29636910E-03   8.27861300E-03   8.23235244E-03   3.42575473E+04   4.57229286E+04   4.63165719E+04   5.47859198E-21   2.86289166E+03   1.94620596E-05   6.95588094E-05   6.83330650E-05   2.36386360E-05
   7.08750000E+02   5.00000000E-01   5.00000000E-01   1.31154188E+05   4.81546712E+04   0.00000000E+00   0.00000000E+00   0.00000000E+00   6.08020076E+03   0.00000000E+00   3.83264243E-02   3.30937160E+04   1.66444039E-01   4.60600380E+05   3.65505345E-02   3.81103570E-02   3.74095953E-02   3.71041845E-02   2.00601426E+04   1.76165956E+04   1.16058250E+05   3.03290429E+04   3.57896869E+05   2.78515382E-04   8.07437027E-03   8.29523411E-03   8.27851741E-03   8.23138005E-03   3.42575429E+04   4.57319790E+04   4.63165719E+04   2.01768921E-06   2.86289166E+03   1.94620492E-05   6.95588094E-05   6.83330589E-05   2.36381379E-05
   7.26250000E+02   5.00000000E-01   5.00000000E-01   1.31154189E+05   4.81605705E+04   0.00000000E+00   0.00000000E+00   0.00000000E+00   6.08020074E+03   0.00000000E+00   3.83454486E-02   2.88560351E+04   1.69247613E-01   4.36207041E+05   3.65504792E-02   3.81103162E-02   3.74093386E-02   3.71036722E-02   2.00601436E+04   1.76166071E+04   1.16058250E+05   3.03114442E+04   3.59139224E+05   2.78496067E-04   8.07435554E-03   8.29417157E-03   8.27844184E-03   8.23046845E-03   3.42575388E+04   4.57403322E+04   4.63165719E+04   8.13371777E-06   2.86289167E+03   1.94620398E-05   6.95588094E-05   6.83330529E-05   2.36376284E-05
   7.43750000E+02   5.00000000E-01   5.00000000E-01   1.31154190E+05   4.81662972E+04   0.00000000E+00   0.00000000E+00   0.00000000E+00   6.08020072E+03   0.00000000E+00   3.83639459E-02   2.51362999E+04   1.72012937E-01   4.12123906E+05   3.65504292E-02   3.81102789E-02   3.74091064E-02   3.71032032E-02   2.00601446E+04   1.76166177E+04   1.16058250E+05   3.02945397E+04   3.60336621E+05   2.78478967E-04   8.07434625E-03   8.29317994E-03   8.27838912E-03   8.22961951E-03   3.42575350E+04   4.57480140E+04   4.63165719E+04   1.91785723E-05   2.86289167E+03   1.94620312E-05   6.95588094E-05   6.83330471E-05   2.36371080E-05
   7.61250000E+02   5.00000000E-01   5.00000000E-01   1.31154192E+05   4.81718136E+04   0.00000000E+00   0.00000000E+00   0.00000000E+00   6.08020069E+03   0.00000000E+00   3.83819704E-02   2.18712720E+04   1.74738465E-01   3.88410677E+05   3.65503847E-02   3.81102451E-02   3.74088988E-02   3.71027758E-02   2.00601457E+04   1.76166276E+04   1.16058250E+05   3.02783444E+04   3.61488357E+05   2.78463828E-04   8.07434295E-03   8.29225693E-03   8.27836143E-03   8.22883387E-03   3.42575316E+04   4.57550921E+04   4.63165719E+04   3.78296660E-05   2.86289167E+03   1.94620237E-05   6.95588094E-05   6.83330416E-05   2.36365775E-05
   7.78750000E+02   5.00000000E-01   5.00000000E-01   1.31154193E+05   4.81770728E+04   0.00000000E+00   0.00000000E+00   0.00000000E+00   6.08020067E+03   0.00000000E+00   3.83995323E-02   1.90051240E+04   1.77415366E-01   3.65116271E+05   3.65503456E-02   3.81102143E-02   3.74087159E-02   3.71023881E-02   2.00601468E+04   1.76166365E+04   1.16058250E+05   3.02628695E+04   3.62593966E+05   2.78450423E-04   8.07434605E-03   8.29139976E-03   8.27836049E-03   8.22811133E-03   3.42575284E+04   4.57616629E+04   4.63165719E+04   6.79941625E-05   2.86289167E+03   1.94620171E-05   6.95588094E-05   6.83330362E-05   2.36360377E-05
   7.96250000E+02   5.00000000E-01   5.00000000E-01   1.31154195E+05   4.81820207E+04   0.00000000E+00   0.00000000E+00   0.00000000E+00   6.08020064E+03   0.00000000E+00   3.84165914E-02   1.64890309E+04   1.80026866E-01   3.42286380E+05   3.65503119E-02   3.81101865E-02   3.74085572E-02   3.71020381E-02   2.00601480E+04   1.76166444E+04   1.16058250E+05   3.02481231E+04   3.63653084E+05   2.78438552E-04   8.07435591E-03   8.29060548E-03   8.27838775E-03   8.22745120E-03   3.42575256E+04   4.57678378E+04   4.63165719E+04   1.15337728E-04   2.86289168E+03   1.94620114E-05   6.95588094E-05   6.83330310E-05   2.36354890E-05