 TITLE = "Total Concentrations" 
VARIABLES = "X"          "Y"              "Z"            "H+"             "Al+++"          "CO2(aq)"        "Mg++"           "Ca++"           "Fe++"           "Fe+++"          "Ba++"           "Sr++"           "Cl-"            "K+"             "Na+"            "SO4--"          "O2(aq)"         "B(OH)3(aq)"     "HPO4--"         "NO3-"           "H4SiO4(aq)"     "HNO3(aq)"       "Al(OH)2+"       "AlO2-"          "AlOH++"         "BaHCO3+"        "BaCl+"          "BaCO3(aq)"      "BaOH+"          "HCO3-"          "CO3--"          "CaCl+"          "CaCl2(aq)"      "CaOH+"          "CaSO4(aq)"      "FeCl+"          "FeCl2(aq)"      "FeOH+"          "FeSO4(aq)"      "OH-"            "HS-"            "H2S(aq)"        "H2PO4-"         "H3PO4(aq)"      "HAlO2(aq)"      "HSO4-"          "KCl(aq)"        "KOH(aq)"        "KSO4-"          "NH3(aq)"        "NaAlO2(aq)"     "NaOH(aq)"       "NaSO4-"         "H2(aq)"         "CaHPO4(aq)"     "CaPO4-"         "FeCO3(aq)"      "FeH2PO4+"       "FeHPO4(aq)"     "FePO4-"         "KHPO4-"         "PO4---"         "S--"            "Sr(CO3)(aq)"    "SrHCO3+"        "SrCl+"          "SrOH+"          "SrSO4(aq)"     
 ZONE I=          10 , J=           1 , K=           1  F=POINT
   1.75000000E+02   5.00000000E-01   5.00000000E-01  -7.39585830E+00  -2.25834579E+01  -3.76816892E+00  -1.58959331E+00  -1.49745866E+00  -4.70787965E+00  -1.15622971E+01  -6.72131729E+00  -5.13498859E+00  -2.63594207E-01  -1.95776267E+00  -3.14361888E-01  -1.62119523E+00  -3.74472744E+00  -3.39793996E+00  -6.09596349E+00  -4.40893533E+00  -1.17112046E+00  -1.33839267E+01  -1.84710152E+01  -1.53626435E+01  -2.02015280E+01  -8.60774058E+00  -8.12697816E+00  -1.00065475E+01  -1.27544645E+01  -2.34234244E+00  -4.52658802E+00  -2.66437707E+00  -3.80229208E+00  -6.79837292E+00  -2.27334627E+00  -5.66247812E+00  -8.02334626E+00  -6.85193130E+00  -5.32947839E+00  -6.00501701E+00  -1.35703985E+02  -1.36589986E+02  -7.01517494E+00  -1.25594970E+01  -1.68632927E+01  -7.60441420E+00  -3.18190171E+00  -8.82966561E+00  -3.49379666E+00  -6.47144332E+01  -1.68104720E+01  -7.51364648E+00  -1.81345147E+00  -4.27333483E+01  -6.15883085E+00  -7.03230581E+00  -5.48570002E+00  -9.64918324E+00  -8.70335196E+00  -8.97366588E+00  -7.92988806E+00  -9.84612498E+00  -1.44399524E+02  -8.24670263E+00  -6.84539070E+00  -6.31563804E+00  -1.09916951E+01  -5.98310672E+00
   5.25000000E+02   5.00000000E-01   5.00000000E-01  -6.86291809E+00  -2.13272387E+01  -3.30017431E+00  -1.60621584E+00  -1.62225743E+00  -4.45842504E+00  -1.11785848E+01  -6.73139718E+00  -5.14177590E+00  -2.63454443E-01  -1.96020336E+00  -3.10423424E-01  -1.72383811E+00  -3.74465095E+00  -3.39786347E+00  -6.15846617E+00  -4.40885884E+00  -1.15087629E+00  -1.26523087E+01  -1.71255682E+01  -1.43984645E+01  -1.89506090E+01  -8.40914222E+00  -7.97991439E+00  -1.02774998E+01  -1.24240566E+01  -2.37297072E+00  -4.97043903E+00  -2.68614444E+00  -3.92891238E+00  -6.67446390E+00  -2.45282645E+00  -5.15987602E+00  -7.61524159E+00  -6.57145455E+00  -5.08720250E+00  -5.99510303E+00  -1.26195668E+02  -1.26730837E+02  -6.55828544E+00  -1.14595368E+01  -1.57040654E+01  -6.90591671E+00  -3.11937928E+00  -8.69535970E+00  -3.54853501E+00  -6.00835862E+01  -1.57178706E+01  -7.48226959E+00  -1.91602469E+00  -3.98436067E+01  -6.18010316E+00  -7.36177966E+00  -5.66475727E+00  -8.96090702E+00  -8.54718952E+00  -9.34361786E+00  -7.67647992E+00  -1.03140963E+01  -1.34690396E+02  -8.46404694E+00  -6.58503452E+00  -6.22035802E+00  -1.07016104E+01  -6.03560995E+00
   8.75000000E+02   5.00000000E-01   5.00000000E-01  -6.39597537E+00  -2.01977506E+01  -2.89972964E+00  -1.62415761E+00  -1.75754326E+00  -4.23745166E+00  -1.08453810E+01  -6.74516187E+00  -5.15157014E+00  -2.63455213E-01  -1.96411273E+00  -3.07620108E-01  -1.83728963E+00  -3.74462527E+00  -3.39783779E+00  -6.29457558E+00  -4.40883317E+00  -1.13601280E+00  -1.19926280E+01  -1.58909889E+01  -1.35205903E+01  -1.78029286E+01  -8.26705811E+00  -7.82991625E+00  -1.05919624E+01  -1.21534081E+01  -2.45765715E+00  -5.44801926E+00  -2.70098671E+00  -4.01407610E+00  -6.59381561E+00  -2.65123148E+00  -4.68470683E+00  -7.20412860E+00  -6.31980163E+00  -4.88284173E+00  -6.00965876E+00  -1.17716035E+02  -1.17907874E+02  -6.21422289E+00  -1.05355598E+01  -1.46284767E+01  -6.27973997E+00  -3.05050566E+00  -8.59024115E+00  -3.60005633E+00  -5.59091270E+01  -1.47079701E+01  -7.44931764E+00  -2.00498274E+00  -3.72524242E+01  -6.27963400E+00  -7.72597388E+00  -5.88690890E+00  -8.41823274E+00  -8.47158544E+00  -9.72522994E+00  -7.51122885E+00  -1.08354092E+01  -1.26064233E+02  -8.73151367E+00  -6.38150318E+00  -6.11464352E+00  -1.04590282E+01  -6.11753296E+00
   1.22500000E+03   5.00000000E-01   5.00000000E-01  -5.98943078E+00  -1.92129726E+01  -2.61393789E+00  -1.64862107E+00  -1.89911892E+00  -4.05341435E+00  -1.05687845E+01  -6.76151202E+00  -5.16242592E+00  -2.63531428E-01  -1.96928107E+00  -3.05338271E-01  -1.95467254E+00  -3.74460302E+00  -3.39781554E+00  -6.51703810E+00  -4.40881096E+00  -1.12206188E+00  -1.14014721E+01  -1.47784501E+01  -1.27309292E+01  -1.67764569E+01  -8.22383039E+00  -7.67991657E+00  -1.09834225E+01  -1.19248043E+01  -2.63514389E+00  -5.99177396E+00  -2.71092590E+00  -4.06855437E+00  -6.54090982E+00  -2.86293294E+00  -4.24968233E+00  -6.81015174E+00  -6.10095700E+00  -4.72374734E+00  -6.03582236E+00  -1.10110322E+02  -1.09975620E+02  -5.99824197E+00  -9.80035796E+00  -1.36472562E+01  -5.71989469E+00  -2.98054830E+00  -8.50426794E+00  -3.64841917E+00  -5.21314557E+01  -1.37867108E+01  -7.41146133E+00  -2.08286820E+00  -3.49152259E+01  -6.47197117E+00  -8.14206759E+00  -6.20169029E+00  -8.04400324E+00  -8.50494388E+00  -1.01531974E+01  -7.45033031E+00  -1.14163972E+01  -1.18351735E+02  -9.08079296E+00  -6.27728220E+00  -6.00233390E+00  -1.02486985E+01  -6.22244370E+00
   1.57500000E+03   5.00000000E-01   5.00000000E-01  -5.63175588E+00  -1.83476829E+01  -2.45099466E+00  -1.67542346E+00  -2.04694903E+00  -3.89740496E+00  -1.03255282E+01  -6.78111386E+00  -5.17261484E+00  -2.63688482E-01  -1.97574032E+00  -3.03458781E-01  -2.07350500E+00  -3.74458178E+00  -3.39779430E+00  -6.80692845E+00  -4.40878982E+00  -1.10927698E+00  -1.08665595E+01  -1.37708376E+01  -1.20210302E+01  -1.58525272E+01  -8.29221215E+00  -7.53127294E+00  -1.14661210E+01  -1.17329810E+01  -2.91701059E+00  -6.61810983E+00  -2.71830013E+00  -4.09903500E+00  -6.51370478E+00  -3.08449149E+00  -3.84650681E+00  -6.42840284E+00  -5.90901598E+00  -4.59769519E+00  -6.07307798E+00  -1.03246306E+02  -1.02799109E+02  -5.88381744E+00  -9.21594166E+00  -1.27499780E+01  -5.21440784E+00  -2.91109609E+00  -8.43648033E+00  -3.69372292E+00  -4.86920519E+01  -1.29460780E+01  -7.37149771E+00  -2.15162273E+00  -3.27952430E+01  -6.73782768E+00  -8.59918834E+00  -6.61804843E+00  -7.80250746E+00  -8.62306624E+00  -1.06151018E+01  -7.47240373E+00  -1.20425205E+01  -1.11413702E+02  -9.52281119E+00  -6.28322338E+00  -5.88364944E+00  -1.00652883E+01  -6.34271817E+00
   1.92500000E+03   5.00000000E-01   5.00000000E-01  -5.31379955E+00  -1.75824851E+01  -2.37504686E+00  -1.70182489E+00  -2.20228422E+00  -3.76269160E+00  -1.00962311E+01  -6.80830199E+00  -5.18606906E+00  -2.63970453E-01  -1.98371698E+00  -3.01909446E-01  -2.19357412E+00  -3.74456075E+00  -3.39777327E+00  -7.13057898E+00  -4.40876911E+00  -1.09764902E+00  -1.03765899E+01  -1.28546431E+01  -1.13851806E+01  -1.50165822E+01  -8.44357457E+00  -7.38738793E+00  -1.20134576E+01  -1.15775315E+01  -3.27184526E+00  -7.30103868E+00  -2.72474312E+00  -4.10906164E+00  -6.51166749E+00  -3.31305243E+00  -3.46727587E+00  -6.05217769E+00  -5.73919474E+00  -4.49380249E+00  -6.12245049E+00  -9.70161471E+01  -9.62665088E+01  -5.82978241E+00  -8.73057633E+00  -1.19283097E+01  -4.75363470E+00  -2.84189340E+00  -8.38596877E+00  -3.73611873E+00  -4.55412488E+01  -1.21787981E+01  -7.33024114E+00  -2.21249419E+00  -3.08619150E+01  -7.04147116E+00  -9.06767687E+00  -7.10117322E+00  -7.64601776E+00  -8.78731817E+00  -1.10813830E+01  -7.53866248E+00  -1.26849337E+01  -1.05134867E+02  -1.00297193E+01  -6.37048883E+00  -5.76250578E+00  -9.90964389E+00  -6.47613694E+00
   2.27500000E+03   5.00000000E-01   5.00000000E-01  -5.03273902E+00  -1.69240780E+01  -2.34374669E+00  -1.73245508E+00  -2.36657226E+00  -3.65367458E+00  -9.88417834E+00  -6.84832055E+00  -5.20894622E+00  -2.64473241E-01  -1.99364009E+00  -3.00523518E-01  -2.31606940E+00  -3.74453937E+00  -3.39775189E+00  -7.46026652E+00  -4.40874858E+00  -1.08577033E+00  -9.92608970E+00  -1.20318833E+01  -1.08230520E+01  -1.42744601E+01  -8.63851146E+00  -7.25194287E+00  -1.25836861E+01  -1.14553352E+01  -3.65740573E+00  -7.99907409E+00  -2.73118670E+00  -4.10021910E+00  -6.53014758E+00  -3.54627861E+00  -3.11451178E+00  -5.68412427E+00  -5.59262254E+00  -4.41256827E+00  -6.18102788E+00  -9.13358585E+01  -9.02940521E+01  -5.80606799E+00  -8.30937751E+00  -1.11837530E+01  -4.33456496E+00  -2.77196219E+00  -8.34743044E+00  -3.77619783E+00  -4.26414535E+01  -1.14820099E+01  -7.28272418E+00  -2.26646835E+00  -2.90896481E+01  -7.35218122E+00  -9.51667045E+00  -7.61040714E+00  -7.54938392E+00  -8.97524603E+00  -1.15320740E+01  -7.61542950E+00  -1.33160099E+01  -9.94194196E+01  -1.05599265E+01  -6.50059942E+00  -5.64417306E+00  -9.78074860E+00  -6.62337706E+00
   2.62500000E+03   5.00000000E-01   5.00000000E-01  -4.79018055E+00  -1.63958311E+01  -2.33144157E+00  -1.77691441E+00  -2.54029424E+00  -3.58232350E+00  -9.71057013E+00  -6.90578651E+00  -5.24576899E+00  -2.65342134E-01  -2.00612638E+00  -2.99093513E-01  -2.44320944E+00  -3.74451724E+00  -3.39772976E+00  -7.77813810E+00  -4.40872854E+00  -1.07166576E+00  -9.51412626E+00  -1.13142774E+01  -1.03368045E+01  -1.36448630E+01  -8.85027174E+00  -7.12810905E+00  -1.31447278E+01  -1.13604443E+01  -4.04473637E+00  -8.68029336E+00  -2.73747412E+00  -4.07259280E+00  -6.56078635E+00  -3.78229836E+00  -2.79835887E+00  -5.33423550E+00  -5.47460476E+00  -4.36345923E+00  -6.24287632E+00  -8.61404307E+01  -8.48202847E+01  -5.79657305E+00  -7.93588107E+00  -1.05236702E+01  -3.95944039E+00  -2.70039921E+00  -8.31281179E+00  -3.81557141E+00  -3.99647539E+01  -1.08552247E+01  -7.22036301E+00  -2.31503557E+00  -2.74569517E+01  -7.64848528E+00  -9.92015717E+00  -8.12231187E+00  -7.50940767E+00  -9.18195107E+00  -1.19600151E+01  -7.67929669E+00  -1.39141038E+01  -9.41877581E+01  -1.10805928E+01  -6.64661820E+00  -5.53223233E+00  -9.67342480E+00  -6.78523096E+00
   2.97500000E+03   5.00000000E-01   5.00000000E-01  -4.58978135E+00  -1.60245958E+01  -2.32659772E+00  -1.84690303E+00  -2.72193904E+00  -3.56365851E+00  -9.60877354E+00  -6.98484597E+00  -5.29977389E+00  -2.66700103E-01  -2.02197215E+00  -2.97462287E-01  -2.57824701E+00  -3.74449401E+00  -3.39770653E+00  -8.07294882E+00  -4.40870992E+00  -1.05417636E+00  -9.14230244E+00  -1.07146783E+01  -9.92670582E+00  -1.31485279E+01  -9.06464501E+00  -7.01913460E+00  -1.36761133E+01  -1.12863051E+01  -4.41735001E+00  -9.32325778E+00  -2.74177340E+00  -4.02466308E+00  -6.59264708E+00  -4.01966917E+00  -2.53248350E+00  -5.01619554E+00  -5.39243483E+00  -4.36140217E+00  -6.30078472E+00  -8.13794001E+01  -7.97999140E+01  -5.79409872E+00  -7.60495575E+00  -9.95507527E+00  -3.63396851E+00  -2.62682575E+00  -8.27351387E+00  -3.85752776E+00  -3.74900570E+01  -1.02965331E+01  -7.13352559E+00  -2.36102289E+00  -2.59457629E+01  -7.91485327E+00  -1.02559528E+01  -8.62810066E+00  -7.53534758E+00  -9.41306768E+00  -1.23661482E+01  -7.71463289E+00  -1.44618927E+01  -8.93741097E+01  -1.15697577E+01  -6.79327501E+00  -5.42940220E+00  -9.58084115E+00  -6.96392944E+00
   3.32500000E+03   5.00000000E-01   5.00000000E-01  -4.43450522E+00  -1.58258648E+01  -2.32462651E+00  -1.95278535E+00  -2.90760344E+00  -3.60958966E+00  -9.61568923E+00  -7.08860206E+00  -5.37348882E+00  -2.68498645E-01  -2.04213485E+00  -2.95623879E-01  -2.72514909E+00  -3.74446922E+00  -3.39768174E+00  -8.33838229E+00  -4.40869426E+00  -1.03431081E+00  -8.81224447E+00  -1.02376205E+01  -9.58678650E+00  -1.27961026E+01  -9.27492607E+00  -6.92798190E+00  -1.41664887E+01  -1.12277243E+01  -4.76639462E+00  -9.91447346E+00  -2.74038164E+00  -3.95333627E+00  -6.61440631E+00  -4.25734732E+00  -2.32809772E+00  -4.74160529E+00  -5.35194747E+00  -4.42100538E+00  -6.34858468E+00  -7.70121510E+01  -7.51968017E+01  -5.79634006E+00  -7.31626528E+00  -9.47792200E+00  -3.36466670E+00  -2.55158190E+00  -8.22300435E+00  -3.90717314E+00  -3.51999003E+01  -9.79867711E+00  -7.01441089E+00  -2.40890247E+00  -2.45409071E+01  -8.14031046E+00  -1.05069551E+01  -9.12564998E+00  -7.63885423E+00  -9.67752606E+00  -1.27549583E+01  -7.71239466E+00  -1.49468419E+01  -8.49242377E+01  -1.20149885E+01  -6.93310964E+00  -5.33835910E+00  -9.49769387E+00  -7.16408640E+00
