 TITLE = "Total Concentrations" 
VARIABLES = "X"          "Y"              "Z"            "H+"             "Al+++"          "CO2(aq)"        "Mg++"           "Ca++"           "Fe++"           "Fe+++"          "Ba++"           "Sr++"           "Cl-"            "F-"             "K+"             "HS-"            "Na+"            "SO4--"          "O2(aq)"         "B(OH)3(aq)"     "HPO4--"         "NO3-"           "H4SiO4(aq)"     "HNO3(aq)"       "Al(OH)2+"       "AlO2-"          "AlOH++"         "BaHCO3+"        "BaCl+"          "BaCO3(aq)"      "BaOH+"          "HCO3-"          "CO3--"          "CaCl+"          "CaCl2(aq)"      "CaOH+"          "CaSO4(aq)"      "FeCl+"          "FeCl2(aq)"      "FeOH+"          "FeSO4(aq)"      "OH-"            "S2O3--"         "H2S(aq)"        "H2PO4-"         "H3PO4(aq)"      "HAlO2(aq)"      "HSO4-"          "KCl(aq)"        "KOH(aq)"        "KSO4-"          "NH3(aq)"        "NaAlO2(aq)"     "NaOH(aq)"       "NaSO4-"         "H2(aq)"         "CaHPO4(aq)"     "CaPO4-"         "FeCO3(aq)"      "FeH2PO4+"       "FeHPO4(aq)"     "FePO4-"         "KHPO4-"         "PO4---"         "Sr(CO3)(aq)"    "SrHCO3+"        "SrCl+"          "SrOH+"          "SrSO4(aq)"      "AlH3SiO4++"     "Si2O2(OH)5-"    "Si2O3(OH)4--"   "Si3O5(OH)5---"  "Si3O6(OH)3---"  "Si4O12H4----"   "Si4O6(OH)6--"   "Si4O7(OH)6----" "Si4O8(OH)4----" "Si6O15------"   "SiF6--"        
 ZONE I=         200 , J=           1 , K=           1  F=POINT
   8.75000000E+00   5.00000000E-01   5.00000000E-01  -7.81177307E+00  -1.73626660E+01  -3.93740069E+00  -1.29411654E+00  -2.04424429E+00  -4.43161460E+00  -2.17810108E+01  -6.71260482E+00  -5.10352294E+00  -2.62115493E-01  -4.16749363E+00  -1.95204661E+00  -1.00593254E+01  -3.35545357E-01  -1.83620572E+00  -7.74473459E+00  -3.39794256E+00  -5.87594253E+00  -4.40893793E+00  -3.39255655E+00  -1.40963640E+01  -1.45678500E+01  -1.20394881E+01  -1.55166135E+01  -8.92591467E+00  -8.30746024E+00  -1.01684973E+01  -1.40589365E+01  -2.33808058E+00  -4.46853523E+00  -3.28616661E+00  -4.11699608E+00  -8.44514701E+00  -3.01334453E+00  -5.74336882E+00  -7.82739231E+00  -7.23020149E+00  -5.32300493E+00  -6.73830131E+00  -1.50313888E+02  -1.08627755E+01  -7.07162058E+00  -1.31668819E+01  -1.31937720E+01  -8.60028367E+00  -3.20739738E+00  -9.72283908E+00  -3.68522851E+00  -6.46945753E+01  -1.36487147E+01  -8.16001044E+00  -1.91232331E+00  -4.61561887E+01  -6.64617409E+00  -7.53023132E+00  -5.03258846E+00  -9.40265145E+00  -8.03259364E+00  -7.89895840E+00  -8.17596483E+00  -9.59748506E+00  -8.48462899E+00  -7.23213259E+00  -6.36338501E+00  -1.21656241E+01  -6.20353670E+00  -1.67726578E+01  -7.41567190E+00  -1.04419327E+01  -1.53986995E+01  -1.53989399E+01  -2.09093623E+01  -1.25567758E+01  -2.08009919E+01  -2.08012577E+01  -3.03913566E+01  -3.32031435E+01
   2.62500000E+01   5.00000000E-01   5.00000000E-01  -7.57373752E+00  -1.60186944E+01  -3.72322622E+00  -1.29672213E+00  -2.03622566E+00  -4.09872989E+00  -2.11307819E+01  -6.71275343E+00  -5.10389805E+00  -2.62118479E-01  -4.16749120E+00  -1.95229794E+00  -1.00900330E+01  -3.35345437E-01  -1.83175072E+00  -7.74473677E+00  -3.39794013E+00  -5.89293664E+00  -4.40893551E+00  -3.21860614E+00  -1.38457645E+01  -1.35909572E+01  -1.14627761E+01  -1.43634773E+01  -8.91896403E+00  -8.30093559E+00  -1.03812383E+01  -1.42061427E+01  -2.34402949E+00  -4.68997155E+00  -3.27782022E+00  -4.12737505E+00  -8.59645311E+00  -3.00498137E+00  -5.39593513E+00  -7.49679367E+00  -7.08044528E+00  -4.98631463E+00  -6.91359704E+00  -1.48981483E+02  -1.06857188E+01  -6.86095776E+00  -1.27137312E+01  -1.24214655E+01  -8.34359585E+00  -3.20869851E+00  -9.89225751E+00  -3.68518797E+00  -6.40768940E+01  -1.30677384E+01  -8.34543677E+00  -1.91856586E+00  -4.58812752E+01  -6.65105702E+00  -7.75206930E+00  -4.93135714E+00  -8.85967585E+00  -7.72777048E+00  -7.83210903E+00  -8.17358725E+00  -9.82913552E+00  -8.69252969E+00  -7.22143024E+00  -6.36291665E+00  -1.23193984E+01  -6.19927607E+00  -1.54036546E+01  -7.27783376E+00  -1.04999558E+01  -1.54831712E+01  -1.54834193E+01  -2.10226590E+01  -1.22910243E+01  -2.09148578E+01  -2.09151354E+01  -3.05403548E+01  -3.21533239E+01
   4.37500000E+01   5.00000000E-01   5.00000000E-01  -7.45282796E+00  -1.55187277E+01  -3.62387363E+00  -1.29913678E+00  -2.02838520E+00  -3.91249142E+00  -2.08312468E+01  -6.71294945E+00  -5.10434019E+00  -2.62107767E-01  -4.16747385E+00  -1.95256526E+00  -1.01061318E+01  -3.35149264E-01  -1.82762450E+00  -7.74472403E+00  -3.39792278E+00  -5.90708141E+00  -4.40891816E+00  -3.10488167E+00  -1.37120729E+01  -1.32248195E+01  -1.12637627E+01  -1.39375450E+01  -8.91022194E+00  -8.29412491E+00  -1.04757756E+01  -1.42374531E+01  -2.34848737E+00  -4.79350974E+00  -3.26920627E+00  -4.13689008E+00  -8.63172954E+00  -2.99660420E+00  -5.19482299E+00  -7.31197665E+00  -6.96076789E+00  -4.79606519E+00  -6.97287677E+00  -1.47891505E+02  -1.06103055E+01  -6.76405800E+00  -1.24912032E+01  -1.21431424E+01  -8.20396883E+00  -3.20962896E+00  -9.94541650E+00  -3.68502077E+00  -6.35794461E+01  -1.28641064E+01  -8.41414144E+00  -1.92453027E+00  -4.56089345E+01  -6.65272782E+00  -7.85371496E+00  -4.85817768E+00  -8.57717010E+00  -7.56630642E+00  -7.79144931E+00  -8.16797735E+00  -9.94150698E+00  -8.78229643E+00  -7.20892090E+00  -6.36209683E+00  -1.23571399E+01  -6.19505359E+00  -1.48235330E+01  -7.14398318E+00  -1.04456055E+01  -1.53990452E+01  -1.53992991E+01  -2.09112121E+01  -1.20331072E+01  -2.08039765E+01  -2.08042634E+01  -3.03519956E+01  -3.16300496E+01
   6.12500000E+01   5.00000000E-01   5.00000000E-01  -7.37074225E+00  -1.52656700E+01  -3.56160137E+00  -1.30143374E+00  -2.02071678E+00  -3.78274341E+00  -2.06475141E+01  -6.71316047E+00  -5.10481487E+00  -2.62083928E-01  -4.16744223E+00  -1.95290199E+00  -1.01154943E+01  -3.34958344E-01  -1.82380835E+00  -7.74469702E+00  -3.39789117E+00  -5.91926801E+00  -4.40888654E+00  -3.03161413E+00  -1.36169984E+01  -1.30289263E+01  -1.11585124E+01  -1.37200186E+01  -8.90020823E+00  -8.28700715E+00  -1.05309067E+01  -1.42311114E+01  -2.35199107E+00  -4.85796914E+00  -3.26033357E+00  -4.14556631E+00  -8.62925369E+00  -2.98820524E+00  -5.04989074E+00  -7.18281445E+00  -6.85930513E+00  -4.66210028E+00  -6.99441288E+00  -1.46887215E+02  -1.05661306E+01  -6.70352437E+00  -1.23436106E+01  -1.19965838E+01  -8.10309752E+00  -3.21025555E+00  -9.96065312E+00  -3.68477600E+00  -6.31238883E+01  -1.27538994E+01  -8.44442558E+00  -1.93021796E+00  -4.53391269E+01  -6.65208828E+00  -7.91437690E+00  -4.80173545E+00  -8.38757520E+00  -7.45893917E+00  -7.76602475E+00  -8.16010264E+00  -1.00137802E+01  -8.83272443E+00  -7.19512448E+00  -6.36090458E+00  -1.23570947E+01  -6.19082933E+00  -1.44936822E+01  -7.05287798E+00  -1.03959329E+01  -1.53219073E+01  -1.53221654E+01  -2.08091227E+01  -1.18605471E+01  -2.07024490E+01  -2.07027429E+01  -3.01774976E+01  -3.13004291E+01
   7.87500000E+01   5.00000000E-01   5.00000000E-01  -7.30442615E+00  -1.50967403E+01  -3.51391839E+00  -1.30365475E+00  -2.01321354E+00  -3.68302731E+00  -2.05104311E+01  -6.71337828E+00  -5.10531235E+00  -2.62047539E-01  -4.16739695E+00  -1.95331061E+00  -1.01219295E+01  -3.34771687E-01  -1.82028409E+00  -7.74465634E+00  -3.39784588E+00  -5.93057300E+00  -4.40884125E+00  -2.98394503E+00  -1.35375003E+01  -1.28865900E+01  -1.10764181E+01  -1.35711682E+01  -8.88947093E+00  -8.27958913E+00  -1.05702130E+01  -1.42101416E+01  -2.35507859E+00  -4.90691962E+00  -3.25121291E+00  -4.15343399E+00  -8.61205722E+00  -2.97978541E+00  -4.93469662E+00  -7.08288330E+00  -6.77264479E+00  -4.55797016E+00  -7.00123026E+00  -1.45922383E+02  -1.05339752E+01  -6.65739677E+00  -1.22259529E+01  -1.18881491E+01  -8.01792844E+00  -3.21059779E+00  -9.96100947E+00  -3.68445695E+00  -6.26871325E+01  -1.26665272E+01  -8.45934260E+00  -1.93563266E+00  -4.50718163E+01  -6.65023375E+00  -7.95820647E+00  -4.75917161E+00  -8.24246925E+00  -7.38029882E+00  -7.75352243E+00  -8.15106907E+00  -1.00700669E+01  -8.86739356E+00  -7.18058961E+00  -6.35934729E+00  -1.23422894E+01  -6.18659849E+00  -1.42594694E+01  -6.99784441E+00  -1.03673073E+01  -1.52763152E+01  -1.52765761E+01  -2.07491289E+01  -1.17600008E+01  -2.06430128E+01  -2.06433119E+01  -3.00659970E+01  -3.10574673E+01
   9.62500000E+01   5.00000000E-01   5.00000000E-01  -7.24770003E+00  -1.49783608E+01  -3.47481476E+00  -1.30582316E+00  -2.00586878E+00  -3.60217129E+00  -2.04014669E+01  -6.71360129E+00  -5.10582980E+00  -2.61999155E-01  -4.16733854E+00  -1.95376696E+00  -1.01264805E+01  -3.34586953E-01  -1.81703435E+00  -7.74460254E+00  -3.39778748E+00  -5.94130053E+00  -4.40878285E+00  -2.95113731E+00  -1.34674130E+01  -1.27765792E+01  -1.10085807E+01  -1.34635932E+01  -8.87817190E+00  -8.27188542E+00  -1.06000171E+01  -1.41807019E+01  -2.35789434E+00  -4.94666230E+00  -3.24185590E+00  -4.16052503E+00  -8.58629876E+00  -2.97134955E+00  -4.83808626E+00  -7.00104773E+00  -6.69578803E+00  -4.47251557E+00  -6.99948000E+00  -1.44984530E+02  -1.05087292E+01  -6.61981837E+00  -1.21262076E+01  -1.18027806E+01  -7.94228435E+00  -3.21064966E+00  -9.95262819E+00  -3.68404248E+00  -6.22629686E+01  -1.25931065E+01  -8.46507095E+00  -1.94077876E+00  -4.48069690E+01  -6.64749034E+00  -7.99170985E+00  -4.72564788E+00  -8.12482172E+00  -7.31953358E+00  -7.74927173E+00  -8.14118448E+00  -1.01168296E+01  -8.89262505E+00  -7.16547890E+00  -6.35744027E+00  -1.23188848E+01  -6.18236739E+00  -1.40827129E+01  -6.96357514E+00  -1.03505882E+01  -1.52485601E+01  -1.52488227E+01  -2.07129501E+01  -1.17008569E+01  -2.06073874E+01  -2.06076902E+01  -2.99900867E+01  -3.08657842E+01
   1.13750000E+02   5.00000000E-01   5.00000000E-01  -7.19739355E+00  -1.48955642E+01  -3.44123526E+00  -1.30795913E+00  -1.99867622E+00  -3.53427909E+00  -2.03111180E+01  -6.71382899E+00  -5.10636546E+00  -2.61939295E-01  -4.16726754E+00  -1.95424566E+00  -1.01297476E+01  -3.34401712E-01  -1.81404301E+00  -7.74453615E+00  -3.39771647E+00  -5.95164405E+00  -4.40871184E+00  -2.92634813E+00  -1.34035798E+01  -1.26902546E+01  -1.09526755E+01  -1.33854937E+01  -8.86641964E+00  -8.26391117E+00  -1.06235796E+01  -1.41459427E+01  -2.36052901E+00  -4.98043588E+00  -3.23227397E+00  -4.16687051E+00  -8.55512849E+00  -2.96290338E+00  -4.75418025E+00  -6.93144661E+00  -6.62600244E+00  -4.39985319E+00  -6.99230487E+00  -1.44067206E+02  -1.04878483E+01  -6.58783041E+00  -1.20382591E+01  -1.17350038E+01  -7.87299791E+00  -3.21040338E+00  -9.93864192E+00  -3.68351096E+00  -6.18481963E+01  -1.25313280E+01  -8.46477955E+00  -1.94566112E+00  -4.45445517E+01  -6.64407311E+00  -8.01827261E+00  -4.69853822E+00  -8.02577599E+00  -7.27095649E+00  -7.75075728E+00  -8.13064367E+00  -1.01574111E+01  -8.91167827E+00  -7.14990155E+00  -6.35519941E+00  -1.22900341E+01  -6.17814397E+00  -1.39447279E+01  -6.93954194E+00  -1.03384053E+01  -1.52275880E+01  -1.52278512E+01  -2.06858458E+01  -1.16620617E+01  -2.05808321E+01  -2.05811372E+01  -2.99276659E+01  -3.07059281E+01
   1.31250000E+02   5.00000000E-01   5.00000000E-01  -7.15128102E+00  -1.48367972E+01  -3.41106869E+00  -1.31007893E+00  -1.99163001E+00  -3.47583667E+00  -2.02327147E+01  -6.71406106E+00  -5.10691780E+00  -2.61868439E-01  -4.16718441E+00  -1.95472824E+00  -1.01322320E+01  -3.34214142E-01  -1.81129488E+00  -7.74445762E+00  -3.39763334E+00  -5.96179643E+00  -4.40862871E+00  -2.90559718E+00  -1.33437879E+01  -1.26205020E+01  -1.09060144E+01  -1.33275397E+01  -8.85432227E+00  -8.25568103E+00  -1.06432171E+01  -1.41080705E+01  -2.36307349E+00  -5.01053555E+00  -3.22247822E+00  -4.17250048E+00  -8.52075275E+00  -2.95445280E+00  -4.67948061E+00  -6.87059958E+00  -6.56199336E+00  -4.33648164E+00  -6.98190400E+00  -1.43165846E+02  -1.04696328E+01  -6.55941748E+00  -1.19578793E+01  -1.16799250E+01  -7.80784656E+00  -3.20985732E+00  -9.92124585E+00  -3.68284776E+00  -6.14405604E+01  -1.24785187E+01  -8.46069309E+00  -1.95028523E+00  -4.42845319E+01  -6.64019584E+00  -8.04033420E+00  -4.67665392E+00  -7.93980110E+00  -7.23126177E+00  -7.75690019E+00  -8.11964651E+00  -1.01942097E+01  -8.92686827E+00  -7.13396635E+00  -6.35264007E+00  -1.22579463E+01  -6.17393624E+00  -1.38321626E+01  -6.91999718E+00  -1.03272241E+01  -1.52080986E+01  -1.52083618E+01  -2.06607479E+01  -1.16321228E+01  -2.05562786E+01  -2.05565848E+01  -2.98681413E+01  -3.05650849E+01
   1.48750000E+02   5.00000000E-01   5.00000000E-01  -7.10789427E+00  -1.47937977E+01  -3.38294542E+00  -1.31219393E+00  -1.98472466E+00  -3.42459249E+00  -2.01618598E+01  -6.71429739E+00  -5.10748553E+00  -2.61787026E-01  -4.16708959E+00  -1.95520291E+00  -1.01343001E+01  -3.34023092E-01  -1.80877552E+00  -7.74436741E+00  -3.39753852E+00  -5.97191873E+00  -4.40853389E+00  -2.88671663E+00  -1.32865817E+01  -1.25619837E+01  -1.08661719E+01  -1.32829347E+01  -8.84197229E+00  -8.24720927E+00  -1.06604732E+01  -1.40685350E+01  -2.36560361E+00  -5.03848453E+00  -3.21247944E+00  -4.17744396E+00  -8.48462102E+00  -2.94600381E+00  -4.61175122E+00  -6.81628745E+00  -6.50297122E+00  -4.28016176E+00  -6.96971990E+00  -1.42277409E+02  -1.04530047E+01  -6.53328935E+00  -1.18823221E+01  -1.16336696E+01  -7.74536536E+00  -3.20901590E+00  -9.90188466E+00  -3.68204505E+00  -6.10385633E+01  -1.24322680E+01  -8.45427920E+00  -1.95465725E+00  -4.40268778E+01  -6.63603983E+00  -8.05954391E+00  -4.65929575E+00  -7.86335395E+00  -7.19837406E+00  -7.76709426E+00  -8.10836659E+00  -1.02288350E+01  -8.93973754E+00  -7.11776639E+00  -6.34977717E+00  -1.22240736E+01  -6.16975218E+00  -1.37360131E+01  -6.90206070E+00  -1.03156206E+01  -1.51879567E+01  -1.51882194E+01  -2.06348081E+01  -1.16052825E+01  -2.05308786E+01  -2.05311850E+01  -2.98072481E+01  -3.04352797E+01
   1.66250000E+02   5.00000000E-01   5.00000000E-01  -7.06627528E+00  -1.47606407E+01  -3.35599016E+00  -1.31431152E+00  -1.97795499E+00  -3.37902147E+00  -2.00956864E+01  -6.71453797E+00  -5.10806749E+00  -2.61695463E-01  -4.16698348E+00  -1.95566287E+00  -1.01362097E+01  -3.33827929E-01  -1.80647129E+00  -7.74426592E+00  -3.39743241E+00  -5.98213973E+00  -4.40842778E+00  -2.86863233E+00  -1.32310149E+01  -1.25106788E+01  -1.08310196E+01  -1.32467093E+01  -8.82944661E+00  -8.23850967E+00  -1.06763668E+01  -1.40282765E+01  -2.36818018E+00  -5.06528174E+00  -3.20228808E+00  -4.18172891E+00  -8.44767330E+00  -2.93756240E+00  -4.54948173E+00  -6.76701611E+00  -6.44836293E+00  -4.22938045E+00  -6.95668588E+00  -1.41399872E+02  -1.04372868E+01  -6.50863293E+00  -1.18098283E+01  -1.15931701E+01  -7.68459952E+00  -3.20788787E+00  -9.88149824E+00  -3.68110005E+00  -6.06412181E+01  -1.23904626E+01  -8.44649568E+00  -1.95878376E+00  -4.37715580E+01  -6.63175336E+00  -8.07700773E+00  -4.64596540E+00  -7.79409517E+00  -7.17091172E+00  -7.78091683E+00  -8.09694904E+00  -1.02623545E+01  -8.95130351E+00  -7.10137914E+00  -6.34662515E+00  -1.21893587E+01  -6.16559971E+00  -1.36501970E+01  -6.88452980E+00  -1.03033379E+01  -1.51667781E+01  -1.51670399E+01  -2.06075135E+01  -1.15791376E+01  -2.05041189E+01  -2.05044248E+01  -2.97442226E+01  -3.03116691E+01
   1.83750000E+02   5.00000000E-01   5.00000000E-01  -7.02579896E+00  -1.47330553E+01  -3.32964804E+00  -1.31643640E+00  -1.97131615E+00  -3.33804425E+00  -2.00323263E+01  -6.71478290E+00  -5.10866265E+00  -2.61594127E-01  -4.16686647E+00  -1.95610466E+00  -1.01381402E+01  -3.33628358E-01  -1.80436931E+00  -7.74415352E+00  -3.39731540E+00  -5.99256171E+00  -4.40831078E+00  -2.85089115E+00  -1.31764736E+01  -1.24635552E+01  -1.07987527E+01  -1.32152149E+01  -8.81680976E+00  -8.22959549E+00  -1.06915719E+01  -1.39879027E+01  -2.37085231E+00  -5.09158214E+00  -3.19191420E+00  -4.18538227E+00  -8.41051721E+00  -2.92913456E+00  -4.49160682E+00  -6.72173588E+00  -6.39770821E+00  -4.18307002E+00  -6.94340316E+00  -1.40531883E+02  -1.04220557E+01  -6.48494106E+00  -1.17392768E+01  -1.15560145E+01  -7.62492728E+00  -3.20648465E+00  -9.86069710E+00  -3.68001337E+00  -6.02478709E+01  -1.23513120E+01  -8.43796753E+00  -1.96267169E+00  -4.35185418E+01  -6.62745748E+00  -8.09347133E+00  -4.63626514E+00  -7.73043708E+00  -7.14791192E+00  -7.79803097E+00  -8.08551472E+00  -1.02954771E+01  -8.96223885E+00  -7.08486967E+00  -6.34319788E+00  -1.21544116E+01  -6.16148659E+00  -1.35705754E+01  -6.86711097E+00  -1.02906959E+01  -1.51450431E+01  -1.51453038E+01  -2.05795040E+01  -1.15531035E+01  -2.04766393E+01  -2.04769443E+01  -2.96800296E+01  -3.01913595E+01
   2.01250000E+02   5.00000000E-01   5.00000000E-01  -6.98615826E+00  -1.47089035E+01  -3.30366309E+00  -1.31857125E+00  -1.96480349E+00  -3.30087396E+00  -1.99708652E+01  -6.71503239E+00  -5.10927013E+00  -2.61483368E-01  -4.16673891E+00  -1.95652628E+00  -1.01401814E+01  -3.33424246E-01  -1.80245751E+00  -7.74403057E+00  -3.39718784E+00  -6.00324597E+00  -4.40818321E+00  -2.83329802E+00  -1.31226616E+01  -1.24190777E+01  -1.07684280E+01  -1.31866182E+01  -8.80410740E+00  -8.22047953E+00  -1.07064260E+01  -1.39477038E+01  -2.37365078E+00  -5.11770505E+00  -3.18136750E+00  -4.18842989E+00  -8.37344289E+00  -2.92072626E+00  -4.43735302E+00  -6.67968827E+00  -6.35052139E+00  -4.14045494E+00  -6.93015580E+00  -1.39672726E+02  -1.04071153E+01  -6.46198294E+00  -1.16701405E+01  -1.15209701E+01  -7.56604503E+00  -3.20481850E+00  -9.83977545E+00  -3.67878720E+00  -5.98581861E+01  -1.23138871E+01  -8.42900166E+00  -1.96632812E+00  -4.32677992E+01  -6.62323142E+00  -8.10932046E+00  -4.62975295E+00  -7.67136098E+00  -7.12866286E+00  -7.81803271E+00  -8.07414386E+00  -1.03285534E+01  -8.97287986E+00  -7.06828412E+00  -6.33950877E+00  -1.21195248E+01  -6.15742052E+00  -1.34950838E+01  -6.84970905E+00  -1.02778948E+01  -1.51230528E+01  -1.51233124E+01  -2.05511804E+01  -1.15269921E+01  -2.04488406E+01  -2.04491443E+01  -2.96152745E+01  -3.00729845E+01
   2.18750000E+02   5.00000000E-01   5.00000000E-01  -6.94721678E+00  -1.46872519E+01  -3.27793790E+00  -1.32071771E+00  -1.95841263E+00  -3.26691831E+00  -1.99109009E+01  -6.71528674E+00  -5.10988917E+00  -2.61363516E-01  -4.16660112E+00  -1.95692651E+00  -1.01423717E+01  -3.33215528E-01  -1.80072461E+00  -7.74389739E+00  -3.39705005E+00  -6.01422703E+00  -4.40804542E+00  -2.81576433E+00  -1.30694525E+01  -1.23765743E+01  -1.07396251E+01  -1.31601195E+01  -8.79137316E+00  -8.21117405E+00  -1.07210846E+01  -1.39078000E+01  -2.37659500E+00  -5.14378850E+00  -3.17065721E+00  -4.19089653E+00  -8.33657029E+00  -2.91234336E+00  -4.38614081E+00  -6.64030808E+00  -6.30634079E+00  -4.10095391E+00  -6.91705801E+00  -1.38822031E+02  -1.03923883E+01  -6.43967104E+00  -1.16022057E+01  -1.14874970E+01  -7.50781989E+00  -3.20290179E+00  -9.81885784E+00  -3.67742458E+00  -5.94719991E+01  -1.22777810E+01  -8.41973420E+00  -1.96976017E+00  -4.30193003E+01  -6.61912675E+00  -8.12474247E+00  -4.62599888E+00  -7.61618606E+00  -7.11262000E+00  -7.84051464E+00  -8.06288954E+00  -1.03617369E+01  -8.98338069E+00  -7.05165659E+00  -6.33557069E+00  -1.20848206E+01  -6.15340901E+00  -1.34227988E+01  -6.83227139E+00  -1.02650068E+01  -1.51009162E+01  -1.51011748E+01  -2.05226877E+01  -1.15007001E+01  -2.04208677E+01  -2.04211699E+01  -2.95501786E+01  -2.99559645E+01
   2.36250000E+02   5.00000000E-01   5.00000000E-01  -6.90884150E+00  -1.46670459E+01  -3.25238009E+00  -1.32287713E+00  -1.95213938E+00  -3.23571599E+00  -1.98520413E+01  -6.71554620E+00  -5.11051898E+00  -2.61234878E-01  -4.16645341E+00  -1.95730494E+00  -1.01447526E+01  -3.33002190E-01  -1.79916011E+00  -7.74375429E+00  -3.39690234E+00  -6.02554146E+00  -4.40789771E+00  -2.79829573E+00  -1.30167229E+01  -1.23352456E+01  -1.07117899E+01  -1.31347947E+01  -8.77864241E+00  -8.20169068E+00  -1.07357018E+01  -1.38683082E+01  -2.37970686E+00  -5.16997037E+00  -3.15979218E+00  -4.19280583E+00  -8.30001640E+00  -2.90399155E+00  -4.33752098E+00  -6.60315981E+00  -6.26483235E+00  -4.06411620E+00  -6.90422142E+00  -1.37979436E+02  -1.03778031E+01  -6.41792265E+00  -1.15352664E+01  -1.14549246E+01  -7.45012243E+00  -3.20074706E+00  -9.79806646E+00  -3.67592941E+00  -5.90891485E+01  -1.22424523E+01  -8.41029768E+00  -1.97297497E+00  -4.27730161E+01  -6.61519620E+00  -8.13992244E+00  -4.62470257E+00  -7.56436732E+00  -7.09937125E+00  -7.86519839E+00  -8.05180666E+00  -1.03951807E+01  -8.99389427E+00  -7.03502285E+00  -6.33139581E+00  -1.20504181E+01  -6.14945918E+00  -1.33527682E+01  -6.81493069E+00  -1.02522865E+01  -1.50790156E+01  -1.50792735E+01  -2.04945353E+01  -1.14744949E+01  -2.03932299E+01  -2.03935307E+01  -2.94855095E+01  -2.98398248E+01
   2.53750000E+02   5.00000000E-01   5.00000000E-01  -6.87099927E+00  -1.46480373E+01  -3.22698787E+00  -1.32505034E+00  -1.94597976E+00  -3.20690439E+00  -1.97941938E+01  -6.71581106E+00  -5.11115884E+00  -2.61097743E-01  -4.16629606E+00  -1.95766144E+00  -1.01473322E+01  -3.32784220E-01  -1.79775420E+00  -7.74360155E+00  -3.39674499E+00  -6.03720490E+00  -4.40774036E+00  -2.78089759E+00  -1.29644487E+01  -1.22948986E+01  -1.06847759E+01  -1.31104262E+01  -8.76594127E+00  -8.19204050E+00  -1.07503233E+01  -1.38292458E+01  -2.38299963E+00  -5.19628068E+00  -3.14878081E+00  -4.19418042E+00  -8.26379879E+00  -2.89567636E+00  -4.29114240E+00  -6.56790539E+00  -6.22566092E+00  -4.02958935E+00  -6.89165857E+00  -1.37144780E+02  -1.03633534E+01  -6.39673338E+00  -1.14692942E+01  -1.14230887E+01  -7.39292314E+00  -3.19836649E+00  -9.77742405E+00  -3.67430587E+00  -5.87095731E+01  -1.22077666E+01  -8.40072460E+00  -1.97597960E+00  -4.25289179E+01  -6.61147071E+00  -8.15492373E+00  -4.62555338E+00  -7.51553683E+00  -7.08858174E+00  -7.89178292E+00  -8.04092844E+00  -1.04289178E+01  -9.00446490E+00  -7.01840944E+00  -6.32699577E+00  -1.20163368E+01  -6.14557792E+00  -1.32847469E+01  -6.79771949E+00  -1.02397887E+01  -1.50574337E+01  -1.50576912E+01  -2.04668331E+01  -1.14484436E+01  -2.03660370E+01  -2.03663365E+01  -2.94214349E+01  -2.97244879E+01
   2.71250000E+02   5.00000000E-01   5.00000000E-01  -6.83366902E+00  -1.46300701E+01  -3.20176992E+00  -1.32723807E+00  -1.93992998E+00  -3.18019131E+00  -1.97373021E+01  -6.71608161E+00  -5.11180805E+00  -2.60952386E-01  -4.16612934E+00  -1.95799618E+00  -1.01501147E+01  -3.32561606E-01  -1.79649776E+00  -7.74343944E+00  -3.39657827E+00  -6.04922854E+00  -4.40757364E+00  -2.76358133E+00  -1.29126175E+01  -1.22554090E+01  -1.06584812E+01  -1.30868765E+01  -8.75329437E+00  -8.18223404E+00  -1.07649814E+01  -1.37906187E+01  -2.38648573E+00  -5.22273724E+00  -3.13763114E+00  -4.19504188E+00  -8.22792334E+00  -2.88740313E+00  -4.24672380E+00  -6.53427604E+00  -6.18854972E+00  -3.99709092E+00  -6.87937062E+00  -1.36317929E+02  -1.03490408E+01  -6.37610591E+00  -1.14042793E+01  -1.13918818E+01  -7.33620460E+00  -3.19577197E+00  -9.75694178E+00  -3.67255845E+00  -5.83332239E+01  -1.21736336E+01  -8.39103512E+00  -1.97878101E+00  -4.22869773E+01  -6.60797592E+00  -8.16979228E+00  -4.62829773E+00  -7.46940415E+00  -7.07998201E+00  -7.92002049E+00  -8.03028289E+00  -1.04629651E+01  -9.01512369E+00  -7.00184131E+00  -6.32238162E+00  -1.19825844E+01  -6.14177173E+00  -1.32185773E+01  -6.78067065E+00  -1.02275566E+01  -1.50362356E+01  -1.50364934E+01  -2.04396678E+01  -1.14226137E+01  -2.03393756E+01  -2.03396742E+01  -2.93580880E+01  -2.96099282E+01
   2.88750000E+02   5.00000000E-01   5.00000000E-01  -6.79682508E+00  -1.46129421E+01  -3.17673065E+00  -1.32944101E+00  -1.93398647E+00  -3.15533744E+00  -1.96812961E+01  -6.71635810E+00  -5.11246589E+00  -2.60799062E-01  -4.16595349E+00  -1.95830961E+00  -1.01531064E+01  -3.32334330E-01  -1.79538227E+00  -7.74326821E+00  -3.39640242E+00  -6.06162306E+00  -4.40739779E+00  -2.74636613E+00  -1.28612116E+01  -1.22166150E+01  -1.06327771E+01  -1.30639664E+01  -8.74072664E+00  -8.17228125E+00  -1.07797139E+01  -1.37524374E+01  -2.39017857E+00  -5.24936409E+00  -3.12635082E+00  -4.19541084E+00  -8.19240094E+00  -2.87917698E+00  -4.20403618E+00  -6.50205469E+00  -6.15327953E+00  -3.96639089E+00  -6.86736409E+00  -1.35498742E+02  -1.03348633E+01  -6.35603721E+00  -1.13402014E+01  -1.13611639E+01  -7.27994477E+00  -3.19297511E+00  -9.73663590E+00  -3.67069189E+00  -5.79600474E+01  -1.21399354E+01  -8.38125385E+00  -1.98138608E+00  -4.20471666E+01  -6.60473616E+00  -8.18457731E+00  -4.63274009E+00  -7.42572606E+00  -7.07335444E+00  -7.94971983E+00  -8.01989688E+00  -1.04973443E+01  -9.02590712E+00  -6.98534375E+00  -6.31756382E+00  -1.19491735E+01  -6.13804672E+00  -1.31540685E+01  -6.76383735E+00  -1.02156584E+01  -1.50155245E+01  -1.50157831E+01  -2.04131764E+01  -1.13971135E+01  -2.03133827E+01  -2.03136807E+01  -2.92956773E+01  -2.94961071E+01
   3.06250000E+02   5.00000000E-01   5.00000000E-01  -6.76043819E+00  -1.45964149E+01  -3.15187136E+00  -1.33165985E+00  -1.92814583E+00  -3.13214424E+00  -1.96260948E+01  -6.71664074E+00  -5.11313162E+00  -2.60638015E-01  -4.16576875E+00  -1.95860250E+00  -1.01563155E+01  -3.32102380E-01  -1.79439979E+00  -7.74308808E+00  -3.39621768E+00  -6.07439895E+00  -4.40721305E+00  -2.72927691E+00  -1.28102095E+01  -1.21783264E+01  -1.06075135E+01  -1.30414844E+01  -8.72826351E+00  -8.16219151E+00  -1.07945628E+01  -1.37147163E+01  -2.39409267E+00  -5.27619056E+00  -3.11494716E+00  -4.19530699E+00  -8.15724645E+00  -2.87100281E+00  -4.16289078E+00  -6.47106392E+00  -6.11967548E+00  -3.93729960E+00  -6.85564971E+00  -1.34687072E+02  -1.03208168E+01  -6.33651999E+00  -1.12770316E+01  -1.13307700E+01  -7.22411802E+00  -3.18998723E+00  -9.71652664E+00  -3.66871115E+00  -5.75899865E+01  -1.21065323E+01  -8.37140875E+00  -1.98380152E+00  -4.18094584E+01  -6.60177480E+00  -8.19933060E+00  -4.63872991E+00  -7.38429585E+00  -7.06852146E+00  -7.98073324E+00  -8.00979645E+00  -1.05320812E+01  -9.03685606E+00  -6.96894244E+00  -6.31255224E+00  -1.19161203E+01  -6.13440861E+00  -1.30910043E+01  -6.74728811E+00  -1.02041817E+01  -1.49954321E+01  -1.49956921E+01  -2.03875341E+01  -1.13720819E+01  -2.02882335E+01  -2.02885316E+01  -2.92344686E+01  -2.93829757E+01
   3.23750000E+02   5.00000000E-01   5.00000000E-01  -6.72447923E+00  -1.45802483E+01  -3.12719356E+00  -1.33389522E+00  -1.92240487E+00  -3.11044521E+00  -1.95716179E+01  -6.71692972E+00  -5.11380449E+00  -2.60469475E-01  -4.16557533E+00  -1.95887580E+00  -1.01597510E+01  -3.31865740E-01  -1.79354288E+00  -7.74289927E+00  -3.39602426E+00  -6.08756588E+00  -4.40701963E+00  -2.71234122E+00  -1.27595892E+01  -1.21403507E+01  -1.05825384E+01  -1.30192163E+01  -8.71593052E+00  -8.15197371E+00  -1.08095706E+01  -1.36774700E+01  -2.39824330E+00  -5.30324723E+00  -3.10342714E+00  -4.19474914E+00  -8.12247498E+00  -2.86288531E+00  -4.12313037E+00  -6.44115733E+00  -6.08759471E+00  -3.90965896E+00  -6.84423876E+00  -1.33882773E+02  -1.03068974E+01  -6.31754568E+00  -1.12147397E+01  -1.13005326E+01  -7.16869878E+00  -3.18681931E+00  -9.69663449E+00  -3.66662133E+00  -5.72229847E+01  -1.20732822E+01  -8.36152747E+00  -1.98603390E+00  -4.15738257E+01  -6.59911363E+00  -8.21410221E+00  -4.64614893E+00  -7.34493760E+00  -7.06533622E+00  -8.01294360E+00  -8.00000609E+00  -1.05672011E+01  -9.04801178E+00  -6.95266319E+00  -6.30735620E+00  -1.18834412E+01  -6.13086269E+00  -1.30291697E+01  -6.73109681E+00  -1.01932195E+01  -1.49760980E+01  -1.49763605E+01  -2.03629272E+01  -1.13476683E+01  -2.02641141E+01  -2.02644129E+01  -2.91747438E+01  -2.92704861E+01
   3.41250000E+02   5.00000000E-01   5.00000000E-01  -6.68892296E+00  -1.45642344E+01  -3.10270229E+00  -1.33614772E+00  -1.91676058E+00  -3.09009940E+00  -1.95177964E+01  -6.71722520E+00  -5.11448373E+00  -2.60293659E-01  -4.16537344E+00  -1.95913061E+00  -1.01634206E+01  -3.31624397E-01  -1.79280461E+00  -7.74270200E+00  -3.39582237E+00  -6.10113167E+00  -4.40681774E+00  -2.69558570E+00  -1.27093321E+01  -1.21025203E+01  -1.05577180E+01  -1.29969774E+01  -8.70375289E+00  -8.14163621E+00  -1.08247761E+01  -1.36407095E+01  -2.40264595E+00  -5.33056156E+00  -3.09179741E+00  -4.19375525E+00  -8.08809815E+00  -2.85482892E+00  -4.08462274E+00  -6.41221307E+00  -6.05691604E+00  -3.88333600E+00  -6.83313928E+00  -1.33085710E+02  -1.02931032E+01  -6.29910730E+00  -1.11533003E+01  -1.12703058E+01  -7.11366528E+00  -3.18348201E+00  -9.67697639E+00  -3.66442761E+00  -5.68589893E+01  -1.20400604E+01  -8.35163366E+00  -1.98808962E+00  -4.13402420E+01  -6.59677193E+00  -8.22893578E+00  -4.65490042E+00  -7.30750253E+00  -7.06367510E+00  -8.04625317E+00  -7.99054782E+00  -1.06027241E+01  -9.05941171E+00  -6.93653143E+00  -6.30198450E+00  -1.18511488E+01  -6.12741384E+00  -1.29683783E+01  -6.71533189E+00  -1.01828556E+01  -1.49576487E+01  -1.49579143E+01  -2.03395235E+01  -1.13240112E+01  -2.02411925E+01  -2.02414927E+01  -2.91167576E+01  -2.91586030E+01