 TITLE = "Total Concentrations" 
VARIABLES = "X"          "Y"              "Z"            "H+"             "Al+++"          "CO2(aq)"        "Mg++"           "Ca++"           "Fe++"           "Fe+++"          "Ba++"           "Sr++"           "Cl-"            "F-"             "K+"             "HS-"            "Na+"            "SO4--"          "O2(aq)"         "B(OH)3(aq)"     "HPO4--"         "NO3-"           "H4SiO4(aq)"     "HNO3(aq)"       "Al(OH)2+"       "AlO2-"          "AlOH++"         "BaHCO3+"        "BaCl+"          "BaCO3(aq)"      "BaOH+"          "HCO3-"          "CO3--"          "CaCl+"          "CaCl2(aq)"      "CaOH+"          "CaSO4(aq)"      "FeCl+"          "FeCl2(aq)"      "FeOH+"          "FeSO4(aq)"      "OH-"            "S2O3--"         "H2S(aq)"        "H2PO4-"         "H3PO4(aq)"      "HAlO2(aq)"      "HSO4-"          "KCl(aq)"        "KOH(aq)"        "KSO4-"          "NH3(aq)"        "NaAlO2(aq)"     "NaOH(aq)"       "NaSO4-"         "H2(aq)"         "CaHPO4(aq)"     "CaPO4-"         "FeCO3(aq)"      "FeH2PO4+"       "FeHPO4(aq)"     "FePO4-"         "KHPO4-"         "PO4---"         "Sr(CO3)(aq)"    "SrHCO3+"        "SrCl+"          "SrOH+"          "SrSO4(aq)"      "AlH3SiO4++"     "Si2O2(OH)5-"    "Si2O3(OH)4--"   "Si3O5(OH)5---"  "Si3O6(OH)3---"  "Si4O12H4----"   "Si4O6(OH)6--"   "Si4O7(OH)6----" "Si4O8(OH)4----" "Si6O15------"   "SiF6--"        
 ZONE I=         100 , J=           1 , K=           1  F=POINT
   1.75000000E+01   5.00000000E-01   5.00000000E-01  -7.54243698E+00  -1.54374340E+01  -3.69286742E+00  -1.30494252E+00  -2.03758654E+00  -3.11035135E+00  -1.21605503E+01  -6.71255476E+00  -5.10348297E+00  -2.62138144E-01  -4.16748106E+00  -1.95177853E+00  -1.00303082E+01  -3.35188273E-01  -1.83565270E+00  -7.74481292E+00  -3.39792999E+00  -5.96528782E+00  -4.40892536E+00  -3.37014565E+00  -1.38206585E+01  -1.31265319E+01  -1.10987359E+01  -1.38370361E+01  -8.93508211E+00  -8.30398670E+00  -1.04376364E+01  -1.42824664E+01  -2.35390784E+00  -4.74245523E+00  -3.27930318E+00  -4.11945764E+00  -8.66826714E+00  -3.00790866E+00  -4.41477411E+00  -6.50717027E+00  -6.15066348E+00  -4.00123476E+00  -6.97614904E+00  -1.49348969E+02  -1.05795753E+01  -6.89673868E+00  -1.27203881E+01  -1.20049187E+01  -8.32320879E+00  -3.20757280E+00  -9.95724641E+00  -3.68636363E+00  -6.42346168E+01  -1.27054979E+01  -8.40263413E+00  -1.91676125E+00  -4.60182634E+01  -6.72653751E+00  -7.86946447E+00  -3.99011931E+00  -7.90668493E+00  -6.80591774E+00  -6.94168531E+00  -8.25509670E+00  -9.94463295E+00  -8.75123854E+00  -7.23932556E+00  -6.36284723E+00  -1.23923547E+01  -6.20252158E+00  -1.50495981E+01  -7.62627963E+00  -1.09007986E+01  -1.60858818E+01  -1.60861263E+01  -2.18256788E+01  -1.29830565E+01  -2.17175934E+01  -2.17178654E+01  -3.17566007E+01  -3.21417877E+01
   5.25000000E+01   5.00000000E-01   5.00000000E-01  -7.41675929E+00  -1.51307499E+01  -3.61035808E+00  -1.31720008E+00  -2.02328061E+00  -2.82085961E+00  -1.22529445E+01  -6.71295475E+00  -5.10428840E+00  -2.62131921E-01  -4.16743256E+00  -1.95165692E+00  -9.97995865E+00  -3.34602670E-01  -1.82880774E+00  -7.74486010E+00  -3.39788149E+00  -6.02281704E+00  -4.40887686E+00  -3.28619983E+00  -1.36693539E+01  -1.28551473E+01  -1.09293036E+01  -1.35622569E+01  -8.91763355E+00  -8.29031486E+00  -1.05105467E+01  -1.42288860E+01  -2.36291415E+00  -4.83353826E+00  -3.26340866E+00  -4.13977274E+00  -8.62400361E+00  -2.99376319E+00  -4.09549320E+00  -6.22043092E+00  -5.87810452E+00  -3.70495523E+00  -6.97857015E+00  -1.47403772E+02  -1.04623020E+01  -6.84824907E+00  -1.25367443E+01  -1.17929670E+01  -8.16143712E+00  -3.20871944E+00  -9.94670076E+00  -3.68668883E+00  -6.33555684E+01  -1.25265773E+01  -8.42365643E+00  -1.92981733E+00  -4.54734810E+01  -6.76032009E+00  -7.98710279E+00  -3.81059208E+00  -7.56991616E+00  -6.59503718E+00  -6.85631971E+00  -8.27237081E+00  -1.00825965E+01  -8.81452086E+00  -7.21425622E+00  -6.36107085E+00  -1.23515509E+01  -6.19521476E+00  -1.46099691E+01  -7.52952456E+00  -1.08469543E+01  -1.59999993E+01  -1.60002555E+01  -2.17124770E+01  -1.28091604E+01  -2.16055228E+01  -2.16058134E+01  -3.15450618E+01  -3.17032828E+01
   8.75000000E+01   5.00000000E-01   5.00000000E-01  -7.31845111E+00  -1.49740115E+01  -3.54944667E+00  -1.32860021E+00  -2.00956877E+00  -2.66602673E+00  -1.22669861E+01  -6.71337967E+00  -5.10519044E+00  -2.62076005E-01  -4.16732927E+00  -1.95156808E+00  -9.93358252E+00  -3.34029719E-01  -1.82304106E+00  -7.74485265E+00  -3.39777820E+00  -6.06267768E+00  -4.40877357E+00  -3.24051862E+00  -1.35446187E+01  -1.26828695E+01  -1.08088482E+01  -1.34113298E+01  -8.89625094E+00  -8.27540898E+00  -1.05548677E+01  -1.41525423E+01  -2.36925693E+00  -4.89734252E+00  -3.24642011E+00  -4.15671246E+00  -8.55652992E+00  -2.97932112E+00  -3.90966220E+00  -6.06507710E+00  -5.71500970E+00  -3.54239753E+00  -6.95788433E+00  -1.45544972E+02  -1.03730265E+01  -6.80749502E+00  -1.23872140E+01  -1.16541119E+01  -8.02663599E+00  -3.20843948E+00  -9.91211591E+00  -3.68633181E+00  -6.25160827E+01  -1.23953070E+01  -8.41891294E+00  -1.94163898E+00  -4.49387572E+01  -6.77497739E+00  -8.05885235E+00  -3.73580192E+00  -7.37575118E+00  -6.49942434E+00  -6.85870726E+00  -8.27055546E+00  -1.01782228E+01  -8.84948528E+00  -7.18519674E+00  -6.35780468E+00  -1.22874548E+01  -6.18774579E+00  -1.43380013E+01  -7.48453038E+00  -1.08205051E+01  -1.59551056E+01  -1.59553675E+01  -2.16540722E+01  -1.27382611E+01  -2.15482334E+01  -2.15485345E+01  -3.14150947E+01  -3.14042949E+01
   1.22500000E+02   5.00000000E-01   5.00000000E-01  -7.22550807E+00  -1.48400947E+01  -3.48969875E+00  -1.33909897E+00  -1.99640991E+00  -2.56713118E+00  -1.22682627E+01  -6.71382322E+00  -5.10617454E+00  -2.61973899E-01  -4.16717549E+00  -1.95150869E+00  -9.89398413E+00  -3.33463215E-01  -1.81818735E+00  -7.74479484E+00  -3.39762442E+00  -6.09287030E+00  -4.40861979E+00  -3.20083178E+00  -1.34245641E+01  -1.25264833E+01  -1.06979477E+01  -1.32791154E+01  -8.87244920E+00  -8.25939537E+00  -1.05939703E+01  -1.40752767E+01  -2.37430154E+00  -4.95705053E+00  -3.22844541E+00  -4.17054982E+00  -8.48769743E+00  -2.96461738E+00  -3.77870171E+00  -5.96268329E+00  -5.60461094E+00  -3.43492417E+00  -6.93586690E+00  -1.43727586E+02  -1.02927633E+01  -6.76062604E+00  -1.22360571E+01  -1.15270991E+01  -7.89679783E+00  -3.20687798E+00  -9.87539369E+00  -3.68529259E+00  -6.16939184E+01  -1.22724091E+01  -8.41041392E+00  -1.95225273E+00  -4.44138237E+01  -6.77870809E+00  -8.11491727E+00  -3.71047851E+00  -7.23160576E+00  -6.44849505E+00  -6.90027782E+00  -8.25787588E+00  -1.02613394E+01  -8.87949372E+00  -7.15366993E+00  -6.35318297E+00  -1.22219318E+01  -6.18015785E+00  -1.40959325E+01  -7.44865372E+00  -1.08007084E+01  -1.59200969E+01  -1.59203602E+01  -2.16089823E+01  -1.26850948E+01  -2.15042414E+01  -2.15045471E+01  -3.13045475E+01  -3.11251401E+01
   1.57500000E+02   5.00000000E-01   5.00000000E-01  -7.13545941E+00  -1.47149369E+01  -3.42958728E+00  -1.34872784E+00  -1.98376765E+00  -2.49883941E+00  -1.22641611E+01  -6.71428560E+00  -5.10723181E+00  -2.61828989E-01  -4.16697489E+00  -1.95147548E+00  -9.86039357E+00  -3.32900803E-01  -1.81412237E+00  -7.74469032E+00  -3.39742382E+00  -6.11791068E+00  -4.40841919E+00  -3.16353253E+00  -1.33068246E+01  -1.23767716E+01  -1.05921254E+01  -1.31540018E+01  -8.84712486E+00  -8.24239611E+00  -1.06310836E+01  -1.39994116E+01  -2.37880184E+00  -5.01571318E+00  -3.20958539E+00  -4.18153871E+00  -8.41983380E+00  -2.94971264E+00  -3.67740840E+00  -5.88818856E+00  -5.52399637E+00  -3.35730601E+00  -6.91477568E+00  -1.41945790E+02  -1.02184711E+01  -6.70982913E+00  -1.20830946E+01  -1.14051415E+01  -7.76947665E+00  -3.20416854E+00  -9.83890743E+00  -3.68359929E+00  -6.08863718E+01  -1.21535416E+01  -8.40063593E+00  -1.96171513E+00  -4.38984220E+01  -6.77621133E+00  -8.16246609E+00  -3.71258616E+00  -7.11432301E+00  -6.42156054E+00  -6.96282133E+00  -8.23905159E+00  -1.03387662E+01  -8.90776532E+00  -7.12057815E+00  -6.34733398E+00  -1.21573253E+01  -6.17252174E+00  -1.38682138E+01  -7.41704732E+00  -1.07850869E+01  -1.58912651E+01  -1.58915273E+01  -2.15722563E+01  -1.26399874E+01  -2.14685948E+01  -2.14689010E+01  -3.12060450E+01  -3.08528783E+01
   1.92500000E+02   5.00000000E-01   5.00000000E-01  -7.04809926E+00  -1.45974764E+01  -3.36961954E+00  -1.35758467E+00  -1.97161124E+00  -2.44947205E+00  -1.22556318E+01  -6.71476789E+00  -5.10835389E+00  -2.61644485E-01  -4.16673064E+00  -1.95146550E+00  -9.83187839E+00  -3.32339550E-01  -1.81075145E+00  -7.74454220E+00  -3.39717958E+00  -6.14054368E+00  -4.40817495E+00  -3.12829983E+00  -1.31912886E+01  -1.22329902E+01  -1.04908605E+01  -1.30351130E+01  -8.82094553E+00  -8.22452249E+00  -1.06669515E+01  -1.39250111E+01  -2.38329572E+00  -5.07391446E+00  -3.18993417E+00  -4.18991344E+00  -8.35301127E+00  -2.93468017E+00  -3.59422066E+00  -5.83016139E+00  -5.46164398E+00  -3.29797433E+00  -6.89461874E+00  -1.40198361E+02  -1.01491958E+01  -6.65777299E+00  -1.19308837E+01  -1.12876622E+01  -7.64450725E+00  -3.20043248E+00  -9.80276902E+00  -3.68129568E+00  -6.00930053E+01  -1.20383049E+01  -8.38978524E+00  -1.97009581E+00  -4.33923020E+01  -6.77039874E+00  -8.20461383E+00  -3.73125246E+00  -7.01488241E+00  -6.40980370E+00  -7.03773407E+00  -8.21700985E+00  -1.04133010E+01  -8.93503309E+00  -7.08659329E+00  -6.34037394E+00  -1.20937183E+01  -6.16491617E+00  -1.36533392E+01  -7.38917537E+00  -1.07732145E+01  -1.58679778E+01  -1.58682379E+01  -2.15430448E+01  -1.26018864E+01  -2.14404432E+01  -2.14407475E+01  -3.11183608E+01  -3.05868659E+01
   2.27500000E+02   5.00000000E-01   5.00000000E-01  -6.96333537E+00  -1.44872686E+01  -3.31025685E+00  -1.36579512E+00  -1.95991596E+00  -2.41263616E+00  -1.22434129E+01  -6.71527147E+00  -5.10953270E+00  -2.61423381E-01  -4.16644553E+00  -1.95147610E+00  -9.80773243E+00  -3.31776138E-01  -1.80799902E+00  -7.74435320E+00  -3.39689447E+00  -6.16247700E+00  -4.40788984E+00  -3.09495706E+00  -1.30779486E+01  -1.20947873E+01  -1.03938094E+01  -1.29220759E+01  -8.79442035E+00  -8.20587532E+00  -1.07020536E+01  -1.38520317E+01  -2.38817496E+00  -5.13199154E+00  -3.16958052E+00  -4.19589116E+00  -8.28719818E+00  -2.91959771E+00  -3.52285191E+00  -5.78243392E+00  -5.41120538E+00  -3.25064476E+00  -6.87530449E+00  -1.38484348E+02  -1.00843090E+01  -6.60619157E+00  -1.17811511E+01  -1.11743641E+01  -7.52184457E+00  -3.19577993E+00  -9.76698022E+00  -3.67843190E+00  -5.93134961E+01  -1.19264641E+01  -8.37794987E+00  -1.97746852E+00  -4.28952214E+01  -6.76313056E+00  -8.24330961E+00  -3.76062274E+00  -6.92861560E+00  -6.40864620E+00  -7.12053709E+00  -8.19362149E+00  -1.04866029E+01  -8.96176551E+00  -7.05222775E+00  -6.33240781E+00  -1.20310849E+01  -6.15741912E+00  -1.34504703E+01  -7.36468178E+00  -1.07647351E+01  -1.58497076E+01  -1.58499658E+01  -2.15206385E+01  -1.25700978E+01  -2.14190764E+01  -2.14193780E+01  -3.10404758E+01  -3.03270140E+01
   2.62500000E+02   5.00000000E-01   5.00000000E-01  -6.88102625E+00  -1.43835792E+01  -3.25179824E+00  -1.37348645E+00  -1.94866302E+00  -2.38447617E+00  -1.22283823E+01  -6.71579774E+00  -5.11076053E+00  -2.61168446E-01  -4.16612200E+00  -1.95150503E+00  -9.78744231E+00  -3.31207381E-01  -1.80580190E+00  -7.74412565E+00  -3.39657094E+00  -6.18478853E+00  -4.40756631E+00  -3.06325354E+00  -1.29667387E+01  -1.19616216E+01  -1.03005484E+01  -1.28142766E+01  -8.76794633E+00  -8.18654569E+00  -1.07368140E+01  -1.37804847E+01  -2.39373069E+00  -5.19024185E+00  -3.14860885E+00  -4.19967376E+00  -8.22242163E+00  -2.90454271E+00  -3.45954251E+00  -5.74135493E+00  -5.36891953E+00  -3.21156350E+00  -6.85680354E+00  -1.36802738E+02  -1.00233130E+01  -6.55612953E+00  -1.16348766E+01  -1.10648119E+01  -7.40139529E+00  -3.19031085E+00  -9.73159544E+00  -3.67505902E+00  -5.85474745E+01  -1.18176935E+01  -8.36526347E+00  -1.98390622E+00  -4.24069457E+01  -6.75562492E+00  -8.27990872E+00  -3.79732017E+00  -6.85270281E+00  -6.41540775E+00  -7.20869827E+00  -8.17011000E+00  -1.05597614E+01  -8.98837558E+00  -7.01788106E+00  -6.32353039E+00  -1.19694523E+01  -6.15010309E+00  -1.32584725E+01  -7.34311572E+00  -1.07592511E+01  -1.58358642E+01  -1.58361218E+01  -2.15042445E+01  -1.25437371E+01  -2.14037010E+01  -2.14040000E+01  -3.09712410E+01  -3.00729224E+01
   2.97500000E+02   5.00000000E-01   5.00000000E-01  -6.80101638E+00  -1.42855888E+01  -3.19445097E+00  -1.38077418E+00  -1.93783916E+00  -2.36252059E+00  -1.22113942E+01  -6.71634806E+00  -5.11202994E+00  -2.60882243E-01  -4.16576225E+00  -1.95155036E+00  -9.77062693E+00  -3.30630512E-01  -1.80410530E+00  -7.74386161E+00  -3.39621118E+00  -6.20815894E+00  -4.40720655E+00  -3.03293497E+00  -1.28575709E+01  -1.18328975E+01  -1.02106381E+01  -1.27110303E+01  -8.74184360E+00  -8.16661573E+00  -1.07716005E+01  -1.37104006E+01  -2.40018768E+00  -5.24892131E+00  -3.12709957E+00  -4.20144925E+00  -8.15873177E+00  -2.88958962E+00  -3.40190737E+00  -5.70463828E+00  -5.33242442E+00  -3.17835181E+00  -6.83911246E+00  -1.35152518E+02  -9.96581639E+00  -6.50821095E+00  -1.14925975E+01  -1.09585310E+01  -7.28305001E+00  -3.18411594E+00  -9.69668640E+00  -3.67122605E+00  -5.77945589E+01  -1.17116417E+01  -8.35187079E+00  -1.98947856E+00  -4.19272476E+01  -6.74869161E+00  -8.31537138E+00  -3.83929243E+00  -6.78528830E+00  -6.42838636E+00  -7.30067744E+00  -8.14728579E+00  -1.06334933E+01  -9.01522044E+00  -6.98387533E+00  -6.31382716E+00  -1.19088661E+01  -6.14303289E+00  -1.30761537E+01  -7.32403717E+00  -1.07563932E+01  -1.58258991E+01  -1.58261584E+01  -2.14931265E+01  -1.25219401E+01  -2.13935800E+01  -2.13938780E+01  -3.09095889E+01  -2.98240940E+01
   3.32500000E+02   5.00000000E-01   5.00000000E-01  -6.72316119E+00  -1.41925550E+01  -3.13838012E+00  -1.38775686E+00  -1.92743593E+00  -2.34511906E+00  -1.21931764E+01  -6.71692362E+00  -5.11333375E+00  -2.60567154E-01  -4.16536827E+00  -1.95161050E+00  -9.75699407E+00  -3.30043281E-01  -1.80286064E+00  -7.74356291E+00  -3.39581720E+00  -6.23300826E+00  -4.40681257E+00  -3.00377890E+00  -1.27503610E+01  -1.17080763E+01  -1.01236836E+01  -1.26117179E+01  -8.71637989E+00  -8.14615928E+00  -1.08067245E+01  -1.36418040E+01  -2.40772811E+00  -5.30824224E+00  -3.10512923E+00  -4.20139262E+00  -8.09617588E+00  -2.87480842E+00  -3.34837387E+00  -5.67080156E+00  -5.30016905E+00  -3.14944230E+00  -6.82222796E+00  -1.33532718E+02  -9.91151667E+00  -6.46280161E+00  -1.13545966E+01  -1.08550947E+01  -7.16670691E+00  -3.17727740E+00  -9.66231706E+00  -3.66697858E+00  -5.70543812E+01  -1.16079935E+01  -8.33790320E+00  -1.99425066E+00  -4.14559071E+01  -6.74286941E+00  -8.35037506E+00  -3.88524821E+00  -6.72507962E+00  -6.44643262E+00  -7.39547561E+00  -8.12568408E+00  -1.07082529E+01  -9.04260055E+00  -6.95047988E+00  -6.30337504E+00  -1.18493649E+01  -6.13626467E+00  -1.29024357E+01  -7.30706253E+00  -1.07558411E+01  -1.58193370E+01  -1.58196009E+01  -2.14866457E+01  -1.25039548E+01  -2.13880744E+01  -2.13883737E+01  -3.08545950E+01  -2.95800739E+01
   3.67500000E+02   5.00000000E-01   5.00000000E-01  -6.64733421E+00  -1.41038622E+01  -3.08373206E+00  -1.39451523E+00  -1.91744874E+00  -2.33113738E+00  -1.21743052E+01  -6.71752540E+00  -5.11466493E+00  -2.60225421E-01  -4.16494191E+00  -1.95168418E+00  -9.74631221E+00  -3.29443962E-01  -1.80202423E+00  -7.74323119E+00  -3.39539084E+00  -6.25957926E+00  -4.40638621E+00  -2.97560117E+00  -1.26450362E+01  -1.15867121E+01  -1.00393554E+01  -1.25158289E+01  -8.69178687E+00  -8.12524250E+00  -1.08424488E+01  -1.35747056E+01  -2.41650709E+00  -5.36838097E+00  -3.08277031E+00  -4.19966639E+00  -8.03479021E+00  -2.86026362E+00  -3.29787758E+00  -5.63886258E+00  -5.27110139E+00  -3.12377404E+00  -6.80613886E+00  -1.31942425E+02  -9.86017988E+00  -6.42010018E+00  -1.12210011E+01  -1.07541517E+01  -7.05227834E+00  -3.16986967E+00  -9.62853629E+00  -3.66235832E+00  -5.63265941E+01  -1.15064910E+01  -8.32347185E+00  -1.99828279E+00  -4.09927111E+01  -6.73850971E+00  -8.38539118E+00  -3.93436118E+00  -6.67113382E+00  -6.46872868E+00  -7.49240694E+00  -8.10564957E+00  -1.07843079E+01  -9.07076835E+00  -6.91792746E+00  -6.29224306E+00  -1.17909726E+01  -6.12984592E+00  -1.27364021E+01  -7.29187037E+00  -1.07573218E+01  -1.58157728E+01  -1.58160452E+01  -2.14842579E+01  -1.24891525E+01  -2.13866395E+01  -2.13869434E+01  -3.08054730E+01  -2.93404871E+01
   4.02500000E+02   5.00000000E-01   5.00000000E-01  -6.57342554E+00  -1.40190016E+01  -3.03064327E+00  -1.40111357E+00  -1.90787584E+00  -2.31977857E+00  -1.21552262E+01  -6.71815416E+00  -5.11601656E+00  -2.59859178E-01  -4.16448491E+00  -1.95177039E+00  -9.73839221E+00  -3.28831311E-01  -1.80155650E+00  -7.74286799E+00  -3.39493384E+00  -6.28799113E+00  -4.40592921E+00  -2.94825631E+00  -1.25415339E+01  -1.14684349E+01  -9.95737528E+00  -1.24229435E+01  -8.66827048E+00  -8.10392455E+00  -1.08789995E+01  -1.35091042E+01  -2.42666231E+00  -5.42948832E+00  -3.06009085E+00  -4.19642092E+00  -7.97460033E+00  -2.84601374E+00  -3.24968401E+00  -5.60816175E+00  -5.24449091E+00  -3.10061406E+00  -6.79082693E+00  -1.30380778E+02  -9.81162162E+00  -6.38019106E+00  -1.10918347E+01  -1.06554120E+01  -6.93968925E+00  -3.16196007E+00  -9.59537922E+00  -3.65740296E+00  -5.56108698E+01  -1.14069206E+01  -8.30866945E+00  -2.00163030E+00  -4.05374530E+01  -6.73583046E+00  -8.42074063E+00  -3.98610281E+00  -6.62273130E+00  -6.49466361E+00  -7.59097561E+00  -8.08739127E+00  -1.08617939E+01  -9.09993972E+00  -6.88642473E+00  -6.28049292E+00  -1.17337002E+01  -6.12381575E+00  -1.25772799E+01  -7.27820345E+00  -1.07606131E+01  -1.58148775E+01  -1.58151626E+01  -2.14855198E+01  -1.24770320E+01  -2.13888322E+01  -2.13891445E+01  -3.07615863E+01  -2.91050358E+01
   4.37500000E+02   5.00000000E-01   5.00000000E-01  -6.50133938E+00  -1.39375590E+01  -2.97924393E+00  -1.40760194E+00  -1.89871739E+00  -2.31047267E+00  -1.21362727E+01  -6.71881046E+00  -5.11738172E+00  -2.59470482E-01  -4.16399893E+00  -1.95186843E+00  -9.73307438E+00  -3.28204512E-01  -1.80142154E+00  -7.74247475E+00  -3.39444786E+00  -6.31827489E+00  -4.40544323E+00  -2.92162975E+00  -1.24398003E+01  -1.13529432E+01  -9.87751279E+00  -1.23327220E+01  -8.64601697E+00  -8.08225817E+00  -1.09165743E+01  -1.34449882E+01  -2.43831937E+00  -5.49169675E+00  -3.03715409E+00  -4.19179468E+00  -7.91562246E+00  -2.83211095E+00  -3.20327908E+00  -5.57825320E+00  -5.21982092E+00  -3.07944780E+00  -6.77626865E+00  -1.28846964E+02  -9.76569233E+00  -6.34307782E+00  -1.09670488E+01  -1.05586404E+01  -6.82887488E+00  -3.15360940E+00  -9.56286966E+00  -3.65214643E+00  -5.49068974E+01  -1.13091094E+01  -8.29357294E+00  -2.00434387E+00  -4.00899324E+01  -6.73495159E+00  -8.45663168E+00  -4.04014049E+00  -6.57929903E+00  -6.52375911E+00  -7.69080405E+00  -8.07101893E+00  -1.09407517E+01  -9.13030207E+00  -6.85615823E+00  -6.26817962E+00  -1.16775477E+01  -6.11820549E+00  -1.24244203E+01  -7.26585548E+00  -1.07655325E+01  -1.58163813E+01  -1.58166840E+01  -2.14900680E+01  -1.24671934E+01  -2.13942887E+01  -2.13946140E+01  -3.07224148E+01  -2.88734837E+01
   4.72500000E+02   5.00000000E-01   5.00000000E-01  -6.43099100E+00  -1.38591959E+01  -2.92965791E+00  -1.41401848E+00  -1.88997445E+00  -2.30280608E+00  -1.21176888E+01  -6.71949468E+00  -5.11875354E+00  -2.59061339E-01  -4.16348558E+00  -1.95197782E+00  -9.73021946E+00  -3.27563116E-01  -1.80158673E+00  -7.74205284E+00  -3.39393451E+00  -6.35039797E+00  -4.40492989E+00  -2.89563039E+00  -1.23397877E+01  -1.12399907E+01  -9.79957790E+00  -1.22448894E+01  -8.62519595E+00  -8.06029026E+00  -1.09553478E+01  -1.33823392E+01  -2.45159416E+00  -5.55512511E+00  -3.01401814E+00  -4.18591454E+00  -7.85786545E+00  -2.81860079E+00  -3.15829901E+00  -5.54883516E+00  -5.19672085E+00  -3.05990920E+00  -6.76243751E+00  -1.27340207E+02  -9.72226592E+00  -6.30870536E+00  -1.08465422E+01  -1.04636473E+01  -6.71977809E+00  -3.14487250E+00  -9.53102288E+00  -3.64661912E+00  -5.42143801E+01  -1.12129190E+01  -8.27824671E+00  -2.00646983E+00  -3.96499551E+01  -6.73591973E+00  -8.49318782E+00  -4.09627272E+00  -6.54036208E+00  -6.55562394E+00  -7.79159034E+00  -8.05656861E+00  -1.10211542E+01  -9.16202002E+00  -6.82729740E+00  -6.25535202E+00  -1.16225070E+01  -6.11303934E+00  -1.22772748E+01  -7.25465922E+00  -1.07719284E+01  -1.58200602E+01  -1.58203856E+01  -2.14976000E+01  -1.24593142E+01  -2.14027067E+01  -2.14030498E+01  -3.06875283E+01  -2.86456393E+01
   5.07500000E+02   5.00000000E-01   5.00000000E-01  -6.36230416E+00  -1.37836302E+01  -2.88200111E+00  -1.42039161E+00  -1.88164828E+00  -2.29647468E+00  -1.20996503E+01  -6.72020713E+00  -5.12012520E+00  -2.58633718E-01  -4.16294643E+00  -1.95209830E+00  -9.72970237E+00  -3.26906994E-01  -1.80202248E+00  -7.74160359E+00  -3.39339537E+00  -6.38428224E+00  -4.40439074E+00  -2.87018527E+00  -1.22414519E+01  -1.11293730E+01  -9.72341217E+00  -1.21592191E+01  -8.60596147E+00  -8.03806251E+00  -1.09954754E+01  -1.33211341E+01  -2.46659327E+00  -5.61988116E+00  -2.99073571E+00  -4.17889598E+00  -7.80133256E+00  -2.80552217E+00  -3.11448397E+00  -5.51970422E+00  -5.17492205E+00  -3.04173454E+00  -6.74930613E+00  -1.25859766E+02  -9.68123151E+00  -6.27697584E+00  -1.07301749E+01  -1.03702777E+01  -6.61234695E+00  -3.13579877E+00  -9.49984824E+00  -3.64084822E+00  -5.35330328E+01  -1.11182371E+01  -8.26274541E+00  -2.00805049E+00  -3.92173327E+01  -6.73872640E+00  -8.53046867E+00  -4.15438572E+00  -6.50551256E+00  -6.58992560E+00  -7.89308262E+00  -8.04402161E+00  -1.11029266E+01  -9.19523876E+00  -6.79999572E+00  -6.24205339E+00  -1.15685648E+01  -6.10833512E+00  -1.21353729E+01  -7.24447812E+00  -1.07796742E+01  -1.58257274E+01  -1.58260810E+01  -2.15078632E+01  -1.24531324E+01  -2.14138338E+01  -2.14142000E+01  -3.06565690E+01  -2.84213413E+01
   5.42500000E+02   5.00000000E-01   5.00000000E-01  -6.29520913E+00  -1.37106237E+01  -2.83637914E+00  -1.42674192E+00  -1.87373965E+00  -2.29125211E+00  -1.20822808E+01  -6.72094813E+00  -5.12149002E+00  -2.58189570E-01  -4.16238303E+00  -1.95222981E+00  -9.73140774E+00  -3.26236282E-01  -1.80270204E+00  -7.74112835E+00  -3.39283196E+00  -6.41981767E+00  -4.40382734E+00  -2.84523515E+00  -1.21447516E+01  -1.10209181E+01  -9.64888270E+00  -1.20755218E+01  -8.58845170E+00  -8.01561196E+00  -1.10370940E+01  -1.32613468E+01  -2.48341303E+00  -5.68606190E+00  -2.96735397E+00  -4.17084350E+00  -7.74602256E+00  -2.79290737E+00  -3.07164691E+00  -5.49072458E+00  -5.15422798E+00  -3.02473146E+00  -6.73684756E+00  -1.24404929E+02  -9.64248759E+00  -6.24776087E+00  -1.06177785E+01  -1.02784033E+01  -6.50653320E+00  -3.12643266E+00  -9.46935091E+00  -3.63485804E+00  -5.28625804E+01  -1.10249717E+01  -8.24711603E+00  -2.00912447E+00  -3.87918825E+01  -6.74332196E+00  -8.56848577E+00  -4.21442309E+00  -6.47439020E+00  -6.62637272E+00  -7.99506330E+00  -8.03331901E+00  -1.11859615E+01  -9.23008537E+00  -6.77439035E+00  -6.22832203E+00  -1.15157039E+01  -6.10410505E+00  -1.19983055E+01  -7.23519938E+00  -1.07886626E+01  -1.58332254E+01  -1.58336127E+01  -2.15206441E+01  -1.24484331E+01  -2.14274565E+01  -2.14278514E+01  -3.06292357E+01  -2.82004492E+01
   5.77500000E+02   5.00000000E-01   5.00000000E-01  -6.22964151E+00  -1.36399719E+01  -2.79288479E+00  -1.43308378E+00  -1.86624843E+00  -2.28696798E+00  -1.20656644E+01  -6.72171814E+00  -5.12284155E+00  -2.57730828E-01  -4.16179687E+00  -1.95237247E+00  -9.73522677E+00  -3.25551340E-01  -1.80360128E+00  -7.74062841E+00  -3.39224580E+00  -6.45687299E+00  -4.40324118E+00  -2.82073140E+00  -1.20496464E+01  -1.09144794E+01  -9.57587735E+00  -1.19936370E+01  -8.57278782E+00  -7.99297155E+00  -1.10803225E+01  -1.32029500E+01  -2.50213771E+00  -5.75375266E+00  -2.94391456E+00  -4.16185105E+00  -7.69193054E+00  -2.78078231E+00  -3.02965217E+00  -5.46180713E+00  -5.13449369E+00  -3.00875780E+00  -6.72503607E+00  -1.22975012E+02  -9.60593819E+00  -6.22091133E+00  -1.05091658E+01  -1.01879168E+01  -6.40229130E+00  -3.11681408E+00  -9.43953308E+00  -3.62867027E+00  -5.22027562E+01  -1.09330467E+01  -8.23139928E+00  -2.00972707E+00  -3.83734274E+01  -6.74962659E+00  -8.60721492E+00  -4.27636388E+00  -6.44667031E+00  -6.66470433E+00  -8.09733967E+00  -8.02437298E+00  -1.12701302E+01  -9.26666869E+00  -6.75060104E+00  -6.21419182E+00  -1.14639052E+01  -6.10035646E+00  -1.18657133E+01  -7.22672871E+00  -1.07988025E+01  -1.58424196E+01  -1.58428465E+01  -2.15357604E+01  -1.24450378E+01  -2.14433927E+01  -2.14438221E+01  -3.06052719E+01  -2.79828360E+01
   6.12500000E+02   5.00000000E-01   5.00000000E-01  -6.16554134E+00  -1.35714986E+01  -2.75159547E+00  -1.43942665E+00  -1.85917329E+00  -2.28349265E+00  -1.20498557E+01  -6.72251796E+00  -5.12417381E+00  -2.57259411E-01  -4.16118945E+00  -1.95252656E+00  -9.74105509E+00  -3.24852706E-01  -1.80469852E+00  -7.74010507E+00  -3.39163838E+00  -6.49530404E+00  -4.40263376E+00  -2.79663379E+00  -1.19560974E+01  -1.08099313E+01  -9.50430113E+00  -1.19134280E+01  -8.55907233E+00  -7.97017066E+00  -1.11252603E+01  -1.31459154E+01  -2.52283730E+00  -5.82302514E+00  -2.92045370E+00  -4.15200261E+00  -7.63904828E+00  -2.76916677E+00  -2.98840072E+00  -5.43289507E+00  -5.11561138E+00  -2.99370703E+00  -6.71384741E+00  -1.21569356E+02  -9.57149039E+00  -6.19626540E+00  -1.04041375E+01  -1.00987284E+01  -6.29957786E+00  -3.10697877E+00  -9.41039464E+00  -3.62230432E+00  -5.15533016E+01  -1.08423991E+01  -8.21563056E+00  -2.00989054E+00  -3.79617952E+01  -6.75753914E+00  -8.64660591E+00  -4.34020629E+00  -6.42205657E+00  -6.70468344E+00  -8.19973824E+00  -8.01707595E+00  -1.13552914E+01  -9.30507823E+00  -6.72872858E+00  -6.19969279E+00  -1.14131479E+01  -6.09709260E+00  -1.17372780E+01  -7.21898669E+00  -1.08100150E+01  -1.58531944E+01  -1.58536667E+01  -2.15530547E+01  -1.24427970E+01  -2.14614856E+01  -2.14619553E+01  -3.05844568E+01  -2.77683848E+01
   6.47500000E+02   5.00000000E-01   5.00000000E-01  -6.10285276E+00  -1.35050511E+01  -2.71257087E+00  -1.44577630E+00  -1.85251155E+00  -2.28072661E+00  -1.20348860E+01  -6.72334880E+00  -5.12548143E+00  -2.56777225E-01  -4.16056222E+00  -1.95269246E+00  -9.74879123E+00  -3.24141062E-01  -1.80597436E+00  -7.73955965E+00  -3.39101115E+00  -6.53496034E+00  -4.40200653E+00  -2.77290913E+00  -1.18640665E+01  -1.07071656E+01  -9.43407365E+00  -1.18347779E+01  -8.54738736E+00  -7.94723564E+00  -1.11719858E+01  -1.30902146E+01  -2.54556520E+00  -5.89393513E+00  -2.89700240E+00  -4.14137272E+00  -7.58736443E+00  -2.75807486E+00  -2.94781982E+00  -5.40395396E+00  -5.09750020E+00  -2.97949816E+00  -6.70325888E+00  -1.20187322E+02  -9.53905284E+00  -6.17365499E+00  -1.03024892E+01  -1.00107627E+01  -6.19835155E+00  -3.09695870E+00  -9.38193351E+00  -3.61577753E+00  -5.09139656E+01  -1.07529764E+01  -8.19984045E+00  -2.00964440E+00  -3.75568192E+01  -6.76694425E+00  -8.68658996E+00  -4.40595543E+00  -6.40027692E+00  -6.74609332E+00  -8.30210143E+00  -8.01130774E+00  -1.14412981E+01  -9.34538274E+00  -6.70885312E+00  -6.18485177E+00  -1.13634103E+01  -6.09431336E+00  -1.16127173E+01  -7.21190624E+00  -1.08222318E+01  -1.58654493E+01  -1.58659729E+01  -2.15723905E+01  -1.24415855E+01  -2.14815988E+01  -2.14821148E+01  -3.05665986E+01  -2.75569870E+01
   6.82500000E+02   5.00000000E-01   5.00000000E-01  -6.04152385E+00  -1.34404988E+01  -2.67585114E+00  -1.45213568E+00  -1.84625917E+00  -2.27859292E+00  -1.20207690E+01  -6.72421253E+00  -5.12675994E+00  -2.56286154E-01  -4.15991659E+00  -1.95287068E+00  -9.75833562E+00  -3.23417198E-01  -1.80741156E+00  -7.73899343E+00  -3.39036552E+00  -6.57569009E+00  -4.40136091E+00  -2.74953044E+00  -1.17735165E+01  -1.06060900E+01  -9.36512713E+00  -1.17575884E+01  -8.53779305E+00  -7.92419026E+00  -1.12205548E+01  -1.30358188E+01  -2.57035605E+00  -5.96652006E+00  -2.87358678E+00  -4.13002716E+00  -7.53686453E+00  -2.74751541E+00  -2.90785591E+00  -5.37496493E+00  -5.08009881E+00  -2.96606869E+00  -6.69324896E+00  -1.18828298E+02  -9.50853503E+00  -6.15291105E+00  -1.02040165E+01  -9.92395680E+00  -6.09857311E+00  -3.08678237E+00  -9.35414568E+00  -3.60910537E+00  -5.02845046E+01  -1.06647350E+01  -8.18405500E+00  -2.00901563E+00  -3.71583374E+01  -6.77771792E+00  -8.72708554E+00  -4.47361409E+00  -6.38108122E+00  -6.78873531E+00  -8.40428554E+00  -8.00694118E+00  -1.15280018E+01  -9.38762856E+00  -6.69103268E+00  -6.16969289E+00  -1.13146702E+01  -6.09201593E+00  -1.14917814E+01  -7.20543100E+00  -1.08353934E+01  -1.58790968E+01  -1.58796776E+01  -2.15936487E+01  -1.24412990E+01  -2.15036135E+01  -2.15041819E+01  -3.05515296E+01  -2.73485417E+01