 TITLE = "Total Concentrations" 
VARIABLES = "X"          "Y"              "Z"            "H+"             "Al+++"          "CO2(aq)"        "Mg++"           "Ca++"           "Fe++"           "Fe+++"          "Ba++"           "Sr++"           "Cl-"            "F-"             "K+"             "Na+"            "SO4--"          "O2(aq)"         "B(OH)3(aq)"     "HPO4--"         "NO3-"           "H4SiO4(aq)"     "HNO3(aq)"       "Al(OH)2+"       "AlO2-"          "AlOH++"         "BaHCO3+"        "BaCl+"          "BaCO3(aq)"      "BaOH+"          "HCO3-"          "CO3--"          "CaCl+"          "CaCl2(aq)"      "CaOH+"          "CaSO4(aq)"      "FeCl+"          "FeCl2(aq)"      "FeOH+"          "FeSO4(aq)"      "OH-"            "HS-"            "S2O3--"         "H2PO4-"         "H3PO4(aq)"      "HAlO2(aq)"      "HSO4-"          "KCl(aq)"        "KOH(aq)"        "KSO4-"          "NH3(aq)"        "NaAlO2(aq)"     "NaOH(aq)"       "NaSO4-"         "H2(aq)"         "CaHPO4(aq)"     "CaPO4-"         "FeCO3(aq)"      "FeH2PO4+"       "FeHPO4(aq)"     "FePO4-"         "KHPO4-"         "PO4---"         "Sr(CO3)(aq)"    "SrHCO3+"        "SrCl+"          "SrOH+"          "SrSO4(aq)"      "AlH3SiO4++"     "Si2O2(OH)5-"    "Si2O3(OH)4--"   "Si3O5(OH)5---"  "Si3O6(OH)3---"  "Si4O12H4----"   "Si4O6(OH)6--"   "Si4O7(OH)6----" "Si4O8(OH)4----" "Si6O15------"   "SiF6--"        
 ZONE I=         100 , J=           1 , K=           1  F=POINT
   1.75000000E+01   5.00000000E-01   5.00000000E-01  -7.62618692E+00  -1.50710032E+01  -3.76689847E+00  -1.29273464E+00  -1.49489159E+00  -4.73451211E+00  -1.42951716E+01  -6.71210837E+00  -5.12636633E+00  -2.63371188E-01  -4.16749098E+00  -1.95815320E+00  -3.45298510E-01  -1.54207815E+00  -3.74472739E+00  -3.39793991E+00  -6.00271976E+00  -4.40893528E+00  -3.56420098E+00  -1.39188657E+01  -1.26422383E+01  -1.04732829E+01  -1.34065207E+01  -8.93949388E+00  -8.32164295E+00  -1.03749484E+01  -1.42401430E+01  -2.34168042E+00  -4.64195070E+00  -2.74952043E+00  -3.59810744E+00  -8.07654808E+00  -2.20492785E+00  -6.05653278E+00  -8.15798653E+00  -7.71794847E+00  -5.36624770E+00  -6.91118451E+00  -1.52807857E+02  -1.57242288E+02  -7.02885681E+00  -1.29461530E+01  -1.14584756E+01  -8.13158956E+00  -3.22996195E+00  -9.91490722E+00  -3.41614477E+00  -7.24689709E+01  -1.21036846E+01  -8.35671144E+00  -1.64734439E+00  -4.81201629E+01  -6.25726110E+00  -7.31411198E+00  -5.54265164E+00  -9.67249412E+00  -8.49851490E+00  -8.54128045E+00  -8.32371430E+00  -9.88183352E+00  -8.71355008E+00  -7.26837406E+00  -6.40191044E+00  -1.23712660E+01  -5.96963637E+00  -1.48194996E+01  -7.92310067E+00  -1.11174653E+01  -1.63957053E+01  -1.63959471E+01  -2.22639908E+01  -1.35648634E+01  -2.21557179E+01  -2.21559859E+01  -3.22999515E+01  -3.26376037E+01
   5.25000000E+01   5.00000000E-01   5.00000000E-01  -7.51517922E+00  -1.49047320E+01  -3.68471560E+00  -1.29337070E+00  -1.42348515E+00  -4.43256265E+00  -1.41985382E+01  -6.71227652E+00  -5.13237747E+00  -2.63634950E-01  -4.16747746E+00  -1.96013811E+00  -3.47138286E-01  -1.48523259E+00  -3.74471387E+00  -3.39792639E+00  -6.03260322E+00  -4.40892176E+00  -3.45715941E+00  -1.37933327E+01  -1.25555760E+01  -1.05078195E+01  -1.32890990E+01  -8.92815127E+00  -8.31640462E+00  -1.04529805E+01  -1.42326872E+01  -2.34486388E+00  -4.72343460E+00  -2.68042235E+00  -3.55730823E+00  -8.01310870E+00  -2.09019653E+00  -5.73786312E+00  -7.86510512E+00  -7.45574368E+00  -5.01632261E+00  -6.93820510E+00  -1.51488752E+02  -1.55780903E+02  -6.96478653E+00  -1.27669565E+01  -1.14407511E+01  -7.94766438E+00  -3.23705211E+00  -9.93895713E+00  -3.37098523E+00  -7.18562098E+01  -1.21373315E+01  -8.40203559E+00  -1.61083770E+00  -4.77553023E+01  -6.21824161E+00  -7.35569683E+00  -5.34323777E+00  -9.30949882E+00  -8.24934525E+00  -8.40083431E+00  -8.33339625E+00  -9.98595420E+00  -8.79064884E+00  -7.25751950E+00  -6.41029912E+00  -1.23780909E+01  -5.92738796E+00  -1.45375440E+01  -7.77869715E+00  -1.10254497E+01  -1.62503529E+01  -1.62506042E+01  -2.20772453E+01  -1.32872011E+01  -2.19697347E+01  -2.19700173E+01  -3.19625245E+01  -3.21851331E+01
   8.75000000E+01   5.00000000E-01   5.00000000E-01  -7.43112000E+00  -1.48050758E+01  -3.62589587E+00  -1.29391970E+00  -1.41430364E+00  -4.25360398E+00  -1.40553352E+01  -6.71254233E+00  -5.13406881E+00  -2.63619317E-01  -4.16743786E+00  -1.96091508E+00  -3.46961459E-01  -1.47319432E+00  -3.74467428E+00  -3.39788680E+00  -6.04262568E+00  -4.40888217E+00  -3.39712302E+00  -1.36922812E+01  -1.24806397E+01  -1.05019701E+01  -1.32110873E+01  -8.91335012E+00  -8.30753283E+00  -1.04996569E+01  -1.41980888E+01  -2.34760814E+00  -4.78114856E+00  -2.67024093E+00  -3.57141175E+00  -7.98480621E+00  -2.07465578E+00  -5.53909320E+00  -7.68820980E+00  -7.28880157E+00  -4.82633119E+00  -6.94055454E+00  -1.50250100E+02  -1.54469700E+02  -6.90406709E+00  -1.26158867E+01  -1.14062209E+01  -7.83214196E+00  -3.23893940E+00  -9.93379789E+00  -3.36496042E+00  -7.12706768E+01  -1.21254842E+01  -8.41692742E+00  -1.61255498E+00  -4.73926432E+01  -6.21370809E+00  -7.40695664E+00  -5.23537525E+00  -9.07106517E+00  -8.09559980E+00  -8.33066142E+00  -8.31768308E+00  -1.00492912E+01  -8.83206444E+00  -7.23872763E+00  -6.41048573E+00  -1.23530780E+01  -5.91745422E+00  -1.43461736E+01  -7.70600831E+00  -1.09815754E+01  -1.61803618E+01  -1.61806193E+01  -2.19859627E+01  -1.31544525E+01  -2.18792077E+01  -2.18795007E+01  -3.17920907E+01  -3.18856484E+01
   1.22500000E+02   5.00000000E-01   5.00000000E-01  -7.35793792E+00  -1.47206241E+01  -3.57605609E+00  -1.29442237E+00  -1.41908420E+00  -4.12591360E+00  -1.39324857E+01  -6.71283528E+00  -5.13472101E+00  -2.63522249E-01  -4.16737367E+00  -1.96138876E+00  -3.46314583E-01  -1.47191559E+00  -3.74461008E+00  -3.39782260E+00  -6.04853030E+00  -4.40881797E+00  -3.35611626E+00  -1.36012397E+01  -1.24001965E+01  -1.04708184E+01  -1.31377617E+01  -8.89729261E+00  -8.29735833E+00  -1.05348487E+01  -1.41540851E+01  -2.35025802E+00  -4.82969357E+00  -2.67265571E+00  -3.59636838E+00  -7.96073534E+00  -2.08124700E+00  -5.39044089E+00  -7.55978574E+00  -7.16277635E+00  -4.69575779E+00  -6.93399065E+00  -1.49045874E+02  -1.53213309E+02  -6.84853534E+00  -1.24800243E+01  -1.13553544E+01  -7.73694704E+00  -3.23905947E+00  -9.91828440E+00  -3.36769739E+00  -7.07001620E+01  -1.20866642E+01  -8.42063520E+00  -1.62266663E+00  -4.70338809E+01  -6.21639212E+00  -7.45529250E+00  -5.16684262E+00  -8.88871740E+00  -7.98651703E+00  -8.29467223E+00  -8.29601239E+00  -1.01000236E+01  -8.86101904E+00  -7.21755697E+00  -6.40815731E+00  -1.23173257E+01  -5.91477842E+00  -1.41813924E+01  -7.66253315E+00  -1.09578754E+01  -1.61413915E+01  -1.61416528E+01  -2.19348283E+01  -1.30803351E+01  -2.18288215E+01  -2.18291215E+01  -3.16876542E+01  -3.16456209E+01
   1.57500000E+02   5.00000000E-01   5.00000000E-01  -7.29055097E+00  -1.46423667E+01  -3.53063205E+00  -1.29489599E+00  -1.42745894E+00  -4.02679062E+00  -1.38293777E+01  -6.71313865E+00  -5.13512773E+00  -2.63392240E-01  -4.16728619E+00  -1.96179061E+00  -3.45568896E-01  -1.47367783E+00  -3.74452260E+00  -3.39773512E+00  -6.05387906E+00  -4.40873049E+00  -3.32466742E+00  -1.35155456E+01  -1.23158846E+01  -1.04261696E+01  -1.30653434E+01  -8.88060893E+00  -8.28648038E+00  -1.05646361E+01  -1.41061372E+01  -2.35295540E+00  -4.87380909E+00  -2.67780499E+00  -3.62291178E+00  -7.93590498E+00  -2.09322999E+00  -5.26970941E+00  -7.45822814E+00  -7.06036234E+00  -4.59553160E+00  -6.92347491E+00  -1.47864106E+02  -1.51987187E+02  -6.79723482E+00  -1.23536798E+01  -1.12952715E+01  -7.64981442E+00  -3.23830001E+00  -9.89817899E+00  -3.37242567E+00  -7.01404954E+01  -1.20335468E+01  -8.41902404E+00  -1.63452400E+00  -4.66793835E+01  -6.22083343E+00  -7.49998144E+00  -5.12094361E+00  -8.73913776E+00  -7.90427281E+00  -8.27978247E+00  -8.27291217E+00  -1.01458641E+01  -8.88440305E+00  -7.19545292E+00  -6.40472831E+00  -1.22771153E+01  -5.91389107E+00  -1.40295440E+01  -7.63373337E+00  -1.09444964E+01  -1.61180732E+01  -1.61183362E+01  -2.19042882E+01  -1.30354585E+01  -2.17990219E+01  -2.17993260E+01  -3.16154534E+01  -3.14350307E+01
   1.92500000E+02   5.00000000E-01   5.00000000E-01  -7.22676749E+00  -1.45675113E+01  -3.48764939E+00  -1.29535024E+00  -1.43700980E+00  -3.94591747E+00  -1.37400920E+01  -6.71344903E+00  -5.13547565E+00  -2.63241094E-01  -4.16717662E+00  -1.96217964E+00  -3.44808992E-01  -1.47663970E+00  -3.74441303E+00  -3.39762555E+00  -6.05952826E+00  -4.40862092E+00  -3.29862457E+00  -1.34331325E+01  -1.22293907E+01  -1.03740487E+01  -1.29932639E+01  -8.86353322E+00  -8.27507118E+00  -1.05915023E+01  -1.40564952E+01  -2.35578356E+00  -4.91561352E+00  -2.68342341E+00  -3.64895443E+00  -7.91013568E+00  -2.10672076E+00  -5.16673179E+00  -7.37354459E+00  -6.97349826E+00  -4.51387141E+00  -6.91112157E+00  -1.46700786E+02  -1.50783377E+02  -6.74899846E+00  -1.22336022E+01  -1.12299380E+01  -7.56687425E+00  -3.23690884E+00  -9.87581930E+00  -3.37757136E+00  -6.95896522E+01  -1.19723933E+01  -8.41447188E+00  -1.64658076E+00  -4.63291808E+01  -6.22584513E+00  -7.54194526E+00  -5.08984081E+00  -8.61092071E+00  -7.83975228E+00  -8.27898873E+00  -8.24952237E+00  -1.01895980E+01  -8.90488948E+00  -7.17284438E+00  -6.40056581E+00  -1.22348962E+01  -5.91353530E+00  -1.38857335E+01  -7.61330956E+00  -1.09372119E+01  -1.61039271E+01  -1.61041904E+01  -2.18859274E+01  -1.30071529E+01  -2.17813934E+01  -2.17816995E+01  -3.15618084E+01  -3.12410293E+01
   2.27500000E+02   5.00000000E-01   5.00000000E-01  -7.16548372E+00  -1.44949738E+01  -3.44613753E+00  -1.29579130E+00  -1.44715300E+00  -3.87771756E+00  -1.36599524E+01  -6.71376622E+00  -5.13580740E+00  -2.63071998E-01  -4.16704603E+00  -1.96257229E+00  -3.44053216E-01  -1.48032981E+00  -3.74428244E+00  -3.39749496E+00  -6.06570793E+00  -4.40849033E+00  -3.27588613E+00  -1.33529503E+01  -1.21418410E+01  -1.03177348E+01  -1.29215463E+01  -8.84619302E+00  -8.26320011E+00  -1.06166632E+01  -1.40062454E+01  -2.35880115E+00  -4.95619263E+00  -2.68899430E+00  -3.67405665E+00  -7.88393577E+00  -2.12080550E+00  -5.07599643E+00  -7.30029732E+00  -6.89771670E+00  -4.44487274E+00  -6.89796911E+00  -1.45554170E+02  -1.49598614E+02  -6.70302524E+00  -1.21179360E+01  -1.11615969E+01  -7.48662416E+00  -3.23497850E+00  -9.85232671E+00  -3.38276512E+00  -6.90465181E+01  -1.19065684E+01  -8.40812774E+00  -1.65847599E+00  -4.59832234E+01  -6.23121442E+00  -7.58205370E+00  -5.06918689E+00  -8.49770614E+00  -7.78772360E+00  -8.28814461E+00  -8.22618978E+00  -1.02324572E+01  -8.92373658E+00  -7.14990606E+00  -6.39578647E+00  -1.21918064E+01  -5.91342549E+00  -1.37477666E+01  -7.59809223E+00  -1.09339045E+01  -1.60957430E+01  -1.60960055E+01  -2.18755206E+01  -1.29890655E+01  -2.17717106E+01  -2.17720170E+01  -3.15201258E+01  -3.10572342E+01
   2.62500000E+02   5.00000000E-01   5.00000000E-01  -7.10608810E+00  -1.44242637E+01  -3.40558998E+00  -1.29622359E+00  -1.45773591E+00  -3.81884044E+00  -1.35858879E+01  -6.71409085E+00  -5.13613184E+00  -2.62886119E-01  -4.16689539E+00  -1.96297404E+00  -3.43304912E-01  -1.48460008E+00  -3.74413180E+00  -3.39734432E+00  -6.07250005E+00  -4.40833969E+00  -3.25529074E+00  -1.32744228E+01  -1.20539494E+01  -1.02591099E+01  -1.28503085E+01  -8.82868259E+00  -8.25091071E+00  -1.06407931E+01  -1.39559652E+01  -2.36205484E+00  -4.99614883E+00  -2.69441029E+00  -3.69816246E+00  -7.85773935E+00  -2.13526654E+00  -4.99419600E+00  -7.23522732E+00  -6.83027037E+00  -4.38512213E+00  -6.88456889E+00  -1.44423289E+02  -1.48431214E+02  -6.65883399E+00  -1.20056225E+01  -1.10915700E+01  -7.40835404E+00  -3.23256231E+00  -9.82829980E+00  -3.38791901E+00  -6.85104298E+01  -1.18380029E+01  -8.40061518E+00  -1.67012691E+00  -4.56414443E+01  -6.23695334E+00  -7.62092345E+00  -5.05632258E+00  -8.39566561E+00  -7.74497691E+00  -8.30464793E+00  -8.20306974E+00  -1.02750733E+01  -8.94162667E+00  -7.12674459E+00  -6.39044642E+00  -1.21484404E+01  -5.91350244E+00  -1.36145011E+01  -7.58632836E+00  -1.09333970E+01  -1.60917464E+01  -1.60920076E+01  -2.18707174E+01  -1.29776901E+01  -2.17676226E+01  -2.17679280E+01  -3.14868123E+01  -3.08801795E+01
   2.97500000E+02   5.00000000E-01   5.00000000E-01  -7.04821873E+00  -1.43551307E+01  -3.36573784E+00  -1.29665051E+00  -1.46870714E+00  -3.76711864E+00  -1.35159634E+01  -6.71442368E+00  -5.13645014E+00  -2.62684134E-01  -4.16672557E+00  -1.96338722E+00  -3.42564123E-01  -1.48938012E+00  -3.74396198E+00  -3.39717450E+00  -6.07995025E+00  -4.40816987E+00  -3.23615837E+00  -1.31972176E+01  -1.19661663E+01  -1.01992945E+01  -1.27796575E+01  -8.81108299E+00  -8.23823876E+00  -1.06643012E+01  -1.39059794E+01  -2.36558509E+00  -5.03583553E+00  -2.69965834E+00  -3.72130239E+00  -7.83182955E+00  -2.15004820E+00  -4.91919920E+00  -7.17624394E+00  -6.76934208E+00  -4.33244966E+00  -6.87122592E+00  -1.43307492E+02  -1.47280134E+02  -6.61614939E+00  -1.18960536E+01  -1.10206617E+01  -7.33167371E+00  -3.22970195E+00  -9.80408008E+00  -3.39301029E+00  -6.79809640E+01  -1.17678560E+01  -8.39229976E+00  -1.68151573E+00  -4.53037734E+01  -6.24312196E+00  -7.65897281E+00  -5.04950621E+00  -8.30235617E+00  -7.70943407E+00  -8.32678189E+00  -8.18026737E+00  -1.03178029E+01  -8.95896875E+00  -7.10344538E+00  -6.38458603E+00  -1.21051313E+01  -5.91375898E+00  -1.34852724E+01  -7.57698525E+00  -1.09349874E+01  -1.60908815E+01  -1.60911412E+01  -2.18701157E+01  -1.29709639E+01  -2.17677271E+01  -2.17680309E+01  -3.14597414E+01  -3.07078746E+01
   3.32500000E+02   5.00000000E-01   5.00000000E-01  -6.99165041E+00  -1.42874338E+01  -3.32644223E+00  -1.29707480E+00  -1.48003934E+00  -3.72106998E+00  -1.34489613E+01  -6.71476551E+00  -5.13676185E+00  -2.62466583E-01  -4.16653737E+00  -1.96381298E+00  -3.41830213E-01  -1.49461987E+00  -3.74377378E+00  -3.39698630E+00  -6.08809409E+00  -4.40798167E+00  -3.21807405E+00  -1.31211359E+01  -1.18787769E+01  -1.01389730E+01  -1.27096721E+01  -8.79346849E+00  -8.22521655E+00  -1.06874535E+01  -1.38564758E+01  -2.36942916E+00  -5.07546985E+00  -2.70474610E+00  -3.74352400E+00  -7.80637677E+00  -2.16513194E+00  -4.84955669E+00  -7.12193488E+00  -6.71366265E+00  -4.28538376E+00  -6.85811139E+00  -1.42206291E+02  -1.46144649E+02  -6.57481926E+00  -1.17888781E+01  -1.09493737E+01  -7.25634633E+00  -3.22643420E+00  -9.77987068E+00  -3.39803118E+00  -6.74578318E+01  -1.16968464E+01  -8.38340788E+00  -1.69263990E+00  -4.49701414E+01  -6.24978718E+00  -7.69649091E+00  -5.04753793E+00  -8.21614257E+00  -7.67968693E+00  -8.35336382E+00  -8.15787114E+00  -1.03608605E+01  -8.97602713E+00  -7.08008515E+00  -6.37824035E+00  -1.20620738E+01  -5.91419923E+00  -1.33596574E+01  -7.56942620E+00  -1.09382351E+01  -1.60924853E+01  -1.60927437E+01  -2.18728353E+01  -1.29676169E+01  -2.17711437E+01  -2.17714456E+01  -3.14375796E+01  -3.05391329E+01
   3.67500000E+02   5.00000000E-01   5.00000000E-01  -6.93623666E+00  -1.42210860E+01  -3.28763869E+00  -1.29749880E+00  -1.49171138E+00  -3.67963624E+00  -1.33841071E+01  -6.71511706E+00  -5.13706627E+00  -2.62233949E-01  -4.16633151E+00  -1.96425195E+00  -3.41102437E-01  -1.50027630E+00  -3.74356793E+00  -3.39678045E+00  -6.09696327E+00  -4.40777582E+00  -3.20077619E+00  -1.30460557E+01  -1.17919628E+01  -1.00785709E+01  -1.26404065E+01  -8.77590902E+00  -8.21187390E+00  -1.07104342E+01  -1.38075643E+01  -2.37362272E+00  -5.11519124E+00  -2.70968503E+00  -3.76487604E+00  -7.78147931E+00  -2.18050770E+00  -4.78424067E+00  -7.07130690E+00  -6.66230796E+00  -4.24287897E+00  -6.84532040E+00  -1.41119284E+02  -1.45024202E+02  -6.53476386E+00  -1.16838942E+01  -1.08780257E+01  -7.18221820E+00  -3.22279268E+00  -9.75579562E+00  -3.40297752E+00  -6.69408227E+01  -1.16254313E+01  -8.37408597E+00  -1.70350063E+00  -4.46404797E+01  -6.25701354E+00  -7.73368595E+00  -5.04955923E+00  -8.13588572E+00  -7.65474446E+00  -8.38354967E+00  -8.13596100E+00  -1.04043811E+01  -8.99298390E+00  -7.05673594E+00  -6.37144166E+00  -1.20193839E+01  -5.91482933E+00  -1.32373655E+01  -7.56324396E+00  -1.09428507E+01  -1.60961230E+01  -1.60963806E+01  -2.18782994E+01  -1.29668380E+01  -2.17772954E+01  -2.17775954E+01  -3.14194515E+01  -3.03732285E+01
   4.02500000E+02   5.00000000E-01   5.00000000E-01  -6.88187806E+00  -1.41560286E+01  -3.24930665E+00  -1.29792453E+00  -1.50370430E+00  -3.64203549E+00  -1.33208993E+01  -6.71547899E+00  -5.13736273E+00  -2.61986678E-01  -4.16610866E+00  -1.96470446E+00  -3.40380062E-01  -1.50631026E+00  -3.74334508E+00  -3.39655760E+00  -6.10658715E+00  -4.40755297E+00  -3.18409503E+00  -1.29719003E+01  -1.17058405E+01  -1.00183563E+01  -1.25718960E+01  -8.75847145E+00  -8.19823849E+00  -1.07333784E+01  -1.37593087E+01  -2.37820078E+00  -5.15509390E+00  -2.71448666E+00  -3.78540504E+00  -7.75719118E+00  -2.19616737E+00  -4.72249748E+00  -7.02363868E+00  -6.61458316E+00  -4.20416573E+00  -6.83290342E+00  -1.40046123E+02  -1.43918341E+02  -6.49594596E+00  -1.15809878E+01  -1.08068249E+01  -7.10918411E+00  -3.21880848E+00  -9.73193190E+00  -3.40784615E+00  -6.64297731E+01  -1.15539083E+01  -8.36443249E+00  -1.71410019E+00  -4.43147215E+01  -6.26486139E+00  -7.77071488E+00  -5.05493830E+00  -8.06076531E+00  -7.63388716E+00  -8.41671996E+00  -8.11461057E+00  -1.04484525E+01  -9.00997226E+00  -7.03346659E+00  -6.36422003E+00  -1.19771314E+01  -5.91565521E+00  -1.31181832E+01  -7.55816905E+00  -1.09486369E+01  -1.61014972E+01  -1.61017549E+01  -2.18861143E+01  -1.29680915E+01  -2.17857882E+01  -2.17860868E+01  -3.14047576E+01  -3.02097083E+01
   4.37500000E+02   5.00000000E-01   5.00000000E-01  -6.82850398E+00  -1.40922190E+01  -3.21145188E+00  -1.29835380E+00  -1.51600046E+00  -3.60767361E+00  -1.32590062E+01  -6.71585186E+00  -5.13765064E+00  -2.61725185E-01  -4.16586942E+00  -1.96517060E+00  -3.39662382E-01  -1.51268558E+00  -3.74310584E+00  -3.39631835E+00  -6.11699299E+00  -4.40731373E+00  -3.16791703E+00  -1.28986198E+01  -1.16204847E+01  -9.95850036E+00  -1.25041630E+01  -8.74122024E+00  -8.18433603E+00  -1.07563912E+01  -1.37117445E+01  -2.38319826E+00  -5.19524539E+00  -2.71916181E+00  -3.80515470E+00  -7.73353943E+00  -2.21210334E+00  -4.66375927E+00  -6.97839270E+00  -6.56995247E+00  -4.16866145E+00  -6.82088450E+00  -1.38986498E+02  -1.42826680E+02  -6.45835302E+00  -1.14800969E+01  -1.07359084E+01  -7.03716848E+00  -3.21451037E+00  -9.70832793E+00  -3.41263435E+00  -6.59245483E+01  -1.14824757E+01  -8.35451636E+00  -1.72444126E+00  -4.39928007E+01  -6.27338656E+00  -7.80770132E+00  -5.06320059E+00  -7.99017348E+00  -7.61657909E+00  -8.45241004E+00  -8.09388782E+00  -1.04931343E+01  -9.02709556E+00  -7.01034360E+00  -6.35660361E+00  -1.19353576E+01  -5.91668220E+00  -1.30019435E+01  -7.55401668E+00  -1.09554530E+01  -1.61083961E+01  -1.61086550E+01  -2.18959995E+01  -1.29710111E+01  -2.17963416E+01  -2.17966396E+01  -3.13930696E+01  -3.00482834E+01
   4.72500000E+02   5.00000000E-01   5.00000000E-01  -6.77606165E+00  -1.40296234E+01  -3.17409601E+00  -1.29878821E+00  -1.52858329E+00  -3.57608873E+00  -1.31982027E+01  -6.71623619E+00  -5.13792951E+00  -2.61449859E-01  -4.16561434E+00  -1.96565038E+00  -3.38948728E-01  -1.51936875E+00  -3.74285075E+00  -3.39606327E+00  -6.12820588E+00  -4.40705864E+00  -3.15216352E+00  -1.28261808E+01  -1.15359436E+01  -9.89911356E+00  -1.24372207E+01  -8.72421795E+00  -8.17019035E+00  -1.07795592E+01  -1.36648902E+01  -2.38865029E+00  -5.23569772E+00  -2.72372054E+00  -3.82416597E+00  -7.71053491E+00  -2.22830821E+00  -4.60758860E+00  -6.93515993E+00  -6.52799456E+00  -4.13591478E+00  -6.80927203E+00  -1.37940119E+02  -1.41748874E+02  -6.42198632E+00  -1.13811892E+01  -1.06653689E+01  -6.96611413E+00  -3.20992506E+00  -9.68501450E+00  -3.41733974E+00  -6.54250317E+01  -1.14112696E+01  -8.34438793E+00  -1.73452678E+00  -4.36746529E+01  -6.28264031E+00  -7.84474651E+00  -5.07398453E+00  -7.92364843E+00  -7.60241237E+00  -8.49026551E+00  -8.07385523E+00  -1.05384679E+01  -9.04443856E+00  -6.98743148E+00  -6.34861867E+00  -1.18940868E+01  -5.91791486E+00  -1.28885085E+01  -7.55065497E+00  -1.09631940E+01  -1.61166615E+01  -1.61169229E+01  -2.19077463E+01  -1.29753361E+01  -2.18087469E+01  -2.18090453E+01  -3.13840677E+01  -2.98887645E+01
   5.07500000E+02   5.00000000E-01   5.00000000E-01  -6.72450944E+00  -1.39682130E+01  -3.13727010E+00  -1.29922918E+00  -1.54143726E+00  -3.54691486E+00  -1.31383296E+01  -6.71663236E+00  -5.13819893E+00  -2.61161059E-01  -4.16534391E+00  -1.96614367E+00  -3.38238462E-01  -1.52632870E+00  -3.74258033E+00  -3.39579285E+00  -6.14024856E+00  -4.40678822E+00  -3.13677754E+00  -1.27545592E+01  -1.14522486E+01  -9.84026892E+00  -1.23710762E+01  -8.70752545E+00  -8.15582348E+00  -1.08029569E+01  -1.36187541E+01  -2.39459239E+00  -5.27649416E+00  -2.72817219E+00  -3.84247720E+00  -7.68817884E+00  -2.24477475E+00  -4.55364215E+00  -6.89362367E+00  -6.48837287E+00  -4.10556932E+00  -6.79806535E+00  -1.36906717E+02  -1.40684608E+02  -6.38685413E+00  -1.12842495E+01  -1.05952710E+01  -6.89597554E+00  -3.20507731E+00  -9.66201152E+00  -3.42196020E+00  -6.49311176E+01  -1.13403863E+01  -8.33408571E+00  -1.74435986E+00  -4.33602148E+01  -6.29266932E+00  -7.88193588E+00  -5.08701218E+00  -7.86083121E+00  -7.59107070E+00  -8.53001246E+00  -8.05456984E+00  -1.05844836E+01  -9.06207442E+00  -6.96479312E+00  -6.34028976E+00  -1.18533329E+01  -5.91935698E+00  -1.27777592E+01  -7.54798529E+00  -1.09717781E+01  -1.61261697E+01  -1.61264352E+01  -2.19211918E+01  -1.29808724E+01  -2.18228408E+01  -2.18231409E+01  -3.13775012E+01  -2.97310229E+01
   5.42500000E+02   5.00000000E-01   5.00000000E-01  -6.67381265E+00  -1.39079611E+01  -3.10101055E+00  -1.29967796E+00  -1.55454784E+00  -3.51985729E+00  -1.30792693E+01  -6.71704071E+00  -5.13845850E+00  -2.60859123E-01  -4.16505861E+00  -1.96665030E+00  -3.37530979E-01  -1.53353660E+00  -3.74229502E+00  -3.39550754E+00  -6.15314116E+00  -4.40650292E+00  -3.12171558E+00  -1.26837368E+01  -1.13694194E+01  -9.78201610E+00  -1.23057319E+01  -8.69120214E+00  -8.14125580E+00  -1.08266519E+01  -1.35733378E+01  -2.40106048E+00  -5.31767340E+00  -2.73252546E+00  -3.86012430E+00  -7.66646711E+00  -2.26149582E+00  -4.50164623E+00  -6.85353513E+00  -6.45081531E+00  -4.07733896E+00  -6.78725888E+00  -1.35886034E+02  -1.39633587E+02  -6.35296735E+00  -1.11892706E+01  -1.05256613E+01  -6.82671450E+00  -3.19999008E+00  -9.63933229E+00  -3.42649382E+00  -6.44427080E+01  -1.12698974E+01  -8.32364070E+00  -1.75394368E+00  -4.30494240E+01  -6.30351556E+00  -7.91934329E+00  -5.10206902E+00  -7.80143676E+00  -7.58230465E+00  -8.57143698E+00  -8.03608319E+00  -1.06312037E+01  -9.08006902E+00  -6.94248988E+00  -6.33163976E+00  -1.18131033E+01  -5.92101160E+00  -1.26695881E+01  -7.54592988E+00  -1.09811380E+01  -1.61368194E+01  -1.61370908E+01  -2.19362022E+01  -1.29874676E+01  -2.18384896E+01  -2.18387930E+01  -3.13731643E+01  -2.95749649E+01
   5.77500000E+02   5.00000000E-01   5.00000000E-01  -6.62394078E+00  -1.38488422E+01  -3.06535650E+00  -1.30013563E+00  -1.56790150E+00  -3.49467547E+00  -1.30209293E+01  -6.71746147E+00  -5.13870788E+00  -2.60544366E-01  -4.16475885E+00  -1.96717005E+00  -3.36825704E-01  -1.54096575E+00  -3.74199527E+00  -3.39520779E+00  -6.16690093E+00  -4.40620316E+00  -3.10694226E+00  -1.26136979E+01  -1.12874687E+01  -9.72439060E+00  -1.22411869E+01  -8.67530600E+00  -8.12650611E+00  -1.08507066E+01  -1.35286400E+01  -2.40809091E+00  -5.35927211E+00  -2.73678847E+00  -3.87714095E+00  -7.64539283E+00  -2.27846447E+00  -4.45137975E+00  -6.81469655E+00  -6.41509979E+00  -4.05099084E+00  -6.77684471E+00  -1.34877820E+02  -1.38595531E+02  -6.32033664E+00  -1.10962479E+01  -1.04565749E+01  -6.75829739E+00  -3.19468465E+00  -9.61698621E+00  -3.43093893E+00  -6.39597090E+01  -1.11998585E+01  -8.31307911E+00  -1.76328153E+00  -4.27422197E+01  -6.31521624E+00  -7.95703359E+00  -5.11898954E+00  -7.74523394E+00  -7.57591438E+00  -8.61437056E+00  -8.01844126E+00  -1.06786457E+01  -9.09848367E+00  -6.92058168E+00  -6.32268997E+00  -1.17734018E+01  -5.92288098E+00  -1.25638956E+01  -7.54442400E+00  -1.09912159E+01  -1.61485234E+01  -1.61488025E+01  -2.19526627E+01  -1.29949951E+01  -2.18555786E+01  -2.18558868E+01  -3.13708804E+01  -2.94205163E+01
   6.12500000E+02   5.00000000E-01   5.00000000E-01  -6.57486578E+00  -1.37908302E+01  -3.03034810E+00  -1.30060309E+00  -1.58148564E+00  -3.47117074E+00  -1.29632319E+01  -6.71789478E+00  -5.13894674E+00  -2.60217080E-01  -4.16444503E+00  -1.96770264E+00  -3.36122095E-01  -1.54859139E+00  -3.74168145E+00  -3.39489397E+00  -6.18154203E+00  -4.40588934E+00  -3.09242696E+00  -1.25444282E+01  -1.12064041E+01  -9.66741958E+00  -1.21774372E+01  -8.65989365E+00  -8.11159172E+00  -1.08751810E+01  -1.34846570E+01  -2.41572034E+00  -5.40132654E+00  -2.74096883E+00  -3.89355873E+00  -7.62494813E+00  -2.29567386E+00  -4.40266206E+00  -6.77694909E+00  -6.38104373E+00  -4.02633312E+00  -6.76681425E+00  -1.33881836E+02  -1.37570169E+02  -6.28897049E+00  -1.10051761E+01  -1.03880397E+01  -6.69069335E+00  -3.18918073E+00  -9.59498056E+00  -3.43529400E+00  -6.34820295E+01  -1.11303153E+01  -8.30242421E+00  -1.77237672E+00  -4.24385420E+01  -6.32780370E+00  -7.99506430E+00  -5.13764683E+00  -7.69203135E+00  -7.57173725E+00  -8.65867947E+00  -8.00168443E+00  -1.07268229E+01  -9.11737687E+00  -6.89912706E+00  -6.31346020E+00  -1.17342303E+01  -5.92496666E+00  -1.24605868E+01  -7.54341074E+00  -1.10019602E+01  -1.61612037E+01  -1.61614927E+01  -2.19704706E+01  -1.30033439E+01  -2.18740049E+01  -2.18743199E+01  -3.13704917E+01  -2.92676127E+01
   6.47500000E+02   5.00000000E-01   5.00000000E-01  -6.52656009E+00  -1.37339218E+01  -2.99602468E+00  -1.30108106E+00  -1.59528859E+00  -3.44917738E+00  -1.29060608E+01  -6.71834072E+00  -5.13917476E+00  -2.59877542E-01  -4.16411751E+00  -1.96824766E+00  -3.35419638E-01  -1.55639056E+00  -3.74135392E+00  -3.39456644E+00  -6.19707561E+00  -4.40556181E+00  -3.07813764E+00  -1.24759128E+01  -1.11262554E+01  -9.61115283E+00  -1.21145013E+01  -8.64502049E+00  -8.09652854E+00  -1.09001341E+01  -1.34413858E+01  -2.42398586E+00  -5.44387447E+00  -2.74507370E+00  -3.90940728E+00  -7.60512608E+00  -2.31311733E+00  -4.35534409E+00  -6.74016407E+00  -6.34849715E+00  -4.00320606E+00  -6.75716015E+00  -1.32897847E+02  -1.36557238E+02  -6.25887349E+00  -1.09160452E+01  -1.03201052E+01  -6.62387228E+00  -3.18349644E+00  -9.57332234E+00  -3.43955756E+00  -6.30095796E+01  -1.10613348E+01  -8.29169827E+00  -1.78123257E+00  -4.21383321E+01  -6.34130564E+00  -8.03348782E+00  -5.15794570E+00  -7.64166659E+00  -7.56963904E+00  -8.70425794E+00  -7.98584757E+00  -1.07757470E+01  -9.13680640E+00  -6.87818326E+00  -6.30396883E+00  -1.16955907E+01  -5.92726944E+00  -1.23595900E+01  -7.54283071E+00  -1.10133169E+01  -1.61747792E+01  -1.61750802E+01  -2.19895186E+01  -1.30123983E+01  -2.18936612E+01  -2.18939852E+01  -3.13718339E+01  -2.91161849E+01
   6.82500000E+02   5.00000000E-01   5.00000000E-01  -6.47899414E+00  -1.36781571E+01  -2.96242266E+00  -1.30157014E+00  -1.60929959E+00  -3.42855597E+00  -1.28492094E+01  -6.71879928E+00  -5.13939156E+00  -2.59526008E-01  -4.16377660E+00  -1.96880439E+00  -3.34717844E-01  -1.56434201E+00  -3.74101301E+00  -3.39422553E+00  -6.21351039E+00  -4.40522091E+00  -3.06403394E+00  -1.24081334E+01  -1.10470996E+01  -9.55569287E+00  -1.20524427E+01  -8.63074109E+00  -8.08133117E+00  -1.09256269E+01  -1.33988256E+01  -2.43292520E+00  -5.48695788E+00  -2.74910981E+00  -3.92471441E+00  -7.58592310E+00  -2.33078833E+00  -4.30930175E+00  -6.70423647E+00  -6.31733842E+00  -3.98147540E+00  -6.74787868E+00  -1.31925620E+02  -1.35556476E+02  -6.23004440E+00  -1.08288365E+01  -1.02528705E+01  -6.55780228E+00  -3.17764821E+00  -9.55202060E+00  -3.44372793E+00  -6.25422672E+01  -1.09930353E+01  -8.28092516E+00  -1.78985239E+00  -4.18415326E+01  -6.35574582E+00  -8.07235462E+00  -5.17981888E+00  -7.59399778E+00  -7.56950799E+00  -8.75102468E+00  -7.97096061E+00  -1.08254308E+01  -9.15683209E+00  -6.85780665E+00  -6.29423288E+00  -1.16574874E+01  -5.92978943E+00  -1.22608731E+01  -7.54261068E+00  -1.10252209E+01  -1.61891518E+01  -1.61894671E+01  -2.20096769E+01  -1.30220145E+01  -2.19144177E+01  -2.19147528E+01  -3.13747099E+01  -2.89661431E+01
   7.17500000E+02   5.00000000E-01   5.00000000E-01  -6.43214040E+00  -1.36234207E+01  -2.92957866E+00  -1.30207063E+00  -1.62350869E+00  -3.40918837E+00  -1.27927488E+01  -6.71927038E+00  -5.13959677E+00  -2.59162718E-01  -4.16342262E+00  -1.96937239E+00  -3.34016261E-01  -1.57242604E+00  -3.74065903E+00  -3.39387155E+00  -6.23085117E+00  -4.40486693E+00  -3.05009393E+00  -1.23410731E+01  -1.09688551E+01  -9.50098065E+00  -1.19911679E+01  -8.61710827E+00  -8.06601297E+00  -1.09517174E+01  -1.33569746E+01  -2.44257575E+00  -5.53061776E+00  -2.75308354E+00  -3.93950627E+00  -7.56733486E+00  -2.34868050E+00  -4.26443106E+00  -6.66908012E+00  -6.28746527E+00  -3.96102742E+00  -6.73896557E+00  -1.30964929E+02  -1.34567630E+02  -6.20247893E+00  -1.07435290E+01  -1.01862738E+01  -6.49245375E+00  -3.17165153E+00  -9.53108298E+00  -3.44780390E+00  -6.20800034E+01  -1.09253724E+01  -8.27012629E+00  -1.79823946E+00  -4.15480869E+01  -6.37114271E+00  -8.11170781E+00  -5.20321702E+00  -7.54890126E+00  -7.57124841E+00  -8.79891243E+00  -7.95704785E+00  -1.08758824E+01  -9.17751082E+00  -6.83805173E+00  -6.28426808E+00  -1.16199232E+01  -5.93252606E+00  -1.21642675E+01  -7.54271293E+00  -1.10376410E+01  -1.62042747E+01  -1.62046067E+01  -2.20308837E+01  -1.30321198E+01  -2.19362128E+01  -2.19365612E+01  -3.13790247E+01  -2.88174198E+01