 TITLE = "Total Concentrations" 
VARIABLES = "X"          "Y"              "Z"            "H+"             "Al+++"          "CO2(aq)"        "Mg++"           "Ca++"           "Fe++"           "Fe+++"          "Ba++"           "Sr++"           "Cl-"            "F-"             "K+"             "HS-"            "Na+"            "SO4--"          "O2(aq)"         "B(OH)3(aq)"     "HPO4--"         "NO3-"           "H4SiO4(aq)"     "HNO3(aq)"       "Al(OH)2+"       "AlO2-"          "AlOH++"         "BaHCO3+"        "BaCl+"          "BaCO3(aq)"      "BaOH+"          "HCO3-"          "CO3--"          "CaCl+"          "CaCl2(aq)"      "CaOH+"          "CaSO4(aq)"      "FeCl+"          "FeCl2(aq)"      "FeOH+"          "FeSO4(aq)"      "OH-"            "S2O3--"         "H2S(aq)"        "H2PO4-"         "H3PO4(aq)"      "HAlO2(aq)"      "HSO4-"          "KCl(aq)"        "KOH(aq)"        "KSO4-"          "NH3(aq)"        "NaAlO2(aq)"     "NaOH(aq)"       "NaSO4-"         "H2(aq)"         "CaHPO4(aq)"     "CaPO4-"         "FeCO3(aq)"      "FeH2PO4+"       "FeHPO4(aq)"     "FePO4-"         "KHPO4-"         "PO4---"         "Sr(CO3)(aq)"    "SrHCO3+"        "SrCl+"          "SrOH+"          "SrSO4(aq)"      "AlH3SiO4++"     "Si2O2(OH)5-"    "Si2O3(OH)4--"   "Si3O5(OH)5---"  "Si3O6(OH)3---"  "Si4O12H4----"   "Si4O6(OH)6--"   "Si4O7(OH)6----" "Si4O8(OH)4----" "Si6O15------"   "SiF6--"        
 ZONE I=         200 , J=           1 , K=           1  F=POINT
   8.75000000E+00   5.00000000E-01   5.00000000E-01  -7.83535338E+00  -1.75589767E+01  -3.96063688E+00  -1.29409970E+00  -2.04417532E+00  -4.43572100E+00  -2.18513023E+01  -6.71261512E+00  -5.10353341E+00  -2.62115588E-01  -4.16749363E+00  -1.95201827E+00  -1.00561718E+01  -3.35544976E-01  -1.83620584E+00  -7.74473462E+00  -3.39794256E+00  -5.87534985E+00  -4.40893793E+00  -3.38288700E+00  -1.41199465E+01  -1.47170031E+01  -1.21414807E+01  -1.56893449E+01  -8.92558183E+00  -8.30747380E+00  -1.01445864E+01  -1.40353690E+01  -2.33773466E+00  -4.44460641E+00  -3.28610024E+00  -4.11693265E+00  -8.42149958E+00  -3.01328307E+00  -5.74747783E+00  -7.83150425E+00  -7.21072943E+00  -5.32711884E+00  -6.71472053E+00  -1.50361056E+02  -1.08832042E+01  -7.09461131E+00  -1.32134548E+01  -1.33193469E+01  -8.62386703E+00  -3.20737234E+00  -9.69923298E+00  -3.68520424E+00  -6.47181608E+01  -1.37507095E+01  -8.13643189E+00  -1.91232685E+00  -4.61561909E+01  -6.64551983E+00  -7.50599479E+00  -5.01277292E+00  -9.42975070E+00  -8.03611475E+00  -7.87889724E+00  -8.17534776E+00  -9.57330687E+00  -8.46071817E+00  -7.23179991E+00  -6.36339874E+00  -1.21420567E+01  -6.20355534E+00  -1.69357180E+01  -7.37274902E+00  -1.03754273E+01  -1.52989380E+01  -1.52991783E+01  -2.07763523E+01  -1.24709282E+01  -2.06679818E+01  -2.06682476E+01  -3.01918158E+01  -3.32877939E+01
   2.62500000E+01   5.00000000E-01   5.00000000E-01  -7.58348711E+00  -1.61017472E+01  -3.73265695E+00  -1.29673771E+00  -2.03608897E+00  -4.09962172E+00  -2.11595833E+01  -6.71275743E+00  -5.10390187E+00  -2.62118671E-01  -4.16749120E+00  -1.95226853E+00  -1.00880300E+01  -3.35344605E-01  -1.83175500E+00  -7.74473683E+00  -3.39794013E+00  -5.89233670E+00  -4.40893551E+00  -3.21082353E+00  -1.38555150E+01  -1.36545120E+01  -1.15068318E+01  -1.44367809E+01  -8.91864959E+00  -8.30094108E+00  -1.03711751E+01  -1.41963981E+01  -2.34370991E+00  -4.67990133E+00  -3.27768475E+00  -4.12724093E+00  -8.58656759E+00  -3.00485198E+00  -5.39682819E+00  -7.49768807E+00  -7.07158829E+00  -4.98721377E+00  -6.90384727E+00  -1.49000993E+02  -1.06934662E+01  -6.87010868E+00  -1.27326324E+01  -1.24752716E+01  -8.35335091E+00  -3.20867060E+00  -9.88247956E+00  -3.68516447E+00  -6.40866456E+01  -1.31117944E+01  -8.33568723E+00  -1.91857087E+00  -4.58812761E+01  -6.65032341E+00  -7.74158530E+00  -4.92218157E+00  -8.86971946E+00  -7.72806540E+00  -7.82265357E+00  -8.17295952E+00  -9.81878387E+00  -8.68246637E+00  -7.22111562E+00  -6.36292196E+00  -1.23096536E+01  -6.19928746E+00  -1.54691750E+01  -7.25251755E+00  -1.04648891E+01  -1.54305698E+01  -1.54308179E+01  -2.09525259E+01  -1.22403912E+01  -2.08447248E+01  -2.08450023E+01  -3.04351446E+01  -3.21845390E+01
   4.37500000E+01   5.00000000E-01   5.00000000E-01  -7.45885381E+00  -1.55720457E+01  -3.62963755E+00  -1.29917579E+00  -2.02818139E+00  -3.91279414E+00  -2.08488779E+01  -6.71295210E+00  -5.10434247E+00  -2.62108057E-01  -4.16747385E+00  -1.95252965E+00  -1.01046306E+01  -3.35147994E-01  -1.82763213E+00  -7.74472412E+00  -3.39792278E+00  -5.90659393E+00  -4.40891816E+00  -3.09709210E+00  -1.37180992E+01  -1.32660863E+01  -1.12929779E+01  -1.39848373E+01  -8.90996283E+00  -8.29412840E+00  -1.04694910E+01  -1.42314303E+01  -2.34822512E+00  -4.78722118E+00  -3.26900319E+00  -4.13668779E+00  -8.62550021E+00  -2.99640932E+00  -5.19512645E+00  -7.31228090E+00  -6.95504509E+00  -4.79637685E+00  -6.96685083E+00  -1.47903573E+02  -1.06148305E+01  -6.76959692E+00  -1.25027682E+01  -1.21783838E+01  -8.21000282E+00  -3.20959421E+00  -9.93935549E+00  -3.68499349E+00  -6.35854727E+01  -1.28933207E+01  -8.40811470E+00  -1.92453730E+00  -4.56089349E+01  -6.65203783E+00  -7.84699878E+00  -4.85219306E+00  -8.58301212E+00  -7.56612296E+00  -7.78523966E+00  -8.16745497E+00  -9.93499273E+00  -8.77601147E+00  -7.20866142E+00  -6.36209996E+00  -1.23511168E+01  -6.19506491E+00  -1.48630355E+01  -7.12237757E+00  -1.04179736E+01  -1.53575968E+01  -1.53578507E+01  -2.08559485E+01  -1.19898957E+01  -2.07487130E+01  -2.07489998E+01  -3.02690957E+01  -3.16463632E+01
   6.12500000E+01   5.00000000E-01   5.00000000E-01  -7.37592253E+00  -1.53131412E+01  -3.56651627E+00  -1.30149175E+00  -2.02044681E+00  -3.78289779E+00  -2.06626088E+01  -6.71316293E+00  -5.10481680E+00  -2.62084315E-01  -4.16744223E+00  -1.95285797E+00  -1.01140495E+01  -3.34956697E-01  -1.82381899E+00  -7.74469714E+00  -3.39789117E+00  -5.91877834E+00  -4.40888654E+00  -3.02328613E+00  -1.36221789E+01  -1.30660372E+01  -1.11852628E+01  -1.37623096E+01  -8.89994540E+00  -8.28701027E+00  -1.05254638E+01  -1.42259338E+01  -2.35172554E+00  -4.85252310E+00  -3.26006420E+00  -4.14529757E+00  -8.62380360E+00  -2.98794654E+00  -5.05004572E+00  -7.18297006E+00  -6.85427939E+00  -4.66226594E+00  -6.98923256E+00  -1.46897598E+02  -1.05698662E+01  -6.70821524E+00  -1.23534819E+01  -1.20285147E+01  -8.10828869E+00  -3.21021219E+00  -9.95542904E+00  -3.68474296E+00  -6.31290688E+01  -1.27806484E+01  -8.43924384E+00  -1.93022728E+00  -4.53391270E+01  -6.65132927E+00  -7.90843745E+00  -4.79644438E+00  -8.39242063E+00  -7.45860452E+00  -7.76050965E+00  -8.15956929E+00  -1.00081098E+01  -8.82728098E+00  -7.19486112E+00  -6.36090718E+00  -1.23519166E+01  -6.19084259E+00  -1.45276451E+01  -7.03104139E+00  -1.03689159E+01  -1.52813814E+01  -1.52816395E+01  -2.07550887E+01  -1.18168737E+01  -2.06484149E+01  -2.06487088E+01  -3.00964443E+01  -3.13128221E+01
   7.87500000E+01   5.00000000E-01   5.00000000E-01  -7.30918133E+00  -1.51417279E+01  -3.51839837E+00  -1.30373096E+00  -2.01287861E+00  -3.68310719E+00  -2.05242508E+01  -6.71338072E+00  -5.10531411E+00  -2.62048024E-01  -4.16739695E+00  -1.95325866E+00  -1.01204879E+01  -3.34769783E-01  -1.82029767E+00  -7.74465649E+00  -3.39784588E+00  -5.93006885E+00  -4.40884125E+00  -2.97507495E+00  -1.35422555E+01  -1.29220673E+01  -1.11023850E+01  -1.36114007E+01  -8.88919818E+00  -8.27959212E+00  -1.05651851E+01  -1.42053889E+01  -2.35480334E+00  -4.90188914E+00  -3.25087852E+00  -4.15310014E+00  -8.60696715E+00  -2.97946421E+00  -4.93477704E+00  -7.08296426E+00  -6.76796953E+00  -4.55806379E+00  -6.99647506E+00  -1.45931920E+02  -1.05372888E+01  -6.66164787E+00  -1.22349592E+01  -1.19188712E+01  -8.02269727E+00  -3.21054639E+00  -9.95620239E+00  -3.68441867E+00  -6.26918875E+01  -1.26924923E+01  -8.45458556E+00  -1.93564442E+00  -4.50718163E+01  -6.64939482E+00  -7.95261232E+00  -4.75422116E+00  -8.24680028E+00  -7.37987471E+00  -7.74834310E+00  -8.15051306E+00  -1.00648074E+01  -8.86236500E+00  -7.18031618E+00  -6.35934960E+00  -1.23375360E+01  -6.18661400E+00  -1.42908317E+01  -6.97534899E+00  -1.03400566E+01  -1.52354391E+01  -1.52357000E+01  -2.06946276E+01  -1.17150099E+01  -2.05885115E+01  -2.05888106E+01  -2.99842446E+01  -3.10676179E+01
   9.62500000E+01   5.00000000E-01   5.00000000E-01  -7.25206775E+00  -1.50208716E+01  -3.47890355E+00  -1.30591717E+00  -2.00547024E+00  -3.60219935E+00  -2.04141244E+01  -6.71360371E+00  -5.10583138E+00  -2.61999737E-01  -4.16733854E+00  -1.95370856E+00  -1.01250614E+01  -3.34584963E-01  -1.81705084E+00  -7.74460273E+00  -3.39778748E+00  -5.94079459E+00  -4.40878285E+00  -2.94189282E+00  -1.34717806E+01  -1.28103544E+01  -1.10336204E+01  -1.35017362E+01  -8.87789535E+00  -8.27188829E+00  -1.05953727E+01  -1.41763365E+01  -2.35761548E+00  -4.94201582E+00  -3.24145784E+00  -4.16012743E+00  -8.58153241E+00  -2.97096719E+00  -4.83811480E+00  -7.00107673E+00  -6.69144828E+00  -4.47255982E+00  -6.99511229E+00  -1.44993298E+02  -1.05116778E+01  -6.62368003E+00  -1.21344369E+01  -1.18321879E+01  -7.94666845E+00  -3.21059172E+00  -9.94820197E+00  -3.68400042E+00  -6.22673357E+01  -1.26181442E+01  -8.46070115E+00  -1.94079311E+00  -4.48069688E+01  -6.64658555E+00  -7.98643742E+00  -4.72102918E+00  -8.12871136E+00  -7.31905540E+00  -7.74442590E+00  -8.14061998E+00  -1.01119561E+01  -8.88797984E+00  -7.16520150E+00  -6.35744230E+00  -1.23145186E+01  -6.18238513E+00  -1.41116115E+01  -6.94071857E+00  -1.03233640E+01  -1.52077239E+01  -1.52079865E+01  -2.06585016E+01  -1.16551438E+01  -2.05529389E+01  -2.05532417E+01  -2.99084150E+01  -3.08740107E+01
   1.13750000E+02   5.00000000E-01   5.00000000E-01  -7.20145372E+00  -1.49359251E+01  -3.44501351E+00  -1.30807028E+00  -1.99821551E+00  -3.53427321E+00  -2.03228530E+01  -6.71383141E+00  -5.10636688E+00  -2.61939974E-01  -4.16726754E+00  -1.95418214E+00  -1.01283472E+01  -3.34399801E-01  -1.81406236E+00  -7.74453637E+00  -3.39771647E+00  -5.95113817E+00  -4.40871184E+00  -2.91689756E+00  -1.34076397E+01  -1.27224949E+01  -1.09767954E+01  -1.34217944E+01  -8.86614005E+00  -8.26391397E+00  -1.06192397E+01  -1.41418847E+01  -2.36024725E+00  -4.97609420E+00  -3.23181370E+00  -4.16641066E+00  -8.55060743E+00  -2.96246132E+00  -4.75417481E+00  -6.93144159E+00  -6.62193622E+00  -4.39986596E+00  -6.98824475E+00  -1.44075363E+02  -1.04905079E+01  -6.59138441E+00  -1.20458731E+01  -1.17631837E+01  -7.87707714E+00  -3.21034025E+00  -9.93451800E+00  -3.68346641E+00  -6.18522556E+01  -1.25554458E+01  -8.46071727E+00  -1.94567819E+00  -4.45445514E+01  -6.64310583E+00  -8.01324534E+00  -4.69419001E+00  -8.02932390E+00  -7.27044404E+00  -7.74618484E+00  -8.13007391E+00  -1.01528455E+01  -8.90733731E+00  -7.14962096E+00  -6.35520122E+00  -1.22859751E+01  -6.17816399E+00  -1.39715781E+01  -6.91658097E+00  -1.03113843E+01  -1.51870569E+01  -1.51873202E+01  -2.06318039E+01  -1.16161399E+01  -2.05267902E+01  -2.05270952E+01  -2.98466054E+01  -3.07127184E+01
   1.31250000E+02   5.00000000E-01   5.00000000E-01  -7.15513725E+00  -1.48756156E+01  -3.41463639E+00  -1.31020661E+00  -1.99110862E+00  -3.47581147E+00  -2.02438380E+01  -6.71406355E+00  -5.10691912E+00  -2.61869215E-01  -4.16718441E+00  -1.95466047E+00  -1.01308307E+01  -3.34212425E-01  -1.81131703E+00  -7.74445788E+00  -3.39763334E+00  -5.96128345E+00  -4.40862871E+00  -2.89605682E+00  -1.33476439E+01  -1.26516076E+01  -1.09294075E+01  -1.33625018E+01  -8.85403608E+00  -8.25568386E+00  -1.06390743E+01  -1.41042164E+01  -2.36278519E+00  -5.00639137E+00  -3.22195727E+00  -4.17197993E+00  -8.51637488E+00  -2.95395258E+00  -4.67945585E+00  -6.87057523E+00  -6.55811168E+00  -4.33647761E+00  -6.97804783E+00  -1.43173602E+02  -1.04720875E+01  -6.56276032E+00  -1.19650781E+01  -1.17071740E+01  -7.81172456E+00  -3.20978990E+00  -9.91732150E+00  -3.68280162E+00  -6.14444154E+01  -1.25019097E+01  -8.45683485E+00  -1.95030516E+00  -4.42845315E+01  -6.63916048E+00  -8.03544287E+00  -4.67248361E+00  -7.94311845E+00  -7.23072260E+00  -7.75250505E+00  -8.11906523E+00  -1.01898412E+01  -8.92272438E+00  -7.13367900E+00  -6.35264173E+00  -1.22540910E+01  -6.17395863E+00  -1.38575845E+01  -6.89706068E+00  -1.03004317E+01  -1.51679104E+01  -1.51681737E+01  -2.06071629E+01  -1.15862501E+01  -2.05026936E+01  -2.05029998E+01  -2.97877674E+01  -3.05709696E+01
   1.48750000E+02   5.00000000E-01   5.00000000E-01  -7.11163924E+00  -1.48316978E+01  -3.38639002E+00  -1.31233772E+00  -1.98414414E+00  -3.42455915E+00  -2.01726495E+01  -6.71429999E+00  -5.10748681E+00  -2.61787899E-01  -4.16708959E+00  -1.95513135E+00  -1.01328755E+01  -3.34021632E-01  -1.80880047E+00  -7.74436770E+00  -3.39753852E+00  -5.97138815E+00  -4.40853389E+00  -2.87714807E+00  -1.32903264E+01  -1.25923934E+01  -1.08890916E+01  -1.33170898E+01  -8.84167434E+00  -8.24721221E+00  -1.06564299E+01  -1.40647922E+01  -2.36530352E+00  -5.03443991E+00  -3.21189937E+00  -4.17686430E+00  -8.48029521E+00  -2.94544700E+00  -4.61171834E+00  -6.81625497E+00  -6.49919260E+00  -4.28015213E+00  -6.96597500E+00  -1.42284947E+02  -1.04553248E+01  -6.53650322E+00  -1.18892807E+01  -1.16603340E+01  -7.74913480E+00  -3.20894468E+00  -9.89806771E+00  -3.68199778E+00  -6.10423068E+01  -1.24551859E+01  -8.45053241E+00  -1.95468010E+00  -4.40268773E+01  -6.63492749E+00  -8.05468692E+00  -4.65521664E+00  -7.86653413E+00  -7.19780890E+00  -7.76278445E+00  -8.10776379E+00  -1.02245603E+01  -8.93569293E+00  -7.11746712E+00  -6.34977879E+00  -1.22203295E+01  -6.16977706E+00  -1.37605998E+01  -6.87917919E+00  -1.02889945E+01  -1.51480181E+01  -1.51482808E+01  -2.05815558E+01  -1.15595198E+01  -2.04776262E+01  -2.04779326E+01  -2.97273739E+01  -3.04406913E+01
   1.66250000E+02   5.00000000E-01   5.00000000E-01  -7.06997801E+00  -1.47981348E+01  -3.35937546E+00  -1.31447121E+00  -1.97731689E+00  -3.37898826E+00  -2.01063494E+01  -6.71454074E+00  -5.10806878E+00  -2.61696435E-01  -4.16698348E+00  -1.95558774E+00  -1.01347428E+01  -3.33826750E-01  -1.80649903E+00  -7.74426624E+00  -3.39743241E+00  -5.98158106E+00  -4.40842778E+00  -2.85905744E+00  -1.32347172E+01  -1.25407670E+01  -1.08537023E+01  -1.32805005E+01  -8.82913175E+00  -8.23851280E+00  -1.06723488E+01  -1.40245761E+01  -2.36786308E+00  -5.06126242E+00  -3.20165047E+00  -4.18109174E+00  -8.44333210E+00  -2.93695063E+00  -4.54944902E+00  -6.76698383E+00  -6.44462663E+00  -4.22937357E+00  -6.95298324E+00  -1.41407331E+02  -1.04395222E+01  -6.51177640E+00  -1.18166742E+01  -1.16195551E+01  -7.68832943E+00  -3.20781310E+00  -9.87771990E+00  -3.68105190E+00  -6.06449192E+01  -1.24131436E+01  -8.44279136E+00  -1.95880960E+00  -4.37715574E+01  -6.63055519E+00  -8.07210719E+00  -4.64191155E+00  -7.79720503E+00  -7.17031844E+00  -7.77662118E+00  -8.09631449E+00  -1.02580941E+01  -8.94728403E+00  -7.10106281E+00  -6.34662680E+00  -1.21856568E+01  -6.16562721E+00  -1.36744136E+01  -6.86167795E+00  -1.02767838E+01  -1.51269475E+01  -1.51272093E+01  -2.05544051E+01  -1.15334342E+01  -2.04510104E+01  -2.04513164E+01  -2.96645648E+01  -3.03169055E+01
   1.83750000E+02   5.00000000E-01   5.00000000E-01  -7.02950380E+00  -1.47705014E+01  -3.33301392E+00  -1.31661195E+00  -1.97062201E+00  -3.33801735E+00  -2.00429957E+01  -6.71478588E+00  -5.10866401E+00  -2.61595198E-01  -4.16686647E+00  -1.95602607E+00  -1.01366174E+01  -3.33627457E-01  -1.80439985E+00  -7.74415388E+00  -3.39731540E+00  -5.99196611E+00  -4.40831078E+00  -2.84130937E+00  -1.31801780E+01  -1.24935911E+01  -1.08213788E+01  -1.32489560E+01  -8.81647357E+00  -8.22959888E+00  -1.06875304E+01  -1.39842003E+01  -2.37051372E+00  -5.08753925E+00  -3.19122061E+00  -4.18468917E+00  -8.40611784E+00  -2.92846942E+00  -4.49158046E+00  -6.72171001E+00  -6.39397607E+00  -4.18307212E+00  -6.93969841E+00  -1.40539351E+02  -1.04242372E+01  -6.48804965E+00  -1.17460899E+01  -1.15823450E+01  -7.62866206E+00  -3.20640647E+00  -9.85691314E+00  -3.67996449E+00  -6.02515739E+01  -1.23739366E+01  -8.43426134E+00  -1.96270054E+00  -4.35185412E+01  -6.62616620E+00  -8.08847561E+00  -4.63219392E+00  -7.73351833E+00  -7.14728788E+00  -7.79370248E+00  -8.08483971E+00  -1.02911778E+01  -8.95819574E+00  -7.08453186E+00  -6.34319965E+00  -1.21507076E+01  -6.16151681E+00  -1.35947351E+01  -6.84424329E+00  -1.02641239E+01  -1.51051858E+01  -1.51054465E+01  -2.05263597E+01  -1.15073685E+01  -2.04234950E+01  -2.04238000E+01  -2.96003186E+01  -3.01965974E+01
   2.01250000E+02   5.00000000E-01   5.00000000E-01  -6.98989544E+00  -1.47465681E+01  -3.30703572E+00  -1.31876271E+00  -1.96405487E+00  -3.30085847E+00  -1.99816317E+01  -6.71503564E+00  -5.10927162E+00  -2.61484540E-01  -4.16673891E+00  -1.95644434E+00  -1.01385923E+01  -3.33423604E-01  -1.80249088E+00  -7.74403096E+00  -3.39718784E+00  -6.00260557E+00  -4.40818321E+00  -2.82369637E+00  -1.31263983E+01  -1.24492673E+01  -1.07911431E+01  -1.32205454E+01  -8.80374585E+00  -8.22048323E+00  -1.07023268E+01  -1.39439693E+01  -2.37328661E+00  -5.11360427E+00  -3.18061948E+00  -4.18768242E+00  -8.36895665E+00  -2.92000934E+00  -4.43733814E+00  -6.67967393E+00  -6.34676829E+00  -4.14047116E+00  -6.92641871E+00  -1.39680265E+02  -1.04092629E+01  -6.46507902E+00  -1.16769734E+01  -1.15474220E+01  -7.56981493E+00  -3.20473702E+00  -9.83595575E+00  -3.67873774E+00  -5.98619214E+01  -1.23366010E+01  -8.42526335E+00  -1.96635999E+00  -4.32677985E+01  -6.62184073E+00  -8.10419301E+00  -4.62563514E+00  -7.67444110E+00  -7.12800530E+00  -7.81363840E+00  -8.07342061E+00  -1.03241770E+01  -8.96877888E+00  -7.06792081E+00  -6.33951072E+00  -1.21157885E+01  -6.15745357E+00  -1.35194097E+01  -6.82676935E+00  -1.02512184E+01  -1.50830390E+01  -1.50832986E+01  -2.04978274E+01  -1.14811131E+01  -2.03954877E+01  -2.03957913E+01  -2.95352510E+01  -3.00783320E+01
   2.18750000E+02   5.00000000E-01   5.00000000E-01  -6.95101038E+00  -1.47253638E+01  -3.28133720E+00  -1.32092516E+00  -1.95761104E+00  -3.26691892E+00  -1.99218367E+01  -6.71529031E+00  -5.10989084E+00  -2.61364789E-01  -4.16660112E+00  -1.95684132E+00  -1.01407071E+01  -3.33215113E-01  -1.80076082E+00  -7.74389781E+00  -3.39705005E+00  -6.01353402E+00  -4.40804542E+00  -2.80612243E+00  -1.30732456E+01  -1.24070983E+01  -1.07625618E+01  -1.31944376E+01  -8.79098218E+00  -8.21117814E+00  -1.07168995E+01  -1.39040094E+01  -2.37620111E+00  -5.13960163E+00  -3.16985629E+00  -4.19009622E+00  -8.33197464E+00  -2.91157623E+00  -4.38614210E+00  -6.64030999E+00  -6.30254735E+00  -4.10098899E+00  -6.91326451E+00  -1.38829688E+02  -1.03945169E+01  -6.44277090E+00  -1.16090988E+01  -1.15142270E+01  -7.51164901E+00  -3.20281713E+00  -9.81497845E+00  -3.67737467E+00  -5.94757906E+01  -1.23007167E+01  -8.41593967E+00  -1.96979506E+00  -4.30192996E+01  -6.61763040E+00  -8.11945297E+00  -4.62181099E+00  -7.61928603E+00  -7.11192586E+00  -7.83602734E+00  -8.06211040E+00  -1.03572515E+01  -8.97919371E+00  -7.05126372E+00  -6.33557289E+00  -1.20810281E+01  -6.15344499E+00  -1.34474754E+01  -6.80919479E+00  -1.02381371E+01  -1.50606125E+01  -1.50608711E+01  -2.04689481E+01  -1.14545473E+01  -2.03671281E+01  -2.03674304E+01  -2.94695755E+01  -2.99614974E+01
   2.36250000E+02   5.00000000E-01   5.00000000E-01  -6.91270807E+00  -1.47057767E+01  -3.25581870E+00  -1.32310070E+00  -1.95128630E+00  -3.23573703E+00  -1.98631961E+01  -6.71555014E+00  -5.11052090E+00  -2.61236254E-01  -4.16645341E+00  -1.95721668E+00  -1.01430054E+01  -3.33001964E-01  -1.79919919E+00  -7.74375475E+00  -3.39690234E+00  -6.02478868E+00  -4.40789771E+00  -2.78859093E+00  -1.30205889E+01  -1.23662425E+01  -1.07350536E+01  -1.31696587E+01  -8.77821812E+00  -8.20169521E+00  -1.07314104E+01  -1.38644449E+01  -2.37927932E+00  -5.16567689E+00  -3.15893985E+00  -4.19195420E+00  -8.29529628E+00  -2.90317573E+00  -4.33754278E+00  -6.60318230E+00  -6.26098635E+00  -4.06417450E+00  -6.90035495E+00  -1.37987244E+02  -1.03799220E+01  -6.42103567E+00  -1.15422456E+01  -1.14820544E+01  -7.45402736E+00  -3.20065939E+00  -9.79411099E+00  -3.67587925E+00  -5.90930129E+01  -1.22657151E+01  -8.40643035E+00  -1.97301289E+00  -4.27730153E+01  -6.61358852E+00  -8.13444865E+00  -4.62042844E+00  -7.56750087E+00  -7.09863769E+00  -7.86059873E+00  -8.05096464E+00  -1.03905627E+01  -8.98960086E+00  -7.03459655E+00  -6.33139832E+00  -1.20465528E+01  -6.14949820E+00  -1.33779278E+01  -6.79165535E+00  -1.02251452E+01  -1.50383044E+01  -1.50385623E+01  -2.04402524E+01  -1.14279447E+01  -2.03389470E+01  -2.03392478E+01  -2.94040915E+01  -2.98455867E+01
   2.53750000E+02   5.00000000E-01   5.00000000E-01  -6.87495315E+00  -1.46875405E+01  -3.23047598E+00  -1.32529015E+00  -1.94507665E+00  -3.20695016E+00  -1.98056105E+01  -6.71581542E+00  -5.11116108E+00  -2.61099224E-01  -4.16629606E+00  -1.95757030E+00  -1.01454956E+01  -3.32784139E-01  -1.79779617E+00  -7.74360205E+00  -3.39674499E+00  -6.03638504E+00  -4.40774036E+00  -2.77110643E+00  -1.29684020E+01  -1.23264933E+01  -1.07084627E+01  -1.31459753E+01  -8.76547959E+00  -8.19204553E+00  -1.07459072E+01  -1.38252956E+01  -2.38253429E+00  -5.19186212E+00  -3.14787854E+00  -4.19327892E+00  -8.25894131E+00  -2.89481334E+00  -4.29118902E+00  -6.56795279E+00  -6.22175233E+00  -4.02967521E+00  -6.88770479E+00  -1.37152769E+02  -1.03654702E+01  -6.39986662E+00  -1.14763808E+01  -1.14507289E+01  -7.39691824E+00  -3.19827603E+00  -9.77337838E+00  -3.67425569E+00  -5.87135247E+01  -1.22314527E+01  -8.39677009E+00  -1.97602051E+00  -4.25289171E+01  -6.60974586E+00  -8.14924547E+00  -4.62117885E+00  -7.51871530E+00  -7.08780578E+00  -7.88705355E+00  -8.04001643E+00  -1.04241454E+01  -9.00004667E+00  -7.01794564E+00  -6.32699869E+00  -1.20123845E+01  -6.14562007E+00  -1.33105052E+01  -6.77418416E+00  -1.02123001E+01  -1.50162016E+01  -1.50164591E+01  -2.04118556E+01  -1.14013734E+01  -2.03110594E+01  -2.03113590E+01  -2.93389752E+01  -2.97305127E+01
   2.71250000E+02   5.00000000E-01   5.00000000E-01  -6.83772357E+00  -1.46704905E+01  -3.20531643E+00  -1.32749422E+00  -1.93897825E+00  -3.18026623E+00  -1.97490208E+01  -6.71608645E+00  -5.11181069E+00  -2.60953972E-01  -4.16612934E+00  -1.95790241E+00  -1.01481818E+01  -3.32561621E-01  -1.79654262E+00  -7.74343997E+00  -3.39657827E+00  -6.04833392E+00  -4.40757364E+00  -2.75368028E+00  -1.29166715E+01  -1.22877195E+01  -1.06826826E+01  -1.31232421E+01  -8.75279090E+00  -8.18223965E+00  -1.07604229E+01  -1.37865683E+01  -2.38597814E+00  -5.21817578E+00  -3.13668034E+00  -4.19409195E+00  -8.22291656E+00  -2.88649434E+00  -4.24679966E+00  -6.53435277E+00  -6.18456960E+00  -3.99720878E+00  -6.87531619E+00  -1.36326125E+02  -1.03511618E+01  -6.37926503E+00  -1.14114925E+01  -1.14201372E+01  -7.34030325E+00  -3.19567897E+00  -9.75279281E+00  -3.67250851E+00  -5.83372761E+01  -1.21978344E+01  -8.38698004E+00  -1.97882490E+00  -4.22869765E+01  -6.60612765E+00  -8.16388995E+00  -4.62380942E+00  -7.47263764E+00  -7.07916040E+00  -7.91514483E+00  -8.02929347E+00  -1.04580173E+01  -9.01056292E+00  -7.00133565E+00  -6.32238503E+00  -1.19785319E+01  -6.14181714E+00  -1.32450422E+01  -6.75681489E+00  -1.01996468E+01  -1.49943720E+01  -1.49946297E+01  -2.03838481E+01  -1.13749027E+01  -2.02835559E+01  -2.02838545E+01  -2.92743653E+01  -2.96162458E+01
   2.88750000E+02   5.00000000E-01   5.00000000E-01  -6.80099223E+00  -1.46544115E+01  -3.18034279E+00  -1.32971361E+00  -1.93298747E+00  -3.15544604E+00  -1.96933526E+01  -6.71636349E+00  -5.11246903E+00  -2.60800754E-01  -4.16595349E+00  -1.95821350E+00  -1.01510703E+01  -3.32334391E-01  -1.79543004E+00  -7.74326877E+00  -3.39640242E+00  -6.06064578E+00  -4.40739779E+00  -2.73633240E+00  -1.28653782E+01  -1.22497493E+01  -1.06575771E+01  -1.31012685E+01  -8.74017674E+00  -8.17228750E+00  -1.07749963E+01  -1.37482749E+01  -2.38962400E+00  -5.24464304E+00  -3.12535286E+00  -4.19441386E+00  -8.18723429E+00  -2.87822382E+00  -4.20414582E+00  -6.50216530E+00  -6.14922047E+00  -3.96654533E+00  -6.86319704E+00  -1.35507169E+02  -1.03369938E+01  -6.35922629E+00  -1.13475572E+01  -1.13901305E+01  -7.28415893E+00  -3.19287987E+00  -9.73237196E+00  -3.67064250E+00  -5.79642121E+01  -1.21647348E+01  -8.37708619E+00  -1.98143291E+00  -4.20471658E+01  -6.60275796E+00  -8.17843245E+00  -4.62812585E+00  -7.42902319E+00  -7.07248384E+00  -7.94468257E+00  -8.01882245E+00  -1.04922013E+01  -9.02118724E+00  -6.98479159E+00  -6.31756782E+00  -1.19450088E+01  -6.13809552E+00  -1.31813372E+01  -6.73960360E+00  -1.01872581E+01  -1.49729250E+01  -1.49731835E+01  -2.03563755E+01  -1.13486465E+01  -2.02565818E+01  -2.02568799E+01  -2.92104829E+01  -2.95027425E+01
   3.06250000E+02   5.00000000E-01   5.00000000E-01  -6.76472787E+00  -1.46390462E+01  -3.15555413E+00  -1.33194898E+00  -1.92710089E+00  -3.13229119E+00  -1.96385190E+01  -6.71664676E+00  -5.11313535E+00  -2.60639815E-01  -4.16576875E+00  -1.95850434E+00  -1.01541699E+01  -3.32102432E-01  -1.79445046E+00  -7.74308868E+00  -3.39621768E+00  -6.07333114E+00  -4.40721305E+00  -2.71908926E+00  -1.28144986E+01  -1.22123775E+01  -1.06329852E+01  -1.30798257E+01  -8.72766234E+00  -8.16219851E+00  -1.07896714E+01  -1.37104320E+01  -2.39348621E+00  -5.27129510E+00  -3.11390337E+00  -4.19426429E+00  -8.15191134E+00  -2.87000663E+00  -4.16303888E+00  -6.47121310E+00  -6.11553226E+00  -3.93749531E+00  -6.85136014E+00  -1.34695749E+02  -1.03229604E+01  -6.33974104E+00  -1.12845419E+01  -1.13605308E+01  -7.22845761E+00  -3.18989005E+00  -9.71213814E+00  -3.66866263E+00  -5.75942737E+01  -1.21320034E+01  -8.36711856E+00  -1.98385126E+00  -4.18094575E+01  -6.59966013E+00  -8.19292674E+00  -4.63397961E+00  -7.38766331E+00  -7.06759868E+00  -7.97552127E+00  -8.00862944E+00  -1.05267251E+01  -9.03196236E+00  -6.96833898E+00  -6.31255694E+00  -1.19118337E+01  -6.13446092E+00  -1.31191584E+01  -6.72262400E+00  -1.01752285E+01  -1.49520032E+01  -1.49522632E+01  -2.03296275E+01  -1.13227542E+01  -2.02303268E+01  -2.02306249E+01  -2.91476154E+01  -2.93899472E+01
   3.23750000E+02   5.00000000E-01   5.00000000E-01  -6.72889882E+00  -1.46241303E+01  -3.13094937E+00  -1.33420098E+00  -1.92131526E+00  -3.11063531E+00  -1.95844318E+01  -6.71693644E+00  -5.11380892E+00  -2.60471383E-01  -4.16557533E+00  -1.95877592E+00  -1.01574903E+01  -3.31865729E-01  -1.79359647E+00  -7.74289991E+00  -3.39602426E+00  -6.08639992E+00  -4.40701963E+00  -2.70198069E+00  -1.27640082E+01  -1.21753927E+01  -1.06087413E+01  -1.30586785E+01  -8.71527319E+00  -8.15198152E+00  -1.08044932E+01  -1.36730565E+01  -2.39757996E+00  -5.29816497E+00  -3.10233879E+00  -4.19366200E+00  -8.11696529E+00  -2.86184739E+00  -4.12332173E+00  -6.44134990E+00  -6.08336473E+00  -3.90990075E+00  -6.83981928E+00  -1.33891716E+02  -1.03090558E+01  -6.32079851E+00  -1.12224117E+01  -1.13311546E+01  -7.17317119E+00  -3.18672054E+00  -9.69211438E+00  -3.66657402E+00  -5.72274017E+01  -1.20994844E+01  -8.35710733E+00  -1.98608649E+00  -4.15738248E+01  -6.59685617E+00  -8.20742565E+00  -4.64125502E+00  -7.34837999E+00  -7.06435847E+00  -8.00754675E+00  -7.99873924E+00  -1.05616169E+01  -9.04293202E+00  -6.95200357E+00  -6.30736172E+00  -1.18790254E+01  -6.13091864E+00  -1.30582717E+01  -6.70595702E+00  -1.01636607E+01  -1.49317607E+01  -1.49320231E+01  -2.03038094E+01  -1.12973892E+01  -2.02049963E+01  -2.02052951E+01  -2.90860738E+01  -2.92778043E+01
   3.41250000E+02   5.00000000E-01   5.00000000E-01  -6.69347719E+00  -1.46094306E+01  -3.10653091E+00  -1.33647018E+00  -1.91562751E+00  -3.09033758E+00  -1.95310141E+01  -6.71723271E+00  -5.11448898E+00  -2.60295676E-01  -4.16537344E+00  -1.95902935E+00  -1.01610401E+01  -3.31624269E-01  -1.79286110E+00  -7.74270266E+00  -3.39582237E+00  -6.09986042E+00  -4.40681774E+00  -2.68503609E+00  -1.27138858E+01  -1.21386073E+01  -1.05846965E+01  -1.30376191E+01  -8.70303452E+00  -8.14164493E+00  -1.08195029E+01  -1.36361622E+01  -2.40192077E+00  -5.32528280E+00  -3.09066573E+00  -4.19262490E+00  -8.08241037E+00  -2.85375049E+00  -4.08486231E+00  -6.41245396E+00  -6.05259951E+00  -3.88362881E+00  -6.82858516E+00  -1.33094929E+02  -1.02952765E+01  -6.30238950E+00  -1.11611363E+01  -1.13018381E+01  -7.11827526E+00  -3.18338198E+00  -9.67232026E+00  -3.66438184E+00  -5.68635409E+01  -1.20670381E+01  -8.34707877E+00  -1.98814502E+00  -4.13402411E+01  -6.59436576E+00  -8.22197585E+00  -4.64985812E+00  -7.31102238E+00  -7.06264018E+00  -8.04066449E+00  -7.98917432E+00  -1.05968999E+01  -9.05413631E+00  -6.93581080E+00  -6.30199097E+00  -1.18465992E+01  -6.12747356E+00  -1.29984709E+01  -6.68967930E+00  -1.01526493E+01  -1.49123402E+01  -1.49126058E+01  -2.02791108E+01  -1.12727065E+01  -2.01807797E+01  -2.01810799E+01  -2.90261451E+01  -2.91662707E+01