 TITLE = "Total Concentrations" 
VARIABLES = "X"          "Y"              "Z"            "H+"             "Al+++"          "CO2(aq)"        "Mg++"           "Ca++"           "Fe++"           "Fe+++"          "Ba++"           "Sr++"           "Cl-"            "F-"             "K+"             "HS-"            "Na+"            "SO4--"          "O2(aq)"         "B(OH)3(aq)"     "HPO4--"         "NO3-"           "H4SiO4(aq)"     "HNO3(aq)"       "Al(OH)2+"       "AlO2-"          "AlOH++"         "BaHCO3+"        "BaCl+"          "BaCO3(aq)"      "BaOH+"          "HCO3-"          "CO3--"          "CaCl+"          "CaCl2(aq)"      "CaOH+"          "CaSO4(aq)"      "FeCl+"          "FeCl2(aq)"      "FeOH+"          "FeSO4(aq)"      "OH-"            "S2O3--"         "H2S(aq)"        "H2PO4-"         "H3PO4(aq)"      "HAlO2(aq)"      "HSO4-"          "KCl(aq)"        "KOH(aq)"        "KSO4-"          "NH3(aq)"        "NaAlO2(aq)"     "NaOH(aq)"       "NaSO4-"         "H2(aq)"         "CaHPO4(aq)"     "CaPO4-"         "FeCO3(aq)"      "FeH2PO4+"       "FeHPO4(aq)"     "FePO4-"         "KHPO4-"         "PO4---"         "Sr(CO3)(aq)"    "SrHCO3+"        "SrCl+"          "SrOH+"          "SrSO4(aq)"      "AlH3SiO4++"     "Si2O2(OH)5-"    "Si2O3(OH)4--"   "Si3O5(OH)5---"  "Si3O6(OH)3---"  "Si4O12H4----"   "Si4O6(OH)6--"   "Si4O7(OH)6----" "Si4O8(OH)4----" "Si6O15------"   "SiF6--"        
 ZONE I=         100 , J=           1 , K=           1  F=POINT
   1.75000000E+01   5.00000000E-01   5.00000000E-01  -7.68300388E+00  -1.65373726E+01  -3.81619013E+00  -1.29690041E+00  -1.81244444E+00  -4.79953200E+00  -1.26218163E+01  -6.71246139E+00  -5.10997243E+00  -2.62469894E-01  -4.16749098E+00  -1.95336196E+00  -1.00819692E+01  -3.38023459E-01  -1.73799349E+00  -3.74472739E+00  -3.39793991E+00  -5.91791989E+00  -4.40893528E+00  -3.19114847E+00  -1.39682882E+01  -1.39851396E+01  -1.17015496E+01  -1.48131192E+01  -8.92926153E+00  -8.31064020E+00  -1.03002614E+01  -1.41751740E+01  -2.34020203E+00  -4.59217335E+00  -3.05793275E+00  -3.89603128E+00  -8.33099417E+00  -2.69363358E+00  -6.11241213E+00  -8.20337741E+00  -7.71986160E+00  -5.60242046E+00  -6.85567277E+00  -1.57723712E+02  -1.07644728E+01  -6.99064092E+00  -1.29587072E+01  -1.27369222E+01  -8.37467908E+00  -3.21342366E+00  -9.84440270E+00  -3.59417474E+00  -7.25075035E+01  -1.33159352E+01  -8.28507060E+00  -1.82340046E+00  -4.81119955E+01  -6.46525162E+00  -7.47192264E+00  -5.53484669E+00  -9.69240639E+00  -8.45397245E+00  -8.44655814E+00  -8.22102906E+00  -9.75747002E+00  -8.62211609E+00  -7.24139478E+00  -6.37416076E+00  -1.22895501E+01  -6.12218010E+00  -1.58584905E+01  -7.13226076E+00  -1.02771350E+01  -1.51466613E+01  -1.51469032E+01  -2.05804081E+01  -1.19893180E+01  -2.04721352E+01  -2.04724032E+01  -2.98610283E+01  -3.24979514E+01
   5.25000000E+01   5.00000000E-01   5.00000000E-01  -7.55356496E+00  -1.61318336E+01  -3.71569815E+00  -1.30172085E+00  -1.68124369E+00  -4.49317744E+00  -1.29943585E+01  -6.71263065E+00  -5.11576260E+00  -2.62743694E-01  -4.16747746E+00  -1.95454664E+00  -1.00982440E+01  -3.39721341E-01  -1.66518731E+00  -3.74471387E+00  -3.39792639E+00  -5.95620817E+00  -4.40892176E+00  -3.04749689E+00  -1.38241645E+01  -1.36957592E+01  -1.15700562E+01  -1.44747556E+01  -8.91804941E+00  -8.30526073E+00  -1.03965444E+01  -1.41859014E+01  -2.34362704E+00  -4.69243094E+00  -2.92895432E+00  -3.79514774E+00  -8.22599883E+00  -2.50263180E+00  -5.78925134E+00  -7.90580089E+00  -7.47149007E+00  -5.23161414E+00  -6.90100805E+00  -1.56192954E+02  -1.06936071E+01  -6.91639548E+00  -1.27507848E+01  -1.25345999E+01  -8.15623028E+00  -3.21947201E+00  -9.88573520E+00  -3.53203051E+00  -7.18756389E+01  -1.31832219E+01  -8.34837579E+00  -1.77058370E+00  -4.77467504E+01  -6.37432712E+00  -7.48017014E+00  -5.34933375E+00  -9.31477486E+00  -8.20828702E+00  -8.32816388E+00  -8.23809176E+00  -9.88872910E+00  -8.71724371E+00  -7.23044865E+00  -6.38218623E+00  -1.23143362E+01  -6.06317838E+00  -1.53192394E+01  -6.93346124E+00  -1.01492223E+01  -1.49477482E+01  -1.49479995E+01  -2.03217968E+01  -1.16030512E+01  -2.02142862E+01  -2.02145688E+01  -2.94178095E+01  -3.19360492E+01
   8.75000000E+01   5.00000000E-01   5.00000000E-01  -7.47486978E+00  -1.59909030E+01  -3.66290346E+00  -1.30637120E+00  -1.59852595E+00  -4.31796177E+00  -1.31421553E+01  -6.71284119E+00  -5.12050947E+00  -2.62929381E-01  -4.16743786E+00  -1.95548097E+00  -1.01062650E+01  -3.40912800E-01  -1.61313701E+00  -3.74467428E+00  -3.39788680E+00  -5.98471455E+00  -4.40888217E+00  -2.98798006E+00  -1.37298763E+01  -1.35706262E+01  -1.15034247E+01  -1.43506433E+01  -8.90443088E+00  -8.29851114E+00  -1.04404412E+01  -1.41474541E+01  -2.34588245E+00  -4.74267571E+00  -2.84700188E+00  -3.73948920E+00  -8.11995415E+00  -2.37819353E+00  -5.59598963E+00  -7.73642272E+00  -7.30408498E+00  -5.01000442E+00  -6.89770672E+00  -1.54816962E+02  -1.06631981E+01  -6.88145845E+00  -1.26320113E+01  -1.24459110E+01  -8.00788497E+00  -3.22375851E+00  -9.87700398E+00  -3.48861740E+00  -7.12988561E+01  -1.31136119E+01  -8.36065716E+00  -1.73602948E+00  -4.73855814E+01  -6.31939202E+00  -7.47440511E+00  -5.24207760E+00  -9.10718109E+00  -8.08141920E+00  -8.27824537E+00  -8.24348623E+00  -9.96193945E+00  -8.75899048E+00  -7.21595019E+00  -6.38760585E+00  -1.22885851E+01  -6.02135114E+00  -1.50812946E+01  -6.85419481E+00  -1.00920111E+01  -1.48556218E+01  -1.48558794E+01  -2.02043899E+01  -1.14560181E+01  -2.00976348E+01  -2.00979279E+01  -2.91920605E+01  -3.16576061E+01
   1.22500000E+02   5.00000000E-01   5.00000000E-01  -7.40928198E+00  -1.59025296E+01  -3.62119582E+00  -1.31098550E+00  -1.54360173E+00  -4.19463758E+00  -1.32157190E+01  -6.71307692E+00  -5.12433760E+00  -2.63038303E-01  -4.16737367E+00  -1.95618974E+00  -1.01122605E+01  -3.41660849E-01  -1.57593249E+00  -3.74461008E+00  -3.39782260E+00  -6.00716137E+00  -4.40881797E+00  -2.95445276E+00  -1.36478865E+01  -1.34729957E+01  -1.14400992E+01  -1.42663789E+01  -8.88943538E+00  -8.29052432E+00  -1.04706119E+01  -1.40974626E+01  -2.34787684E+00  -4.78131116E+00  -2.79152332E+00  -3.70864494E+00  -8.02981442E+00  -2.29400242E+00  -5.45351495E+00  -7.61626875E+00  -7.17606188E+00  -4.85271965E+00  -6.88329967E+00  -1.53508634E+02  -1.06419634E+01  -6.85205893E+00  -1.25310688E+01  -1.23717741E+01  -7.88623861E+00  -3.22645290E+00  -9.85588931E+00  -3.45821946E+00  -7.07395577E+01  -1.30457336E+01  -8.35965940E+00  -1.71406598E+00  -4.70284425E+01  -6.28376171E+00  -7.47552335E+00  -5.17251390E+00  -8.95667300E+00  -7.99809307E+00  -8.25910952E+00  -8.24114862E+00  -1.00182526E+01  -8.78615719E+00  -7.19907469E+00  -6.39069824E+00  -1.22500781E+01  -5.99120716E+00  -1.49119717E+01  -6.81569300E+00  -1.00642638E+01  -1.48083420E+01  -1.48086034E+01  -2.01457359E+01  -1.13906476E+01  -2.00397290E+01  -2.00400290E+01  -2.90594476E+01  -3.14541930E+01
   1.57500000E+02   5.00000000E-01   5.00000000E-01  -7.34844197E+00  -1.58296786E+01  -3.58261279E+00  -1.31561169E+00  -1.50666000E+00  -4.09916441E+00  -1.32505562E+01  -6.71333336E+00  -5.12738155E+00  -2.63081030E-01  -4.16728619E+00  -1.95670267E+00  -1.01178251E+01  -3.42036668E-01  -1.54977920E+00  -3.74452260E+00  -3.39773512E+00  -6.02546196E+00  -4.40873049E+00  -2.93003044E+00  -1.35699388E+01  -1.33825986E+01  -1.13764584E+01  -1.41933030E+01  -8.87347354E+00  -8.28144624E+00  -1.04958372E+01  -1.40443035E+01  -2.34988833E+00  -4.81683389E+00  -2.75284407E+00  -3.69308694E+00  -7.95414446E+00  -2.23675081E+00  -5.33792121E+00  -7.52157603E+00  -7.07177454E+00  -4.73222514E+00  -6.86605059E+00  -1.52243678E+02  -1.06232658E+01  -6.82189577E+00  -1.24333885E+01  -1.23003220E+01  -7.77928001E+00  -3.22773661E+00  -9.83081599E+00  -3.43724587E+00  -7.01894534E+01  -1.29761622E+01  -8.35387137E+00  -1.70114868E+00  -4.66753070E+01  -6.25983577E+00  -7.48422214E+00  -5.12539065E+00  -8.83297633E+00  -7.93644788E+00  -8.25719589E+00  -8.23321389E+00  -1.00677266E+01  -8.80766329E+00  -7.18037666E+00  -6.39175330E+00  -1.22073407E+01  -5.96939780E+00  -1.47655842E+01  -6.79241538E+00  -1.00486936E+01  -1.47798835E+01  -1.47801466E+01  -2.01112878E+01  -1.13558170E+01  -2.00060215E+01  -2.00063256E+01  -2.89674145E+01  -3.12756931E+01
   1.92500000E+02   5.00000000E-01   5.00000000E-01  -7.28984727E+00  -1.57630575E+01  -3.54487564E+00  -1.32026962E+00  -1.48215333E+00  -4.02108241E+00  -1.32607324E+01  -6.71360839E+00  -5.12977027E+00  -2.63067156E-01  -4.16717662E+00  -1.95705113E+00  -1.01234674E+01  -3.42110006E-01  -1.53204106E+00  -3.74441303E+00  -3.39762555E+00  -6.04084871E+00  -4.40862092E+00  -2.90902059E+00  -1.34936301E+01  -1.32951967E+01  -1.13132056E+01  -1.41246423E+01  -8.85678151E+00  -8.27141688E+00  -1.05188726E+01  -1.39905015E+01  -2.35202632E+00  -4.85172272E+00  -2.72554466E+00  -3.68753711E+00  -7.88991752E+00  -2.19854282E+00  -5.23887445E+00  -7.44214868E+00  -6.98330151E+00  -4.63571488E+00  -6.84837548E+00  -1.51011834E+02  -1.06052345E+01  -6.78983652E+00  -1.23354237E+01  -1.22298660E+01  -7.68200559E+00  -3.22778781E+00  -9.80435886E+00  -3.42325802E+00  -6.96461183E+01  -1.29057921E+01  -8.34592686E+00  -1.69488165E+00  -4.63261572E+01  -6.24358628E+00  -7.49891530E+00  -5.09300807E+00  -8.72456126E+00  -7.88751484E+00  -8.26598018E+00  -8.22112812E+00  -1.01138903E+01  -8.82639505E+00  -7.16022794E+00  -6.39104677E+00  -1.21630377E+01  -5.95371708E+00  -1.46295236E+01  -6.77534626E+00  -1.00386871E+01  -1.47602316E+01  -1.47604948E+01  -2.00878458E+01  -1.13334517E+01  -1.99833118E+01  -1.99836179E+01  -2.88954339E+01  -3.11065693E+01
   2.27500000E+02   5.00000000E-01   5.00000000E-01  -7.23263156E+00  -1.56996715E+01  -3.50728034E+00  -1.32496902E+00  -1.46658432E+00  -3.95492068E+00  -1.32539776E+01  -6.71390073E+00  -5.13162098E+00  -2.63005137E-01  -4.16704603E+00  -1.95726547E+00  -1.01293713E+01  -3.41943901E-01  -1.52079513E+00  -3.74428244E+00  -3.39749496E+00  -6.05420109E+00  -4.40849033E+00  -2.88937444E+00  -1.34181860E+01  -1.32095738E+01  -1.12508008E+01  -1.40582841E+01  -8.83953087E+00  -8.26056393E+00  -1.05407734E+01  -1.39369428E+01  -2.35434665E+00  -4.88677805E+00  -2.70624377E+00  -3.68874488E+00  -7.83451885E+00  -2.17422285E+00  -5.15101770E+00  -7.37275734E+00  -6.90607158E+00  -4.55606190E+00  -6.83106261E+00  -1.49807527E+02  -1.05873019E+01  -6.75602006E+00  -1.22365281E+01  -1.21601021E+01  -7.59174921E+00  -3.22677254E+00  -9.77745437E+00  -3.41451544E+00  -6.91087585E+01  -1.28352581E+01  -8.33681458E+00  -1.69356134E+00  -4.59809770E+01  -6.23265961E+00  -7.51805966E+00  -5.07095457E+00  -8.62615076E+00  -7.84694059E+00  -8.28192237E+00  -8.20596794E+00  -1.01583005E+01  -8.84352587E+00  -7.13892298E+00  -6.38882935E+00  -1.21181829E+01  -5.94263626E+00  -1.44994903E+01  -6.76112724E+00  -1.00316609E+01  -1.47454229E+01  -1.47456854E+01  -2.00702674E+01  -1.13167938E+01  -1.99664574E+01  -1.99667638E+01  -2.88351210E+01  -3.09414437E+01
   2.62500000E+02   5.00000000E-01   5.00000000E-01  -7.17647479E+00  -1.56384158E+01  -3.46964019E+00  -1.32971582E+00  -1.45758857E+00  -3.89746989E+00  -1.32352421E+01  -6.71420952E+00  -5.13303621E+00  -2.62902223E-01  -4.16689539E+00  -1.95737324E+00  -1.01356077E+01  -3.41592373E-01  -1.51459787E+00  -3.74413180E+00  -3.39734432E+00  -6.06617548E+00  -4.40833969E+00  -2.87033205E+00  -1.33433684E+01  -1.31253042E+01  -1.11894065E+01  -1.39934577E+01  -8.82186092E+00  -8.24900051E+00  -1.05620130E+01  -1.38839624E+01  -2.35688556E+00  -4.92224707E+00  -2.69267992E+00  -3.69456628E+00  -7.78591635E+00  -2.16021867E+00  -5.07124241E+00  -7.31040793E+00  -6.83722415E+00  -4.48885104E+00  -6.81436115E+00  -1.48627214E+02  -1.05693235E+01  -6.72089475E+00  -1.21369028E+01  -1.20909665E+01  -7.50685688E+00  -3.22483981E+00  -9.75048466E+00  -3.40973767E+00  -6.85771135E+01  -1.27648773E+01  -8.32696221E+00  -1.69593798E+00  -4.56397479E+01  -6.22558310E+00  -7.54045344E+00  -5.05649909E+00  -8.53503059E+00  -7.81238346E+00  -8.30295470E+00  -8.18856603E+00  -1.02017652E+01  -8.85963226E+00  -7.11670861E+00  -6.38532191E+00  -1.20732233E+01  -5.93506042E+00  -1.43738225E+01  -6.74844217E+00  -1.00265371E+01  -1.47337629E+01  -1.47340241E+01  -2.00564188E+01  -1.13031748E+01  -1.99533240E+01  -1.99536295E+01  -2.87826834E+01  -3.07783938E+01
   2.97500000E+02   5.00000000E-01   5.00000000E-01  -7.12125414E+00  -1.55788450E+01  -3.43194866E+00  -1.33451444E+00  -1.45349411E+00  -3.84669077E+00  -1.32079405E+01  -6.71453421E+00  -5.13410298E+00  -2.62764483E-01  -4.16672557E+00  -1.95739827E+00  -1.01422047E+01  -3.41099947E-01  -1.51234831E+00  -3.74396198E+00  -3.39717450E+00  -6.07727219E+00  -4.40816987E+00  -2.85161023E+00  -1.32691264E+01  -1.30422188E+01  -1.11290505E+01  -1.39298516E+01  -8.80389070E+00  -8.23682489E+00  -1.05828424E+01  -1.38316913E+01  -2.35967192E+00  -4.95818484E+00  -2.68327101E+00  -3.70352277E+00  -7.74256806E+00  -2.15396227E+00  -4.99759703E+00  -7.25324947E+00  -6.77486575E+00  -4.43114888E+00  -6.79832905E+00  -1.47468407E+02  -1.05512987E+01  -6.68493624E+00  -1.20369644E+01  -1.20224477E+01  -7.42620082E+00  -3.22211975E+00  -9.72362371E+00  -3.40796596E+00  -6.80511030E+01  -1.26948104E+01  -8.31658326E+00  -1.70107797E+00  -4.53024460E+01  -6.22138978E+00  -7.56521064E+00  -5.04785916E+00  -8.44967561E+00  -7.78248705E+00  -8.32780488E+00  -8.16957680E+00  -1.02447607E+01  -8.87505231E+00  -7.09379540E+00  -6.38071446E+00  -1.20283856E+01  -5.93018881E+00  -1.42518033E+01  -6.73674392E+00  -1.00228192E+01  -1.47244405E+01  -1.47247002E+01  -2.00453255E+01  -1.12914693E+01  -1.99429369E+01  -1.99432407E+01  -2.87361558E+01  -3.06167507E+01
   3.32500000E+02   5.00000000E-01   5.00000000E-01  -7.06692054E+00  -1.55207631E+01  -3.39426132E+00  -1.33936876E+00  -1.45307094E+00  -3.80120934E+00  -1.31745522E+01  -6.71487442E+00  -5.13489446E+00  -2.62596957E-01  -4.16653737E+00  -1.95736069E+00  -1.01491735E+01  -3.40502620E-01  -1.51318978E+00  -3.74377378E+00  -3.39698630E+00  -6.08788070E+00  -4.40798167E+00  -2.83310676E+00  -1.31954734E+01  -1.29602418E+01  -1.10697091E+01  -1.38673276E+01  -8.78572500E+00  -8.22412186E+00  -1.06034194E+01  -1.37801805E+01  -2.36273187E+00  -4.99458123E+00  -2.67686523E+00  -3.71455307E+00  -7.70329531E+00  -2.15354346E+00  -4.92878358E+00  -7.20007172E+00  -6.71768895E+00  -4.38090304E+00  -6.78295549E+00  -1.46329231E+02  -1.05332743E+01  -6.64857052E+00  -1.19371457E+01  -1.19545480E+01  -7.34895905E+00  -3.21872475E+00  -9.69696065E+00  -3.40846657E+00  -6.75307039E+01  -1.26251469E+01  -8.30580140E+00  -1.70826799E+00  -4.49690423E+01  -6.21941540E+00  -7.59168093E+00  -5.04382537E+00  -8.36916921E+00  -7.75642291E+00  -8.35566160E+00  -8.14952324E+00  -1.02875978E+01  -8.89001669E+00  -7.07036536E+00  -6.37516936E+00  -1.19838022E+01  -5.92742063E+00  -1.41330783E+01  -6.72578612E+00  -1.00202462E+01  -1.47170085E+01  -1.47172669E+01  -2.00364808E+01  -1.12811589E+01  -1.99347892E+01  -1.99350911E+01  -2.86943571E+01  -3.04563140E+01
   3.67500000E+02   5.00000000E-01   5.00000000E-01  -7.01345261E+00  -1.54640751E+01  -3.35665225E+00  -1.34428246E+00  -1.45540617E+00  -3.76005455E+00  -1.31369032E+01  -6.71523000E+00  -5.13547014E+00  -2.62403725E-01  -4.16633151E+00  -1.95727679E+00  -1.01565188E+01  -3.39828475E-01  -1.51646038E+00  -3.74356793E+00  -3.39678045E+00  -6.09830241E+00  -4.40777582E+00  -2.81478873E+00  -1.31224411E+01  -1.28793351E+01  -1.10113422E+01  -1.38058183E+01  -8.76745708E+00  -8.21096354E+00  -1.06238567E+01  -1.37294467E+01  -2.36609096E+00  -5.03140839E+00  -2.67261691E+00  -3.72688968E+00  -7.66720389E+00  -2.15753665E+00  -4.86389607E+00  -7.15004406E+00  -6.66475606E+00  -4.33663145E+00  -6.76820625E+00  -1.45208238E+02  -1.05153087E+01  -6.61215136E+00  -1.18378270E+01  -1.18872724E+01  -7.27452054E+00  -3.21474984E+00  -9.67054548E+00  -3.41068188E+00  -6.70159037E+01  -1.25559412E+01  -8.29469698E+00  -1.71696701E+00  -4.46395015E+01  -6.21919755E+00  -7.61939455E+00  -5.04354750E+00  -8.29291880E+00  -7.73365199E+00  -8.38598179E+00  -8.12882042E+00  -1.03304906E+01  -8.90469734E+00  -7.04657493E+00  -6.36882223E+00  -1.19395572E+01  -5.92630698E+00  -1.40174420E+01  -6.71544578E+00  -1.00186606E+01  -1.47111855E+01  -1.47114431E+01  -2.00295826E+01  -1.12719773E+01  -1.99285786E+01  -1.99288786E+01  -2.86564923E+01  -3.02970586E+01
   4.02500000E+02   5.00000000E-01   5.00000000E-01  -6.96083887E+00  -1.54087290E+01  -3.31919788E+00  -1.34925917E+00  -1.45982808E+00  -3.72251171E+00  -1.30963299E+01  -6.71560093E+00  -5.13587638E+00  -2.62187993E-01  -4.16610866E+00  -1.95715917E+00  -1.01642428E+01  -3.39098574E-01  -1.52165891E+00  -3.74334508E+00  -3.39655760E+00  -6.10876638E+00  -4.40755297E+00  -2.79664920E+00  -1.30500631E+01  -1.27994757E+01  -1.09539068E+01  -1.37452868E+01  -8.74917054E+00  -8.19741043E+00  -1.06442424E+01  -1.36794907E+01  -2.36977495E+00  -5.06863841E+00  -2.66991166E+00  -3.73998490E+00  -7.63362624E+00  -2.16489301E+00  -4.80227492E+00  -7.10257099E+00  -6.61537067E+00  -4.29724383E+00  -6.75404088E+00  -1.44104299E+02  -1.04974591E+01  -6.57595927E+00  -1.17393182E+01  -1.18206250E+01  -7.20243428E+00  -3.21027390E+00  -9.64440739E+00  -3.41419767E+00  -6.65066841E+01  -1.24872279E+01  -8.28332608E+00  -1.72677418E+00  -4.43137827E+01  -6.22041762E+00  -7.64802149E+00  -5.04640784E+00  -8.22050906E+00  -7.71379584E+00  -8.41837902E+00  -8.10779268E+00  -1.03735878E+01  -8.91922800E+00  -7.02255741E+00  -6.36178368E+00  -1.18957051E+01  -5.92651951E+00  -1.39047540E+01  -6.70565363E+00  -1.00179559E+01  -1.47067762E+01  -1.47070340E+01  -2.00244279E+01  -1.12637706E+01  -1.99241018E+01  -1.99244005E+01  -2.86219894E+01  -3.01390225E+01
   4.37500000E+02   5.00000000E-01   5.00000000E-01  -6.90907089E+00  -1.53546922E+01  -3.28197167E+00  -1.35430253E+00  -1.46583520E+00  -3.68803847E+00  -1.30538260E+01  -6.71598730E+00  -5.13614921E+00  -2.61952286E-01  -4.16586942E+00  -1.95701742E+00  -1.01723462E+01  -3.38328552E-01  -1.52840300E+00  -3.74310584E+00  -3.39631835E+00  -6.11944812E+00  -4.40731373E+00  -2.77869024E+00  -1.29783689E+01  -1.27206472E+01  -1.08973617E+01  -1.36857102E+01  -8.73094138E+00  -8.18351357E+00  -1.06646496E+01  -1.36303056E+01  -2.37381024E+00  -5.10624893E+00  -2.66829713E+00  -3.75344372E+00  -7.60205829E+00  -2.17483216E+00  -4.74342471E+00  -7.05721185E+00  -6.56900144E+00  -4.26192039E+00  -6.74041910E+00  -1.43016518E+02  -1.04797775E+01  -6.54021538E+00  -1.16418670E+01  -1.17546082E+01  -7.13236250E+00  -3.20536261E+00  -9.61856370E+00  -3.41870442E+00  -6.60030169E+01  -1.24190297E+01  -8.27173021E+00  -1.73739102E+00  -4.39918403E+01  -6.22285309E+00  -7.67732942E+00  -5.05194686E+00  -8.15163290E+00  -7.69657575E+00  -8.45256826E+00  -8.08669561E+00  -1.04169953E+01  -8.93371706E+00  -6.99842787E+00  -6.35414428E+00  -1.18522818E+01  -5.92781637E+00  -1.37949042E+01  -6.69636493E+00  -1.00180530E+01  -1.47036343E+01  -1.47038932E+01  -2.00208660E+01  -1.12564381E+01  -1.99212081E+01  -1.99215061E+01  -2.85904139E+01  -2.99822623E+01
   4.72500000E+02   5.00000000E-01   5.00000000E-01  -6.85814072E+00  -1.53019401E+01  -3.24504273E+00  -1.35941621E+00  -1.47304918E+00  -3.65621268E+00  -1.30101386E+01  -6.71638929E+00  -5.13631656E+00  -2.61698592E-01  -4.16561434E+00  -1.95685885E+00  -1.01808293E+01  -3.37529900E-01  -1.53639947E+00  -3.74285075E+00  -3.39606327E+00  -6.13048274E+00  -4.40705864E+00  -2.76091629E+00  -1.29073831E+01  -1.26428358E+01  -1.08416682E+01  -1.36270720E+01  -8.71283948E+00  -8.16931622E+00  -1.06851416E+01  -1.35818801E+01  -2.37822391E+00  -5.14422445E+00  -2.66743739E+00  -3.76697974E+00  -7.57211574E+00  -2.18676911E+00  -4.68696351E+00  -7.01363176E+00  -6.52523345E+00  -4.23003374E+00  -6.72730296E+00  -1.41944162E+02  -1.04623094E+01  -6.50509356E+00  -1.15456695E+01  -1.16892220E+01  -7.06404988E+00  -3.20007091E+00  -9.59302434E+00  -3.42397029E+00  -6.55048641E+01  -1.23513610E+01  -8.25994125E+00  -1.74859494E+00  -4.36736255E+01  -6.22634735E+00  -7.70715509E+00  -5.05981601E+00  -8.08605261E+00  -7.68177747E+00  -8.48833216E+00  -8.06573192E+00  -1.04607896E+01  -8.94825495E+00  -6.97428696E+00  -6.34597849E+00  -1.18093106E+01  -5.93001873E+00  -1.36877975E+01  -6.68754702E+00  -1.00188888E+01  -1.47016439E+01  -1.47019053E+01  -2.00187770E+01  -1.12499063E+01  -1.99197776E+01  -1.99200760E+01  -2.85614252E+01  -2.98268360E+01
   5.07500000E+02   5.00000000E-01   5.00000000E-01  -6.80803992E+00  -1.52504521E+01  -3.20847567E+00  -1.36460394E+00  -1.48118225E+00  -3.62669881E+00  -1.29658346E+01  -6.71680710E+00  -5.13640003E+00  -2.61428488E-01  -4.16534391E+00  -1.95668890E+00  -1.01896917E+01  -3.36710973E-01  -1.54542275E+00  -3.74258033E+00  -3.39579285E+00  -6.14197447E+00  -4.40678822E+00  -2.74333163E+00  -1.28371248E+01  -1.25660282E+01  -1.07867906E+01  -1.35693582E+01  -8.69492981E+00  -8.15485528E+00  -1.07057750E+01  -1.35342009E+01  -2.38304379E+00  -5.18255619E+00  -2.66708154E+00  -3.78038524E+00  -7.54350324E+00  -2.20026329E+00  -4.63259045E+00  -6.97157067E+00  -6.48373623E+00  -4.20109682E+00  -6.71465751E+00  -1.40886626E+02  -1.04450945E+01  -6.47073029E+00  -1.14508798E+01  -1.16244643E+01  -6.99730227E+00  -3.19444505E+00  -9.56779430E+00  -3.42982166E+00  -6.50121793E+01  -1.22842303E+01  -8.24798436E+00  -1.76022027E+00  -4.33590869E+01  -6.23078972E+00  -7.73738455E+00  -5.06974679E+00  -8.02357683E+00  -7.66923006E+00  -8.52550009E+00  -8.04506316E+00  -1.05050263E+01  -8.96291889E+00  -6.95022385E+00  -6.33734793E+00  -1.17668061E+01  -5.93299435E+00  -1.35833472E+01  -6.67917366E+00  -1.00204110E+01  -1.47007102E+01  -1.47009757E+01  -2.00180613E+01  -1.12441173E+01  -1.99197103E+01  -1.99200104E+01  -2.85347498E+01  -2.96727968E+01
   5.42500000E+02   5.00000000E-01   5.00000000E-01  -6.75875927E+00  -1.52002085E+01  -3.17233098E+00  -1.36986945E+00  -1.49001410E+00  -3.59922544E+00  -1.29213466E+01  -6.71724096E+00  -5.13641633E+00  -2.61143231E-01  -4.16505861E+00  -1.95651162E+00  -1.01989327E+01  -3.35877767E-01  -1.55529881E+00  -3.74229502E+00  -3.39550754E+00  -6.15400354E+00  -4.40650292E+00  -2.72593946E+00  -1.27676087E+01  -1.24902109E+01  -1.07326956E+01  -1.35125562E+01  -8.67727319E+00  -8.14016241E+00  -1.07266014E+01  -1.34872533E+01  -2.38829828E+00  -5.22124136E+00  -2.66704160E+00  -3.79351014E+00  -7.51599205E+00  -2.21498191E+00  -4.58006424E+00  -6.93082284E+00  -6.44424214E+00  -4.17472692E+00  -6.70245087E+00  -1.39843401E+02  -1.04281666E+01  -6.43723232E+00  -1.13576181E+01  -1.15603312E+01  -6.93197143E+00  -3.18852421E+00  -9.54287523E+00  -3.43612889E+00  -6.45249095E+01  -1.22176418E+01  -8.23587986E+00  -1.77214431E+00  -4.30481712E+01  -6.23610182E+00  -7.76793905E+00  -5.08152999E+00  -7.96404638E+00  -7.65879279E+00  -8.56393462E+00  -8.02481843E+00  -1.05497447E+01  -8.97777617E+00  -6.92631852E+00  -6.32830395E+00  -1.17247763E+01  -5.93664575E+00  -1.34814714E+01  -6.67122235E+00  -1.00225750E+01  -1.47007536E+01  -1.47010249E+01  -2.00186331E+01  -1.12390227E+01  -1.99209206E+01  -1.99212239E+01  -2.85101647E+01  -2.95201908E+01
   5.77500000E+02   5.00000000E-01   5.00000000E-01  -6.71028878E+00  -1.51511900E+01  -3.13666543E+00  -1.37521650E+00  -1.49937511E+00  -3.57356978E+00  -1.28770075E+01  -6.71769107E+00  -5.13637834E+00  -2.60843830E-01  -4.16475885E+00  -1.95632998E+00  -1.02085506E+01  -3.35034525E-01  -1.56589317E+00  -3.74199527E+00  -3.39520779E+00  -6.16663124E+00  -4.40620316E+00  -2.70874172E+00  -1.26988452E+01  -1.24153696E+01  -1.06793522E+01  -1.34566529E+01  -8.65992702E+00  -8.12526497E+00  -1.07476686E+01  -1.34410218E+01  -2.39401634E+00  -5.26028237E+00  -2.66717644E+00  -3.80624688E+00  -7.48940381E+00  -2.23067317E+00  -4.52918842E+00  -6.89122317E+00  -6.40653146E+00  -4.15062024E+00  -6.69065407E+00  -1.38814050E+02  -1.04115546E+01  -6.40468257E+00  -1.12659773E+01  -1.14968167E+01  -6.86794369E+00  -3.18234190E+00  -9.51826647E+00  -3.44279571E+00  -6.40429958E+01  -1.21515959E+01  -8.22364444E+00  -1.78427693E+00  -4.27408243E+01  -6.24222784E+00  -7.79876495E+00  -5.09500134E+00  -7.90732526E+00  -7.65034667E+00  -8.60352262E+00  -8.00510093E+00  -1.05949728E+01  -8.99288652E+00  -6.90264357E+00  -6.31888969E+00  -1.16832246E+01  -5.94090144E+00  -1.33820914E+01  -6.66367292E+00  -1.00253416E+01  -1.47017059E+01  -1.47019850E+01  -2.00204172E+01  -1.12345801E+01  -1.99233331E+01  -1.99236414E+01  -2.84874851E+01  -2.93690561E+01
   6.12500000E+02   5.00000000E-01   5.00000000E-01  -6.66261770E+00  -1.51033763E+01  -3.10153241E+00  -1.38064886E+00  -1.50913388E+00  -3.54954679E+00  -1.28330745E+01  -6.71815762E+00  -5.13629605E+00  -2.60531102E-01  -4.16444503E+00  -1.95614615E+00  -1.02185436E+01  -3.34184194E-01  -1.57710175E+00  -3.74168145E+00  -3.39489397E+00  -6.17990375E+00  -4.40588934E+00  -2.69173910E+00  -1.26308416E+01  -1.23414892E+01  -1.06267312E+01  -1.34016350E+01  -8.64294565E+00  -8.11018675E+00  -1.07690215E+01  -1.33954911E+01  -2.40022723E+00  -5.29968600E+00  -2.66738001E+00  -3.81851937E+00  -7.46359833E+00  -2.24714639E+00  -4.47980106E+00  -6.85263754E+00  -6.37042175E+00  -4.12853345E+00  -6.67924082E+00  -1.37798194E+02  -1.03952827E+01  -6.37314464E+00  -1.11760277E+01  -1.14339132E+01  -6.80513161E+00  -3.17592697E+00  -9.49396582E+00  -3.44975116E+00  -6.35663756E+01  -1.20860904E+01  -8.21129215E+00  -1.79655279E+00  -4.24369915E+01  -6.24912759E+00  -7.82982623E+00  -5.11003127E+00  -7.85329458E+00  -7.64378894E+00  -8.64416921E+00  -7.98599295E+00  -1.06407287E+01  -9.00830382E+00  -6.87926553E+00  -6.30914170E+00  -1.16421508E+01  -5.94570949E+00  -1.32851303E+01  -6.65650670E+00  -1.00286760E+01  -1.47035079E+01  -1.47037968E+01  -2.00233463E+01  -1.12307513E+01  -1.99268806E+01  -1.99271957E+01  -2.84665558E+01  -2.92194233E+01
   6.47500000E+02   5.00000000E-01   5.00000000E-01  -6.61573464E+00  -1.50567459E+01  -3.06698227E+00  -1.38617025E+00  -1.51918794E+00  -3.52700120E+00  -1.27897487E+01  -6.71864078E+00  -5.13617721E+00  -2.60205719E-01  -4.16411751E+00  -1.95596168E+00  -1.02289088E+01  -3.33328770E-01  -1.58884385E+00  -3.74135392E+00  -3.39456644E+00  -6.19385495E+00  -4.40556181E+00  -2.67493114E+00  -1.25636020E+01  -1.22685533E+01  -1.05748044E+01  -1.33474877E+01  -8.62638072E+00  -8.09494856E+00  -1.07907027E+01  -1.33506455E+01  -2.40696034E+00  -5.33946261E+00  -2.66757251E+00  -3.83027473E+00  -7.43846458E+00  -2.26425696E+00  -4.43176738E+00  -6.81495599E+00  -6.33576012E+00  -4.10827016E+00  -6.66818728E+00  -1.36795495E+02  -1.03793712E+01  -6.34266630E+00  -1.10878212E+01  -1.13716113E+01  -6.74346756E+00  -3.16930452E+00  -9.46997010E+00  -3.45694354E+00  -6.30949829E+01  -1.20211207E+01  -8.19883505E+00  -1.80892531E+00  -4.21366177E+01  -6.25677132E+00  -7.86109891E+00  -5.12651752E+00  -7.80184843E+00  -7.63902919E+00  -8.68579350E+00  -7.96755960E+00  -1.06870233E+01  -9.02407734E+00  -6.85624589E+00  -6.29909125E+00  -1.16015528E+01  -5.95103266E+00  -1.31905128E+01  -6.64970607E+00  -1.00325469E+01  -1.47061070E+01  -1.47064080E+01  -2.00273594E+01  -1.12275012E+01  -1.99315020E+01  -1.99318259E+01  -2.84472443E+01  -2.90713156E+01
   6.82500000E+02   5.00000000E-01   5.00000000E-01  -6.56962762E+00  -1.50112759E+01  -3.03306242E+00  -1.39178440E+00  -1.52945675E+00  -3.50580169E+00  -1.27471880E+01  -6.71914066E+00  -5.13602786E+00  -2.59868241E-01  -4.16377660E+00  -1.95577765E+00  -1.02396428E+01  -3.32469560E-01  -1.60105682E+00  -3.74101301E+00  -3.39422553E+00  -6.20850849E+00  -4.40522091E+00  -2.65831640E+00  -1.24971283E+01  -1.21965443E+01  -1.05235452E+01  -1.32941952E+01  -8.61028134E+00  -8.07956872E+00  -1.08127526E+01  -1.33064698E+01  -2.41424498E+00  -5.37962550E+00  -2.66769377E+00  -3.84147717E+00  -7.41391372E+00  -2.28189509E+00  -4.38497428E+00  -6.77808779E+00  -6.30241760E+00  -4.08967072E+00  -6.65747189E+00  -1.35805652E+02  -1.03638367E+01  -6.31328213E+00  -1.10013942E+01  -1.13099006E+01  -6.68289890E+00  -3.16249651E+00  -9.44627555E+00  -3.46433580E+00  -6.26287495E+01  -1.19566803E+01  -8.18628371E+00  -1.82136219E+00  -4.18396482E+01  -6.26513587E+00  -7.89256689E+00  -5.14437955E+00  -7.75289094E+00  -7.63598660E+00  -8.72832550E+00  -7.94985177E+00  -1.07338611E+01  -9.04025270E+00  -6.83364181E+00  -6.28876534E+00  -1.15614265E+01  -5.95684468E+00  -1.30981643E+01  -6.64325411E+00  -1.00369255E+01  -1.47094562E+01  -1.47097715E+01  -2.00324004E+01  -1.12247966E+01  -1.99371413E+01  -1.99374763E+01  -2.84294357E+01  -2.89247497E+01