 TITLE = "Total Concentrations" 
VARIABLES = "X"          "Y"              "Z"            "H+"             "Al+++"          "CO2(aq)"        "Mg++"           "Ca++"           "Fe++"           "Fe+++"          "Ba++"           "Sr++"           "Cl-"            "F-"             "K+"             "HS-"            "Na+"            "SO4--"          "O2(aq)"         "B(OH)3(aq)"     "HPO4--"         "NO3-"           "H4SiO4(aq)"     "HNO3(aq)"       "Al(OH)2+"       "AlO2-"          "AlOH++"         "BaHCO3+"        "BaCl+"          "BaCO3(aq)"      "BaOH+"          "HCO3-"          "CO3--"          "CaCl+"          "CaCl2(aq)"      "CaOH+"          "CaSO4(aq)"      "FeCl+"          "FeCl2(aq)"      "FeOH+"          "FeSO4(aq)"      "OH-"            "S2O3--"         "H2S(aq)"        "H2PO4-"         "H3PO4(aq)"      "HAlO2(aq)"      "HSO4-"          "KCl(aq)"        "KOH(aq)"        "KSO4-"          "NH3(aq)"        "NaAlO2(aq)"     "NaOH(aq)"       "NaSO4-"         "H2(aq)"         "CaHPO4(aq)"     "CaPO4-"         "FeCO3(aq)"      "FeH2PO4+"       "FeHPO4(aq)"     "FePO4-"         "KHPO4-"         "PO4---"         "Sr(CO3)(aq)"    "SrHCO3+"        "SrCl+"          "SrOH+"          "SrSO4(aq)"      "AlH3SiO4++"     "Si2O2(OH)5-"    "Si2O3(OH)4--"   "Si3O5(OH)5---"  "Si3O6(OH)3---"  "Si4O12H4----"   "Si4O6(OH)6--"   "Si4O7(OH)6----" "Si4O8(OH)4----" "Si6O15------"   "SiF6--"        
 ZONE I=         100 , J=           1 , K=           1  F=POINT
   1.75000000E+01   5.00000000E-01   5.00000000E-01  -7.75495696E+00  -1.80675405E+01  -3.89849169E+00  -1.30566546E+00  -2.01677531E+00  -3.35774439E+00  -1.15291463E+01  -6.71264627E+00  -5.10357342E+00  -2.62150982E-01  -4.16748106E+00  -1.95177508E+00  -1.00234314E+01  -3.35186559E-01  -1.83571480E+00  -7.74476806E+00  -3.39792999E+00  -5.93485158E+00  -4.40892536E+00  -2.76197685E+00  -1.40331947E+01  -1.53316199E+01  -1.28787854E+01  -1.62546290E+01  -8.92828527E+00  -8.30411463E+00  -1.02183357E+01  -1.40700566E+01  -2.34699885E+00  -4.52300693E+00  -3.25852349E+00  -4.09871183E+00  -8.43494970E+00  -2.98721450E+00  -4.66219869E+00  -6.75462874E+00  -6.18555031E+00  -4.24874487E+00  -6.76362553E+00  -1.49774275E+02  -1.07852332E+01  -7.07884551E+00  -1.31150282E+01  -1.39975028E+01  -8.53581267E+00  -3.20760599E+00  -9.74474184E+00  -3.68645167E+00  -6.44472653E+01  -1.44855649E+01  -8.19012835E+00  -1.91684990E+00  -4.60183028E+01  -6.67534501E+00  -7.60573742E+00  -4.01811526E+00  -8.33620056E+00  -7.02292951E+00  -6.94616254E+00  -8.22468639E+00  -9.70163803E+00  -8.53193678E+00  -7.23252766E+00  -6.36297410E+00  -1.21799438E+01  -6.20273397E+00  -1.68590109E+01  -6.19739620E+00  -9.25937850E+00  -1.36237263E+01  -1.36239708E+01  -1.85428449E+01  -1.01252762E+01  -1.84347595E+01  -1.84350315E+01  -2.68321582E+01  -3.23836887E+01
   5.25000000E+01   5.00000000E-01   5.00000000E-01  -7.60780235E+00  -1.77409098E+01  -3.78954882E+00  -1.31600896E+00  -1.98522191E+00  -3.17770762E+00  -1.17109788E+01  -6.71306502E+00  -5.10442437E+00  -2.62145661E-01  -4.16743256E+00  -1.95165775E+00  -9.99604629E+00  -3.34753270E-01  -1.82842952E+00  -7.74477031E+00  -3.39788149E+00  -5.95870062E+00  -4.40887686E+00  -2.57989389E+00  -1.38604435E+01  -1.50832836E+01  -1.27753587E+01  -1.59813925E+01  -8.90591303E+00  -8.29050694E+00  -1.03078298E+01  -1.40380073E+01  -2.35102379E+00  -4.63054909E+00  -3.22541764E+00  -4.10185601E+00  -8.39494182E+00  -2.95548491E+00  -4.45240889E+00  -6.57742090E+00  -6.04394944E+00  -4.06158366E+00  -6.78751719E+00  -1.47785433E+02  -1.06694752E+01  -6.97524233E+00  -1.28548186E+01  -1.38301068E+01  -8.35216484E+00  -3.20880250E+00  -9.75571306E+00  -3.68639627E+00  -6.35469027E+01  -1.43728382E+01  -8.23280999E+00  -1.92967134E+00  -4.54735747E+01  -6.65830362E+00  -7.69400149E+00  -3.96459870E+00  -8.05380287E+00  -6.88792742E+00  -6.95812513E+00  -8.20834006E+00  -9.82732525E+00  -8.61182957E+00  -7.20256141E+00  -6.36128864E+00  -1.21606979E+01  -6.19514529E+00  -1.63227662E+01  -5.92579528E+00  -9.05213376E+00  -1.33076952E+01  -1.33079514E+01  -1.81228542E+01  -9.60166279E+00  -1.80159000E+01  -1.80161906E+01  -2.61600731E+01  -3.17611186E+01
   8.75000000E+01   5.00000000E-01   5.00000000E-01  -7.50313700E+00  -1.75846394E+01  -3.71786859E+00  -1.32417578E+00  -1.95691747E+00  -3.11751098E+00  -1.17572656E+01  -6.71351636E+00  -5.10539298E+00  -2.62083840E-01  -4.16732927E+00  -1.95157556E+00  -9.96697768E+00  -3.34433871E-01  -1.82201512E+00  -7.74471788E+00  -3.39777820E+00  -5.96999050E+00  -4.40877357E+00  -2.50525511E+00  -1.37293956E+01  -1.49242491E+01  -1.26808660E+01  -1.58373090E+01  -8.88016643E+00  -8.27568725E+00  -1.03541889E+01  -1.39680998E+01  -2.35291873E+00  -4.69620897E+00  -3.19388255E+00  -4.10430130E+00  -8.31927163E+00  -2.92595548E+00  -4.36126020E+00  -6.51680149E+00  -5.98188697E+00  -3.99316744E+00  -6.77317943E+00  -1.45912860E+02  -1.05911905E+01  -6.89962461E+00  -1.26641037E+01  -1.37108972E+01  -8.21041947E+00  -3.20858900E+00  -9.72754470E+00  -3.68548010E+00  -6.27012571E+01  -1.42678371E+01  -8.23472165E+00  -1.94117764E+00  -4.49389206E+01  -6.62995050E+00  -7.72905799E+00  -3.98644281E+00  -7.91945419E+00  -6.85853301E+00  -7.03304846E+00  -8.17804251E+00  -9.90063001E+00  -8.64887227E+00  -7.16917807E+00  -6.35814879E+00  -1.21030782E+01  -6.18726181E+00  -1.60286530E+01  -5.82917190E+00  -8.98036618E+00  -1.31947528E+01  -1.31950146E+01  -1.79738302E+01  -9.42746716E+00  -1.78679913E+01  -1.78682925E+01  -2.58936400E+01  -3.14077128E+01
   1.22500000E+02   5.00000000E-01   5.00000000E-01  -7.41010667E+00  -1.74622291E+01  -3.65459763E+00  -1.33150481E+00  -1.93086122E+00  -3.09090263E+00  -1.17690127E+01  -6.71398547E+00  -5.10644301E+00  -2.61973440E-01  -4.16717548E+00  -1.95152246E+00  -9.93995062E+00  -3.34151478E-01  -1.81654034E+00  -7.74461504E+00  -3.39762441E+00  -5.97904560E+00  -4.40861978E+00  -2.46254738E+00  -1.36092982E+01  -1.47796061E+01  -1.25818889E+01  -1.57167071E+01  -8.85297633E+00  -8.25975727E+00  -1.03900358E+01  -1.38910007E+01  -2.35449144E+00  -4.75247810E+00  -3.16305465E+00  -4.10533546E+00  -8.23766871E+00  -2.89788782E+00  -4.30263109E+00  -6.48678907E+00  -5.94390237E+00  -3.95751476E+00  -6.75124047E+00  -1.44094294E+02  -1.05234519E+01  -6.83159579E+00  -1.24917358E+01  -1.35957603E+01  -8.07993423E+00  -3.20709161E+00  -9.69096937E+00  -3.68390898E+00  -6.18792035E+01  -1.41571997E+01  -8.22663896E+00  -1.95153415E+00  -4.44140571E+01  -6.59980084E+00  -7.75129001E+00  -4.03011156E+00  -7.82648022E+00  -6.85890794E+00  -7.12597071E+00  -8.14431458E+00  -9.96258696E+00  -8.67566551E+00  -7.13430328E+00  -6.35365109E+00  -1.20377620E+01  -6.17928717E+00  -1.57951441E+01  -5.78726922E+00  -8.95458387E+00  -1.31506935E+01  -1.31509568E+01  -1.79167868E+01  -9.36221013E+00  -1.78120459E+01  -1.78123517E+01  -2.57646178E+01  -3.11251542E+01
   1.57500000E+02   5.00000000E-01   5.00000000E-01  -7.32133008E+00  -1.73463202E+01  -3.59317695E+00  -1.33861253E+00  -1.90645365E+00  -3.07459550E+00  -1.17723596E+01  -6.71447122E+00  -5.10755844E+00  -2.61820035E-01  -4.16697485E+00  -1.95149401E+00  -9.91576746E+00  -3.33875266E-01  -1.81197447E+00  -7.74446548E+00  -3.39742378E+00  -5.98924523E+00  -4.40841915E+00  -2.42988246E+00  -1.34928704E+01  -1.46366557E+01  -1.24802892E+01  -1.55995875E+01  -8.82511416E+00  -8.24283263E+00  -1.04233801E+01  -1.38139354E+01  -2.35637839E+00  -4.80720653E+00  -3.13246801E+00  -4.10464134E+00  -8.15680369E+00  -2.87085587E+00  -4.25336110E+00  -6.46436127E+00  -5.91403634E+00  -3.93151932E+00  -6.72886961E+00  -1.42314263E+02  -1.04598752E+01  -6.76728866E+00  -1.23265673E+01  -1.34793329E+01  -7.95343938E+00  -3.20443762E+00  -9.65326378E+00  -3.68179422E+00  -6.10731157E+01  -1.40428883E+01  -8.21591550E+00  -1.96085367E+00  -4.38987207E+01  -6.57083700E+00  -7.77106427E+00  -4.08039892E+00  -7.74771149E+00  -6.86925629E+00  -7.22448959E+00  -8.11072895E+00  -1.00238025E+01  -8.70020291E+00  -7.09870846E+00  -6.34791151E+00  -1.19719901E+01  -6.17135987E+00  -1.55800253E+01  -5.76359555E+00  -8.94558099E+00  -1.31317242E+01  -1.31319865E+01  -1.78933140E+01  -9.33293302E+00  -1.77896525E+01  -1.77899587E+01  -2.56855025E+01  -3.08625828E+01
   1.92500000E+02   5.00000000E-01   5.00000000E-01  -7.22859097E+00  -1.71884994E+01  -3.52618237E+00  -1.34584413E+00  -1.88302788E+00  -3.05462621E+00  -1.17947841E+01  -6.71497154E+00  -5.10872264E+00  -2.61629026E-01  -4.16673054E+00  -1.95148619E+00  -9.89597383E+00  -3.33630733E-01  -1.80827664E+00  -7.74427232E+00  -3.39717947E+00  -6.00299069E+00  -4.40817484E+00  -2.39537835E+00  -1.33719898E+01  -1.44633217E+01  -1.23602349E+01  -1.54457324E+01  -8.79732297E+00  -8.22502291E+00  -1.04630510E+01  -1.37449747E+01  -2.35919668E+00  -4.86906848E+00  -3.10158223E+00  -4.10182036E+00  -8.08412254E+00  -2.84434880E+00  -4.19960625E+00  -6.43580582E+00  -5.88649277E+00  -3.90138048E+00  -6.71408528E+00  -1.40555627E+02  -1.03939737E+01  -6.70101728E+00  -1.21547899E+01  -1.33377157E+01  -7.82281243E+00  -3.20074882E+00  -9.62254855E+00  -3.67923138E+00  -6.02745442E+01  -1.39092201E+01  -8.21079586E+00  -1.96928715E+00  -4.33926605E+01  -6.54498919E+00  -7.79852513E+00  -4.13223711E+00  -7.66348834E+00  -6.87813168E+00  -7.32538289E+00  -8.07986737E+00  -1.00947422E+01  -8.73129767E+00  -7.06313583E+00  -6.34103946E+00  -1.19138470E+01  -6.16360226E+00  -1.53308881E+01  -5.74250424E+00  -8.94583136E+00  -1.31265636E+01  -1.31268237E+01  -1.78883621E+01  -9.30836232E+00  -1.77857605E+01  -1.77860648E+01  -2.56337746E+01  -3.05757534E+01
   2.27500000E+02   5.00000000E-01   5.00000000E-01  -7.12219999E+00  -1.69201869E+01  -3.44510195E+00  -1.35333066E+00  -1.85986211E+00  -3.01693890E+00  -1.18672449E+01  -6.71547965E+00  -5.10991174E+00  -2.61406565E-01  -4.16644526E+00  -1.95149490E+00  -9.88325340E+00  -3.33518124E-01  -1.80541943E+00  -7.74403831E+00  -3.39689419E+00  -6.02350523E+00  -4.40788956E+00  -2.35307944E+00  -1.32370552E+01  -1.42103162E+01  -1.21916405E+01  -1.51962323E+01  -8.77072920E+00  -8.20642909E+00  -1.05197458E+01  -1.36936681E+01  -2.36395906E+00  -4.94861489E+00  -3.06979630E+00  -4.09640760E+00  -8.02849663E+00  -2.81780751E+00  -4.12742428E+00  -6.38730696E+00  -5.85686041E+00  -3.85321116E+00  -6.71639222E+00  -1.38798350E+02  -1.03189149E+01  -6.62643909E+00  -1.19604597E+01  -1.31312764E+01  -7.67846416E+00  -3.19614220E+00  -9.60842517E+00  -3.67632375E+00  -5.94735778E+01  -1.37263260E+01  -8.22107217E+00  -1.97706627E+00  -4.28956379E+01  -6.52494818E+00  -7.84604612E+00  -4.18233353E+00  -7.55340646E+00  -6.87482041E+00  -7.42763018E+00  -8.05512115E+00  -1.01881695E+01  -8.77962857E+00  -7.02870746E+00  -6.33313244E+00  -1.18728922E+01  -6.15613777E+00  -1.49825764E+01  -5.72167273E+00  -8.96260594E+00  -1.31461192E+01  -1.31463774E+01  -1.79164772E+01  -9.28386806E+00  -1.78149151E+01  -1.78152167E+01  -2.56312556E+01  -3.02204072E+01
   2.62500000E+02   5.00000000E-01   5.00000000E-01  -7.02977445E+00  -1.67420949E+01  -3.37606930E+00  -1.36041269E+00  -1.83766219E+00  -2.98735271E+00  -1.19017908E+01  -6.71601630E+00  -5.11115070E+00  -2.61151029E-01  -4.16612139E+00  -1.95151994E+00  -9.87053801E+00  -3.33483257E-01  -1.80318458E+00  -7.74376579E+00  -3.39657032E+00  -6.04471549E+00  -4.40756569E+00  -2.31784062E+00  -1.31157659E+01  -1.40230360E+01  -1.20645039E+01  -1.50241636E+01  -8.74382822E+00  -8.18716693E+00  -1.05642348E+01  -1.36322953E+01  -2.36902716E+00  -5.01644697E+00  -3.03792251E+00  -4.08933701E+00  -7.96292469E+00  -2.79190154E+00  -4.06273353E+00  -6.34489556E+00  -5.82329996E+00  -3.81279971E+00  -6.70800093E+00  -1.37096649E+02  -1.02554111E+01  -6.56521582E+00  -1.17929375E+01  -1.29777653E+01  -7.54791394E+00  -3.19072507E+00  -9.58319906E+00  -3.67298148E+00  -5.86976210E+01  -1.35842584E+01  -8.21907482E+00  -1.98406957E+00  -4.24074253E+01  -6.50552804E+00  -7.88081390E+00  -4.22731084E+00  -7.46494431E+00  -6.87918824E+00  -7.52348082E+00  -8.03057674E+00  -1.02702479E+01  -8.81596807E+00  -6.99393455E+00  -6.32432324E+00  -1.18214345E+01  -6.14894112E+00  -1.47227468E+01  -5.70309211E+00  -8.97018333E+00  -1.31518043E+01  -1.31520619E+01  -1.79262215E+01  -9.26344388E+00  -1.78256780E+01  -1.78259771E+01  -2.56007498E+01  -2.99222793E+01
   2.97500000E+02   5.00000000E-01   5.00000000E-01  -6.94951089E+00  -1.66409035E+01  -3.31714674E+00  -1.36717777E+00  -1.81664382E+00  -2.97108817E+00  -1.19036698E+01  -6.71658738E+00  -5.11244232E+00  -2.60862813E-01  -4.16576097E+00  -1.95156036E+00  -9.85740452E+00  -3.33445643E-01  -1.80147484E+00  -7.74345684E+00  -3.39620990E+00  -6.06527575E+00  -4.40720527E+00  -2.28898772E+00  -1.30063833E+01  -1.38916769E+01  -1.19724725E+01  -1.49179878E+01  -8.71644637E+00  -8.16731693E+00  -1.05980375E+01  -1.35625361E+01  -2.37413094E+00  -5.07397706E+00  -3.00626491E+00  -4.08101453E+00  -7.88933135E+00  -2.76688253E+00  -4.01083563E+00  -6.31396648E+00  -5.79278692E+00  -3.78540763E+00  -6.69055645E+00  -1.35446119E+02  -1.02013784E+01  -6.51429329E+00  -1.16474324E+01  -1.28691446E+01  -7.42935827E+00  -3.18458294E+00  -9.54858765E+00  -3.66920712E+00  -5.79446376E+01  -1.34766721E+01  -8.20651606E+00  -1.99024172E+00  -4.19277926E+01  -6.48573179E+00  -7.90363224E+00  -4.27395645E+00  -7.40025722E+00  -6.89518945E+00  -7.61870122E+00  -8.00501413E+00  -1.03413221E+01  -8.84183044E+00  -6.95865116E+00  -6.31470141E+00  -1.17611746E+01  -6.14203470E+00  -1.45389355E+01  -5.68713491E+00  -8.97065760E+00  -1.31467700E+01  -1.31470292E+01  -1.79217844E+01  -9.24785317E+00  -1.78222379E+01  -1.78225359E+01  -2.55486109E+01  -2.96738625E+01
   3.32500000E+02   5.00000000E-01   5.00000000E-01  -6.87386182E+00  -1.65606676E+01  -3.26143608E+00  -1.37391417E+00  -1.79673977E+00  -2.96236202E+00  -1.18969179E+01  -6.71719076E+00  -5.11377543E+00  -2.60544299E-01  -4.16536581E+00  -1.95161439E+00  -9.84557906E+00  -3.33375877E-01  -1.80025936E+00  -7.74311324E+00  -3.39581475E+00  -6.08659141E+00  -4.40681012E+00  -2.26329636E+00  -1.29014167E+01  -1.37752988E+01  -1.18895552E+01  -1.48292846E+01  -8.68918612E+00  -8.14694485E+00  -1.06291993E+01  -1.34918105E+01  -2.37979477E+00  -5.12916641E+00  -2.97483757E+00  -4.07154852E+00  -7.81510519E+00  -2.74276836E+00  -3.96602133E+00  -6.28889657E+00  -5.76703748E+00  -3.76534136E+00  -6.67145895E+00  -1.33831009E+02  -1.01511269E+01  -6.46761513E+00  -1.15103994E+01  -1.27719857E+01  -7.31530579E+00  -3.17779315E+00  -9.51205379E+00  -3.66505790E+00  -5.72068488E+01  -1.33776248E+01  -8.19089978E+00  -1.99563271E+00  -4.14565164E+01  -6.46701378E+00  -7.92349993E+00  -4.32458485E+00  -7.34749458E+00  -6.91851612E+00  -7.71653960E+00  -7.97994783E+00  -1.04102427E+01  -8.86524986E+00  -6.92346065E+00  -6.30433517E+00  -1.16995460E+01  -6.13547640E+00  -1.43792635E+01  -5.67482167E+00  -8.97251879E+00  -1.31437615E+01  -1.31440254E+01  -1.79201465E+01  -9.23915489E+00  -1.78215751E+01  -1.78218745E+01  -2.55003825E+01  -2.94420897E+01
   3.67500000E+02   5.00000000E-01   5.00000000E-01  -6.80091617E+00  -1.64883448E+01  -3.20737805E+00  -1.38078333E+00  -1.77785615E+00  -2.95753390E+00  -1.18880464E+01  -6.71782692E+00  -5.11514254E+00  -2.60197702E-01  -4.16493749E+00  -1.95168041E+00  -9.83543303E+00  -3.33264150E-01  -1.79950316E+00  -7.74273657E+00  -3.39538643E+00  -6.10926109E+00  -4.40638180E+00  -2.23921652E+00  -1.27990077E+01  -1.36645971E+01  -1.18101330E+01  -1.47469011E+01  -8.66235711E+00  -8.12611495E+00  -1.06598447E+01  -1.34219125E+01  -2.38625344E+00  -5.18405683E+00  -2.94362249E+00  -4.06100979E+00  -7.74197685E+00  -2.71953966E+00  -3.92471887E+00  -6.26619509E+00  -5.74427713E+00  -3.74903919E+00  -6.65248202E+00  -1.32246854E+02  -1.01032402E+01  -6.42394984E+00  -1.13787504E+01  -1.26788624E+01  -7.20389164E+00  -3.17042837E+00  -9.47542943E+00  -3.66058211E+00  -5.64821202E+01  -1.32815599E+01  -8.17411267E+00  -2.00030176E+00  -4.09933824E+01  -6.44998865E+00  -7.94293703E+00  -4.37772593E+00  -7.30177620E+00  -6.94619673E+00  -7.81594190E+00  -7.95607626E+00  -1.04794201E+01  -8.88834034E+00  -6.88867378E+00  -6.29329159E+00  -1.16383556E+01  -6.12931832E+00  -1.42308070E+01  -5.66488533E+00  -8.97633389E+00  -1.31436355E+01  -1.31439079E+01  -1.79224431E+01  -9.23482996E+00  -1.78248247E+01  -1.78251286E+01  -2.54578100E+01  -2.92180811E+01
   4.02500000E+02   5.00000000E-01   5.00000000E-01  -6.73010379E+00  -1.64204208E+01  -3.15464457E+00  -1.38786611E+00  -1.75990545E+00  -2.95482523E+00  -1.18791338E+01  -6.71849701E+00  -5.11653777E+00  -2.59824894E-01  -4.16447740E+00  -1.95175704E+00  -9.82700013E+00  -3.33107531E-01  -1.79916706E+00  -7.74232823E+00  -3.39492633E+00  -6.13348082E+00  -4.40592170E+00  -2.21612518E+00  -1.26986330E+01  -1.35571164E+01  -1.17327627E+01  -1.46678718E+01  -8.63616130E+00  -8.10488645E+00  -1.06906561E+01  -1.33533012E+01  -2.39364033E+00  -5.23925508E+00  -2.91260168E+00  -4.04946241E+00  -7.67034632E+00  -2.69716948E+00  -3.88521190E+00  -6.24422030E+00  -5.72325395E+00  -3.73478685E+00  -6.63406762E+00  -1.30691871E+02  -1.00572964E+01  -6.38299840E+00  -1.12516654E+01  -1.25878592E+01  -7.09458088E+00  -3.16255526E+00  -9.43920956E+00  -3.65581740E+00  -5.57696636E+01  -1.31870968E+01  -8.15670596E+00  -2.00430283E+00  -4.05381842E+01  -6.43486533E+00  -7.96271565E+00  -4.43232542E+00  -7.26101741E+00  -6.97671553E+00  -7.91596769E+00  -7.93368484E+00  -1.05495272E+01  -8.91177471E+00  -6.85449391E+00  -6.28163318E+00  -1.15780756E+01  -6.12360092E+00  -1.40897696E+01  -5.65657379E+00  -8.98184605E+00  -1.31460111E+01  -1.31462962E+01  -1.79281619E+01  -9.23338763E+00  -1.78314742E+01  -1.78317866E+01  -2.54201533E+01  -2.89992183E+01
   4.37500000E+02   5.00000000E-01   5.00000000E-01  -6.66118411E+00  -1.63555336E+01  -3.10319915E+00  -1.39520497E+00  -1.74280920E+00  -2.95339117E+00  -1.18710679E+01  -6.71920204E+00  -5.11795580E+00  -2.59427495E-01  -4.16398676E+00  -1.95184316E+00  -9.82023796E+00  -3.32905725E-01  -1.79921199E+00  -7.74188943E+00  -3.39443569E+00  -6.15928290E+00  -4.40543106E+00  -2.19377931E+00  -1.26000941E+01  -1.34518973E+01  -1.16568456E+01  -1.45910543E+01  -8.61076364E+00  -8.08331261E+00  -1.07219550E+01  -1.32861108E+01  -2.40205883E+00  -5.29501576E+00  -2.88175971E+00  -4.03696619E+00  -7.60029624E+00  -2.67562933E+00  -3.84671140E+00  -6.22225139E+00  -5.70332139E+00  -3.72179287E+00  -6.61633690E+00  -1.29164953E+02  -1.00131188E+01  -6.34462135E+00  -1.11288081E+01  -1.24982285E+01  -6.98716129E+00  -3.15423427E+00  -9.40356267E+00  -3.65079471E+00  -5.50690241E+01  -1.30936956E+01  -8.13890221E+00  -2.00768458E+00  -4.00907218E+01  -6.42168754E+00  -7.98311231E+00  -4.48789906E+00  -7.22422764E+00  -7.00932174E+00  -8.01611137E+00  -7.91288478E+00  -1.06207500E+01  -8.93586527E+00  -6.82108739E+00  -6.26941656E+00  -1.15188527E+01  -6.11835519E+00  -1.39545711E+01  -5.64956814E+00  -8.98890466E+00  -1.31506656E+01  -1.31509683E+01  -1.79370031E+01  -9.23420240E+00  -1.78412237E+01  -1.78415490E+01  -2.53869839E+01  -2.87845549E+01
   4.72500000E+02   5.00000000E-01   5.00000000E-01  -6.59402474E+00  -1.62930085E+01  -3.05309578E+00  -1.40282508E+00  -1.72649719E+00  -2.95282229E+00  -1.18643160E+01  -6.71994280E+00  -5.11939143E+00  -2.59006946E-01  -4.16346664E+00  -1.95193777E+00  -9.81508442E+00  -3.32659503E-01  -1.79960127E+00  -7.74142126E+00  -3.39391557E+00  -6.18662760E+00  -4.40491095E+00  -2.17207759E+00  -1.25032954E+01  -1.33484535E+01  -1.15820469E+01  -1.45158854E+01  -8.58631215E+00  -8.06144082E+00  -1.07539425E+01  -1.32203714E+01  -2.41160227E+00  -5.35148232E+00  -2.85108338E+00  -4.02357669E+00  -7.53181225E+00  -2.65489098E+00  -3.80885772E+00  -6.19999078E+00  -5.68416112E+00  -3.70969287E+00  -6.59931094E+00  -1.27665224E+02  -9.97061122E+00  -6.30870942E+00  -1.10099761E+01  -1.24095885E+01  -6.88152460E+00  -3.14551983E+00  -9.36855177E+00  -3.64554073E+00  -5.43798585E+01  -1.30010749E+01  -8.12081515E+00  -2.01049129E+00  -3.96508015E+01  -6.41042500E+00  -8.00422088E+00  -4.54427552E+00  -7.19088237E+00  -7.04362269E+00  -8.11611688E+00  -7.89370530E+00  -1.06931008E+01  -8.96080444E+00  -6.78860337E+00  -6.25669235E+00  -1.14607289E+01  -6.11360462E+00  -1.38243643E+01  -5.64372761E+00  -8.99743173E+00  -1.31574849E+01  -1.31578103E+01  -1.79488117E+01  -9.23700428E+00  -1.78539185E+01  -1.78542616E+01  -2.53580877E+01  -2.85736949E+01
   5.07500000E+02   5.00000000E-01   5.00000000E-01  -6.52853908E+00  -1.62324736E+01  -3.00442247E+00  -1.41074376E+00  -1.71090676E+00  -2.95291498E+00  -1.18591602E+01  -6.72071976E+00  -5.12083939E+00  -2.58564558E-01  -4.16291802E+00  -1.95204004E+00  -9.81147201E+00  -3.32370080E-01  -1.80030143E+00  -7.74092467E+00  -3.39336695E+00  -6.21543969E+00  -4.40436232E+00  -2.15096864E+00  -1.24081823E+01  -1.32465118E+01  -1.15081603E+01  -1.44420591E+01  -8.56294372E+00  -8.03931299E+00  -1.07867675E+01  -1.31560708E+01  -2.42235932E+00  -5.40875432E+00  -2.82056137E+00  -4.00934532E+00  -7.46484441E+00  -2.63492711E+00  -3.77149145E+00  -6.17733538E+00  -5.66561572E+00  -3.69832131E+00  -6.58297257E+00  -1.26191915E+02  -9.92971047E+00  -6.27515802E+00  -1.08950124E+01  -1.23217265E+01  -6.77760529E+00  -3.13646080E+00  -9.33419646E+00  -3.64007900E+00  -5.37018726E+01  -1.29090762E+01  -8.10251154E+00  -2.01276354E+00  -3.92182358E+01  -6.40100985E+00  -8.02605147E+00  -4.60143485E+00  -7.16066796E+00  -7.07939087E+00  -8.21584724E+00  -7.87613090E+00  -1.07665169E+01  -8.98673245E+00  -6.75717953E+00  -6.24350543E+00  -1.14037030E+01  -6.10936645E+00  -1.36986205E+01  -5.63896844E+00  -9.00736318E+00  -1.31663754E+01  -1.31667289E+01  -1.79634607E+01  -9.24163662E+00  -1.78694312E+01  -1.78697975E+01  -2.53332894E+01  -2.83664536E+01
   5.42500000E+02   5.00000000E-01   5.00000000E-01  -6.46466366E+00  -1.61737173E+01  -2.95727978E+00  -1.41897477E+00  -1.69598212E+00  -2.95356691E+00  -1.18557870E+01  -6.72153312E+00  -5.12229430E+00  -2.58101540E-01  -4.16234173E+00  -1.95214926E+00  -9.80933198E+00  -3.32038836E-01  -1.80128222E+00  -7.74040051E+00  -3.39279066E+00  -6.24562421E+00  -4.40378604E+00  -2.13041830E+00  -1.23147193E+01  -1.31459153E+01  -1.14350552E+01  -1.43694066E+01  -8.54078536E+00  -8.01696597E+00  -1.08205502E+01  -1.30931773E+01  -2.43441463E+00  -5.46691035E+00  -2.79018408E+00  -3.99431967E+00  -7.39932911E+00  -2.61571153E+00  -3.73454935E+00  -6.15427309E+00  -5.64760687E+00  -3.68760795E+00  -6.56728852E+00  -1.24744324E+02  -9.89036831E+00  -6.24386071E+00  -1.07837774E+01  -1.22345230E+01  -6.67535848E+00  -3.12710089E+00  -9.30049558E+00  -3.63443054E+00  -5.30347987E+01  -1.28176118E+01  -8.08403384E+00  -2.01453853E+00  -3.87928426E+01  -6.39335249E+00  -8.04856904E+00  -4.65942769E+00  -7.13337055E+00  -7.11647558E+00  -8.31521891E+00  -7.86011788E+00  -1.08408985E+01  -9.01376083E+00  -6.72694329E+00  -6.22989533E+00  -1.13477537E+01  -6.10565239E+00  -1.35769760E+01  -5.63522099E+00  -9.01862845E+00  -1.31772334E+01  -1.31776207E+01  -1.79808096E+01  -9.24797036E+00  -1.78876219E+01  -1.78880168E+01  -2.53123919E+01  -2.81627358E+01
   5.77500000E+02   5.00000000E-01   5.00000000E-01  -6.40234802E+00  -1.61166192E+01  -2.91177015E+00  -1.42753009E+00  -1.68167375E+00  -2.95472791E+00  -1.18543283E+01  -6.72238291E+00  -5.12375065E+00  -2.57619021E-01  -4.16173854E+00  -1.95226480E+00  -9.80859562E+00  -3.31667198E-01  -1.80251648E+00  -7.73984954E+00  -3.39218747E+00  -6.27707432E+00  -4.40318285E+00  -2.11039884E+00  -1.22228799E+01  -1.30465739E+01  -1.13626483E+01  -1.42978377E+01  -8.51995367E+00  -7.99443206E+00  -1.08553912E+01  -1.30316495E+01  -2.44784783E+00  -5.52601660E+00  -2.75994346E+00  -3.97854374E+00  -7.33519846E+00  -2.59721917E+00  -3.69801568E+00  -6.13083444E+00  -5.63009623E+00  -3.67752927E+00  -6.55221899E+00  -1.23321790E+02  -9.85254316E+00  -6.21470739E+00  -1.06761371E+01  -1.21479141E+01  -6.57475013E+00  -3.11747908E+00  -9.26743711E+00  -3.62861409E+00  -5.23783855E+01  -1.27266360E+01  -8.06541026E+00  -2.01585036E+00  -3.83744454E+01  -6.38734958E+00  -8.07171158E+00  -4.71833555E+00  -7.10882510E+00  -7.15476193E+00  -8.41417094E+00  -7.84560293E+00  -1.09161265E+01  -9.04198169E+00  -6.69801123E+00  -6.21589666E+00  -1.12928491E+01  -6.10246927E+00  -1.34591623E+01  -5.63241822E+00  -9.03114898E+00  -1.31899431E+01  -1.31903700E+01  -1.80007018E+01  -9.25588107E+00  -1.79083342E+01  -1.79087635E+01  -2.52951724E+01  -2.79624866E+01
   6.12500000E+02   5.00000000E-01   5.00000000E-01  -6.34154953E+00  -1.60611114E+01  -2.86799145E+00  -1.43642085E+00  -1.66793784E+00  -2.95637553E+00  -1.18548817E+01  -6.72326904E+00  -5.12520290E+00  -2.57118060E-01  -4.16110911E+00  -1.95238617E+00  -9.80919462E+00  -3.31256581E-01  -1.80397987E+00  -7.73927242E+00  -3.39155804E+00  -6.30967593E+00  -4.40255342E+00  -2.09088591E+00  -1.21326419E+01  -1.29484363E+01  -1.12908844E+01  -1.42273069E+01  -8.50055366E+00  -7.97173952E+00  -1.08913755E+01  -1.29714416E+01  -2.46273178E+00  -5.58612982E+00  -2.72983285E+00  -3.96205825E+00  -7.27238478E+00  -2.57942603E+00  -3.66189818E+00  -6.10706903E+00  -5.61306620E+00  -3.66808461E+00  -6.53772236E+00  -1.21923685E+02  -9.81619584E+00  -6.18758420E+00  -1.05719578E+01  -1.20618673E+01  -6.47575207E+00  -3.10763007E+00  -9.23500330E+00  -3.62264633E+00  -5.17323932E+01  -1.26361267E+01  -8.04666014E+00  -2.01673019E+00  -3.79628728E+01  -6.38288895E+00  -8.09540015E+00  -4.77825008E+00  -7.08689085E+00  -7.19415156E+00  -8.51265080E+00  -7.83250850E+00  -1.09920714E+01  -9.07147142E+00  -6.67048793E+00  -6.20153966E+00  -1.12389521E+01  -6.09981959E+00  -1.33449681E+01  -5.63049451E+00  -9.04484213E+00  -1.32043823E+01  -1.32048546E+01  -1.80229726E+01  -9.26524667E+00  -1.79314034E+01  -1.79318731E+01  -2.52813937E+01  -2.77656690E+01
   6.47500000E+02   5.00000000E-01   5.00000000E-01  -6.28223056E+00  -1.60071558E+01  -2.82603252E+00  -1.44565768E+00  -1.65473573E+00  -2.95850228E+00  -1.18575223E+01  -6.72419145E+00  -5.12664553E+00  -2.56599665E-01  -4.16045404E+00  -1.95251294E+00  -9.81106116E+00  -3.30808352E-01  -1.80565059E+00  -7.73866975E+00  -3.39090297E+00  -6.34331110E+00  -4.40189835E+00  -2.07185780E+00  -1.20439850E+01  -1.28514729E+01  -1.12197252E+01  -1.41577938E+01  -8.48267727E+00  -7.94891304E+00  -1.09285734E+01  -1.29125060E+01  -2.47913046E+00  -5.64729774E+00  -2.69984678E+00  -3.94490083E+00  -7.21082280E+00  -2.56230904E+00  -3.62621569E+00  -6.08303357E+00  -5.59651006E+00  -3.65928384E+00  -6.52375758E+00  -1.20549407E+02  -9.78128718E+00  -6.16237435E+00  -1.04711049E+01  -1.19763677E+01  -6.37833928E+00  -3.09758462E+00  -9.20317342E+00  -3.61654206E+00  -5.10965902E+01  -1.25460747E+01  -8.02779686E+00  -2.01720646E+00  -3.75579588E+01  -6.37985297E+00  -8.11954520E+00  -4.83926154E+00  -7.06743941E+00  -7.23455354E+00  -8.61060817E+00  -7.82074681E+00  -1.10685995E+01  -9.10229181E+00  -6.64446447E+00  -6.18685061E+00  -1.11860231E+01  -6.09770200E+00  -1.32342187E+01  -5.62938700E+00  -9.05962515E+00  -1.32204282E+01  -1.32209518E+01  -1.80474565E+01  -9.27595000E+00  -1.79566647E+01  -1.79571808E+01  -2.52708167E+01  -2.75722535E+01
   6.82500000E+02   5.00000000E-01   5.00000000E-01  -6.22435684E+00  -1.59547308E+01  -2.78596982E+00  -1.45525099E+00  -1.64203335E+00  -2.96110875E+00  -1.18623098E+01  -6.72515026E+00  -5.12807323E+00  -2.56064799E-01  -4.15977385E+00  -1.95264480E+00  -9.81412795E+00  -3.30323822E-01  -1.80750918E+00  -7.73804206E+00  -3.39022279E+00  -6.37786060E+00  -4.40121817E+00  -2.05329531E+00  -1.19568890E+01  -1.27556656E+01  -1.11491419E+01  -1.40892917E+01  -8.46640179E+00  -7.92597423E+00  -1.09670407E+01  -1.28547949E+01  -2.49709701E+00  -5.70955826E+00  -2.66998086E+00  -3.92710624E+00  -7.15045072E+00  -2.54584593E+00  -3.59099164E+00  -6.05878565E+00  -5.58042665E+00  -3.65114086E+00  -6.51028546E+00  -1.19198374E+02  -9.74777687E+00  -6.13895946E+00  -1.03734427E+01  -1.18914095E+01  -6.28248838E+00  -3.08736994E+00  -9.17192537E+00  -3.61031430E+00  -5.04707520E+01  -1.24564763E+01  -8.00882966E+00  -2.01730505E+00  -3.71595422E+01  -6.37812133E+00  -8.14405098E+00  -4.90145171E+00  -7.05034917E+00  -7.27588037E+00  -8.70799263E+00  -7.81022301E+00  -1.11455766E+01  -9.13448998E+00  -6.62001698E+00  -6.17185241E+00  -1.11340219E+01  -6.09611190E+00  -1.31267635E+01  -5.62903674E+00  -9.07541799E+00  -1.32379620E+01  -1.32385428E+01  -1.80739935E+01  -9.28788135E+00  -1.79839584E+01  -1.79845268E+01  -2.52632081E+01  -2.73822121E+01