 TITLE = "Total Concentrations" 
VARIABLES = "X"          "Y"              "Z"            "H+"             "Al+++"          "CO2(aq)"        "Mg++"           "Ca++"           "Fe++"           "Fe+++"          "Ba++"           "Sr++"           "Cl-"            "F-"             "K+"             "HS-"            "Na+"            "SO4--"          "O2(aq)"         "B(OH)3(aq)"     "HPO4--"         "NO3-"           "H4SiO4(aq)"     "HNO3(aq)"       "Al(OH)2+"       "AlO2-"          "AlOH++"         "BaHCO3+"        "BaCl+"          "BaCO3(aq)"      "BaOH+"          "HCO3-"          "CO3--"          "CaCl+"          "CaCl2(aq)"      "CaOH+"          "CaSO4(aq)"      "FeCl+"          "FeCl2(aq)"      "FeOH+"          "FeSO4(aq)"      "OH-"            "S2O3--"         "H2S(aq)"        "H2PO4-"         "H3PO4(aq)"      "HAlO2(aq)"      "HSO4-"          "KCl(aq)"        "KOH(aq)"        "KSO4-"          "NH3(aq)"        "NaAlO2(aq)"     "NaOH(aq)"       "NaSO4-"         "H2(aq)"         "CaHPO4(aq)"     "CaPO4-"         "FeCO3(aq)"      "FeH2PO4+"       "FeHPO4(aq)"     "FePO4-"         "KHPO4-"         "PO4---"         "Sr(CO3)(aq)"    "SrHCO3+"        "SrCl+"          "SrOH+"          "SrSO4(aq)"      "AlH3SiO4++"     "Si2O2(OH)5-"    "Si2O3(OH)4--"   "Si3O5(OH)5---"  "Si3O6(OH)3---"  "Si4O12H4----"   "Si4O6(OH)6--"   "Si4O7(OH)6----" "Si4O8(OH)4----" "Si6O15------"   "SiF6--"        
 ZONE I=         100 , J=           1 , K=           1  F=POINT
   1.75000000E+01   5.00000000E-01   5.00000000E-01  -7.54555054E+00  -1.54612108E+01  -3.69580732E+00  -1.30481094E+00  -2.03776959E+00  -3.11596717E+00  -1.21196360E+01  -6.71255635E+00  -5.10348625E+00  -2.62137516E-01  -4.16748106E+00  -1.95177890E+00  -1.00370138E+01  -3.35184789E-01  -1.83562709E+00  -7.74480198E+00  -3.39792999E+00  -5.96431370E+00  -4.40892536E+00  -3.38130114E+00  -1.38237729E+01  -1.31440828E+01  -1.11100597E+01  -1.38576996E+01  -8.93491045E+00  -8.30398899E+00  -1.04343521E+01  -1.42793555E+01  -2.35373343E+00  -4.73916617E+00  -3.27948666E+00  -4.11964167E+00  -8.66533741E+00  -3.00806920E+00  -4.42039035E+00  -6.51278707E+00  -6.15316651E+00  -4.00682807E+00  -6.97303528E+00  -1.49355169E+02  -1.05893953E+01  -6.89887941E+00  -1.27256432E+01  -1.20193569E+01  -8.32629797E+00  -3.20757389E+00  -9.95413428E+00  -3.68634006E+00  -6.42377545E+01  -1.27168192E+01  -8.39951798E+00  -1.91673375E+00  -4.60182698E+01  -6.72574953E+00  -7.86556211E+00  -3.99244896E+00  -7.91444237E+00  -6.81056252E+00  -6.94321572E+00  -8.25412460E+00  -9.94054309E+00  -8.74795591E+00  -7.23915559E+00  -6.36285120E+00  -1.23892455E+01  -6.20250261E+00  -1.50814165E+01  -7.64547559E+00  -1.09168801E+01  -1.61100026E+01  -1.61102471E+01  -2.18578421E+01  -1.30214476E+01  -2.17497567E+01  -2.17500287E+01  -3.18048349E+01  -3.21653969E+01
   5.25000000E+01   5.00000000E-01   5.00000000E-01  -7.41764321E+00  -1.51416662E+01  -3.61108669E+00  -1.31701126E+00  -2.02363351E+00  -2.82522294E+00  -1.22182666E+01  -6.71295586E+00  -5.10429226E+00  -2.62130829E-01  -4.16743256E+00  -1.95165759E+00  -9.99249254E+00  -3.34591402E-01  -1.82876859E+00  -7.74483824E+00  -3.39788149E+00  -6.02169334E+00  -4.40887686E+00  -3.29407563E+00  -1.36702384E+01  -1.28642965E+01  -1.09366851E+01  -1.35722895E+01  -8.91747962E+00  -8.29031571E+00  -1.05095095E+01  -1.42280038E+01  -2.36275838E+00  -4.83249789E+00  -3.26376112E+00  -4.14012485E+00  -8.62347308E+00  -2.99407888E+00  -4.09985611E+00  -6.22479347E+00  -5.88158443E+00  -3.70928136E+00  -6.97768612E+00  -1.47405507E+02  -1.04757203E+01  -6.84801010E+00  -1.25373897E+01  -1.18012329E+01  -8.16228265E+00  -3.20871986E+00  -9.94581819E+00  -3.68665139E+00  -6.33564974E+01  -1.25339482E+01  -8.42276182E+00  -1.92976791E+00  -4.54734925E+01  -6.75955124E+00  -7.98544951E+00  -3.81391686E+00  -7.57404108E+00  -6.59827877E+00  -6.85867688E+00  -8.27124883E+00  -1.00805875E+01  -8.81348634E+00  -7.21410504E+00  -6.36107446E+00  -1.23506715E+01  -6.19518160E+00  -1.46278771E+01  -7.54439134E+00  -1.08609366E+01  -1.60209718E+01  -1.60212280E+01  -2.17404417E+01  -1.28388934E+01  -2.16334876E+01  -2.16337782E+01  -3.15870021E+01  -3.17146939E+01
   8.75000000E+01   5.00000000E-01   5.00000000E-01  -7.31858132E+00  -1.49805989E+01  -3.54945425E+00  -1.32840782E+00  -2.01007860E+00  -2.66914164E+00  -1.22343982E+01  -6.71338053E+00  -5.10519459E+00  -2.62074640E-01  -4.16732927E+00  -1.95156891E+00  -9.95035878E+00  -3.34009719E-01  -1.82299861E+00  -7.74481991E+00  -3.39777820E+00  -6.06171274E+00  -4.40877357E+00  -3.24721442E+00  -1.35447486E+01  -1.26891962E+01  -1.08149144E+01  -1.34177869E+01  -8.89612905E+00  -8.27540806E+00  -1.05546154E+01  -1.41524126E+01  -2.36913455E+00  -4.89709028E+00  -3.24692824E+00  -4.15721885E+00  -8.55690929E+00  -2.97978752E+00  -3.91277542E+00  -6.06818857E+00  -5.71799416E+00  -3.54546901E+00  -6.95775418E+00  -1.45545212E+02  -1.03899327E+01  -6.80665988E+00  -1.23865088E+01  -1.16603081E+01  -8.02672336E+00  -3.20843852E+00  -9.91198619E+00  -3.68628967E+00  -6.25162777E+01  -1.24013529E+01  -8.41876245E+00  -1.94157603E+00  -4.49387733E+01  -6.77452129E+00  -8.05826631E+00  -3.73866368E+00  -7.37803067E+00  -6.50157333E+00  -6.86072631E+00  -8.26959083E+00  -1.01771284E+01  -8.84923619E+00  -7.18507814E+00  -6.35780705E+00  -1.22873284E+01  -6.18770642E+00  -1.43511545E+01  -7.49779223E+00  -1.08336371E+01  -1.59748040E+01  -1.59750659E+01  -2.16803360E+01  -1.27647851E+01  -2.15744971E+01  -2.15747983E+01  -3.14544939E+01  -3.14115117E+01
   1.22500000E+02   5.00000000E-01   5.00000000E-01  -7.22533736E+00  -1.48449611E+01  -3.48945300E+00  -1.33895157E+00  -1.99706307E+00  -2.56904339E+00  -1.22367323E+01  -6.71382381E+00  -5.10617846E+00  -2.61972444E-01  -4.16717548E+00  -1.95150957E+00  -9.91400533E+00  -3.33433632E-01  -1.81815031E+00  -7.74475126E+00  -3.39762441E+00  -6.09220913E+00  -4.40861978E+00  -3.20692531E+00  -1.34243917E+01  -1.25316890E+01  -1.07034945E+01  -1.32841518E+01  -8.87237398E+00  -8.25939209E+00  -1.05940641E+01  -1.40754461E+01  -2.37422784E+00  -4.95714952E+00  -3.22909520E+00  -4.17119602E+00  -8.48851986E+00  -2.96522786E+00  -3.78061056E+00  -5.96458854E+00  -5.60669244E+00  -3.43679371E+00  -6.93603795E+00  -1.43727252E+02  -1.03126123E+01  -6.75979179E+00  -1.22350508E+01  -1.15324738E+01  -7.89658783E+00  -3.20687498E+00  -9.87556334E+00  -3.68525340E+00  -6.16938309E+01  -1.22779244E+01  -8.41055342E+00  -1.95218320E+00  -4.44138437E+01  -6.77869445E+00  -8.11507581E+00  -3.71248447E+00  -7.23268212E+00  -6.44974046E+00  -6.90169542E+00  -8.25721258E+00  -1.02608529E+01  -8.87959088E+00  -7.15359804E+00  -6.35318302E+00  -1.22221045E+01  -6.18011859E+00  -1.41070637E+01  -7.46101411E+00  -1.08132412E+01  -1.59388988E+01  -1.59391621E+01  -2.16340473E+01  -1.27098170E+01  -2.15293064E+01  -2.15296121E+01  -3.13421648E+01  -3.11305519E+01
   1.57500000E+02   5.00000000E-01   5.00000000E-01  -7.13509972E+00  -1.47187096E+01  -3.42920495E+00  -1.34866157E+00  -1.98454813E+00  -2.49965352E+00  -1.22336184E+01  -6.71428588E+00  -5.10723509E+00  -2.61827586E-01  -4.16697485E+00  -1.95147632E+00  -9.88298561E+00  -3.32861027E-01  -1.81409686E+00  -7.74463596E+00  -3.39742378E+00  -6.11759911E+00  -4.40841915E+00  -3.16912525E+00  -1.33064615E+01  -1.23812591E+01  -1.05973318E+01  -1.31581329E+01  -8.84710088E+00  -8.24239003E+00  -1.06314159E+01  -1.39997676E+01  -2.37878192E+00  -5.01605698E+00  -3.21036055E+00  -4.18230810E+00  -8.42097102E+00  -2.95045608E+00  -3.67821718E+00  -5.88899158E+00  -5.52516721E+00  -3.35808307E+00  -6.91513604E+00  -1.41945117E+02  -1.02407004E+01  -6.70915303E+00  -1.20820561E+01  -1.14099853E+01  -7.76908688E+00  -3.20416303E+00  -9.83926398E+00  -3.68356844E+00  -6.08861128E+01  -1.21587042E+01  -8.40095249E+00  -1.96164390E+00  -4.38984456E+01  -6.77666871E+00  -8.16328614E+00  -3.71373334E+00  -7.11445772E+00  -6.42205154E+00  -6.96367501E+00  -8.23873467E+00  -1.03388224E+01  -8.90810064E+00  -7.12055717E+00  -6.34733090E+00  -1.21576843E+01  -6.17248693E+00  -1.38779399E+01  -7.42859780E+00  -1.07970006E+01  -1.59091409E+01  -1.59094032E+01  -2.15960823E+01  -1.26630912E+01  -2.14924208E+01  -2.14927270E+01  -3.12418246E+01  -3.08570345E+01
   1.92500000E+02   5.00000000E-01   5.00000000E-01  -7.04759792E+00  -1.46004170E+01  -3.36914489E+00  -1.35762286E+00  -1.97249836E+00  -2.44932546E+00  -1.22261170E+01  -6.71476782E+00  -5.10835624E+00  -2.61643218E-01  -4.16673054E+00  -1.95146621E+00  -9.85653328E+00  -3.32289263E-01  -1.81074120E+00  -7.74447716E+00  -3.39717947E+00  -6.14057468E+00  -4.40817484E+00  -3.13342327E+00  -1.31907819E+01  -1.22369261E+01  -1.04957985E+01  -1.30385527E+01  -8.82096957E+00  -8.22451332E+00  -1.06674715E+01  -1.39255060E+01  -2.38332668E+00  -5.07445317E+00  -3.19081382E+00  -4.19078495E+00  -8.35439506E+00  -2.93553880E+00  -3.59406661E+00  -5.82999919E+00  -5.46199406E+00  -3.29779926E+00  -6.89512112E+00  -1.40197450E+02  -1.01733446E+01  -6.65729499E+00  -1.19299001E+01  -1.12920941E+01  -7.64398843E+00  -3.20042412E+00  -9.80326479E+00  -3.68127636E+00  -6.00926212E+01  -1.20431863E+01  -8.39023100E+00  -1.97002586E+00  -4.33923289E+01  -6.77129862E+00  -8.20601976E+00  -3.73162760E+00  -7.01425261E+00  -6.40966989E+00  -7.03810629E+00  -8.21703179E+00  -1.04138462E+01  -8.93555554E+00  -7.08661976E+00  -6.34036719E+00  -1.20942157E+01  -6.16488840E+00  -1.36619061E+01  -7.39993202E+00  -1.07844780E+01  -1.58848816E+01  -1.58851417E+01  -2.15655697E+01  -1.26234043E+01  -2.14629681E+01  -2.14632725E+01  -3.11522126E+01  -3.05899873E+01
   2.27500000E+02   5.00000000E-01   5.00000000E-01  -6.96272924E+00  -1.44895765E+01  -3.30972002E+00  -1.36595216E+00  -1.96088165E+00  -2.41167486E+00  -1.22149453E+01  -6.71527098E+00  -5.10953391E+00  -2.61422260E-01  -4.16644526E+00  -1.95147658E+00  -9.83403643E+00  -3.31715220E-01  -1.80800612E+00  -7.74427758E+00  -3.39689419E+00  -6.16281875E+00  -4.40788956E+00  -3.09965053E+00  -1.30773349E+01  -1.20982971E+01  -1.03985305E+01  -1.29249868E+01  -8.79448554E+00  -8.20586280E+00  -1.07027175E+01  -1.38526285E+01  -2.38825018E+00  -5.13268181E+00  -3.17053646E+00  -4.19683642E+00  -8.28876347E+00  -2.92054511E+00  -3.52188087E+00  -5.78145220E+00  -5.41084367E+00  -3.24966518E+00  -6.87591206E+00  -1.38483277E+02  -1.01100002E+01  -6.60591651E+00  -1.17802640E+01  -1.11784726E+01  -7.52123547E+00  -3.19576844E+00  -9.76757808E+00  -3.67842585E+00  -5.93130233E+01  -1.19311156E+01  -8.37848772E+00  -1.97740159E+00  -4.28952514E+01  -6.76441261E+00  -8.24520430E+00  -3.76032808E+00  -6.92737199E+00  -6.40800126E+00  -7.12050479E+00  -8.19395008E+00  -1.04875687E+01  -8.96243108E+00  -7.05229464E+00  -6.33239698E+00  -1.20316834E+01  -6.15739975E+00  -1.34580798E+01  -7.37468655E+00  -1.07753537E+01  -1.58656474E+01  -1.58659056E+01  -2.15418727E+01  -1.25901138E+01  -2.14403107E+01  -2.14406122E+01  -3.10724168E+01  -3.03292869E+01
   2.62500000E+02   5.00000000E-01   5.00000000E-01  -6.88034784E+00  -1.43854167E+01  -3.25122410E+00  -1.37377266E+00  -1.94966903E+00  -2.38283989E+00  -1.22009830E+01  -6.71579670E+00  -5.11076034E+00  -2.61167389E-01  -4.16612139E+00  -1.95150508E+00  -9.81503672E+00  -3.31135785E-01  -1.80582757E+00  -7.74403958E+00  -3.39657032E+00  -6.18540062E+00  -4.40756569E+00  -3.06756826E+00  -1.29660503E+01  -1.19648027E+01  -1.03050851E+01  -1.28167885E+01  -8.76804485E+00  -8.18652952E+00  -1.07375813E+01  -1.37811506E+01  -2.39384254E+00  -5.19104360E+00  -3.14960269E+00  -4.20065426E+00  -8.22409762E+00  -2.90554168E+00  -3.45789406E+00  -5.73969314E+00  -5.36795323E+00  -3.20992019E+00  -6.85748378E+00  -1.36801574E+02  -1.00502205E+01  -6.55604944E+00  -1.16341106E+01  -1.10686617E+01  -7.40072956E+00  -3.19029589E+00  -9.73226262E+00  -3.67506716E+00  -5.85469449E+01  -1.18221473E+01  -8.36586080E+00  -1.98384339E+00  -4.24069787E+01  -6.75721031E+00  -8.28218089E+00  -3.79645521E+00  -6.85097711E+00  -6.41435085E+00  -7.20832815E+00  -8.17070455E+00  -1.05610751E+01  -8.98914376E+00  -7.01798043E+00  -6.32351508E+00  -1.19701191E+01  -6.15009292E+00  -1.32653057E+01  -7.35243860E+00  -1.07692623E+01  -1.58508964E+01  -1.58511539E+01  -2.15242631E+01  -1.25623911E+01  -2.14237196E+01  -2.14240187E+01  -3.10013847E+01  -3.00745271E+01
   2.97500000E+02   5.00000000E-01   5.00000000E-01  -6.80029533E+00  -1.42870965E+01  -3.19386166E+00  -1.38120017E+00  -1.93883449E+00  -2.36033688E+00  -1.21851107E+01  -6.71634620E+00  -5.11202797E+00  -2.60881036E-01  -4.16576097E+00  -1.95154965E+00  -9.79918256E+00  -3.30548141E-01  -1.80415056E+00  -7.74376523E+00  -3.39620990E+00  -6.20900030E+00  -4.40720527E+00  -3.03692378E+00  -1.28568372E+01  -1.18358311E+01  -1.02150123E+01  -1.27132542E+01  -8.74196768E+00  -8.16659548E+00  -1.07724340E+01  -1.37111059E+01  -2.40032863E+00  -5.24979735E+00  -3.12808011E+00  -4.20241362E+00  -8.16043781E+00  -2.89059028E+00  -3.39970888E+00  -5.70242362E+00  -5.33095143E+00  -3.17617342E+00  -6.83983572E+00  -1.35151321E+02  -9.99364062E+00  -6.50831444E+00  -1.14919707E+01  -1.09621740E+01  -7.28235836E+00  -3.18409701E+00  -9.69739298E+00  -3.67124912E+00  -5.77940016E+01  -1.17159199E+01  -8.35249790E+00  -1.98942079E+00  -4.19272835E+01  -6.75048837E+00  -8.31789935E+00  -3.83794761E+00  -6.78319669E+00  -6.42700408E+00  -7.30002638E+00  -8.14810496E+00  -1.06350841E+01  -9.01605375E+00  -6.98399931E+00  -6.31380680E+00  -1.19095712E+01  -6.14303264E+00  -1.30823745E+01  -7.33275415E+00  -1.07658433E+01  -1.58400931E+01  -1.58403523E+01  -2.15120222E+01  -1.25393842E+01  -2.14124757E+01  -2.14127737E+01  -3.09380740E+01  -2.98251999E+01
   3.32500000E+02   5.00000000E-01   5.00000000E-01  -6.72242528E+00  -1.41938567E+01  -3.13779623E+00  -1.38833695E+00  -1.92835465E+00  -2.34250231E+00  -1.21681065E+01  -6.71692048E+00  -5.11332939E+00  -2.60565409E-01  -4.16536581E+00  -1.95160851E+00  -9.78619426E+00  -3.29949878E-01  -1.80292676E+00  -7.74345630E+00  -3.39581475E+00  -6.23404020E+00  -4.40681012E+00  -3.00749092E+00  -1.27496094E+01  -1.17108307E+01  -1.01279080E+01  -1.26137497E+01  -8.71652193E+00  -8.14613426E+00  -1.08075887E+01  -1.36425204E+01  -2.40789086E+00  -5.30915734E+00  -3.10603030E+00  -4.20227446E+00  -8.09781838E+00  -2.87574650E+00  -3.34573947E+00  -5.66814793E+00  -5.29827609E+00  -3.14684491E+00  -6.82296642E+00  -1.33531547E+02  -9.93996888E+00  -6.46307793E+00  -1.13541262E+01  -1.08585713E+01  -7.16601854E+00  -3.17725378E+00  -9.66303488E+00  -3.66701754E+00  -5.70538237E+01  -1.16121086E+01  -8.33853217E+00  -1.99419917E+00  -4.14559462E+01  -6.74477330E+00  -8.35302671E+00  -3.88350307E+00  -6.72272584E+00  -6.44480104E+00  -7.39459180E+00  -8.12668885E+00  -1.07100539E+01  -9.04346357E+00  -6.95062069E+00  -6.30334880E+00  -1.18500801E+01  -6.13627544E+00  -1.29081890E+01  -7.31524385E+00  -1.07647725E+01  -1.58327561E+01  -1.58330200E+01  -2.15045031E+01  -1.25203293E+01  -2.14059318E+01  -2.14062311E+01  -3.08815470E+01  -2.95808382E+01
   3.67500000E+02   5.00000000E-01   5.00000000E-01  -6.64661043E+00  -1.41050641E+01  -3.08317323E+00  -1.39526991E+00  -1.91820854E+00  -2.32819017E+00  -1.21506150E+01  -6.71752029E+00  -5.11465723E+00  -2.60222508E-01  -4.16493749E+00  -1.95168009E+00  -9.77584169E+00  -3.29339011E-01  -1.80211300E+00  -7.74311439E+00  -3.39538643E+00  -6.26076577E+00  -4.40638180E+00  -2.97908150E+00  -1.26442930E+01  -1.15893401E+01  -1.00434289E+01  -1.25177482E+01  -8.69193894E+00  -8.12521175E+00  -1.08433092E+01  -1.35754058E+01  -2.41668409E+00  -5.36930031E+00  -3.08350926E+00  -4.20038273E+00  -8.03626010E+00  -2.86105945E+00  -3.29490951E+00  -5.63587191E+00  -5.26886426E+00  -3.12086286E+00  -6.80686550E+00  -1.31941338E+02  -9.88897201E+00  -6.42054067E+00  -1.12207058E+01  -1.07574881E+01  -7.05162235E+00  -3.16984029E+00  -9.62923784E+00  -3.66241458E+00  -5.63260632E+01  -1.15104417E+01  -8.32407543E+00  -1.99823928E+00  -4.09927535E+01  -6.74040329E+00  -8.38802187E+00  -3.93228426E+00  -6.66861205E+00  -6.46691524E+00  -7.49133061E+00  -8.10680358E+00  -1.07862557E+01  -9.07162615E+00  -6.91807692E+00  -6.29220971E+00  -1.17916702E+01  -6.12986946E+00  -1.27418124E+01  -7.29957885E+00  -1.07657700E+01  -1.58284701E+01  -1.58287424E+01  -2.15011482E+01  -1.25045828E+01  -2.14035299E+01  -2.14038338E+01  -3.08309961E+01  -2.93410580E+01
   4.02500000E+02   5.00000000E-01   5.00000000E-01  -6.57274186E+00  -1.40202059E+01  -3.03012914E+00  -1.40207122E+00  -1.90837738E+00  -2.31659463E+00  -1.21331540E+01  -6.71814605E+00  -5.11600413E+00  -2.59854154E-01  -4.16447740E+00  -1.95176305E+00  -9.76793002E+00  -3.28713942E-01  -1.80167035E+00  -7.74274087E+00  -3.39492633E+00  -6.28929744E+00  -4.40592171E+00  -2.95154417E+00  -1.25408265E+01  -1.14709832E+01  -9.96128861E+00  -1.24248244E+01  -8.66842340E+00  -8.10388669E+00  -1.08798193E+01  -1.35097596E+01  -2.42684491E+00  -5.43037479E+00  -3.06056784E+00  -4.19687152E+00  -7.97577063E+00  -2.84657180E+00  -3.24647554E+00  -5.60492689E+00  -5.24197574E+00  -3.09748664E+00  -6.79151371E+00  -1.30379839E+02  -9.84046105E+00  -6.38078949E+00  -1.10917364E+01  -1.06586272E+01  -6.93909660E+00  -3.16192340E+00  -9.59603585E+00  -3.65747854E+00  -5.56103935E+01  -1.14106971E+01  -8.30921920E+00  -2.00159704E+00  -4.05374992E+01  -6.73758097E+00  -8.42318925E+00  -3.98375203E+00  -6.62012942E+00  -6.49272865E+00  -7.58973876E+00  -8.08865931E+00  -1.08638247E+01  -9.10075525E+00  -6.88657334E+00  -6.28045075E+00  -1.17343513E+01  -6.12385464E+00  -1.25824603E+01  -7.28548888E+00  -1.07685996E+01  -1.58268843E+01  -1.58271694E+01  -2.15014862E+01  -1.24916174E+01  -2.14047985E+01  -2.14051109E+01  -3.07857399E+01  -2.91055572E+01
   4.37500000E+02   5.00000000E-01   5.00000000E-01  -6.50072587E+00  -1.39388697E+01  -2.97879429E+00  -1.40879979E+00  -1.89884435E+00  -2.30714006E+00  -1.21161313E+01  -6.71879791E+00  -5.11736270E+00  -2.59462010E-01  -4.16398676E+00  -1.95185620E+00  -9.76229016E+00  -3.28073411E-01  -1.80156358E+00  -7.74233696E+00  -3.39443569E+00  -6.31966529E+00  -4.40543106E+00  -2.92475840E+00  -1.24391578E+01  -1.13554564E+01  -9.88125054E+00  -1.23346387E+01  -8.64615932E+00  -8.08221131E+00  -1.09173126E+01  -1.34455681E+01  -2.43849679E+00  -5.49250875E+00  -3.03725219E+00  -4.19186206E+00  -7.91634733E+00  -2.83232011E+00  -3.19991762E+00  -5.57486100E+00  -5.21708622E+00  -3.07619738E+00  -6.77688536E+00  -1.28846240E+02  -9.79427931E+00  -6.34382943E+00  -1.09671734E+01  -1.05617496E+01  -6.82837959E+00  -3.15356335E+00  -9.56345037E+00  -3.65224392E+00  -5.49065062E+01  -1.13126958E+01  -8.29403807E+00  -2.00432374E+00  -4.00899832E+01  -6.73640911E+00  -8.45871770E+00  -4.03756424E+00  -6.57670095E+00  -6.52175705E+00  -7.68943050E+00  -8.07236478E+00  -1.09427982E+01  -9.13103397E+00  -6.85629410E+00  -6.26812630E+00  -1.16781211E+01  -6.11826322E+00  -1.24294778E+01  -7.27275338E+00  -1.07730621E+01  -1.58277039E+01  -1.58280066E+01  -2.15051201E+01  -1.24810044E+01  -2.14093408E+01  -2.14096661E+01  -3.07452064E+01  -2.88740993E+01
   4.72500000E+02   5.00000000E-01   5.00000000E-01  -6.43048066E+00  -1.38607218E+01  -2.92929237E+00  -1.41550318E+00  -1.88959442E+00  -2.29940998E+00  -1.20998644E+01  -6.71947581E+00  -5.11872549E+00  -2.59047603E-01  -4.16346664E+00  -1.95195854E+00  -9.75877229E+00  -3.27416443E-01  -1.80176066E+00  -7.74190375E+00  -3.39391557E+00  -6.35183362E+00  -4.40491095E+00  -2.89862812E+00  -1.23392417E+01  -1.12425130E+01  -9.80311838E+00  -1.22469182E+01  -8.62531290E+00  -8.06023197E+00  -1.09559578E+01  -1.33828098E+01  -2.45175238E+00  -5.55581463E+00  -3.01360411E+00  -4.18546469E+00  -7.85798025E+00  -2.81833524E+00  -3.15486891E+00  -5.54536924E+00  -5.19381958E+00  -3.05662758E+00  -6.76295102E+00  -1.27339776E+02  -9.75029326E+00  -6.30960553E+00  -1.08469187E+01  -1.04666626E+01  -6.71941798E+00  -3.14481433E+00  -9.53149354E+00  -3.64674163E+00  -5.42141083E+01  -1.12162928E+01  -8.27859325E+00  -2.00646619E+00  -3.96500117E+01  -6.73691590E+00  -8.49470920E+00  -4.09351087E+00  -6.53784918E+00  -6.55360405E+00  -7.79009565E+00  -8.05795284E+00  -1.10231426E+01  -9.16262079E+00  -6.82740517E+00  -6.25528454E+00  -1.16229683E+01  -6.11312034E+00  -1.22823134E+01  -7.26119184E+00  -1.07789895E+01  -1.58306799E+01  -1.58310052E+01  -2.15117151E+01  -1.24723946E+01  -2.14168218E+01  -2.14171649E+01  -3.07089132E+01  -2.86464958E+01
   5.07500000E+02   5.00000000E-01   5.00000000E-01  -6.36193345E+00  -1.37854885E+01  -2.88173861E+00  -1.42221933E+00  -1.88061421E+00  -2.29309973E+00  -1.20845984E+01  -6.72017952E+00  -5.12008504E+00  -2.58612340E-01  -4.16291802E+00  -1.95206918E+00  -9.75724127E+00  -3.26742300E-01  -1.80223248E+00  -7.74144218E+00  -3.39336695E+00  -6.38571907E+00  -4.40436233E+00  -2.87307619E+00  -1.22410373E+01  -1.11319501E+01  -9.72672836E+00  -1.21614412E+01  -8.60603367E+00  -8.03798965E+00  -1.09959022E+01  -1.33214577E+01  -2.46671391E+00  -5.62039197E+00  -2.98966143E+00  -4.17777984E+00  -7.80065477E+00  -2.80464288E+00  -3.11106881E+00  -5.51624721E+00  -5.17190339E+00  -3.03851438E+00  -6.74967978E+00  -1.25859715E+02  -9.70838568E+00  -6.27801860E+00  -1.07308345E+01  -1.03732094E+01  -6.61216421E+00  -3.13572495E+00  -9.50017091E+00  -3.64099923E+00  -5.35329189E+01  -1.11213701E+01  -8.26293556E+00  -2.00806707E+00  -3.92173968E+01  -6.73907395E+00  -8.53120069E+00  -4.15147026E+00  -6.50316460E+00  -6.58793227E+00  -7.89147376E+00  -8.04539945E+00  -1.11047736E+01  -9.19565304E+00  -6.80005537E+00  -6.24196797E+00  -1.15688758E+01  -6.10844469E+00  -1.21404970E+01  -7.25065552E+00  -1.07862390E+01  -1.58356009E+01  -1.58359544E+01  -2.15209865E+01  -1.24655013E+01  -2.14269570E+01  -2.14273232E+01  -3.06764512E+01  -2.84225918E+01
   5.42500000E+02   5.00000000E-01   5.00000000E-01  -6.29501836E+00  -1.37129414E+01  -2.83623719E+00  -1.42897823E+00  -1.87189183E+00  -2.28798409E+00  -1.20705201E+01  -6.72090877E+00  -5.12143401E+00  -2.58157533E-01  -4.16234173E+00  -1.95218738E+00  -9.75757344E+00  -3.26050440E-01  -1.80295261E+00  -7.74095311E+00  -3.39279066E+00  -6.42120462E+00  -4.40378604E+00  -2.84804007E+00  -1.21445066E+01  -1.10235985E+01  -9.65194273E+00  -1.20780246E+01  -8.58845411E+00  -8.01552061E+00  -1.10372738E+01  -1.32614820E+01  -2.48347220E+00  -5.68632812E+00  -2.96545837E+00  -4.16889878E+00  -7.74435345E+00  -2.79126401E+00  -3.06833112E+00  -5.48735968E+00  -5.15113868E+00  -3.02166790E+00  -6.73704079E+00  -1.24405356E+02  -9.66845084E+00  -6.24893751E+00  -1.06187541E+01  -1.02812610E+01  -6.50657458E+00  -3.12633873E+00  -9.46948347E+00  -3.63504120E+00  -5.28626675E+01  -1.10278304E+01  -8.24710774E+00  -2.00916518E+00  -3.87919563E+01  -6.74281497E+00  -8.56818101E+00  -4.21137843E+00  -6.47228565E+00  -6.62444554E+00  -7.99333836E+00  -8.03463854E+00  -1.11875722E+01  -9.23024851E+00  -6.77437611E+00  -6.22821404E+00  -1.15158224E+01  -6.10424928E+00  -1.20036225E+01  -7.24102068E+00  -1.07946887E+01  -1.58422864E+01  -1.58426737E+01  -2.15326909E+01  -1.24600875E+01  -2.14395032E+01  -2.14398981E+01  -3.06474708E+01  -2.82022540E+01
   5.77500000E+02   5.00000000E-01   5.00000000E-01  -6.22967493E+00  -1.36428872E+01  -2.79287856E+00  -1.43580327E+00  -1.86341678E+00  -2.28389494E+00  -1.20577702E+01  -6.72166340E+00  -5.12276531E+00  -2.57684403E-01  -4.16173854E+00  -1.95231249E+00  -9.75965419E+00  -3.25340480E-01  -1.80389706E+00  -7.74043729E+00  -3.39218747E+00  -6.45815067E+00  -4.40318285E+00  -2.82346857E+00  -1.20496128E+01  -1.09173151E+01  -9.57864488E+00  -1.19965150E+01  -8.57268865E+00  -7.99285693E+00  -1.10801809E+01  -1.32028509E+01  -2.50210501E+00  -5.75369750E+00  -2.94102588E+00  -4.15890446E+00  -7.68905734E+00  -2.77821538E+00  -3.02652210E+00  -5.45861915E+00  -5.13137910E+00  -3.00594948E+00  -6.72500430E+00  -1.22976024E+02  -9.63039119E+00  -6.22220927E+00  -1.05104902E+01  -1.01907101E+01  -6.40260808E+00  -3.11669457E+00  -9.43942906E+00  -3.62888922E+00  -5.22030925E+01  -1.09355930E+01  -8.23114611E+00  -2.00979580E+00  -3.83735136E+01  -6.74804157E+00  -8.60560418E+00  -4.27320682E+00  -6.44488632E+00  -6.66287791E+00  -8.09548753E+00  -8.02557384E+00  -1.12713966E+01  -9.26650559E+00  -6.75048037E+00  -6.21405570E+00  -1.14637846E+01  -6.10054210E+00  -1.18713346E+01  -7.23218352E+00  -1.08042333E+01  -1.58505806E+01  -1.58510075E+01  -2.15466184E+01  -1.24559553E+01  -2.14542507E+01  -2.14546801E+01  -3.06216701E+01  -2.79853641E+01
   6.12500000E+02   5.00000000E-01   5.00000000E-01  -6.16584715E+00  -1.35751605E+01  -2.75173686E+00  -1.44271245E+00  -1.85517986E+00  -2.28070551E+00  -1.20464513E+01  -6.72244354E+00  -5.12407227E+00  -2.57194102E-01  -4.16110911E+00  -1.95244397E+00  -9.76337622E+00  -3.24612167E-01  -1.80504409E+00  -7.73989539E+00  -3.39155804E+00  -6.49640394E+00  -4.40255342E+00  -2.79931960E+00  -1.19563204E+01  -1.08129779E+01  -9.50673571E+00  -1.19167829E+01  -8.55883210E+00  -7.97002707E+00  -1.11247117E+01  -1.31455320E+01  -2.52267487E+00  -5.82256005E+00  -2.91639192E+00  -4.14787222E+00  -7.63474671E+00  -2.76550999E+00  -2.98554521E+00  -5.42997096E+00  -5.11251609E+00  -2.99125654E+00  -6.71354208E+00  -1.21571069E+02  -9.59411509E+00  -6.19766732E+00  -1.04058432E+01  -1.01014666E+01  -6.30022568E+00  -3.10682711E+00  -9.41000320E+00  -3.62256247E+00  -5.15539404E+01  -1.08445902E+01  -8.21508166E+00  -2.00999092E+00  -3.79618974E+01  -6.75463668E+00  -8.64339985E+00  -4.33694576E+00  -6.42066880E+00  -6.70298726E+00  -8.19773846E+00  -8.01808842E+00  -1.13560919E+01  -9.30450248E+00  -6.72846123E+00  -6.19952207E+00  -1.14127374E+01  -6.09732689E+00  -1.17433205E+01  -7.22405649E+00  -1.08147817E+01  -1.58603487E+01  -1.58608210E+01  -2.15625870E+01  -1.24529388E+01  -2.14710179E+01  -2.14714876E+01  -3.05987873E+01  -2.77718139E+01
   6.47500000E+02   5.00000000E-01   5.00000000E-01  -6.10348295E+00  -1.35096195E+01  -2.71286764E+00  -1.44971935E+00  -1.84717308E+00  -2.27831937E+00  -1.20366353E+01  -6.72324972E+00  -5.12534888E+00  -2.56687719E-01  -4.16045404E+00  -1.95258139E+00  -9.76863819E+00  -3.23865351E-01  -1.80637407E+00  -7.73932800E+00  -3.39090297E+00  -6.53580442E+00  -4.40189835E+00  -2.77555869E+00  -1.18645944E+01  -1.07104824E+01  -9.43613098E+00  -1.18387188E+01  -8.54695818E+00  -7.94705633E+00  -1.11709326E+01  -1.30894929E+01  -2.54522702E+00  -5.89295918E+00  -2.89158174E+00  -4.13587044E+00  -7.58140136E+00  -2.75315748E+00  -2.94533039E+00  -5.40138292E+00  -5.09446836E+00  -2.97751202E+00  -6.70262754E+00  -1.20189865E+02  -9.55953536E+00  -6.17513836E+00  -1.03046075E+01  -1.00134555E+01  -6.19939002E+00  -3.09676713E+00  -9.38119954E+00  -3.61607780E+00  -5.09149653E+01  -1.07547651E+01  -8.19894064E+00  -2.00977957E+00  -3.75569414E+01  -6.76247124E+00  -8.68148149E+00  -4.40259211E+00  -6.39935917E+00  -6.74455156E+00  -8.29992420E+00  -8.01205238E+00  -1.14414966E+01  -9.34429607E+00  -6.70839047E+00  -6.18463899E+00  -1.13626551E+01  -6.09460386E+00  -1.16193035E+01  -7.21656566E+00  -1.08262545E+01  -1.58714732E+01  -1.58719968E+01  -2.15804385E+01  -1.24508989E+01  -2.14896468E+01  -2.14901628E+01  -3.05785938E+01  -2.75615033E+01
   6.82500000E+02   5.00000000E-01   5.00000000E-01  -6.04253399E+00  -1.34461440E+01  -2.67630616E+00  -1.45683412E+00  -1.83938954E+00  -2.27666255E+00  -1.20283682E+01  -6.72408309E+00  -5.12659002E+00  -2.56166288E-01  -4.15977385E+00  -1.95272439E+00  -9.77534360E+00  -3.23099966E-01  -1.80786933E+00  -7.73873565E+00  -3.39022279E+00  -6.57619090E+00  -4.40121817E+00  -2.75215797E+00  -1.17744008E+01  -1.06097400E+01  -9.36675940E+00  -1.17622311E+01  -8.53711807E+00  -7.92396744E+00  -1.12188872E+01  -1.30347008E+01  -2.56978742E+00  -5.96491971E+00  -2.86661817E+00  -4.12296116E+00  -7.52900074E+00  -2.74116453E+00  -2.90582656E+00  -5.37283818E+00  -5.07717429E+00  -2.96465707E+00  -6.69223555E+00  -1.18831807E+02  -9.52656842E+00  -6.15444793E+00  -1.02065771E+01  -9.92661421E+00  -6.10006546E+00  -3.08654186E+00  -9.35300999E+00  -3.60945002E+00  -5.02859285E+01  -1.06660704E+01  -8.18274498E+00  -2.00918806E+00  -3.71584843E+01  -6.77141008E+00  -8.71975257E+00  -4.47014001E+00  -6.38070521E+00  -6.78736674E+00  -8.40189183E+00  -8.00732888E+00  -1.15274488E+01  -9.38592054E+00  -6.69031722E+00  -6.16942960E+00  -1.13135118E+01  -6.09237037E+00  -1.14990396E+01  -7.20964892E+00  -1.08385826E+01  -1.58838515E+01  -1.58844323E+01  -2.16000344E+01  -1.24497193E+01  -2.15099993E+01  -2.15105677E+01  -3.05608891E+01  -2.73543395E+01