 TITLE = "Total Concentrations" 
VARIABLES = "X"          "Y"              "Z"            "H+"             "Al+++"          "CO2(aq)"        "Mg++"           "Ca++"           "Fe++"           "Fe+++"          "Ba++"           "Sr++"           "Cl-"            "F-"             "K+"             "HS-"            "Na+"            "SO4--"          "O2(aq)"         "B(OH)3(aq)"     "HPO4--"         "NO3-"           "H4SiO4(aq)"     "HNO3(aq)"       "Al(OH)2+"       "AlO2-"          "AlOH++"         "BaHCO3+"        "BaCl+"          "BaCO3(aq)"      "BaOH+"          "HCO3-"          "CO3--"          "CaCl+"          "CaCl2(aq)"      "CaOH+"          "CaSO4(aq)"      "FeCl+"          "FeCl2(aq)"      "FeOH+"          "FeSO4(aq)"      "OH-"            "S2O3--"         "H2S(aq)"        "H2PO4-"         "H3PO4(aq)"      "HAlO2(aq)"      "HSO4-"          "KCl(aq)"        "KOH(aq)"        "KSO4-"          "NH3(aq)"        "NaAlO2(aq)"     "NaOH(aq)"       "NaSO4-"         "H2(aq)"         "CaHPO4(aq)"     "CaPO4-"         "FeCO3(aq)"      "FeH2PO4+"       "FeHPO4(aq)"     "FePO4-"         "KHPO4-"         "PO4---"         "Sr(CO3)(aq)"    "SrHCO3+"        "SrCl+"          "SrOH+"          "SrSO4(aq)"      "AlH3SiO4++"     "Si2O2(OH)5-"    "Si2O3(OH)4--"   "Si3O5(OH)5---"  "Si3O6(OH)3---"  "Si4O12H4----"   "Si4O6(OH)6--"   "Si4O7(OH)6----" "Si4O8(OH)4----" "Si6O15------"   "SiF6--"        
 ZONE I=         200 , J=           1 , K=           1  F=POINT
   8.75000000E+00   5.00000000E-01   5.00000000E-01  -7.81640867E+00  -1.74012816E+01  -3.94196538E+00  -1.29411351E+00  -2.04422930E+00  -4.43239756E+00  -2.17948222E+01  -6.71260683E+00  -5.10352499E+00  -2.62115514E-01  -4.16749363E+00  -1.95204087E+00  -1.00586933E+01  -3.35545278E-01  -1.83620585E+00  -7.74473460E+00  -3.39794256E+00  -5.87581932E+00  -4.40893793E+00  -3.39055855E+00  -1.41010000E+01  -1.45971950E+01  -1.20595619E+01  -1.55505938E+01  -8.92584594E+00  -8.30746281E+00  -1.01637934E+01  -1.40543033E+01  -2.33800936E+00  -4.46382798E+00  -3.28615207E+00  -4.11698205E+00  -8.44049674E+00  -3.01333093E+00  -5.74415223E+00  -7.82817623E+00  -7.22634917E+00  -5.32378928E+00  -6.73366564E+00  -1.50323161E+02  -1.08667793E+01  -7.07613350E+00  -1.31760308E+01  -1.32184818E+01  -8.60491990E+00  -3.20739222E+00  -9.71819819E+00  -3.68522358E+00  -6.46992118E+01  -1.36687889E+01  -8.15537513E+00  -1.91232401E+00  -4.61561891E+01  -6.64603716E+00  -7.52545846E+00  -5.02866534E+00  -9.40794769E+00  -8.03325466E+00  -7.89498349E+00  -8.17583657E+00  -9.59272537E+00  -8.47992507E+00  -7.23206390E+00  -6.36338763E+00  -1.21609910E+01  -6.20354026E+00  -1.68046398E+01  -7.40703971E+00  -1.04286645E+01  -1.53787967E+01  -1.53790370E+01  -2.08828262E+01  -1.25395111E+01  -2.07744557E+01  -2.07747215E+01  -3.03515479E+01  -3.32196877E+01
   2.62500000E+01   5.00000000E-01   5.00000000E-01  -7.57571867E+00  -1.60355654E+01  -3.72514178E+00  -1.29672563E+00  -2.03619633E+00  -4.09890288E+00  -2.11366304E+01  -6.71275425E+00  -5.10389883E+00  -2.62118520E-01  -4.16749120E+00  -1.95229188E+00  -1.00896226E+01  -3.35345266E-01  -1.83175168E+00  -7.74473679E+00  -3.39794013E+00  -5.89281344E+00  -4.40893551E+00  -3.21697531E+00  -1.38477458E+01  -1.36038661E+01  -1.14717227E+01  -1.43783672E+01  -8.91889933E+00  -8.30093667E+00  -1.03791926E+01  -1.42041625E+01  -2.34396378E+00  -4.68792451E+00  -3.27779110E+00  -4.12734617E+00  -8.59444276E+00  -3.00495351E+00  -5.39610834E+00  -7.49696712E+00  -7.07863726E+00  -4.98648909E+00  -6.91161586E+00  -1.48985447E+02  -1.06872896E+01  -6.86281593E+00  -1.27175706E+01  -1.24323934E+01  -8.34557816E+00  -3.20869272E+00  -9.89027049E+00  -3.68518315E+00  -6.40788754E+01  -1.30766850E+01  -8.34345560E+00  -1.91856691E+00  -4.58812753E+01  -6.65090500E+00  -7.74993600E+00  -4.92948357E+00  -8.86170716E+00  -7.72782080E+00  -7.83017806E+00  -8.17345828E+00  -9.82703081E+00  -8.69048396E+00  -7.22136550E+00  -6.36291769E+00  -1.23174182E+01  -6.19927837E+00  -1.54169136E+01  -7.27259071E+00  -1.04927315E+01  -1.54723345E+01  -1.54725826E+01  -2.10082104E+01  -1.22805381E+01  -2.09004092E+01  -2.09006868E+01  -3.05186801E+01  -3.21596175E+01
   4.37500000E+01   5.00000000E-01   5.00000000E-01  -7.45409896E+00  -1.55299246E+01  -3.62508900E+00  -1.29914498E+00  -2.02834199E+00  -3.91255136E+00  -2.08349649E+01  -6.71295001E+00  -5.10434068E+00  -2.62107828E-01  -4.16747385E+00  -1.95255793E+00  -1.01058138E+01  -3.35149007E-01  -1.82762613E+00  -7.74472405E+00  -3.39792278E+00  -5.90697795E+00  -4.40891816E+00  -3.10325279E+00  -1.37133440E+01  -1.32334745E+01  -1.12698757E+01  -1.39474709E+01  -8.91016691E+00  -8.29412562E+00  -1.04744496E+01  -1.42361827E+01  -2.34843169E+00  -4.79218300E+00  -3.26916319E+00  -4.13684714E+00  -8.63041539E+00  -2.99656282E+00  -5.19488307E+00  -7.31203688E+00  -6.95955690E+00  -4.79612698E+00  -6.97160576E+00  -1.47894050E+02  -1.06112585E+01  -6.76522562E+00  -1.24936418E+01  -1.21505265E+01  -8.20524153E+00  -3.20962178E+00  -9.94413824E+00  -3.68501518E+00  -6.35807172E+01  -1.28702192E+01  -8.41287025E+00  -1.92453175E+00  -4.56089346E+01  -6.65258136E+00  -7.85229745E+00  -4.85691108E+00  -8.57839773E+00  -7.56626311E+00  -7.79013496E+00  -8.16786667E+00  -9.94013237E+00  -8.78097038E+00  -7.20886579E+00  -6.36209747E+00  -1.23558695E+01  -6.19505593E+00  -1.48318301E+01  -7.13945434E+00  -1.04398056E+01  -1.53903452E+01  -1.53905992E+01  -2.08996123E+01  -1.20240495E+01  -2.07923767E+01  -2.07926636E+01  -3.03345952E+01  -3.16335047E+01
   6.12500000E+01   5.00000000E-01   5.00000000E-01  -7.37185662E+00  -1.52757943E+01  -3.56265833E+00  -1.30144574E+00  -2.02066014E+00  -3.78277488E+00  -2.06507624E+01  -6.71316100E+00  -5.10481529E+00  -2.62084009E-01  -4.16744223E+00  -1.95289295E+00  -1.01151829E+01  -3.34958011E-01  -1.82381058E+00  -7.74469704E+00  -3.39789117E+00  -5.91916188E+00  -4.40888654E+00  -3.02987914E+00  -1.36181128E+01  -1.30368219E+01  -1.11641793E+01  -1.37290286E+01  -8.90015136E+00  -8.28700780E+00  -1.05297355E+01  -1.42299976E+01  -2.35193364E+00  -4.85679731E+00  -3.26027704E+00  -4.14550989E+00  -8.62808271E+00  -2.98815092E+00  -5.04992232E+00  -7.18284614E+00  -6.85822225E+00  -4.66213408E+00  -6.99329850E+00  -1.46889449E+02  -1.05669336E+01  -6.70453264E+00  -1.23457333E+01  -1.20033651E+01  -8.10421416E+00  -3.21024663E+00  -9.95952975E+00  -3.68476925E+00  -6.31250027E+01  -1.27595661E+01  -8.44331091E+00  -1.93021991E+00  -4.53391269E+01  -6.65192559E+00  -7.91309982E+00  -4.80059517E+00  -8.38861496E+00  -7.45886460E+00  -7.76483578E+00  -8.15998752E+00  -1.00125596E+01  -8.83155312E+00  -7.19506750E+00  -6.36090513E+00  -1.23559808E+01  -6.19083209E+00  -1.45009572E+01  -7.04829359E+00  -1.03902342E+01  -1.53133591E+01  -1.53136172E+01  -2.07977252E+01  -1.18513783E+01  -2.06910514E+01  -2.06913454E+01  -3.01604010E+01  -3.13031516E+01
   7.87500000E+01   5.00000000E-01   5.00000000E-01  -7.30545702E+00  -1.51063754E+01  -3.51488930E+00  -1.30367038E+00  -2.01314391E+00  -3.68304405E+00  -2.05134290E+01  -6.71337881E+00  -5.10531275E+00  -2.62047640E-01  -4.16739695E+00  -1.95330000E+00  -1.01216171E+01  -3.34771302E-01  -1.82028692E+00  -7.74465637E+00  -3.39784588E+00  -5.93046271E+00  -4.40884125E+00  -2.98210368E+00  -1.35385311E+01  -1.28941634E+01  -1.10819297E+01  -1.35797725E+01  -8.88941149E+00  -8.27958976E+00  -1.05691227E+01  -1.42091113E+01  -2.35501862E+00  -4.90582879E+00  -3.25114337E+00  -4.15336455E+00  -8.61095671E+00  -2.97971859E+00  -4.93471346E+00  -7.08290024E+00  -6.77163067E+00  -4.55798973E+00  -7.00019939E+00  -1.45924450E+02  -1.05346937E+01  -6.65831735E+00  -1.22279043E+01  -1.18946916E+01  -8.01896214E+00  -3.21058728E+00  -9.95996798E+00  -3.68444916E+00  -6.26881633E+01  -1.26720384E+01  -8.45831134E+00  -1.93563510E+00  -4.50718163E+01  -6.65005381E+00  -7.95699566E+00  -4.75809752E+00  -8.24340657E+00  -7.38020527E+00  -7.75239801E+00  -8.15094817E+00  -1.00689257E+01  -8.86630312E+00  -7.18053003E+00  -6.35934778E+00  -1.23412589E+01  -6.18660171E+00  -1.42662323E+01  -6.99313084E+00  -1.03615629E+01  -1.52676985E+01  -1.52679594E+01  -2.07376400E+01  -1.17505736E+01  -2.06315239E+01  -2.06318230E+01  -3.00487637E+01  -3.10597494E+01
   9.62500000E+01   5.00000000E-01   5.00000000E-01  -7.24865161E+00  -1.49874790E+01  -3.47570529E+00  -1.30584232E+00  -2.00578657E+00  -3.60217762E+00  -2.04042270E+01  -6.71360182E+00  -5.10583016E+00  -2.61999275E-01  -4.16733854E+00  -1.95375509E+00  -1.01261722E+01  -3.34586550E-01  -1.81703776E+00  -7.74460258E+00  -3.39778748E+00  -5.94118909E+00  -4.40878285E+00  -2.94922440E+00  -1.34683645E+01  -1.27837942E+01  -1.10138924E+01  -1.34717597E+01  -8.87811137E+00  -8.27188603E+00  -1.05990049E+01  -1.41797508E+01  -2.35783332E+00  -4.94564972E+00  -3.24177378E+00  -4.16044298E+00  -8.58526493E+00  -2.97127064E+00  -4.83809268E+00  -7.00105423E+00  -6.69484275E+00  -4.47252520E+00  -6.99852842E+00  -1.44986440E+02  -1.05093725E+01  -6.62065848E+00  -1.21279993E+01  -1.18090439E+01  -7.94323930E+00  -3.21063787E+00  -9.95166470E+00  -3.68403397E+00  -6.22639200E+01  -1.25984179E+01  -8.46411893E+00  -1.94078171E+00  -4.48069690E+01  -6.64729659E+00  -7.99056454E+00  -4.72464155E+00  -8.12566814E+00  -7.31942838E+00  -7.74821496E+00  -8.14106112E+00  -1.01157666E+01  -8.89161273E+00  -7.16541820E+00  -6.35744071E+00  -1.23179336E+01  -6.18237104E+00  -1.40889666E+01  -6.95879778E+00  -1.03448593E+01  -1.52399668E+01  -1.52402293E+01  -2.07014922E+01  -1.16913022E+01  -2.05959296E+01  -2.05962323E+01  -2.99729003E+01  -3.08676777E+01
   1.13750000E+02   5.00000000E-01   5.00000000E-01  -7.19828176E+00  -1.49042289E+01  -3.44206154E+00  -1.30798165E+00  -1.99858183E+00  -3.53427858E+00  -2.03136880E+01  -6.71382952E+00  -5.10636579E+00  -2.61939434E-01  -4.16726754E+00  -1.95423281E+00  -1.01294428E+01  -3.34401325E-01  -1.81404698E+00  -7.74453619E+00  -3.39771647E+00  -5.95153194E+00  -4.40871184E+00  -2.92439815E+00  -1.34044679E+01  -1.26971428E+01  -1.09577872E+01  -1.33932702E+01  -8.86635821E+00  -8.26391176E+00  -1.06226299E+01  -1.41450549E+01  -2.36046711E+00  -4.97948584E+00  -3.23217965E+00  -4.16677627E+00  -8.55414584E+00  -2.96281277E+00  -4.75417982E+00  -6.93144625E+00  -6.62511367E+00  -4.39985647E+00  -6.99141668E+00  -1.44068990E+02  -1.04884317E+01  -6.58860643E+00  -1.20399233E+01  -1.17410037E+01  -7.87389001E+00  -3.21039060E+00  -9.93774080E+00  -3.68350198E+00  -6.18490843E+01  -1.25364393E+01  -8.46389090E+00  -1.94566460E+00  -4.45445516E+01  -6.64386643E+00  -8.01717776E+00  -4.69758750E+00  -8.02655145E+00  -7.27084369E+00  -7.74975632E+00  -8.13051862E+00  -1.01564109E+01  -8.91072838E+00  -7.14983993E+00  -6.35519981E+00  -1.22891461E+01  -6.17814808E+00  -1.39505544E+01  -6.93475385E+00  -1.03327290E+01  -1.52190737E+01  -1.52193370E+01  -2.06744933E+01  -1.16524856E+01  -2.05694796E+01  -2.05697847E+01  -2.99106378E+01  -3.07075310E+01
   1.31250000E+02   5.00000000E-01   5.00000000E-01  -7.15212727E+00  -1.48451355E+01  -3.41185138E+00  -1.31010468E+00  -1.99152382E+00  -3.47583225E+00  -2.02351589E+01  -6.71406161E+00  -5.10691812E+00  -2.61868597E-01  -4.16718441E+00  -1.95471461E+00  -1.01319268E+01  -3.34213792E-01  -1.81129940E+00  -7.74445768E+00  -3.39763334E+00  -5.96168214E+00  -4.40862871E+00  -2.90363358E+00  -1.33446341E+01  -1.26271478E+01  -1.09109677E+01  -1.33350318E+01  -8.85425921E+00  -8.25568163E+00  -1.06423077E+01  -1.41072247E+01  -2.36300998E+00  -5.00962586E+00  -3.22237210E+00  -4.17239443E+00  -8.51980024E+00  -2.95435088E+00  -4.67947627E+00  -6.87059531E+00  -6.56114262E+00  -4.33648150E+00  -6.98105776E+00  -1.43167548E+02  -1.04701738E+01  -6.56014935E+00  -1.19594574E+01  -1.16857244E+01  -7.80869724E+00  -3.20984374E+00  -9.92038587E+00  -3.68283851E+00  -6.14414064E+01  -1.24834715E+01  -8.45984642E+00  -1.95028928E+00  -4.42845318E+01  -6.63997512E+00  -8.03926729E+00  -4.67573959E+00  -7.94052848E+00  -7.23114283E+00  -7.75593505E+00  -8.11951847E+00  -1.01932494E+01  -8.92595865E+00  -7.13390307E+00  -6.35264044E+00  -1.22571003E+01  -6.17394081E+00  -1.38376911E+01  -6.91522384E+00  -1.03216046E+01  -1.51996694E+01  -1.51999327E+01  -2.06495088E+01  -1.16225762E+01  -2.05450395E+01  -2.05453457E+01  -2.98512836E+01  -3.05665063E+01
   1.48750000E+02   5.00000000E-01   5.00000000E-01  -7.10871782E+00  -1.48019411E+01  -3.38370267E+00  -1.31222279E+00  -1.98460703E+00  -3.42458639E+00  -2.01642359E+01  -6.71429796E+00  -5.10748585E+00  -2.61787203E-01  -4.16708959E+00  -1.95518858E+00  -1.01339898E+01  -3.34022791E-01  -1.80878059E+00  -7.74436747E+00  -3.39753852E+00  -5.97180007E+00  -4.40853389E+00  -2.88475154E+00  -1.32874052E+01  -1.25684799E+01  -1.08710210E+01  -1.32902546E+01  -8.84190652E+00  -8.24720989E+00  -1.06595838E+01  -1.40677120E+01  -2.36553737E+00  -5.03759485E+00  -3.21236188E+00  -4.17732647E+00  -8.48367976E+00  -2.94589094E+00  -4.61174521E+00  -6.81628149E+00  -6.50214151E+00  -4.28016043E+00  -6.96889637E+00  -1.42279066E+02  -1.04535179E+01  -6.53399411E+00  -1.18838504E+01  -1.16393422E+01  -7.74619386E+00  -3.20900162E+00  -9.90104669E+00  -3.68203563E+00  -6.10393865E+01  -1.24371168E+01  -8.45345526E+00  -1.95466186E+00  -4.40268777E+01  -6.63580324E+00  -8.05848385E+00  -4.65839970E+00  -7.86405254E+00  -7.19824901E+00  -7.76614574E+00  -8.10823345E+00  -1.02278930E+01  -8.93884787E+00  -7.11770036E+00  -6.34977753E+00  -1.22232503E+01  -6.16975724E+00  -1.37413679E+01  -6.89730712E+00  -1.03100435E+01  -1.51795913E+01  -1.51798540E+01  -2.06236540E+01  -1.15957754E+01  -2.05197245E+01  -2.05200309E+01  -2.97905179E+01  -3.04366089E+01
   1.66250000E+02   5.00000000E-01   5.00000000E-01  -7.06709045E+00  -1.47686970E+01  -3.35673519E+00  -1.31434345E+00  -1.97782627E+00  -3.37901532E+00  -2.00980374E+01  -6.71453858E+00  -5.10806782E+00  -2.61695659E-01  -4.16698348E+00  -1.95564790E+00  -1.01358904E+01  -3.33827682E-01  -1.80647690E+00  -7.74426598E+00  -3.39743241E+00  -5.98201448E+00  -4.40842778E+00  -2.86666978E+00  -1.32318300E+01  -1.25171047E+01  -1.08358151E+01  -1.32539504E+01  -8.82937703E+00  -8.23851033E+00  -1.06754820E+01  -1.40274619E+01  -2.36811011E+00  -5.06439662E+00  -3.20215944E+00  -4.18160034E+00  -8.44672931E+00  -2.93743895E+00  -4.54947567E+00  -6.76701011E+00  -6.44754152E+00  -4.22937957E+00  -6.95587073E+00  -1.41401513E+02  -1.04377826E+01  -6.50932272E+00  -1.18113332E+01  -1.15987807E+01  -7.68542017E+00  -3.20787295E+00  -9.88066799E+00  -3.68109051E+00  -6.06420329E+01  -1.23952577E+01  -8.44568016E+00  -1.95878895E+00  -4.37715579E+01  -6.63149906E+00  -8.07593833E+00  -4.64507382E+00  -7.79477872E+00  -7.17077999E+00  -7.77997001E+00  -8.09680865E+00  -1.02614143E+01  -8.95041837E+00  -7.10130928E+00  -6.34662553E+00  -1.21885437E+01  -6.16560528E+00  -1.36554756E+01  -6.87978968E+00  -1.02977828E+01  -1.51584455E+01  -1.51587072E+01  -2.05964031E+01  -1.15696574E+01  -2.04930085E+01  -2.04933144E+01  -2.97275581E+01  -3.03129674E+01
   1.83750000E+02   5.00000000E-01   5.00000000E-01  -7.02661497E+00  -1.47410997E+01  -3.33038912E+00  -1.31647137E+00  -1.97117667E+00  -3.33803924E+00  -2.00346798E+01  -6.71478356E+00  -5.10866300E+00  -2.61594342E-01  -4.16686647E+00  -1.95608908E+00  -1.01378091E+01  -3.33628164E-01  -1.80437546E+00  -7.74415359E+00  -3.39731540E+00  -5.99242801E+00  -4.40831078E+00  -2.84893070E+00  -1.31772896E+01  -1.24699675E+01  -1.08035329E+01  -1.32224432E+01  -8.81673544E+00  -8.22959620E+00  -1.06906814E+01  -1.39870872E+01  -2.37077747E+00  -5.09069142E+00  -3.19177482E+00  -4.18524296E+00  -8.40956163E+00  -2.92900086E+00  -4.49160190E+00  -6.72173104E+00  -6.39688710E+00  -4.18307079E+00  -6.94258717E+00  -1.40533526E+02  -1.04225405E+01  -6.48562321E+00  -1.17407749E+01  -1.15616106E+01  -7.62574930E+00  -3.20646913E+00  -9.85986539E+00  -3.68000374E+00  -6.02486865E+01  -1.23560918E+01  -8.43715122E+00  -1.96267746E+00  -4.35185417E+01  -6.62718393E+00  -8.09238187E+00  -4.63536907E+00  -7.73111412E+00  -7.14777284E+00  -7.79707598E+00  -8.08536525E+00  -1.02945277E+01  -8.96134810E+00  -7.08479504E+00  -6.34319828E+00  -1.21535958E+01  -6.16149269E+00  -1.35758434E+01  -6.86237424E+00  -1.02851433E+01  -1.51367144E+01  -1.51369750E+01  -2.05683987E+01  -1.15436302E+01  -2.04655340E+01  -2.04658390E+01  -2.96633729E+01  -3.01926632E+01
   2.01250000E+02   5.00000000E-01   5.00000000E-01  -6.98698137E+00  -1.47169917E+01  -3.30440562E+00  -1.31860927E+00  -1.96465358E+00  -3.30087105E+00  -1.99732400E+01  -6.71503311E+00  -5.10927051E+00  -2.61483603E-01  -4.16673891E+00  -1.95651013E+00  -1.01398363E+01  -3.33424101E-01  -1.80246420E+00  -7.74403064E+00  -3.39718784E+00  -6.00310216E+00  -4.40818321E+00  -2.83133684E+00  -1.31234846E+01  -1.24255194E+01  -1.07732235E+01  -1.31938832E+01  -8.80402747E+00  -8.22048031E+00  -1.07055228E+01  -1.39468813E+01  -2.37357029E+00  -5.11680159E+00  -3.18121768E+00  -4.18828016E+00  -8.37246976E+00  -2.92058264E+00  -4.43735022E+00  -6.67968555E+00  -6.34969528E+00  -4.14045833E+00  -6.92933271E+00  -1.39674385E+02  -1.04075932E+01  -6.46266207E+00  -1.16716427E+01  -1.15265886E+01  -7.56687468E+00  -3.20480241E+00  -9.83893605E+00  -3.67877753E+00  -5.98590088E+01  -1.23186823E+01  -8.42817829E+00  -1.96633446E+00  -4.32677990E+01  -6.62293729E+00  -8.10820333E+00  -4.62884621E+00  -7.67203709E+00  -7.12851574E+00  -7.81706258E+00  -8.07398367E+00  -1.03275867E+01  -8.97197638E+00  -7.06820386E+00  -6.33950922E+00  -1.21187019E+01  -6.15742717E+00  -1.35003877E+01  -6.84496378E+00  -1.02723265E+01  -1.51147006E+01  -1.51149602E+01  -2.05400438E+01  -1.15175016E+01  -2.04377040E+01  -2.04380077E+01  -2.95985711E+01  -3.00743159E+01
   2.18750000E+02   5.00000000E-01   5.00000000E-01  -6.94805198E+00  -1.46954313E+01  -3.27868598E+00  -1.32075878E+00  -1.95825259E+00  -3.26691838E+00  -1.99133120E+01  -6.71528753E+00  -5.10988960E+00  -2.61363770E-01  -4.16660112E+00  -1.95690980E+00  -1.01420107E+01  -3.33215424E-01  -1.80073186E+00  -7.74389747E+00  -3.39705005E+00  -6.01407146E+00  -4.40804542E+00  -2.81379822E+00  -1.30702875E+01  -1.23830832E+01  -1.07444635E+01  -1.31674637E+01  -8.79128677E+00  -8.21117491E+00  -1.07201628E+01  -1.39069654E+01  -2.37650798E+00  -5.14286643E+00  -3.17049728E+00  -4.19073669E+00  -8.33557494E+00  -2.91219014E+00  -4.38614099E+00  -6.64030836E+00  -6.30550555E+00  -4.10096081E+00  -6.91622283E+00  -1.38823715E+02  -1.03928624E+01  -6.44035049E+00  -1.16037203E+01  -1.14931706E+01  -7.50866217E+00  -3.20288515E+00  -9.81800579E+00  -3.67741489E+00  -5.94728338E+01  -1.22826192E+01  -8.41889877E+00  -1.96976710E+00  -4.30193001E+01  -6.61881071E+00  -8.12359134E+00  -4.62507649E+00  -7.61686546E+00  -7.11246408E+00  -7.83952363E+00  -8.06271703E+00  -1.03607464E+01  -8.98245862E+00  -7.05156984E+00  -6.33557120E+00  -1.20839857E+01  -6.15341623E+00  -1.34281770E+01  -6.82750417E+00  -1.02594045E+01  -1.50925130E+01  -1.50927716E+01  -2.05114830E+01  -1.14911657E+01  -2.04096630E+01  -2.04099653E+01  -2.95333732E+01  -2.99573393E+01
   2.36250000E+02   5.00000000E-01   5.00000000E-01  -6.90969222E+00  -1.46753522E+01  -3.25313632E+00  -1.32292128E+00  -1.95196951E+00  -3.23571984E+00  -1.98544990E+01  -6.71554707E+00  -5.11051947E+00  -2.61235151E-01  -4.16645341E+00  -1.95728772E+00  -1.01443742E+01  -3.33002120E-01  -1.79916791E+00  -7.74375438E+00  -3.39690234E+00  -6.02537262E+00  -4.40789771E+00  -2.79632012E+00  -1.30175735E+01  -1.23418502E+01  -1.07166931E+01  -1.31422502E+01  -8.77854872E+00  -8.20169163E+00  -1.07347573E+01  -1.38674582E+01  -2.37961247E+00  -5.16902541E+00  -3.15962242E+00  -4.19263618E+00  -8.29899569E+00  -2.90382903E+00  -4.33752495E+00  -6.60316389E+00  -6.26398537E+00  -4.06412741E+00  -6.90337073E+00  -1.37981152E+02  -1.03782753E+01  -6.41860434E+00  -1.15367987E+01  -1.14606784E+01  -7.45098079E+00  -3.20072992E+00  -9.79719835E+00  -3.67591975E+00  -5.90899987E+01  -1.22473552E+01  -8.40944676E+00  -1.97298248E+00  -4.27730159E+01  -6.61485703E+00  -8.13873266E+00  -4.62376104E+00  -7.56505273E+00  -7.09920581E+00  -7.86418234E+00  -8.05162036E+00  -1.03941615E+01  -8.99294936E+00  -7.03492879E+00  -6.33139638E+00  -1.20495677E+01  -6.14946700E+00  -1.33582482E+01  -6.81012895E+00  -1.02466342E+01  -1.50705373E+01  -1.50707952E+01  -2.04832306E+01  -1.14648915E+01  -2.03819252E+01  -2.03822260E+01  -2.94685540E+01  -2.98412522E+01
   2.53750000E+02   5.00000000E-01   5.00000000E-01  -6.87186849E+00  -1.46565019E+01  -3.22775433E+00  -1.32509758E+00  -1.94580033E+00  -3.20691280E+00  -1.97967070E+01  -6.71581202E+00  -5.11115941E+00  -2.61098037E-01  -4.16629606E+00  -1.95764375E+00  -1.01469350E+01  -3.32784177E-01  -1.79776257E+00  -7.74360165E+00  -3.39674499E+00  -6.03702125E+00  -4.40774036E+00  -2.77890783E+00  -1.29653178E+01  -1.23016246E+01  -1.06897634E+01  -1.31180215E+01  -8.76583941E+00  -8.19204156E+00  -1.07493521E+01  -1.38283774E+01  -2.38289698E+00  -5.19530897E+00  -3.14860152E+00  -4.19400124E+00  -8.26275002E+00  -2.89550483E+00  -4.29115095E+00  -6.56791406E+00  -6.22479999E+00  -4.02960566E+00  -6.89078937E+00  -1.37146534E+02  -1.03638253E+01  -6.39741876E+00  -1.14708486E+01  -1.14289453E+01  -7.39380054E+00  -3.19834889E+00  -9.77653697E+00  -3.67429629E+00  -5.87104418E+01  -1.22127538E+01  -8.39985520E+00  -1.97598767E+00  -4.25289177E+01  -6.61110717E+00  -8.15369108E+00  -4.62458965E+00  -7.51623048E+00  -7.08840604E+00  -7.89073812E+00  -8.04072684E+00  -1.04278653E+01  -9.00349329E+00  -7.01830718E+00  -6.32699643E+00  -1.20154680E+01  -6.14558634E+00  -1.32903526E+01  -6.79287098E+00  -1.02340711E+01  -1.50488575E+01  -1.50491151E+01  -2.04553979E+01  -1.14387466E+01  -2.03546017E+01  -2.03549013E+01  -2.94042837E+01  -2.97259752E+01
   2.71250000E+02   5.00000000E-01   5.00000000E-01  -6.83455951E+00  -1.46387226E+01  -3.20254843E+00  -1.32728841E+00  -1.93974128E+00  -3.18020509E+00  -1.97398791E+01  -6.71608268E+00  -5.11180872E+00  -2.60952700E-01  -4.16612934E+00  -1.95797806E+00  -1.01496972E+01  -3.32561579E-01  -1.79650669E+00  -7.74343955E+00  -3.39657827E+00  -6.04902847E+00  -4.40757364E+00  -2.76157284E+00  -1.29135078E+01  -1.22622803E+01  -1.06635716E+01  -1.30946385E+01  -8.75318339E+00  -8.18223522E+00  -1.07639798E+01  -1.37897291E+01  -2.38637387E+00  -5.22173506E+00  -3.13744258E+00  -4.19485346E+00  -8.22684402E+00  -2.88722287E+00  -4.24673773E+00  -6.53429011E+00  -6.18767289E+00  -3.99711314E+00  -6.87848017E+00  -1.36319727E+02  -1.03495136E+01  -6.37679612E+00  -1.14058599E+01  -1.13978625E+01  -7.33710382E+00  -3.19575396E+00  -9.75603301E+00  -3.67254900E+00  -5.83341139E+01  -1.21787238E+01  -8.39014447E+00  -1.97878966E+00  -4.22869771E+01  -6.60758666E+00  -8.16851266E+00  -4.62730889E+00  -7.47010801E+00  -7.07979524E+00  -7.91894336E+00  -8.03006444E+00  -1.04618749E+01  -9.01412169E+00  -7.00172994E+00  -6.32238240E+00  -1.19816945E+01  -6.14178079E+00  -1.32243308E+01  -6.77576340E+00  -1.02217590E+01  -1.50275395E+01  -1.50277972E+01  -2.04280726E+01  -1.14127993E+01  -2.03277803E+01  -2.03280790E+01  -2.93406969E+01  -2.96114818E+01
   2.88750000E+02   5.00000000E-01   5.00000000E-01  -6.79773930E+00  -1.46218093E+01  -3.17752268E+00  -1.32949448E+00  -1.93378874E+00  -3.15535741E+00  -1.96839443E+01  -6.71635929E+00  -5.11246667E+00  -2.60799396E-01  -4.16595349E+00  -1.95829114E+00  -1.01526671E+01  -3.32334310E-01  -1.79539176E+00  -7.74326832E+00  -3.39640242E+00  -6.06140492E+00  -4.40739779E+00  -2.74433451E+00  -1.28621257E+01  -1.22236536E+01  -1.06379873E+01  -1.30719194E+01  -8.74060556E+00  -8.17228256E+00  -1.07786784E+01  -1.37515242E+01  -2.39005649E+00  -5.24832796E+00  -3.12615326E+00  -4.19521343E+00  -8.19128887E+00  -2.87898825E+00  -4.20405631E+00  -6.50207497E+00  -6.15238515E+00  -3.96641986E+00  -6.86644990E+00  -1.35500589E+02  -1.03353381E+01  -6.35673308E+00  -1.13418114E+01  -1.13672881E+01  -7.28086828E+00  -3.19295676E+00  -9.73570303E+00  -3.67068263E+00  -5.79609610E+01  -1.21451454E+01  -8.38033947E+00  -1.98139529E+00  -4.20471664E+01  -6.60431980E+00  -8.18324686E+00  -4.63172348E+00  -7.42644176E+00  -7.07315577E+00  -7.94860707E+00  -8.01966000E+00  -1.04962123E+01  -9.02487127E+00  -6.98522226E+00  -6.31756473E+00  -1.19482599E+01  -6.13805645E+00  -1.31599899E+01  -6.75886011E+00  -1.02097671E+01  -1.50066878E+01  -1.50069464E+01  -2.04013937E+01  -1.13871592E+01  -2.03016000E+01  -2.03018981E+01  -2.92780051E+01  -2.94977325E+01
   3.06250000E+02   5.00000000E-01   5.00000000E-01  -6.76137818E+00  -1.46055196E+01  -3.15267789E+00  -1.33171645E+00  -1.92793933E+00  -3.13217123E+00  -1.96288204E+01  -6.71664207E+00  -5.11313254E+00  -2.60638370E-01  -4.16576875E+00  -1.95858373E+00  -1.01558532E+01  -3.32102357E-01  -1.79440984E+00  -7.74308820E+00  -3.39621768E+00  -6.07416109E+00  -4.40721305E+00  -2.72721813E+00  -1.28111494E+01  -1.21855509E+01  -1.06128580E+01  -1.30496490E+01  -8.72813130E+00  -8.16219298E+00  -1.07934904E+01  -1.37137775E+01  -2.39395932E+00  -5.27511740E+00  -3.11474086E+00  -4.19510085E+00  -8.15609983E+00  -2.87080587E+00  -4.16291796E+00  -6.47109126E+00  -6.11876235E+00  -3.93733615E+00  -6.85470975E+00  -1.34688971E+02  -1.03212943E+01  -6.33722191E+00  -1.12786734E+01  -1.13370543E+01  -7.22506786E+00  -3.18996859E+00  -9.71556770E+00  -3.66870216E+00  -5.75909259E+01  -1.21118766E+01  -8.37046858E+00  -1.98381129E+00  -4.18094582E+01  -6.60132994E+00  -8.19794588E+00  -4.63768328E+00  -7.38502462E+00  -7.06831009E+00  -7.97958201E+00  -8.00953954E+00  -1.05309037E+01  -9.03578330E+00  -6.96880982E+00  -6.31255330E+00  -1.19151811E+01  -6.13441904E+00  -1.30971103E+01  -6.74223078E+00  -1.01981846E+01  -1.49864365E+01  -1.49866966E+01  -2.03755397E+01  -1.13619674E+01  -2.02762391E+01  -2.02765372E+01  -2.92164788E+01  -2.93846770E+01
   3.23750000E+02   5.00000000E-01   5.00000000E-01  -6.72544651E+00  -1.45896081E+01  -3.12801504E+00  -1.33395497E+00  -1.92218985E+00  -3.11048008E+00  -1.95744253E+01  -6.71693120E+00  -5.11380557E+00  -2.60469851E-01  -4.16557533E+00  -1.95885679E+00  -1.01592644E+01  -3.31865704E-01  -1.79355350E+00  -7.74289940E+00  -3.39602426E+00  -6.08730672E+00  -4.40701963E+00  -2.71025173E+00  -1.27605563E+01  -1.21477757E+01  -1.05880289E+01  -1.30276088E+01  -8.71578613E+00  -8.15197534E+00  -1.08084588E+01  -1.36765041E+01  -2.39809762E+00  -5.30213446E+00  -3.10321233E+00  -4.19453452E+00  -8.12129256E+00  -2.86268040E+00  -4.12316544E+00  -6.44119259E+00  -6.08666218E+00  -3.90970394E+00  -6.84327152E+00  -1.33884728E+02  -1.03073779E+01  -6.31825358E+00  -1.12164148E+01  -1.13069902E+01  -7.16967646E+00  -3.18680046E+00  -9.69564804E+00  -3.66661267E+00  -5.72239514E+01  -1.20787725E+01  -8.36056002E+00  -1.98604421E+00  -4.15738255E+01  -6.59863895E+00  -8.21266039E+00  -4.64507057E+00  -7.34568023E+00  -7.06511143E+00  -8.01175167E+00  -7.99972766E+00  -1.05659750E+01  -9.04689957E+00  -6.95251840E+00  -6.30735743E+00  -1.18824748E+01  -6.13087383E+00  -1.30354727E+01  -6.72595079E+00  -1.01871064E+01  -1.49669286E+01  -1.49671910E+01  -2.03507009E+01  -1.13373764E+01  -2.02518878E+01  -2.02521865E+01  -2.91564062E+01  -2.92722658E+01
   3.41250000E+02   5.00000000E-01   5.00000000E-01  -6.68991846E+00  -1.45738615E+01  -3.10353861E+00  -1.33621064E+00  -1.91653727E+00  -3.09014303E+00  -1.95206884E+01  -6.71722685E+00  -5.11448499E+00  -2.60294056E-01  -4.16537344E+00  -1.95911143E+00  -1.01629088E+01  -3.31624338E-01  -1.79281579E+00  -7.74270213E+00  -3.39582237E+00  -6.10084974E+00  -4.40681774E+00  -2.69346254E+00  -1.27103274E+01  -1.21101562E+01  -1.05633629E+01  -1.30056089E+01  -8.70359529E+00  -8.14163803E+00  -1.08236228E+01  -1.36397155E+01  -2.40248689E+00  -5.32940718E+00  -3.09157432E+00  -4.19353237E+00  -8.08687921E+00  -2.85461628E+00  -4.08466659E+00  -6.41225712E+00  -6.05596404E+00  -3.88339029E+00  -6.83214382E+00  -1.33087723E+02  -1.02935867E+01  -6.29982065E+00  -1.11550091E+01  -1.12769461E+01  -7.11467175E+00  -3.18346302E+00  -9.67596154E+00  -3.66441933E+00  -5.68599842E+01  -1.20457050E+01  -8.35063796E+00  -1.98810047E+00  -4.13402418E+01  -6.59626618E+00  -8.22743466E+00  -4.65378919E+00  -7.30825937E+00  -7.06343629E+00  -8.04501899E+00  -7.99024644E+00  -1.06014470E+01  -9.05825808E+00  -6.93637344E+00  -6.30198594E+00  -1.18501544E+01  -6.12742573E+00  -1.29748868E+01  -6.71009031E+00  -1.01766187E+01  -1.49482936E+01  -1.49485592E+01  -2.03270496E+01  -1.13135282E+01  -2.02287186E+01  -2.02290188E+01  -2.90980486E+01  -2.91604619E+01