 TITLE = "Total Concentrations" 
VARIABLES = "X"          "Y"              "Z"            "H+"             "Al+++"          "CO2(aq)"        "Mg++"           "Ca++"           "Fe++"           "Fe+++"          "Ba++"           "Sr++"           "Cl-"            "F-"             "K+"             "Na+"            "SO4--"          "O2(aq)"         "B(OH)3(aq)"     "HPO4--"         "NO3-"           "H4SiO4(aq)"     "HNO3(aq)"       "Al(OH)2+"       "AlO2-"          "AlOH++"         "BaHCO3+"        "BaCl+"          "BaCO3(aq)"      "BaOH+"          "HCO3-"          "CO3--"          "CaCl+"          "CaCl2(aq)"      "CaOH+"          "CaSO4(aq)"      "FeCl+"          "FeCl2(aq)"      "FeOH+"          "FeSO4(aq)"      "OH-"            "HS-"            "S2O3--"         "H2PO4-"         "H3PO4(aq)"      "HAlO2(aq)"      "HSO4-"          "KCl(aq)"        "KOH(aq)"        "KSO4-"          "NH3(aq)"        "NaAlO2(aq)"     "NaOH(aq)"       "NaSO4-"         "H2(aq)"         "CaHPO4(aq)"     "CaPO4-"         "FeCO3(aq)"      "FeH2PO4+"       "FeHPO4(aq)"     "FePO4-"         "KHPO4-"         "PO4---"         "Sr(CO3)(aq)"    "SrHCO3+"        "SrCl+"          "SrOH+"          "SrSO4(aq)"      "AlH3SiO4++"     "Si2O2(OH)5-"    "Si2O3(OH)4--"   "Si3O5(OH)5---"  "Si3O6(OH)3---"  "Si4O12H4----"   "Si4O6(OH)6--"   "Si4O7(OH)6----" "Si4O8(OH)4----" "Si6O15------"   "SiF6--"        
 ZONE I=         100 , J=           1 , K=           1  F=POINT
   1.75000000E+01   5.00000000E-01   5.00000000E-01  -7.62636761E+00  -1.50775285E+01  -3.76579330E+00  -1.29273199E+00  -1.55127267E+00  -4.73012163E+00  -1.41789881E+01  -6.71217932E+00  -5.12276424E+00  -2.63162779E-01  -4.16749098E+00  -1.95717568E+00  -3.43677801E-01  -1.58025433E+00  -3.74472739E+00  -3.39793991E+00  -5.98548466E+00  -4.40893528E+00  -3.56442849E+00  -1.39174264E+01  -1.26462438E+01  -1.04766790E+01  -1.34122156E+01  -8.93763740E+00  -8.31924402E+00  -1.03712098E+01  -1.42381693E+01  -2.34171849E+00  -4.64364571E+00  -2.80391588E+00  -3.65019551E+00  -8.13136876E+00  -2.29408884E+00  -6.05015665E+00  -8.14930304E+00  -7.71199759E+00  -5.39463713E+00  -6.91125970E+00  -1.52841709E+02  -1.57313734E+02  -7.00958883E+00  -1.29257418E+01  -1.14605990E+01  -8.16786236E+00  -3.22640058E+00  -9.91177108E+00  -3.45050383E+00  -7.24650869E+01  -1.21035470E+01  -8.35322809E+00  -1.68117252E+00  -4.81183293E+01  -6.29101082E+00  -7.34913445E+00  -5.53493584E+00  -9.64735442E+00  -8.47149306E+00  -8.51553135E+00  -8.30266208E+00  -9.86816007E+00  -8.70613843E+00  -7.26284453E+00  -6.39583846E+00  -1.23656193E+01  -5.99832994E+00  -1.48266444E+01  -7.92605082E+00  -1.11218112E+01  -1.64047245E+01  -1.64049663E+01  -2.22720413E+01  -1.35721091E+01  -2.21637684E+01  -2.21640364E+01  -3.23308791E+01  -3.26400486E+01
   5.25000000E+01   5.00000000E-01   5.00000000E-01  -7.51528831E+00  -1.49090412E+01  -3.68444380E+00  -1.29336178E+00  -1.43738852E+00  -4.43146315E+00  -1.41660224E+01  -6.71229766E+00  -5.13132106E+00  -2.63573222E-01  -4.16747746E+00  -1.95981506E+00  -3.46660624E-01  -1.49536437E+00  -3.74471387E+00  -3.39792639E+00  -6.02799374E+00  -4.40892176E+00  -3.45711885E+00  -1.37929592E+01  -1.25590170E+01  -1.05109564E+01  -1.32931025E+01  -8.92760719E+00  -8.31569713E+00  -1.04518090E+01  -1.42320395E+01  -2.34487664E+00  -4.72387834E+00  -2.69374180E+00  -3.56994031E+00  -8.02648802E+00  -2.11262725E+00  -5.73617970E+00  -7.86273433E+00  -7.45412014E+00  -5.02375046E+00  -6.93816065E+00  -1.51497635E+02  -1.55799811E+02  -6.95963338E+00  -1.27615188E+01  -1.14435645E+01  -7.95729135E+00  -3.23595862E+00  -9.93792352E+00  -3.37995392E+00  -7.18550856E+01  -1.21394210E+01  -8.40093629E+00  -1.61968559E+00  -4.77547393E+01  -6.22593108E+00  -7.36370972E+00  -5.34109028E+00  -9.30281290E+00  -8.24203185E+00  -8.39384433E+00  -8.32762368E+00  -9.98234332E+00  -8.78839972E+00  -7.25589786E+00  -6.40851408E+00  -1.23763657E+01  -5.93471419E+00  -1.45418822E+01  -7.77931478E+00  -1.10264200E+01  -1.62525551E+01  -1.62528064E+01  -2.20789946E+01  -1.32888409E+01  -2.19714840E+01  -2.19717666E+01  -3.19707674E+01  -3.21860353E+01
   8.75000000E+01   5.00000000E-01   5.00000000E-01  -7.43119875E+00  -1.48090594E+01  -3.62588264E+00  -1.29390562E+00  -1.41751786E+00  -4.25358883E+00  -1.40430315E+01  -6.71254746E+00  -5.13381794E+00  -2.63604758E-01  -4.16743786E+00  -1.96079763E+00  -3.46849677E-01  -1.47554217E+00  -3.74467428E+00  -3.39788680E+00  -6.04155242E+00  -4.40888217E+00  -3.39695498E+00  -1.36922459E+01  -1.24843108E+01  -1.05054623E+01  -1.32149452E+01  -8.91321955E+00  -8.30736562E+00  -1.04993241E+01  -1.41978820E+01  -2.34760907E+00  -4.78119838E+00  -2.67331719E+00  -3.57432540E+00  -7.98784281E+00  -2.07983765E+00  -5.53894010E+00  -7.68789408E+00  -7.28860880E+00  -4.82828370E+00  -6.94049018E+00  -1.50252204E+02  -1.54474180E+02  -6.90291815E+00  -1.26147236E+01  -1.14096897E+01  -7.83442337E+00  -3.23863957E+00  -9.93345840E+00  -3.36699189E+00  -7.12704624E+01  -1.21287300E+01  -8.41661476E+00  -1.61460017E+00  -4.73925089E+01  -6.21546885E+00  -7.40874081E+00  -5.23505652E+00  -9.06979883E+00  -8.09413119E+00  -8.32921623E+00  -8.31629344E+00  -1.00484016E+01  -8.83147561E+00  -7.23834106E+00  -6.41006252E+00  -1.23526152E+01  -5.91913662E+00  -1.43499530E+01  -7.70578519E+00  -1.09813825E+01  -1.61802499E+01  -1.61805075E+01  -2.19855317E+01  -1.31541027E+01  -2.18787767E+01  -2.18790697E+01  -3.17927783E+01  -3.18859202E+01
   1.22500000E+02   5.00000000E-01   5.00000000E-01  -7.35797209E+00  -1.47245743E+01  -3.57606859E+00  -1.29440367E+00  -1.41983656E+00  -4.12616277E+00  -1.39244764E+01  -6.71283646E+00  -5.13466468E+00  -2.63518929E-01  -4.16737367E+00  -1.96130920E+00  -3.46288959E-01  -1.47243948E+00  -3.74461008E+00  -3.39782260E+00  -6.04827727E+00  -4.40881797E+00  -3.35584137E+00  -1.36012484E+01  -1.24040435E+01  -1.04745921E+01  -1.31416671E+01  -8.89726224E+00  -8.29732087E+00  -1.05347565E+01  -1.41540222E+01  -2.35025705E+00  -4.82968700E+00  -2.67337713E+00  -3.59705341E+00  -7.96143131E+00  -2.08243813E+00  -5.39065911E+00  -7.55996757E+00  -7.16296913E+00  -4.69644572E+00  -6.93395962E+00  -1.49046359E+02  -1.53214342E+02  -6.84828190E+00  -1.24797844E+01  -1.13591396E+01  -7.73747259E+00  -3.23893910E+00  -9.91813859E+00  -3.36809716E+00  -7.07001306E+01  -1.20903823E+01  -8.42054806E+00  -1.62312214E+00  -4.70338508E+01  -6.21680633E+00  -7.45569532E+00  -5.16700611E+00  -8.88869024E+00  -7.98642804E+00  -8.29457185E+00  -8.29563524E+00  -1.00997952E+01  -8.86086932E+00  -7.21746907E+00  -6.40806232E+00  -1.23172053E+01  -5.91515314E+00  -1.41850429E+01  -7.66199202E+00  -1.09573245E+01  -1.61406049E+01  -1.61408662E+01  -2.19337164E+01  -1.30792745E+01  -2.18277096E+01  -2.18280096E+01  -3.16862856E+01  -3.16455110E+01
   1.57500000E+02   5.00000000E-01   5.00000000E-01  -7.29053792E+00  -1.46463192E+01  -3.53061545E+00  -1.29487284E+00  -1.42764791E+00  -4.02710017E+00  -1.38220659E+01  -6.71313889E+00  -5.13511684E+00  -2.63391476E-01  -4.16728619E+00  -1.96170790E+00  -3.45562481E-01  -1.47377931E+00  -3.74452260E+00  -3.39773512E+00  -6.05381340E+00  -4.40873049E+00  -3.32429552E+00  -1.35155275E+01  -1.23198563E+01  -1.04301664E+01  -1.30693069E+01  -8.88060364E+00  -8.28647287E+00  -1.05646384E+01  -1.41061446E+01  -2.35295591E+00  -4.87382829E+00  -2.67798775E+00  -3.62308726E+00  -7.93610261E+00  -2.09350365E+00  -5.27001275E+00  -7.45852421E+00  -7.06068055E+00  -4.59592585E+00  -6.92348856E+00  -1.47864180E+02  -1.51987348E+02  -6.79714928E+00  -1.23535771E+01  -1.12992509E+01  -7.64989644E+00  -3.23820915E+00  -9.89810300E+00  -3.37243565E+00  -7.01404695E+01  -1.20375313E+01  -8.41902529E+00  -1.63461062E+00  -4.66793775E+01  -6.22093995E+00  -7.50010548E+00  -5.12125676E+00  -8.73935727E+00  -7.90449991E+00  -8.28002710E+00  -8.27275500E+00  -1.01458231E+01  -8.88439424E+00  -7.19543651E+00  -6.40470969E+00  -1.22771116E+01  -5.91396336E+00  -1.40331395E+01  -7.63301104E+00  -1.09437919E+01  -1.61170243E+01  -1.61172874E+01  -2.19028773E+01  -1.30340182E+01  -2.17976110E+01  -2.17979151E+01  -3.16133961E+01  -3.14346122E+01
   1.92500000E+02   5.00000000E-01   5.00000000E-01  -7.22671301E+00  -1.45714624E+01  -3.48759767E+00  -1.29532264E+00  -1.43707304E+00  -3.94624011E+00  -1.37327141E+01  -6.71344902E+00  -5.13547557E+00  -2.63240902E-01  -4.16717662E+00  -1.96208424E+00  -3.44806666E-01  -1.47664118E+00  -3.74441303E+00  -3.39762555E+00  -6.05950625E+00  -4.40862092E+00  -3.29817197E+00  -1.34330778E+01  -1.22334504E+01  -1.03782174E+01  -1.29972694E+01  -8.86353587E+00  -8.27507063E+00  -1.05915592E+01  -1.40565494E+01  -2.35578652E+00  -4.91567124E+00  -2.68348618E+00  -3.64901669E+00  -7.91025318E+00  -2.10678464E+00  -5.16705396E+00  -7.37386625E+00  -6.97387516E+00  -4.51419470E+00  -6.91117608E+00  -1.46700732E+02  -1.50783271E+02  -6.74892163E+00  -1.22334707E+01  -1.12340519E+01  -7.56682093E+00  -3.23681288E+00  -9.87577807E+00  -3.37747701E+00  -6.95895971E+01  -1.19765594E+01  -8.41452377E+00  -1.64657950E+00  -4.63291805E+01  -6.22588552E+00  -7.54204036E+00  -5.09022039E+00  -8.61116629E+00  -7.84005208E+00  -8.27934323E+00  -8.24940453E+00  -1.01896310E+01  -8.90494627E+00  -7.17284696E+00  -6.40056519E+00  -1.22349503E+01  -5.91353580E+00  -1.38892866E+01  -7.61245926E+00  -1.09364164E+01  -1.61027341E+01  -1.61029974E+01  -2.18843361E+01  -1.30054525E+01  -2.17798022E+01  -2.17801083E+01  -3.15594244E+01  -3.12403591E+01
   2.27500000E+02   5.00000000E-01   5.00000000E-01  -7.16539663E+00  -1.44989161E+01  -3.44605676E+00  -1.29575922E+00  -1.44719139E+00  -3.87804296E+00  -1.36523954E+01  -6.71376613E+00  -5.13581018E+00  -2.63071930E-01  -4.16704603E+00  -1.96246196E+00  -3.44051615E-01  -1.48030488E+00  -3.74428244E+00  -3.39749496E+00  -6.06569711E+00  -4.40849033E+00  -3.27537228E+00  -1.33528642E+01  -1.21459588E+01  -1.03220270E+01  -1.29255761E+01  -8.84619965E+00  -8.26320129E+00  -1.06167579E+01  -1.40063335E+01  -2.35880671E+00  -4.95628420E+00  -2.68903368E+00  -3.67409720E+00  -7.88406211E+00  -2.12082219E+00  -5.07632281E+00  -7.30062487E+00  -6.89813005E+00  -4.44517644E+00  -6.89805610E+00  -1.45554061E+02  -1.49598393E+02  -6.70292865E+00  -1.21177531E+01  -1.11658029E+01  -7.48651337E+00  -3.23486952E+00  -9.85230470E+00  -3.38263156E+00  -6.90464335E+01  -1.19108602E+01  -8.40821428E+00  -1.65845109E+00  -4.59832246E+01  -6.23124523E+00  -7.58217075E+00  -5.06960686E+00  -8.49793581E+00  -7.78804141E+00  -8.28854867E+00  -8.22607034E+00  -1.02325313E+01  -8.92383422E+00  -7.14991556E+00  -6.39579052E+00  -1.21918975E+01  -5.91340686E+00  -1.37512818E+01  -7.59715003E+00  -1.09330485E+01  -1.60944574E+01  -1.60947199E+01  -2.18738090E+01  -1.29871803E+01  -2.17699989E+01  -2.17703053E+01  -3.15175469E+01  -3.10563709E+01
   2.62500000E+02   5.00000000E-01   5.00000000E-01  -7.10597747E+00  -1.44281917E+01  -3.40548847E+00  -1.29618698E+00  -1.45777254E+00  -3.81916675E+00  -1.35781814E+01  -6.71409071E+00  -5.13613570E+00  -2.62886075E-01  -4.16689539E+00  -1.96284819E+00  -3.43303304E-01  -1.48456518E+00  -3.74413180E+00  -3.39734432E+00  -6.07249305E+00  -4.40833969E+00  -3.25473470E+00  -1.32743136E+01  -1.20581006E+01  -1.02634827E+01  -1.28543478E+01  -8.82869213E+00  -8.25091246E+00  -1.06409147E+01  -1.39560774E+01  -2.36206284E+00  -4.99626590E+00  -2.69444839E+00  -3.69820229E+00  -7.85788783E+00  -2.13527290E+00  -4.99452378E+00  -7.23555684E+00  -6.83070852E+00  -4.38541817E+00  -6.88467936E+00  -1.44423147E+02  -1.48430927E+02  -6.65871826E+00  -1.20053973E+01  -1.10958334E+01  -7.40821029E+00  -3.23243845E+00  -9.82828631E+00  -3.38776070E+00  -6.85103227E+01  -1.18423757E+01  -8.40072567E+00  -1.67009274E+00  -4.56414459E+01  -6.23698761E+00  -7.62106713E+00  -5.05677027E+00  -8.39587743E+00  -7.74530086E+00  -8.30508129E+00  -8.20293933E+00  -1.02751737E+01  -8.94175233E+00  -7.12675813E+00  -6.39045217E+00  -1.21485565E+01  -5.91347645E+00  -1.36179833E+01  -7.58532461E+00  -1.09325025E+01  -1.60904026E+01  -1.60906637E+01  -2.18689290E+01  -1.29756814E+01  -2.17658342E+01  -2.17661396E+01  -3.14841134E+01  -3.08791794E+01
   2.97500000E+02   5.00000000E-01   5.00000000E-01  -7.04809281E+00  -1.43590416E+01  -3.36562341E+00  -1.29660930E+00  -1.46874733E+00  -3.76744581E+00  -1.35081598E+01  -6.71442351E+00  -5.13645471E+00  -2.62684093E-01  -4.16672557E+00  -1.96324564E+00  -3.42562356E-01  -1.48933870E+00  -3.74396198E+00  -3.39717450E+00  -6.07994518E+00  -4.40816987E+00  -3.23557707E+00  -1.31970932E+01  -1.19703313E+01  -1.02037117E+01  -1.27836949E+01  -8.81109499E+00  -8.23824083E+00  -1.06644409E+01  -1.39061071E+01  -2.36559528E+00  -5.03596979E+00  -2.69970027E+00  -3.72134638E+00  -7.83199711E+00  -2.15005244E+00  -4.91952811E+00  -7.17657491E+00  -6.76979661E+00  -4.33274088E+00  -6.87135165E+00  -1.43307330E+02  -1.47279805E+02  -6.61602063E+00  -1.18958002E+01  -1.10249543E+01  -7.33150847E+00  -3.22956272E+00  -9.80406647E+00  -3.39283017E+00  -6.79808422E+01  -1.17722733E+01  -8.39242566E+00  -1.68147531E+00  -4.53037753E+01  -6.24316255E+00  -7.65913788E+00  -5.04997273E+00  -8.30255607E+00  -7.70976164E+00  -8.32723395E+00  -8.18012361E+00  -1.03179199E+01  -8.95911317E+00  -7.10346211E+00  -6.38459284E+00  -1.21052637E+01  -5.91372810E+00  -1.34887273E+01  -7.57594586E+00  -1.09340724E+01  -1.60895064E+01  -1.60897660E+01  -2.18682862E+01  -1.29688837E+01  -2.17658976E+01  -2.17662015E+01  -3.14569779E+01  -3.07067877E+01
   3.32500000E+02   5.00000000E-01   5.00000000E-01  -6.99151621E+00  -1.42913263E+01  -3.32632154E+00  -1.29702893E+00  -1.48008443E+00  -3.72139824E+00  -1.34411090E+01  -6.71476531E+00  -5.13676707E+00  -2.62466540E-01  -4.16653737E+00  -1.96365555E+00  -3.41828261E-01  -1.49457250E+00  -3.74377378E+00  -3.39698630E+00  -6.08809015E+00  -4.40798167E+00  -3.21748177E+00  -1.31210035E+01  -1.18829403E+01  -1.01434052E+01  -1.27136996E+01  -8.79348257E+00  -8.22521889E+00  -1.06876038E+01  -1.38566120E+01  -2.36944120E+00  -5.07561399E+00  -2.70479316E+00  -3.74357340E+00  -7.80655770E+00  -2.16513586E+00  -4.84988694E+00  -7.12226747E+00  -6.71412676E+00  -4.28567087E+00  -6.85824538E+00  -1.42206115E+02  -1.46144292E+02  -6.57468367E+00  -1.17886097E+01  -1.09536734E+01  -7.25616715E+00  -3.22627942E+00  -9.77984977E+00  -3.39782965E+00  -6.74577023E+01  -1.17012788E+01  -8.38354210E+00  -1.69259372E+00  -4.49701435E+01  -6.24983454E+00  -7.69667085E+00  -5.04801611E+00  -8.21633692E+00  -7.68001747E+00  -8.35382695E+00  -8.15771305E+00  -1.03609865E+01  -8.97618283E+00  -7.08010465E+00  -6.37824812E+00  -1.20622154E+01  -5.91416386E+00  -1.33630911E+01  -7.56837278E+00  -1.09373141E+01  -1.60911009E+01  -1.60913592E+01  -2.18709940E+01  -1.29655085E+01  -2.17693024E+01  -2.17696043E+01  -3.14347957E+01  -3.05380017E+01
   3.67500000E+02   5.00000000E-01   5.00000000E-01  -6.93609996E+00  -1.42249600E+01  -3.28751715E+00  -1.29744821E+00  -1.49176184E+00  -3.67996583E+00  -1.33762450E+01  -6.71511683E+00  -5.13707214E+00  -2.62233902E-01  -4.16633151E+00  -1.96407857E+00  -3.41100300E-01  -1.50022290E+00  -3.74356793E+00  -3.39678045E+00  -6.09695985E+00  -4.40777582E+00  -3.20018460E+00  -1.30459210E+01  -1.17961132E+01  -1.00829951E+01  -1.26444182E+01  -8.77592483E+00  -8.21187651E+00  -1.07105889E+01  -1.38077033E+01  -2.37363625E+00  -5.11533913E+00  -2.70973771E+00  -3.76493132E+00  -7.78166831E+00  -2.18051169E+00  -4.78457249E+00  -7.07164132E+00  -6.66277609E+00  -4.24316210E+00  -6.84545685E+00  -1.41119100E+02  -1.45023828E+02  -6.53462658E+00  -1.16836218E+01  -1.08823150E+01  -7.18203076E+00  -3.22262226E+00  -9.75576152E+00  -3.40275439E+00  -6.69406912E+01  -1.16298558E+01  -8.37422272E+00  -1.70344861E+00  -4.46404821E+01  -6.25706752E+00  -7.73387483E+00  -5.05004315E+00  -8.13607991E+00  -7.65507756E+00  -8.38401768E+00  -8.13578785E+00  -1.04045095E+01  -8.99314473E+00  -7.05675785E+00  -6.37145038E+00  -1.20195290E+01  -5.91478937E+00  -1.32407840E+01  -7.56219408E+00  -1.09419355E+01  -1.60947469E+01  -1.60950045E+01  -2.18764699E+01  -1.29647365E+01  -2.17754658E+01  -2.17757659E+01  -3.14166825E+01  -3.03720878E+01
   4.02500000E+02   5.00000000E-01   5.00000000E-01  -6.88174353E+00  -1.41598852E+01  -3.24918855E+00  -1.29786916E+00  -1.50376043E+00  -3.64236656E+00  -1.33130577E+01  -6.71547872E+00  -5.13736928E+00  -2.61986628E-01  -4.16610866E+00  -1.96451503E+00  -3.40377744E-01  -1.50625061E+00  -3.74334508E+00  -3.39655760E+00  -6.10658360E+00  -4.40755297E+00  -3.18351350E+00  -1.29717680E+01  -1.17099693E+01  -1.00227547E+01  -1.25758881E+01  -8.75848859E+00  -8.19824139E+00  -1.07335325E+01  -1.37594457E+01  -2.37821541E+00  -5.15524046E+00  -2.71454525E+00  -3.78546651E+00  -7.75738387E+00  -2.19617152E+00  -4.72283101E+00  -7.02397509E+00  -6.61505079E+00  -4.20444483E+00  -6.83303767E+00  -1.40045936E+02  -1.43917960E+02  -6.49581102E+00  -1.15807202E+01  -1.08110907E+01  -7.10899289E+00  -3.21862233E+00  -9.73187985E+00  -3.40760112E+00  -6.64296443E+01  -1.15583070E+01  -8.36456712E+00  -1.71404210E+00  -4.43147241E+01  -6.26492165E+00  -7.77090767E+00  -5.05542306E+00  -8.06096353E+00  -7.63422235E+00  -8.41718769E+00  -8.11442164E+00  -1.04485781E+01  -9.01013320E+00  -7.03349055E+00  -6.36422975E+00  -1.19772752E+01  -5.91561049E+00  -1.31215920E+01  -7.55713676E+00  -1.09477369E+01  -1.61001436E+01  -1.61004013E+01  -2.18843152E+01  -1.29660249E+01  -2.17839891E+01  -2.17842878E+01  -3.14020317E+01  -3.02085861E+01
   4.37500000E+02   5.00000000E-01   5.00000000E-01  -6.82837536E+00  -1.40960595E+01  -3.21134054E+00  -1.29829359E+00  -1.51606253E+00  -3.60800627E+00  -1.32512082E+01  -6.71585157E+00  -5.13765789E+00  -2.61725132E-01  -4.16586942E+00  -1.96496505E+00  -3.39659891E-01  -1.51261941E+00  -3.74310584E+00  -3.39631835E+00  -6.11698860E+00  -4.40731373E+00  -3.16735299E+00  -1.28984937E+01  -1.16245859E+01  -9.96285934E+00  -1.25081331E+01  -8.74123832E+00  -8.18433922E+00  -1.07565406E+01  -1.37118758E+01  -2.38321357E+00  -5.19538646E+00  -2.71922659E+00  -3.80522264E+00  -7.73373236E+00  -2.21210766E+00  -4.66409464E+00  -6.97873123E+00  -6.57041599E+00  -4.16893636E+00  -6.82101282E+00  -1.38986310E+02  -1.42826298E+02  -6.45822348E+00  -1.14798407E+01  -1.07401409E+01  -7.03697694E+00  -3.21430842E+00  -9.70825412E+00  -3.41236708E+00  -6.59244260E+01  -1.14868351E+01  -8.35464514E+00  -1.72437687E+00  -4.39928036E+01  -6.27345268E+00  -7.80789388E+00  -5.06368215E+00  -7.99037889E+00  -7.61691580E+00  -8.45287319E+00  -8.09368234E+00  -1.04932526E+01  -9.02725249E+00  -7.01036923E+00  -6.35661435E+00  -1.19354964E+01  -5.91663249E+00  -1.30053477E+01  -7.55301310E+00  -1.09545756E+01  -1.61070760E+01  -1.61073349E+01  -2.18942457E+01  -1.29690017E+01  -2.17945878E+01  -2.17948858E+01  -3.13904089E+01  -3.00472020E+01
   4.72500000E+02   5.00000000E-01   5.00000000E-01  -6.77594190E+00  -1.40334496E+01  -3.17399397E+00  -1.29872310E+00  -1.52865157E+00  -3.57642304E+00  -1.31904649E+01  -6.71623587E+00  -5.13793751E+00  -2.61449802E-01  -4.16561434E+00  -1.96542862E+00  -3.38946070E-01  -1.51929577E+00  -3.74285075E+00  -3.39606327E+00  -6.12819992E+00  -4.40705864E+00  -3.15162280E+00  -1.28260637E+01  -1.15400131E+01  -9.90342310E+00  -1.24411678E+01  -8.72423654E+00  -8.17019384E+00  -1.07797004E+01  -1.36650130E+01  -2.38866585E+00  -5.23582989E+00  -2.72379179E+00  -3.82424066E+00  -7.71072538E+00  -2.22831273E+00  -4.60792587E+00  -6.93550065E+00  -6.52845106E+00  -4.13618532E+00  -6.80939145E+00  -1.37939934E+02  -1.41748497E+02  -6.42186439E+00  -1.13809497E+01  -1.06695611E+01  -6.96592496E+00  -3.20970723E+00  -9.68491589E+00  -3.41704988E+00  -6.54249188E+01  -1.14155797E+01  -8.34450790E+00  -1.73445582E+00  -4.36746561E+01  -6.28271184E+00  -7.84493541E+00  -5.07445957E+00  -7.92386332E+00  -7.60274993E+00  -8.49072044E+00  -8.07363239E+00  -1.05385753E+01  -9.04458812E+00  -6.98745838E+00  -6.34863047E+00  -1.18942179E+01  -5.91785993E+00  -1.28919128E+01  -7.54968881E+00  -1.09623450E+01  -1.61153835E+01  -1.61156449E+01  -2.19060493E+01  -1.29734014E+01  -2.18070498E+01  -2.18073482E+01  -3.13814893E+01  -2.98877417E+01
   5.07500000E+02   5.00000000E-01   5.00000000E-01  -6.72440091E+00  -1.39720268E+01  -3.13717923E+00  -1.29915912E+00  -1.54151204E+00  -3.54725086E+00  -1.31306643E+01  -6.71663202E+00  -5.13820768E+00  -2.61160999E-01  -4.16534391E+00  -1.96590564E+00  -3.38235643E-01  -1.52624861E+00  -3.74258033E+00  -3.39579285E+00  -6.14024023E+00  -4.40678822E+00  -3.13626471E+00  -1.27544536E+01  -1.14562837E+01  -9.84452166E+00  -1.23749998E+01  -8.70754409E+00  -8.15582729E+00  -1.08030873E+01  -1.36188658E+01  -2.39460772E+00  -5.27661462E+00  -2.72825020E+00  -3.84255894E+00  -7.68836482E+00  -2.24477945E+00  -4.55398138E+00  -6.89396663E+00  -6.48882007E+00  -4.10583524E+00  -6.79817353E+00  -1.36906537E+02  -1.40684241E+02  -6.38674138E+00  -1.12840305E+01  -1.05994178E+01  -6.89579079E+00  -3.20484354E+00  -9.66188571E+00  -3.42164738E+00  -6.49310165E+01  -1.13446397E+01  -8.33419455E+00  -1.74428204E+00  -4.33602181E+01  -6.29274577E+00  -7.88211830E+00  -5.08747794E+00  -7.86105718E+00  -7.59140837E+00  -8.53045610E+00  -8.05432878E+00  -1.05845768E+01  -9.06221386E+00  -6.96482086E+00  -6.34030267E+00  -1.18534538E+01  -5.91929658E+00  -1.27811677E+01  -7.54706333E+00  -1.09709618E+01  -1.61249405E+01  -1.61252060E+01  -2.19195603E+01  -1.29790259E+01  -2.18212093E+01  -2.18215094E+01  -3.13750183E+01  -2.97300726E+01
   5.42500000E+02   5.00000000E-01   5.00000000E-01  -6.67371717E+00  -1.39117647E+01  -3.10093218E+00  -1.29960289E+00  -1.55462941E+00  -3.52019501E+00  -1.30716849E+01  -6.71704036E+00  -5.13846805E+00  -2.60859059E-01  -4.16505861E+00  -1.96639592E+00  -3.37528005E-01  -1.53344909E+00  -3.74229502E+00  -3.39550754E+00  -6.15312962E+00  -4.40650292E+00  -3.12123418E+00  -1.26836444E+01  -1.13734185E+01  -9.78620682E+00  -1.23096324E+01  -8.69122034E+00  -8.14125994E+00  -1.08267690E+01  -1.35734368E+01  -2.40107509E+00  -5.31777980E+00  -2.73261054E+00  -3.86021341E+00  -7.66664705E+00  -2.26150072E+00  -4.50198745E+00  -6.85388038E+00  -6.45125140E+00  -4.07760000E+00  -6.78735398E+00  -1.35885860E+02  -1.39633232E+02  -6.35286479E+00  -1.11890750E+01  -1.05297593E+01  -6.82653570E+00  -3.19974030E+00  -9.63917737E+00  -3.42615768E+00  -6.44426205E+01  -1.12740889E+01  -8.32373658E+00  -1.75385872E+00  -4.30494276E+01  -6.30359642E+00  -7.91951686E+00  -5.10252319E+00  -7.80167487E+00  -7.58264166E+00  -8.57186670E+00  -8.03582302E+00  -1.06312801E+01  -9.08019603E+00  -6.94251799E+00  -6.33165381E+00  -1.18132122E+01  -5.92094547E+00  -1.26730047E+01  -7.54505737E+00  -1.09803579E+01  -1.61356440E+01  -1.61359153E+01  -2.19346431E+01  -1.29857197E+01  -2.18369305E+01  -2.18372339E+01  -3.13707870E+01  -2.95740980E+01
   5.77500000E+02   5.00000000E-01   5.00000000E-01  -6.62385978E+00  -1.38526378E+01  -3.06529153E+00  -1.30005549E+00  -1.56799017E+00  -3.49501492E+00  -1.30134311E+01  -6.71746110E+00  -5.13871826E+00  -2.60544297E-01  -4.16475885E+00  -1.96689925E+00  -3.36822583E-01  -1.54087050E+00  -3.74199527E+00  -3.39520779E+00  -6.16688532E+00  -4.40620316E+00  -3.10649501E+00  -1.26136202E+01  -1.12914312E+01  -9.72851578E+00  -1.22450650E+01  -8.67532324E+00  -8.12651060E+00  -1.08508085E+01  -1.35287248E+01  -2.40810425E+00  -5.35936247E+00  -2.73688092E+00  -3.87723775E+00  -7.64556561E+00  -2.27846956E+00  -4.45172298E+00  -6.81504412E+00  -6.41552334E+00  -4.05124670E+00  -6.77692528E+00  -1.34877654E+02  -1.38595190E+02  -6.32024484E+00  -1.10960778E+01  -1.04606220E+01  -6.75812566E+00  -3.19441881E+00  -9.61680070E+00  -3.43057908E+00  -6.39596365E+01  -1.12039845E+01  -8.31316062E+00  -1.76318911E+00  -4.27422236E+01  -6.31530098E+00  -7.95719635E+00  -5.11943019E+00  -7.74548478E+00  -7.57624989E+00  -8.61478410E+00  -8.01816106E+00  -1.06787029E+01  -9.09859633E+00  -6.92060968E+00  -6.32270521E+00  -1.17734974E+01  -5.92280886E+00  -1.25673239E+01  -7.54360493E+00  -1.09904745E+01  -1.61474056E+01  -1.61476847E+01  -2.19511811E+01  -1.29933539E+01  -2.18540970E+01  -2.18544053E+01  -3.13686164E+01  -2.94197413E+01
   6.12500000E+02   5.00000000E-01   5.00000000E-01  -6.57480037E+00  -1.37946200E+01  -3.03029708E+00  -1.30051782E+00  -1.58158173E+00  -3.47151192E+00  -1.29558230E+01  -6.71789440E+00  -5.13895799E+00  -2.60217008E-01  -4.16444503E+00  -1.96741534E+00  -3.36118833E-01  -1.54848805E+00  -3.74168145E+00  -3.39489397E+00  -6.18152147E+00  -4.40588934E+00  -3.09201595E+00  -1.25443664E+01  -1.12103300E+01  -9.67147702E+00  -1.21812940E+01  -8.65990937E+00  -8.11159656E+00  -1.08752661E+01  -1.34847266E+01  -2.41573185E+00  -5.40139918E+00  -2.74106899E+00  -3.89366355E+00  -7.62511297E+00  -2.29567916E+00  -4.40300732E+00  -6.77729900E+00  -6.38145367E+00  -4.02658351E+00  -6.76687920E+00  -1.33881678E+02  -1.37569844E+02  -6.28888971E+00  -1.10050328E+01  -1.03920349E+01  -6.69052948E+00  -3.18889875E+00  -9.59476326E+00  -3.43491004E+00  -6.34819733E+01  -1.11343737E+01  -8.30249023E+00  -1.77227652E+00  -4.24385461E+01  -6.32789177E+00  -7.99521459E+00  -5.13807229E+00  -7.69229518E+00  -7.57207041E+00  -8.65907485E+00  -8.00138325E+00  -1.07268589E+01  -9.11747355E+00  -6.89915440E+00  -6.31347667E+00  -1.17343114E+01  -5.92488826E+00  -1.24640298E+01  -7.54264815E+00  -1.10012594E+01  -1.61601465E+01  -1.61604354E+01  -2.19690704E+01  -1.30018155E+01  -2.18726047E+01  -2.18729197E+01  -3.13683465E+01  -2.92669359E+01
   6.47500000E+02   5.00000000E-01   5.00000000E-01  -6.52651682E+00  -1.37375462E+01  -2.99599236E+00  -1.30099040E+00  -1.59539243E+00  -3.44952041E+00  -1.28990603E+01  -6.71834035E+00  -5.13918692E+00  -2.59877464E-01  -4.16411751E+00  -1.96794452E+00  -3.35416256E-01  -1.55627878E+00  -3.74135392E+00  -3.39456644E+00  -6.19704730E+00  -4.40556181E+00  -3.07779107E+00  -1.24758734E+01  -1.11299720E+01  -9.61495672E+00  -1.21181707E+01  -8.64503292E+00  -8.09653378E+00  -1.09001940E+01  -1.34414335E+01  -2.42399373E+00  -5.44392101E+00  -2.74518191E+00  -3.90952047E+00  -7.60527678E+00  -2.31312283E+00  -4.35569150E+00  -6.74051646E+00  -6.34888704E+00  -4.00345076E+00  -6.75720292E+00  -1.32897703E+02  -1.36556941E+02  -6.25880747E+00  -1.09159390E+01  -1.03238692E+01  -6.62372245E+00  -3.18319899E+00  -9.57306737E+00  -3.43914979E+00  -6.30095461E+01  -1.10651399E+01  -8.29174230E+00  -1.78112428E+00  -4.21383366E+01  -6.34139462E+00  -8.03361666E+00  -5.15834776E+00  -7.64194730E+00  -7.56996722E+00  -8.70462598E+00  -7.98552328E+00  -1.07757525E+01  -9.13687882E+00  -6.87820822E+00  -6.30398660E+00  -1.16956509E+01  -5.92718450E+00  -1.23629098E+01  -7.54217446E+00  -1.10127000E+01  -1.61738474E+01  -1.61741484E+01  -2.19882864E+01  -1.30110823E+01  -2.18924290E+01  -2.18927529E+01  -3.13699375E+01  -2.91156609E+01
   6.82500000E+02   5.00000000E-01   5.00000000E-01  -6.47897259E+00  -1.36819194E+01  -2.96240802E+00  -1.30147417E+00  -1.60941152E+00  -3.42890082E+00  -1.28420916E+01  -6.71879893E+00  -5.13940467E+00  -2.59525925E-01  -4.16377660E+00  -1.96848477E+00  -3.34714333E-01  -1.56422143E+00  -3.74101301E+00  -3.39422553E+00  -6.21347353E+00  -4.40522091E+00  -3.06372272E+00  -1.24081160E+01  -1.10509111E+01  -9.55954824E+00  -1.20562284E+01  -8.63074964E+00  -8.08133681E+00  -1.09256614E+01  -1.33988520E+01  -2.43292883E+00  -5.48697813E+00  -2.74922641E+00  -3.92483633E+00  -7.58606041E+00  -2.33079405E+00  -4.30965129E+00  -6.70459132E+00  -6.31770866E+00  -3.98171404E+00  -6.74789969E+00  -1.31925489E+02  -1.35556206E+02  -6.22999195E+00  -1.08287658E+01  -1.02567079E+01  -6.55766575E+00  -3.17733467E+00  -9.55172776E+00  -3.44329540E+00  -6.25422561E+01  -1.09968921E+01  -8.28094761E+00  -1.78973565E+00  -4.18415374E+01  -6.35583526E+00  -8.07246198E+00  -5.18019733E+00  -7.59429413E+00  -7.56983036E+00  -8.75136497E+00  -7.97061180E+00  -1.08254053E+01  -9.15688012E+00  -6.85782866E+00  -6.29425199E+00  -1.16575272E+01  -5.92969764E+00  -1.22643444E+01  -7.54200300E+00  -1.10246305E+01  -1.61882595E+01  -1.61885747E+01  -2.20084979E+01  -1.30207954E+01  -2.19132388E+01  -2.19135738E+01  -3.13728900E+01  -2.89657411E+01
   7.17500000E+02   5.00000000E-01   5.00000000E-01  -6.43213613E+00  -1.36271838E+01  -2.92957759E+00  -1.30196933E+00  -1.62362907E+00  -3.40953498E+00  -1.27857181E+01  -6.71927004E+00  -5.13961085E+00  -2.59162630E-01  -4.16342262E+00  -1.96903625E+00  -3.34012630E-01  -1.57229629E+00  -3.74065903E+00  -3.39387155E+00  -6.23080647E+00  -4.40486693E+00  -3.04982187E+00  -1.23410732E+01  -1.09726332E+01  -9.50476815E+00  -1.19949373E+01  -8.61711328E+00  -8.06601904E+00  -1.09517314E+01  -1.33569840E+01  -2.44257548E+00  -5.53061650E+00  -2.75320891E+00  -3.93963729E+00  -7.56746359E+00  -2.34868643E+00  -4.26478266E+00  -6.66943737E+00  -6.28782022E+00  -3.96125958E+00  -6.73896926E+00  -1.30964808E+02  -1.34567377E+02  -6.20243631E+00  -1.07434856E+01  -1.01900609E+01  -6.49232570E+00  -3.17132185E+00  -9.53075666E+00  -3.44734618E+00  -6.20800101E+01  -1.09291615E+01  -8.27013162E+00  -1.79811392E+00  -4.15480919E+01  -6.37123369E+00  -8.11179920E+00  -5.20357658E+00  -7.54920946E+00  -7.57156563E+00  -8.79923005E+00  -7.95667518E+00  -1.08758312E+01  -9.17753926E+00  -6.83807116E+00  -6.28428856E+00  -1.16199471E+01  -5.93242710E+00  -1.21677614E+01  -7.54216590E+00  -1.10370937E+01  -1.62034465E+01  -1.62037785E+01  -2.20297910E+01  -1.30310217E+01  -2.19351201E+01  -2.19354685E+01  -3.13773308E+01  -2.88171259E+01