 TITLE = "Total Concentrations" 
VARIABLES = "X"          "Y"              "Z"            "H+"             "Al+++"          "CO2(aq)"        "Mg++"           "Ca++"           "Fe++"           "Fe+++"          "Ba++"           "Sr++"           "Li+"            "Rb+"            "Mn++"           "Zn++"           "Cu++"           "Cu+"            "Cl-"            "F-"             "K+"             "HS-"            "Na+"            "SO4--"          "O2(aq)"         "B(OH)3(aq)"     "HPO4--"         "NO3-"           "H4SiO4(aq)"     "Ti(OH)4(aq)"    "HNO3(aq)"       "Al(OH)2+"       "AlO2-"          "AlOH++"         "BaHCO3+"        "BaCl+"          "BaCO3(aq)"      "BaOH+"          "HCO3-"          "CO3--"          "CaCl+"          "CaCl2(aq)"      "CaOH+"          "CaSO4(aq)"      "FeCl+"          "FeCl2(aq)"      "FeOH+"          "FeSO4(aq)"      "OH-"            "LiCl(aq)"       "LiOH(aq)"       "RbCl(aq)"       "RbOH(aq)"       "S2O3--"         "H2S(aq)"        "H2PO4-"         "H3PO4(aq)"      "HAlO2(aq)"      "HSO4-"          "KCl(aq)"        "KOH(aq)"        "KSO4-"          "NH3(aq)"        "NaAlO2(aq)"     "NaOH(aq)"       "NaSO4-"         "H2(aq)"         "CaHPO4(aq)"     "CaPO4-"         "FeCO3(aq)"      "FeH2PO4+"       "FeHPO4(aq)"     "FePO4-"         "KHPO4-"         "PO4---"         "Sr(CO3)(aq)"    "SrHCO3+"        "SrCl+"          "SrOH+"          "SrSO4(aq)"      "AlH3SiO4++"     "Si2O2(OH)5-"    "Si2O3(OH)4--"   "Si3O5(OH)5---"  "Si3O6(OH)3---"  "Si4O12H4----"   "Si4O6(OH)6--"   "Si4O7(OH)6----" "Si4O8(OH)4----" "Si6O15------"   "SiF6--"        
 ZONE I=         200 , J=           1 , K=           1  F=POINT
   8.75000000E+00   5.00000000E-01   5.00000000E-01  -7.85103791E+00  -1.77855871E+01  -3.97611723E+00  -1.29414187E+00  -2.04413622E+00  -4.43862309E+00  -2.18542814E+01  -6.93757438E+00  -5.10354048E+00  -4.61180998E+00  -5.85969339E+00  -5.23776371E+00  -6.41094207E+00  -8.84705562E+00  -8.91432430E+00  -2.62095223E-01  -4.16749347E+00  -1.95183855E+00  -2.49789827E+01  -3.35548237E-01  -1.83620380E+00  -7.74473464E+00  -3.39794256E+00  -5.87500156E+00  -4.40893793E+00  -3.37171935E+00  -8.67870826E+00  -1.41356356E+01  -1.49122504E+01  -1.23053594E+01  -1.59002725E+01  -9.15033898E+00  -8.53241932E+00  -1.03536635E+01  -1.42446489E+01  -2.33752675E+00  -4.42870855E+00  -3.28604602E+00  -4.11686398E+00  -8.40577981E+00  -3.01325735E+00  -5.75036481E+00  -7.83437678E+00  -7.19795086E+00  -5.33003432E+00  -6.69903501E+00  -6.81008078E+00  -1.13156366E+01  -7.72972490E+00  -1.33411033E+01  -1.50392436E+02  -2.58217037E+01  -7.10995402E+00  -1.32444857E+01  -1.34989142E+01  -8.63955563E+00  -3.20717894E+00  -9.68337402E+00  -3.68503072E+00  -6.47338562E+01  -1.39145969E+01  -8.12075510E+00  -1.91233600E+00  -4.61561957E+01  -6.64514787E+00  -7.48993421E+00  -4.99979153E+00  -9.44799994E+00  -8.03868399E+00  -7.86577786E+00  -8.17482799E+00  -9.55726318E+00  -8.44484313E+00  -7.23160487E+00  -6.36339207E+00  -1.21263845E+01  -6.20357717E+00  -1.71354748E+01  -7.33472192E+00  -1.03217110E+01  -1.52183564E+01  -1.52185967E+01  -2.06689215E+01  -1.23948703E+01  -2.05605510E+01  -2.05608168E+01  -3.00306157E+01  -3.33393605E+01
   2.62500000E+01   5.00000000E-01   5.00000000E-01  -7.61583870E+00  -1.64765027E+01  -3.76401949E+00  -1.29681339E+00  -2.03601338E+00  -4.10352986E+00  -2.12125606E+01  -7.06337306E+00  -5.10391528E+00  -4.61180794E+00  -5.85983805E+00  -4.93692483E+00  -6.15463439E+00  -8.84639567E+00  -8.91500467E+00  -2.62098665E-01  -4.16749087E+00  -1.95178676E+00  -2.59425382E+01  -3.35352041E-01  -1.83175264E+00  -7.74473686E+00  -3.39794013E+00  -5.89041872E+00  -4.40893551E+00  -3.18910906E+00  -8.67746804E+00  -1.38878730E+01  -1.39645729E+01  -1.17521901E+01  -1.47791873E+01  -9.26827907E+00  -8.65154600E+00  -1.06884594E+01  -1.45146695E+01  -2.34271563E+00  -4.64654784E+00  -3.27759652E+00  -4.12714099E+00  -8.55414585E+00  -3.00479571E+00  -5.40072369E+00  -7.50157187E+00  -7.04315028E+00  -4.99114123E+00  -6.87149429E+00  -6.81001327E+00  -1.14917051E+01  -7.71895385E+00  -1.35073762E+01  -1.49065712E+02  -2.65803318E+01  -6.90055139E+00  -1.27954320E+01  -1.27529872E+01  -8.38570874E+00  -3.20817821E+00  -9.84965365E+00  -3.68469192E+00  -6.41190124E+01  -1.33571677E+01  -8.30334936E+00  -1.91858709E+00  -4.58812828E+01  -6.64835151E+00  -7.70725608E+00  -4.89275641E+00  -8.90407653E+00  -7.73007724E+00  -7.79230808E+00  -8.17057136E+00  -9.78449903E+00  -8.64914841E+00  -7.22014289E+00  -6.36292466E+00  -1.22773228E+01  -6.19932211E+00  -1.57898625E+01  -7.17672682E+00  -1.03567402E+01  -1.52683364E+01  -1.52685845E+01  -2.07362306E+01  -1.20888044E+01  -2.06284294E+01  -2.06287070E+01  -3.01106260E+01  -3.22922249E+01
   4.37500000E+01   5.00000000E-01   5.00000000E-01  -7.48855665E+00  -1.59376760E+01  -3.65811276E+00  -1.29933393E+00  -2.02807218E+00  -3.91567280E+00  -2.08939093E+01  -7.11512684E+00  -5.10435542E+00  -4.61179320E+00  -5.85997216E+00  -4.76082995E+00  -5.99451853E+00  -8.84572180E+00  -8.91567128E+00  -2.62088433E-01  -4.16747335E+00  -1.95174266E+00  -2.56064156E+01  -3.35156955E-01  -1.82763296E+00  -7.74472417E+00  -3.39792278E+00  -5.90416292E+00  -4.40891816E+00  -3.06648141E+00  -8.67638143E+00  -1.37478081E+01  -1.35723191E+01  -1.15398056E+01  -1.43207672E+01  -9.31091274E+00  -8.69629236E+00  -1.08407441E+01  -1.46039092E+01  -2.34699255E+00  -4.75627854E+00  -3.26888135E+00  -4.13655419E+00  -8.59569334E+00  -2.99632152E+00  -5.19799249E+00  -7.31513518E+00  -6.92822610E+00  -4.79927693E+00  -6.93714671E+00  -6.80958251E+00  -1.15606325E+01  -7.70812418E+00  -1.35667568E+01  -1.47963000E+02  -2.61463238E+01  -6.79687740E+00  -1.25597565E+01  -1.24549198E+01  -8.23971465E+00  -3.20879650E+00  -9.90887274E+00  -3.68421834E+00  -6.36151899E+01  -1.31401646E+01  -8.37842680E+00  -1.92455768E+00  -4.56089412E+01  -6.64951821E+00  -7.81477088E+00  -4.82414826E+00  -8.61317716E+00  -7.56659122E+00  -7.75599965E+00  -8.16424798E+00  -9.90284438E+00  -8.74510280E+00  -7.20744954E+00  -6.36210213E+00  -1.23214339E+01  -6.19510112E+00  -1.51683505E+01  -7.03144370E+00  -1.02973306E+01  -1.51766228E+01  -1.51768768E+01  -2.06146649E+01  -1.18080229E+01  -2.05074294E+01  -2.05077162E+01  -2.99070984E+01  -3.17345570E+01
   6.12500000E+01   5.00000000E-01   5.00000000E-01  -7.40011526E+00  -1.56467470E+01  -3.58951707E+00  -1.30175456E+00  -2.02030620E+00  -3.78495632E+00  -2.06911117E+01  -7.12403889E+00  -5.10482803E+00  -4.61176633E+00  -5.86009646E+00  -4.63583018E+00  -5.87777171E+00  -8.84503465E+00  -8.91632477E+00  -2.62065147E-01  -4.16744156E+00  -1.95170613E+00  -2.53115539E+01  -3.34966836E-01  -1.82382436E+00  -7.74469720E+00  -3.39789117E+00  -5.91639387E+00  -4.40888654E+00  -2.98365928E+00  -8.67547796E+00  -1.36463766E+01  -1.33512642E+01  -1.14221048E+01  -1.40717247E+01  -9.30963172E+00  -8.69787431E+00  -1.09109623E+01  -1.46126228E+01  -2.35052957E+00  -4.82712847E+00  -3.25991016E+00  -4.14513080E+00  -8.59947452E+00  -2.98782819E+00  -5.05209082E+00  -7.18500243E+00  -6.83214945E+00  -4.66434672E+00  -6.96503878E+00  -6.80880259E+00  -1.15914794E+01  -7.69723997E+00  -1.35882973E+01  -1.46946010E+02  -2.57915679E+01  -6.73003059E+00  -1.23994940E+01  -1.22895539E+01  -8.13249349E+00  -3.20904847E+00  -9.93009028E+00  -3.68360553E+00  -6.31532733E+01  -1.30175064E+01  -8.41506615E+00  -1.93025148E+00  -4.53391322E+01  -6.64882108E+00  -7.88173208E+00  -4.77312400E+00  -8.41629935E+00  -7.45829546E+00  -7.73600342E+00  -8.15604201E+00  -9.98152068E+00  -8.80191480E+00  -7.19368271E+00  -6.36090648E+00  -1.23277409E+01  -6.19087758E+00  -1.47974298E+01  -6.92758706E+00  -1.02412637E+01  -1.50898953E+01  -1.50901535E+01  -2.04997863E+01  -1.16099609E+01  -2.03931125E+01  -2.03934064E+01  -2.97134316E+01  -3.13699589E+01
   7.87500000E+01   5.00000000E-01   5.00000000E-01  -7.32790634E+00  -1.54424011E+01  -3.53607128E+00  -1.30410398E+00  -2.01270856E+00  -3.68458006E+00  -2.05363526E+01  -7.11191728E+00  -5.10532334E+00  -4.61172783E+00  -5.86021159E+00  -4.53882954E+00  -5.78582732E+00  -8.84433481E+00  -8.91696575E+00  -2.62029386E-01  -4.16739610E+00  -1.95167683E+00  -2.50352959E+01  -3.34782667E-01  -1.82030762E+00  -7.74465657E+00  -3.39784588E+00  -5.92795138E+00  -4.40884125E+00  -2.92752955E+00  -8.67474610E+00  -1.35609842E+01  -1.31852955E+01  -1.13281636E+01  -1.38933504E+01  -9.28668435E+00  -8.67811540E+00  -1.09439499E+01  -1.45852048E+01  -2.35374827E+00  -4.88210468E+00  -3.25069407E+00  -4.15290181E+00  -8.58807524E+00  -2.97931659E+00  -4.93623550E+00  -7.08440884E+00  -6.75072055E+00  -4.55955908E+00  -6.97774929E+00  -6.80768957E+00  -1.16068404E+01  -7.68630863E+00  -1.35945856E+01  -1.45969402E+02  -2.54708251E+01  -6.67826065E+00  -1.22703000E+01  -1.21633781E+01  -8.04143718E+00  -3.20895131E+00  -9.93589985E+00  -3.68285347E+00  -6.27106211E+01  -1.29182880E+01  -8.43587706E+00  -1.93567368E+00  -4.50718201E+01  -6.64711978E+00  -7.93160899E+00  -4.73592118E+00  -8.26488948E+00  -7.37924258E+00  -7.72898269E+00  -8.14682044E+00  -1.00439562E+01  -8.84260249E+00  -7.17927501E+00  -6.35934554E+00  -1.23188245E+01  -6.18664677E+00  -1.45252335E+01  -6.86152733E+00  -1.02075062E+01  -1.50366076E+01  -1.50368686E+01  -2.04295281E+01  -1.14873635E+01  -2.03234120E+01  -2.03237112E+01  -2.95865517E+01  -3.10949650E+01
   9.62500000E+01   5.00000000E-01   5.00000000E-01  -7.26558271E+00  -1.52879341E+01  -3.49157339E+00  -1.30639712E+00  -2.00527239E+00  -3.60323608E+00  -2.04105982E+01  -7.09035989E+00  -5.10583833E+00  -4.61167817E+00  -5.86031813E+00  -4.45953755E+00  -5.70996173E+00  -8.84362285E+00  -8.91759476E+00  -2.61981679E-01  -4.16733753E+00  -1.95165435E+00  -2.47712458E+01  -3.34603115E-01  -1.81706468E+00  -7.74460282E+00  -3.39778748E+00  -5.93909061E+00  -4.40878285E+00  -2.88866856E+00  -8.67417004E+00  -1.34852979E+01  -1.30503902E+01  -1.12466265E+01  -1.37552847E+01  -9.25380753E+00  -8.64862989E+00  -1.09577723E+01  -1.45395805E+01  -2.35676844E+00  -4.92765099E+00  -3.24124468E+00  -4.15989929E+00  -8.56782166E+00  -2.97079127E+00  -4.83913622E+00  -7.00208317E+00  -6.67897211E+00  -4.47361847E+00  -6.98159685E+00  -6.80625996E+00  -1.16130504E+01  -7.67533877E+00  -1.35919503E+01  -1.45020363E+02  -2.51713793E+01  -6.63549440E+00  -1.21597681E+01  -1.20587111E+01  -7.96020044E+00  -3.20852294E+00  -9.93263559E+00  -3.68196438E+00  -6.22808562E+01  -1.28311712E+01  -8.44720669E+00  -1.94082926E+00  -4.48069713E+01  -6.64469180E+00  -7.97102661E+00  -4.70770861E+00  -8.14156476E+00  -7.31839623E+00  -7.73024966E+00  -8.13686612E+00  -1.00967315E+01  -8.87363022E+00  -7.16436445E+00  -6.35743467E+00  -1.23010133E+01  -6.18241473E+00  -1.43119340E+01  -6.82075132E+00  -1.01898794E+01  -1.50074932E+01  -1.50077558E+01  -2.03915333E+01  -1.14152073E+01  -2.02859706E+01  -2.02862734E+01  -2.95079341E+01  -3.08748385E+01
   1.13750000E+02   5.00000000E-01   5.00000000E-01  -7.21039389E+00  -1.51713020E+01  -3.45334120E+00  -1.30864891E+00  -1.99799121E+00  -3.53499514E+00  -2.03056043E+01  -7.06485863E+00  -5.10637150E+00  -4.61161779E+00  -5.86041661E+00  -4.39246419E+00  -5.64537123E+00  -8.84289927E+00  -8.91821233E+00  -2.61922518E-01  -4.16726635E+00  -1.95163827E+00  -2.45166062E+01  -3.34425706E-01  -1.81407912E+00  -7.74453647E+00  -3.39771647E+00  -5.94990896E+00  -4.40871184E+00  -2.86042273E+00  -8.67373475E+00  -1.34165811E+01  -1.29399931E+01  -1.11764134E+01  -1.36482316E+01  -9.21655536E+00  -8.61492553E+00  -1.09607160E+01  -1.44839732E+01  -2.35963378E+00  -4.96653910E+00  -3.23157337E+00  -4.16615446E+00  -8.54144403E+00  -2.96225796E+00  -4.75488070E+00  -6.93213161E+00  -6.61371903E+00  -4.40060882E+00  -6.97930433E+00  -6.80452968E+00  -1.16128479E+01  -7.66433882E+00  -1.35831238E+01  -1.44093281E+02  -2.48877082E+01  -6.59909712E+00  -1.20625270E+01  -1.19717429E+01  -7.88603573E+00  -3.20778071E+00  -9.92303539E+00  -3.68094154E+00  -6.18611985E+01  -1.27550911E+01  -8.45180422E+00  -1.94572301E+00  -4.45445526E+01  -6.64165650E+00  -8.00285476E+00  -4.68536072E+00  -8.03775974E+00  -7.26994093E+00  -7.73674048E+00  -8.12630306E+00  -1.01426732E+01  -8.89779108E+00  -7.14901367E+00  -6.35519017E+00  -1.22770410E+01  -6.17818992E+00  -1.41415396E+01  -6.79468919E+00  -1.01805511E+01  -1.49908052E+01  -1.49910684E+01  -2.03701379E+01  -1.13723553E+01  -2.02651242E+01  -2.02654293E+01  -2.94540918E+01  -3.06919962E+01
   1.31250000E+02   5.00000000E-01   5.00000000E-01  -7.16027681E+00  -1.50826290E+01  -3.41939375E+00  -1.31087480E+00  -1.99085900E+00  -3.47631304E+00  -2.02151891E+01  -7.03791898E+00  -5.10692149E+00  -4.61154708E+00  -5.86050751E+00  -4.33433209E+00  -5.58912668E+00  -8.84216454E+00  -8.91881892E+00  -2.61852362E-01  -4.16718304E+00  -1.95162821E+00  -2.42692682E+01  -3.34247984E-01  -1.81133583E+00  -7.74445800E+00  -3.39763334E+00  -5.96053105E+00  -4.40862871E+00  -2.83838738E+00  -8.67342509E+00  -1.33527837E+01  -1.28483422E+01  -1.11158631E+01  -1.35643758E+01  -9.17750944E+00  -8.57952284E+00  -1.09574084E+01  -1.44229326E+01  -2.36240277E+00  -5.00086906E+00  -3.22169111E+00  -4.17169727E+00  -8.51098593E+00  -2.95372267E+00  -4.67994088E+00  -6.87104375E+00  -6.55347392E+00  -4.33699890E+00  -6.97290821E+00  -6.80251388E+00  -1.16082840E+01  -7.65331662E+00  -1.35701518E+01  -1.43183919E+02  -2.46156648E+01  -6.56714787E+00  -1.19746055E+01  -1.18987694E+01  -7.81688328E+00  -3.20674118E+00  -9.90915000E+00  -3.67978864E+00  -6.14495554E+01  -1.26884012E+01  -8.45173112E+00  -1.95035999E+00  -4.42845317E+01  -6.63815939E+00  -8.02930197E+00  -4.66746374E+00  -7.94800785E+00  -7.23047270E+00  -7.74711534E+00  -8.11528107E+00  -1.01839486E+01  -8.91720538E+00  -7.13329929E+00  -6.35262764E+00  -1.22489541E+01  -6.17398079E+00  -1.40017889E+01  -6.77658182E+00  -1.01748130E+01  -1.49794819E+01  -1.49797452E+01  -2.03559256E+01  -1.13452921E+01  -2.02514563E+01  -2.02517625E+01  -2.94109082E+01  -3.05338501E+01
   1.48750000E+02   5.00000000E-01   5.00000000E-01  -7.11368071E+00  -1.50136786E+01  -3.38826692E+00  -1.31308777E+00  -1.98387013E+00  -3.42490804E+00  -2.01347076E+01  -7.01068036E+00  -5.10748702E+00  -4.61146642E+00  -5.86059128E+00  -4.28302723E+00  -5.53930954E+00  -8.84141910E+00  -8.91941499E+00  -2.61771638E-01  -4.16708804E+00  -1.95162383E+00  -2.40276368E+01  -3.34068044E-01  -1.80882062E+00  -7.74436783E+00  -3.39753852E+00  -5.97109126E+00  -4.40853389E+00  -2.81981257E+00  -8.67322529E+00  -1.32923673E+01  -1.27702905E+01  -1.10629058E+01  -1.34970289E+01  -9.13788991E+00  -8.54357559E+00  -1.09506035E+01  -1.43591306E+01  -2.36513936E+00  -5.03223489E+00  -3.21160852E+00  -4.17655653E+00  -8.47797930E+00  -2.94519143E+00  -4.61205038E+00  -6.81657010E+00  -6.49749959E+00  -4.28051946E+00  -6.96393364E+00  -6.80022697E+00  -1.16008981E+01  -7.64227958E+00  -1.35545681E+01  -1.42289068E+02  -2.43521270E+01  -6.53824707E+00  -1.18930656E+01  -1.18361892E+01  -7.75119573E+00  -3.20542016E+00  -9.89251813E+00  -3.67850949E+00  -6.10443468E+01  -1.26290458E+01  -8.44853686E+00  -1.95474578E+00  -4.40268767E+01  -6.63435487E+00  -8.05207328E+00  -4.65335891E+00  -7.86862638E+00  -7.19785918E+00  -7.76079372E+00  -8.10395846E+00  -1.02222231E+01  -8.93348637E+00  -7.11730253E+00  -6.34976201E+00  -1.22182877E+01  -6.16979556E+00  -1.38832037E+01  -6.76246753E+00  -1.01702419E+01  -1.49698900E+01  -1.49701527E+01  -2.03440503E+01  -1.13260969E+01  -2.02401208E+01  -2.02404272E+01  -2.93711218E+01  -3.03915128E+01
   1.66250000E+02   5.00000000E-01   5.00000000E-01  -7.06953155E+00  -1.49583571E+01  -3.35896505E+00  -1.31529740E+00  -1.97701930E+00  -3.37923304E+00  -2.00609448E+01  -6.98366433E+00  -5.10806696E+00  -4.61137615E+00  -5.86066834E+00  -4.23710614E+00  -5.49459460E+00  -8.84066334E+00  -8.92000093E+00  -2.61680747E-01  -4.16698176E+00  -1.95162479E+00  -2.37905950E+01  -3.33884597E-01  -1.80652010E+00  -7.74426638E+00  -3.39743241E+00  -5.98170719E+00  -4.40842778E+00  -2.80306614E+00  -8.67311892E+00  -1.32342697E+01  -1.27018806E+01  -1.10157087E+01  -1.34411688E+01  -9.09829086E+00  -8.50761906E+00  -1.09419533E+01  -1.42941448E+01  -2.36790004E+00  -5.06174719E+00  -3.20133588E+00  -4.18076002E+00  -8.44347999E+00  -2.93667026E+00  -4.54967680E+00  -6.76719448E+00  -6.44531689E+00  -4.22963557E+00  -6.95342992E+00  -6.79768273E+00  -1.15917530E+01  -7.63123472E+00  -1.35374300E+01  -1.41406476E+02  -2.40949270E+01  -6.51145446E+00  -1.18159049E+01  -1.17811140E+01  -7.68790251E+00  -3.20383282E+00  -9.87420208E+00  -3.67710796E+00  -6.06444697E+01  -1.25752065E+01  -8.44329455E+00  -1.95888653E+00  -4.37715561E+01  -6.63037988E+00  -8.07237934E+00  -4.64263752E+00  -7.79712677E+00  -7.17068550E+00  -7.77743570E+00  -8.09247562E+00  -1.02586694E+01  -8.94776305E+00  -7.10109650E+00  -6.34660764E+00  -1.21861001E+01  -6.16564226E+00  -1.37790914E+01  -6.75014359E+00  -1.01656971E+01  -1.49603192E+01  -1.49605810E+01  -2.03322312E+01  -1.13103665E+01  -2.02288365E+01  -2.02291425E+01  -2.93313175E+01  -3.02591188E+01
   1.83750000E+02   5.00000000E-01   5.00000000E-01  -7.02711759E+00  -1.49124035E+01  -3.33084346E+00  -1.31751032E+00  -1.97030156E+00  -3.33819433E+00  -1.99917726E+01  -6.95710963E+00  -5.10866027E+00  -4.61127659E+00  -5.86073909E+00  -4.19553924E+00  -5.45402802E+00  -8.83989765E+00  -8.92057713E+00  -2.61580063E-01  -4.16686457E+00  -1.95163079E+00  -2.35573894E+01  -3.33696839E-01  -1.80442159E+00  -7.74415403E+00  -3.39731540E+00  -5.99247267E+00  -4.40831078E+00  -2.78722487E+00  -8.67308902E+00  -1.31777902E+01  -1.26402634E+01  -1.09728233E+01  -1.33932437E+01  -9.05901229E+00  -8.47190510E+00  -1.09324537E+01  -1.42289083E+01  -2.37073078E+00  -5.09014447E+00  -3.19088314E+00  -4.18433446E+00  -8.40818217E+00  -2.92816514E+00  -4.49174042E+00  -6.72185273E+00  -6.39653784E+00  -4.18326527E+00  -6.94208494E+00  -6.79489432E+00  -1.15815493E+01  -7.62018868E+00  -1.35194331E+01  -1.40534617E+02  -2.38426216E+01  -6.48616766E+00  -1.17418203E+01  -1.17314019E+01  -7.62629537E+00  -3.20199367E+00  -9.85490215E+00  -3.67558797E+00  -6.02491835E+01  -1.25254486E+01  -8.43671531E+00  -1.96278878E+00  -4.35185394E+01  -6.62634674E+00  -8.09104380E+00  -4.63497094E+00  -7.73181173E+00  -7.14796585E+00  -7.79676810E+00  -8.08094800E+00  -1.02940745E+01  -8.96079155E+00  -7.08474310E+00  -6.34317838E+00  -1.21530881E+01  -6.16152874E+00  -1.36849394E+01  -6.73846308E+00  -1.01607316E+01  -1.49500999E+01  -1.49503606E+01  -2.03195745E+01  -1.12958095E+01  -2.02167098E+01  -2.02170148E+01  -2.92901603E+01  -3.01329578E+01
   2.01250000E+02   5.00000000E-01   5.00000000E-01  -6.98597622E+00  -1.48729044E+01  -3.30349646E+00  -1.31973096E+00  -1.96371221E+00  -3.30099124E+00  -1.99258103E+01  -6.93112278E+00  -5.10926603E+00  -4.61116804E+00  -5.86080387E+00  -4.15756635E+00  -5.41690040E+00  -8.83912238E+00  -8.92114394E+00  -2.61469936E-01  -4.16673682E+00  -1.95164154E+00  -2.33275168E+01  -3.33504299E-01  -1.80251318E+00  -7.74403112E+00  -3.39718784E+00  -6.00345960E+00  -4.40818321E+00  -2.77179340E+00  -8.67311832E+00  -1.31224771E+01  -1.25834391E+01  -1.09331532E+01  -1.33508000E+01  -9.02021196E+00  -8.43655277E+00  -1.09227100E+01  -1.41639733E+01  -2.37366820E+00  -5.11790755E+00  -3.18025984E+00  -4.18730553E+00  -8.37253142E+00  -2.91968199E+00  -4.43745394E+00  -6.67977248E+00  -6.35081849E+00  -4.14061923E+00  -6.93033833E+00  -6.79187427E+00  -1.15707388E+01  -7.60914773E+00  -1.35010245E+01  -1.39672464E+02  -2.35942664E+01  -6.46201089E+00  -1.16699844E+01  -1.16855110E+01  -7.56591523E+00  -3.19991662E+00  -9.83506976E+00  -3.67395349E+00  -5.98579969E+01  -1.24786894E+01  -8.42926123E+00  -1.96645937E+00  -4.32677962E+01  -6.62234510E+00  -8.10861841E+00  -4.63006467E+00  -7.67150375E+00  -7.12898511E+00  -7.81853923E+00  -8.06946810E+00  -1.03289552E+01  -8.97306942E+00  -7.06829419E+00  -6.33948752E+00  -1.21196997E+01  -6.15746265E+00  -1.35977628E+01  -6.72688587E+00  -1.01552563E+01  -1.49390991E+01  -1.49393587E+01  -2.03059023E+01  -1.12813479E+01  -2.02035626E+01  -2.02038663E+01  -2.92473880E+01  -3.00107412E+01
   2.18750000E+02   5.00000000E-01   5.00000000E-01  -6.94580907E+00  -1.48378856E+01  -3.27667465E+00  -1.32196235E+00  -1.95724682E+00  -3.26702016E+00  -1.98621698E+01  -6.90574713E+00  -5.10988336E+00  -4.61105079E+00  -5.86086302E+00  -4.12261022E+00  -5.38266978E+00  -8.83833784E+00  -8.92170169E+00  -2.61350694E-01  -4.16659885E+00  -1.95165678E+00  -2.31006397E+01  -3.33306716E-01  -1.80078369E+00  -7.74389799E+00  -3.39705005E+00  -6.01472225E+00  -4.40804542E+00  -2.75652395E+00  -8.67318942E+00  -1.30680419E+01  -1.25300194E+01  -1.08958852E+01  -1.33121597E+01  -8.98197658E+00  -8.40161731E+00  -1.09130927E+01  -1.40996646E+01  -2.37674180E+00  -5.14534653E+00  -3.16947517E+00  -4.18969788E+00  -8.33680960E+00  -2.91122659E+00  -4.38622644E+00  -6.64037711E+00  -6.30784777E+00  -4.10110482E+00  -6.91846628E+00  -6.78863453E+00  -1.15596094E+01  -7.59811775E+00  -1.34824871E+01  -1.38819323E+02  -2.33492461E+01  -6.43875434E+00  -1.15998790E+01  -1.16423469E+01  -7.50646729E+00  -3.19761495E+00  -9.81499235E+00  -3.67220855E+00  -5.94705832E+01  -1.24341288E+01  -8.42123017E+00  -1.96990526E+00  -4.30192969E+01  -6.61844612E+00  -8.12547212E+00  -4.62764942E+00  -7.61536835E+00  -7.11320704E+00  -7.84251196E+00  -8.05810964E+00  -1.03636469E+01  -8.98492267E+00  -7.05179381E+00  -6.33554775E+00  -1.20862190E+01  -6.15345135E+00  -1.35156007E+01  -6.71520298E+00  -1.01493491E+01  -1.49274344E+01  -1.49276930E+01  -2.02913712E+01  -1.12665658E+01  -2.01895512E+01  -2.01898534E+01  -2.92032393E+01  -2.98910819E+01
   2.36250000E+02   5.00000000E-01   5.00000000E-01  -6.90642416E+00  -1.48060163E+01  -3.25022914E+00  -1.32420656E+00  -1.95090118E+00  -3.23581460E+00  -1.98002819E+01  -6.88099511E+00  -5.11051145E+00  -4.61092509E+00  -5.86091684E+00  -4.09022213E+00  -5.35091278E+00  -8.83754434E+00  -8.92225068E+00  -2.61222646E-01  -4.16645096E+00  -1.95167625E+00  -2.28765279E+01  -3.33103955E-01  -1.79922268E+00  -7.74375494E+00  -3.39690234E+00  -6.02630115E+00  -4.40789771E+00  -2.74130632E+00  -8.67328495E+00  -1.30143023E+01  -1.24790461E+01  -1.08604247E+01  -1.32761811E+01  -8.94435609E+00  -8.36712250E+00  -1.09038295E+01  -1.40361705E+01  -2.37997587E+00  -5.17266068E+00  -3.15853791E+00  -4.19153508E+00  -8.30119263E+00  -2.90280462E+00  -4.33760352E+00  -6.60322586E+00  -6.26734538E+00  -4.06426608E+00  -6.90663939E+00  -6.78518646E+00  -1.15483427E+01  -7.58710424E+00  -1.34639979E+01  -1.37974714E+02  -2.31071581E+01  -6.41626025E+00  -1.15311840E+01  -1.16011391E+01  -7.44776319E+00  -3.19510131E+00  -9.79485120E+00  -3.67035723E+00  -5.90867220E+01  -1.23911849E+01  -8.41281350E+00  -1.97313348E+00  -4.27730123E+01  -6.61470640E+00  -8.14185287E+00  -4.62748097E+00  -7.56280031E+00  -7.10021825E+00  -7.86846563E+00  -8.04693161E+00  -1.03983658E+01  -8.99656553E+00  -7.03528010E+00  -6.33137120E+00  -1.20528240E+01  -6.14950192E+00  -1.34371675E+01  -6.70337442E+00  -1.01431510E+01  -1.49153176E+01  -1.49155755E+01  -2.02762630E+01  -1.12513852E+01  -2.01749575E+01  -2.01752584E+01  -2.91581408E+01  -2.97731539E+01
   2.53750000E+02   5.00000000E-01   5.00000000E-01  -6.86769811E+00  -1.47764043E+01  -3.22407525E+00  -1.32646508E+00  -1.94467131E+00  -3.20700634E+00  -1.97397835E+01  -6.85686382E+00  -5.11114950E+00  -4.61079119E+00  -5.86096563E+00  -4.06004639E+00  -5.32129239E+00  -8.83674217E+00  -8.92279121E+00  -2.61086082E-01  -4.16629342E+00  -1.95169972E+00  -2.26550211E+01  -3.32895951E-01  -1.79782037E+00  -7.74360225E+00  -3.39674499E+00  -6.03822634E+00  -4.40774036E+00  -2.72610314E+00  -8.67338778E+00  -1.29611440E+01  -1.24298629E+01  -1.08263420E+01  -1.32420928E+01  -8.90738078E+00  -8.33307622E+00  -1.08950603E+01  -1.39735954E+01  -2.38339107E+00  -5.19997767E+00  -3.14745645E+00  -4.19283970E+00  -8.26578828E+00  -2.89442157E+00  -4.29122845E+00  -6.56797507E+00  -6.22906081E+00  -4.02974496E+00  -6.89496042E+00  -6.78154084E+00  -1.15370519E+01  -7.57611235E+00  -1.34456658E+01  -1.37138296E+02  -2.28677379E+01  -6.39444840E+00  -1.14637051E+01  -1.15613504E+01  -7.38968318E+00  -3.19238777E+00  -9.77475916E+00  -3.66840360E+00  -5.87062619E+01  -1.23494401E+01  -8.40413385E+00  -1.97615103E+00  -4.25289137E+01  -6.61117119E+00  -8.15792857E+00  -4.62934069E+00  -7.51335023E+00  -7.08969262E+00  -7.89619817E+00  -8.03598144E+00  -1.04332493E+01  -9.00813979E+00  -7.01878685E+00  -6.32696939E+00  -1.20196243E+01  -6.14562110E+00  -1.33616217E+01  -6.69143753E+00  -1.01368117E+01  -1.49029740E+01  -1.49032316E+01  -2.02608776E+01  -1.12358828E+01  -2.01600815E+01  -2.01603811E+01  -2.91125459E+01  -2.96564759E+01
   2.71250000E+02   5.00000000E-01   5.00000000E-01  -6.82955183E+00  -1.47484572E+01  -3.19816928E+00  -1.32873903E+00  -1.93855344E+00  -3.18029949E+00  -1.96804443E+01  -6.83334273E+00  -5.11179673E+00  -4.61064932E+00  -5.86100964E+00  -4.03179630E+00  -5.29353591E+00  -8.83593157E+00  -8.92332355E+00  -2.60941275E-01  -4.16612651E+00  -1.95172697E+00  -2.24360042E+01  -3.32682680E-01  -1.79656765E+00  -7.74344019E+00  -3.39657827E+00  -6.05051964E+00  -4.40757364E+00  -2.71091295E+00  -8.67348110E+00  -1.29084964E+01  -1.23820249E+01  -1.07933310E+01  -1.32093791E+01  -8.87107008E+00  -8.29947815E+00  -1.08868703E+01  -1.39119922E+01  -2.38700547E+00  -5.22737899E+00  -3.13623882E+00  -4.19363330E+00  -8.23066044E+00  -2.88608273E+00  -4.24681621E+00  -6.53435218E+00  -6.19277155E+00  -3.99725524E+00  -6.88348858E+00  -6.77770793E+00  -1.15258061E+01  -7.56514683E+00  -1.34275554E+01  -1.36309820E+02  -2.26308095E+01  -6.37327404E+00  -1.13973271E+01  -1.15226108E+01  -7.33215184E+00  -3.18948579E+00  -9.75478502E+00  -3.66635174E+00  -5.83290957E+01  -1.23085998E+01  -8.39526940E+00  -1.97896487E+00  -4.22869727E+01  -6.60787675E+00  -8.17381381E+00  -4.63303489E+00  -7.46667655E+00  -7.08136756E+00  -7.92552675E+00  -8.02529740E+00  -1.04683831E+01  -9.01974012E+00  -7.00234458E+00  -6.32235329E+00  -1.19866855E+01  -6.14181531E+00  -1.32884143E+01  -6.67945741E+00  -1.01304647E+01  -1.48906043E+01  -1.48908620E+01  -2.02454824E+01  -1.12201907E+01  -2.01451902E+01  -2.01454888E+01  -2.90668586E+01  -2.95407772E+01
   2.88750000E+02   5.00000000E-01   5.00000000E-01  -6.79193490E+00  -1.47217887E+01  -3.17249371E+00  -1.33102932E+00  -1.93254396E+00  -3.15545252E+00  -1.96221200E+01  -6.81041754E+00  -5.11245239E+00  -4.61049969E+00  -5.86104914E+00  -4.00523733E+00  -5.26741962E+00  -8.83511281E+00  -8.92384794E+00  -2.60788484E-01  -4.16595048E+00  -1.95175779E+00  -2.22193920E+01  -3.32464133E-01  -1.79545600E+00  -7.74326900E+00  -3.39640242E+00  -6.06319634E+00  -4.40739779E+00  -2.69574977E+00  -8.67354861E+00  -1.28563172E+01  -1.23352359E+01  -1.07611778E+01  -1.31777014E+01  -8.83543716E+00  -8.26632367E+00  -1.08793102E+01  -1.38513818E+01  -2.39083527E+00  -5.25491623E+00  -3.12489265E+00  -4.19393647E+00  -8.19584473E+00  -2.87779320E+00  -4.20413559E+00  -6.50213789E+00  -6.15828090E+00  -3.96656470E+00  -6.87225509E+00  -6.77369744E+00  -1.15146459E+01  -7.55421212E+00  -1.34097034E+01  -1.35489093E+02  -2.23962548E+01  -6.35271401E+00  -1.13319845E+01  -1.14846706E+01  -7.27512237E+00  -3.18640631E+00  -9.73496907E+00  -3.66420572E+00  -5.79551452E+01  -1.22684608E+01  -8.38626947E+00  -1.98158186E+00  -4.20471616E+01  -6.60485195E+00  -8.18958710E+00  -4.63839336E+00  -7.42251367E+00  -7.07502781E+00  -7.95628720E+00  -8.01491028E+00  -1.05038184E+01  -9.03143045E+00  -6.98598131E+00  -6.31753330E+00  -1.19540450E+01  -6.13809059E+00  -1.32171902E+01  -6.66750169E+00  -1.01242175E+01  -1.48783702E+01  -1.48786287E+01  -2.02302928E+01  -1.12044460E+01  -2.01304990E+01  -2.01307971E+01  -2.90214050E+01  -2.94259155E+01
   3.06250000E+02   5.00000000E-01   5.00000000E-01  -6.75481549E+00  -1.46961540E+01  -3.14704755E+00  -1.33333669E+00  -1.92663946E+00  -3.13226566E+00  -1.95647218E+01  -6.78807220E+00  -5.11311570E+00  -4.61034251E+00  -5.86108434E+00  -3.98017525E+00  -5.24275769E+00  -8.83428610E+00  -8.92436462E+00  -2.60627952E-01  -4.16576555E+00  -1.95179198E+00  -2.20051188E+01  -3.32240313E-01  -1.79447747E+00  -7.74308892E+00  -3.39621768E+00  -6.07626640E+00  -4.40721305E+00  -2.68063226E+00  -8.67357460E+00  -1.28045822E+01  -1.22893043E+01  -1.07297361E+01  -1.31468441E+01  -8.80049150E+00  -8.23360590E+00  -1.08724087E+01  -1.37917648E+01  -2.39489532E+00  -5.28262163E+00  -3.11342521E+00  -4.19376887E+00  -8.16135856E+00  -2.86955784E+00  -4.16299660E+00  -6.47115357E+00  -6.12541538E+00  -3.93748241E+00  -6.86127330E+00  -6.76951859E+00  -1.15035934E+01  -7.54331230E+00  -1.33921278E+01  -1.34675964E+02  -2.21639932E+01  -6.33275788E+00  -1.12676431E+01  -1.14473657E+01  -7.21856654E+00  -3.18315971E+00  -9.71533319E+00  -3.66196955E+00  -5.75843508E+01  -1.22288873E+01  -8.37716464E+00  -1.98400872E+00  -4.18094530E+01  -6.60211960E+00  -8.20530225E+00  -4.64526725E+00  -7.38065052E+00  -7.07049404E+00  -7.98833266E+00  -8.00484462E+00  -1.05395829E+01  -9.04325457E+00  -6.96972305E+00  -6.31251925E+00  -1.19217214E+01  -6.13445261E+00  -1.31477228E+01  -6.65562899E+00  -1.01181503E+01  -1.48663925E+01  -1.48666525E+01  -2.02154692E+01  -1.11887678E+01  -2.01161686E+01  -2.01164667E+01  -2.89764291E+01  -2.93118249E+01