 TITLE = "Total Concentrations" 
VARIABLES = "X"          "Y"              "Z"            "H+"             "Al+++"          "CO2(aq)"        "Mg++"           "Ca++"           "Fe++"           "Fe+++"          "Ba++"           "Sr++"           "Cl-"            "F-"             "K+"             "Na+"            "SO4--"          "O2(aq)"         "B(OH)3(aq)"     "HPO4--"         "NO3-"           "H4SiO4(aq)"     "HNO3(aq)"       "Al(OH)2+"       "AlO2-"          "AlOH++"         "BaHCO3+"        "BaCl+"          "BaCO3(aq)"      "BaOH+"          "HCO3-"          "CO3--"          "CaCl+"          "CaCl2(aq)"      "CaOH+"          "CaSO4(aq)"      "FeCl+"          "FeCl2(aq)"      "FeOH+"          "FeSO4(aq)"      "OH-"            "HS-"            "S2O3--"         "H2PO4-"         "H3PO4(aq)"      "HAlO2(aq)"      "HSO4-"          "KCl(aq)"        "KOH(aq)"        "KSO4-"          "NH3(aq)"        "NaAlO2(aq)"     "NaOH(aq)"       "NaSO4-"         "H2(aq)"         "CaHPO4(aq)"     "CaPO4-"         "FeCO3(aq)"      "FeH2PO4+"       "FeHPO4(aq)"     "FePO4-"         "KHPO4-"         "PO4---"         "Sr(CO3)(aq)"    "SrHCO3+"        "SrCl+"          "SrOH+"          "SrSO4(aq)"      "AlH3SiO4++"     "Si2O2(OH)5-"    "Si2O3(OH)4--"   "Si3O5(OH)5---"  "Si3O6(OH)3---"  "Si4O12H4----"   "Si4O6(OH)6--"   "Si4O7(OH)6----" "Si4O8(OH)4----" "Si6O15------"   "SiF6--"        
 ZONE I=         100 , J=           1 , K=           1  F=POINT
   1.75000000E+01   5.00000000E-01   5.00000000E-01  -7.62593883E+00  -1.50994883E+01  -3.75857636E+00  -1.29273474E+00  -2.05189410E+00  -4.70576291E+00  -1.31717431E+01  -6.71256910E+00  -5.10354493E+00  -2.62101468E-01  -4.16749098E+00  -1.95234473E+00  -3.35494836E-01  -1.83505996E+00  -3.74472739E+00  -3.39793991E+00  -5.88050757E+00  -4.40893528E+00  -3.56427402E+00  -1.39083964E+01  -1.26576368E+01  -1.04878821E+01  -1.34311777E+01  -8.92756303E+00  -8.30629522E+00  -1.03527940E+01  -1.42290975E+01  -2.34196756E+00  -4.65434696E+00  -3.29377953E+00  -4.12784077E+00  -8.62510936E+00  -3.02059617E+00  -6.01504015E+00  -8.10196814E+00  -7.68075803E+00  -5.59616430E+00  -6.91332815E+00  -1.53072457E+02  -1.57794526E+02  -6.89216588E+00  -1.28008529E+01  -1.14636505E+01  -8.41090772E+00  -3.20789055E+00  -9.89713800E+00  -3.68513052E+00  -7.24436280E+01  -1.20963918E+01  -8.33680704E+00  -1.91303799E+00  -4.81090077E+01  -6.65773543E+00  -7.72401065E+00  -5.49435232E+00  -9.49744032E+00  -8.31323751E+00  -8.36542740E+00  -8.17750606E+00  -9.78383216E+00  -8.66811352E+00  -7.23316107E+00  -6.36328058E+00  -1.23369383E+01  -6.20241573E+00  -1.48516664E+01  -7.94010790E+00  -1.11449355E+01  -1.64527652E+01  -1.64530070E+01  -2.23148982E+01  -1.36073532E+01  -2.22066253E+01  -2.22068933E+01  -3.24960743E+01  -3.26447022E+01
   5.25000000E+01   5.00000000E-01   5.00000000E-01  -7.51365395E+00  -1.49277010E+01  -3.67500787E+00  -1.29336071E+00  -1.88350484E+00  -4.40134141E+00  -1.32713912E+01  -6.71275496E+00  -5.10861104E+00  -2.62314964E-01  -4.16747746E+00  -1.95391855E+00  -3.36999561E-01  -1.76005204E+00  -3.74471387E+00  -3.39792639E+00  -5.91630583E+00  -4.40892176E+00  -3.45519583E+00  -1.37812423E+01  -1.25674191E+01  -1.05211691E+01  -1.33093241E+01  -8.91607969E+00  -8.30063039E+00  -1.04314145E+01  -1.42224509E+01  -2.34530864E+00  -4.73755601E+00  -3.12736958E+00  -3.98922307E+00  -8.46559386E+00  -2.78958548E+00  -5.69356941E+00  -7.80577903E+00  -7.41698791E+00  -5.22447062E+00  -6.94149625E+00  -1.51732696E+02  -1.56293048E+02  -6.83234797E+00  -1.26243655E+01  -1.14430997E+01  -8.20719111E+00  -3.21399008E+00  -9.92143304E+00  -3.62086030E+00  -7.18283745E+01  -1.21280471E+01  -8.38253022E+00  -1.85752758E+00  -4.77434937E+01  -6.52651372E+00  -7.67496988E+00  -5.29315228E+00  -9.13602444E+00  -8.06637643E+00  -8.22886643E+00  -8.19215448E+00  -9.89586237E+00  -8.74483794E+00  -7.22120304E+00  -6.37028001E+00  -1.23436097E+01  -6.13981057E+00  -1.45636779E+01  -7.79364338E+00  -1.10523604E+01  -1.63071611E+01  -1.63074124E+01  -2.21268844E+01  -1.33259295E+01  -2.20193738E+01  -2.20196564E+01  -3.21609908E+01  -3.21863881E+01
   8.75000000E+01   5.00000000E-01   5.00000000E-01  -7.42987897E+00  -1.48208786E+01  -3.62210511E+00  -1.29388068E+00  -1.51760122E+00  -4.24445746E+00  -1.38266786E+01  -6.71269407E+00  -5.12662395E+00  -2.63196469E-01  -4.16743786E+00  -1.95873913E+00  -3.43729159E-01  -1.54635946E+00  -3.74467428E+00  -3.39788680E+00  -6.01025002E+00  -4.40888217E+00  -3.39415793E+00  -1.36876650E+01  -1.24943446E+01  -1.05175607E+01  -1.32267449E+01  -8.90962376E+00  -8.30255813E+00  -1.04935518E+01  -1.41955405E+01  -2.34780864E+00  -4.78640125E+00  -2.76943061E+00  -3.66579623E+00  -8.08642225E+00  -2.23983491E+00  -5.52583878E+00  -7.67015018E+00  -7.27797351E+00  -4.87906623E+00  -6.94225873E+00  -1.50312521E+02  -1.54602511E+02  -6.86584674E+00  -1.25736751E+01  -1.14175470E+01  -7.89973562E+00  -3.23137436E+00  -9.92865922E+00  -3.43002816E+00  -7.12608351E+01  -1.21338531E+01  -8.41135740E+00  -1.67680389E+00  -4.73887241E+01  -6.27334643E+00  -7.47085946E+00  -5.22099035E+00  -9.02063824E+00  -8.04279404E+00  -8.28212015E+00  -8.27721001E+00  -1.00259657E+01  -8.81836267E+00  -7.22740469E+00  -6.39791445E+00  -1.23429331E+01  -5.97087239E+00  -1.43614789E+01  -7.70695535E+00  -1.09870240E+01  -1.61937950E+01  -1.61940526E+01  -2.19955193E+01  -1.31591965E+01  -2.18887642E+01  -2.18890572E+01  -3.18460043E+01  -3.18812243E+01
   1.22500000E+02   5.00000000E-01   5.00000000E-01  -7.35703503E+00  -1.47349555E+01  -3.57459101E+00  -1.29436076E+00  -1.44184826E+00  -4.12465094E+00  -1.38591314E+01  -6.71287132E+00  -5.13296846E+00  -2.63422736E-01  -4.16737367E+00  -1.96067658E+00  -3.45560544E-01  -1.48839646E+00  -3.74461008E+00  -3.39782260E+00  -6.04121796E+00  -4.40881797E+00  -3.35324740E+00  -1.35995426E+01  -1.24152464E+01  -1.04875235E+01  -1.31526659E+01  -8.89645596E+00  -8.29619023E+00  -1.05340536E+01  -1.41540901E+01  -2.35034193E+00  -4.83157398E+00  -2.69445632E+00  -3.61703740E+00  -7.98370909E+00  -2.11783355E+00  -5.38821479E+00  -7.55642804E+00  -7.16172338E+00  -4.70831762E+00  -6.93499335E+00  -1.49059201E+02  -1.53241861E+02  -6.83923897E+00  -1.24691790E+01  -1.13704459E+01  -7.75150856E+00  -3.23707739E+00  -9.91747547E+00  -3.38207338E+00  -7.06972182E+01  -1.21016763E+01  -8.41993244E+00  -1.63705708E+00  -4.70329458E+01  -6.22918546E+00  -7.46969952E+00  -5.16498953E+00  -8.87744247E+00  -7.97528365E+00  -8.28505252E+00  -8.28659516E+00  -1.00954515E+01  -8.85843535E+00  -7.21493172E+00  -6.40520060E+00  -1.23155422E+01  -5.92660765E+00  -1.41940512E+01  -7.65903251E+00  -1.09560410E+01  -1.61398830E+01  -1.61401443E+01  -2.19308435E+01  -1.30740097E+01  -2.18248366E+01  -2.18251366E+01  -3.16910204E+01  -3.16400157E+01
   1.57500000E+02   5.00000000E-01   5.00000000E-01  -7.28982322E+00  -1.46566381E+01  -3.52981295E+00  -1.29481571E+00  -1.43256364E+00  -4.02745445E+00  -1.37900482E+01  -6.71314648E+00  -5.13474192E+00  -2.63370179E-01  -4.16728619E+00  -1.96139011E+00  -3.45401873E-01  -1.47726466E+00  -3.74452260E+00  -3.39773512E+00  -6.05227526E+00  -4.40873049E+00  -3.32199759E+00  -1.35146443E+01  -1.23313722E+01  -1.04430788E+01  -1.30802699E+01  -8.88045680E+00  -8.28622398E+00  -1.05650227E+01  -1.41066674E+01  -2.35300508E+00  -4.87478232E+00  -2.68269834E+00  -3.62755726E+00  -7.94158489E+00  -2.10133869E+00  -5.27016189E+00  -7.45843274E+00  -7.06160137E+00  -4.59919943E+00  -6.92422381E+00  -1.47866471E+02  -1.51992335E+02  -6.79466626E+00  -1.23502425E+01  -1.13112978E+01  -7.65245070E+00  -3.23762125E+00  -9.89828678E+00  -3.37530655E+00  -7.01393205E+01  -1.20500837E+01  -8.41939784E+00  -1.63765073E+00  -4.66791782E+01  -6.22375150E+00  -7.50378249E+00  -5.12203904E+00  -8.73707627E+00  -7.90275001E+00  -8.27914265E+00  -8.27060242E+00  -1.01453911E+01  -8.88439598E+00  -7.19490716E+00  -6.40407829E+00  -1.22772519E+01  -5.91645640E+00  -1.40419374E+01  -7.62941350E+00  -1.09410714E+01  -1.61132089E+01  -1.61134719E+01  -2.18973691E+01  -1.30269675E+01  -2.17921028E+01  -2.17924070E+01  -3.16071267E+01  -3.14296453E+01
   1.92500000E+02   5.00000000E-01   5.00000000E-01  -7.22610884E+00  -1.45818709E+01  -3.48700456E+00  -1.29525260E+00  -1.43822775E+00  -3.94702376E+00  -1.37082439E+01  -6.71345039E+00  -5.13539769E+00  -2.63236159E-01  -4.16717662E+00  -1.96180457E+00  -3.44769654E-01  -1.47736193E+00  -3.74441303E+00  -3.39762555E+00  -6.05917576E+00  -4.40862092E+00  -3.29606105E+00  -1.34324387E+01  -1.22450187E+01  -1.03909871E+01  -1.30082673E+01  -8.86353428E+00  -8.27501827E+00  -1.05921236E+01  -1.40571133E+01  -2.35582596E+00  -4.91635446E+00  -2.68459787E+00  -3.65007809E+00  -7.91198114E+00  -2.10854229E+00  -5.16779458E+00  -7.37455659E+00  -6.97523206E+00  -4.51558128E+00  -6.91178446E+00  -1.46700749E+02  -1.50783389E+02  -6.74793902E+00  -1.22318555E+01  -1.12461862E+01  -7.56689244E+00  -3.23647677E+00  -9.87605824E+00  -3.37785628E+00  -6.95889027E+01  -1.19892507E+01  -8.41505319E+00  -1.64720394E+00  -4.63291391E+01  -6.22659192E+00  -7.54338218E+00  -5.09157777E+00  -8.61093563E+00  -7.84038741E+00  -8.28031399E+00  -8.24873256E+00  -1.01899863E+01  -8.90543142E+00  -7.17276612E+00  -6.40043357E+00  -1.22354349E+01  -5.91405014E+00  -1.38982011E+01  -7.60890044E+00  -1.09334955E+01  -1.60984082E+01  -1.60986715E+01  -2.18784805E+01  -1.29983650E+01  -2.17739465E+01  -2.17742526E+01  -3.15510564E+01  -3.12358713E+01
   2.27500000E+02   5.00000000E-01   5.00000000E-01  -7.16484639E+00  -1.45093817E+01  -3.44554043E+00  -1.29567673E+00  -1.44750979E+00  -3.87892876E+00  -1.36297168E+01  -6.71376605E+00  -5.13580015E+00  -2.63070844E-01  -4.16704603E+00  -1.96215892E+00  -3.44041200E-01  -1.48039745E+00  -3.74428244E+00  -3.39749496E+00  -6.06563269E+00  -4.40849033E+00  -3.27336656E+00  -1.33523090E+01  -1.21575179E+01  -1.03346857E+01  -1.29365898E+01  -8.84623145E+00  -8.26319315E+00  -1.06173345E+01  -1.40068777E+01  -2.35884462E+00  -4.95687799E+00  -2.68934553E+00  -3.67440151E+00  -7.88492633E+00  -2.12121639E+00  -5.07720208E+00  -7.30149659E+00  -6.89956168E+00  -4.44613806E+00  -6.89860693E+00  -1.45553589E+02  -1.49597462E+02  -6.70230716E+00  -1.21165773E+01  -1.11779069E+01  -7.48604929E+00  -3.23455805E+00  -9.85254559E+00  -3.38241229E+00  -6.90458705E+01  -1.19235025E+01  -8.40874874E+00  -1.65852481E+00  -4.59832187E+01  -6.23148243E+00  -7.58296262E+00  -5.07107089E+00  -8.49819561E+00  -7.78884603E+00  -8.28990796E+00  -8.22569407E+00  -1.02330287E+01  -8.92440088E+00  -7.14993740E+00  -6.39577243E+00  -1.21924317E+01  -5.91347111E+00  -1.37602937E+01  -7.59369718E+00  -1.09301507E+01  -1.60901186E+01  -1.60903811E+01  -2.18680114E+01  -1.29802789E+01  -2.17642014E+01  -2.17645077E+01  -3.15089097E+01  -3.10521699E+01
   2.62500000E+02   5.00000000E-01   5.00000000E-01  -7.10545639E+00  -1.44386746E+01  -3.40500820E+00  -1.29609217E+00  -1.45791494E+00  -3.82007936E+00  -1.35559668E+01  -6.71409027E+00  -5.13614184E+00  -2.62885779E-01  -4.16689539E+00  -1.96250804E+00  -3.43298222E-01  -1.48450856E+00  -3.74413180E+00  -3.39734432E+00  -6.07248617E+00  -4.40833969E+00  -3.25279459E+00  -1.32737945E+01  -1.20696285E+01  -1.02760531E+01  -1.28653526E+01  -8.82873332E+00  -8.25091452E+00  -1.06414792E+01  -1.39566004E+01  -2.36210205E+00  -4.99682392E+00  -2.69459268E+00  -3.69834888E+00  -7.85855308E+00  -2.13536542E+00  -4.99543828E+00  -7.23647363E+00  -6.83214399E+00  -4.38628089E+00  -6.88520020E+00  -1.44422575E+02  -1.48429778E+02  -6.65819304E+00  -1.20043526E+01  -1.11078845E+01  -7.40763517E+00  -3.23210093E+00  -9.82846976E+00  -3.38736746E+00  -6.85098068E+01  -1.18549434E+01  -8.40124382E+00  -1.67003443E+00  -4.56414482E+01  -6.23712986E+00  -7.62172869E+00  -5.05824715E+00  -8.39626664E+00  -7.74621332E+00  -8.30651305E+00  -8.20259584E+00  -1.02756833E+01  -8.94232336E+00  -7.12680591E+00  -6.39046082E+00  -1.21490861E+01  -5.91343332E+00  -1.36270464E+01  -7.58196215E+00  -1.09296592E+01  -1.60861344E+01  -1.60863956E+01  -2.18632432E+01  -1.29689547E+01  -2.17601484E+01  -2.17604538E+01  -3.14755609E+01  -3.08751527E+01
   2.97500000E+02   5.00000000E-01   5.00000000E-01  -7.04759233E+00  -1.43695150E+01  -3.36516749E+00  -1.29650219E+00  -1.46886151E+00  -3.76836804E+00  -1.34861214E+01  -6.71442294E+00  -5.13646560E+00  -2.62683959E-01  -4.16672557E+00  -1.96286528E+00  -3.42558023E-01  -1.48923850E+00  -3.74396198E+00  -3.39717450E+00  -6.07995036E+00  -4.40816987E+00  -3.23368932E+00  -1.31965966E+01  -1.19818112E+01  -1.02161933E+01  -1.27946705E+01  -8.81114061E+00  -8.23824564E+00  -1.06649912E+01  -1.39066117E+01  -2.36563671E+00  -5.03650725E+00  -2.69981861E+00  -3.72146966E+00  -7.83261525E+00  -2.15007961E+00  -4.92045451E+00  -7.17750624E+00  -6.77122281E+00  -4.33357610E+00  -6.87185166E+00  -1.43306740E+02  -1.47278616E+02  -6.61553073E+00  -1.18948129E+01  -1.10369389E+01  -7.33091285E+00  -3.22918798E+00  -9.80419153E+00  -3.39235655E+00  -6.79803517E+01  -1.17847552E+01  -8.39292600E+00  -1.68137743E+00  -4.53037799E+01  -6.24329511E+00  -7.65976747E+00  -5.05144468E+00  -8.30299195E+00  -7.71070226E+00  -8.32867158E+00  -8.17975538E+00  -1.03184164E+01  -8.95967498E+00  -7.10351920E+00  -6.38460910E+00  -1.21057798E+01  -5.91365319E+00  -1.34978120E+01  -7.57266434E+00  -1.09312876E+01  -1.60853229E+01  -1.60855825E+01  -2.18627181E+01  -1.29623173E+01  -2.17603295E+01  -2.17606333E+01  -3.14485790E+01  -3.07028936E+01
   3.32500000E+02   5.00000000E-01   5.00000000E-01  -6.99103559E+00  -1.43017748E+01  -3.32588849E+00  -1.29690948E+00  -1.48020326E+00  -3.72232622E+00  -1.34192068E+01  -6.71476466E+00  -5.13678027E+00  -2.62466432E-01  -4.16653737E+00  -1.96323420E+00  -3.41823709E-01  -1.49445120E+00  -3.74377378E+00  -3.39698630E+00  -6.08809734E+00  -4.40798167E+00  -3.21564669E+00  -1.31205276E+01  -1.18943568E+01  -1.01557839E+01  -1.27246308E+01  -8.79353149E+00  -8.22522483E+00  -1.06881385E+01  -1.38570977E+01  -2.36948498E+00  -5.07613296E+00  -2.70491712E+00  -3.74370339E+00  -7.80716139E+00  -2.16514943E+00  -4.85082004E+00  -7.12320660E+00  -6.71553959E+00  -4.28649358E+00  -6.85872544E+00  -1.42205527E+02  -1.46143103E+02  -6.57421679E+00  -1.17876660E+01  -1.09655756E+01  -7.25557140E+00  -3.22586495E+00  -9.77991503E+00  -3.39729546E+00  -6.74572337E+01  -1.17136585E+01  -8.38402326E+00  -1.69247598E+00  -4.49701491E+01  -6.24997659E+00  -7.69728934E+00  -5.04947795E+00  -8.21680235E+00  -7.68096867E+00  -8.35525457E+00  -8.15730734E+00  -1.03614631E+01  -8.97673136E+00  -7.08016742E+00  -6.37826790E+00  -1.20627149E+01  -5.91407326E+00  -1.33721835E+01  -7.56517536E+00  -1.09345926E+01  -1.60870111E+01  -1.60872695E+01  -2.18655531E+01  -1.29591095E+01  -2.17638615E+01  -2.17641634E+01  -3.14265774E+01  -3.05342387E+01
   3.67500000E+02   5.00000000E-01   5.00000000E-01  -6.93564199E+00  -1.42353760E+01  -3.28710926E+00  -1.29731632E+00  -1.49189288E+00  -3.68089868E+00  -1.33544973E+01  -6.71511611E+00  -5.13708718E+00  -2.62233794E-01  -4.16633151E+00  -1.96361596E+00  -3.41095337E-01  -1.50008481E+00  -3.74356793E+00  -3.39678045E+00  -6.09696626E+00  -4.40777582E+00  -3.19840863E+00  -1.30454684E+01  -1.18074527E+01  -1.00952516E+01  -1.26552944E+01  -8.77597649E+00  -8.21188327E+00  -1.07111044E+01  -1.38081670E+01  -2.37368206E+00  -5.11583678E+00  -2.70987457E+00  -3.76507500E+00  -7.78226213E+00  -2.18052278E+00  -4.78551115E+00  -7.07258680E+00  -6.66417171E+00  -4.24397499E+00  -6.84591420E+00  -1.41118519E+02  -1.45022654E+02  -6.53418244E+00  -1.16827240E+01  -1.08941182E+01  -7.18144167E+00  -3.22216743E+00  -9.75576364E+00  -3.40216326E+00  -6.69402469E+01  -1.16421136E+01  -8.37468148E+00  -1.70331473E+00  -4.46404884E+01  -6.25722310E+00  -7.73448367E+00  -5.05149049E+00  -8.13657352E+00  -7.65603496E+00  -8.38542833E+00  -8.13534122E+00  -1.04049613E+01  -8.99367592E+00  -7.05682526E+00  -6.37147289E+00  -1.20200085E+01  -5.91468610E+00  -1.32498801E+01  -7.55909124E+00  -1.09392854E+01  -1.60907632E+01  -1.60910208E+01  -2.18711718E+01  -1.29585261E+01  -2.17701678E+01  -2.17704678E+01  -3.14086711E+01  -3.03684738E+01
   4.02500000E+02   5.00000000E-01   5.00000000E-01  -6.88131231E+00  -1.41702657E+01  -3.24880932E+00  -1.29772474E+00  -1.50390579E+00  -3.64330409E+00  -1.32914936E+01  -6.71547794E+00  -5.13738610E+00  -2.61986512E-01  -4.16610866E+00  -1.96401096E+00  -3.40372339E-01  -1.50609608E+00  -3.74334508E+00  -3.39655760E+00  -6.10658769E+00  -4.40755297E+00  -3.18180525E+00  -1.29713426E+01  -1.17212207E+01  -1.00348697E+01  -1.25867024E+01  -8.75854238E+00  -8.19824892E+00  -1.07340240E+01  -1.37598833E+01  -2.37826268E+00  -5.15571215E+00  -2.71469708E+00  -3.78562589E+00  -7.75796579E+00  -2.19618247E+00  -4.72377501E+00  -7.02492664E+00  -6.61642488E+00  -4.20524795E+00  -6.83346819E+00  -1.40045367E+02  -1.43916808E+02  -6.49539214E+00  -1.15798748E+01  -1.08227798E+01  -7.10841489E+00  -3.21812688E+00  -9.73181450E+00  -3.40695316E+00  -6.64292282E+01  -1.15704236E+01  -8.36499929E+00  -1.71389237E+00  -4.43147310E+01  -6.26509122E+00  -7.77150325E+00  -5.05685097E+00  -8.06148762E+00  -7.63518409E+00  -8.41857544E+00  -8.11393230E+00  -1.04489994E+01  -9.01064224E+00  -7.03356195E+00  -6.36425488E+00  -1.19777304E+01  -5.91549475E+00  -1.31306935E+01  -7.55414167E+00  -1.09451673E+01  -1.60962795E+01  -1.60965372E+01  -2.18791782E+01  -1.29600295E+01  -2.17788521E+01  -2.17791508E+01  -3.13942547E+01  -3.02051461E+01
   4.37500000E+02   5.00000000E-01   5.00000000E-01  -6.82797524E+00  -1.41064050E+01  -3.21099356E+00  -1.29813652E+00  -1.51622317E+00  -3.60894843E+00  -1.32298551E+01  -6.71585072E+00  -5.13767656E+00  -2.61725007E-01  -4.16586942E+00  -1.96441937E+00  -3.39654048E-01  -1.51244795E+00  -3.74310584E+00  -3.39631835E+00  -6.11698885E+00  -4.40731373E+00  -3.16572128E+00  -1.28981000E+01  -1.16357409E+01  -9.97481589E+00  -1.25188816E+01  -8.74129347E+00  -8.18434753E+00  -1.07570029E+01  -1.37122830E+01  -2.38326153E+00  -5.19582704E+00  -2.71939436E+00  -3.80539870E+00  -7.73429900E+00  -2.21211897E+00  -4.66504392E+00  -6.97968880E+00  -6.57176414E+00  -4.16972919E+00  -6.82141216E+00  -1.38985757E+02  -1.42825177E+02  -6.45783269E+00  -1.14790549E+01  -1.07517031E+01  -7.03641389E+00  -3.21377219E+00  -9.70811677E+00  -3.41166164E+00  -6.59240424E+01  -1.14987935E+01  -8.35504638E+00  -1.72421080E+00  -4.39928112E+01  -6.27363570E+00  -7.80847131E+00  -5.06508544E+00  -7.99093626E+00  -7.61788034E+00  -8.45423213E+00  -8.09314862E+00  -1.04936376E+01  -9.02773431E+00  -7.01044388E+00  -6.35664216E+00  -1.19359231E+01  -5.91650385E+00  -1.30144594E+01  -7.55013905E+00  -1.09520952E+01  -1.61033450E+01  -1.61036038E+01  -2.18892876E+01  -1.29632479E+01  -2.17896297E+01  -2.17899278E+01  -3.13828931E+01  -3.00439624E+01
   4.72500000E+02   5.00000000E-01   5.00000000E-01  -6.77557699E+00  -1.40437625E+01  -3.17368238E+00  -1.29855325E+00  -1.52882826E+00  -3.57736980E+00  -1.31693453E+01  -6.71623497E+00  -5.13795807E+00  -2.61449668E-01  -4.16561434E+00  -1.96484116E+00  -3.38939801E-01  -1.51910668E+00  -3.74285075E+00  -3.39606327E+00  -6.12819461E+00  -4.40705864E+00  -3.15007574E+00  -1.28257058E+01  -1.15510660E+01  -9.91520724E+00  -1.24518487E+01  -8.72429212E+00  -8.17020295E+00  -1.07801286E+01  -1.36653856E+01  -2.38871355E+00  -5.23623429E+00  -2.72397627E+00  -3.82443419E+00  -7.71127341E+00  -2.22832450E+00  -4.60888044E+00  -6.93646426E+00  -6.52976917E+00  -4.13696718E+00  -6.80975551E+00  -1.37939400E+02  -1.41747413E+02  -6.42150410E+00  -1.13802301E+01  -1.06809865E+01  -6.96538030E+00  -3.20913009E+00  -9.68470230E+00  -3.41628614E+00  -6.54245718E+01  -1.14273658E+01  -8.34487413E+00  -1.73427275E+00  -4.36746643E+01  -6.28290740E+00  -7.84548966E+00  -5.07583319E+00  -7.92445636E+00  -7.60371556E+00  -8.49204477E+00  -8.07305242E+00  -1.05389180E+01  -9.04503777E+00  -6.98753544E+00  -6.34866106E+00  -1.18946120E+01  -5.91771780E+00  -1.29010412E+01  -7.54694790E+00  -1.09599620E+01  -1.61117975E+01  -1.61120589E+01  -2.19012861E+01  -1.29679133E+01  -2.18022866E+01  -2.18025851E+01  -3.13742584E+01  -2.98847269E+01
   5.07500000E+02   5.00000000E-01   5.00000000E-01  -6.72407483E+00  -1.39823110E+01  -3.13690557E+00  -1.29897636E+00  -1.54170550E+00  -3.54820221E+00  -1.31097951E+01  -6.71663107E+00  -5.13823023E+00  -2.61160854E-01  -4.16534391E+00  -1.96527624E+00  -3.38228962E-01  -1.52604113E+00  -3.74258033E+00  -3.39579285E+00  -6.14022744E+00  -4.40678822E+00  -3.13480935E+00  -1.27541351E+01  -1.14672310E+01  -9.85612269E+00  -1.23856134E+01  -8.70759903E+00  -8.15583723E+00  -1.08034766E+01  -1.36192004E+01  -2.39465405E+00  -5.27697809E+00  -2.72845216E+00  -3.84277071E+00  -7.68889135E+00  -2.24479172E+00  -4.55494122E+00  -6.89493629E+00  -6.49010449E+00  -4.10660539E+00  -6.79849867E+00  -1.36906025E+02  -1.40683199E+02  -6.38641333E+00  -1.12833825E+01  -1.06106994E+01  -6.89526740E+00  -3.20422533E+00  -9.66159208E+00  -3.42082443E+00  -6.49307098E+01  -1.13562431E+01  -8.33452216E+00  -1.74408125E+00  -4.33602270E+01  -6.29295274E+00  -7.88264459E+00  -5.08881717E+00  -7.86168764E+00  -7.59237322E+00  -8.53174028E+00  -8.05370053E+00  -1.05848717E+01  -9.06262670E+00  -6.96489931E+00  -6.34033612E+00  -1.18538118E+01  -5.91914035E+00  -1.27903200E+01  -7.54446603E+00  -1.09686830E+01  -1.61215097E+01  -1.61217752E+01  -2.19150057E+01  -1.29738245E+01  -2.18166547E+01  -2.18169548E+01  -3.13680927E+01  -2.97273042E+01
   5.42500000E+02   5.00000000E-01   5.00000000E-01  -6.67343303E+00  -1.39220248E+01  -3.10069833E+00  -1.29940709E+00  -1.55484042E+00  -3.52115092E+00  -1.30510775E+01  -6.71703936E+00  -5.13849266E+00  -2.60858904E-01  -4.16505861E+00  -1.96572441E+00  -3.37520929E-01  -1.53322242E+00  -3.74229502E+00  -3.39550754E+00  -6.15310727E+00  -4.40650292E+00  -3.11987643E+00  -1.26833684E+01  -1.13842588E+01  -9.79761709E+00  -1.23201803E+01  -8.69127343E+00  -8.14127076E+00  -1.08271152E+01  -1.35737302E+01  -2.40111881E+00  -5.31809798E+00  -2.73283075E+00  -3.86044422E+00  -7.66714976E+00  -2.26151349E+00  -4.50295256E+00  -6.85485609E+00  -6.45249902E+00  -4.07835767E+00  -6.78763710E+00  -1.35885372E+02  -1.39632238E+02  -6.35257001E+00  -1.11885027E+01  -1.05408927E+01  -6.82603591E+00  -3.19908089E+00  -9.63880047E+00  -3.42527460E+00  -6.44423573E+01  -1.12855018E+01  -8.32402251E+00  -1.75363945E+00  -4.30494372E+01  -6.30381352E+00  -7.92001083E+00  -5.10382369E+00  -7.80234376E+00  -7.58360365E+00  -8.57310557E+00  -8.03514425E+00  -1.06315219E+01  -9.08056784E+00  -6.94259669E+00  -6.33169024E+00  -1.18135312E+01  -5.92077446E+00  -1.26821885E+01  -7.54261236E+00  -1.09781887E+01  -1.61323768E+01  -1.61326481E+01  -2.19303082E+01  -1.29808223E+01  -2.18325956E+01  -2.18328990E+01  -3.13641832E+01  -2.95715942E+01
   5.77500000E+02   5.00000000E-01   5.00000000E-01  -6.62362014E+00  -1.38628791E+01  -3.06509868E+00  -1.29984651E+00  -1.56821951E+00  -3.49597537E+00  -1.29930923E+01  -6.71746007E+00  -5.13874502E+00  -2.60544131E-01  -4.16475885E+00  -1.96618546E+00  -3.36815126E-01  -1.54062380E+00  -3.74199527E+00  -3.39520779E+00  -6.16685117E+00  -4.40620316E+00  -3.10523966E+00  -1.26133894E+01  -1.13021647E+01  -9.73973034E+00  -1.22555499E+01  -8.67537313E+00  -8.12652232E+00  -1.08511077E+01  -1.35289744E+01  -2.40814398E+00  -5.35963139E+00  -2.73712020E+00  -3.87748843E+00  -7.64604275E+00  -2.27848285E+00  -4.45269336E+00  -6.81602591E+00  -6.41673159E+00  -4.05199110E+00  -6.77716381E+00  -1.34877193E+02  -1.38594247E+02  -6.31998370E+00  -1.10955841E+01  -1.04716048E+01  -6.75765122E+00  -3.19371805E+00  -9.61633779E+00  -3.42963489E+00  -6.39594194E+01  -1.12152021E+01  -8.31340231E+00  -1.76295059E+00  -4.27422339E+01  -6.31552682E+00  -7.95765401E+00  -5.12068801E+00  -7.74619246E+00  -7.57720684E+00  -8.61597287E+00  -8.01742941E+00  -1.06788869E+01  -9.09892328E+00  -6.92068735E+00  -6.32274472E+00  -1.17737748E+01  -5.92262238E+00  -1.25765466E+01  -7.54131921E+00  -1.09884195E+01  -1.61443085E+01  -1.61445876E+01  -2.19470747E+01  -1.29887745E+01  -2.18499906E+01  -2.18502988E+01  -3.13623473E+01  -2.94175173E+01
   6.12500000E+02   5.00000000E-01   5.00000000E-01  -6.57460732E+00  -1.38048483E+01  -3.03014581E+00  -1.30029551E+00  -1.58183022E+00  -3.47247689E+00  -1.29357554E+01  -6.71789336E+00  -5.13898698E+00  -2.60216830E-01  -4.16444503E+00  -1.96665912E+00  -3.36111013E-01  -1.54822046E+00  -3.74168145E+00  -3.39489397E+00  -6.18147317E+00  -4.40588934E+00  -3.09086675E+00  -1.25441828E+01  -1.12209582E+01  -9.68249325E+00  -1.21917196E+01  -8.65995459E+00  -8.11160924E+00  -1.08755147E+01  -1.34849304E+01  -2.41576609E+00  -5.40161522E+00  -2.74132817E+00  -3.89393496E+00  -7.62556329E+00  -2.29569298E+00  -4.40398298E+00  -6.77828688E+00  -6.38262046E+00  -4.02731380E+00  -6.76707104E+00  -1.33881245E+02  -1.37568954E+02  -6.28866195E+00  -1.10046195E+01  -1.04028664E+01  -6.69008162E+00  -3.18815650E+00  -9.59421214E+00  -3.43390374E+00  -6.34818043E+01  -1.11453934E+01  -8.30268565E+00  -1.77201792E+00  -4.24385571E+01  -6.32812488E+00  -7.99563238E+00  -5.13928386E+00  -7.69304140E+00  -7.57302000E+00  -8.66020912E+00  -8.00059624E+00  -1.07269806E+01  -9.11775217E+00  -6.89922966E+00  -6.31351938E+00  -1.17345453E+01  -5.92468560E+00  -1.24732988E+01  -7.54052713E+00  -1.09993218E+01  -1.61572245E+01  -1.61575134E+01  -2.19651992E+01  -1.29975649E+01  -2.18687334E+01  -2.18690485E+01  -3.13624220E+01  -2.92650038E+01
   6.47500000E+02   5.00000000E-01   5.00000000E-01  -6.52636713E+00  -1.37479053E+01  -2.99587884E+00  -1.30075479E+00  -1.59566093E+00  -3.45048980E+00  -1.28789922E+01  -6.71833930E+00  -5.13921822E+00  -2.59877275E-01  -4.16411751E+00  -1.96714508E+00  -3.35408079E-01  -1.55598940E+00  -3.74135392E+00  -3.39456644E+00  -6.19698403E+00  -4.40556181E+00  -3.07672816E+00  -1.24757337E+01  -1.11406452E+01  -9.62593138E+00  -1.21286840E+01  -8.64507287E+00  -8.09654743E+00  -1.09003946E+01  -1.34415948E+01  -2.42402184E+00  -5.44408676E+00  -2.74546186E+00  -3.90981349E+00  -7.60570435E+00  -2.31313718E+00  -4.35667235E+00  -6.74151038E+00  -6.35001551E+00  -4.00416600E+00  -6.75735130E+00  -1.32897293E+02  -1.36556097E+02  -6.25860909E+00  -1.09155990E+01  -1.03347031E+01  -6.62329709E+00  -3.18241448E+00  -9.57243048E+00  -3.43807975E+00  -6.30094220E+01  -1.10761184E+01  -8.29189468E+00  -1.78084474E+00  -4.21383483E+01  -6.34163508E+00  -8.03399788E+00  -5.15951560E+00  -7.64272796E+00  -7.57090856E+00  -8.70570808E+00  -7.98467934E+00  -1.07758142E+01  -9.13711182E+00  -6.87828053E+00  -6.30403261E+00  -1.16958446E+01  -5.92696490E+00  -1.23723524E+01  -7.54018162E+00  -1.10108466E+01  -1.61710505E+01  -1.61713514E+01  -2.19845837E+01  -1.30070875E+01  -2.18887263E+01  -2.18890502E+01  -3.13642573E+01  -2.91139878E+01
   6.82500000E+02   5.00000000E-01   5.00000000E-01  -6.47887199E+00  -1.36920516E+01  -2.96233537E+00  -1.30122485E+00  -1.60970090E+00  -3.42987471E+00  -1.28226755E+01  -6.71879789E+00  -5.13943838E+00  -2.59525722E-01  -4.16377660E+00  -1.96764290E+00  -3.34705840E-01  -1.56390932E+00  -3.74101301E+00  -3.39422553E+00  -6.21339143E+00  -4.40522091E+00  -3.06279118E+00  -1.24080261E+01  -1.10612603E+01  -9.57010084E+00  -1.20664661E+01  -8.63078178E+00  -8.08135150E+00  -1.09258059E+01  -1.33989651E+01  -2.43294820E+00  -5.48708522E+00  -2.74952806E+00  -3.92515191E+00  -7.58646042E+00  -2.33080895E+00  -4.31063744E+00  -6.70559140E+00  -6.31879318E+00  -3.98241345E+00  -6.74799888E+00  -1.31925108E+02  -1.35555416E+02  -6.22982484E+00  -1.08285066E+01  -1.02671694E+01  -6.55726769E+00  -3.17650872E+00  -9.55100017E+00  -3.44216149E+00  -6.25421828E+01  -1.10074490E+01  -8.28105128E+00  -1.78943431E+00  -4.18415498E+01  -6.35608017E+00  -8.07279798E+00  -5.18131324E+00  -7.59511124E+00  -7.57075978E+00  -8.75238548E+00  -7.96970790E+00  -1.08253973E+01  -9.15705932E+00  -6.85789555E+00  -6.29430143E+00  -1.16576750E+01  -5.92946034E+00  -1.22736422E+01  -7.54022273E+00  -1.10229399E+01  -1.61857055E+01  -1.61860208E+01  -2.20051210E+01  -1.30172251E+01  -2.19098619E+01  -2.19101970E+01  -3.13676899E+01  -2.89643951E+01
   7.17500000E+02   5.00000000E-01   5.00000000E-01  -6.43209224E+00  -1.36373217E+01  -2.92954996E+00  -1.30170608E+00  -1.62394024E+00  -3.41051347E+00  -1.27666046E+01  -6.71926906E+00  -5.13964710E+00  -2.59162414E-01  -4.16342262E+00  -1.96815183E+00  -3.34003837E-01  -1.57196048E+00  -3.74065903E+00  -3.39387155E+00  -6.23070053E+00  -4.40486693E+00  -3.04901560E+00  -1.23410406E+01  -1.09828756E+01  -9.51510067E+00  -1.20051241E+01  -8.61713418E+00  -8.06603484E+00  -1.09518086E+01  -1.33570413E+01  -2.44258262E+00  -5.53065378E+00  -2.75353317E+00  -3.93997637E+00  -7.56782935E+00  -2.34870189E+00  -4.26577423E+00  -6.67044376E+00  -6.28885329E+00  -3.96194235E+00  -6.73901162E+00  -1.30964461E+02  -1.34566656E+02  -6.20230311E+00  -1.07433176E+01  -1.02003596E+01  -6.49196164E+00  -3.17045438E+00  -9.52993068E+00  -3.44614737E+00  -6.20799952E+01  -1.09394988E+01  -8.27017899E+00  -1.79778988E+00  -4.15481051E+01  -6.37147901E+00  -8.11207831E+00  -5.20462956E+00  -7.55006578E+00  -7.57247826E+00  -8.80017647E+00  -7.95570624E+00  -1.08757408E+01  -9.17765371E+00  -6.83812929E+00  -6.28434159E+00  -1.16200416E+01  -5.93217133E+00  -1.21771333E+01  -7.54057837E+00  -1.10355383E+01  -1.62010943E+01  -1.62014263E+01  -2.20266850E+01  -1.30278363E+01  -2.19320141E+01  -2.19323626E+01  -3.13725281E+01  -2.88161313E+01