 TITLE = "Total Concentrations" 
VARIABLES = "X"          "Y"              "Z"            "H+"             "Al+++"          "CO2(aq)"        "Mg++"           "Ca++"           "Fe++"           "Fe+++"          "Ba++"           "Sr++"           "Cl-"            "F-"             "K+"             "HS-"            "Na+"            "SO4--"          "O2(aq)"         "B(OH)3(aq)"     "HPO4--"         "NO3-"           "H4SiO4(aq)"     "HNO3(aq)"       "Al(OH)2+"       "AlO2-"          "AlOH++"         "BaHCO3+"        "BaCl+"          "BaCO3(aq)"      "BaOH+"          "HCO3-"          "CO3--"          "CaCl+"          "CaCl2(aq)"      "CaOH+"          "CaSO4(aq)"      "FeCl+"          "FeCl2(aq)"      "FeOH+"          "FeSO4(aq)"      "OH-"            "S2O3--"         "H2S(aq)"        "H2PO4-"         "H3PO4(aq)"      "HAlO2(aq)"      "HSO4-"          "KCl(aq)"        "KOH(aq)"        "KSO4-"          "NH3(aq)"        "NaAlO2(aq)"     "NaOH(aq)"       "NaSO4-"         "H2(aq)"         "CaHPO4(aq)"     "CaPO4-"         "FeCO3(aq)"      "FeH2PO4+"       "FeHPO4(aq)"     "FePO4-"         "KHPO4-"         "PO4---"         "Sr(CO3)(aq)"    "SrHCO3+"        "SrCl+"          "SrOH+"          "SrSO4(aq)"      "AlH3SiO4++"     "Si2O2(OH)5-"    "Si2O3(OH)4--"   "Si3O5(OH)5---"  "Si3O6(OH)3---"  "Si4O12H4----"   "Si4O6(OH)6--"   "Si4O7(OH)6----" "Si4O8(OH)4----" "Si6O15------"   "SiF6--"        
 ZONE I=         100 , J=           1 , K=           1  F=POINT
   1.75000000E+01   5.00000000E-01   5.00000000E-01  -7.78193041E+00  -1.82721127E+01  -3.92486182E+00  -1.30472967E+00  -2.01982527E+00  -3.38912605E+00  -1.14371372E+01  -6.71265829E+00  -5.10359642E+00  -2.62145793E-01  -4.16748106E+00  -1.95177752E+00  -1.00226942E+01  -3.35166634E-01  -1.83554417E+00  -7.74476396E+00  -3.39792999E+00  -5.93140366E+00  -4.40892536E+00  -2.77110488E+00  -1.40601753E+01  -1.54822547E+01  -1.29754740E+01  -1.64322306E+01  -8.92769723E+00  -8.30413187E+00  -1.01907813E+01  -1.40431034E+01  -2.34638967E+00  -4.49541577E+00  -3.26157651E+00  -4.10176895E+00  -8.41103229E+00  -2.99011809E+00  -4.69358341E+00  -6.78601755E+00  -6.18996459E+00  -4.27998016E+00  -6.73665052E+00  -1.49827912E+02  -1.08114760E+01  -7.10238122E+00  -1.31655433E+01  -1.41211713E+01  -8.56262511E+00  -3.20761373E+00  -9.71777915E+00  -3.68629644E+00  -6.44742641E+01  -1.45822421E+01  -8.16314201E+00  -1.91667183E+00  -4.60183123E+01  -6.67497130E+00  -7.57838384E+00  -4.02192836E+00  -8.39112489E+00  -7.05088750E+00  -6.94714065E+00  -8.22125386E+00  -9.67119958E+00  -8.50439337E+00  -7.23195059E+00  -6.36300232E+00  -1.21530016E+01  -6.20261276E+00  -1.70457355E+01  -6.18866740E+00  -9.22366887E+00  -1.35701507E+01  -1.35703952E+01  -1.84714284E+01  -1.01078126E+01  -1.83633430E+01  -1.83636150E+01  -2.67249489E+01  -3.25007061E+01
   5.25000000E+01   5.00000000E-01   5.00000000E-01  -7.61979011E+00  -1.78343560E+01  -3.80098692E+00  -1.31455126E+00  -1.99092637E+00  -3.19901925E+00  -1.16560395E+01  -6.71307150E+00  -5.10444877E+00  -2.62136486E-01  -4.16743256E+00  -1.95166207E+00  -9.99970177E+00  -3.34692967E-01  -1.82815951E+00  -7.74476210E+00  -3.39788149E+00  -5.95493792E+00  -4.40887686E+00  -2.58404081E+00  -1.38724386E+01  -1.51527641E+01  -1.28208644E+01  -1.60628539E+01  -8.90537324E+00  -8.29051498E+00  -1.02953095E+01  -1.40260345E+01  -2.35046813E+00  -4.61799688E+00  -3.23112142E+00  -4.10756016E+00  -8.38866482E+00  -2.96094436E+00  -4.47371985E+00  -6.59873222E+00  -6.05327961E+00  -4.08265027E+00  -6.77552786E+00  -1.47808909E+02  -1.06851251E+01  -6.98347789E+00  -1.28750480E+01  -1.38876069E+01  -8.36389251E+00  -3.20880844E+00  -9.74373820E+00  -3.68614395E+00  -6.35589245E+01  -1.44182923E+01  -8.22076918E+00  -1.92935389E+00  -4.54735865E+01  -6.66027038E+00  -7.68397390E+00  -3.97338140E+00  -8.08335722E+00  -6.90550134E+00  -6.96370470E+00  -8.20459505E+00  -9.81155718E+00  -8.59932727E+00  -7.20203953E+00  -6.36131459E+00  -1.21487431E+01  -6.19492690E+00  -1.64083693E+01  -5.92208964E+00  -9.03643276E+00  -1.32841321E+01  -1.32843883E+01  -1.80914551E+01  -9.59424536E+00  -1.79845009E+01  -1.79847915E+01  -2.61128871E+01  -3.18132118E+01
   8.75000000E+01   5.00000000E-01   5.00000000E-01  -7.51144653E+00  -1.76531632E+01  -3.72570887E+00  -1.32221169E+00  -1.96500565E+00  -3.13412967E+00  -1.17060720E+01  -6.71352143E+00  -5.10542294E+00  -2.62070845E-01  -4.16732927E+00  -1.95158165E+00  -9.97329927E+00  -3.34332483E-01  -1.82165104E+00  -7.74470554E+00  -3.39777820E+00  -5.96630756E+00  -4.40877357E+00  -2.50723938E+00  -1.37377129E+01  -1.49761645E+01  -1.27161631E+01  -1.58975264E+01  -8.87970590E+00  -8.27569079E+00  -1.03454267E+01  -1.39598045E+01  -2.35244311E+00  -4.68741442E+00  -3.20196682E+00  -4.11238275E+00  -8.31905705E+00  -2.93370631E+00  -4.37787498E+00  -6.53341345E+00  -5.99020289E+00  -4.00944878E+00  -6.76486826E+00  -1.45928801E+02  -1.06058288E+01  -6.90426243E+00  -1.26770574E+01  -1.37545109E+01  -8.21837552E+00  -3.20859361E+00  -9.71925046E+00  -3.68513642E+00  -6.27096101E+01  -1.43030421E+01  -8.22631850E+00  -1.94072593E+00  -4.49389350E+01  -6.63438248E+00  -7.72517343E+00  -3.99429184E+00  -7.94071834E+00  -6.87149550E+00  -7.03769441E+00  -8.17437997E+00  -9.88861868E+00  -8.64013498E+00  -7.16874245E+00  -6.35817724E+00  -1.20948078E+01  -6.18695682E+00  -1.60908492E+01  -5.82481841E+00  -8.96769505E+00  -1.31757337E+01  -1.31759955E+01  -1.79484910E+01  -9.41875358E+00  -1.78426521E+01  -1.78429533E+01  -2.58555376E+01  -3.14429299E+01
   1.22500000E+02   5.00000000E-01   5.00000000E-01  -7.41724079E+00  -1.75241876E+01  -3.66129329E+00  -1.32899485E+00  -1.94109335E+00  -3.10531927E+00  -1.17143299E+01  -6.71399018E+00  -5.10648023E+00  -2.61956539E-01  -4.16717548E+00  -1.95153040E+00  -9.94823930E+00  -3.34009906E-01  -1.81607643E+00  -7.74459857E+00  -3.39762441E+00  -5.97522577E+00  -4.40861978E+00  -2.46354707E+00  -1.36164410E+01  -1.48273084E+01  -1.26153240E+01  -1.57715351E+01  -8.85254674E+00  -8.25975798E+00  -1.03824810E+01  -1.38838816E+01  -2.35404586E+00  -4.74488784E+00  -3.17328009E+00  -4.11555540E+00  -8.24077436E+00  -2.90768609E+00  -4.31704104E+00  -6.50119353E+00  -5.95119253E+00  -3.97149754E+00  -6.74410456E+00  -1.44107696E+02  -1.05388827E+01  -6.83492271E+00  -1.25022040E+01  -1.36363373E+01  -8.08661636E+00  -3.20709557E+00  -9.68385353E+00  -3.68346909E+00  -6.18863917E+01  -1.41905035E+01  -8.21937200E+00  -1.95094414E+00  -4.44140746E+01  -6.60624320E+00  -7.75059042E+00  -4.03696593E+00  -7.84423237E+00  -6.86953482E+00  -7.12945563E+00  -8.14051879E+00  -9.95161180E+00  -8.66814314E+00  -7.13390620E+00  -6.35368431E+00  -1.20306754E+01  -6.17889322E+00  -1.58509656E+01  -5.78212046E+00  -8.94229188E+00  -1.31322415E+01  -1.31325049E+01  -1.78922063E+01  -9.35190516E+00  -1.77874654E+01  -1.77877712E+01  -2.57276414E+01  -3.11546842E+01
   1.57500000E+02   5.00000000E-01   5.00000000E-01  -7.32872717E+00  -1.74117361E+01  -3.60009427E+00  -1.33550835E+00  -1.91865799E+00  -3.08878614E+00  -1.17099693E+01  -6.71447645E+00  -5.10760481E+00  -2.61798942E-01  -4.16697485E+00  -1.95150395E+00  -9.92548385E+00  -3.33689826E-01  -1.81140136E+00  -7.74444485E+00  -3.39742378E+00  -5.98496455E+00  -4.40841915E+00  -2.43096886E+00  -1.35002774E+01  -1.46872911E+01  -1.25161316E+01  -1.56576104E+01  -8.82464442E+00  -8.24283152E+00  -1.04155234E+01  -1.38065554E+01  -2.35589052E+00  -4.79930951E+00  -3.14466292E+00  -4.11682816E+00  -8.16161971E+00  -2.88252145E+00  -4.26754232E+00  -6.47853440E+00  -5.92083867E+00  -3.94517121E+00  -6.72147051E+00  -1.42327985E+02  -1.04769978E+01  -6.77041952E+00  -1.23371033E+01  -1.35225813E+01  -7.96027698E+00  -3.20444121E+00  -9.64588848E+00  -3.68124946E+00  -6.10805781E+01  -1.40785571E+01  -8.20834296E+00  -1.96011283E+00  -4.38987416E+01  -6.57879502E+00  -7.77161629E+00  -4.08672453E+00  -7.76504280E+00  -6.87920062E+00  -7.22702793E+00  -8.10647664E+00  -1.00121004E+01  -8.69238732E+00  -7.09827985E+00  -6.34795153E+00  -1.19646512E+01  -6.17087056E+00  -1.56391275E+01  -5.75835528E+00  -8.93293321E+00  -1.31127365E+01  -1.31129988E+01  -1.78680224E+01  -9.32244392E+00  -1.77643609E+01  -1.77646671E+01  -2.56474442E+01  -3.08932503E+01
   1.92500000E+02   5.00000000E-01   5.00000000E-01  -7.24327973E+00  -1.73054015E+01  -3.53990341E+00  -1.34200179E+00  -1.89741847E+00  -3.07669758E+00  -1.17024182E+01  -6.71498227E+00  -5.10878775E+00  -2.61601990E-01  -4.16673054E+00  -1.95149904E+00  -9.90521362E+00  -3.33359409E-01  -1.80755160E+00  -7.74424754E+00  -3.39717947E+00  -5.99655093E+00  -4.40817484E+00  -2.40227013E+00  -1.33866896E+01  -1.45508616E+01  -1.24183987E+01  -1.55479504E+01  -8.79637137E+00  -8.22502299E+00  -1.04474219E+01  -1.37303099E+01  -2.35822003E+00  -4.85338968E+00  -3.11595875E+00  -4.11618424E+00  -8.08383416E+00  -2.85805252E+00  -4.22166355E+00  -6.45785049E+00  -5.89388517E+00  -3.92276499E+00  -6.69939434E+00  -1.40583640E+02  -1.04179123E+01  -6.70928231E+00  -1.21777526E+01  -1.34105781E+01  -7.83679128E+00  -3.20075096E+00  -9.60788581E+00  -3.67853965E+00  -6.02893092E+01  -1.39671256E+01  -8.19584688E+00  -1.96831047E+00  -4.33926846E+01  -6.55297819E+00  -7.79181552E+00  -4.13866521E+00  -7.69383564E+00  -6.89380146E+00  -7.32635407E+00  -8.07346092E+00  -1.00735867E+01  -8.71572294E+00  -7.06223862E+00  -6.34109392E+00  -1.18992366E+01  -6.16298393E+00  -1.54399900E+01  -5.74158138E+00  -8.93020818E+00  -1.31031110E+01  -1.31033711E+01  -1.78571201E+01  -9.30650704E+00  -1.77545185E+01  -1.77548229E+01  -2.55867771E+01  -3.06413919E+01
   2.27500000E+02   5.00000000E-01   5.00000000E-01  -7.15823226E+00  -1.71900394E+01  -3.47845899E+00  -1.34861497E+00  -1.87709653E+00  -3.06445568E+00  -1.17006948E+01  -6.71550914E+00  -5.11002024E+00  -2.61369228E-01  -4.16644526E+00  -1.95151279E+00  -9.88782882E+00  -3.33023818E-01  -1.80445538E+00  -7.74400937E+00  -3.39689419E+00  -6.01069426E+00  -4.40788956E+00  -2.37332857E+00  -1.32730964E+01  -1.44081168E+01  -1.23173777E+01  -1.54300563E+01  -8.76808792E+00  -8.20643467E+00  -1.04810815E+01  -1.36576762E+01  -2.36127657E+00  -4.90988917E+00  -3.08700398E+00  -4.11358971E+00  -8.00970682E+00  -2.83410910E+00  -4.17491432E+00  -6.43477142E+00  -5.86835296E+00  -3.89979510E+00  -6.68035820E+00  -1.38868574E+02  -1.03595308E+01  -6.64967351E+00  -1.20197336E+01  -1.32930539E+01  -7.71354475E+00  -3.19613610E+00  -9.57242157E+00  -3.67539434E+00  -5.95096897E+01  -1.38515796E+01  -8.18455468E+00  -1.97562403E+00  -4.28956620E+01  -6.52940286E+00  -7.81446051E+00  -4.19115365E+00  -7.62416657E+00  -6.90955744E+00  -7.42632694E+00  -8.04234483E+00  -1.01393041E+01  -8.74104322E+00  -7.02614518E+00  -6.33321702E+00  -1.18369792E+01  -6.15531626E+00  -1.52366431E+01  -5.72612431E+00  -8.93101580E+00  -1.30987193E+01  -1.30989775E+01  -1.78533005E+01  -9.29276338E+00  -1.77517384E+01  -1.77520400E+01  -2.55363803E+01  -3.03847784E+01
   2.62500000E+02   5.00000000E-01   5.00000000E-01  -7.06282213E+00  -1.69931113E+01  -3.40613284E+00  -1.35560944E+00  -1.85693696E+00  -3.03953865E+00  -1.17397228E+01  -6.71604988E+00  -5.11127884E+00  -2.61106201E-01  -4.16612139E+00  -1.95154165E+00  -9.87618276E+00  -3.32748847E-01  -1.80210283E+00  -7.74373268E+00  -3.39657032E+00  -6.03036962E+00  -4.40756569E+00  -2.33487894E+00  -1.31488118E+01  -1.42079546E+01  -1.21833269E+01  -1.52421316E+01  -8.74087678E+00  -8.18715305E+00  -1.05282339E+01  -1.35992791E+01  -2.36604444E+00  -4.98041872E+00  -3.05715037E+00  -4.10851776E+00  -7.94915020E+00  -2.81008846E+00  -4.11487257E+00  -6.39698748E+00  -5.84243665E+00  -3.86389780E+00  -6.67495360E+00  -1.37160641E+02  -1.02941019E+01  -6.58391505E+00  -1.18446830E+01  -1.31296344E+01  -7.57987744E+00  -3.19069936E+00  -9.55017099E+00  -3.67191817E+00  -5.87307307E+01  -1.37023449E+01  -8.18529096E+00  -1.98225026E+00  -4.24074400E+01  -6.51045083E+00  -7.85269057E+00  -4.24346285E+00  -7.53582774E+00  -6.91702220E+00  -7.52826866E+00  -8.01624930E+00  -1.02228586E+01  -8.78006173E+00  -6.99107768E+00  -6.32440392E+00  -1.17885128E+01  -6.14798086E+00  -1.49577543E+01  -5.70412389E+00  -8.93816927E+00  -1.31037861E+01  -1.31040437E+01  -1.78621927E+01  -9.26550897E+00  -1.77616492E+01  -1.77619483E+01  -2.55047281E+01  -3.00715097E+01
   2.97500000E+02   5.00000000E-01   5.00000000E-01  -6.96156209E+00  -1.67433199E+01  -3.32778528E+00  -1.36270895E+00  -1.83686410E+00  -3.00353279E+00  -1.18044649E+01  -6.71660494E+00  -5.11255444E+00  -2.60815919E-01  -4.16576097E+00  -1.95158335E+00  -9.86968083E+00  -3.32601115E-01  -1.80040783E+00  -7.74341955E+00  -3.39620990E+00  -6.05561406E+00  -4.40720527E+00  -2.29254325E+00  -1.30184218E+01  -1.39699729E+01  -1.20266643E+01  -1.50083475E+01  -8.71504485E+00  -8.16726854E+00  -1.05845717E+01  -1.35504869E+01  -2.37272850E+00  -5.06053896E+00  -3.02642326E+00  -4.10110938E+00  -7.89748897E+00  -2.78599152E+00  -4.04321832E+00  -6.34628567E+00  -5.81316888E+00  -3.81674096E+00  -6.67850767E+00  -1.35468120E+02  -1.02256945E+01  -6.51666417E+00  -1.16618442E+01  -1.29353764E+01  -7.44032489E+00  -3.18454018E+00  -9.53654415E+00  -3.66813930E+00  -5.79567327E+01  -1.35300043E+01  -8.19360746E+00  -1.98830728E+00  -4.19277977E+01  -6.49624610E+00  -7.90210662E+00  -4.29292177E+00  -7.43506010E+00  -6.91792810E+00  -7.62939994E+00  -7.99535163E+00  -1.03196406E+01  -8.82845926E+00  -6.95734421E+00  -6.31474759E+00  -1.17492200E+01  -6.14103153E+00  -1.46328598E+01  -5.68221510E+00  -8.95369998E+00  -1.31213544E+01  -1.31216136E+01  -1.78878640E+01  -9.23802473E+00  -1.77883175E+01  -1.77886156E+01  -2.54978873E+01  -2.97256330E+01
   3.32500000E+02   5.00000000E-01   5.00000000E-01  -6.87815907E+00  -1.66134854E+01  -3.26509579E+00  -1.36929390E+00  -1.81768634E+00  -2.98125865E+00  -1.18187576E+01  -6.71720048E+00  -5.11388239E+00  -2.60495059E-01  -4.16536581E+00  -1.95163860E+00  -9.86102083E+00  -3.32493985E-01  -1.79916164E+00  -7.74307176E+00  -3.39581475E+00  -6.07944091E+00  -4.40681012E+00  -2.25882324E+00  -1.29056987E+01  -1.38195002E+01  -1.19251599E+01  -1.48777985E+01  -8.68855043E+00  -8.14688215E+00  -1.06242505E+01  -1.34875041E+01  -2.37916960E+00  -5.12426292E+00  -2.99571659E+00  -4.09235814E+00  -7.83174053E+00  -2.76256333E+00  -3.98485041E+00  -6.30765625E+00  -5.78162287E+00  -3.78308638E+00  -6.66716461E+00  -1.33837440E+02  -1.01708520E+01  -6.46473918E+00  -1.15118083E+01  -1.28118740E+01  -7.31848392E+00  -3.17774520E+00  -9.50776215E+00  -3.66395540E+00  -5.72111917E+01  -1.34123293E+01  -8.18570499E+00  -1.99362523E+00  -4.14565206E+01  -6.48075596E+00  -7.93295852E+00  -4.33852785E+00  -7.36349991E+00  -6.93020835E+00  -7.72394825E+00  -7.97279255E+00  -1.03988332E+01  -8.86039831E+00  -6.92292220E+00  -6.30436970E+00  -1.16953368E+01  -6.13442687E+00  -1.44233154E+01  -5.66160285E+00  -8.95501902E+00  -1.31175372E+01  -1.31178012E+01  -1.78851407E+01  -9.21273089E+00  -1.77865693E+01  -1.77868687E+01  -2.54480652E+01  -2.94548181E+01
   3.67500000E+02   5.00000000E-01   5.00000000E-01  -6.80281576E+00  -1.65291722E+01  -3.20893544E+00  -1.37563939E+00  -1.79948788E+00  -2.96974237E+00  -1.18130761E+01  -6.71783367E+00  -5.11525295E+00  -2.60144908E-01  -4.16493749E+00  -1.95170631E+00  -9.85240413E+00  -3.32372015E-01  -1.79832521E+00  -7.74269090E+00  -3.39538643E+00  -6.10301691E+00  -4.40638180E+00  -2.23082377E+00  -1.28008938E+01  -1.37016059E+01  -1.18433407E+01  -1.47858230E+01  -8.66201469E+00  -8.12604846E+00  -1.06575887E+01  -1.34200030E+01  -2.38592210E+00  -5.18184259E+00  -2.96518529E+00  -4.08250206E+00  -7.76169665E+00  -2.73994596E+00  -3.93685841E+00  -6.27826410E+00  -5.75457367E+00  -3.76002223E+00  -6.65058497E+00  -1.32248343E+02  -1.01220987E+01  -6.41958524E+00  -1.13762745E+01  -1.27139577E+01  -7.20459441E+00  -3.17038130E+00  -9.47353937E+00  -3.65940449E+00  -5.64840783E+01  -1.33138594E+01  -8.17130717E+00  -1.99820708E+00  -4.09933908E+01  -6.46532872E+00  -7.95638952E+00  -4.38767600E+00  -7.30960654E+00  -6.95211354E+00  -7.81997112E+00  -7.94983242E+00  -1.04713101E+01  -8.88618805E+00  -6.88843501E+00  -6.29332877E+00  -1.16365498E+01  -6.12819899E+00  -1.42613458E+01  -5.64622193E+00  -8.95578527E+00  -1.31128350E+01  -1.31131074E+01  -1.78813403E+01  -9.19751520E+00  -1.77837220E+01  -1.77840259E+01  -2.53963247E+01  -2.92172978E+01
   4.02500000E+02   5.00000000E-01   5.00000000E-01  -6.73085511E+00  -1.64567544E+01  -3.15521833E+00  -1.38200455E+00  -1.78219538E+00  -2.96367530E+00  -1.18026988E+01  -6.71850200E+00  -5.11665474E+00  -2.59767678E-01  -4.16447740E+00  -1.95178498E+00  -9.84506126E+00  -3.32215530E-01  -1.79788256E+00  -7.74227835E+00  -3.39492633E+00  -6.12757495E+00  -4.40592170E+00  -2.20579497E+00  -1.26993747E+01  -1.35919333E+01  -1.17660756E+01  -1.47034498E+01  -8.63598367E+00  -8.10481950E+00  -1.06897171E+01  -1.33525429E+01  -2.39347056E+00  -5.23834601E+00  -2.93482277E+00  -4.07161353E+00  -7.69187602E+00  -2.71814071E+00  -3.89399313E+00  -6.25293157E+00  -5.73134380E+00  -3.74231823E+00  -6.63331812E+00  -1.30690872E+02  -1.00761001E+01  -6.37782942E+00  -1.12472399E+01  -1.26219148E+01  -7.09403410E+00  -3.16251148E+00  -9.43847439E+00  -3.65454241E+00  -5.57704911E+01  -1.32195061E+01  -8.15505273E+00  -2.00210861E+00  -4.05381987E+01  -6.45121519E+00  -7.97832280E+00  -4.44023463E+00  -7.26468876E+00  -6.97962553E+00  -7.91813499E+00  -7.92778847E+00  -1.05428944E+01  -8.91094771E+00  -6.85442826E+00  -6.28167821E+00  -1.15774292E+01  -6.12239609E+00  -1.41150243E+01  -5.63517763E+00  -8.95970892E+00  -1.31128216E+01  -1.31131067E+01  -1.78838837E+01  -9.19060399E+00  -1.77871960E+01  -1.77875084E+01  -2.53538577E+01  -2.89919014E+01
   4.37500000E+02   5.00000000E-01   5.00000000E-01  -6.66115175E+00  -1.63891816E+01  -3.10312200E+00  -1.38852258E+00  -1.76572793E+00  -2.96029929E+00  -1.17916229E+01  -6.71920548E+00  -5.11808035E+00  -2.59365260E-01  -4.16398676E+00  -1.95187336E+00  -9.83922998E+00  -3.32017712E-01  -1.79780837E+00  -7.74183534E+00  -3.39443569E+00  -6.15352400E+00  -4.40543106E+00  -2.18241906E+00  -1.26000567E+01  -1.34856027E+01  -1.16906150E+01  -1.46247325E+01  -8.61071963E+00  -8.08324611E+00  -1.07219381E+01  -1.32861403E+01  -2.40201809E+00  -5.29501366E+00  -2.90461013E+00  -4.05974772E+00  -7.62324266E+00  -2.69712658E+00  -3.85355121E+00  -6.22902232E+00  -5.71025721E+00  -3.72727951E+00  -6.61637020E+00  -1.29162173E+02  -1.00320739E+01  -6.33882255E+00  -1.11229729E+01  -1.25319610E+01  -6.98571821E+00  -3.15419466E+00  -9.40361908E+00  -3.64941165E+00  -5.50690876E+01  -1.31265709E+01  -8.13804139E+00  -2.00538368E+00  -4.00907434E+01  -6.43882950E+00  -8.00029111E+00  -4.49478848E+00  -7.22533187E+00  -7.01045310E+00  -8.01727957E+00  -7.90714643E+00  -1.06150362E+01  -8.93596949E+00  -6.82116449E+00  -6.26947118E+00  -1.15190034E+01  -6.11705663E+00  -1.39768926E+01  -5.62688811E+00  -8.96626240E+00  -1.31167106E+01  -1.31170133E+01  -1.78917165E+01  -9.18884689E+00  -1.77959371E+01  -1.77962624E+01  -2.53191177E+01  -2.87730694E+01
   4.72500000E+02   5.00000000E-01   5.00000000E-01  -6.59334395E+00  -1.63245759E+01  -3.05250325E+00  -1.39525870E+00  -1.75001399E+00  -2.95836966E+00  -1.17812038E+01  -6.71994451E+00  -5.11952366E+00  -2.58939225E-01  -4.16346664E+00  -1.95197038E+00  -9.83492906E+00  -3.31776582E-01  -1.79807249E+00  -7.74136295E+00  -3.39391557E+00  -6.18096468E+00  -4.40491095E+00  -2.16010884E+00  -1.25026145E+01  -1.33813823E+01  -1.16163374E+01  -1.45481335E+01  -8.58640211E+00  -8.06137477E+00  -1.07547132E+01  -1.32210538E+01  -2.41169056E+00  -5.35225143E+00  -2.87453242E+00  -4.04695797E+00  -7.55600981E+00  -2.67687890E+00  -3.81433734E+00  -6.20540263E+00  -5.69038925E+00  -3.71371135E+00  -6.59999174E+00  -1.27660921E+02  -9.98977505E+00  -6.30236567E+00  -1.10029515E+01  -1.24431982E+01  -6.87931498E+00  -3.14548467E+00  -9.36926513E+00  -3.64404450E+00  -5.43792942E+01  -1.30344824E+01  -8.12061299E+00  -2.00807953E+00  -3.96508307E+01  -6.42827879E+00  -8.02275548E+00  -4.55059191E+00  -7.19008597E+00  -7.04350705E+00  -8.11668204E+00  -7.88807493E+00  -1.06881187E+01  -8.96170568E+00  -6.78882385E+00  -6.25675683E+00  -1.14615419E+01  -6.11220796E+00  -1.38446437E+01  -5.62047096E+00  -8.97485591E+00  -1.31236212E+01  -1.31239466E+01  -1.79036601E+01  -9.19049101E+00  -1.78087668E+01  -1.78091099E+01  -2.52903606E+01  -2.85590030E+01
   5.07500000E+02   5.00000000E-01   5.00000000E-01  -6.52726818E+00  -1.62622399E+01  -3.00338666E+00  -1.40224664E+00  -1.73499130E+00  -2.95733773E+00  -1.17720341E+01  -6.72071938E+00  -5.12097892E+00  -2.58490934E-01  -4.16291802E+00  -1.95207518E+00  -9.83212318E+00  -3.31492132E-01  -1.79864443E+00  -7.74086213E+00  -3.39336695E+00  -6.20987792E+00  -4.40436232E+00  -2.13859310E+00  -1.24069165E+01  -1.32788274E+01  -1.15430184E+01  -1.44730985E+01  -8.56318122E+00  -8.03924694E+00  -1.07882813E+01  -1.31573478E+01  -2.42259027E+00  -5.41024969E+00  -2.84457854E+00  -4.03329570E+00  -7.49020466E+00  -2.65737304E+00  -3.77584683E+00  -6.18162397E+00  -5.67131418E+00  -3.70110545E+00  -6.58424251E+00  -1.26186202E+02  -9.94909542E+00  -6.26833313E+00  -1.08869207E+01  -1.23553183E+01  -6.77468471E+00  -3.13643009E+00  -9.33550883E+00  -3.63846708E+00  -5.37007393E+01  -1.29430626E+01  -8.10290980E+00  -2.01023815E+00  -3.92182727E+01  -6.41955102E+00  -8.04585894E+00  -4.60737006E+00  -7.15827105E+00  -7.07827025E+00  -8.21599292E+00  -7.87061421E+00  -1.07622129E+01  -8.98838613E+00  -6.75755694E+00  -6.24357928E+00  -1.14051199E+01  -6.10786905E+00  -1.37172806E+01  -5.61547995E+00  -8.98514002E+00  -1.31330319E+01  -1.31333854E+01  -1.79190165E+01  -9.19465494E+00  -1.78249871E+01  -1.78253533E+01  -2.52665573E+01  -2.83489900E+01
   5.42500000E+02   5.00000000E-01   5.00000000E-01  -6.46282836E+00  -1.62018422E+01  -2.95584785E+00  -1.40950598E+00  -1.72060531E+00  -2.95695925E+00  -1.17644241E+01  -6.72153017E+00  -5.12244037E+00  -2.58021605E-01  -4.16234173E+00  -1.95218703E+00  -9.83076070E+00  -3.31165196E-01  -1.79949538E+00  -7.74033373E+00  -3.39279066E+00  -6.24019324E+00  -4.40378604E+00  -2.11773429E+00  -1.23128944E+01  -1.31777261E+01  -1.14705383E+01  -1.43993714E+01  -8.54119146E+00  -8.01689921E+00  -1.08228025E+01  -1.30950228E+01  -2.43480962E+00  -5.46912749E+00  -2.81474004E+00  -4.01880954E+00  -7.42579737E+00  -2.63858520E+00  -3.73787447E+00  -6.15753211E+00  -5.65284429E+00  -3.68925077E+00  -6.56912187E+00  -1.24737249E+02  -9.90997119E+00  -6.23661023E+00  -1.07747000E+01  -1.22681800E+01  -6.67175121E+00  -3.12707450E+00  -9.30238149E+00  -3.63270168E+00  -5.30331224E+01  -1.28522337E+01  -8.08500625E+00  -2.01189746E+00  -3.87928873E+01  -6.41258202E+00  -8.06962459E+00  -4.66507186E+00  -7.12952305E+00  -7.11447427E+00  -8.31504362E+00  -7.85474488E+00  -1.08372762E+01  -9.01616215E+00  -6.72749841E+00  -6.22997759E+00  -1.13497482E+01  -6.10405235E+00  -1.35942493E+01  -5.61167147E+00  -8.99690291E+00  -1.31446274E+01  -1.31450147E+01  -1.79373629E+01  -9.20086178E+00  -1.78441752E+01  -1.78445702E+01  -2.52470883E+01  -2.81427016E+01
   5.77500000E+02   5.00000000E-01   5.00000000E-01  -6.39995724E+00  -1.61432027E+01  -2.90997814E+00  -1.41704970E+00  -1.70680806E+00  -2.95712377E+00  -1.17585576E+01  -6.72237676E+00  -5.12390220E+00  -2.57532359E-01  -4.16173854E+00  -1.95230532E+00  -9.83078415E+00  -3.30796967E-01  -1.80059894E+00  -7.73977851E+00  -3.39218747E+00  -6.27181559E+00  -4.40318285E+00  -2.09745352E+00  -1.22205049E+01  -1.30779622E+01  -1.13988206E+01  -1.43268190E+01  -8.52055496E+00  -7.99436372E+00  -1.08583997E+01  -1.30340542E+01  -2.44843395E+00  -5.52897355E+00  -2.78501039E+00  -4.00354495E+00  -7.36273837E+00  -2.62049250E+00  -3.70034416E+00  -6.13309719E+00  -5.63489768E+00  -3.67806415E+00  -6.55460682E+00  -1.23313369E+02  -9.87235522E+00  -6.20708183E+00  -1.06661334E+01  -1.21817097E+01  -6.57046438E+00  -3.11745681E+00  -9.26988782E+00  -3.62676771E+00  -5.23761753E+01  -1.27619570E+01  -8.06694708E+00  -2.01309204E+00  -3.83744979E+01  -6.40728172E+00  -8.09402046E+00  -4.72374090E+00  -7.10361153E+00  -7.15195562E+00  -8.41374137E+00  -7.84041536E+00  -1.09132181E+01  -9.04514793E+00  -6.69877021E+00  -6.21598601E+00  -1.12954114E+01  -6.10076503E+00  -1.34751870E+01  -5.60889296E+00  -9.00999735E+00  -1.31581888E+01  -1.31586157E+01  -1.79584053E+01  -9.20881609E+00  -1.78660376E+01  -1.78664670E+01  -2.52315248E+01  -2.79399647E+01
   6.12500000E+02   5.00000000E-01   5.00000000E-01  -6.33860213E+00  -1.60862165E+01  -2.86587024E+00  -1.42488757E+00  -1.69355736E+00  -2.95778103E+00  -1.17545523E+01  -6.72325897E+00  -5.12535854E+00  -2.57024242E-01  -4.16110911E+00  -1.95242952E+00  -9.83213365E+00  -3.30388784E-01  -1.80193125E+00  -7.73919714E+00  -3.39155804E+00  -6.30463714E+00  -4.40255342E+00  -2.07769971E+00  -1.21297157E+01  -1.29794675E+01  -1.13278137E+01  -1.42553688E+01  -8.50138151E+00  -7.97166858E+00  -1.08951728E+01  -1.29744059E+01  -2.46354099E+00  -5.58985959E+00  -2.75538450E+00  -3.98754421E+00  -7.30097165E+00  -2.60307300E+00  -3.66323581E+00  -6.10834097E+00  -5.61743905E+00  -3.66751757E+00  -6.54066578E+00  -1.21913915E+02  -9.83620665E+00  -6.17963026E+00  -1.05610734E+01  -1.20958680E+01  -6.47078644E+00  -3.10761169E+00  -9.23802013E+00  -3.62068233E+00  -5.17296480E+01  -1.26722136E+01  -8.04876158E+00  -2.01385343E+00  -3.79629333E+01  -6.40354575E+00  -8.11898553E+00  -4.78345602E+00  -7.08036412E+00  -7.19059435E+00  -8.51202216E+00  -7.82755433E+00  -1.09899256E+01  -9.07543450E+00  -6.67148148E+00  -6.20163443E+00  -1.12420821E+01  -6.09800968E+00  -1.33598286E+01  -5.60703547E+00  -9.02430740E+00  -1.31735440E+01  -1.31740163E+01  -1.79819122E+01  -9.21830911E+00  -1.78903430E+01  -1.78908127E+01  -2.52195302E+01  -2.77406752E+01
   6.47500000E+02   5.00000000E-01   5.00000000E-01  -6.27871855E+00  -1.60308191E+01  -2.82361067E+00  -1.43302764E+00  -1.68081611E+00  -2.95890877E+00  -1.17524878E+01  -6.72417663E+00  -5.12680358E+00  -2.56498241E-01  -4.16045404E+00  -1.95255923E+00  -9.83474819E+00  -3.29942014E-01  -1.80347087E+00  -7.73859021E+00  -3.39090297E+00  -6.33854348E+00  -4.40189835E+00  -2.05843654E+00  -1.20404996E+01  -1.28821996E+01  -1.12574801E+01  -1.41849810E+01  -8.48376750E+00  -7.94883834E+00  -1.09332035E+01  -1.29160371E+01  -2.48019932E+00  -5.65184477E+00  -2.72585848E+00  -3.97084650E+00  -7.24044036E+00  -2.58630557E+00  -3.62655349E+00  -6.08330535E+00  -5.60045373E+00  -3.65760648E+00  -6.52726459E+00  -1.20538272E+02  -9.80148631E+00  -6.15413539E+00  -1.04593752E+01  -1.20106342E+01  -6.37268586E+00  -3.09756989E+00  -9.20676455E+00  -3.61446067E+00  -5.10933021E+01  -1.25829953E+01  -8.03047001E+00  -2.01421042E+00  -3.75580272E+01  -6.40126160E+00  -8.14444220E+00  -4.84430411E+00  -7.05963432E+00  -7.23028828E+00  -8.60983127E+00  -7.81607753E+00  -1.10672753E+01  -9.10709476E+00  -6.64572758E+00  -6.18694880E+00  -1.11897272E+01  -6.09578502E+00  -1.32479656E+01  -5.60601373E+00  -9.03973479E+00  -1.31905470E+01  -1.31910706E+01  -1.80076872E+01  -9.22917892E+00  -1.79168955E+01  -1.79174115E+01  -2.52108185E+01  -2.75447615E+01
   6.82500000E+02   5.00000000E-01   5.00000000E-01  -6.22026701E+00  -1.59769683E+01  -2.78327509E+00  -1.44147694E+00  -1.66855175E+00  -2.96049805E+00  -1.17524193E+01  -6.72512974E+00  -5.12823170E+00  -2.55955298E-01  -4.15977385E+00  -1.95269411E+00  -9.83856633E+00  -3.29458010E-01  -1.80519864E+00  -7.73795825E+00  -3.39022279E+00  -6.37341740E+00  -4.40121817E+00  -2.03963643E+00  -1.19528314E+01  -1.27861304E+01  -1.11877913E+01  -1.41156333E+01  -8.46779448E+00  -7.92589451E+00  -1.09725568E+01  -1.28589053E+01  -2.49846641E+00  -5.71497651E+00  -2.69642938E+00  -3.95348802E+00  -7.18108939E+00  -2.57016974E+00  -3.59031107E+00  -6.05803835E+00  -5.58393624E+00  -3.64833558E+00  -6.51436922E+00  -1.19185850E+02  -9.76815451E+00  -6.13047567E+00  -1.03608947E+01  -1.19259977E+01  -6.27613440E+00  -3.08735859E+00  -9.17610417E+00  -3.60811610E+00  -5.04669080E+01  -1.24942987E+01  -8.01208683E+00  -2.01418927E+00  -3.71596186E+01  -6.40031248E+00  -8.17030342E+00  -4.90636696E+00  -7.04128782E+00  -7.27094244E+00  -8.70711598E+00  -7.80589216E+00  -1.11451401E+01  -9.14018507E+00  -6.62158866E+00  -6.17195170E+00  -1.11383113E+01  -6.09408647E+00  -1.31394233E+01  -5.60575726E+00  -9.05619311E+00  -1.32090694E+01  -1.32096502E+01  -1.80355577E+01  -9.24129269E+00  -1.79455226E+01  -1.79460910E+01  -2.52051375E+01  -2.73521666E+01