 TITLE = "Total Concentrations" 
VARIABLES = "X"          "Y"              "Z"            "H+"             "Al+++"          "CO2(aq)"        "Mg++"           "Ca++"           "Fe++"           "Fe+++"          "Cl-"            "K+"             "Na+"            "SO4--"          "O2(aq)"         "B(OH)3(aq)"     "HPO4--"         "NO3-"           "H4SiO4(aq)"     "HNO3(aq)"       "Al(OH)2+"       "AlO2-"          "AlOH++"         "HCO3-"          "CO3--"          "CaCl+"          "CaCl2(aq)"      "CaOH+"          "CaSO4(aq)"      "FeCl+"          "FeCl2(aq)"      "FeOH+"          "FeSO4(aq)"      "OH-"            "HS-"            "H2S(aq)"        "H2PO4-"         "H3PO4(aq)"      "HAlO2(aq)"      "HSO4-"          "KCl(aq)"        "KOH(aq)"        "KSO4-"          "NH3(aq)"        "NaAlO2(aq)"     "NaOH(aq)"       "NaSO4-"         "H2(aq)"         "CaHPO4(aq)"     "CaPO4-"         "FeCO3(aq)"      "FeH2PO4+"       "FeHPO4(aq)"     "FePO4-"         "KHPO4-"         "PO4---"         "S--"           
 ZONE I=          35 , J=           1 , K=           1  F=POINT
   5.00000000E+01   5.00000000E-01   5.00000000E-01  -9.63998368E+00  -3.39565183E+01  -6.25891031E+00  -1.29447974E+00  -2.05666023E+00  -7.15190678E+00  -1.29999809E+01  -2.64578056E-01  -1.95334388E+00  -3.33917800E-01  -1.78821681E+00  -3.74470853E+00  -3.39792104E+00  -6.50531190E+00  -4.40891641E+00  -5.13555620E+00  -1.56937125E+01  -2.57927743E+01  -1.84711548E+01  -2.95280137E+01  -2.62241479E+00  -2.62650948E+00  -3.24845868E+00  -4.33151133E+00  -5.41552367E+00  -2.99439867E+00  -8.18936503E+00  -1.05003878E+01  -7.26659031E+00  -7.95243880E+00  -3.98269505E+00  -1.41604453E+02  -1.44646099E+02  -9.64679097E+00  -1.74680628E+01  -2.20698692E+01  -1.01003971E+01  -3.18948048E+00  -6.83987083E+00  -3.65792765E+00  -6.85148152E+01  -1.99733907E+01  -5.50029707E+00  -1.97939596E+00  -4.38418232E+01  -7.16345498E+00  -5.88382983E+00  -6.00930790E+00  -1.47143960E+01  -1.15193020E+01  -9.55182422E+00  -8.43913887E+00  -8.08481294E+00  -1.48355964E+02
   1.50000000E+02   5.00000000E-01   5.00000000E-01  -9.56746992E+00  -3.26720619E+01  -6.19936713E+00  -1.29461171E+00  -2.05893890E+00  -7.12920514E+00  -1.29999585E+01  -2.64588622E-01  -1.95425243E+00  -3.33735643E-01  -1.78430916E+00  -3.74468610E+00  -3.39789862E+00  -6.53421044E+00  -4.40889399E+00  -6.23937603E+00  -1.55654883E+01  -2.42977500E+01  -1.68991954E+01  -2.81561306E+01  -2.61036610E+00  -2.63899170E+00  -3.22819037E+00  -4.35229010E+00  -5.24446822E+00  -2.98594320E+00  -8.09754084E+00  -1.04455342E+01  -7.14085032E+00  -7.90533552E+00  -3.87705402E+00  -1.38715898E+02  -1.41753822E+02  -9.61642141E+00  -1.73364960E+01  -2.05403753E+01  -9.95189954E+00  -3.17705182E+00  -6.70119048E+00  -3.64803178E+00  -6.71847934E+01  -1.83697601E+01  -5.39962510E+00  -1.98652479E+00  -4.29478808E+01  -7.15484971E+00  -5.87748812E+00  -6.00540938E+00  -1.46664510E+01  -1.15446253E+01  -9.64746716E+00  -8.37952327E+00  -8.13468301E+00  -1.45301297E+02
   2.50000000E+02   5.00000000E-01   5.00000000E-01  -9.50732281E+00  -3.20678484E+01  -6.14942339E+00  -1.29463486E+00  -2.06157308E+00  -7.12646908E+00  -1.29999522E+01  -2.64622552E-01  -1.95532560E+00  -3.33621587E-01  -1.78192108E+00  -3.74467980E+00  -3.39789232E+00  -6.57320289E+00  -4.40888769E+00  -6.92979452E+00  -1.54494155E+01  -2.34695629E+01  -1.59806842E+01  -2.74561182E+01  -2.60189932E+00  -2.64821899E+00  -3.20570350E+00  -4.36657559E+00  -5.07129280E+00  -2.97757937E+00  -8.02462967E+00  -1.04058095E+01  -7.02913148E+00  -7.87795249E+00  -3.76891537E+00  -1.35933708E+02  -1.38973317E+02  -9.60497348E+00  -1.72351926E+01  -1.96691394E+01  -9.81565737E+00  -3.16302241E+00  -6.55957534E+00  -3.63720041E+00  -6.59042021E+01  -1.74181781E+01  -5.29237793E+00  -1.99143780E+00  -4.20829735E+01  -7.15459233E+00  -5.86922644E+00  -6.01469979E+00  -1.46578583E+01  -1.15969808E+01  -9.75747393E+00  -8.32989615E+00  -8.18780801E+00  -1.42352301E+02
   3.50000000E+02   5.00000000E-01   5.00000000E-01  -9.45012756E+00  -3.18556686E+01  -6.09602233E+00  -1.29464290E+00  -2.06451935E+00  -7.12745759E+00  -1.29999467E+01  -2.64664093E-01  -1.95653449E+00  -3.33552224E-01  -1.78076921E+00  -3.74467435E+00  -3.39788687E+00  -6.61467122E+00  -4.40888224E+00  -7.35001607E+00  -1.53363258E+01  -2.30382803E+01  -1.54636972E+01  -2.71490323E+01  -2.59269696E+00  -2.65869316E+00  -3.18134252E+00  -4.37518365E+00  -4.90481527E+00  -2.96954837E+00  -7.95472752E+00  -1.03657329E+01  -6.92430860E+00  -7.85435596E+00  -3.66688482E+00  -1.33243878E+02  -1.36281878E+02  -9.59586804E+00  -1.71384446E+01  -1.91954396E+01  -9.68241424E+00  -3.14773875E+00  -6.42391460E+00  -3.62558582E+00  -6.46621397E+01  -1.68670816E+01  -5.18781013E+00  -1.99440811E+00  -4.12457231E+01  -7.15559600E+00  -5.86132154E+00  -6.02612498E+00  -1.46557494E+01  -1.16529045E+01  -9.86783158E+00  -8.28312549E+00  -8.24541198E+00  -1.39503899E+02
   4.50000000E+02   5.00000000E-01   5.00000000E-01  -9.39431530E+00  -3.16576986E+01  -6.03777086E+00  -1.29464531E+00  -2.06776772E+00  -7.13103586E+00  -1.29999416E+01  -2.64712375E-01  -1.95786666E+00  -3.33520321E-01  -1.78063775E+00  -3.74466922E+00  -3.39788173E+00  -6.65701518E+00  -4.40887710E+00  -7.74487185E+00  -1.52248557E+01  -2.26286983E+01  -1.49754379E+01  -2.68584723E+01  -2.58235091E+00  -2.67106215E+00  -3.15543221E+00  -4.37885267E+00  -4.74608221E+00  -2.96207888E+00  -7.88698413E+00  -1.03248238E+01  -6.82653386E+00  -7.83366827E+00  -3.57182318E+00  -1.30640532E+02  -1.33672677E+02  -9.58632155E+00  -1.70421284E+01  -1.87454567E+01  -9.55075079E+00  -3.13151097E+00  -6.29530551E+00  -3.61334758E+00  -6.34555925E+01  -1.63439780E+01  -5.08733049E+00  -1.99570318E+00  -4.04348289E+01  -7.15671365E+00  -5.85413414E+00  -6.03975786E+00  -1.46561680E+01  -1.17100059E+01  -9.97774604E+00  -8.23799676E+00  -8.30696169E+00  -1.36751289E+02
   5.50000000E+02   5.00000000E-01   5.00000000E-01  -9.33903544E+00  -3.14611602E+01  -5.97425686E+00  -1.29464492E+00  -2.07132115E+00  -7.13669002E+00  -1.29999367E+01  -2.64767114E-01  -1.95931259E+00  -3.33520416E-01  -1.78135930E+00  -3.74466433E+00  -3.39787685E+00  -6.69921737E+00  -4.40887222E+00  -8.11960241E+00  -1.51143088E+01  -2.22292478E+01  -1.45053878E+01  -2.65723678E+01  -2.57079848E+00  -2.68567773E+00  -3.12824789E+00  -4.37820399E+00  -4.59546838E+00  -2.95534965E+00  -7.82110864E+00  -1.02830973E+01  -6.73587417E+00  -7.81556629E+00  -3.48396128E+00  -1.28118768E+02  -1.31140494E+02  -9.57478666E+00  -1.69440228E+01  -1.83083011E+01  -9.41994305E+00  -3.11458851E+00  -6.17415851E+00  -3.60062284E+00  -6.22823094E+01  -1.58385867E+01  -4.99161475E+00  -1.99555601E+00  -3.96490641E+01  -7.15728442E+00  -5.84778928E+00  -6.05587557E+00  -1.46570200E+01  -1.17670393E+01  -1.00868463E+01  -8.19377497E+00  -8.37186109E+00  -1.34089930E+02
   6.50000000E+02   5.00000000E-01   5.00000000E-01  -9.28370607E+00  -3.12657429E+01  -5.90539114E+00  -1.29464311E+00  -2.07519403E+00  -7.14404685E+00  -1.29999320E+01  -2.64828162E-01  -1.96086502E+00  -3.33548158E-01  -1.78280434E+00  -3.74465965E+00  -3.39787217E+00  -6.74051428E+00  -4.40886754E+00  -8.47250756E+00  -1.50042136E+01  -2.18403144E+01  -1.40545141E+01  -2.62908503E+01  -2.55810289E+00  -2.70281520E+00  -3.10002253E+00  -4.37375796E+00  -4.45312158E+00  -2.94949384E+00  -7.75689812E+00  -1.02406014E+01  -6.65227964E+00  -7.79980752E+00  -3.40333775E+00  -1.25674196E+02  -1.28680810E+02  -9.56018258E+00  -1.68425979E+01  -1.78847801E+01  -9.28951262E+00  -3.09716805E+00  -6.06064324E+00  -3.58752548E+00  -6.11403532E+01  -1.53520570E+01  -4.90105800E+00  -1.99416568E+00  -3.88872699E+01  -7.15681907E+00  -5.84231270E+00  -6.07471636E+00  -1.46568219E+01  -1.18231016E+01  -1.01948323E+01  -8.14989143E+00  -8.43956289E+00  -1.31515522E+02
   7.50000000E+02   5.00000000E-01   5.00000000E-01  -9.22793854E+00  -3.10711123E+01  -5.83130336E+00  -1.29464060E+00  -2.07941086E+00  -7.15282192E+00  -1.29999275E+01  -2.64895473E-01  -1.96251864E+00  -3.33600086E-01  -1.78487332E+00  -3.74465512E+00  -3.39786764E+00  -6.78034890E+00  -4.40886301E+00  -8.80287287E+00  -1.48942557E+01  -2.14618968E+01  -1.36230713E+01  -2.60138379E+01  -2.54441438E+00  -2.72270014E+00  -3.07095406E+00  -4.36595023E+00  -4.31903467E+00  -2.94460625E+00  -7.69419447E+00  -1.01973826E+01  -6.57560698E+00  -7.78618721E+00  -3.32986410E+00  -1.23302835E+02  -1.26289650E+02  -9.54178105E+00  -1.67368331E+01  -1.74751311E+01  -9.15915310E+00  -3.07940208E+00  -5.95476188E+00  -3.57414807E+00  -6.00280265E+01  -1.48847778E+01  -4.81585361E+00  -1.99170041E+00  -3.81483512E+01  -7.15496749E+00  -5.83767433E+00  -6.09647179E+00  -1.46545356E+01  -1.18775414E+01  -1.03014602E+01  -8.10591150E+00  -8.50958701E+00  -1.29023999E+02
   8.50000000E+02   5.00000000E-01   5.00000000E-01  -9.17148790E+00  -3.08769863E+01  -5.75227306E+00  -1.29463776E+00  -2.08400487E+00  -7.16279038E+00  -1.29999231E+01  -2.64969079E-01  -1.96426987E+00  -3.33673457E-01  -1.78749060E+00  -3.74465072E+00  -3.39786324E+00  -6.81833590E+00  -4.40885861E+00  -9.11065655E+00  -1.47842345E+01  -2.10937806E+01  -1.32108660E+01  -2.57411610E+01  -2.52994220E+00  -2.74552148E+00  -3.04121150E+00  -4.35514549E+00  -4.19309184E+00  -2.94075011E+00  -7.63286272E+00  -1.01534713E+01  -6.50563983E+00  -7.77451767E+00  -3.26336545E+00  -1.21001055E+02  -1.23963475E+02  -9.51912949E+00  -1.66260967E+01  -1.70792442E+01  -9.02868286E+00  -3.06140628E+00  -5.85639708E+00  -3.56056442E+00  -5.89438235E+01  -1.44366515E+01  -4.73604570E+00  -1.98830117E+00  -3.74312733E+01  -7.15149641E+00  -5.83381596E+00  -6.12128545E+00  -1.46494619E+01  -1.19299032E+01  -1.04065352E+01  -8.06151279E+00  -8.58152711E+00  -1.26611503E+02
   9.50000000E+02   5.00000000E-01   5.00000000E-01  -9.11421554E+00  -3.06831762E+01  -5.66867654E+00  -1.29463478E+00  -2.08901654E+00  -7.17376803E+00  -1.29999188E+01  -2.65049086E-01  -1.96611671E+00  -3.33766114E-01  -1.79059996E+00  -3.74464642E+00  -3.39785894E+00  -6.85423111E+00  -4.40885431E+00  -9.39626435E+00  -1.46740316E+01  -2.07356544E+01  -1.28174418E+01  -2.54726416E+01  -2.51493129E+00  -2.77143836E+00  -3.01093967E+00  -4.34164893E+00  -4.07510270E+00  -2.93796298E+00  -7.57277853E+00  -1.01088758E+01  -6.44210698E+00  -7.76461710E+00  -3.20361020E+00  -1.18765524E+02  -1.21699101E+02  -9.49198941E+00  -1.65100524E+01  -1.66968148E+01  -8.89801032E+00  -3.04326588E+00  -5.76534771E+00  -3.54683241E+00  -5.78863924E+01  -1.40072846E+01  -4.66156895E+00  -1.98408527E+00  -3.67350574E+01  -7.14626908E+00  -5.83066862E+00  -6.14925347E+00  -1.46411601E+01  -1.19798836E+01  -1.05099059E+01  -8.01646549E+00  -8.65505014E+00  -1.24274381E+02
   1.05000000E+03   5.00000000E-01   5.00000000E-01  -9.05606019E+00  -3.04895878E+01  -5.58094465E+00  -1.29463175E+00  -2.09449195E+00  -7.18559914E+00  -1.29999146E+01  -2.65135658E-01  -1.96805860E+00  -3.33876367E-01  -1.79416103E+00  -3.74464220E+00  -3.39785472E+00  -6.88790410E+00  -4.40885009E+00  -9.66039715E+00  -1.45635856E+01  -2.03871672E+01  -1.24421884E+01  -2.52081229E+01  -2.49964256E+00  -2.80058307E+00  -2.98026309E+00  -4.32571567E+00  -3.96482800E+00  -2.93626186E+00  -7.51382140E+00  -1.00635810E+01  -6.38469891E+00  -7.75630440E+00  -3.15033233E+00  -1.16593163E+02  -1.19493637E+02  -9.46028573E+00  -1.63885845E+01  -1.63274295E+01  -8.76710760E+00  -3.02504108E+00  -5.68135643E+00  -3.53299676E+00  -5.68545064E+01  -1.35961032E+01  -4.59227952E+00  -1.97914992E+00  -3.60587775E+01  -7.13922636E+00  -5.82816284E+00  -6.18042606E+00  -1.46293853E+01  -1.20272981E+01  -1.06114595E+01  -7.97061449E+00  -8.72989194E+00  -1.22009168E+02
   1.15000000E+03   5.00000000E-01   5.00000000E-01  -8.99701622E+00  -3.02962068E+01  -5.48953047E+00  -1.29462873E+00  -2.10048117E+00  -7.19814910E+00  -1.29999104E+01  -2.65229015E-01  -1.97009637E+00  -3.34002912E-01  -1.79814661E+00  -3.74463803E+00  -3.39785055E+00  -6.91931503E+00  -4.40884592E+00  -9.90394662E+00  -1.44528751E+01  -2.00479567E+01  -1.20844091E+01  -2.49474776E+01  -2.48433671E+00  -2.83306130E+00  -2.94928894E+00  -4.30755866E+00  -3.86199823E+00  -2.93564745E+00  -7.45587207E+00  -1.00175500E+01  -6.33308192E+00  -7.74939799E+00  -3.10324738E+00  -1.14481118E+02  -1.17344438E+02  -9.42406644E+00  -1.62617391E+01  -1.59706161E+01  -8.63599127E+00  -3.00677172E+00  -5.60413008E+00  -3.51909165E+00  -5.58470420E+01  -1.32024253E+01  -4.52797842E+00  -1.97357548E+00  -3.54015573E+01  -7.13037036E+00  -5.82623423E+00  -6.21480960E+00  -1.46140405E+01  -1.20720547E+01  -1.07111172E+01  -7.92386400E+00  -8.80585035E+00  -1.19812580E+02
   1.25000000E+03   5.00000000E-01   5.00000000E-01  -8.93711848E+00  -3.01030839E+01  -5.39488637E+00  -1.29462573E+00  -2.10703674E+00  -7.21130103E+00  -1.29999063E+01  -2.65329427E-01  -1.97223217E+00  -3.34144750E-01  -1.80254040E+00  -3.74463391E+00  -3.39784643E+00  -6.94849616E+00  -4.40884180E+00  -1.01279271E+01  -1.43419066E+01  -1.97176641E+01  -1.17433608E+01  -2.46906071E+01  -2.46926160E+00  -2.86894996E+00  -2.91810948E+00  -4.28735526E+00  -3.76632582E+00  -2.93610782E+00  -7.39881299E+00  -9.97072929E+00  -6.28690957E+00  -7.74371772E+00  -3.06206260E+00  -1.12426733E+02  -1.15249064E+02  -9.38347316E+00  -1.61296833E+01  -1.56258720E+01  -8.50470949E+00  -2.98848124E+00  -5.53335362E+00  -3.50514316E+00  -5.48629624E+01  -1.28255046E+01  -4.46842796E+00  -1.96742843E+00  -3.47625668E+01  -7.11975173E+00  -5.82482603E+00  -6.25236878E+00  -1.45951440E+01  -1.21141363E+01  -1.08088322E+01  -7.87616595E+00  -8.88277740E+00  -1.17681499E+02
   1.35000000E+03   5.00000000E-01   5.00000000E-01  -8.87643297E+00  -2.99103236E+01  -5.29744942E+00  -1.29462277E+00  -2.11421235E+00  -7.22495536E+00  -1.29999022E+01  -2.65437212E-01  -1.97446934E+00  -3.34301135E-01  -1.80733524E+00  -3.74462982E+00  -3.39784234E+00  -6.97553820E+00  -4.40883771E+00  -1.03334349E+01  -1.42307079E+01  -1.93959406E+01  -1.14182761E+01  -2.44374408E+01  -2.45464285E+00  -2.90829326E+00  -2.88680415E+00  -4.26525290E+00  -3.67751196E+00  -2.93762149E+00  -7.34253137E+00  -9.92305459E+00  -6.24583132E+00  -7.73908914E+00  -3.02648200E+00  -1.10427527E+02  -1.13205259E+02  -9.33872151E+00  -1.59926789E+01  -1.52926802E+01  -8.37333467E+00  -2.97018011E+00  -5.46869837E+00  -3.49117139E+00  -5.39013078E+01  -1.24645567E+01  -4.41336221E+00  -1.96076403E+00  -3.41410196E+01  -7.10746081E+00  -5.82388971E+00  -6.29302898E+00  -1.45728090E+01  -1.21535904E+01  -1.09045879E+01  -7.82751198E+00  -8.96057105E+00  -1.15612971E+02
   1.45000000E+03   5.00000000E-01   5.00000000E-01  -8.81505192E+00  -2.97180790E+01  -5.19763368E+00  -1.29461985E+00  -2.12206188E+00  -7.23903178E+00  -1.29998981E+01  -2.65552734E-01  -1.97681247E+00  -3.34471513E-01  -1.81253163E+00  -3.74462574E+00  -3.39783826E+00  -7.00058063E+00  -4.40883363E+00  -1.05216290E+01  -1.41193256E+01  -1.90824509E+01  -1.11083728E+01  -2.41879344E+01  -2.44067740E+00  -2.95109759E+00  -2.85544149E+00  -4.24137406E+00  -3.59524924E+00  -2.94016030E+00  -7.28692394E+00  -9.87445873E+00  -6.20949900E+00  -7.73534935E+00  -2.99620736E+00  -1.08481188E+02  -1.11210939E+02  -9.29008962E+00  -1.58510683E+01  -1.49705172E+01  -8.24196040E+00  -2.95186870E+00  -5.40982584E+00  -3.47719235E+00  -5.29611893E+01  -1.21187713E+01  -4.36249265E+00  -1.95362859E+00  -3.35361705E+01  -7.09362221E+00  -5.82338451E+00  -6.33667866E+00  -1.45472341E+01  -1.21905236E+01  -1.09983982E+01  -7.77792868E+00  -9.03916708E+00  -1.13604189E+02
   1.55000000E+03   5.00000000E-01   5.00000000E-01  -8.75309222E+00  -2.95265499E+01  -5.09582764E+00  -1.29461697E+00  -2.13063894E+00  -7.25347263E+00  -1.29998941E+01  -2.65676397E-01  -1.97926727E+00  -3.34655492E-01  -1.81813641E+00  -3.74462168E+00  -3.39783420E+00  -7.02380505E+00  -4.40882957E+00  -1.06937246E+01  -1.40078255E+01  -1.87768741E+01  -1.08128556E+01  -2.39420712E+01  -2.42752944E+00  -2.99732624E+00  -2.82408110E+00  -4.21582091E+00  -3.51922175E+00  -2.94369209E+00  -7.23190281E+00  -9.82487999E+00  -6.17757149E+00  -7.73235371E+00  -2.97093668E+00  -1.06585555E+02  -1.09264179E+02  -9.23791230E+00  -1.57052690E+01  -1.46588552E+01  -8.11070132E+00  -2.93353981E+00  -5.35638841E+00  -3.46321956E+00  -5.20417858E+01  -1.17873164E+01  -4.31551056E+00  -1.94606152E+00  -3.29473127E+01  -7.07839203E+00  -5.82327636E+00  -6.38317228E+00  -1.45187012E+01  -1.22251017E+01  -1.10903086E+01  -7.72747496E+00  -9.11853107E+00  -1.11652490E+02
   1.65000000E+03   5.00000000E-01   5.00000000E-01  -8.69069553E+00  -2.93359845E+01  -4.99239527E+00  -1.29461413E+00  -2.13999689E+00  -7.26824694E+00  -1.29998900E+01  -2.65808641E-01  -1.98184059E+00  -3.34852797E-01  -1.82416175E+00  -3.74461761E+00  -3.39783013E+00  -7.04543022E+00  -4.40882550E+00  -1.08509958E+01  -1.38962948E+01  -1.84789043E+01  -1.05309132E+01  -2.36998625E+01  -2.41532856E+00  -3.04689477E+00  -2.79277585E+00  -4.18867967E+00  -3.44910388E+00  -2.94818348E+00  -7.17740157E+00  -9.77427032E+00  -6.14971823E+00  -7.72998269E+00  -2.95036104E+00  -1.04738617E+02  -1.07363211E+02  -9.18257848E+00  -1.55557733E+01  -1.43571620E+01  -7.97969465E+00  -2.91518072E+00  -5.30802819E+00  -3.44926540E+00  -5.11423430E+01  -1.14693381E+01  -4.27208723E+00  -1.93809699E+00  -3.23737756E+01  -7.06195673E+00  -5.82353651E+00  -6.43233372E+00  -1.44875763E+01  -1.22575501E+01  -1.11803970E+01  -7.67624059E+00  -9.19865079E+00  -1.09755346E+02
   1.75000000E+03   5.00000000E-01   5.00000000E-01  -8.62802936E+00  -2.91466822E+01  -4.88767938E+00  -1.29461132E+00  -2.15018949E+00  -7.28335433E+00  -1.29998859E+01  -2.65949937E-01  -1.98454036E+00  -3.35063249E-01  -1.83062411E+00  -3.74461353E+00  -3.39782605E+00  -7.06570773E+00  -4.40882142E+00  -1.09947810E+01  -1.37848440E+01  -1.81882505E+01  -1.02617143E+01  -2.34613493E+01  -2.40416982E+00  -3.09966788E+00  -2.76157419E+00  -4.16002500E+00  -3.38455902E+00  -2.95360261E+00  -7.12338094E+00  -9.72260282E+00  -6.12562182E+00  -7.72814805E+00  -2.93416120E+00  -1.02938502E+02  -1.05506420E+02  -9.12452980E+00  -1.54031489E+01  -1.40648994E+01  -7.84910216E+00  -2.89677500E+00  -5.26437525E+00  -3.43534227E+00  -5.02621731E+01  -1.11639578E+01  -4.23187347E+00  -1.92976537E+00  -3.18149226E+01  -7.04453251E+00  -5.82414003E+00  -6.48396054E+00  -1.44543127E+01  -1.22881559E+01  -1.12687743E+01  -7.62434483E+00  -9.27952883E+00  -1.07910356E+02
   1.85000000E+03   5.00000000E-01   5.00000000E-01  -8.56528780E+00  -2.89589951E+01  -4.78200644E+00  -1.29460855E+00  -2.16127197E+00  -7.29882818E+00  -1.29998818E+01  -2.66100777E-01  -1.98737558E+00  -3.35286732E-01  -1.83754346E+00  -3.74460943E+00  -3.39782195E+00  -7.08491769E+00  -4.40881732E+00  -1.11264879E+01  -1.36736096E+01  -1.79046355E+01  -1.00044032E+01  -2.32266035E+01  -2.39411569E+00  -3.15545870E+00  -2.73052281E+00  -4.12992415E+00  -3.32523888E+00  -2.95992208E+00  -7.06983344E+00  -9.66987787E+00  -6.10497998E+00  -7.72679791E+00  -2.92200452E+00  -1.01183476E+02  -1.03692343E+02  -9.06425861E+00  -1.52480393E+01  -1.37815214E+01  -7.71911197E+00  -2.87830406E+00  -5.22504599E+00  -3.42146345E+00  -4.94006543E+01  -1.08702697E+01  -4.19449900E+00  -1.92109443E+00  -3.12701493E+01  -7.02636466E+00  -5.82506430E+00  -6.53782922E+00  -1.44194513E+01  -1.23172679E+01  -1.13555836E+01  -7.57193446E+00  -9.36117548E+00  -1.06115238E+02
   1.95000000E+03   5.00000000E-01   5.00000000E-01  -8.50269172E+00  -2.87733282E+01  -4.67569211E+00  -1.29460579E+00  -2.17330241E+00  -7.31473750E+00  -1.29998777E+01  -2.66261655E-01  -1.99035631E+00  -3.35523177E-01  -1.84494249E+00  -3.74460531E+00  -3.39781783E+00  -7.10336374E+00  -4.40881320E+00  -1.12475963E+01  -1.35627544E+01  -1.76277960E+01  -9.75809690E+00  -2.29957275E+01  -2.38519964E+00  -3.21403058E+00  -2.69966931E+00  -4.09844111E+00  -3.27078396E+00  -2.96712180E+00  -7.01678645E+00  -9.61612760E+00  -6.08750694E+00  -7.72592011E+00  -2.91354296E+00  -9.94719304E+01  -1.01919662E+02  -9.00230454E+00  -1.50911613E+01  -1.35064733E+01  -7.58993933E+00  -2.85974838E+00  -5.18964227E+00  -3.40764387E+00  -4.85572293E+01  -1.05873395E+01  -4.15957254E+00  -1.91211032E+00  -3.07388812E+01  -7.00772623E+00  -5.82628754E+00  -6.59370131E+00  -1.43836196E+01  -1.23452948E+01  -1.14409990E+01  -7.51918092E+00  -9.44360210E+00  -1.04367824E+02
   2.05000000E+03   5.00000000E-01   5.00000000E-01  -8.44048805E+00  -2.85901384E+01  -4.56904706E+00  -1.29460306E+00  -2.18634335E+00  -7.33118730E+00  -1.29998735E+01  -2.66433054E-01  -1.99349360E+00  -3.35772537E-01  -1.85284588E+00  -3.74460116E+00  -3.39781368E+00  -7.12136749E+00  -4.40880905E+00  -1.13596566E+01  -1.34524686E+01  -1.73574813E+01  -9.52188487E+00  -2.27688537E+01  -2.37743125E+00  -3.27510151E+00  -2.66906481E+00  -4.06564049E+00  -3.22082510E+00  -2.97519175E+00  -6.96430369E+00  -9.56141843E+00  -6.07293428E+00  -7.72554393E+00  -2.90841217E+00  -9.78023806E+01  -1.00187201E+02  -8.93924939E+00  -1.49333000E+01  -1.32391915E+01  -7.46182648E+00  -2.84108861E+00  -5.15775144E+00  -3.39390072E+00  -4.77314033E+01  -1.03142048E+01  -4.12668261E+00  -1.90283837E+00  -3.02205724E+01  -6.98891591E+00  -5.82778737E+00  -6.65133033E+00  -1.43475266E+01  -1.23727011E+01  -1.15252216E+01  -7.46627642E+00  -9.52681489E+00  -1.02666053E+02
   2.15000000E+03   5.00000000E-01   5.00000000E-01  -8.37894806E+00  -2.84099308E+01  -4.46238285E+00  -1.29460035E+00  -2.20046331E+00  -7.34831740E+00  -1.29998694E+01  -2.66615419E-01  -1.99679950E+00  -3.36034771E-01  -1.86127977E+00  -3.74459698E+00  -3.39780949E+00  -7.13926249E+00  -4.40880487E+00  -1.14642849E+01  -1.33429682E+01  -1.70934528E+01  -9.29482985E+00  -2.25461423E+01  -2.37080235E+00  -3.33835074E+00  -2.63876648E+00  -4.03159089E+00  -3.17498592E+00  -2.98413444E+00  -6.91248485E+00  -9.50585168E+00  -6.06101104E+00  -7.72573976E+00  -2.90623162E+00  -9.61734567E+01  -9.84939169E+01  -8.87571039E+00  -1.47753015E+01  -1.29791040E+01  -7.33504143E+00  -2.82230648E+00  -5.12894741E+00  -3.38025383E+00  -4.69227409E+01  -1.00498769E+01  -4.09539934E+00  -1.89330376E+00  -2.97147035E+01  -6.97025503E+00  -5.82953949E+00  -6.71046881E+00  -1.43119549E+01  -1.24000010E+01  -1.16084753E+01  -7.41342935E+00  -9.61080935E+00  -1.01007964E+02
   2.25000000E+03   5.00000000E-01   5.00000000E-01  -8.31836501E+00  -2.82332536E+01  -4.35601744E+00  -1.29459765E+00  -2.21573802E+00  -7.36629958E+00  -1.29998651E+01  -2.66809128E-01  -2.00028700E+00  -3.36309824E-01  -1.87027110E+00  -3.74459275E+00  -3.39780527E+00  -7.15738805E+00  -4.40880064E+00  -1.15631553E+01  -1.32344934E+01  -1.68354837E+01  -9.07597097E+00  -2.23277791E+01  -2.36529381E+00  -3.40342693E+00  -2.60883947E+00  -3.99636790E+00  -3.13288586E+00  -2.99396691E+00  -6.86146350E+00  -9.44956222E+00  -6.05150296E+00  -7.72661712E+00  -2.90660584E+00  -9.45838958E+01  -9.68388899E+01  -8.81233249E+00  -1.46180631E+01  -1.27256320E+01  -7.20987589E+00  -2.80338555E+00  -5.10279244E+00  -3.36672610E+00  -4.61308626E+01  -9.79334530E+00  -4.06527684E+00  -1.88353205E+00  -2.92207805E+01  -6.95208396E+00  -5.83151646E+00  -6.77087514E+00  -1.42777502E+01  -1.24277502E+01  -1.16910008E+01  -7.36085925E+00  -9.69556544E+00  -9.93916941E+01
   2.35000000E+03   5.00000000E-01   5.00000000E-01  -8.25905106E+00  -2.80606922E+01  -4.25028006E+00  -1.29459496E+00  -2.23225136E+00  -7.38533314E+00  -1.29998608E+01  -2.67014463E-01  -2.00397004E+00  -3.36597612E-01  -1.87984711E+00  -3.74458847E+00  -3.39780099E+00  -7.17608316E+00  -4.40879636E+00  -1.16579890E+01  -1.31273060E+01  -1.65833575E+01  -8.86432797E+00  -2.21139716E+01  -2.36088242E+00  -3.46995714E+00  -2.57935851E+00  -3.96005633E+00  -3.09414352E+00  -3.00472219E+00  -6.81140322E+00  -9.39271534E+00  -6.04419086E+00  -7.72832081E+00  -2.90912627E+00  -9.30325345E+01  -9.52213150E+01  -8.74978003E+00  -1.44625222E+01  -1.24781922E+01  -7.08664248E+00  -2.78431182E+00  -5.07883962E+00  -3.35334367E+00  -4.53554401E+01  -9.54358182E+00  -4.03585623E+00  -1.87354959E+00  -2.87383331E+01  -6.93475806E+00  -5.83368660E+00  -6.83231932E+00  -1.42458083E+01  -1.24565357E+01  -1.17730493E+01  -7.30879176E+00  -9.78104369E+00  -9.78154669E+01
   2.45000000E+03   5.00000000E-01   5.00000000E-01  -8.20133367E+00  -2.78928616E+01  -4.14551478E+00  -1.29459228E+00  -2.25009568E+00  -7.40563881E+00  -1.29998565E+01  -2.67231570E-01  -2.00786337E+00  -3.36898006E-01  -1.89003490E+00  -3.74458414E+00  -3.39779666E+00  -7.19568083E+00  -4.40879203E+00  -1.17505413E+01  -1.30216863E+01  -1.63368680E+01  -8.65890702E+00  -2.19049458E+01  -2.35754732E+00  -3.53755614E+00  -2.55040877E+00  -3.92275169E+00  -3.05838007E+00  -3.01645009E+00  -6.76249204E+00  -9.33550175E+00  -6.03886792E+00  -7.73102526E+00  -2.91337398E+00  -9.15183004E+01  -9.36404908E+01  -8.68872798E+00  -1.43096450E+01  -1.22361992E+01  -6.96567119E+00  -2.76507423E+00  -5.05663602E+00  -3.34013610E+00  -4.45961914E+01  -9.29954749E+00  -4.00666932E+00  -1.86338384E+00  -2.82669134E+01  -6.91864322E+00  -5.83601321E+00  -6.89458724E+00  -1.42170602E+01  -1.24869653E+01  -1.18548744E+01  -7.25745365E+00  -9.86718239E+00  -9.62775925E+01
   2.55000000E+03   5.00000000E-01   5.00000000E-01  -8.14555092E+00  -2.77303970E+01  -4.04208218E+00  -1.29458960E+00  -2.26937155E+00  -7.42745096E+00  -1.29998521E+01  -2.67460426E-01  -2.01198259E+00  -3.37210817E-01  -1.90086090E+00  -3.74457976E+00  -3.39779228E+00  -7.21650266E+00  -4.40878765E+00  -1.18425846E+01  -1.29179288E+01  -1.60958184E+01  -8.45870832E+00  -2.17009405E+01  -2.35527543E+00  -3.60583581E+00  -2.52208605E+00  -3.88456099E+00  -3.02522314E+00  -3.02921717E+00  -6.71493507E+00  -9.27813062E+00  -6.03533624E+00  -7.73492706E+00  -2.91892343E+00  -9.00402030E+01  -9.20958061E+01  -8.62985242E+00  -1.41604121E+01  -1.19990697E+01  -6.84730494E+00  -2.74566509E+00  -5.03572681E+00  -3.32713643E+00  -4.38528754E+01  -9.06020042E+00  -3.97724304E+00  -1.85306358E+00  -2.78060949E+01  -6.90411091E+00  -5.83845412E+00  -6.95748308E+00  -1.41924550E+01  -1.25196541E+01  -1.19367243E+01  -7.20706807E+00  -9.95389605E+00  -9.47764609E+01
   2.65000000E+03   5.00000000E-01   5.00000000E-01  -8.09204566E+00  -2.75739418E+01  -3.94035820E+00  -1.29458693E+00  -2.29018675E+00  -7.45100809E+00  -1.29998477E+01  -2.67700802E-01  -2.01634404E+00  -3.37535785E-01  -1.91235045E+00  -3.74457531E+00  -3.39778783E+00  -7.23885339E+00  -4.40878320E+00  -1.19358862E+01  -1.28163362E+01  -1.58600205E+01  -8.26273658E+00  -2.15022016E+01  -2.35406566E+00  -3.67441462E+00  -2.49449616E+00  -3.84560248E+00  -2.99431120E+00  -3.04310594E+00  -6.66894522E+00  -9.22082083E+00  -6.03340297E+00  -7.74023558E+00  -2.92534763E+00  -8.85973240E+01  -9.05867251E+01  -8.57381975E+00  -1.40158023E+01  -1.17662273E+01  -6.73189360E+00  -2.72608037E+00  -5.01566072E+00  -3.31438116E+00  -4.31252842E+01  -8.82450674E+00  -3.94710539E+00  -1.84261910E+00  -2.73554709E+01  -6.89153242E+00  -5.84096188E+00  -7.02083004E+00  -1.41729393E+01  -1.25552107E+01  -1.20188336E+01  -7.15784960E+00  -1.00410754E+01  -9.33105377E+01
   2.75000000E+03   5.00000000E-01   5.00000000E-01  -8.04115753E+00  -2.74241313E+01  -3.84072938E+00  -1.29458426E+00  -2.31265456E+00  -7.47654148E+00  -1.29998432E+01  -2.67952234E-01  -2.02096475E+00  -3.37872569E-01  -1.92452735E+00  -3.74457079E+00  -3.39778331E+00  -7.26301543E+00  -4.40877868E+00  -1.20321777E+01  -1.27172124E+01  -1.56292942E+01  -8.07001557E+00  -2.13089737E+01  -2.35393141E+00  -3.74292762E+00  -2.46775345E+00  -3.80600462E+00  -2.96529932E+00  -3.05821313E+00  -6.62473222E+00  -9.16379018E+00  -6.03287672E+00  -7.74716176E+00  -2.93222544E+00  -8.71888051E+01  -8.91127680E+01  -8.52127352E+00  -1.38767717E+01  -1.15371099E+01  -6.61978606E+00  -2.70631996E+00  -4.99599745E+00  -3.30191012E+00  -4.24132343E+01  -8.59145539E+00  -3.91579318E+00  -1.83208219E+00  -2.69146538E+01  -6.88127202E+00  -5.84348470E+00  -7.08446951E+00  -1.41594326E+01  -1.25942202E+01  -1.21014141E+01  -7.10999907E+00  -1.01285892E+01  -9.18783597E+01
   2.85000000E+03   5.00000000E-01   5.00000000E-01  -7.99321275E+00  -2.72815726E+01  -3.74358392E+00  -1.29458160E+00  -2.33689105E+00  -7.50426258E+00  -1.29998386E+01  -2.68213999E-01  -2.02586233E+00  -3.38220741E-01  -1.93741347E+00  -3.74456620E+00  -3.39777872E+00  -7.28924271E+00  -4.40877409E+00  -1.21331156E+01  -1.26208518E+01  -1.54034669E+01  -7.87960740E+00  -2.11214894E+01  -2.35490148E+00  -3.81103715E+00  -2.44197840E+00  -3.76590397E+00  -2.93786633E+00  -3.07464696E+00  -6.58249018E+00  -9.10724334E+00  -6.03356492E+00  -7.75590538E+00  -2.93915119E+00  -8.58138347E+01  -8.76734877E+01  -8.47281851E+00  -1.37442280E+01  -1.13111788E+01  -6.51131984E+00  -2.68638785E+00  -4.97631757E+00  -3.28976632E+00  -4.17165555E+01  -8.36007772E+00  -3.88286217E+00  -1.82148615E+00  -2.64832739E+01  -6.87367862E+00  -5.84596840E+00  -7.14825963E+00  -1.41527991E+01  -1.26372262E+01  -1.21846472E+01  -7.06369775E+00  -1.02162880E+01  -9.04785307E+01