 TITLE = "Total Concentrations" 
VARIABLES = "X"          "Y"              "Z"            "H+"             "Al+++"          "CO2(aq)"        "Mg++"           "Ca++"           "Fe++"           "Fe+++"          "Ba++"           "Sr++"           "Li+"            "Rb+"            "Mn++"           "Zn++"           "Cu++"           "Cu+"            "Cl-"            "F-"             "K+"             "HS-"            "Na+"            "SO4--"          "O2(aq)"         "B(OH)3(aq)"     "HPO4--"         "NO3-"           "H4SiO4(aq)"     "Ti(OH)4(aq)"    "HNO3(aq)"       "Al(OH)2+"       "AlO2-"          "AlOH++"         "BaHCO3+"        "BaCl+"          "BaCO3(aq)"      "BaOH+"          "HCO3-"          "CO3--"          "CaCl+"          "CaCl2(aq)"      "CaOH+"          "CaSO4(aq)"      "FeCl+"          "FeCl2(aq)"      "FeOH+"          "FeSO4(aq)"      "OH-"            "LiCl(aq)"       "LiOH(aq)"       "RbCl(aq)"       "RbOH(aq)"       "S2O3--"         "H2S(aq)"        "H2PO4-"         "H3PO4(aq)"      "HAlO2(aq)"      "HSO4-"          "KCl(aq)"        "KOH(aq)"        "KSO4-"          "NH3(aq)"        "NaAlO2(aq)"     "NaOH(aq)"       "NaSO4-"         "H2(aq)"         "CaHPO4(aq)"     "CaPO4-"         "FeCO3(aq)"      "FeH2PO4+"       "FeHPO4(aq)"     "FePO4-"         "KHPO4-"         "PO4---"         "Sr(CO3)(aq)"    "SrHCO3+"        "SrCl+"          "SrOH+"          "SrSO4(aq)"      "AlH3SiO4++"     "Si2O2(OH)5-"    "Si2O3(OH)4--"   "Si3O5(OH)5---"  "Si3O6(OH)3---"  "Si4O12H4----"   "Si4O6(OH)6--"   "Si4O7(OH)6----" "Si4O8(OH)4----" "Si6O15------"   "SiF6--"        
 ZONE I=         200 , J=           1 , K=           1  F=POINT
   8.75000000E+00   5.00000000E-01   5.00000000E-01  -7.81464875E+00  -1.74726535E+01  -3.94023467E+00  -1.29415944E+00  -2.04426953E+00  -4.43228545E+00  -2.17527716E+01  -6.93821737E+00  -5.10352415E+00  -4.61181000E+00  -5.85969345E+00  -5.25278982E+00  -6.41112612E+00  -8.84705562E+00  -8.91431672E+00  -2.62095091E-01  -4.16749347E+00  -1.95183889E+00  -2.49426566E+01  -3.35550056E-01  -1.83620205E+00  -7.74473458E+00  -3.39794256E+00  -5.87585666E+00  -4.40893793E+00  -3.38760667E+00  -8.67854429E+00  -1.40992435E+01  -1.46720913E+01  -1.21379784E+01  -1.56237269E+01  -9.15148726E+00  -8.53305795E+00  -1.03911981E+01  -1.42816777E+01  -2.33803575E+00  -4.46561017E+00  -3.28617585E+00  -4.11698990E+00  -8.44229982E+00  -3.01337907E+00  -5.74402368E+00  -7.82803174E+00  -7.22799992E+00  -5.32368508E+00  -6.73542481E+00  -6.81007738E+00  -1.13520234E+01  -7.72972025E+00  -1.33774889E+01  -1.50319644E+02  -2.57489858E+01  -7.07441583E+00  -1.31725560E+01  -1.32951414E+01  -8.60316081E+00  -3.20717489E+00  -9.71976015E+00  -3.68502406E+00  -6.46974602E+01  -1.37472142E+01  -8.15714323E+00  -1.91233101E+00  -4.61561927E+01  -6.64612644E+00  -7.52730455E+00  -5.03034633E+00  -9.40612127E+00  -8.03319160E+00  -7.89667725E+00  -8.17567818E+00  -9.59451439E+00  -8.48171838E+00  -7.23209384E+00  -6.36337139E+00  -1.21627540E+01  -6.20354837E+00  -1.68748186E+01  -7.40289036E+00  -1.04262716E+01  -1.53752018E+01  -1.53754422E+01  -2.08780415E+01  -1.25312095E+01  -2.07696710E+01  -2.07699369E+01  -3.03443301E+01  -3.32096930E+01
   2.62500000E+01   5.00000000E-01   5.00000000E-01  -7.59532468E+00  -1.62926196E+01  -3.74412129E+00  -1.29678246E+00  -2.03627517E+00  -4.10147447E+00  -2.11586741E+01  -7.06389865E+00  -5.10390716E+00  -4.61180795E+00  -5.85983809E+00  -4.95200964E+00  -6.15484351E+00  -8.84639567E+00  -8.91498944E+00  -2.62098362E-01  -4.16749087E+00  -1.95178710E+00  -2.59231896E+01  -3.35355029E-01  -1.83174430E+00  -7.74473675E+00  -3.39794013E+00  -5.89156926E+00  -4.40893551E+00  -3.20366925E+00  -8.67723818E+00  -1.38673573E+01  -1.38217156E+01  -1.16503607E+01  -1.46158176E+01  -9.26941975E+00  -8.65206893E+00  -1.07101125E+01  -1.45357073E+01  -2.34333278E+00  -4.66768094E+00  -3.27785614E+00  -4.12739820E+00  -8.57492028E+00  -3.00504366E+00  -5.39866613E+00  -7.49951190E+00  -7.06160754E+00  -4.98907200E+00  -6.89200866E+00  -6.81001115E+00  -1.15122178E+01  -7.71895103E+00  -1.35278882E+01  -1.49024663E+02  -2.65404676E+01  -6.88118561E+00  -1.27555508E+01  -1.26306424E+01  -8.36518419E+00  -3.20817586E+00  -9.87016611E+00  -3.68468097E+00  -6.40984947E+01  -1.32553394E+01  -8.32386477E+00  -1.91857891E+00  -4.58812811E+01  -6.64975835E+00  -7.72917840E+00  -4.91182900E+00  -8.88265378E+00  -7.72916690E+00  -7.81191322E+00  -8.17171930E+00  -9.80616747E+00  -8.67026778E+00  -7.22074985E+00  -6.36291388E+00  -1.22978268E+01  -6.19929967E+00  -1.56410541E+01  -7.22636380E+00  -1.04268929E+01  -1.53735680E+01  -1.53738161E+01  -2.08765353E+01  -1.21880797E+01  -2.07687342E+01  -2.07690117E+01  -3.03211023E+01  -3.22247300E+01
   4.37500000E+01   5.00000000E-01   5.00000000E-01  -7.47397780E+00  -1.58000219E+01  -3.64412340E+00  -1.29925881E+00  -2.02845877E+00  -3.91471786E+00  -2.08578272E+01  -7.11543315E+00  -5.10434974E+00  -4.61179321E+00  -5.85997218E+00  -4.77596379E+00  -5.99473839E+00  -8.84572180E+00  -8.91564833E+00  -2.62087965E-01  -4.16747335E+00  -1.95174303E+00  -2.55930170E+01  -3.35161627E-01  -1.82761839E+00  -7.74472399E+00  -3.39792278E+00  -5.90526931E+00  -4.40891816E+00  -3.08193237E+00  -8.67610461E+00  -1.37332283E+01  -1.34638214E+01  -1.14604655E+01  -1.41976915E+01  -9.31180812E+00  -8.69659689E+00  -1.08562175E+01  -1.46187934E+01  -2.34758277E+00  -4.77144868E+00  -3.26926644E+00  -4.13693765E+00  -8.61065802E+00  -2.99669050E+00  -5.19703603E+00  -7.31417710E+00  -6.94184924E+00  -4.79830436E+00  -6.95172575E+00  -6.80958103E+00  -1.15752106E+01  -7.70812232E+00  -1.35813345E+01  -1.47933810E+02  -2.61183455E+01  -6.78340365E+00  -1.25317032E+01  -1.23610000E+01  -8.22512002E+00  -3.20879508E+00  -9.92345091E+00  -3.68420251E+00  -6.36006093E+01  -1.30608281E+01  -8.39300943E+00  -1.92454621E+00  -4.56089403E+01  -6.65100813E+00  -7.83084046E+00  -4.83836062E+00  -8.59874759E+00  -7.56673960E+00  -7.77072769E+00  -8.16535310E+00  -9.91853177E+00  -8.76026415E+00  -7.20803293E+00  -6.36209467E+00  -1.23360061E+01  -6.19507755E+00  -1.50607264E+01  -7.07692590E+00  -1.03573926E+01  -1.52667172E+01  -1.52669711E+01  -2.07347885E+01  -1.18989880E+01  -2.06275530E+01  -2.06278398E+01  -3.00872945E+01  -3.16916931E+01
   6.12500000E+01   5.00000000E-01   5.00000000E-01  -7.38721041E+00  -1.55195715E+01  -3.57723803E+00  -1.30163907E+00  -2.02081401E+00  -3.78433978E+00  -2.06600509E+01  -7.12420455E+00  -5.10482293E+00  -4.61176633E+00  -5.86009648E+00  -4.65100845E+00  -5.87799762E+00  -8.84503465E+00  -8.91629403E+00  -2.62064517E-01  -4.16744156E+00  -1.95170657E+00  -2.52998445E+01  -3.34973618E-01  -1.82380381E+00  -7.74469697E+00  -3.39789117E+00  -5.91757008E+00  -4.40888654E+00  -3.00108505E+00  -8.67515745E+00  -1.36334712E+01  -1.32498977E+01  -1.13465479E+01  -1.39574538E+01  -9.31042295E+00  -8.69803858E+00  -1.09246579E+01  -1.46256927E+01  -2.35115580E+00  -4.84066017E+00  -3.26041675E+00  -4.14563609E+00  -8.61288675E+00  -2.98831370E+00  -5.05147306E+00  -7.18438337E+00  -6.84443732E+00  -4.66370788E+00  -6.97794374E+00  -6.80880139E+00  -1.16043838E+01  -7.69723855E+00  -1.36012016E+01  -1.46920158E+02  -2.57669532E+01  -6.71830121E+00  -1.23748594E+01  -1.22010917E+01  -8.11956739E+00  -3.20904753E+00  -9.94299497E+00  -3.68358448E+00  -6.31403676E+01  -1.29419557E+01  -8.42797728E+00  -1.93023681E+00  -4.53391317E+01  -6.65050335E+00  -7.89631966E+00  -4.78603753E+00  -8.40395292E+00  -7.45885337E+00  -7.74946665E+00  -8.15721772E+00  -9.99560297E+00  -8.81543961E+00  -7.19430318E+00  -6.36090000E+00  -1.23406400E+01  -6.19085002E+00  -1.47005851E+01  -6.97534427E+00  -1.03019263E+01  -1.51808900E+01  -1.51811481E+01  -2.06211112E+01  -1.17054758E+01  -2.05144375E+01  -2.05147314E+01  -2.98954252E+01  -3.13357656E+01
   7.87500000E+01   5.00000000E-01   5.00000000E-01  -7.31599038E+00  -1.53199517E+01  -3.52481843E+00  -1.30394780E+00  -2.01333404E+00  -3.68414689E+00  -2.05082580E+01  -7.11201378E+00  -5.10531850E+00  -4.61172784E+00  -5.86021161E+00  -4.55404878E+00  -5.78605718E+00  -8.84433482E+00  -8.91692716E+00  -2.62028595E-01  -4.16739610E+00  -1.95167735E+00  -2.50245908E+01  -3.34791643E-01  -1.82028107E+00  -7.74465628E+00  -3.39784588E+00  -5.92919782E+00  -4.40884125E+00  -2.94710386E+00  -8.67438314E+00  -1.35490680E+01  -1.30866777E+01  -1.12533777E+01  -1.37828169E+01  -9.28744389E+00  -8.67821087E+00  -1.09566253E+01  -1.45972170E+01  -2.35441151E+00  -4.89468408E+00  -3.25131856E+00  -4.15352529E+00  -8.60061653E+00  -2.97991494E+00  -4.93580135E+00  -7.08397368E+00  -6.76220320E+00  -4.55909879E+00  -6.98966529E+00  -6.80768859E+00  -1.16187563E+01  -7.68630758E+00  -1.36065014E+01  -1.45945517E+02  -2.54482040E+01  -6.66759089E+00  -1.22477141E+01  -1.20766761E+01  -8.02949444E+00  -3.20895079E+00  -9.94781613E+00  -3.68282713E+00  -6.26987053E+01  -1.28435110E+01  -8.44780183E+00  -1.93565581E+00  -4.50718201E+01  -6.64899112E+00  -7.94539644E+00  -4.74806688E+00  -8.25378640E+00  -7.38005529E+00  -7.74171150E+00  -8.14806709E+00  -1.00571190E+01  -8.85517648E+00  -7.17993321E+00  -6.35933966E+00  -1.23307355E+01  -6.18661476E+00  -1.44342743E+01  -6.91259219E+00  -1.02704872E+01  -1.51310794E+01  -1.51313403E+01  -2.05554900E+01  -1.15894934E+01  -2.04493739E+01  -2.04496731E+01  -2.97754965E+01  -3.10668756E+01
   9.62500000E+01   5.00000000E-01   5.00000000E-01  -7.25474829E+00  -1.51714693E+01  -3.48141345E+00  -1.30620010E+00  -2.00601209E+00  -3.60294111E+00  -2.03857476E+01  -7.09042660E+00  -5.10583386E+00  -4.61167818E+00  -5.86031814E+00  -4.47479486E+00  -5.71019445E+00  -8.84362285E+00  -8.91754827E+00  -2.61980726E-01  -4.16733753E+00  -1.95165494E+00  -2.47616378E+01  -3.34613960E-01  -1.81703220E+00  -7.74460247E+00  -3.39778748E+00  -5.94035333E+00  -4.40878285E+00  -2.91004700E+00  -8.67376632E+00  -1.34744637E+01  -1.29555946E+01  -1.11734997E+01  -1.36496544E+01  -9.25454881E+00  -8.64869593E+00  -1.09693482E+01  -1.45504819E+01  -2.35744276E+00  -4.93915949E+00  -3.24198366E+00  -4.16063757E+00  -8.57939595E+00  -2.97149917E+00  -4.83884052E+00  -7.00178677E+00  -6.68951173E+00  -4.47329169E+00  -6.99243123E+00  -6.80625923E+00  -1.16238850E+01  -7.67533814E+00  -1.36027850E+01  -1.44998631E+02  -2.51509371E+01  -6.62592299E+00  -1.21393625E+01  -1.19747501E+01  -7.94933382E+00  -3.20852286E+00  -9.94347083E+00  -3.68193285E+00  -6.22700229E+01  -1.27580555E+01  -8.45805215E+00  -1.94080797E+00  -4.48069717E+01  -6.64669491E+00  -7.98386395E+00  -4.71892277E+00  -8.13169858E+00  -7.31936466E+00  -7.74205233E+00  -8.13812980E+00  -1.01088281E+01  -8.88513494E+00  -7.16503456E+00  -6.35742953E+00  -1.23118435E+01  -6.18237852E+00  -1.42276821E+01  -6.87434231E+00  -1.02543046E+01  -1.51041307E+01  -1.51043933E+01  -2.05203838E+01  -1.15223891E+01  -2.04148211E+01  -2.04151238E+01  -2.97012075E+01  -3.08528791E+01
   1.13750000E+02   5.00000000E-01   5.00000000E-01  -7.20058064E+00  -1.50611081E+01  -3.44419979E+00  -1.30841251E+00  -1.99884182E+00  -3.53479968E+00  -2.02838166E+01  -7.06491426E+00  -5.10636743E+00  -4.61161779E+00  -5.86041661E+00  -4.40775697E+00  -5.64560614E+00  -8.84289927E+00  -8.91815787E+00  -2.61921402E-01  -4.16726635E+00  -1.95163893E+00  -2.45080350E+01  -3.34437893E-01  -1.81404091E+00  -7.74453606E+00  -3.39771647E+00  -5.95115776E+00  -4.40871184E+00  -2.88309983E+00  -8.67329212E+00  -1.34067684E+01  -1.28494265E+01  -1.11054733E+01  -1.35478512E+01  -9.21728308E+00  -8.61498083E+00  -1.09712575E+01  -1.44938427E+01  -2.36030517E+00  -4.97702309E+00  -3.23242349E+00  -4.16700417E+00  -8.55210836E+00  -2.96307222E+00  -4.75468476E+00  -6.93193526E+00  -6.62333730E+00  -4.40037702E+00  -6.98911747E+00  -6.80452918E+00  -1.16226616E+01  -7.66433857E+00  -1.35929378E+01  -1.44073581E+02  -2.48693242E+01  -6.59053345E+00  -1.20441505E+01  -1.18909901E+01  -7.87618501E+00  -3.20778106E+00  -9.93284995E+00  -3.68090499E+00  -6.18513873E+01  -1.26841639E+01  -8.46163020E+00  -1.94569795E+00  -4.45445534E+01  -6.64375776E+00  -8.01476878E+00  -4.69565099E+00  -8.02900114E+00  -7.27099613E+00  -7.74760844E+00  -8.12755351E+00  -1.01537340E+01  -8.90827291E+00  -7.14968170E+00  -6.35518578E+00  -1.22868508E+01  -6.17814967E+00  -1.40638359E+01  -6.84985577E+00  -1.02455304E+01  -1.50882732E+01  -1.50885364E+01  -2.05000967E+01  -1.14826880E+01  -2.03950830E+01  -2.03953880E+01  -2.96490234E+01  -3.06754199E+01
   1.31250000E+02   5.00000000E-01   5.00000000E-01  -7.15128769E+00  -1.49778463E+01  -3.41107387E+00  -1.31060120E+00  -1.99181732E+00  -3.47618195E+00  -2.01958733E+01  -7.03797205E+00  -5.10691776E+00  -4.61154708E+00  -5.86050751E+00  -4.34965800E+00  -5.58936335E+00  -8.84216454E+00  -8.91875646E+00  -2.61851081E-01  -4.16718304E+00  -1.95162895E+00  -2.42615369E+01  -3.34260994E-01  -1.81129211E+00  -7.74445752E+00  -3.39763334E+00  -5.96176457E+00  -4.40862871E+00  -2.86189554E+00  -8.67294523E+00  -1.33437954E+01  -1.27615389E+01  -1.10470381E+01  -1.34685825E+01  -9.17823215E+00  -8.57957586E+00  -1.09671211E+01  -1.44319758E+01  -2.36307134E+00  -5.01052574E+00  -3.22264911E+00  -4.17265508E+00  -8.52093410E+00  -2.95464014E+00  -4.67980948E+00  -6.87091216E+00  -6.56233268E+00  -4.33682695E+00  -6.98189717E+00  -6.80251355E+00  -1.16172738E+01  -7.65331667E+00  -1.35791420E+01  -1.43165857E+02  -2.45989451E+01  -6.55939347E+00  -1.19578626E+01  -1.18209560E+01  -7.80785157E+00  -3.20674187E+00  -9.91814085E+00  -3.67974720E+00  -6.14405692E+01  -1.26195902E+01  -8.46073409E+00  -1.95033076E+00  -4.42845329E+01  -6.64035408E+00  -8.04048504E+00  -4.67699199E+00  -7.94012316E+00  -7.23157799E+00  -7.75720901E+00  -8.11651686E+00  -1.01941692E+01  -8.92686127E+00  -7.13396520E+00  -6.35262386E+00  -1.22579405E+01  -6.17393647E+00  -1.39295031E+01  -6.83258593E+00  -1.02398054E+01  -1.50769692E+01  -1.50772324E+01  -2.04859106E+01  -1.14572996E+01  -2.03814414E+01  -2.03817476E+01  -2.96058757E+01  -3.05214011E+01
   1.48750000E+02   5.00000000E-01   5.00000000E-01  -7.10529642E+00  -1.49131021E+01  -3.38055660E+00  -1.31277900E+00  -1.98493307E+00  -3.42481320E+00  -2.01172059E+01  -7.01073475E+00  -5.10748353E+00  -4.61146642E+00  -5.86059128E+00  -4.29838413E+00  -5.53954765E+00  -8.84141910E+00  -8.91934446E+00  -2.61770192E-01  -4.16708804E+00  -1.95162464E+00  -2.40205263E+01  -3.34081472E-01  -1.80877158E+00  -7.74436730E+00  -3.39753852E+00  -5.97232333E+00  -4.40853389E+00  -2.84379448E+00  -8.67270961E+00  -1.32839841E+01  -1.26864840E+01  -1.09958680E+01  -1.34048371E+01  -9.13861878E+00  -8.54363011E+00  -1.09597178E+01  -1.43675705E+01  -2.36581246E+00  -5.04129098E+00  -3.21267127E+00  -4.17761923E+00  -8.48742747E+00  -2.94620902E+00  -4.61195535E+00  -6.81647502E+00  -6.50578998E+00  -4.28037926E+00  -6.97231771E+00  -6.80022674E+00  -1.16092833E+01  -7.64227983E+00  -1.35629537E+01  -1.42272206E+02  -2.43366332E+01  -6.53109641E+00  -1.18775315E+01  -1.17607681E+01  -7.74276386E+00  -3.20542111E+00  -9.90090450E+00  -3.67846324E+00  -6.10359662E+01  -1.25620228E+01  -8.45693564E+00  -1.95471206E+00  -4.40268781E+01  -6.63665359E+00  -8.06275532E+00  -4.66232359E+00  -7.86138193E+00  -7.19900011E+00  -7.77031797E+00  -8.10519333E+00  -1.02318369E+01  -8.94254273E+00  -7.11797351E+00  -6.34975865E+00  -1.22266697E+01  -6.16974704E+00  -1.38149931E+01  -6.81881391E+00  -1.02349714E+01  -1.50669826E+01  -1.50672453E+01  -2.04735099E+01  -1.14387887E+01  -2.03695803E+01  -2.03698867E+01  -2.95652981E+01  -3.03819567E+01
   1.66250000E+02   5.00000000E-01   5.00000000E-01  -7.06156194E+00  -1.48608375E+01  -3.35168402E+00  -1.31495499E+00  -1.97818392E+00  -3.37915313E+00  -2.00446868E+01  -6.98372183E+00  -5.10806357E+00  -4.61137615E+00  -5.86066834E+00  -4.25249204E+00  -5.49483391E+00  -8.84066334E+00  -8.91992229E+00  -2.61679134E-01  -4.16698176E+00  -1.95162569E+00  -2.37839152E+01  -3.33898165E-01  -1.80646586E+00  -7.74426579E+00  -3.39743241E+00  -5.98295710E+00  -4.40842778E+00  -2.82727992E+00  -8.67256855E+00  -1.32263013E+01  -1.26203020E+01  -1.09500695E+01  -1.33516194E+01  -9.09903755E+00  -8.50767681E+00  -1.09506708E+01  -1.43021734E+01  -2.36858760E+00  -5.07040283E+00  -3.20250036E+00  -4.18192452E+00  -8.45261533E+00  -2.93778497E+00  -4.54959675E+00  -6.76711445E+00  -6.45320770E+00  -4.22950576E+00  -6.96139928E+00  -6.79768254E+00  -1.15997236E+01  -7.63123510E+00  -1.35454012E+01  -1.41390434E+02  -2.40802787E+01  -6.50473658E+00  -1.18012184E+01  -1.17075063E+01  -7.67988038E+00  -3.20383396E+00  -9.88217408E+00  -3.67705694E+00  -6.06365044E+01  -1.25095823E+01  -8.45127899E+00  -1.95884809E+00  -4.37715578E+01  -6.63279875E+00  -8.08276669E+00  -4.65121729E+00  -7.79033022E+00  -7.17185984E+00  -7.78657853E+00  -8.09372875E+00  -1.02678858E+01  -8.95641973E+00  -7.10178230E+00  -6.34660450E+00  -1.21940678E+01  -6.16558936E+00  -1.37137548E+01  -6.80653873E+00  -1.02300605E+01  -1.50568624E+01  -1.50571241E+01  -2.04609585E+01  -1.14231557E+01  -2.03575639E+01  -2.03578698E+01  -2.95243933E+01  -3.02514532E+01
   1.83750000E+02   5.00000000E-01   5.00000000E-01  -7.01941359E+00  -1.48169754E+01  -3.32385284E+00  -1.31713526E+00  -1.97156500E+00  -3.33811323E+00  -1.99763113E+01  -6.95717109E+00  -5.10865687E+00  -4.61127659E+00  -5.86073908E+00  -4.21095235E+00  -5.45426835E+00  -8.83989765E+00  -8.92049033E+00  -2.61578281E-01  -4.16686457E+00  -1.95163177E+00  -2.35509914E+01  -3.33710380E-01  -1.80436222E+00  -7.74415338E+00  -3.39731540E+00  -5.99376028E+00  -4.40831078E+00  -2.81152269E+00  -8.67250487E+00  -1.31700876E+01  -1.25602452E+01  -1.09082133E+01  -1.33055201E+01  -9.05978780E+00  -8.47196686E+00  -1.09409346E+01  -1.42366755E+01  -2.37144301E+00  -5.09855900E+00  -3.19214644E+00  -4.18559781E+00  -8.41715084E+00  -2.92937406E+00  -4.49165918E+00  -6.72177155E+00  -6.40416197E+00  -4.18312965E+00  -6.94978865E+00  -6.79489412E+00  -1.15892544E+01  -7.62018913E+00  -1.35271390E+01  -1.40519096E+02  -2.38285209E+01  -6.47975332E+00  -1.17277032E+01  -1.16590891E+01  -7.61853394E+00  -3.20199495E+00  -9.86260880E+00  -3.67553218E+00  -6.02414842E+01  -1.24608538E+01  -8.44443426E+00  -1.96274546E+00  -4.35185412E+01  -6.62890265E+00  -8.10130244E+00  -4.64330888E+00  -7.72531768E+00  -7.14917722E+00  -7.80568221E+00  -8.08223920E+00  -1.03030627E+01  -8.96920762E+00  -7.08545375E+00  -6.34317528E+00  -1.21607904E+01  -6.16147126E+00  -1.36215126E+01  -6.79476046E+00  -1.02247315E+01  -1.50460975E+01  -1.50463582E+01  -2.04475748E+01  -1.14084031E+01  -2.03447101E+01  -2.03450151E+01  -2.94821438E+01  -3.01264386E+01
   2.01250000E+02   5.00000000E-01   5.00000000E-01  -6.97842690E+00  -1.47788028E+01  -3.29669487E+00  -1.31932386E+00  -1.96507172E+00  -3.30089646E+00  -1.99108127E+01  -6.93118862E+00  -5.10926249E+00  -4.61116804E+00  -5.86080386E+00  -4.17300503E+00  -5.41714159E+00  -8.83912238E+00  -8.92104894E+00  -2.61467983E-01  -4.16673682E+00  -1.95164261E+00  -2.33212899E+01  -3.33517727E-01  -1.80244871E+00  -7.74403041E+00  -3.39718784E+00  -6.00480339E+00  -4.40818321E+00  -2.79609481E+00  -8.67250111E+00  -1.31149292E+01  -1.25044383E+01  -1.08692512E+01  -1.32642484E+01  -9.02102629E+00  -8.43661892E+00  -1.09310752E+01  -1.41715903E+01  -2.37441471E+00  -5.12620153E+00  -3.18161918E+00  -4.18866491E+00  -8.38144160E+00  -2.92098230E+00  -4.43735899E+00  -6.67967757E+00  -6.35827439E+00  -4.14046526E+00  -6.93788735E+00  -6.79187404E+00  -1.15782894E+01  -7.60914819E+00  -1.35085758E+01  -1.39657243E+02  -2.35804915E+01  -6.45580757E+00  -1.16562330E+01  -1.16140611E+01  -7.55830353E+00  -3.19991800E+00  -9.84262197E+00  -3.67389292E+00  -5.98504527E+01  -1.24148027E+01  -8.43682552E+00  -1.96641105E+00  -4.32677982E+01  -6.62505367E+00  -8.11887495E+00  -4.63826878E+00  -7.66520715E+00  -7.13023939E+00  -7.82734148E+00  -8.07081579E+00  -1.03378446E+01  -8.98136524E+00  -7.06903914E+00  -6.33948429E+00  -1.21272473E+01  -6.15740039E+00  -1.35355116E+01  -6.78303556E+00  -1.02189537E+01  -1.50346428E+01  -1.50349023E+01  -2.04332978E+01  -1.13936460E+01  -2.03309580E+01  -2.03312617E+01  -2.94384626E+01  -3.00048441E+01
   2.18750000E+02   5.00000000E-01   5.00000000E-01  -6.93833442E+00  -1.47445254E+01  -3.26999084E+00  -1.32152347E+00  -1.95869975E+00  -3.26690168E+00  -1.98473960E+01  -6.90581757E+00  -5.10987956E+00  -4.61105079E+00  -5.86086301E+00  -4.13807294E+00  -5.38291171E+00  -8.83833784E+00  -8.92159844E+00  -2.61348567E-01  -4.16659885E+00  -1.95165794E+00  -2.30945038E+01  -3.33319998E-01  -1.80071413E+00  -7.74389722E+00  -3.39705005E+00  -6.01613862E+00  -4.40804542E+00  -2.78079271E+00  -8.67253973E+00  -1.30605688E+01  -1.24516108E+01  -1.08324261E+01  -1.32262748E+01  -8.98283866E+00  -8.40168803E+00  -1.09214311E+01  -1.41072116E+01  -2.37753133E+00  -5.15360874E+00  -3.17092788E+00  -4.19115058E+00  -8.34573862E+00  -2.91261558E+00  -4.38610773E+00  -6.64025840E+00  -6.31520537E+00  -4.10092239E+00  -6.92594061E+00  -6.78863424E+00  -1.15670854E+01  -7.59811819E+00  -1.34899638E+01  -1.38804241E+02  -2.33356370E+01  -6.43269842E+00  -1.15863497E+01  -1.15714146E+01  -7.49892531E+00  -3.19761639E+00  -9.82247010E+00  -3.67214317E+00  -5.94631140E+01  -1.23706849E+01  -8.42871973E+00  -1.96985188E+00  -4.30192990E+01  -6.62132103E+00  -8.13582024E+00  -4.63579837E+00  -7.60919555E+00  -7.11451054E+00  -7.85128866E+00  -8.05953018E+00  -1.03725340E+01  -8.99318681E+00  -7.05258165E+00  -6.33554424E+00  -1.20936918E+01  -6.15338412E+00  -1.34539835E+01  -6.77121254E+00  -1.02128316E+01  -1.50226555E+01  -1.50229141E+01  -2.04183368E+01  -1.13785835E+01  -2.03165169E+01  -2.03168191E+01  -2.93936680E+01  -2.98854508E+01
   2.36250000E+02   5.00000000E-01   5.00000000E-01  -6.89896787E+00  -1.47129603E+01  -3.24361469E+00  -1.32373597E+00  -1.95244498E+00  -3.23566401E+00  -1.97855631E+01  -6.88107026E+00  -5.11050728E+00  -4.61092509E+00  -5.86091683E+00  -4.10570752E+00  -5.35115534E+00  -8.83754435E+00  -8.92213915E+00  -2.61220344E-01  -4.16645095E+00  -1.95167751E+00  -2.28704269E+01  -3.33117094E-01  -1.79914801E+00  -7.74375411E+00  -3.39690234E+00  -6.02780439E+00  -4.40789771E+00  -2.76553314E+00  -8.67260328E+00  -1.30068477E+01  -1.24009051E+01  -1.07971964E+01  -1.31905821E+01  -8.94527391E+00  -8.36719789E+00  -1.09122054E+01  -1.40437040E+01  -2.38081633E+00  -5.18095534E+00  -3.16008142E+00  -4.19307851E+00  -8.31019424E+00  -2.90427968E+00  -4.33745263E+00  -6.60307490E+00  -6.27465260E+00  -4.06404674E+00  -6.91409535E+00  -6.78518608E+00  -1.15558005E+01  -7.58710465E+00  -1.34714564E+01  -1.37959660E+02  -2.30936024E+01  -6.41030969E+00  -1.15177786E+01  -1.15304561E+01  -7.44023458E+00  -3.19510279E+00  -9.80231078E+00  -3.67028699E+00  -5.90792715E+01  -1.23279719E+01  -8.42028464E+00  -1.97307500E+00  -4.27730146E+01  -6.61775935E+00  -8.15236059E+00  -4.63563055E+00  -7.55670084E+00  -7.10157682E+00  -7.87727896E+00  -8.04843927E+00  -1.04073211E+01  -9.00486206E+00  -7.03611860E+00  -6.33136726E+00  -1.20602781E+01  -6.14942952E+00  -1.33757941E+01  -6.75928162E+00  -1.02065127E+01  -1.50103574E+01  -1.50106153E+01  -2.04029870E+01  -1.13631981E+01  -2.03016816E+01  -2.03019825E+01  -2.93482061E+01  -2.97675542E+01
   2.53750000E+02   5.00000000E-01   5.00000000E-01  -6.86022132E+00  -1.46833319E+01  -3.21749846E+00  -1.32596270E+00  -1.94630354E+00  -3.20681630E+00  -1.97250031E+01  -6.85694375E+00  -5.11114483E+00  -4.61079119E+00  -5.86096562E+00  -4.07555320E+00  -5.32153548E+00  -8.83674217E+00  -8.92267136E+00  -2.61083601E-01  -4.16629342E+00  -1.95170107E+00  -2.26489162E+01  -3.32908971E-01  -1.79774058E+00  -7.74360136E+00  -3.39674499E+00  -6.03982884E+00  -4.40774036E+00  -2.75029382E+00  -8.67267455E+00  -1.29536689E+01  -1.23517466E+01  -1.07631795E+01  -1.31564980E+01  -8.90836159E+00  -8.33315632E+00  -1.09035197E+01  -1.39811542E+01  -2.38428964E+00  -5.20835086E+00  -3.14908829E+00  -4.19447137E+00  -8.27489888E+00  -2.89598017E+00  -4.29103802E+00  -6.56778448E+00  -6.23634913E+00  -4.02948128E+00  -6.90243687E+00  -6.78154037E+00  -1.15445302E+01  -7.57611269E+00  -1.34531449E+01  -1.37123191E+02  -2.28541578E+01  -6.38857670E+00  -1.14503581E+01  -1.14907127E+01  -7.38212906E+00  -3.19238927E+00  -9.78223943E+00  -3.66832847E+00  -5.86987912E+01  -1.22862928E+01  -8.41162544E+00  -1.97608745E+00  -4.25289160E+01  -6.61441208E+00  -8.16864466E+00  -4.63752957E+00  -7.50729025E+00  -7.09111123E+00  -7.90509198E+00  -8.03758860E+00  -1.04423242E+01  -9.01651460E+00  -7.01968306E+00  -6.32696489E+00  -1.20270985E+01  -6.14554336E+00  -1.33002163E+01  -6.74729283E+00  -1.02001419E+01  -1.49979665E+01  -1.49982240E+01  -2.03875388E+01  -1.13475918E+01  -2.02867426E+01  -2.02870422E+01  -2.93025158E+01  -2.96507580E+01
   2.71250000E+02   5.00000000E-01   5.00000000E-01  -6.82202821E+00  -1.46551368E+01  -3.19161046E+00  -1.32820471E+00  -1.94027173E+00  -3.18006330E+00  -1.96655233E+01  -6.83342747E+00  -5.11179144E+00  -4.61064932E+00  -5.86100964E+00  -4.04732339E+00  -5.29377946E+00  -8.83593158E+00  -8.92319533E+00  -2.60938613E-01  -4.16612651E+00  -1.95172842E+00  -2.24298691E+01  -3.32695614E-01  -1.79648271E+00  -7.74343923E+00  -3.39657827E+00  -6.05223215E+00  -4.40757364E+00  -2.73508076E+00  -8.67273671E+00  -1.29009746E+01  -1.23037543E+01  -1.07301080E+01  -1.31235831E+01  -8.87212053E+00  -8.29956297E+00  -1.08954463E+01  -1.39196028E+01  -2.38796878E+00  -5.23586369E+00  -3.13795662E+00  -4.19535083E+00  -8.23990400E+00  -2.88772248E+00  -4.24657952E+00  -6.53411524E+00  -6.20006063E+00  -3.99694051E+00  -6.89101184E+00  -6.77770735E+00  -1.15333313E+01  -7.56514710E+00  -1.34350815E+01  -1.36294611E+02  -2.26171525E+01  -6.36746562E+00  -1.13839965E+01  -1.14518658E+01  -7.32454582E+00  -3.18948731E+00  -9.76231230E+00  -3.66627169E+00  -5.83215784E+01  -1.22453918E+01  -8.40280781E+00  -1.97889617E+00  -4.22869752E+01  -6.61131393E+00  -8.18477298E+00  -4.64128934E+00  -7.46063375E+00  -7.08285026E+00  -7.93453144E+00  -8.02701480E+00  -1.04776147E+01  -9.02822604E+00  -7.00330500E+00  -6.32234809E+00  -1.19942061E+01  -6.14173205E+00  -1.32267848E+01  -6.73531369E+00  -1.01938426E+01  -1.49856682E+01  -1.49859260E+01  -2.03722391E+01  -1.13319017E+01  -2.02719469E+01  -2.02722455E+01  -2.92569710E+01  -2.95348491E+01
   2.88750000E+02   5.00000000E-01   5.00000000E-01  -6.78434684E+00  -1.46280543E+01  -3.16594148E+00  -1.33046284E+00  -1.93434604E+00  -3.15516393E+00  -1.96070055E+01  -6.81050710E+00  -5.11244635E+00  -4.61049969E+00  -5.86104913E+00  -4.02078368E+00  -5.26766355E+00  -8.83511281E+00  -8.92371131E+00  -2.60785637E-01  -4.16595048E+00  -1.95175934E+00  -2.22132093E+01  -3.32477022E-01  -1.79536589E+00  -7.74326798E+00  -3.39640242E+00  -6.06502830E+00  -4.40739779E+00  -2.71991084E+00  -8.67277346E+00  -1.28487310E+01  -1.22566803E+01  -1.06977986E+01  -1.30915559E+01  -8.83656349E+00  -8.26641321E+00  -1.08880265E+01  -1.38590617E+01  -2.39186957E+00  -5.26353627E+00  -3.12669412E+00  -4.19573757E+00  -8.20523658E+00  -2.87951177E+00  -4.20384639E+00  -6.50184832E+00  -6.16558208E+00  -3.96619260E+00  -6.87984279E+00  -6.77369674E+00  -1.15222355E+01  -7.55421230E+00  -1.34172939E+01  -1.35473745E+02  -2.23824857E+01  -6.34696069E+00  -1.13186447E+01  -1.14137050E+01  -7.26744682E+00  -3.18640784E+00  -9.74256096E+00  -3.66412071E+00  -5.79475637E+01  -1.22050967E+01  -8.39387233E+00  -1.98150805E+00  -4.20471642E+01  -6.60849258E+00  -8.20081411E+00  -4.64673095E+00  -7.41647363E+00  -7.07657777E+00  -7.96542354E+00  -8.01674734E+00  -1.05132338E+01  -9.04005118E+00  -6.98701205E+00  -6.31752724E+00  -1.19616293E+01  -6.13800163E+00  -1.31552044E+01  -6.72340886E+00  -1.01877107E+01  -1.49736069E+01  -1.49738655E+01  -2.03572800E+01  -1.13162587E+01  -2.02574863E+01  -2.02577844E+01  -2.92118625E+01  -2.94197228E+01
   3.06250000E+02   5.00000000E-01   5.00000000E-01  -6.74715129E+00  -1.46018866E+01  -3.14049618E+00  -1.33273781E+00  -1.92852315E+00  -3.13191867E+00  -1.95493789E+01  -6.78816658E+00  -5.11310877E+00  -4.61034251E+00  -5.86108434E+00  -3.99573994E+00  -5.24300195E+00  -8.83428610E+00  -8.92421955E+00  -2.60624919E-01  -4.16576555E+00  -1.95179365E+00  -2.19988768E+01  -3.32253201E-01  -1.79438217E+00  -7.74308784E+00  -3.39621768E+00  -6.07822622E+00  -4.40721305E+00  -2.70480304E+00  -8.67276908E+00  -1.27969199E+01  -1.22103680E+01  -1.06661284E+01  -1.30602417E+01  -8.80169969E+00  -8.23370016E+00  -1.08812831E+01  -1.37995257E+01  -2.39600658E+00  -5.29139471E+00  -3.11530816E+00  -4.19565134E+00  -8.17090821E+00  -2.87135302E+00  -4.16264889E+00  -6.47080536E+00  -6.13273435E+00  -3.93704691E+00  -6.86893712E+00  -6.76951776E+00  -1.15112593E+01  -7.54331238E+00  -1.33997946E+01  -1.34660454E+02  -2.21500887E+01  -6.32705636E+00  -1.12542789E+01  -1.13760956E+01  -7.21080973E+00  -3.18316122E+00  -9.72300140E+00  -3.66187956E+00  -5.75766935E+01  -1.21652949E+01  -8.38484370E+00  -1.98392981E+00  -4.18094556E+01  -6.60596988E+00  -8.21681500E+00  -4.65369965E+00  -7.37460394E+00  -7.07211365E+00  -7.99761474E+00  -8.00680975E+00  -1.05492021E+01  -9.05202765E+00  -6.97082993E+00  -6.31251221E+00  -1.19293811E+01  -6.13435778E+00  -1.30852897E+01  -6.71163162E+00  -1.01818150E+01  -1.49618865E+01  -1.49621465E+01  -2.03427996E+01  -1.13007713E+01  -2.02434989E+01  -2.02437970E+01  -2.91674005E+01  -2.93053373E+01