 TITLE = "Total Concentrations" 
VARIABLES = "X"          "Y"              "Z"            "H+"             "Al+++"          "CO2(aq)"        "Mg++"           "Ca++"           "Fe++"           "Fe+++"          "Cl-"            "K+"             "Na+"            "SiO2(aq)"       "SO4--"          "O2(aq)"         "B(OH)3(aq)"     "HPO4--"         "NO3-"           "H4SiO4(aq)"     "HNO3(aq)"       "Al(OH)2+"       "AlO2-"          "AlOH++"         "HCO3-"          "CO3--"          "CaCl+"          "CaCl2(aq)"      "CaOH+"          "CaSO4(aq)"      "FeCl+"          "FeCl2(aq)"      "FeOH+"          "FeSO4(aq)"      "OH-"            "HS-"            "H2S(aq)"        "H2PO4-"         "H3PO4(aq)"      "HAlO2(aq)"      "HSO4-"          "KCl(aq)"        "KOH(aq)"        "KSO4-"          "NH3(aq)"        "NaAlO2(aq)"     "NaOH(aq)"       "NaSO4-"         "H2(aq)"         "CaHPO4(aq)"     "CaPO4-"         "FeCO3(aq)"      "FeH2PO4+"       "FeHPO4(aq)"     "FePO4-"         "KHPO4-"         "PO4---"         "S--"           
 ZONE I=           1 , J=           1 , K=           1  F=POINT
   5.00000000E-01   5.00000000E-01   5.00000000E-01  -6.66958568E+00  -1.38010736E+01  -5.13707487E+00  -9.05636211E-01   1.16637492E+00  -7.65032281E+00  -1.29999998E+01  -2.65854775E+00  -1.92302643E+00  -2.37663411E+00  -3.76955103E+00  -8.57568489E+00  -3.74472744E+00  -3.39793996E+00  -1.20228620E+01  -4.40893557E+00   1.50855835E+00  -1.06670837E+01  -3.18854406E+00   1.49165383E+00  -8.28747032E+00  -5.65633224E+00  -9.45316714E+00  -2.62438112E-01  -3.29911805E+00  -5.79632912E-02  -4.03263687E+00  -8.01129910E+00  -1.22487715E+01  -6.85340124E+00  -1.23394432E+01  -4.62036164E+00  -8.71994468E+01  -8.71936388E+01  -1.07760923E+01  -1.41728839E+01  -1.40131391E-01  -1.06466699E+01  -4.22675142E+00  -5.81895940E+00  -8.57111538E+00  -3.83839773E+01  -3.28088098E-01  -6.89767561E+00  -9.27523665E+00  -2.54896916E+01  -5.84673438E+00  -6.55793170E+00  -1.08086100E+01  -1.57329151E+01  -1.53643294E+01  -1.67134437E+01  -1.03374985E+01  -1.79384089E+01  -9.39118030E+01
