 TITLE = "Total Concentrations" 
VARIABLES = "X"          "Y"              "Z"            "H+"             "Al+++"          "CO2(aq)"        "Mg++"           "Ca++"           "Fe++"           "Fe+++"          "Ba++"           "Sr++"           "Cl-"            "F-"             "K+"             "HS-"            "Na+"            "SO4--"          "O2(aq)"         "B(OH)3(aq)"     "HPO4--"         "NO3-"           "H4SiO4(aq)"     "HNO3(aq)"       "Al(OH)2+"       "AlO2-"          "AlOH++"         "BaHCO3+"        "BaCl+"          "BaCO3(aq)"      "BaOH+"          "HCO3-"          "CO3--"          "CaCl+"          "CaCl2(aq)"      "CaOH+"          "CaSO4(aq)"      "FeCl+"          "FeCl2(aq)"      "FeOH+"          "FeSO4(aq)"      "OH-"            "S2O3--"         "H2S(aq)"        "H2PO4-"         "H3PO4(aq)"      "HAlO2(aq)"      "HSO4-"          "KCl(aq)"        "KOH(aq)"        "KSO4-"          "NH3(aq)"        "NaAlO2(aq)"     "NaOH(aq)"       "NaSO4-"         "H2(aq)"         "CaHPO4(aq)"     "CaPO4-"         "FeCO3(aq)"      "FeH2PO4+"       "FeHPO4(aq)"     "FePO4-"         "KHPO4-"         "PO4---"         "Sr(CO3)(aq)"    "SrHCO3+"        "SrCl+"          "SrOH+"          "SrSO4(aq)"      "AlH3SiO4++"     "Si2O2(OH)5-"    "Si2O3(OH)4--"   "Si3O5(OH)5---"  "Si3O6(OH)3---"  "Si4O12H4----"   "Si4O6(OH)6--"   "Si4O7(OH)6----" "Si4O8(OH)4----" "Si6O15------"   "SiF6--"        
 ZONE I=         100 , J=           1 , K=           1  F=POINT
   1.75000000E+01   5.00000000E-01   5.00000000E-01  -7.54223800E+00  -1.54397893E+01  -3.69264283E+00  -1.30491212E+00  -2.03764139E+00  -3.11170404E+00  -1.21416368E+01  -6.71255488E+00  -5.10348354E+00  -2.62137980E-01  -4.16748106E+00  -1.95177864E+00  -1.00326345E+01  -3.35186888E-01  -1.83564655E+00  -7.74480951E+00  -3.39792999E+00  -5.96505771E+00  -4.40892536E+00  -3.37398117E+00  -1.38204595E+01  -1.31292851E+01  -1.11018871E+01  -1.38395903E+01  -8.93505662E+00  -8.30398667E+00  -1.04378099E+01  -1.42826655E+01  -2.35388222E+00  -4.74262858E+00  -3.27935787E+00  -4.11951217E+00  -8.66852098E+00  -3.00795739E+00  -4.41612664E+00  -6.50852265E+00  -6.15221515E+00  -4.00258133E+00  -6.97634802E+00  -1.49348565E+02  -1.05817025E+01  -6.89630959E+00  -1.27197601E+01  -1.20078709E+01  -8.32300368E+00  -3.20757276E+00  -9.95744551E+00  -3.68635762E+00  -6.42344247E+01  -1.27086477E+01  -8.40283173E+00  -1.91675374E+00  -4.60182651E+01  -6.72636227E+00  -7.86948820E+00  -3.99164538E+00  -7.90760854E+00  -6.80704034E+00  -6.94300688E+00  -8.25486671E+00  -9.94460180E+00  -8.75141248E+00  -7.23930051E+00  -6.36284764E+00  -1.23925543E+01  -6.20251602E+00  -1.50559878E+01  -7.63414964E+00  -1.09088676E+01  -1.60979853E+01  -1.60982298E+01  -2.18418168E+01  -1.29987965E+01  -2.17337314E+01  -2.17340034E+01  -3.17808076E+01  -3.21448273E+01
   5.25000000E+01   5.00000000E-01   5.00000000E-01  -7.41589932E+00  -1.51292557E+01  -3.60948656E+00  -1.31716898E+00  -2.02338449E+00  -2.82163352E+00  -1.22360483E+01  -6.71295471E+00  -5.10428897E+00  -2.62131676E-01  -4.16743256E+00  -1.95165709E+00  -9.98403735E+00  -3.34598474E-01  -1.82880060E+00  -7.74485338E+00  -3.39788149E+00  -6.02262503E+00  -4.40887686E+00  -3.28903282E+00  -1.36684936E+01  -1.28553725E+01  -1.09312488E+01  -1.35616225E+01  -8.91762180E+00  -8.29031408E+00  -1.05113946E+01  -1.42297455E+01  -2.36290288E+00  -4.83438737E+00  -3.26351189E+00  -4.13987528E+00  -8.62496716E+00  -2.99385875E+00  -4.09626647E+00  -6.22120349E+00  -5.87973810E+00  -3.70572083E+00  -6.97943020E+00  -1.47402050E+02  -1.04655204E+01  -6.84719659E+00  -1.25348316E+01  -1.17940519E+01  -8.16056954E+00  -3.20871887E+00  -9.94756051E+00  -3.68668124E+00  -6.33547211E+01  -1.25285179E+01  -8.42451187E+00  -1.92980539E+00  -4.54734840E+01  -6.76023079E+00  -7.98787377E+00  -3.81221401E+00  -7.56963725E+00  -6.59561791E+00  -6.85776073E+00  -8.27217835E+00  -1.00832653E+01  -8.81536935E+00  -7.21424508E+00  -6.36107067E+00  -1.23524111E+01  -6.19520692E+00  -1.46121679E+01  -7.53605106E+00  -1.08543411E+01  -1.60110801E+01  -1.60113363E+01  -2.17272505E+01  -1.28222136E+01  -2.16202963E+01  -2.16205869E+01  -3.15672261E+01  -3.17026761E+01
   8.75000000E+01   5.00000000E-01   5.00000000E-01  -7.31741665E+00  -1.49714984E+01  -3.54842379E+00  -1.32859415E+00  -2.00971604E+00  -2.66619558E+00  -1.22507769E+01  -6.71337950E+00  -5.10519078E+00  -2.62075778E-01  -4.16732927E+00  -1.95156826E+00  -9.93887475E+00  -3.34022305E-01  -1.82303775E+00  -7.74484271E+00  -3.39777820E+00  -6.06264550E+00  -4.40877357E+00  -3.24301794E+00  -1.35435832E+01  -1.26824241E+01  -1.08104715E+01  -1.34098508E+01  -8.89626188E+00  -8.27540710E+00  -1.05559121E+01  -1.41535754E+01  -2.36926934E+00  -4.89839061E+00  -3.24656597E+00  -4.15685678E+00  -8.55771077E+00  -2.97946161E+00  -3.90982965E+00  -6.06524300E+00  -5.71621213E+00  -3.54255960E+00  -6.95891900E+00  -1.45542913E+02  -1.03772833E+01  -6.80642693E+00  -1.23851106E+01  -1.16546999E+01  -8.02559684E+00  -3.20843794E+00  -9.91314935E+00  -3.68632682E+00  -6.25150657E+01  -1.23969218E+01  -8.41993899E+00  -1.94162647E+00  -4.49387611E+01  -6.77508901E+00  -8.05999934E+00  -3.73701563E+00  -7.37485095E+00  -6.49955755E+00  -6.85987584E+00  -8.27052160E+00  -1.01792276E+01  -8.85053018E+00  -7.18520819E+00  -6.35780332E+00  -1.22884885E+01  -6.18773905E+00  -1.43390224E+01  -7.49056509E+00  -1.08275754E+01  -1.59657126E+01  -1.59659744E+01  -2.16682123E+01  -1.27503314E+01  -2.15623734E+01  -2.15626746E+01  -3.14363170E+01  -3.14026571E+01
   1.22500000E+02   5.00000000E-01   5.00000000E-01  -7.22443275E+00  -1.48373452E+01  -3.48866602E+00  -1.33914033E+00  -1.99659382E+00  -2.56671290E+00  -1.22525071E+01  -6.71382287E+00  -5.10617440E+00  -2.61973782E-01  -4.16717548E+00  -1.95150882E+00  -9.90016662E+00  -3.33452234E-01  -1.81819186E+00  -7.74478175E+00  -3.39762441E+00  -6.09304994E+00  -4.40861978E+00  -3.20313773E+00  -1.34234868E+01  -1.25258819E+01  -1.06994966E+01  -1.32774405E+01  -8.87249051E+00  -8.25939199E+00  -1.05950849E+01  -1.40763494E+01  -2.37434574E+00  -4.95817244E+00  -3.22862689E+00  -4.17072861E+00  -8.48895493E+00  -2.96479900E+00  -3.77828101E+00  -5.96225990E+00  -5.60526626E+00  -3.43450361E+00  -6.93694262E+00  -1.43725464E+02  -1.02978686E+01  -6.75972751E+00  -1.22340817E+01  -1.15275709E+01  -7.89572432E+00  -3.20687507E+00  -9.87646681E+00  -3.68529359E+00  -6.16928645E+01  -1.22739447E+01  -8.41147629E+00  -1.95224276E+00  -4.44138281E+01  -6.77906485E+00  -8.11635113E+00  -3.71117582E+00  -7.23028701E+00  -6.44824963E+00  -6.90110949E+00  -8.25805202E+00  -1.02625991E+01  -8.88060856E+00  -7.15371145E+00  -6.35317980E+00  -1.22230047E+01  -6.18015482E+00  -1.40965649E+01  -7.45434410E+00  -1.08074762E+01  -1.59302517E+01  -1.59305150E+01  -2.16225170E+01  -1.26964773E+01  -2.15177761E+01  -2.15180819E+01  -3.13248735E+01  -3.11231461E+01
   1.57500000E+02   5.00000000E-01   5.00000000E-01  -7.13436646E+00  -1.47120839E+01  -3.42856986E+00  -1.34883278E+00  -1.98397854E+00  -2.49788601E+00  -1.22489285E+01  -6.71428503E+00  -5.10723098E+00  -2.61829048E-01  -4.16697485E+00  -1.95147552E+00  -9.86724605E+00  -3.32886027E-01  -1.81413743E+00  -7.74467417E+00  -3.39742378E+00  -6.11831090E+00  -4.40841915E+00  -3.16564089E+00  -1.33057284E+01  -1.23761002E+01  -1.05936395E+01  -1.31522405E+01  -8.84719830E+00  -8.24239094E+00  -1.06322468E+01  -1.40005003E+01  -2.37887992E+00  -5.01688801E+00  -3.20979265E+00  -4.18174192E+00  -8.42113486E+00  -2.94992774E+00  -3.67645137E+00  -5.88722749E+00  -5.52413314E+00  -3.35635682E+00  -6.91586927E+00  -1.41943656E+02  -1.02242278E+01  -6.70913184E+00  -1.20813018E+01  -1.14055599E+01  -7.76839446E+00  -3.20416399E+00  -9.83999668E+00  -3.68360858E+00  -6.08853036E+01  -1.21550372E+01  -8.40171095E+00  -1.96170982E+00  -4.38984268E+01  -6.77681159E+00  -8.16416210E+00  -3.71279750E+00  -7.11266922E+00  -6.42099651E+00  -6.96335306E+00  -8.23944603E+00  -1.03402670E+01  -8.90892826E+00  -7.12065133E+00  -6.34732855E+00  -1.21584137E+01  -6.17252414E+00  -1.38685631E+01  -7.42236203E+00  -1.07914979E+01  -1.59008865E+01  -1.59011488E+01  -2.15850769E+01  -1.26506195E+01  -2.14814154E+01  -2.14817217E+01  -3.12253141E+01  -3.08506169E+01
   1.92500000E+02   5.00000000E-01   5.00000000E-01  -7.04699533E+00  -1.45945568E+01  -3.36862209E+00  -1.35776392E+00  -1.97183426E+00  -2.44805240E+00  -1.22410022E+01  -6.71476706E+00  -5.10835220E+00  -2.61644749E-01  -4.16673054E+00  -1.95146539E+00  -9.83922342E+00  -3.32320878E-01  -1.81077878E+00  -7.74452310E+00  -3.39717947E+00  -6.14115161E+00  -4.40817484E+00  -3.13019834E+00  -1.31901802E+01  -1.22322723E+01  -1.04923499E+01  -1.30332955E+01  -8.82104900E+00  -8.22451530E+00  -1.06681544E+01  -1.39261088E+01  -2.38340581E+00  -5.07513390E+00  -3.19015221E+00  -4.19012593E+00  -8.35433427E+00  -2.93491510E+00  -3.59279604E+00  -5.82873121E+00  -5.46132431E+00  -3.29656659E+00  -6.89572355E+00  -1.40196231E+02  -1.01554328E+01  -6.65727050E+00  -1.19292737E+01  -1.12880437E+01  -7.64342453E+00  -3.20042604E+00  -9.80386753E+00  -3.68131463E+00  -6.00919287E+01  -1.20397703E+01  -8.39086602E+00  -1.97009651E+00  -4.33923068E+01  -6.77121426E+00  -8.20653726E+00  -3.73103790E+00  -7.01295587E+00  -6.40897657E+00  -7.03801484E+00  -8.21760940E+00  -1.04150237E+01  -8.93623511E+00  -7.08669591E+00  -6.34036589E+00  -1.20948152E+01  -6.16492501E+00  -1.36534233E+01  -7.39408346E+00  -1.07792312E+01  -1.58770100E+01  -1.58772701E+01  -2.15550764E+01  -1.26117064E+01  -2.14524748E+01  -2.14527792E+01  -3.11364626E+01  -3.05843514E+01
   2.27500000E+02   5.00000000E-01   5.00000000E-01  -6.96222761E+00  -1.44843154E+01  -3.30928300E+00  -1.36605668E+00  -1.96012844E+00  -2.41082322E+00  -1.22294499E+01  -6.71527028E+00  -5.10952999E+00  -2.61423828E-01  -4.16644526E+00  -1.95147575E+00  -9.81540762E+00  -3.31753527E-01  -1.80803977E+00  -7.74433129E+00  -3.39689419E+00  -6.16327110E+00  -4.40788957E+00  -3.09664879E+00  -1.30768348E+01  -1.20940414E+01  -1.03952783E+01  -1.29202280E+01  -8.79455018E+00  -8.20586585E+00  -1.07032853E+01  -1.38531312E+01  -2.38831361E+00  -5.13324508E+00  -3.16978656E+00  -4.19609000E+00  -8.28851320E+00  -2.91983064E+00  -3.52103253E+00  -5.78060734E+00  -5.41049497E+00  -3.24885227E+00  -6.87641340E+00  -1.38482238E+02  -1.00908711E+01  -6.60586936E+00  -1.17797165E+01  -1.11747200E+01  -7.52076950E+00  -3.19577135E+00  -9.76808063E+00  -3.67846140E+00  -5.93124178E+01  -1.19279034E+01  -8.37902913E+00  -1.97747617E+00  -4.28952261E+01  -6.76411684E+00  -8.24540886E+00  -3.76004444E+00  -6.92647466E+00  -6.40760705E+00  -7.12061091E+00  -8.19440433E+00  -1.04885191E+01  -8.96299561E+00  -7.05235605E+00  -6.33239681E+00  -1.20321828E+01  -6.15743501E+00  -1.34503183E+01  -7.36918236E+00  -1.07703496E+01  -1.58581389E+01  -1.58583971E+01  -2.15318651E+01  -1.25791041E+01  -2.14303031E+01  -2.14306046E+01  -3.10573874E+01  -3.03242776E+01
   2.62500000E+02   5.00000000E-01   5.00000000E-01  -6.87992347E+00  -1.43806216E+01  -3.25085302E+00  -1.37383863E+00  -1.94883187E+00  -2.38233987E+00  -1.22151588E+01  -6.71579604E+00  -5.11075652E+00  -2.61168976E-01  -4.16612139E+00  -1.95150424E+00  -9.79528488E+00  -3.31180770E-01  -1.80585710E+00  -7.74410107E+00  -3.39657032E+00  -6.18574552E+00  -4.40756569E+00  -3.06475498E+00  -1.29656280E+01  -1.19608594E+01  -1.03019908E+01  -1.28124187E+01  -8.76809855E+00  -8.18653362E+00  -1.07380615E+01  -1.37815769E+01  -2.39389413E+00  -5.19151698E+00  -3.14876961E+00  -4.19982553E+00  -8.22368673E+00  -2.90474141E+00  -3.45739812E+00  -5.73920156E+00  -5.36787948E+00  -3.20945706E+00  -6.85790774E+00  -1.36800668E+02  -1.00300462E+01  -6.55597306E+00  -1.16336115E+01  -1.10651450E+01  -7.40033764E+00  -3.19029978E+00  -9.73268869E+00  -3.67509981E+00  -5.85464026E+01  -1.18191006E+01  -8.36633229E+00  -1.98392171E+00  -4.24069502E+01  -6.75672540E+00  -8.28211847E+00  -3.79643541E+00  -6.85040281E+00  -6.41420308E+00  -7.20860287E+00  -8.17105257E+00  -1.05618392E+01  -8.98962082E+00  -7.01803096E+00  -6.32351600E+00  -1.19705422E+01  -6.15012665E+00  -1.32581212E+01  -7.34723305E+00  -1.07644789E+01  -1.58437178E+01  -1.58439754E+01  -2.15146972E+01  -1.25519781E+01  -2.14141536E+01  -2.14144527E+01  -3.09870097E+01  -3.00700147E+01
   2.97500000E+02   5.00000000E-01   5.00000000E-01  -6.79992947E+00  -1.42826609E+01  -3.19354153E+00  -1.38122828E+00  -1.93791845E+00  -2.36012570E+00  -1.21990110E+01  -6.71634555E+00  -5.11202421E+00  -2.60882638E-01  -4.16576098E+00  -1.95154881E+00  -9.77846369E+00  -3.30599736E-01  -1.80417624E+00  -7.74383452E+00  -3.39620991E+00  -6.20925651E+00  -4.40720528E+00  -3.03426767E+00  -1.28564741E+01  -1.18321311E+01  -1.02120445E+01  -1.27091856E+01  -8.74201415E+00  -8.16660056E+00  -1.07728491E+01  -1.37114744E+01  -2.40037215E+00  -5.25020337E+00  -3.12716893E+00  -4.20150763E+00  -8.15989012E+00  -2.88970949E+00  -3.39950255E+00  -5.70222248E+00  -5.33110859E+00  -3.17599749E+00  -6.84020106E+00  -1.35150512E+02  -9.97255837E+00  -6.50820882E+00  -1.14915015E+01  -1.09588427E+01  -7.28202197E+00  -3.18410185E+00  -9.69776130E+00  -3.67127910E+00  -5.77935038E+01  -1.17130069E+01  -8.35291813E+00  -1.98950301E+00  -4.19272518E+01  -6.74983811E+00  -8.31761252E+00  -3.83815136E+00  -6.78288261E+00  -6.42705868E+00  -7.30044440E+00  -8.14836547E+00  -1.06356993E+01  -9.01646579E+00  -6.98404268E+00  -6.31380876E+00  -1.19099367E+01  -6.14306500E+00  -1.30756479E+01  -7.32780340E+00  -1.07612555E+01  -1.58332069E+01  -1.58334661E+01  -2.15028477E+01  -1.25294803E+01  -2.14033012E+01  -2.14035992E+01  -3.09242783E+01  -2.98210783E+01
   3.32500000E+02   5.00000000E-01   5.00000000E-01  -6.72210335E+00  -1.41896968E+01  -3.13751576E+00  -1.38832924E+00  -1.92736504E+00  -2.34252557E+00  -1.21817796E+01  -6.71691983E+00  -5.11332564E+00  -2.60567032E-01  -4.16536584E+00  -1.95160766E+00  -9.76463529E+00  -3.30007994E-01  -1.80294906E+00  -7.74353342E+00  -3.39581477E+00  -6.23422541E+00  -4.40681014E+00  -3.00496499E+00  -1.27492908E+01  -1.17073195E+01  -1.01250412E+01  -1.26099132E+01  -8.71656446E+00  -8.14614028E+00  -1.08079566E+01  -1.36428458E+01  -2.40792963E+00  -5.30951393E+00  -3.10504630E+00  -4.20129647E+00  -8.09715375E+00  -2.87479091E+00  -3.34576835E+00  -5.66818281E+00  -5.29862433E+00  -3.14690219E+00  -6.82328772E+00  -1.33530805E+02  -9.91809100E+00  -6.46294615E+00  -1.13536752E+01  -1.08553855E+01  -7.16572356E+00  -3.17725954E+00  -9.66336000E+00  -3.66704529E+00  -5.70533556E+01  -1.16093038E+01  -8.33891562E+00  -1.99428565E+00  -4.14559112E+01  -6.74398063E+00  -8.35255301E+00  -3.88389382E+00  -6.72262067E+00  -6.44502124E+00  -7.39513097E+00  -8.12687952E+00  -1.07105528E+01  -9.04382837E+00  -6.95066012E+00  -6.30335172E+00  -1.18504023E+01  -6.13630677E+00  -1.29018242E+01  -7.31050858E+00  -1.07603556E+01  -1.58261252E+01  -1.58263891E+01  -2.14956707E+01  -1.25108558E+01  -2.13970993E+01  -2.13973987E+01  -3.08682568E+01  -2.95770220E+01
   3.67500000E+02   5.00000000E-01   5.00000000E-01  -6.64632121E+00  -1.41011166E+01  -3.08292396E+00  -1.39522882E+00  -1.91715126E+00  -2.32840192E+00  -1.21640995E+01  -6.71751961E+00  -5.11465344E+00  -2.60224169E-01  -4.16493755E+00  -1.95167924E+00  -9.75354857E+00  -3.29403554E-01  -1.80213246E+00  -7.74319936E+00  -3.39538648E+00  -6.26089548E+00  -4.40638185E+00  -2.97666268E+00  -1.26440078E+01  -1.15859766E+01  -1.00406444E+01  -1.25140915E+01  -8.69198024E+00  -8.12521866E+00  -1.08436437E+01  -1.35756992E+01  -2.41672090E+00  -5.36962149E+00  -3.08245832E+00  -4.19933860E+00  -8.03549562E+00  -2.86003541E+00  -3.29512761E+00  -5.63609680E+00  -5.26936881E+00  -3.12110785E+00  -6.80715397E+00  -1.31940642E+02  -9.86639322E+00  -6.42038697E+00  -1.12202660E+01  -1.07544179E+01  -7.05135808E+00  -3.16984694E+00  -9.62953094E+00  -3.66244061E+00  -5.63256136E+01  -1.15077264E+01  -8.32443317E+00  -1.99833042E+00  -4.09927152E+01  -6.73948948E+00  -8.38739380E+00  -3.93283000E+00  -6.66867403E+00  -6.46727047E+00  -7.49197157E+00  -8.10693985E+00  -1.07866648E+01  -9.07195760E+00  -6.91811512E+00  -6.29221351E+00  -1.17919604E+01  -6.12990015E+00  -1.27357341E+01  -7.29502414E+00  -1.07615004E+01  -1.58220591E+01  -1.58223314E+01  -2.14926105E+01  -1.24954699E+01  -2.13949921E+01  -2.13952961E+01  -3.08181405E+01  -2.93374794E+01
   4.02500000E+02   5.00000000E-01   5.00000000E-01  -6.57247658E+00  -1.40164216E+01  -3.02990460E+00  -1.40199889E+00  -1.90725932E+00  -2.31695646E+00  -1.21464775E+01  -6.71814534E+00  -5.11600026E+00  -2.59855881E-01  -4.16447750E+00  -1.95176221E+00  -9.74499392E+00  -3.28784828E-01  -1.80168751E+00  -7.74283372E+00  -3.39492644E+00  -6.28938466E+00  -4.40592181E+00  -2.94921333E+00  -1.25405658E+01  -1.14677359E+01  -9.95857253E+00  -1.24213074E+01  -8.66846578E+00  -8.10389448E+00  -1.08801316E+01  -1.35100297E+01  -2.42688208E+00  -5.43067171E+00  -3.05945686E+00  -4.19576812E+00  -7.97492195E+00  -2.84548661E+00  -3.24684444E+00  -5.60530338E+00  -5.24260694E+00  -3.09788134E+00  -6.79177814E+00  -1.30379172E+02  -9.81726369E+00  -6.38061806E+00  -1.10913033E+01  -1.06556498E+01  -6.93885473E+00  -3.16193095E+00  -9.59630570E+00  -3.65750334E+00  -5.56099534E+01  -1.14080573E+01  -8.30955991E+00  -2.00169324E+00  -4.05374575E+01  -6.73656586E+00  -8.42243546E+00  -3.98442540E+00  -6.62032431E+00  -6.49319342E+00  -7.59046487E+00  -8.08875417E+00  -1.08641660E+01  -9.10106433E+00  -6.88661255E+00  -6.28045537E+00  -1.17346182E+01  -6.12388507E+00  -1.25766093E+01  -7.28108535E+00  -1.07644566E+01  -1.58206624E+01  -1.58209475E+01  -2.14932020E+01  -1.24828064E+01  -2.13965143E+01  -2.13968267E+01  -3.07732576E+01  -2.91021622E+01
   4.37500000E+02   5.00000000E-01   5.00000000E-01  -6.50047746E+00  -1.39352101E+01  -2.97858937E+00  -1.40869758E+00  -1.89767388E+00  -2.30761991E+00  -1.21293090E+01  -6.71879719E+00  -5.11735872E+00  -2.59463846E-01  -4.16398695E+00  -1.95185540E+00  -9.73879230E+00  -3.28150575E-01  -1.80157884E+00  -7.74243771E+00  -3.39443589E+00  -6.31972082E+00  -4.40543126E+00  -2.92250003E+00  -1.24389145E+01  -1.13523009E+01  -9.87859257E+00  -1.23312298E+01  -8.64620473E+00  -8.08222001E+00  -1.09176116E+01  -1.34458220E+01  -2.43853631E+00  -5.49279050E+00  -3.03608954E+00  -4.19070778E+00  -7.91542985E+00  -2.83118247E+00  -3.20040529E+00  -5.57535705E+00  -5.21781907E+00  -3.07671007E+00  -6.77713283E+00  -1.28845589E+02  -9.77053753E+00  -6.34364397E+00  -1.09667435E+01  -1.05588476E+01  -6.82815343E+00  -3.15357184E+00  -9.56370403E+00  -3.65226788E+00  -5.49060686E+01  -1.13101209E+01  -8.29436873E+00  -2.00442529E+00  -4.00899381E+01  -6.73531174E+00  -8.45786435E+00  -4.03834219E+00  -6.57700036E+00  -6.52231001E+00  -7.69022747E+00  -8.07242901E+00  -1.09430896E+01  -9.13132968E+00  -6.85633625E+00  -6.26813174E+00  -1.16783717E+01  -6.11829367E+00  -1.24238070E+01  -7.26847711E+00  -1.07690289E+01  -1.58216458E+01  -1.58219485E+01  -2.14970558E+01  -1.24724474E+01  -2.14012765E+01  -2.14016018E+01  -3.07330472E+01  -2.88708443E+01
   4.72500000E+02   5.00000000E-01   5.00000000E-01  -6.43024318E+00  -1.38571562E+01  -2.92910294E+00  -1.41537126E+00  -1.88838193E+00  -2.29998087E+00  -1.21128975E+01  -6.71947511E+00  -5.11872141E+00  -2.59049613E-01  -4.16346700E+00  -1.95195785E+00  -9.73478783E+00  -3.27499850E-01  -1.80177428E+00  -7.74201241E+00  -3.39391593E+00  -6.35186641E+00  -4.40491131E+00  -2.89642976E+00  -1.23390100E+01  -1.12394303E+01  -9.80051145E+00  -1.22435925E+01  -8.62536318E+00  -8.06024163E+00  -1.09562512E+01  -1.33830534E+01  -2.45179607E+00  -5.55608899E+00  -3.01240021E+00  -4.18426999E+00  -7.85701028E+00  -2.81715570E+00  -3.15544840E+00  -5.54595792E+00  -5.19463300E+00  -3.05723142E+00  -6.76318748E+00  -1.27339129E+02  -9.72607624E+00  -6.30940902E+00  -1.08464890E+01  -1.04638230E+01  -6.71920182E+00  -3.14482383E+00  -9.53173697E+00  -3.64676501E+00  -5.42136671E+01  -1.12137758E+01  -8.27891971E+00  -2.00657327E+00  -3.96499632E+01  -6.73575553E+00  -8.49378148E+00  -4.09437410E+00  -6.53822907E+00  -6.55422706E+00  -7.79095132E+00  -8.05799540E+00  -1.10233991E+01  -9.16291081E+00  -6.82745207E+00  -6.25529083E+00  -1.16232086E+01  -6.11315098E+00  -1.22767855E+01  -7.25702389E+00  -1.07750531E+01  -1.58247662E+01  -1.58250916E+01  -2.15038447E+01  -1.24640537E+01  -2.14089514E+01  -2.14092945E+01  -3.06970385E+01  -2.86433452E+01
   5.07500000E+02   5.00000000E-01   5.00000000E-01  -6.36170158E+00  -1.37819913E+01  -2.88156116E+00  -1.42205637E+00  -1.87937266E+00  -2.29373845E+00  -1.20974727E+01  -6.72017891E+00  -5.12008092E+00  -2.58614621E-01  -4.16291864E+00  -1.95206869E+00  -9.73284247E+00  -3.26831953E-01  -1.80224455E+00  -7.74155879E+00  -3.39336757E+00  -6.38573679E+00  -4.40436295E+00  -2.87092795E+00  -1.22408120E+01  -1.11289252E+01  -9.72416810E+00  -1.21581785E+01  -8.60609066E+00  -8.03800039E+00  -1.09961972E+01  -1.33216964E+01  -2.46676360E+00  -5.62066613E+00  -2.98842931E+00  -4.17655779E+00  -7.79965056E+00  -2.80343438E+00  -3.11171697E+00  -5.51690543E+00  -5.17277945E+00  -3.03918614E+00  -6.74991053E+00  -1.25859062E+02  -9.68376033E+00  -6.27781333E+00  -1.07304021E+01  -1.03704225E+01  -6.61195278E+00  -3.13573560E+00  -9.50040948E+00  -3.64102216E+00  -5.35324687E+01  -1.11189065E+01  -8.26326311E+00  -2.00817970E+00  -3.92173448E+01  -6.73787110E+00  -8.53022448E+00  -4.15240264E+00  -6.50360405E+00  -6.58860969E+00  -7.89237782E+00  -8.04542804E+00  -1.11050082E+01  -9.19594451E+00  -6.80010886E+00  -6.24197522E+00  -1.15691110E+01  -6.10847555E+00  -1.21350819E+01  -7.24658147E+00  -1.07823905E+01  -1.58298181E+01  -1.58301717E+01  -2.15132918E+01  -1.24573478E+01  -2.14192624E+01  -2.14196286E+01  -3.06648343E+01  -2.84195149E+01
   5.42500000E+02   5.00000000E-01   5.00000000E-01  -6.29478698E+00  -1.37094902E+01  -2.83606858E+00  -1.42878105E+00  -1.87063735E+00  -2.28867006E+00  -1.20832051E+01  -6.72090836E+00  -5.12142999E+00  -2.58160223E-01  -4.16234277E+00  -1.95218724E+00  -9.73283226E+00  -3.26146393E-01  -1.80296300E+00  -7.74107769E+00  -3.39279170E+00  -6.42121420E+00  -4.40378708E+00  -2.84593419E+00  -1.21442826E+01  -1.10206192E+01  -9.64942720E+00  -1.20748076E+01  -8.58851992E+00  -8.01553263E+00  -1.10375775E+01  -1.32617209E+01  -2.48352993E+00  -5.68660928E+00  -2.96421426E+00  -4.16766569E+00  -7.74333623E+00  -2.79004240E+00  -3.06902745E+00  -5.48806703E+00  -5.15206191E+00  -3.02238674E+00  -6.73727097E+00  -1.24404686E+02  -9.64348398E+00  -6.24872524E+00  -1.06183155E+01  -1.02785197E+01  -6.50636257E+00  -3.12635077E+00  -9.46972241E+00  -3.63506362E+00  -5.28622033E+01  -1.10254184E+01  -8.24744152E+00  -2.00928323E+00  -3.87919008E+01  -6.74159257E+00  -8.56718439E+00  -4.21236647E+00  -6.47276577E+00  -6.62516358E+00  -7.99428218E+00  -8.03466017E+00  -1.11877971E+01  -9.23054862E+00  -6.77443830E+00  -6.22822244E+00  -1.15160577E+01  -6.10428019E+00  -1.19982951E+01  -7.23703019E+00  -1.07909228E+01  -1.58366268E+01  -1.58370141E+01  -2.15251616E+01  -1.24521008E+01  -2.14319740E+01  -2.14323689E+01  -3.06360964E+01  -2.81992236E+01
   5.77500000E+02   5.00000000E-01   5.00000000E-01  -6.22943870E+00  -1.36394610E+01  -2.79271589E+00  -1.43556652E+00  -1.86216922E+00  -2.28460909E+00  -1.20702170E+01  -6.72166337E+00  -5.12276156E+00  -2.57687700E-01  -4.16174021E+00  -1.95231292E+00  -9.73464451E+00  -3.25442854E-01  -1.80390542E+00  -7.74056988E+00  -3.39218915E+00  -6.45815890E+00  -4.40318453E+00  -2.82139900E+00  -1.20493849E+01  -1.09143712E+01  -9.57617441E+00  -1.19933280E+01  -8.57276584E+00  -7.99287052E+00  -1.10805012E+01  -1.32030955E+01  -2.50217324E+00  -5.75399355E+00  -2.93978975E+00  -4.15768044E+00  -7.68805225E+00  -2.77700000E+00  -3.02724769E+00  -5.45935685E+00  -5.13233572E+00  -3.00669581E+00  -6.72523926E+00  -1.22975325E+02  -9.60515130E+00  -6.22199137E+00  -1.05100414E+01  -1.01880093E+01  -6.40238973E+00  -3.11670834E+00  -9.43967386E+00  -3.62891093E+00  -5.22026089E+01  -1.09332329E+01  -8.23149154E+00  -2.00991895E+00  -3.83734545E+01  -6.74682606E+00  -8.60461900E+00  -4.27423916E+00  -6.44538939E+00  -6.66362412E+00  -8.09646407E+00  -8.02559542E+00  -1.12716241E+01  -9.26682221E+00  -6.75055385E+00  -6.21406557E+00  -1.14640255E+01  -6.10057272E+00  -1.18660733E+01  -7.22826995E+00  -1.08005487E+01  -1.58450424E+01  -1.58454693E+01  -2.15392520E+01  -1.24481221E+01  -2.14468844E+01  -2.14473137E+01  -3.06105352E+01  -2.79823541E+01
   6.12500000E+02   5.00000000E-01   5.00000000E-01  -6.16560015E+00  -1.35717383E+01  -2.75157729E+00  -1.44242827E+00  -1.85396332E+00  -2.28142936E+00  -1.20585914E+01  -6.72244412E+00  -5.12406909E+00  -2.57198279E-01  -4.16111173E+00  -1.95244528E+00  -9.73817560E+00  -3.24721164E-01  -1.80504983E+00  -7.74003606E+00  -3.39156066E+00  -6.49641806E+00  -4.40255604E+00  -2.79728167E+00  -1.19560830E+01  -1.08100599E+01  -9.50431278E+00  -1.19136108E+01  -8.55892398E+00  -7.97004262E+00  -1.11250577E+01  -1.31457884E+01  -2.52275676E+00  -5.82288013E+00  -2.91518806E+00  -4.14668175E+00  -7.63378369E+00  -2.76432410E+00  -2.98628176E+00  -5.43072088E+00  -5.11349346E+00  -2.99201104E+00  -6.71378775E+00  -1.21570329E+02  -9.56867375E+00  -6.19744502E+00  -1.04053795E+01  -1.00988029E+01  -6.29999438E+00  -3.10684309E+00  -9.41026000E+00  -3.62258304E+00  -5.15534316E+01  -1.08422846E+01  -8.21544477E+00  -2.01011866E+00  -3.79618345E+01  -6.75345918E+00  -8.64246319E+00  -4.33801284E+00  -6.42117748E+00  -6.70375016E+00  -8.19874220E+00  -8.01811738E+00  -1.13563352E+01  -9.30484481E+00  -6.72854935E+00  -6.19953387E+00  -1.14129900E+01  -6.09735665E+00  -1.17381055E+01  -7.22021651E+00  -1.08111811E+01  -1.58549360E+01  -1.58554083E+01  -2.15553889E+01  -1.24452525E+01  -2.14638198E+01  -2.14642895E+01  -3.05879007E+01  -2.77687980E+01
   6.47500000E+02   5.00000000E-01   5.00000000E-01  -6.10321835E+00  -1.35061788E+01  -2.71270842E+00  -1.44937702E+00  -1.84601636E+00  -2.27903412E+00  -1.20483787E+01  -6.72325124E+00  -5.12534665E+00  -2.56693147E-01  -4.16045802E+00  -1.95258399E+00  -9.74332935E+00  -3.23981280E-01  -1.80637636E+00  -7.73947686E+00  -3.39090695E+00  -6.53583274E+00  -4.40190234E+00  -2.77354878E+00  -1.18643409E+01  -1.07075814E+01  -9.43376023E+00  -1.18355458E+01  -8.54706909E+00  -7.94707443E+00  -1.11713155E+01  -1.30897681E+01  -2.54532669E+00  -5.89331436E+00  -2.89043924E+00  -4.13474285E+00  -7.58051598E+00  -2.75202874E+00  -2.94605935E+00  -5.40212678E+00  -5.09545444E+00  -2.97825474E+00  -6.70289076E+00  -1.20189067E+02  -9.53396838E+00  -6.17491299E+00  -1.03041232E+01  -1.00108265E+01  -6.19913799E+00  -3.09678597E+00  -9.38147549E+00  -3.61609664E+00  -5.09144243E+01  -1.07525189E+01  -8.19932849E+00  -2.00991121E+00  -3.75568746E+01  -6.76136853E+00  -8.68063704E+00  -4.40368590E+00  -6.39985591E+00  -6.74532030E+00  -8.30095121E+00  -8.01209726E+00  -1.14417711E+01  -9.34467524E+00  -6.70849763E+00  -6.18465334E+00  -1.13629266E+01  -6.09463197E+00  -1.16141155E+01  -7.21279902E+00  -1.08227446E+01  -1.58661962E+01  -1.58667198E+01  -2.15734219E+01  -1.24433590E+01  -2.14826301E+01  -2.14831462E+01  -3.05679766E+01  -2.75584530E+01
   6.82500000E+02   5.00000000E-01   5.00000000E-01  -6.04224372E+00  -1.34426594E+01  -2.67614457E+00  -1.45641966E+00  -1.83832660E+00  -2.27734831E+00  -1.20396019E+01  -6.72408600E+00  -5.12658927E+00  -2.56173461E-01  -4.15977975E+00  -1.95272883E+00  -9.75001558E+00  -3.23223261E-01  -1.80786709E+00  -7.73889287E+00  -3.39022869E+00  -6.57624333E+00  -4.40122407E+00  -2.75017323E+00  -1.17741236E+01  -1.06068466E+01  -9.36444761E+00  -1.17590399E+01  -8.53725375E+00  -7.92398883E+00  -1.12193207E+01  -1.30350032E+01  -2.56991034E+00  -5.96532368E+00  -2.86557131E+00  -4.12193106E+00  -7.52823489E+00  -2.74012536E+00  -2.90652841E+00  -5.37355679E+00  -5.07815714E+00  -2.96536661E+00  -6.69252442E+00  -1.18830932E+02  -9.50095666E+00  -6.15422115E+00  -1.02060658E+01  -9.92401855E+00  -6.09978338E+00  -3.08656442E+00  -9.35331356E+00  -3.60946638E+00  -5.02853472E+01  -1.06638905E+01  -8.18316594E+00  -2.00932272E+00  -3.71584134E+01  -6.77042558E+00  -8.71905194E+00  -4.47125390E+00  -6.38117165E+00  -6.78813094E+00  -8.40293990E+00  -8.00739991E+00  -1.15277728E+01  -9.38635032E+00  -6.69044924E+00  -6.16944733E+00  -1.13138105E+01  -6.09239579E+00  -1.14938586E+01  -7.20595818E+00  -1.08351742E+01  -1.58787266E+01  -1.58793073E+01  -2.15932207E+01  -1.24423311E+01  -2.15031856E+01  -2.15037540E+01  -3.05505750E+01  -2.73512231E+01