 TITLE = "Total Concentrations" 
VARIABLES = "X"          "Y"              "Z"            "H+"             "Al+++"          "CO2(aq)"        "Mg++"           "Ca++"           "Fe++"           "Fe+++"          "Ba++"           "Sr++"           "Cl-"            "K+"             "Na+"            "SO4--"          "O2(aq)"         "B(OH)3(aq)"     "HPO4--"         "NO3-"           "H4SiO4(aq)"     "HNO3(aq)"       "Al(OH)2+"       "AlO2-"          "AlOH++"         "BaHCO3+"        "BaCl+"          "BaCO3(aq)"      "BaOH+"          "HCO3-"          "CO3--"          "CaCl+"          "CaCl2(aq)"      "CaOH+"          "CaSO4(aq)"      "FeCl+"          "FeCl2(aq)"      "FeOH+"          "FeSO4(aq)"      "OH-"            "HS-"            "H2S(aq)"        "H2PO4-"         "H3PO4(aq)"      "HAlO2(aq)"      "HSO4-"          "KCl(aq)"        "KOH(aq)"        "KSO4-"          "NH3(aq)"        "NaAlO2(aq)"     "NaOH(aq)"       "NaSO4-"         "H2(aq)"         "CaHPO4(aq)"     "CaPO4-"         "FeCO3(aq)"      "FeH2PO4+"       "FeHPO4(aq)"     "FePO4-"         "KHPO4-"         "PO4---"         "S--"            "Sr(CO3)(aq)"    "SrHCO3+"        "SrCl+"          "SrOH+"          "SrSO4(aq)"     
 ZONE I=          10 , J=           1 , K=           1  F=POINT
   1.75000000E+02   5.00000000E-01   5.00000000E-01  -7.26702462E+00  -2.16157361E+01  -3.64486335E+00  -1.47342121E+00  -1.52128211E+00  -4.37462312E+00  -1.13227393E+01  -6.72114081E+00  -5.13751456E+00  -2.63483827E-01  -1.95838436E+00  -3.22080812E-01  -1.59445115E+00  -3.74472744E+00  -3.39793996E+00  -6.08732991E+00  -4.40893533E+00  -1.32030653E+00  -1.32559888E+01  -1.77622607E+01  -1.49117169E+01  -1.93630350E+01  -8.61353461E+00  -8.12802946E+00  -1.01421330E+01  -1.28842373E+01  -2.34715013E+00  -4.65914273E+00  -2.68914082E+00  -3.82812567E+00  -6.95185825E+00  -2.27356830E+00  -5.33016189E+00  -7.69209987E+00  -6.64833666E+00  -4.97262044E+00  -6.13371209E+00  -1.35550972E+02  -1.36308951E+02  -6.87901726E+00  -1.22952261E+01  -1.62843296E+01  -7.45006927E+00  -3.18375704E+00  -8.96024252E+00  -3.46935536E+00  -6.45878419E+01  -1.63683344E+01  -7.65114527E+00  -1.79604095E+00  -4.27343582E+01  -6.17716337E+00  -7.17867484E+00  -5.28791794E+00  -9.18064435E+00  -8.36460450E+00  -8.76295494E+00  -7.92355724E+00  -9.96410646E+00  -1.44374535E+02  -8.38499053E+00  -6.85388718E+00  -6.31939179E+00  -1.11241704E+01  -5.96231875E+00
   5.25000000E+02   5.00000000E-01   5.00000000E-01  -6.72697242E+00  -2.03122887E+01  -3.18130347E+00  -1.48255595E+00  -1.65320522E+00  -4.10770042E+00  -1.09085337E+01  -6.73097835E+00  -5.14440920E+00  -2.63353355E-01  -1.96094019E+00  -3.18616373E-01  -1.68933542E+00  -3.74467624E+00  -3.39788876E+00  -6.16905211E+00  -4.40888413E+00  -1.30593307E+00  -1.25173551E+01  -1.63839373E+01  -1.39288807E+01  -1.80720360E+01  -8.42633085E+00  -7.98089390E+00  -1.04316476E+01  -1.25608139E+01  -2.38927272E+00  -5.12146604E+00  -2.71817165E+00  -3.96212098E+00  -6.84226885E+00  -2.45273908E+00  -4.81023083E+00  -7.26677778E+00  -6.35758709E+00  -4.70544272E+00  -6.13087241E+00  -1.26027931E+02  -1.26428028E+02  -6.43439324E+00  -1.12004718E+01  -1.50993937E+01  -6.73685092E+00  -3.12147866E+00  -8.83323681E+00  -3.51664857E+00  -5.99499775E+01  -1.52576404E+01  -7.62740887E+00  -1.89152097E+00  -3.98446408E+01  -6.22510443E+00  -7.54186881E+00  -5.46828033E+00  -8.48727675E+00  -8.21051837E+00  -9.14203461E+00  -7.68968212E+00  -1.04581496E+01  -1.34657690E+02  -8.62124684E+00  -6.60527529E+00  -6.22438967E+00  -1.08414198E+01  -6.00752701E+00
   8.75000000E+02   5.00000000E-01   5.00000000E-01  -6.25579214E+00  -1.91582842E+01  -2.80190219E+00  -1.49535639E+00  -1.79783309E+00  -3.87671000E+00  -1.05434953E+01  -6.74395630E+00  -5.15311716E+00  -2.63348161E-01  -1.96496536E+00  -3.16104711E-01  -1.79308054E+00  -3.74465929E+00  -3.39787181E+00  -6.33943904E+00  -4.40886720E+00  -1.29327341E+00  -1.18534982E+01  -1.51334025E+01  -1.30435086E+01  -1.69040982E+01  -8.30881976E+00  -7.83023456E+00  -1.07749481E+01  -1.22936982E+01  -2.49920173E+00  -5.62841594E+00  -2.74245726E+00  -4.05679888E+00  -6.77525791E+00  -2.65102891E+00  -4.32514589E+00  -6.84581988E+00  -6.10021243E+00  -4.48160768E+00  -6.14962300E+00  -1.17534465E+02  -1.17587040E+02  -6.12049959E+00  -1.03024645E+01  -1.40121143E+01  -6.09685284E+00  -3.05280506E+00  -8.73251230E+00  -3.55873938E+00  -5.57713311E+01  -1.42406015E+01  -7.59901248E+00  -1.97121902E+00  -3.72534586E+01  -6.36850399E+00  -7.95412463E+00  -5.71001528E+00  -7.96484726E+00  -8.15942395E+00  -9.55234920E+00  -7.55898446E+00  -1.10177700E+01  -1.26021844E+02  -8.91725192E+00  -6.42601744E+00  -6.11771444E+00  -1.06020709E+01  -6.07893077E+00
   1.22500000E+03   5.00000000E-01   5.00000000E-01  -5.84458956E+00  -1.81523569E+01  -2.54964355E+00  -1.51295152E+00  -1.95150690E+00  -3.68235934E+00  -1.02222361E+01  -6.75914901E+00  -5.16161597E+00  -2.63432244E-01  -1.97027098E+00  -3.14100787E-01  -1.89798954E+00  -3.74464445E+00  -3.39785697E+00  -6.60312042E+00  -4.40885240E+00  -1.27987789E+00  -1.12577589E+01  -1.40091292E+01  -1.22514096E+01  -1.58611592E+01  -8.30271209E+00  -7.67923874E+00  -1.12082242E+01  -1.20686908E+01  -2.71482969E+00  -6.21484141E+00  -2.76462719E+00  -4.12361128E+00  -6.73917546E+00  -2.86265060E+00  -3.87994063E+00  -6.44176565E+00  -5.87577964E+00  -4.30002201E+00  -6.18039523E+00  -1.09911765E+02  -1.09633201E+02  -5.94122998E+00  -9.59936584E+00  -1.30238553E+01  -5.52001857E+00  -2.98310438E+00  -8.65138836E+00  -3.59495298E+00  -5.19890806E+01  -1.33172670E+01  -7.56612890E+00  -2.03708944E+00  -3.49162709E+01  -6.61445415E+00  -8.42843188E+00  -6.05742806E+00  -7.61712327E+00  -8.22398387E+00  -1.00161187E+01  -7.53962943E+00  -1.16443923E+01  -1.18296916E+02  -9.30714767E+00  -6.35771696E+00  -6.00320913E+00  -1.03941381E+01  -6.16933531E+00
   1.57500000E+03   5.00000000E-01   5.00000000E-01  -5.48208674E+00  -1.72680534E+01  -2.41768484E+00  -1.53205968E+00  -2.11457625E+00  -3.51567402E+00  -9.92439817E+00  -6.77824898E+00  -5.17011942E+00  -2.63647095E-01  -1.97688737E+00  -3.12502314E-01  -2.00118532E+00  -3.74463029E+00  -3.39784281E+00  -6.92706775E+00  -4.40883839E+00  -1.26668768E+00  -1.07181008E+01  -1.29922654E+01  -1.15418947E+01  -1.49230690E+01  -8.40649606E+00  -7.53031806E+00  -1.17311969E+01  -1.18812980E+01  -3.03245261E+00  -6.88162199E+00  -2.78743389E+00  -4.16968884E+00  -6.73211048E+00  -3.08413597E+00  -3.46628239E+00  -6.04969851E+00  -5.67806350E+00  -4.14798150E+00  -6.22242540E+00  -1.03027449E+02  -1.02431628E+02  -5.85619836E+00  -9.03957075E+00  -1.21221979E+01  -4.99422256E+00  -2.91399167E+00  -8.58864785E+00  -3.62498182E+00  -4.85449429E+01  -1.24773939E+01  -7.53131711E+00  -2.09068570E+00  -3.27963037E+01  -6.92993115E+00  -8.93993642E+00  -6.50385482E+00  -7.39446074E+00  -8.36581154E+00  -1.05064917E+01  -7.59612162E+00  -1.23091361E+01  -1.11343303E+02  -9.78825658E+00  -6.39787675E+00  -5.88306402E+00  -1.02139749E+01  -6.27264348E+00
   1.92500000E+03   5.00000000E-01   5.00000000E-01  -5.16167241E+00  -1.64983886E+01  -2.36047828E+00  -1.55365659E+00  -2.28865969E+00  -3.37516484E+00  -9.64069182E+00  -6.80576752E+00  -5.18363332E+00  -2.64109487E-01  -1.98503889E+00  -3.11180093E-01  -2.10225541E+00  -3.74461627E+00  -3.39782879E+00  -7.27168054E+00  -4.40882482E+00  -1.25292386E+00  -1.02257136E+01  -1.20765580E+01  -1.09114224E+01  -1.40851192E+01  -8.57944918E+00  -7.38703808E+00  -1.23025838E+01  -1.17286831E+01  -3.40846370E+00  -7.58810571E+00  -2.81288305E+00  -4.19895170E+00  -6.75130887E+00  -3.31260745E+00  -3.08151359E+00  -5.66816554E+00  -5.50493390E+00  -4.01945529E+00  -6.27421279E+00  -9.67758773E+01  -9.58751851E+01  -5.82076017E+00  -8.57036707E+00  -1.13034762E+01  -4.51208047E+00  -2.84520355E+00  -8.54078036E+00  -3.64866768E+00  -4.53916782E+01  -1.17157616E+01  -7.49274651E+00  -2.13289552E+00  -3.08629499E+01  -7.27344645E+00  -9.45072745E+00  -7.00488696E+00  -7.25083926E+00  -8.54539124E+00  -1.09905314E+01  -7.68363171E+00  -1.29748249E+01  -1.05045449E+02  -1.03189442E+01  -6.50646216E+00  -5.76225466E+00  -1.00608942E+01  -6.38730091E+00
   2.27500000E+03   5.00000000E-01   5.00000000E-01  -4.88272612E+00  -1.58639996E+01  -2.33791555E+00  -1.58492291E+00  -2.47528154E+00  -3.27066031E+00  -9.38033626E+00  -6.84625343E+00  -5.20731433E+00  -2.65027577E-01  -1.99514055E+00  -3.09895185E-01  -2.20248286E+00  -3.74460202E+00  -3.39781453E+00  -7.60969701E+00  -4.40881176E+00  -1.23551583E+00  -9.77727613E+00  -1.12734804E+01  -1.03647139E+01  -1.33648625E+01  -8.78146471E+00  -7.25240483E+00  -1.28776898E+01  -1.16047583E+01  -3.80069614E+00  -8.29075473E+00  -2.84202217E+00  -4.21314391E+00  -6.78994418E+00  -3.54570035E+00  -2.73362370E+00  -5.30532553E+00  -5.36069560E+00  -3.92026646E+00  -6.33066035E+00  -9.10752177E+01  -8.98844176E+01  -5.80741994E+00  -8.16160792E+00  -1.05764005E+01  -4.07279264E+00  -2.77578061E+00  -8.50021000E+00  -3.66656635E+00  -4.24937921E+01  -1.10344248E+01  -7.44313017E+00  -2.16461550E+00  -2.90905749E+01  -7.61462000E+00  -9.92812352E+00  -7.52306082E+00  -7.16904867E+00  -8.74596125E+00  -1.14518035E+01  -7.76881506E+00  -1.36122409E+01  -9.93075562E+01  -1.08543655E+01  -6.64398789E+00  -5.64507025E+00  -9.93060692E+00  -6.51286053E+00
   2.62500000E+03   5.00000000E-01   5.00000000E-01  -4.64764346E+00  -1.53946337E+01  -2.32920351E+00  -1.63601219E+00  -2.67439197E+00  -3.21737102E+00  -9.16609532E+00  -6.90389181E+00  -5.24471757E+00  -2.66633997E-01  -2.00777225E+00  -3.08398814E-01  -2.30469072E+00  -3.74458726E+00  -3.39779978E+00  -7.92522501E+00  -4.40879987E+00  -1.21153957E+00  -9.37262611E+00  -1.05995234E+01  -9.90712600E+00  -1.27865831E+01  -8.98940656E+00  -7.12920232E+00  -1.34272493E+01  -1.15023271E+01  -4.18427860E+00  -8.96097660E+00  -2.87421661E+00  -4.21193246E+00  -6.83831839E+00  -3.78153288E+00  -2.43605115E+00  -4.97452495E+00  -5.25308659E+00  -3.86364354E+00  -6.38505757E+00  -8.58618075E+01  -8.43999902E+01  -5.80278467E+00  -7.80031239E+00  -9.95230289E+00  -3.67995492E+00  -2.70483728E+00  -8.45803941E+00  -3.68080364E+00  -3.98241336E+01  -1.04360257E+01  -7.37304125E+00  -2.18784820E+00  -2.74576815E+01  -7.93332544E+00  -1.03466862E+01  -8.04143243E+00  -7.15181089E+00  -8.96774102E+00  -1.18874939E+01  -7.83013455E+00  -1.42009786E+01  -9.40506059E+01  -1.13639577E+01  -6.78659630E+00  -5.53416888E+00  -9.81615090E+00  -6.64965954E+00
   2.97500000E+03   5.00000000E-01   5.00000000E-01  -4.45849963E+00  -1.51070983E+01  -2.32576216E+00  -1.71667265E+00  -2.88312826E+00  -3.22775675E+00  -9.02925430E+00  -6.98273812E+00  -5.29873301E+00  -2.68983428E-01  -2.02367356E+00  -3.06562434E-01  -2.41337451E+00  -3.74457177E+00  -3.39778429E+00  -8.21054777E+00  -4.40879049E+00  -1.18119315E+00  -9.01181897E+00  -1.00607213E+01  -9.53528284E+00  -1.23625761E+01  -9.19353132E+00  -7.02057576E+00  -1.39368829E+01  -1.14163778E+01  -4.54723281E+00  -9.58337814E+00  -2.90625832E+00  -4.19239969E+00  -6.88576357E+00  -4.01868591E+00  -2.19987744E+00  -4.68684117E+00  -5.18846033E+00  -3.86332794E+00  -6.43177341E+00  -8.10849520E+01  -7.93748280E+01  -5.80165638E+00  -7.48179505E+00  -9.43300151E+00  -3.33898716E+00  -2.63192299E+00  -8.40724267E+00  -3.69592436E+00  -3.73601197E+01  -9.91508173E+00  -7.27449881E+00  -2.20675978E+00  -2.59462503E+01  -8.21634146E+00  -1.06880917E+01  -8.55482301E+00  -7.20786154E+00  -9.21746489E+00  -1.23011962E+01  -7.85550094E+00  -1.47287312E+01  -8.92101428E+01  -1.18315942E+01  -6.92322828E+00  -5.43191032E+00  -9.71198084E+00  -6.80096937E+00
   3.32500000E+03   5.00000000E-01   5.00000000E-01  -4.31456037E+00  -1.49924494E+01  -2.32433321E+00  -1.83319134E+00  -3.09563852E+00  -3.30448632E+00  -9.00142276E+00  -7.08599308E+00  -5.37193524E+00  -2.71798100E-01  -2.04374397E+00  -3.04462682E-01  -2.53423129E+00  -3.74455527E+00  -3.39776778E+00  -8.46502616E+00  -4.40878573E+00  -1.14866159E+00  -8.69284552E+00  -9.64467578E+00  -9.23368888E+00  -1.20827831E+01  -9.39231208E+00  -6.92947025E+00  -1.44041774E+01  -1.13456057E+01  -4.88568777E+00  -1.01530513E+01  -2.93235663E+00  -4.14922091E+00  -6.92277432E+00  -4.25614906E+00  -2.02693430E+00  -4.44435151E+00  -5.16717706E+00  -3.92666871E+00  -6.46832309E+00  -7.67022525E+01  -7.47673668E+01  -5.80382131E+00  -7.20416008E+00  -9.00527995E+00  -3.05454424E+00  -2.55719037E+00  -8.34500584E+00  -3.71885012E+00  -3.50807334E+01  -9.45496814E+00  -7.14354602E+00  -2.22777274E+00  -2.45411672E+01  -8.45667388E+00  -1.09428629E+01  -9.06068688E+00  -7.34177657E+00  -9.50075106E+00  -1.26977278E+01  -7.84163332E+00  -1.51921507E+01  -8.47337754E+01  -1.22537325E+01  -7.05155105E+00  -5.34090285E+00  -9.61663063E+00  -6.97345690E+00
