 TITLE = "Total Concentrations" 
VARIABLES = "X"          "Y"              "Z"            "H+"             "Al+++"          "CO2(aq)"        "Mg++"           "Ca++"           "Fe++"           "Fe+++"          "Ba++"           "Sr++"           "Cl-"            "F-"             "K+"             "HS-"            "Na+"            "SO4--"          "O2(aq)"         "B(OH)3(aq)"     "HPO4--"         "NO3-"           "H4SiO4(aq)"     "HNO3(aq)"       "Al(OH)2+"       "AlO2-"          "AlOH++"         "BaHCO3+"        "BaCl+"          "BaCO3(aq)"      "BaOH+"          "HCO3-"          "CO3--"          "CaCl+"          "CaCl2(aq)"      "CaOH+"          "CaSO4(aq)"      "FeCl+"          "FeCl2(aq)"      "FeOH+"          "FeSO4(aq)"      "OH-"            "S2O3--"         "H2S(aq)"        "H2PO4-"         "H3PO4(aq)"      "HAlO2(aq)"      "HSO4-"          "KCl(aq)"        "KOH(aq)"        "KSO4-"          "NH3(aq)"        "NaAlO2(aq)"     "NaOH(aq)"       "NaSO4-"         "H2(aq)"         "CaHPO4(aq)"     "CaPO4-"         "FeCO3(aq)"      "FeH2PO4+"       "FeHPO4(aq)"     "FePO4-"         "KHPO4-"         "PO4---"         "Sr(CO3)(aq)"    "SrHCO3+"        "SrCl+"          "SrOH+"          "SrSO4(aq)"      "AlH3SiO4++"     "Si2O2(OH)5-"    "Si2O3(OH)4--"   "Si3O5(OH)5---"  "Si3O6(OH)3---"  "Si4O12H4----"   "Si4O6(OH)6--"   "Si4O7(OH)6----" "Si4O8(OH)4----" "Si6O15------"   "SiF6--"        
 ZONE I=         100 , J=           1 , K=           1  F=POINT
   1.75000000E+01   5.00000000E-01   5.00000000E-01  -7.73379156E+00  -1.78965278E+01  -3.87785326E+00  -1.30632089E+00  -2.01477894E+00  -3.33240410E+00  -1.16001651E+01  -6.71263686E+00  -5.10355606E+00  -2.62154648E-01  -4.16748106E+00  -1.95177333E+00  -1.00244008E+01  -3.35206428E-01  -1.83583684E+00  -7.74477100E+00  -3.39792999E+00  -5.93775161E+00  -4.40892536E+00  -2.76193480E+00  -1.40120243E+01  -1.52029314E+01  -1.27924273E+01  -1.61047797E+01  -8.92880058E+00  -8.30410164E+00  -1.02400115E+01  -1.40912068E+01  -2.34752991E+00  -4.54470934E+00  -3.25652504E+00  -4.09671057E+00  -8.45411451E+00  -2.98532327E+00  -4.63685632E+00  -6.72928356E+00  -6.18137119E+00  -4.22350972E+00  -6.78479202E+00  -1.49732167E+02  -1.07650327E+01  -7.06057303E+00  -1.30755863E+01  -1.38899748E+01  -8.51476261E+00  -3.20760058E+00  -9.76589970E+00  -3.68656293E+00  -6.44260821E+01  -1.43992207E+01  -8.21130873E+00  -1.91698313E+00  -4.60182961E+01  -6.67623176E+00  -7.62779406E+00  -4.01446164E+00  -8.29258295E+00  -7.00047234E+00  -6.94487525E+00  -8.22757563E+00  -9.72571537E+00  -8.55360458E+00  -7.23303501E+00  -6.36295315E+00  -1.22010862E+01  -6.20282025E+00  -1.67091230E+01  -6.21848545E+00  -9.30163829E+00  -1.36871238E+01  -1.36873683E+01  -1.86273625E+01  -1.01674588E+01  -1.85192771E+01  -1.85195491E+01  -2.69589936E+01  -3.22989882E+01
   5.25000000E+01   5.00000000E-01   5.00000000E-01  -7.59885762E+00  -1.76651847E+01  -3.78106779E+00  -1.31704761E+00  -1.98132673E+00  -3.15998276E+00  -1.17510292E+01  -6.71305989E+00  -5.10440620E+00  -2.62152239E-01  -4.16743256E+00  -1.95165461E+00  -9.99359692E+00  -3.34801913E-01  -1.82862452E+00  -7.74477619E+00  -3.39788149E+00  -5.96179716E+00  -4.40887686E+00  -2.58087236E+00  -1.38514937E+01  -1.50254410E+01  -1.27354050E+01  -1.59146100E+01  -8.90636924E+00  -8.29050093E+00  -1.03172256E+01  -1.40469409E+01  -2.35149166E+00  -4.63996781E+00  -3.22152312E+00  -4.09796143E+00  -8.39998699E+00  -2.95176733E+00  -4.43468470E+00  -6.55969665E+00  -6.03516493E+00  -4.04403640E+00  -6.79646300E+00  -1.47767905E+02  -1.06580764E+01  -6.96938684E+00  -1.28400142E+01  -1.37812039E+01  -8.34340822E+00  -3.20879843E+00  -9.76464866E+00  -3.68657883E+00  -6.35379340E+01  -1.43329271E+01  -8.24179831E+00  -1.92990603E+00  -4.54735664E+01  -6.65748758E+00  -7.70213477E+00  -3.95627635E+00  -8.03021754E+00  -6.87328171E+00  -6.95242872E+00  -8.21142416E+00  -9.83937879E+00  -8.62121235E+00  -7.20300457E+00  -6.36126957E+00  -1.21696185E+01  -6.19530316E+00  -1.62569657E+01  -5.93670511E+00  -9.07199360E+00  -1.33374930E+01  -1.33377492E+01  -1.81625718E+01  -9.62348671E+00  -1.80556177E+01  -1.80559083E+01  -2.62197104E+01  -3.17263215E+01
   8.75000000E+01   5.00000000E-01   5.00000000E-01  -7.49690396E+00  -1.75295682E+01  -3.71202604E+00  -1.32558955E+00  -1.95130506E+00  -3.10360862E+00  -1.17944834E+01  -6.71351233E+00  -5.10537082E+00  -2.62093213E-01  -4.16732927E+00  -1.95157114E+00  -9.96264970E+00  -3.34511046E-01  -1.82227887E+00  -7.74472671E+00  -3.39777820E+00  -5.97294109E+00  -4.40877357E+00  -2.50630470E+00  -1.37231570E+01  -1.48816365E+01  -1.26507188E+01  -1.57884685E+01  -8.88055027E+00  -8.27568446E+00  -1.03608002E+01  -1.39743223E+01  -2.35331372E+00  -4.70284364E+00  -3.18827308E+00  -4.09869400E+00  -8.31988746E+00  -2.92058788E+00  -4.34736077E+00  -6.50290423E+00  -5.97421284E+00  -3.97950989E+00  -6.77941361E+00  -1.45900885E+02  -1.05806245E+01  -6.89633422E+00  -1.26545758E+01  -1.36745121E+01  -8.20444268E+00  -3.20858579E+00  -9.73376679E+00  -3.68572929E+00  -6.26949931E+01  -1.42377605E+01  -8.24102636E+00  -1.94150881E+00  -4.49389103E+01  -6.62726976E+00  -7.73261523E+00  -3.97915748E+00  -7.90225601E+00  -6.84756231E+00  -7.02831575E+00  -8.18097855E+00  -9.90982698E+00  -8.65546547E+00  -7.16954379E+00  -6.35812788E+00  -1.21092826E+01  -6.18748278E+00  -1.59808660E+01  -5.83751297E+00  -8.99494603E+00  -1.32166313E+01  -1.32168932E+01  -1.80029877E+01  -9.44415397E+00  -1.78971488E+01  -1.78974500E+01  -2.59374426E+01  -3.13838341E+01
   1.22500000E+02   5.00000000E-01   5.00000000E-01  -7.40410600E+00  -1.74087804E+01  -3.64898265E+00  -1.33332627E+00  -1.92369491E+00  -3.07827693E+00  -1.18106806E+01  -6.71398142E+00  -5.10641508E+00  -2.61985762E-01  -4.16717548E+00  -1.95151665E+00  -9.93439847E+00  -3.34260379E-01  -1.81687897E+00  -7.74462683E+00  -3.39762441E+00  -5.98214643E+00  -4.40861978E+00  -2.46307600E+00  -1.36032913E+01  -1.47381503E+01  -1.25524337E+01  -1.56692565E+01  -8.85335502E+00  -8.25975641E+00  -1.03964089E+01  -1.38969900E+01  -2.35488217E+00  -4.75887696E+00  -3.15589344E+00  -4.09817851E+00  -8.23649766E+00  -2.89103889E+00  -4.29001050E+00  -6.47417273E+00  -5.93727193E+00  -3.94520644E+00  -6.75724241E+00  -1.44082926E+02  -1.05118934E+01  -6.82868702E+00  -1.24828214E+01  -1.35602989E+01  -8.07426377E+00  -3.20708900E+00  -9.69695691E+00  -3.68423042E+00  -6.18731643E+01  -1.41278461E+01  -8.23274236E+00  -1.95197073E+00  -4.44140447E+01  -6.59571411E+00  -7.75320949E+00  -4.02386493E+00  -7.81093968E+00  -6.84936183E+00  -7.12243079E+00  -8.14739823E+00  -9.97170347E+00  -8.68201474E+00  -7.13465810E+00  -6.35362636E+00  -1.20437274E+01  -6.17957471E+00  -1.57482265E+01  -5.79433702E+00  -8.96765879E+00  -1.31703158E+01  -1.31705791E+01  -1.79429342E+01  -9.37635101E+00  -1.78381933E+01  -1.78384991E+01  -2.58039135E+01  -3.11016845E+01
   1.57500000E+02   5.00000000E-01   5.00000000E-01  -7.30821293E+00  -1.72426911E+01  -3.58084905E+00  -1.34096276E+00  -1.89753966E+00  -3.05452299E+00  -1.18415542E+01  -6.71446256E+00  -5.10751609E+00  -2.61836855E-01  -4.16697485E+00  -1.95148600E+00  -9.91082996E+00  -3.34058526E-01  -1.81242683E+00  -7.74448023E+00  -3.39742378E+00  -5.99417962E+00  -4.40841915E+00  -2.42501666E+00  -1.34797468E+01  -1.45592520E+01  -1.24291191E+01  -1.55090729E+01  -8.82589166E+00  -8.24283129E+00  -1.04372683E+01  -1.38270363E+01  -2.35717286E+00  -4.82112593E+00  -3.12356331E+00  -4.09574508E+00  -8.16100119E+00  -2.86237208E+00  -4.23329790E+00  -6.44430651E+00  -5.90707533E+00  -3.91187702E+00  -6.74198805E+00  -1.42288882E+02  -1.04418147E+01  -6.75909659E+00  -1.23052528E+01  -1.34150398E+01  -7.94076580E+00  -3.20443693E+00  -9.66636528E+00  -3.68222669E+00  -6.10599535E+01  -1.39918938E+01  -8.22920948E+00  -1.96147786E+00  -4.38987065E+01  -6.56683524E+00  -7.78018540E+00  -4.07422519E+00  -7.71944059E+00  -6.85409603E+00  -7.22245222E+00  -8.11564346E+00  -1.00418696E+01  -8.71405735E+00  -7.09945226E+00  -6.34787647E+00  -1.19850572E+01  -6.17174573E+00  -1.54846494E+01  -5.76699137E+00  -8.96210068E+00  -1.31565141E+01  -1.31567763E+01  -1.79263508E+01  -9.33973019E+00  -1.78226893E+01  -1.78229956E+01  -2.57351357E+01  -3.08052531E+01
   1.92500000E+02   5.00000000E-01   5.00000000E-01  -7.19874219E+00  -1.69609129E+01  -3.49835199E+00  -1.34872729E+00  -1.87202678E+00  -3.01370242E+00  -1.19210884E+01  -6.71494965E+00  -5.10864966E+00  -2.61653305E-01  -4.16673054E+00  -1.95147444E+00  -9.89453282E+00  -3.34003479E-01  -1.80889674E+00  -7.74429005E+00  -3.39717947E+00  -6.01281293E+00  -4.40817484E+00  -2.38299562E+00  -1.33421381E+01  -1.42954288E+01  -1.22520392E+01  -1.52479935E+01  -8.79931807E+00  -8.22502102E+00  -1.04948919E+01  -1.37747981E+01  -2.36121741E+00  -4.90094148E+00  -3.09060203E+00  -4.09086068E+00  -8.10296767E+00  -2.83395786E+00  -4.15870337E+00  -6.39492346E+00  -5.87541522E+00  -3.86106686E+00  -6.74393463E+00  -1.40497125E+02  -1.03626813E+01  -6.68098655E+00  -1.21049080E+01  -1.31996686E+01  -7.79357980E+00  -3.20075709E+00  -9.65238215E+00  -3.67983440E+00  -6.02446530E+01  -1.38013937E+01  -8.24101449E+00  -1.97027487E+00  -4.33926485E+01  -6.54380038E+00  -7.82718766E+00  -4.12317708E+00  -7.60253100E+00  -6.84702019E+00  -7.32412275E+00  -8.08967252E+00  -1.01344203E+01  -8.76308755E+00  -7.06507985E+00  -6.34098648E+00  -1.19436194E+01  -6.16413854E+00  -1.51207685E+01  -5.74759218E+00  -8.98077109E+00  -1.31789779E+01  -1.31792380E+01  -1.79582404E+01  -9.31854068E+00  -1.78556388E+01  -1.78559432E+01  -2.57386272E+01  -3.04439777E+01
   2.27500000E+02   5.00000000E-01   5.00000000E-01  -7.10544652E+00  -1.67848325E+01  -3.42983576E+00  -1.35604856E+00  -1.84777477E+00  -2.98333488E+00  -1.19555190E+01  -6.71546325E+00  -5.10983957E+00  -2.61433906E-01  -4.16644526E+00  -1.95148151E+00  -9.87816165E+00  -3.34020582E-01  -1.80606397E+00  -7.74405901E+00  -3.39689419E+00  -6.03188166E+00  -4.40788956E+00  -2.34934018E+00  -1.32203076E+01  -1.41084771E+01  -1.21233091E+01  -1.50776339E+01  -8.77220302E+00  -8.20644890E+00  -1.05379792E+01  -1.37104124E+01  -2.36544154E+00  -4.96684359E+00  -3.05774331E+00  -4.08438973E+00  -8.03316807E+00  -2.80638535E+00  -4.09385461E+00  -6.35377241E+00  -5.84001518E+00  -3.82027232E+00  -6.73314454E+00  -1.38766111E+02  -1.02970751E+01  -6.61807073E+00  -1.19353426E+01  -1.30461968E+01  -7.66236341E+00  -3.19616497E+00  -9.62517237E+00  -3.67696597E+00  -5.94567973E+01  -1.36585041E+01  -8.23833410E+00  -1.97822392E+00  -4.28956339E+01  -6.52125792E+00  -7.85910403E+00  -4.16697743E+00  -7.51143997E+00  -6.84961347E+00  -7.41917142E+00  -8.06349527E+00  -1.02132848E+01  -8.79780617E+00  -7.03012551E+00  -6.33309648E+00  -1.18895806E+01  -6.15673264E+00  -1.48602345E+01  -5.73093815E+00  -8.98861858E+00  -1.31851285E+01  -1.31853867E+01  -1.79685048E+01  -9.30239372E+00  -1.78669428E+01  -1.78672443E+01  -2.57092241E+01  -3.01496494E+01
   2.62500000E+02   5.00000000E-01   5.00000000E-01  -7.02380330E+00  -1.66820289E+01  -3.37081098E+00  -1.36309499E+00  -1.82489317E+00  -2.96656550E+00  -1.19588770E+01  -6.71600752E+00  -5.11108509E+00  -2.61179806E-01  -4.16612139E+00  -1.95150579E+00  -9.86191324E+00  -3.34029370E-01  -1.80383509E+00  -7.74378948E+00  -3.39657032E+00  -6.05051665E+00  -4.40756569E+00  -2.32147520E+00  -1.31098048E+01  -1.39749266E+01  -1.20283382E+01  -1.49700731E+01  -8.74453734E+00  -8.18720209E+00  -1.05709255E+01  -1.36382700E+01  -2.36973183E+00  -5.02311041E+00  -3.02519424E+00  -4.07665078E+00  -7.95613593E+00  -2.77981831E+00  -4.04198708E+00  -6.32419113E+00  -5.80849301E+00  -3.79269829E+00  -6.71397014E+00  -1.37085994E+02  -1.02408244E+01  -6.56506066E+00  -1.17868194E+01  -1.29356374E+01  -7.54260729E+00  -3.19075475E+00  -9.58916824E+00  -3.67363679E+00  -5.86916270E+01  -1.35486509E+01  -8.22560234E+00  -1.98528442E+00  -4.24074243E+01  -6.49859545E+00  -7.87984345E+00  -4.21321989E+00  -7.44401199E+00  -6.86423746E+00  -7.51449218E+00  -8.03638269E+00  -1.02819952E+01  -8.82260190E+00  -6.99458685E+00  -6.32430157E+00  -1.18273523E+01  -6.14956449E+00  -1.46722836E+01  -5.71631620E+00  -8.98936789E+00  -1.31805646E+01  -1.31808222E+01  -1.79645947E+01  -9.28988316E+00  -1.78640512E+01  -1.78643503E+01  -2.56581847E+01  -2.99020213E+01
   2.97500000E+02   5.00000000E-01   5.00000000E-01  -6.94664664E+00  -1.65996476E+01  -3.31469628E+00  -1.37014416E+00  -1.80328239E+00  -2.95743814E+00  -1.19540512E+01  -6.71658143E+00  -5.11237592E+00  -2.60893648E-01  -4.16576097E+00  -1.95154523E+00  -9.84728009E+00  -3.34002743E-01  -1.80216946E+00  -7.74348352E+00  -3.39620990E+00  -6.07000818E+00  -4.40720527E+00  -2.29617595E+00  -1.30035287E+01  -1.38561633E+01  -1.19426887E+01  -1.48796003E+01  -8.71685912E+00  -8.16735643E+00  -1.06013245E+01  -1.35654062E+01  -2.37453689E+00  -5.07723531E+00  -2.99294586E+00  -4.06773907E+00  -7.87884297E+00  -2.75424973E+00  -3.99722799E+00  -6.30040243E+00  -5.78200995E+00  -3.77248624E+00  -6.69341885E+00  -1.35441758E+02  -1.01883986E+01  -6.51617579E+00  -1.16464585E+01  -1.28365053E+01  -7.42720214E+00  -3.18461314E+00  -9.55144852E+00  -3.66990490E+00  -5.79417436E+01  -1.34474570E+01  -8.20994729E+00  -1.99151102E+00  -4.19277897E+01  -6.47713680E+00  -7.89789284E+00  -4.26359631E+00  -7.38849938E+00  -6.88630588E+00  -7.61267323E+00  -8.00974972E+00  -1.03488947E+01  -8.84505701E+00  -6.95900347E+00  -6.31468047E+00  -1.17639843E+01  -6.14270002E+00  -1.45077293E+01  -5.70436000E+00  -8.99073664E+00  -1.31768726E+01  -1.31771318E+01  -1.79619464E+01  -9.28229476E+00  -1.78623999E+01  -1.78626979E+01  -2.56087333E+01  -2.96695859E+01
   3.32500000E+02   5.00000000E-01   5.00000000E-01  -6.87223535E+00  -1.65257513E+01  -3.26008274E+00  -1.37734520E+00  -1.78283087E+00  -2.95238457E+00  -1.19470099E+01  -6.71718613E+00  -5.11370507E+00  -2.60577810E-01  -4.16536581E+00  -1.95159802E+00  -9.83452449E+00  -3.33932147E-01  -1.80102233E+00  -7.74314291E+00  -3.39581475E+00  -6.09091120E+00  -4.40681012E+00  -2.27208753E+00  -1.28997976E+01  -1.37436460E+01  -1.18611564E+01  -1.47959980E+01  -8.68945839E+00  -8.14698483E+00  -1.06311056E+01  -1.34934414E+01  -2.38006199E+00  -5.13105106E+00  -2.96097093E+00  -4.05772504E+00  -7.80282945E+00  -2.72964821E+00  -3.95608614E+00  -6.27900454E+00  -5.75869319E+00  -3.75615265E+00  -6.67308404E+00  -1.33829248E+02  -1.01384526E+01  -6.47031929E+00  -1.15114830E+01  -1.27419670E+01  -7.31445252E+00  -3.17782125E+00  -9.51367279E+00  -3.66581837E+00  -5.72051808E+01  -1.33497910E+01  -8.19309001E+00  -1.99696529E+00  -4.14565094E+01  -6.45745045E+00  -7.91555653E+00  -4.31651601E+00  -7.34022864E+00  -6.91288423E+00  -7.71252765E+00  -7.98426512E+00  -1.04161707E+01  -8.86709044E+00  -6.92366718E+00  -6.30430941E+00  -1.17011111E+01  -6.13619712E+00  -1.43547628E+01  -5.69401868E+00  -8.99333447E+00  -1.31749729E+01  -1.31752368E+01  -1.79617808E+01  -9.27754238E+00  -1.78632095E+01  -1.78635088E+01  -2.55627426E+01  -2.94443690E+01
   3.67500000E+02   5.00000000E-01   5.00000000E-01  -6.80002475E+00  -1.64568177E+01  -3.20666603E+00  -1.38477332E+00  -1.76343689E+00  -2.94963124E+00  -1.19397496E+01  -6.71782325E+00  -5.11506697E+00  -2.60234319E-01  -4.16493749E+00  -1.95166261E+00  -9.82363606E+00  -3.33815306E-01  -1.80034662E+00  -7.74276925E+00  -3.39538643E+00  -6.11341600E+00  -4.40638180E+00  -2.24874252E+00  -1.27981204E+01  -1.36348588E+01  -1.17821781E+01  -1.47162672E+01  -8.66253498E+00  -8.12615415E+00  -1.06609182E+01  -1.34228054E+01  -2.38642953E+00  -5.18511925E+00  -2.92924479E+00  -4.04667413E+00  -7.72845279E+00  -2.70597839E+00  -3.91685776E+00  -6.25837601E+00  -5.73726967E+00  -3.74199451E+00  -6.65337267E+00  -1.32246706E+02  -1.00905555E+01  -6.42721944E+00  -1.13811319E+01  -1.26500198E+01  -7.20384944E+00  -3.17045336E+00  -9.47630808E+00  -3.66141560E+00  -5.64811734E+01  -1.32541611E+01  -8.17555947E+00  -2.00170389E+00  -4.09933705E+01  -6.43973883E+00  -7.93357497E+00  -4.37089918E+00  -7.29714727E+00  -6.94246349E+00  -7.81309642E+00  -7.96022120E+00  -1.04844562E+01  -8.88934202E+00  -6.88877975E+00  -6.29325890E+00  -1.16391765E+01  -6.13010205E+00  -1.42096961E+01  -5.68482213E+00  -8.99715772E+00  -1.31748644E+01  -1.31751368E+01  -1.79640924E+01  -9.27469988E+00  -1.78664741E+01  -1.78667780E+01  -2.55202324E+01  -2.92240380E+01
   4.02500000E+02   5.00000000E-01   5.00000000E-01  -6.72977064E+00  -1.63913067E+01  -3.15440839E+00  -1.39246941E+00  -1.74500931E+00  -2.94829700E+00  -1.19331806E+01  -6.71849425E+00  -5.11645656E+00  -2.59864940E-01  -4.16447740E+00  -1.95173771E+00  -9.81454780E+00  -3.33652270E-01  -1.80009694E+00  -7.74236392E+00  -3.39492633E+00  -6.13755941E+00  -4.40592170E+00  -2.22600509E+00  -1.26983004E+01  -1.35286693E+01  -1.17049820E+01  -1.46390911E+01  -8.63625580E+00  -8.10492457E+00  -1.06910843E+01  -1.33536323E+01  -2.39373686E+00  -5.23968408E+00  -2.89774623E+00  -4.03464772E+00  -7.65578382E+00  -2.68320514E+00  -3.87872436E+00  -6.23777352E+00  -5.71705936E+00  -3.72919041E+00  -6.63440067E+00  -1.30692995E+02  -1.00445114E+01  -6.38674465E+00  -1.12550789E+01  -1.25597459E+01  -7.09517838E+00  -3.16257679E+00  -9.43952404E+00  -3.65672898E+00  -5.57692604E+01  -1.31598615E+01  -8.15758441E+00  -2.00577844E+00  -4.05381669E+01  -6.42404969E+00  -7.95223268E+00  -4.42622798E+00  -7.25823597E+00  -6.97426781E+00  -7.91385263E+00  -7.93774514E+00  -1.05539376E+01  -8.91212447E+00  -6.85450996E+00  -6.28159285E+00  -1.15783282E+01  -6.12445169E+00  -1.40708684E+01  -5.67666589E+00  -9.00227072E+00  -1.31766472E+01  -1.31769323E+01  -1.79690115E+01  -9.27357134E+00  -1.78723238E+01  -1.78726362E+01  -2.54814208E+01  -2.90077652E+01
   4.37500000E+02   5.00000000E-01   5.00000000E-01  -6.66133312E+00  -1.63283834E+01  -3.10336004E+00  -1.40045904E+00  -1.72746653E+00  -2.94792782E+00  -1.19278119E+01  -6.71920034E+00  -5.11786892E+00  -2.59471246E-01  -4.16398676E+00  -1.95182220E+00  -9.80718092E+00  -3.33443992E-01  -1.80023136E+00  -7.74192813E+00  -3.39443569E+00  -6.16330863E+00  -4.40543106E+00  -2.20384493E+00  -1.26002399E+01  -1.34244444E+01  -1.16290942E+01  -1.45637537E+01  -8.61077213E+00  -8.08334977E+00  -1.07218111E+01  -1.32859561E+01  -2.40207328E+00  -5.29488518E+00  -2.86645694E+00  -4.02170295E+00  -7.58480160E+00  -2.66129471E+00  -3.84128795E+00  -6.21686748E+00  -5.69770608E+00  -3.71733757E+00  -6.61618849E+00  -1.29167202E+02  -1.00002079E+01  -6.34879131E+00  -1.11331245E+01  -1.24706232E+01  -6.98832516E+00  -3.15425226E+00  -9.40338881E+00  -3.65178701E+00  -5.50690879E+01  -1.30664787E+01  -8.13928819E+00  -2.00923634E+00  -4.00906990E+01  -6.41035928E+00  -7.97163788E+00  -4.48229461E+00  -7.22293103E+00  -7.00787280E+00  -8.01451626E+00  -7.91688344E+00  -1.06246348E+01  -8.93563625E+00  -6.82101070E+00  -6.26936855E+00  -1.15186129E+01  -6.11927532E+00  -1.39373384E+01  -5.66955552E+00  -9.00874646E+00  -1.31804336E+01  -1.31807363E+01  -1.79766853E+01  -9.27418004E+00  -1.78809060E+01  -1.78812313E+01  -2.54465477E+01  -2.87952192E+01
   4.72500000E+02   5.00000000E-01   5.00000000E-01  -6.59461941E+00  -1.62675624E+01  -3.05360757E+00  -1.40876094E+00  -1.71073558E+00  -2.94828209E+00  -1.19239662E+01  -6.71994238E+00  -5.11929910E+00  -2.59054665E-01  -4.16346664E+00  -1.95191511E+00  -9.80145541E+00  -3.33191781E-01  -1.80071186E+00  -7.74146298E+00  -3.39391557E+00  -6.19059512E+00  -4.40491095E+00  -2.18225617E+00  -1.25038830E+01  -1.33218078E+01  -1.15542108E+01  -1.44898415E+01  -8.58622510E+00  -8.06147738E+00  -1.07532534E+01  -1.32197675E+01  -2.41152502E+00  -5.35081915E+00  -2.83536101E+00  -4.00789278E+00  -7.51544945E+00  -2.64021504E+00  -3.80435676E+00  -6.19552828E+00  -5.67901973E+00  -3.70623834E+00  -6.59871757E+00  -1.27668527E+02  -9.95757054E+00  -6.31326110E+00  -1.10151168E+01  -1.23823409E+01  -6.88321994E+00  -3.14553434E+00  -9.36792585E+00  -3.64661519E+00  -5.43803526E+01  -1.29737627E+01  -8.12074555E+00  -2.01212122E+00  -3.96507731E+01  -6.39860600E+00  -7.99181344E+00  -4.53904900E+00  -7.19088676E+00  -7.04302511E+00  -8.11493085E+00  -7.89763670E+00  -1.06964914E+01  -8.96002352E+00  -6.78842441E+00  -6.25663699E+00  -1.14600331E+01  -6.11459569E+00  -1.38085041E+01  -5.66350139E+00  -9.01661838E+00  -1.31862767E+01  -1.31866020E+01  -1.79871821E+01  -9.27655819E+00  -1.78922888E+01  -1.78926319E+01  -2.54157322E+01  -2.85862581E+01
   5.07500000E+02   5.00000000E-01   5.00000000E-01  -6.52956200E+00  -1.62085608E+01  -3.00525337E+00  -1.41739079E+00  -1.69475131E+00  -2.94923019E+00  -1.19218651E+01  -6.72072094E+00  -5.12074205E+00  -2.58616510E-01  -4.16291802E+00  -1.95201560E+00  -9.79729271E+00  -3.32897070E-01  -1.80150428E+00  -7.74096942E+00  -3.39336695E+00  -6.21932945E+00  -4.40436232E+00  -2.16123248E+00  -1.24091943E+01  -1.32205373E+01  -1.14801382E+01  -1.44171185E+01  -8.56274703E+00  -8.03934941E+00  -1.07855366E+01  -1.31550354E+01  -2.42217601E+00  -5.40756172E+00  -2.80444469E+00  -3.99326623E+00  -7.44765591E+00  -2.61993580E+00  -3.76784543E+00  -6.17372695E+00  -5.66089788E+00  -3.69580065E+00  -6.58195168E+00  -1.26196241E+02  -9.91654426E+00  -6.28005434E+00  -1.09009229E+01  -1.22947177E+01  -6.77981563E+00  -3.13647194E+00  -9.33313578E+00  -3.64123648E+00  -5.37027795E+01  -1.28815682E+01  -8.10200444E+00  -2.01447326E+00  -3.92182017E+01  -6.38870545E+00  -8.01273380E+00  -4.59652148E+00  -7.16186845E+00  -7.07955713E+00  -8.21500023E+00  -7.87997529E+00  -1.07694113E+01  -8.98540300E+00  -6.75688432E+00  -6.24344333E+00  -1.14025691E+01  -6.11042971E+00  -1.36839516E+01  -5.65849065E+00  -9.02587421E+00  -1.31941603E+01  -1.31945138E+01  -1.80004782E+01  -9.28069093E+00  -1.79064487E+01  -1.79068150E+01  -2.53889540E+01  -2.83808183E+01
   5.42500000E+02   5.00000000E-01   5.00000000E-01  -6.46610816E+00  -1.61512180E+01  -2.95840491E+00  -1.42636291E+00  -1.67945575E+00  -2.95070463E+00  -1.19216703E+01  -6.72153631E+00  -5.12219259E+00  -2.58157999E-01  -4.16234173E+00  -1.95212297E+00  -9.79461610E+00  -3.32561319E-01  -1.80257800E+00  -7.74044830E+00  -3.39279066E+00  -6.24940878E+00  -4.40378604E+00  -2.14076203E+00  -1.23161490E+01  -1.31205053E+01  -1.14067540E+01  -1.43454562E+01  -8.54046116E+00  -8.01700285E+00  -1.08187661E+01  -1.30917173E+01  -2.43410707E+00  -5.46517684E+00  -2.77369623E+00  -3.97786876E+00  -7.38134445E+00  -2.60042827E+00  -3.73172558E+00  -6.15148626E+00  -5.64328629E+00  -3.68598877E+00  -6.56584677E+00  -1.24749659E+02  -9.87708359E+00  -6.24906750E+00  -1.07904169E+01  -1.22076532E+01  -6.67807776E+00  -3.12710881E+00  -9.29900669E+00  -3.63567153E+00  -5.30361117E+01  -1.27898154E+01  -8.08309664E+00  -2.01632939E+00  -3.87928028E+01  -6.38055802E+00  -8.03434317E+00  -4.65478297E+00  -7.13570003E+00  -7.11734520E+00  -8.31465713E+00  -7.86384766E+00  -1.08432762E+01  -9.01187186E+00  -6.72651419E+00  -6.22982731E+00  -1.13461889E+01  -6.10678897E+00  -1.35633800E+01  -5.65448764E+00  -9.03646656E+00  -1.32040156E+01  -1.32044029E+01  -1.80164796E+01  -9.28651713E+00  -1.79232919E+01  -1.79236868E+01  -2.53660854E+01  -2.81788700E+01
   5.77500000E+02   5.00000000E-01   5.00000000E-01  -6.40421435E+00  -1.60954470E+01  -2.91316798E+00  -1.43569100E+00  -1.66479747E+00  -2.95267358E+00  -1.19235054E+01  -6.72238859E+00  -5.12364543E+00  -2.57680273E-01  -4.16173854E+00  -1.95223660E+00  -9.79335062E+00  -3.32185964E-01  -1.80390558E+00  -7.73990036E+00  -3.39218747E+00  -6.28072146E+00  -4.40318285E+00  -2.12082869E+00  -1.22247276E+01  -1.30216416E+01  -1.13339805E+01  -1.42747908E+01  -8.51948062E+00  -7.99447011E+00  -1.08530324E+01  -1.30297653E+01  -2.44739427E+00  -5.52372024E+00  -2.74310566E+00  -3.96174249E+00  -7.31643835E+00  -2.58166522E+00  -3.69599984E+00  -6.12885513E+00  -5.62615806E+00  -3.67679727E+00  -6.55035615E+00  -1.23328136E+02  -9.83914762E+00  -6.22019259E+00  -1.06834737E+01  -1.21210961E+01  -6.57797892E+00  -3.11748395E+00  -9.26551965E+00  -3.62993881E+00  -5.23801048E+01  -1.26984645E+01  -8.06404349E+00  -2.01772345E+00  -3.83743999E+01  -6.37405367E+00  -8.05656590E+00  -4.71392282E+00  -7.11223692E+00  -7.15628797E+00  -8.41384721E+00  -7.84918569E+00  -1.09179550E+01  -9.03951195E+00  -6.69742727E+00  -6.21582381E+00  -1.12908539E+01  -6.10368026E+00  -1.34465587E+01  -5.65144153E+00  -9.04832621E+00  -1.32157407E+01  -1.32161676E+01  -1.80350484E+01  -9.29394477E+00  -1.79426807E+01  -1.79431101E+01  -2.53469315E+01  -2.79803976E+01
   6.12500000E+02   5.00000000E-01   5.00000000E-01  -6.34384291E+00  -1.60412046E+01  -2.86964199E+00  -1.44538863E+00  -1.65073091E+00  -2.95512585E+00  -1.19274688E+01  -6.72327779E+00  -5.12509524E+00  -2.57184406E-01  -4.16110911E+00  -1.95235598E+00  -9.79342271E+00  -3.31772395E-01  -1.80546247E+00  -7.73932629E+00  -3.39155804E+00  -6.31315028E+00  -4.40255342E+00  -2.10141423E+00  -1.21349127E+01  -1.29239094E+01  -1.12617673E+01  -1.42050966E+01  -8.49990706E+00  -7.97177953E+00  -1.08884119E+01  -1.29691283E+01  -2.46210699E+00  -5.58324023E+00  -2.71266462E+00  -3.94492642E+00  -7.25286321E+00  -2.56362068E+00  -3.66068720E+00  -6.10589444E+00  -5.60950188E+00  -3.66823651E+00  -6.53543320E+00  -1.21931053E+02  -9.80269689E+00  -6.19331759E+00  -1.05799665E+01  -1.20350235E+01  -6.47949570E+00  -3.10763206E+00  -9.23265194E+00  -3.62405480E+00  -5.17345239E+01  -1.26074983E+01  -8.04485931E+00  -2.01868637E+00  -3.79628216E+01  -6.36907534E+00  -8.07931320E+00  -4.77403554E+00  -7.09135143E+00  -7.19629520E+00  -8.51252110E+00  -7.83590871E+00  -1.09933103E+01  -9.06839147E+00  -6.66972491E+00  -6.20146326E+00  -1.12365224E+01  -6.10110607E+00  -1.33333024E+01  -5.64929400E+00  -9.06137282E+00  -1.32292169E+01  -1.32296892E+01  -1.80560243E+01  -9.30286638E+00  -1.79644552E+01  -1.79649249E+01  -2.53312620E+01  -2.77853901E+01
   6.47500000E+02   5.00000000E-01   5.00000000E-01  -6.28496017E+00  -1.59884719E+01  -2.82791628E+00  -1.45546935E+00  -1.63721589E+00  -2.95806209E+00  -1.19336415E+01  -6.72420393E+00  -5.12653675E+00  -2.56671422E-01  -4.16045404E+00  -1.95248071E+00  -9.79476001E+00  -3.31321947E-01  -1.80722669E+00  -7.73872667E+00  -3.39090297E+00  -6.34657517E+00  -4.40189835E+00  -2.08250022E+00  -1.20466880E+01  -1.28272906E+01  -1.11900795E+01  -1.41363686E+01  -8.48182908E+00  -7.94895590E+00  -1.09249679E+01  -1.29097550E+01  -2.47830583E+00  -5.64377721E+00  -2.68236610E+00  -3.92745667E+00  -7.19054830E+00  -2.54626984E+00  -3.62581467E+00  -6.08266906E+00  -5.59331522E+00  -3.66032429E+00  -6.52103297E+00  -1.20557814E+02  -9.76769164E+00  -6.16832753E+00  -1.04797665E+01  -1.19494281E+01  -6.38260682E+00  -3.09758392E+00  -9.20037890E+00  -3.61803408E+00  -5.10991414E+01  -1.25169107E+01  -8.02555350E+00  -2.01924633E+00  -3.75579019E+01  -6.36550173E+00  -8.10248792E+00  -4.83521216E+00  -7.07292514E+00  -7.23728196E+00  -8.61063054E+00  -7.82392680E+00  -1.10692023E+01  -9.09856506E+00  -6.64349503E+00  -6.18677222E+00  -1.11831509E+01  -6.09906508E+00  -1.32234549E+01  -5.64798478E+00  -9.07552231E+00  -1.32443194E+01  -1.32448430E+01  -1.80792394E+01  -9.31317000E+00  -1.79884476E+01  -1.79889637E+01  -2.53188338E+01  -2.75938369E+01
   6.82500000E+02   5.00000000E-01   5.00000000E-01  -6.22753520E+00  -1.59372435E+01  -2.78806734E+00  -1.46594693E+00  -1.62421695E+00  -2.96148961E+00  -1.19420925E+01  -6.72516721E+00  -5.12796488E+00  -2.56142298E-01  -4.15977385E+00  -1.95261045E+00  -9.79729116E+00  -3.30835890E-01  -1.80917856E+00  -7.73810203E+00  -3.39022279E+00  -6.38087547E+00  -4.40121817E+00  -2.06406919E+00  -1.19600368E+01  -1.27317763E+01  -1.11188911E+01  -1.40686124E+01  -8.46532069E+00  -7.92602091E+00  -1.09627493E+01  -1.28515945E+01  -2.49604056E+00  -5.70536234E+00  -2.65220433E+00  -3.90936661E+00  -7.12942705E+00  -2.52958882E+00  -3.59141238E+00  -6.05924329E+00  -5.57760025E+00  -3.65308102E+00  -6.50711287E+00  -1.19207846E+02  -9.73409083E+00  -6.14510595E+00  -1.03827431E+01  -1.18643100E+01  -6.28729207E+00  -3.08736674E+00  -9.16867502E+00  -3.61188948E+00  -5.04737361E+01  -1.24267009E+01  -8.00613190E+00  -2.01942899E+00  -3.71594794E+01  -6.36320971E+00  -8.12598810E+00  -4.89753441E+00  -7.05684506E+00  -7.27916602E+00  -8.70812701E+00  -7.81314369E+00  -1.11454920E+01  -9.13007333E+00  -6.61881057E+00  -6.17177380E+00  -1.11306961E+01  -6.09755271E+00  -1.31168799E+01  -5.64745507E+00  -9.09069140E+00  -1.32609246E+01  -1.32615054E+01  -1.81045271E+01  -9.32474620E+00  -1.80144920E+01  -1.80150603E+01  -2.53094043E+01  -2.74057253E+01