 TITLE = "Total Concentrations" 
VARIABLES = "X"          "Y"              "Z"            "H+"             "Al+++"          "CO2(aq)"        "Mg++"           "Ca++"           "Fe++"           "Fe+++"          "Ba++"           "Sr++"           "Cl-"            "F-"             "K+"             "Na+"            "SO4--"          "O2(aq)"         "B(OH)3(aq)"     "HPO4--"         "NO3-"           "H4SiO4(aq)"     "HNO3(aq)"       "Al(OH)2+"       "AlO2-"          "AlOH++"         "BaHCO3+"        "BaCl+"          "BaCO3(aq)"      "BaOH+"          "HCO3-"          "CO3--"          "CaCl+"          "CaCl2(aq)"      "CaOH+"          "CaSO4(aq)"      "FeCl+"          "FeCl2(aq)"      "FeOH+"          "FeSO4(aq)"      "OH-"            "HS-"            "S2O3--"         "H2PO4-"         "H3PO4(aq)"      "HAlO2(aq)"      "HSO4-"          "KCl(aq)"        "KOH(aq)"        "KSO4-"          "NH3(aq)"        "NaAlO2(aq)"     "NaOH(aq)"       "NaSO4-"         "H2(aq)"         "CaHPO4(aq)"     "CaPO4-"         "FeCO3(aq)"      "FeH2PO4+"       "FeHPO4(aq)"     "FePO4-"         "KHPO4-"         "PO4---"         "Sr(CO3)(aq)"    "SrHCO3+"        "SrCl+"          "SrOH+"          "SrSO4(aq)"      "AlH3SiO4++"     "Si2O2(OH)5-"    "Si2O3(OH)4--"   "Si3O5(OH)5---"  "Si3O6(OH)3---"  "Si4O12H4----"   "Si4O6(OH)6--"   "Si4O7(OH)6----" "Si4O8(OH)4----" "Si6O15------"   "SiF6--"        
 ZONE I=         100 , J=           1 , K=           1  F=POINT
   1.75000000E+01   5.00000000E-01   5.00000000E-01  -7.63528445E+00  -1.51691226E+01  -3.76762502E+00  -1.29266165E+00  -2.05219919E+00  -4.71885719E+00  -1.31161872E+01  -6.71257298E+00  -5.10354966E+00  -2.62101260E-01  -4.16749098E+00  -1.95218121E+00  -3.35496545E-01  -1.83504782E+00  -3.74472739E+00  -3.39793991E+00  -5.87982228E+00  -4.40893528E+00  -3.57666210E+00  -1.39177432E+01  -1.27085813E+01  -1.05201356E+01  -1.34914668E+01  -8.92727047E+00  -8.30630060E+00  -1.03431570E+01  -1.42197571E+01  -2.34166963E+00  -4.64470200E+00  -3.29408577E+00  -4.12814832E+00  -8.61606982E+00  -3.02089311E+00  -6.02813558E+00  -8.11506489E+00  -7.68450769E+00  -5.60925043E+00  -6.90398228E+00  -1.53081794E+02  -1.57813197E+02  -6.90082789E+00  -1.28188615E+01  -1.15052506E+01  -8.42024279E+00  -3.20772855E+00  -9.88763023E+00  -3.68495699E+00  -7.24529764E+01  -1.21286484E+01  -8.32746428E+00  -1.91302961E+00  -4.81090089E+01  -6.65735922E+00  -7.71428776E+00  -5.49780535E+00  -9.51919775E+00  -8.32565049E+00  -8.36849370E+00  -8.17665938E+00  -9.77379844E+00  -8.65847735E+00  -7.23286936E+00  -6.36328680E+00  -1.23275988E+01  -6.20241265E+00  -1.49243428E+01  -7.95553656E+00  -1.11510173E+01  -1.64618861E+01  -1.64621279E+01  -2.23270623E+01  -1.36382096E+01  -2.22187894E+01  -2.22190574E+01  -3.25143066E+01  -3.26944721E+01
   5.25000000E+01   5.00000000E-01   5.00000000E-01  -7.52049017E+00  -1.49805276E+01  -3.67995099E+00  -1.29325152E+00  -2.05199510E+00  -4.40793063E+00  -1.28992187E+01  -6.71285545E+00  -5.10417564E+00  -2.62081111E-01  -4.16747746E+00  -1.95257050E+00  -3.35225258E-01  -1.82874684E+00  -3.74471387E+00  -3.39792639E+00  -5.88999045E+00  -4.40892176E+00  -3.46483973E+00  -1.37860155E+01  -1.26038166E+01  -1.05436733E+01  -1.33544879E+01  -8.91335478E+00  -8.29750172E+00  -1.04197805E+01  -1.42133279E+01  -2.34510257E+00  -4.73296515E+00  -3.29325425E+00  -4.15219296E+00  -8.62548420E+00  -3.01977017E+00  -5.69755304E+00  -7.80684788E+00  -7.41497721E+00  -5.29275427E+00  -6.93508864E+00  -1.51802582E+02  -1.56437387E+02  -6.80993710E+00  -1.26071038E+01  -1.14705881E+01  -8.27995540E+00  -3.20937617E+00  -9.91082480E+00  -3.68447131E+00  -7.18302378E+01  -1.21463320E+01  -8.37187171E+00  -1.92085401E+00  -4.77413112E+01  -6.66168823E+00  -7.80516020E+00  -5.28863055E+00  -9.11820701E+00  -8.03964990E+00  -8.19715570E+00  -8.16075532E+00  -9.86763270E+00  -8.72866805E+00  -7.21394226E+00  -6.36261547E+00  -1.23299509E+01  -6.19644606E+00  -1.46199406E+01  -7.80940194E+00  -1.10634005E+01  -1.63269540E+01  -1.63272054E+01  -2.21481531E+01  -1.33591674E+01  -2.20406426E+01  -2.20409252E+01  -3.22173413E+01  -3.22247750E+01
   8.75000000E+01   5.00000000E-01   5.00000000E-01  -7.43367290E+00  -1.48743718E+01  -3.61830915E+00  -1.29375418E+00  -2.05185978E+00  -4.22648222E+00  -1.27315228E+01  -6.71314900E+00  -5.10484600E+00  -2.62037179E-01  -4.16743786E+00  -1.95296209E+00  -3.34951063E-01  -1.82303152E+00  -3.74467428E+00  -3.39788680E+00  -5.89931540E+00  -4.40888217E+00  -3.40004505E+00  -1.36818728E+01  -1.25273113E+01  -1.05416415E+01  -1.32725488E+01  -8.89833111E+00  -8.28810997E+00  -1.04685719E+01  -1.41810274E+01  -2.34804117E+00  -4.79404513E+00  -3.29169159E+00  -4.17443502E+00  -8.60861826E+00  -3.01834577E+00  -5.49586597E+00  -7.62655517E+00  -7.24793572E+00  -5.10534329E+00  -6.94019163E+00  -1.50566423E+02  -1.55132118E+02  -6.74525413E+00  -1.24490540E+01  -1.14368265E+01  -8.16752253E+00  -3.21032792E+00  -9.90754780E+00  -3.68372009E+00  -7.12410100E+01  -1.21378002E+01  -8.38900860E+00  -1.92816149E+00  -4.73781995E+01  -6.66425061E+00  -7.86656496E+00  -5.18048586E+00  -8.87299579E+00  -7.88146442E+00  -8.12559184E+00  -8.14329526E+00  -9.93391259E+00  -8.77114995E+00  -7.19387914E+00  -6.36123340E+00  -1.23061871E+01  -6.19044122E+00  -1.44201864E+01  -7.73054735E+00  -1.10164666E+01  -1.62530023E+01  -1.62532598E+01  -2.20506104E+01  -1.32144462E+01  -2.19438553E+01  -2.19441484E+01  -3.20421681E+01  -3.19101660E+01
   1.22500000E+02   5.00000000E-01   5.00000000E-01  -7.35843656E+00  -1.47870285E+01  -3.56673915E+00  -1.29420980E+00  -2.05178762E+00  -4.09811738E+00  -1.26085494E+01  -6.71344866E+00  -5.10555259E+00  -2.61970755E-01  -4.16737367E+00  -1.95334911E+00  -3.34671502E-01  -1.81785183E+00  -3.74461008E+00  -3.39782260E+00  -5.90854195E+00  -4.40881797E+00  -3.35521908E+00  -1.35889559E+01  -1.24481995E+01  -1.05158982E+01  -1.31984128E+01  -8.88261504E+00  -8.27816250E+00  -1.05062956E+01  -1.41391973E+01  -2.35085640E+00  -4.84464990E+00  -3.28943960E+00  -4.19496864E+00  -8.58182729E+00  -3.01664053E+00  -5.34672514E+00  -7.49788636E+00  -7.12336866E+00  -4.97065168E+00  -6.93561472E+00  -1.49356621E+02  -1.53864299E+02  -6.69117607E+00  -1.23127497E+01  -1.13894819E+01  -8.06654946E+00  -3.21062405E+00  -9.89415705E+00  -3.68269960E+00  -7.06688240E+01  -1.21049564E+01  -8.39527279E+00  -1.93496208E+00  -4.70195902E+01  -6.66586106E+00  -7.91571386E+00  -5.11376957E+00  -8.69156225E+00  -7.77548633E+00  -8.09459395E+00  -8.12509000E+00  -9.98972372E+00  -8.80268411E+00  -7.17309759E+00  -6.35917967E+00  -1.22726562E+01  -6.18441042E+00  -1.42506734E+01  -7.68121834E+00  -1.09888254E+01  -1.62079497E+01  -1.62082110E+01  -2.19916548E+01  -1.31285450E+01  -2.18856480E+01  -2.18859480E+01  -3.19246473E+01  -3.16581965E+01
   1.57500000E+02   5.00000000E-01   5.00000000E-01  -7.28951946E+00  -1.47072131E+01  -3.52019545E+00  -1.29463535E+00  -2.05177346E+00  -3.99890738E+00  -1.25131827E+01  -6.71375370E+00  -5.10629170E+00  -2.61882996E-01  -4.16728619E+00  -1.95373549E+00  -3.34385296E-01  -1.81316153E+00  -3.74452260E+00  -3.39773512E+00  -5.91798825E+00  -4.40873049E+00  -3.32084297E+00  -1.35020387E+01  -1.23656904E+01  -1.04761113E+01  -1.31260511E+01  -8.86640746E+00  -8.26769937E+00  -1.05383697E+01  -1.40930520E+01  -2.35370229E+00  -4.89013813E+00  -3.28653869E+00  -4.21388482E+00  -8.55033440E+00  -3.01467739E+00  -5.22624535E+00  -7.39700342E+00  -7.02259399E+00  -4.86478124E+00  -6.92655034E+00  -1.48167623E+02  -1.52623122E+02  -6.64280628E+00  -1.21880678E+01  -1.13330124E+01  -7.97177777E+00  -3.21031408E+00  -9.87588879E+00  -3.68141923E+00  -7.01083477E+01  -1.20575128E+01  -8.39592876E+00  -1.94126880E+00  -4.66654028E+01  -6.66690631E+00  -7.95825518E+00  -5.06999416E+00  -8.54507781E+00  -7.69814793E+00  -8.08585845E+00  -8.10653121E+00  -1.00405913E+01  -8.82868559E+00  -7.15180039E+00  -6.35649624E+00  -1.22345790E+01  -6.17837270E+00  -1.40957476E+01  -7.64760574E+00  -1.09718976E+01  -1.61789298E+01  -1.61791929E+01  -2.19541289E+01  -1.30738517E+01  -2.18488625E+01  -2.18491667E+01  -3.18390588E+01  -3.14384833E+01
   1.92500000E+02   5.00000000E-01   5.00000000E-01  -7.22461238E+00  -1.46313647E+01  -3.47651568E+00  -1.29504030E+00  -2.05181262E+00  -3.91820052E+00  -1.24355576E+01  -6.71406444E+00  -5.10706079E+00  -2.61774946E-01  -4.16717662E+00  -1.95412542E+00  -3.34091732E-01  -1.80891859E+00  -3.74441303E+00  -3.39762555E+00  -5.92783533E+00  -4.40862092E+00  -3.29262466E+00  -1.34188451E+01  -1.22808125E+01  -1.04278653E+01  -1.30542060E+01  -8.84984127E+00  -8.25675936E+00  -1.05671942E+01  -1.40448556E+01  -2.35666654E+00  -4.93285248E+00  -3.28302726E+00  -4.23126993E+00  -8.51641175E+00  -3.01247987E+00  -5.12381587E+00  -7.31334032E+00  -6.93725456E+00  -4.77711076E+00  -6.91524176E+00  -1.46996843E+02  -1.51403692E+02  -6.59806116E+00  -1.20706482E+01  -1.12707436E+01  -7.88090305E+00  -3.20944531E+00  -9.85502799E+00  -3.67989020E+00  -6.95572021E+01  -1.20010967E+01  -8.39328826E+00  -1.94709639E+00  -4.63155588E+01  -6.66763242E+00  -7.99674352E+00  -5.04092861E+00  -8.42080437E+00  -7.63901980E+00  -8.09126722E+00  -8.08786939E+00  -1.00889531E+01  -8.85155111E+00  -7.13012215E+00  -6.35322371E+00  -1.21942263E+01  -6.17234847E+00  -1.39497570E+01  -7.62340206E+00  -1.09616538E+01  -1.61599003E+01  -1.61601636E+01  -2.19299749E+01  -1.30377576E+01  -2.18254410E+01  -2.18257471E+01  -3.17733282E+01  -3.12376686E+01
   2.27500000E+02   5.00000000E-01   5.00000000E-01  -7.16252760E+00  -1.45580982E+01  -3.43462859E+00  -1.29543079E+00  -2.05190093E+00  -3.85031698E+00  -1.23698655E+01  -6.71438154E+00  -5.10785770E+00  -2.61647560E-01  -4.16704603E+00  -1.95452201E+00  -3.33790389E-01  -1.80508499E+00  -3.74428244E+00  -3.39749496E+00  -5.93820315E+00  -4.40849033E+00  -3.26832783E+00  -1.33382184E+01  -1.21945279E+01  -1.03744387E+01  -1.29826744E+01  -8.83301952E+00  -8.24537921E+00  -1.05940196E+01  -1.39957528E+01  -2.35980955E+00  -4.97398964E+00  -3.27894163E+00  -4.24720562E+00  -8.48121138E+00  -3.01007150E+00  -5.03379525E+00  -7.24129778E+00  -6.86284381E+00  -4.70199025E+00  -6.90281393E+00  -1.45842819E+02  -1.50203370E+02  -6.55591504E+00  -1.19583085E+01  -1.12048138E+01  -7.79274358E+00  -3.20806138E+00  -9.83273788E+00  -3.67812375E+00  -6.90141301E+01  -1.19390265E+01  -8.38854091E+00  -1.95246067E+00  -4.59699814E+01  -6.66822047E+00  -8.03254675E+00  -5.02216304E+00  -8.31203375E+00  -7.59258114E+00  -8.10648916E+00  -8.06928845E+00  -1.01360672E+01  -8.87252798E+00  -7.10816753E+00  -6.34940055E+00  -1.21527488E+01  -6.16635825E+00  -1.38101645E+01  -7.60529069E+00  -1.09559347E+01  -1.61476239E+01  -1.61478864E+01  -2.19148756E+01  -1.30136352E+01  -2.18110656E+01  -2.18113720E+01  -3.17209900E+01  -3.10489258E+01
   2.62500000E+02   5.00000000E-01   5.00000000E-01  -7.10258929E+00  -1.44867994E+01  -3.39395903E+00  -1.29581123E+00  -2.05203458E+00  -3.79186624E+00  -1.23125312E+01  -6.71470574E+00  -5.10868048E+00  -2.61501702E-01  -4.16689539E+00  -1.95492733E+00  -3.33481004E-01  -1.80162633E+00  -3.74413180E+00  -3.39734432E+00  -5.94917898E+00  -4.40833969E+00  -3.24667522E+00  -1.32595119E+01  -1.21075462E+01  -1.03178359E+01  -1.29115119E+01  -8.81602974E+00  -8.23359342E+00  -1.06195704E+01  -1.39463775E+01  -2.36317877E+00  -5.01422421E+00  -3.27431605E+00  -4.26176888E+00  -8.44537464E+00  -3.00747546E+00  -4.95282889E+00  -7.17756087E+00  -6.79663278E+00  -4.63605817E+00  -6.88988290E+00  -1.44704614E+02  -1.49020548E+02  -6.51581914E+00  -1.18498528E+01  -1.11365971E+01  -7.70663055E+00  -3.20620237E+00  -9.80966938E+00  -3.67613097E+00  -6.84783871E+01  -1.18733443E+01  -8.38236365E+00  -1.95737817E+00  -4.56285955E+01  -6.66881494E+00  -8.06648398E+00  -5.01105009E+00  -8.21482415E+00  -7.55556564E+00  -8.12893558E+00  -8.05093438E+00  -1.01826494E+01  -8.89233775E+00  -7.08602549E+00  -6.34506288E+00  -1.21107864E+01  -6.16042205E+00  -1.36756549E+01  -7.59136212E+00  -1.09534770E+01  -1.61402072E+01  -1.61404684E+01  -2.19063057E+01  -1.29976708E+01  -2.18032109E+01  -2.18035164E+01  -3.16782653E+01  -3.08684252E+01
   2.97500000E+02   5.00000000E-01   5.00000000E-01  -7.04438472E+00  -1.44171670E+01  -3.35418553E+00  -1.29618503E+00  -2.05221016E+00  -3.74066044E+00  -1.22612693E+01  -6.71503781E+00  -5.10952727E+00  -2.61338166E-01  -4.16672557E+00  -1.95534270E+00  -3.33163400E-01  -1.79851157E+00  -3.74396198E+00  -3.39717450E+00  -5.96083005E+00  -4.40816987E+00  -3.22688997E+00  -1.31823395E+01  -1.20203643E+01  -1.02593247E+01  -1.28408238E+01  -8.79895023E+00  -8.22143423E+00  -1.06443007E+01  -1.38971017E+01  -2.36681503E+00  -5.05396372E+00  -3.26918277E+00  -4.27503223E+00  -8.40928090E+00  -3.00471435E+00  -4.87876242E+00  -7.12001256E+00  -6.73683221E+00  -4.57715460E+00  -6.87680454E+00  -1.43581559E+02  -1.47854154E+02  -6.47746531E+00  -1.17445872E+01  -1.10669920E+01  -7.62215894E+00  -3.20390520E+00  -9.78621024E+00  -3.67392285E+00  -6.79494915E+01  -1.18053533E+01  -8.37516957E+00  -1.96186581E+00  -4.52913277E+01  -6.66953646E+00  -8.09908720E+00  -5.00587351E+00  -8.12667714E+00  -7.52588735E+00  -8.15693507E+00  -8.03292828E+00  -1.02291350E+01  -8.91143130E+00  -7.06377561E+00  -6.34024450E+00  -1.20687167E+01  -6.15455917E+00  -1.35454675E+01  -7.58044552E+00  -1.09534941E+01  -1.61364715E+01  -1.61367311E+01  -2.19026926E+01  -1.29875281E+01  -2.18003040E+01  -2.18006079E+01  -3.16428040E+01  -3.06938807E+01
   3.32500000E+02   5.00000000E-01   5.00000000E-01  -6.98764781E+00  -1.43490393E+01  -3.31512716E+00  -1.29655498E+00  -2.05242459E+00  -3.69520465E+00  -1.22145732E+01  -6.71537849E+00  -5.11039622E+00  -2.61157677E-01  -4.16653737E+00  -1.95576891E+00  -3.32837454E-01  -1.79571262E+00  -3.74377378E+00  -3.39698630E+00  -5.97320967E+00  -4.40798167E+00  -3.20847737E+00  -1.31064601E+01  -1.19333255E+01  -1.01997289E+01  -1.27707085E+01  -8.78185332E+00  -8.20893177E+00  -1.06685134E+01  -1.38481521E+01  -2.37075567E+00  -5.09346807E+00  -3.26357213E+00  -4.28706394E+00  -8.37316394E+00  -3.00181006E+00  -4.81013215E+00  -7.06722425E+00  -6.68219924E+00  -4.52381132E+00  -6.86379078E+00  -1.42473140E+02  -1.46703417E+02  -6.44067604E+00  -1.16420933E+01  -1.09965974E+01  -7.53907091E+00  -3.20120400E+00  -9.76260162E+00  -3.67151024E+00  -6.74271089E+01  -1.17359100E+01  -8.36722432E+00  -1.96594069E+00  -4.49581060E+01  -6.67048813E+00  -8.13072408E+00  -5.00545804E+00  -8.04591791E+00  -7.50213731E+00  -8.18934642E+00  -8.01537304E+00  -1.02758011E+01  -8.93010840E+00  -7.04149138E+00  -6.33497697E+00  -1.20267716E+01  -6.14878795E+00  -1.34191205E+01  -7.57178859E+00  -1.09554719E+01  -1.61356468E+01  -1.61359052E+01  -2.19030092E+01  -1.29817075E+01  -2.18013176E+01  -2.18016195E+01  -3.16130733E+01  -3.05238665E+01
   3.67500000E+02   5.00000000E-01   5.00000000E-01  -6.93219919E+00  -1.42823214E+01  -3.27668537E+00  -1.29692340E+00  -2.05267506E+00  -3.65443158E+00  -1.21714227E+01  -6.71572844E+00  -5.11128551E+00  -2.60960897E-01  -4.16633151E+00  -1.95620639E+00  -3.32503074E-01  -1.79320406E+00  -3.74356793E+00  -3.39678045E+00  -5.98636065E+00  -4.40777582E+00  -3.19111078E+00  -1.30317175E+01  -1.18466671E+01  -1.01395946E+01  -1.27012441E+01  -8.76480713E+00  -8.19611407E+00  -1.06924218E+01  -1.37996694E+01  -2.37503623E+00  -5.13291102E+00  -3.25751265E+00  -4.29792825E+00  -8.33717183E+00  -2.99878362E+00  -4.74589995E+00  -7.01819076E+00  -6.63183213E+00  -4.47498655E+00  -6.85096942E+00  -1.41378934E+02  -1.45567745E+02  -6.40534788E+00  -1.15421114E+01  -1.09258195E+01  -7.45719570E+00  -3.19813033E+00  -9.73899817E+00  -3.66890393E+00  -6.69109918E+01  -1.16655915E+01  -8.35870609E+00  -1.96961990E+00  -4.46288602E+01  -6.67175909E+00  -8.16166143E+00  -5.00896592E+00  -7.97137344E+00  -7.48332166E+00  -8.22535681E+00  -7.99835703E+00  -1.03228300E+01  -8.94857935E+00  -7.01924191E+00  -6.32928970E+00  -1.19850969E+01  -6.14312568E+00  -1.32962840E+01  -7.56488944E+00  -1.09590607E+01  -1.61372102E+01  -1.61374679E+01  -2.19065572E+01  -1.29792099E+01  -2.18055531E+01  -2.18058532E+01  -3.15880335E+01  -3.03574635E+01
   4.02500000E+02   5.00000000E-01   5.00000000E-01  -6.87791294E+00  -1.42169522E+01  -3.23881187E+00  -1.29729236E+00  -2.05295904E+00  -3.61755240E+00  -1.21311099E+01  -6.71608829E+00  -5.11219330E+00  -2.60748438E-01  -4.16610866E+00  -1.95665529E+00  -3.32160188E-01  -1.79096286E+00  -3.74334508E+00  -3.39655760E+00  -6.00031707E+00  -4.40755297E+00  -3.17456787E+00  -1.29580073E+01  -1.17605537E+01  -1.00792907E+01  -1.26324892E+01  -8.74787667E+00  -8.18300723E+00  -1.07161841E+01  -1.37517419E+01  -2.37969137E+00  -5.17241422E+00  -3.25103111E+00  -4.30768553E+00  -8.30140009E+00  -2.99565512E+00  -4.68530411E+00  -6.97218135E+00  -6.58505425E+00  -4.42991567E+00  -6.83841727E+00  -1.40298582E+02  -1.44446662E+02  -6.37142018E+00  -1.14444767E+01  -1.08549387E+01  -7.37641622E+00  -3.19471350E+00  -9.71550138E+00  -3.66611453E+00  -6.64009465E+01  -1.15947953E+01  -8.34973891E+00  -1.97292041E+00  -4.43035213E+01  -6.67342646E+00  -8.19210050E+00  -5.01578191E+00  -7.90219206E+00  -7.46871440E+00  -8.26436776E+00  -7.98195626E+00  -1.03703437E+01  -8.96699925E+00  -6.99709308E+00  -6.32321004E+00  -1.19437858E+01  -6.13758852E+00  -1.31767161E+01  -7.55940207E+00  -1.09640143E+01  -1.61407932E+01  -1.61410509E+01  -2.19128447E+01  -1.29793481E+01  -2.18125186E+01  -2.18128173E+01  -3.15669542E+01  -3.01940629E+01
   4.37500000E+02   5.00000000E-01   5.00000000E-01  -6.82469717E+00  -1.41528884E+01  -3.20148981E+00  -1.29766363E+00  -2.05327423E+00  -3.58396750E+00  -1.20931316E+01  -6.71645858E+00  -5.11311770E+00  -2.60520859E-01  -4.16586942E+00  -1.95711561E+00  -3.31808734E-01  -1.78896816E+00  -3.74310584E+00  -3.39631835E+00  -6.01510544E+00  -4.40731373E+00  -3.15869278E+00  -1.28852573E+01  -1.16751000E+01  -1.00190699E+01  -1.25644863E+01  -8.73112447E+00  -8.16963549E+00  -1.07399233E+01  -1.37044248E+01  -2.38475544E+00  -5.21206718E+00  -3.24415266E+00  -4.31639256E+00  -8.26591117E+00  -2.99244364E+00  -4.62777025E+00  -6.92865069E+00  -6.54134433E+00  -4.38802188E+00  -6.82617947E+00  -1.39231761E+02  -1.43339766E+02  -6.33885687E+00  -1.13490815E+01  -1.07841517E+01  -7.29664944E+00  -3.19098067E+00  -9.69217911E+00  -3.66315246E+00  -6.58968139E+01  -1.15238008E+01  -8.34041215E+00  -1.97585890E+00  -4.39820218E+01  -6.67555674E+00  -8.22219774E+00  -5.02544423E+00  -7.83773590E+00  -7.45776940E+00  -8.30592659E+00  -7.96623580E+00  -1.04184250E+01  -8.98548802E+00  -6.97510817E+00  -6.31676341E+00  -1.19028982E+01  -6.13219145E+00  -1.30602285E+01  -7.55508039E+00  -1.09701529E+01  -1.61461274E+01  -1.61463863E+01  -2.19215131E+01  -1.29816344E+01  -2.18218552E+01  -2.18221532E+01  -3.15493043E+01  -3.00332517E+01
   4.72500000E+02   5.00000000E-01   5.00000000E-01  -6.77248205E+00  -1.40900962E+01  -3.16472226E+00  -1.29803879E+00  -2.05361855E+00  -3.55321042E+00  -1.20571201E+01  -6.71683976E+00  -5.11405682E+00  -2.60278678E-01  -4.16561434E+00  -1.95758721E+00  -3.31448662E-01  -1.78720099E+00  -3.74285075E+00  -3.39606327E+00  -6.03074541E+00  -4.40705864E+00  -3.14337297E+00  -1.28134161E+01  -1.15903865E+01  -9.95910860E+00  -1.24972649E+01  -8.71461105E+00  -8.15602133E+00  -1.07637397E+01  -1.36577522E+01  -2.39026281E+00  -5.25193935E+00  -3.23690089E+00  -4.32410268E+00  -8.23074627E+00  -2.98916722E+00  -4.57285538E+00  -6.88718308E+00  -6.50029235E+00  -4.34886022E+00  -6.81428128E+00  -1.38178179E+02  -1.42246703E+02  -6.30763529E+00  -1.12558519E+01  -1.07135991E+01  -7.21783439E+00  -3.18695710E+00  -9.66907756E+00  -3.66002792E+00  -6.53984572E+01  -1.14528092E+01  -8.33079251E+00  -1.97845173E+00  -4.36642957E+01  -6.67820661E+00  -8.25207766E+00  -5.03760081E+00  -7.77751378E+00  -7.45006510E+00  -8.34968309E+00  -7.95125071E+00  -1.04671295E+01  -9.00414277E+00  -6.95334831E+00  -6.30997338E+00  -1.18624725E+01  -6.12694822E+00  -1.29466670E+01  -7.55174359E+00  -1.09773407E+01  -1.61530101E+01  -1.61532715E+01  -2.19322914E+01  -1.29857114E+01  -2.18332919E+01  -2.18335904E+01  -3.15346842E+01  -2.98747414E+01
   5.07500000E+02   5.00000000E-01   5.00000000E-01  -6.72121224E+00  -1.40285463E+01  -3.12852502E+00  -1.29841925E+00  -2.05399011E+00  -3.52491121E+00  -1.20227990E+01  -6.71723223E+00  -5.11500869E+00  -2.60022371E-01  -4.16534391E+00  -1.95806985E+00  -3.31079929E-01  -1.78564411E+00  -3.74258033E+00  -3.39579285E+00  -6.04725024E+00  -4.40678822E+00  -3.12852437E+00  -1.27424452E+01  -1.15064696E+01  -9.89953220E+00  -1.24308449E+01  -8.69839521E+00  -8.14218558E+00  -1.07877182E+01  -1.36117445E+01  -2.39624804E+00  -5.29208777E+00  -3.22929788E+00  -4.33086598E+00  -8.19593290E+00  -2.98584279E+00  -4.52021134E+00  -6.84745595E+00  -6.46157044E+00  -4.31208087E+00  -6.80273557E+00  -1.37137561E+02  -1.41167155E+02  -6.27773928E+00  -1.11647339E+01  -1.06433835E+01  -7.13992449E+00  -3.18266624E+00  -9.64622882E+00  -3.65675082E+00  -6.49057548E+01  -1.13819691E+01  -8.32093161E+00  -1.98071479E+00  -4.33502782E+01  -6.68142362E+00  -8.28184098E+00  -5.05198050E+00  -7.72113755E+00  -7.44526851E+00  -8.39536107E+00  -7.93704672E+00  -1.05164937E+01  -9.02304554E+00  -6.93187278E+00  -6.30286176E+00  -1.18225333E+01  -6.12187133E+00  -1.28358991E+01  -7.54925411E+00  -1.09854714E+01  -1.61612829E+01  -1.61615484E+01  -2.19449677E+01  -1.29913081E+01  -2.18466167E+01  -2.18469168E+01  -3.15227821E+01  -2.97183237E+01
   5.42500000E+02   5.00000000E-01   5.00000000E-01  -6.67121468E+00  -1.39631395E+01  -3.09679617E+00  -1.29877417E+00  -1.68401577E+00  -3.52095910E+00  -1.27183297E+01  -6.71724958E+00  -5.13050628E+00  -2.60449841E-01  -4.16505861E+00  -1.96174696E+00  -3.34989229E-01  -1.61168632E+00  -3.74229502E+00  -3.39550754E+00  -6.12327670E+00  -4.40650292E+00  -3.11325050E+00  -1.26780829E+01  -1.14253573E+01  -9.84255007E+00  -1.23621567E+01  -8.68834573E+00  -8.13655065E+00  -1.08230744E+01  -1.35723430E+01  -2.40190157E+00  -5.32476163E+00  -2.85805633E+00  -3.98122380E+00  -7.79570827E+00  -2.45845650E+00  -4.49881098E+00  -6.84626851E+00  -6.45169035E+00  -4.14593351E+00  -6.79027343E+00  -1.35952783E+02  -1.39774447E+02  -6.31609643E+00  -1.11473442E+01  -1.05808781E+01  -6.89811943E+00  -3.19009639E+00  -9.63314888E+00  -3.49406817E+00  -6.44323485E+01  -1.13242436E+01  -8.32041725E+00  -1.82410682E+00  -4.30458948E+01  -6.39246207E+00  -8.01360695E+00  -5.10036142E+00  -7.76273822E+00  -7.54288503E+00  -8.53733452E+00  -7.99564337E+00  -1.06114249E+01  -9.06833045E+00  -6.93147239E+00  -6.31877353E+00  -1.18039474E+01  -5.97957518E+00  -1.27199006E+01  -7.53666972E+00  -1.09775975E+01  -1.61365689E+01  -1.61368403E+01  -2.19278621E+01  -1.29717025E+01  -2.18301495E+01  -2.18304529E+01  -3.13986654E+01  -2.95594493E+01
   5.77500000E+02   5.00000000E-01   5.00000000E-01  -6.62220024E+00  -1.39027874E+01  -3.06363469E+00  -1.29914761E+00  -1.58625369E+00  -3.50622211E+00  -1.28785065E+01  -6.71748830E+00  -5.13764166E+00  -2.60482119E-01  -4.16475885E+00  -1.96366856E+00  -3.36428229E-01  -1.55099233E+00  -3.74199527E+00  -3.39520779E+00  -6.16248534E+00  -4.40620316E+00  -3.09943628E+00  -1.26115417E+01  -1.13442884E+01  -9.78460601E+00  -1.22966876E+01  -8.67515542E+00  -8.12585887E+00  -1.08518415E+01  -1.35298880E+01  -2.40844350E+00  -5.36186026E+00  -2.75459990E+00  -3.89434265E+00  -7.66509949E+00  -2.30539275E+00  -4.46238563E+00  -6.82509270E+00  -6.42800090E+00  -4.07111357E+00  -6.77863851E+00  -1.34884904E+02  -1.38610707E+02  -6.31358175E+00  -1.10874186E+01  -1.05146801E+01  -6.76602044E+00  -3.19049700E+00  -9.61469380E+00  -3.43669280E+00  -6.39569063E+01  -1.12591804E+01  -8.31397252E+00  -1.77217050E+00  -4.27417348E+01  -6.32770235E+00  -7.97162986E+00  -5.13177757E+00  -7.74962900E+00  -7.58159494E+00  -8.62216128E+00  -8.00975296E+00  -1.06769889E+01  -9.09852554E+00  -6.91933805E+00  -6.32094968E+00  -1.17735568E+01  -5.93025754E+00  -1.26122136E+01  -7.53184544E+00  -1.09808009E+01  -1.61335910E+01  -1.61338701E+01  -2.19316605E+01  -1.29702145E+01  -2.18345764E+01  -2.18348847E+01  -3.13445585E+01  -2.94065212E+01
   6.12500000E+02   5.00000000E-01   5.00000000E-01  -6.57394103E+00  -1.38453722E+01  -3.02956042E+00  -1.29954122E+00  -1.58549647E+00  -3.48423869E+00  -1.28522712E+01  -6.71789575E+00  -5.13887650E+00  -2.60205485E-01  -4.16444503E+00  -1.96423321E+00  -3.36032231E-01  -1.54926721E+00  -3.74168145E+00  -3.39489397E+00  -6.18040241E+00  -4.40588934E+00  -3.08643308E+00  -1.25434699E+01  -1.12627465E+01  -9.72560453E+00  -1.22328890E+01  -8.66001568E+00  -8.11153147E+00  -1.08761910E+01  -1.34855406E+01  -2.41588439E+00  -5.40245549E+00  -2.74492926E+00  -3.89746327E+00  -7.62985241E+00  -2.30024298E+00  -4.41567961E+00  -6.78991074E+00  -6.39500513E+00  -4.03995935E+00  -6.76774332E+00  -1.33881490E+02  -1.37569558E+02  -6.28685755E+00  -1.10021114E+01  -1.04452700E+01  -6.69039876E+00  -3.18564921E+00  -9.59239288E+00  -3.43243785E+00  -6.34810189E+01  -1.11883702E+01  -8.30322273E+00  -1.77290265E+00  -4.24385028E+01  -6.33055738E+00  -7.99877260E+00  -5.15173460E+00  -7.70295419E+00  -7.58354803E+00  -8.67144488E+00  -7.99701283E+00  -1.07266906E+01  -9.11831564E+00  -6.89917787E+00  -6.31332874E+00  -1.17350427E+01  -5.92544388E+00  -1.25100708E+01  -7.53240372E+00  -1.09919123E+01  -1.61461878E+01  -1.61464767E+01  -2.19503607E+01  -1.29813604E+01  -2.18538950E+01  -2.18542100E+01  -3.13407471E+01  -2.92579581E+01
   6.47500000E+02   5.00000000E-01   5.00000000E-01  -6.52636359E+00  -1.37890008E+01  -2.99587063E+00  -1.29994675E+00  -1.59696924E+00  -3.46251982E+00  -1.28034288E+01  -6.71833826E+00  -5.13928118E+00  -2.59874383E-01  -4.16411751E+00  -1.96461549E+00  -3.35380409E-01  -1.55542463E+00  -3.74135392E+00  -3.39456644E+00  -6.19626022E+00  -4.40556181E+00  -3.07359695E+00  -1.24757488E+01  -1.11817751E+01  -9.66707224E+00  -1.21697913E+01  -8.64507616E+00  -8.09657114E+00  -1.09004219E+01  -1.34416207E+01  -2.42400222E+00  -5.44404831E+00  -2.74678890E+00  -3.91116225E+00  -7.60703363E+00  -2.31394611E+00  -4.36872110E+00  -6.75358084E+00  -6.36206650E+00  -4.01569663E+00  -6.75735242E+00  -1.32896779E+02  -1.36555023E+02  -6.25790878E+00  -1.09149101E+01  -1.03758570E+01  -6.62275421E+00  -3.17991005E+00  -9.56992830E+00  -3.43502023E+00  -6.30094660E+01  -1.11172538E+01  -8.29189072E+00  -1.78028574E+00  -4.21383700E+01  -6.34228496E+00  -8.03463474E+00  -5.17156788E+00  -7.65407560E+00  -7.58228016E+00  -8.71706665E+00  -7.98146079E+00  -1.07750479E+01  -9.13720307E+00  -6.87834782E+00  -6.30412032E+00  -1.16959345E+01  -5.92653450E+00  -1.24103141E+01  -7.53389171E+00  -1.10045411E+01  -1.61615611E+01  -1.61618621E+01  -2.19719805E+01  -1.29944907E+01  -2.18761231E+01  -2.18764471E+01  -3.13451186E+01  -2.91108213E+01
   6.82500000E+02   5.00000000E-01   5.00000000E-01  -6.47946141E+00  -1.37336912E+01  -2.96279488E+00  -1.30036320E+00  -1.61065843E+00  -3.44196189E+00  -1.27508119E+01  -6.71879740E+00  -5.13953815E+00  -2.59524179E-01  -4.16377660E+00  -1.96497663E+00  -3.34686912E-01  -1.56301387E+00  -3.74101301E+00  -3.39422553E+00  -6.21252615E+00  -4.40522091E+00  -3.06084345E+00  -1.24086469E+01  -1.11017673E+01  -9.60943544E+00  -1.21075304E+01  -8.63066669E+00  -8.08139622E+00  -1.09251357E+01  -1.33984148E+01  -2.43279310E+00  -5.48630285E+00  -2.75052062E+00  -3.92618442E+00  -7.58685796E+00  -2.33098147E+00  -4.32275965E+00  -6.71775357E+00  -6.33032037E+00  -3.99371563E+00  -6.74740530E+00  -1.31924893E+02  -1.35554910E+02  -6.22959473E+00  -1.08288911E+01  -1.03071214E+01  -6.55700470E+00  -3.17388823E+00  -9.54778467E+00  -3.43865870E+00  -6.25428522E+01  -1.10468022E+01  -8.28047687E+00  -1.78857649E+00  -4.18415862E+01  -6.35628286E+00  -8.07238333E+00  -5.19272058E+00  -7.60699865E+00  -7.58209212E+00  -8.76310048E+00  -7.96623527E+00  -1.08238649E+01  -9.15648942E+00  -6.85788072E+00  -6.29444641E+00  -1.16572250E+01  -5.92878528E+00  -1.23127345E+01  -7.53568564E+00  -1.10177810E+01  -1.61779145E+01  -1.61782298E+01  -2.19948165E+01  -1.30081222E+01  -2.18995573E+01  -2.18998924E+01  -3.13518375E+01  -2.89647697E+01
   7.17500000E+02   5.00000000E-01   5.00000000E-01  -6.43322378E+00  -1.36794175E+01  -2.93041216E+00  -1.30079046E+00  -1.62489424E+00  -3.42262073E+00  -1.26975811E+01  -6.71926996E+00  -5.13976091E+00  -2.59161003E-01  -4.16342262E+00  -1.96534300E+00  -3.33986633E-01  -1.57094962E+00  -3.74065903E+00  -3.39387155E+00  -6.22960440E+00  -4.40486693E+00  -3.04816077E+00  -1.23422076E+01  -1.10227606E+01  -9.55272984E+00  -1.20461043E+01  -8.61688321E+00  -8.06608726E+00  -1.09504648E+01  -1.33559555E+01  -2.44228489E+00  -5.52918166E+00  -2.75452718E+00  -3.94101582E+00  -7.56768509E+00  -2.34876991E+00  -4.27792151E+00  -6.68263648E+00  -6.29986230E+00  -3.97316364E+00  -6.73787533E+00  -1.30964685E+02  -1.34567017E+02  -6.20239033E+00  -1.07445648E+01  -1.02391518E+01  -6.49213105E+00  -3.16769758E+00  -9.52603561E+00  -3.44239439E+00  -6.20812168E+01  -1.09771532E+01  -8.26906849E+00  -1.79682584E+00  -4.15481461E+01  -6.37146176E+00  -8.11089804E+00  -5.21538062E+00  -7.56229463E+00  -7.58361427E+00  -8.81014946E+00  -7.95186799E+00  -1.08734251E+01  -9.17642282E+00  -6.83799124E+00  -6.28450693E+00  -1.16190687E+01  -5.93141067E+00  -1.22172313E+01  -7.53767835E+00  -1.10314701E+01  -1.61949324E+01  -1.61952644E+01  -2.20185635E+01  -1.30220037E+01  -2.19238926E+01  -2.19242411E+01  -3.13598983E+01  -2.88197631E+01