 TITLE = "Total Concentrations" 
VARIABLES = "X"          "Y"              "Z"            "H+"             "Al+++"          "CO2(aq)"        "Mg++"           "Ca++"           "Fe++"           "Fe+++"          "Ba++"           "Sr++"           "Cl-"            "F-"             "K+"             "Na+"            "SO4--"          "O2(aq)"         "B(OH)3(aq)"     "HPO4--"         "NO3-"           "H4SiO4(aq)"     "HNO3(aq)"       "Al(OH)2+"       "AlO2-"          "AlOH++"         "BaHCO3+"        "BaCl+"          "BaCO3(aq)"      "BaOH+"          "HCO3-"          "CO3--"          "CaCl+"          "CaCl2(aq)"      "CaOH+"          "CaSO4(aq)"      "FeCl+"          "FeCl2(aq)"      "FeOH+"          "FeSO4(aq)"      "OH-"            "HS-"            "S2O3--"         "H2PO4-"         "H3PO4(aq)"      "HAlO2(aq)"      "HSO4-"          "KCl(aq)"        "KOH(aq)"        "KSO4-"          "NH3(aq)"        "NaAlO2(aq)"     "NaOH(aq)"       "NaSO4-"         "H2(aq)"         "CaHPO4(aq)"     "CaPO4-"         "FeCO3(aq)"      "FeH2PO4+"       "FeHPO4(aq)"     "FePO4-"         "KHPO4-"         "PO4---"         "Sr(CO3)(aq)"    "SrHCO3+"        "SrCl+"          "SrOH+"          "SrSO4(aq)"      "AlH3SiO4++"     "Si2O2(OH)5-"    "Si2O3(OH)4--"   "Si3O5(OH)5---"  "Si3O6(OH)3---"  "Si4O12H4----"   "Si4O6(OH)6--"   "Si4O7(OH)6----" "Si4O8(OH)4----" "Si6O15------"   "SiF6--"        
 ZONE I=         100 , J=           1 , K=           1  F=POINT
   1.75000000E+01   5.00000000E-01   5.00000000E-01  -7.62606618E+00  -1.50688371E+01  -3.76705578E+00  -1.29273621E+00  -1.48373517E+00  -4.73537297E+00  -1.43189699E+01  -6.71209325E+00  -5.12712232E+00  -2.63415429E-01  -4.16749098E+00  -1.95836372E+00  -3.45643112E-01  -1.53430248E+00  -3.74472739E+00  -3.39793991E+00  -6.00626256E+00  -4.40893528E+00  -3.56405984E+00  -1.39190920E+01  -1.26407765E+01  -1.04721179E+01  -1.34046148E+01  -8.93989216E+00  -8.32215452E+00  -1.03758341E+01  -1.42406481E+01  -2.34167484E+00  -4.64167421E+00  -2.73878701E+00  -3.58786790E+00  -8.06580817E+00  -2.18714992E+00  -6.05781663E+00  -8.15976427E+00  -7.71922584E+00  -5.36048704E+00  -6.91125265E+00  -1.52800927E+02  -1.57227624E+02  -7.03275108E+00  -1.29502102E+01  -1.14575012E+01  -8.12413760E+00  -3.23072565E+00  -9.91566444E+00  -3.40918592E+00  -7.24697255E+01  -1.21032739E+01  -8.35753926E+00  -1.64049552E+00  -4.81205591E+01  -6.25080164E+00  -7.30746187E+00  -5.54430960E+00  -9.67756453E+00  -8.50407271E+00  -8.54664761E+00  -8.32807392E+00  -9.88469796E+00  -8.71520686E+00  -7.26954344E+00  -6.40319311E+00  -1.23725422E+01  -5.96387452E+00  -1.48171884E+01  -7.92236364E+00  -1.11165133E+01  -1.63937422E+01  -1.63939840E+01  -2.22622243E+01  -1.35631009E+01  -2.21539514E+01  -2.21542195E+01  -3.22932689E+01  -3.26366482E+01
   5.25000000E+01   5.00000000E-01   5.00000000E-01  -7.51509624E+00  -1.49031525E+01  -3.68471166E+00  -1.29337435E+00  -1.42076279E+00  -4.43271980E+00  -1.42057363E+01  -6.71227225E+00  -5.13258650E+00  -2.63647235E-01  -4.16747746E+00  -1.96020798E+00  -3.47233417E-01  -1.48323795E+00  -3.74471387E+00  -3.39792639E+00  -6.03351464E+00  -4.40892176E+00  -3.45710957E+00  -1.37933468E+01  -1.25542934E+01  -1.05067203E+01  -1.32876421E+01  -8.92826296E+00  -8.31654663E+00  -1.04532797E+01  -1.42328785E+01  -2.34486373E+00  -4.72340895E+00  -2.67781717E+00  -3.55484119E+00  -8.01055282E+00  -2.08580215E+00  -5.73813745E+00  -7.86551759E+00  -7.45606732E+00  -5.01480774E+00  -6.93827527E+00  -1.51486947E+02  -1.55777065E+02  -6.96574612E+00  -1.27679123E+01  -1.14396559E+01  -7.94571008E+00  -3.23727685E+00  -9.93923118E+00  -3.36922928E+00  -7.18563753E+01  -1.21364420E+01  -8.40231700E+00  -1.60910020E+00  -4.77554159E+01  -6.21675329E+00  -7.35420448E+00  -5.34366923E+00  -9.31070256E+00  -8.25073645E+00  -8.40222147E+00  -8.33454636E+00  -9.98672598E+00  -8.79116128E+00  -7.25784449E+00  -6.41065444E+00  -1.23784955E+01  -5.92595407E+00  -1.45359615E+01  -7.77851775E+00  -1.10252605E+01  -1.62499190E+01  -1.62501703E+01  -2.20769055E+01  -1.32867608E+01  -2.19693949E+01  -2.19696775E+01  -3.19608849E+01  -3.21846485E+01
   8.75000000E+01   5.00000000E-01   5.00000000E-01  -7.43106412E+00  -1.48035791E+01  -3.62586008E+00  -1.29392514E+00  -1.41367280E+00  -4.25354802E+00  -1.40587051E+01  -6.71254130E+00  -5.13411764E+00  -2.63622176E-01  -4.16743786E+00  -1.96094658E+00  -3.46983482E-01  -1.47273654E+00  -3.74467428E+00  -3.39788680E+00  -6.04283898E+00  -4.40888217E+00  -3.39713874E+00  -1.36922479E+01  -1.24792854E+01  -1.05007318E+01  -1.32096558E+01  -8.91337781E+00  -8.30756586E+00  -1.04997650E+01  -1.41981701E+01  -2.34760985E+00  -4.78118091E+00  -2.66963735E+00  -3.57084032E+00  -7.98425081E+00  -2.07364236E+00  -5.53906450E+00  -7.68821324E+00  -7.28882105E+00  -4.82589265E+00  -6.94060758E+00  -1.50249651E+02  -1.54468746E+02  -6.90425505E+00  -1.26160371E+01  -1.14049470E+01  -7.83165701E+00  -3.23900695E+00  -9.93391362E+00  -3.36457349E+00  -7.12706789E+01  -1.21242947E+01  -8.41702949E+00  -1.61215697E+00  -4.73926698E+01  -6.21336576E+00  -7.40664998E+00  -5.23542154E+00  -9.07121738E+00  -8.09583234E+00  -8.33092964E+00  -8.31796723E+00  -1.00495085E+01  -8.83222233E+00  -7.23880519E+00  -6.41056863E+00  -1.23532091E+01  -5.91712727E+00  -1.43447401E+01  -7.70605771E+00  -1.09816591E+01  -1.61804522E+01  -1.61807098E+01  -2.19861391E+01  -1.31545323E+01  -2.18793841E+01  -2.18796771E+01  -3.17920914E+01  -3.18854159E+01
   1.22500000E+02   5.00000000E-01   5.00000000E-01  -7.35790869E+00  -1.47191390E+01  -3.57603231E+00  -1.29442947E+00  -1.41893353E+00  -4.12580756E+00  -1.39351377E+01  -6.71283503E+00  -5.13473170E+00  -2.63522905E-01  -4.16737367E+00  -1.96141557E+00  -3.46319746E-01  -1.47181568E+00  -3.74461008E+00  -3.39782260E+00  -6.04858310E+00  -4.40881797E+00  -3.35618789E+00  -1.36012154E+01  -1.23987766E+01  -1.04694579E+01  -1.31363079E+01  -8.89729972E+00  -8.29736559E+00  -1.05348904E+01  -1.41541199E+01  -2.35025945E+00  -4.82971869E+00  -2.67251105E+00  -3.59623078E+00  -7.96061820E+00  -2.08101292E+00  -5.39034086E+00  -7.55969277E+00  -7.16270384E+00  -4.69556833E+00  -6.93401928E+00  -1.49045758E+02  -1.53213067E+02  -6.84856562E+00  -1.24800294E+01  -1.13539692E+01  -7.73682420E+00  -3.23909421E+00  -9.91834667E+00  -3.36763294E+00  -7.07001455E+01  -1.20853148E+01  -8.42067489E+00  -1.62258017E+00  -4.70338867E+01  -6.21631075E+00  -7.45523594E+00  -5.16677703E+00  -8.88864606E+00  -7.98648029E+00  -8.29466030E+00  -8.29610064E+00  -1.01000942E+01  -8.86107168E+00  -7.21757502E+00  -6.40817550E+00  -1.23173714E+01  -5.91470720E+00  -1.41800063E+01  -7.66269733E+00  -1.09580641E+01  -1.61416668E+01  -1.61419281E+01  -2.19352077E+01  -1.30806592E+01  -2.18292008E+01  -2.18295008E+01  -3.16881652E+01  -3.16455701E+01
   1.57500000E+02   5.00000000E-01   5.00000000E-01  -7.29054521E+00  -1.46408838E+01  -3.53062745E+00  -1.29490474E+00  -1.42741802E+00  -4.02667400E+00  -1.38319911E+01  -6.71313861E+00  -5.13512943E+00  -2.63392395E-01  -4.16728619E+00  -1.96182079E+00  -3.45570332E-01  -1.47366168E+00  -3.74452261E+00  -3.39773512E+00  -6.05389478E+00  -4.40873049E+00  -3.32478576E+00  -1.35155407E+01  -1.23144144E+01  -1.04247110E+01  -1.30638667E+01  -8.88061037E+00  -8.28648166E+00  -1.05646442E+01  -1.41061440E+01  -2.35295588E+00  -4.87381438E+00  -2.67776515E+00  -3.62287318E+00  -7.93587057E+00  -2.09317575E+00  -5.26959387E+00  -7.45811384E+00  -7.06025222E+00  -4.59540166E+00  -6.92348057E+00  -1.47864086E+02  -1.51987146E+02  -6.79724592E+00  -1.23536858E+01  -1.12938080E+01  -7.64979359E+00  -3.23833159E+00  -9.89821600E+00  -3.37244119E+00  -7.01404918E+01  -1.20320907E+01  -8.41903214E+00  -1.63451071E+00  -4.66793844E+01  -6.22081105E+00  -7.49996407E+00  -5.12083490E+00  -8.73903301E+00  -7.90417473E+00  -8.27968940E+00  -8.27295955E+00  -1.01458836E+01  -8.88441292E+00  -7.19545611E+00  -6.40473134E+00  -1.22771238E+01  -5.91387970E+00  -1.40281849E+01  -7.63397440E+00  -1.09447424E+01  -1.61184408E+01  -1.61187039E+01  -2.19047805E+01  -1.30359399E+01  -2.17995142E+01  -2.17998183E+01  -3.16161819E+01  -3.14351250E+01
   1.92500000E+02   5.00000000E-01   5.00000000E-01  -7.22678064E+00  -1.45660314E+01  -3.48766179E+00  -1.29536063E+00  -1.43699279E+00  -3.94579972E+00  -1.37427927E+01  -6.71344904E+00  -5.13547514E+00  -2.63241137E-01  -4.16717662E+00  -1.96221506E+00  -3.44809667E-01  -1.47664407E+00  -3.74441304E+00  -3.39762555E+00  -6.05953497E+00  -4.40862092E+00  -3.29877952E+00  -1.34331455E+01  -1.22278843E+01  -1.03725160E+01  -1.29917708E+01  -8.86353243E+00  -8.27507104E+00  -1.05914882E+01  -1.40564819E+01  -2.35578293E+00  -4.91559989E+00  -2.68340629E+00  -3.64893717E+00  -7.91010539E+00  -2.10670765E+00  -5.16661393E+00  -7.37342660E+00  -6.97336724E+00  -4.51375757E+00  -6.91110844E+00  -1.46700803E+02  -1.50783412E+02  -6.74901813E+00  -1.22336349E+01  -1.12284183E+01  -7.56689159E+00  -3.23694410E+00  -9.87584140E+00  -3.37761091E+00  -6.95896650E+01  -1.19708611E+01  -8.41445926E+00  -1.64658557E+00  -4.63291807E+01  -6.22583436E+00  -7.54192146E+00  -5.08970900E+00  -8.61082251E+00  -7.83964077E+00  -8.27886420E+00  -8.24956426E+00  -1.01895919E+01  -8.90487487E+00  -7.17284307E+00  -6.40056515E+00  -1.22348823E+01  -5.91353866E+00  -1.38843954E+01  -7.61360655E+00  -1.09374959E+01  -1.61043533E+01  -1.61046166E+01  -2.18864953E+01  -1.30077470E+01  -2.17819613E+01  -2.17822674E+01  -3.15626618E+01  -3.12412371E+01
   2.27500000E+02   5.00000000E-01   5.00000000E-01  -7.16551113E+00  -1.44934988E+01  -3.44616289E+00  -1.29580334E+00  -1.44714005E+00  -3.87760179E+00  -1.36627413E+01  -6.71376626E+00  -5.13580624E+00  -2.63072018E-01  -4.16704603E+00  -1.96261339E+00  -3.44053790E-01  -1.48034026E+00  -3.74428246E+00  -3.39749496E+00  -6.06571197E+00  -4.40849033E+00  -3.27606794E+00  -1.33529773E+01  -1.21403105E+01  -1.03161495E+01  -1.29200437E+01  -8.84619084E+00  -8.26319959E+00  -1.06166331E+01  -1.40062175E+01  -2.35879943E+00  -4.95616397E+00  -2.68898092E+00  -3.67404276E+00  -7.88389504E+00  -2.12080162E+00  -5.07588024E+00  -7.30018061E+00  -6.89757317E+00  -4.44476606E+00  -6.89794176E+00  -1.45554207E+02  -1.49598689E+02  -6.70305613E+00  -1.21179940E+01  -1.11600386E+01  -7.48666150E+00  -3.23501902E+00  -9.85233989E+00  -3.38281595E+00  -6.90465444E+01  -1.19049832E+01  -8.40810047E+00  -1.65848633E+00  -4.59832230E+01  -6.23120413E+00  -7.58201637E+00  -5.06904119E+00  -8.49762089E+00  -7.78761049E+00  -8.28800447E+00  -8.22623420E+00  -1.02324348E+01  -8.92370535E+00  -7.14990268E+00  -6.39578475E+00  -1.21917774E+01  -5.91343327E+00  -1.37464461E+01  -7.59842915E+00  -1.09342144E+01  -1.60962085E+01  -1.60964710E+01  -2.18761403E+01  -1.29897397E+01  -2.17723303E+01  -2.17726366E+01  -3.15210601E+01  -3.10575261E+01
   2.62500000E+02   5.00000000E-01   5.00000000E-01  -7.10612555E+00  -1.44227948E+01  -3.40562431E+00  -1.29623729E+00  -1.45772246E+00  -3.81872977E+00  -1.35887419E+01  -6.71409090E+00  -5.13613036E+00  -2.62886136E-01  -4.16689539E+00  -1.96302091E+00  -3.43305530E-01  -1.48461342E+00  -3.74413185E+00  -3.39734432E+00  -6.07250286E+00  -4.40833969E+00  -3.25549079E+00  -1.32744598E+01  -1.20524049E+01  -1.02574904E+01  -1.28488020E+01  -8.82867930E+00  -8.25091005E+00  -1.06407518E+01  -1.39559272E+01  -2.36205213E+00  -4.99610926E+00  -2.69439628E+00  -3.69814779E+00  -7.85768798E+00  -2.13526467E+00  -4.99408477E+00  -7.23511544E+00  -6.83012178E+00  -4.38502304E+00  -6.88453150E+00  -1.44423338E+02  -1.48431313E+02  -6.65887353E+00  -1.20056991E+01  -1.10899875E+01  -7.40840416E+00  -3.23260843E+00  -9.82830855E+00  -3.38797830E+00  -6.85104658E+01  -1.18363834E+01  -8.40057778E+00  -1.67013998E+00  -4.56414436E+01  -6.23694094E+00  -7.62087406E+00  -5.05617071E+00  -8.39559401E+00  -7.74486729E+00  -8.30450132E+00  -8.20311849E+00  -1.02750399E+01  -8.94158383E+00  -7.12673977E+00  -6.39044423E+00  -1.21484009E+01  -5.91351238E+00  -1.36131950E+01  -7.58669188E+00  -1.09337235E+01  -1.60922371E+01  -1.60924983E+01  -2.18713703E+01  -1.29784176E+01  -2.17682755E+01  -2.17685810E+01  -3.14877980E+01  -3.08805300E+01
   2.97500000E+02   5.00000000E-01   5.00000000E-01  -7.04826265E+00  -1.43536687E+01  -3.36577771E+00  -1.29666583E+00  -1.46869212E+00  -3.76701869E+00  -1.35188582E+01  -6.71442375E+00  -5.13644842E+00  -2.62684153E-01  -4.16672557E+00  -1.96343980E+00  -3.42564818E-01  -1.48939568E+00  -3.74396211E+00  -3.39717450E+00  -6.07995216E+00  -4.40816987E+00  -3.23636940E+00  -1.31972609E+01  -1.19646157E+01  -1.01976559E+01  -1.27781513E+01  -8.81107876E+00  -8.23823801E+00  -1.06642524E+01  -1.39059348E+01  -2.36558152E+00  -5.03578872E+00  -2.69964267E+00  -3.72128597E+00  -7.83177008E+00  -2.15004672E+00  -4.91909861E+00  -7.17614260E+00  -6.76919768E+00  -4.33236326E+00  -6.87118207E+00  -1.43307550E+02  -1.47280251E+02  -6.61619440E+00  -1.18961420E+01  -1.10190665E+01  -7.33173242E+00  -3.22975368E+00  -9.80408799E+00  -3.39307737E+00  -6.79810061E+01  -1.17662174E+01  -8.39225590E+00  -1.68153097E+00  -4.53037726E+01  -6.24310683E+00  -7.65891429E+00  -5.04935758E+00  -8.30230069E+00  -7.70933402E+00  -8.32663845E+00  -8.18032082E+00  -1.03177623E+01  -8.95891816E+00  -7.10343936E+00  -6.38458348E+00  -1.21050850E+01  -5.91377062E+00  -1.34839777E+01  -7.57736439E+00  -1.09353232E+01  -1.60913862E+01  -1.60916458E+01  -2.18707870E+01  -1.29717227E+01  -2.17683984E+01  -2.17687023E+01  -3.14607556E+01  -3.07082620E+01
   3.32500000E+02   5.00000000E-01   5.00000000E-01  -6.99169782E+00  -1.42859788E+01  -3.32648480E+00  -1.29709166E+00  -1.48002247E+00  -3.72099091E+00  -1.34518765E+01  -6.71476560E+00  -5.13675990E+00  -2.62466610E-01  -4.16653738E+00  -1.96387112E+00  -3.41831003E-01  -1.49463754E+00  -3.74377407E+00  -3.39698631E+00  -6.08809514E+00  -4.40798168E+00  -3.21829014E+00  -1.31211826E+01  -1.18772262E+01  -1.01373273E+01  -1.27081694E+01  -8.79346346E+00  -8.22521573E+00  -1.06874004E+01  -1.38564277E+01  -2.36942485E+00  -5.07541888E+00  -2.70472852E+00  -3.74350560E+00  -7.80631190E+00  -2.16513051E+00  -4.84947693E+00  -7.12185429E+00  -6.71353559E+00  -4.28532014E+00  -6.85806407E+00  -1.42206354E+02  -1.46144776E+02  -6.57486681E+00  -1.17889725E+01  -1.09477749E+01  -7.25641056E+00  -3.22649140E+00  -9.77988059E+00  -3.39810583E+00  -6.74578770E+01  -1.16952007E+01  -8.38336056E+00  -1.69265724E+00  -4.49701404E+01  -6.24976913E+00  -7.69642604E+00  -5.04740584E+00  -8.21611045E+00  -7.67960669E+00  -8.35323676E+00  -8.15792917E+00  -1.03608157E+01  -8.97597194E+00  -7.08007809E+00  -6.37823749E+00  -1.20620236E+01  -5.91421252E+00  -1.33583713E+01  -7.56981207E+00  -1.09385742E+01  -1.60929950E+01  -1.60932534E+01  -2.18735133E+01  -1.29683893E+01  -2.17718217E+01  -2.17721236E+01  -3.14386045E+01  -3.05395394E+01
   3.67500000E+02   5.00000000E-01   5.00000000E-01  -6.93628509E+00  -1.42196374E+01  -3.28768165E+00  -1.29751701E+00  -1.49169257E+00  -3.67959507E+00  -1.33870260E+01  -6.71511717E+00  -5.13706410E+00  -2.62233993E-01  -4.16633154E+00  -1.96431533E+00  -3.41103346E-01  -1.50029607E+00  -3.74356850E+00  -3.39678047E+00  -6.09696331E+00  -4.40777585E+00  -3.20099259E+00  -1.30461035E+01  -1.17904164E+01  -1.00769275E+01  -1.26389092E+01  -8.77590335E+00  -8.21187304E+00  -1.07103793E+01  -1.38075152E+01  -2.37361781E+00  -5.11513872E+00  -2.70966548E+00  -3.76485561E+00  -7.78141143E+00  -2.18050624E+00  -4.78419876E+00  -7.07126411E+00  -6.66221771E+00  -4.24285515E+00  -6.84527205E+00  -1.41119349E+02  -1.45024335E+02  -6.53481135E+00  -1.16839895E+01  -1.08764301E+01  -7.18228547E+00  -3.22285506E+00  -9.75580967E+00  -3.40305940E+00  -6.69408682E+01  -1.16237880E+01  -8.37403768E+00  -1.70352009E+00  -4.46404786E+01  -6.25699236E+00  -7.73361696E+00  -5.04946329E+00  -8.13589139E+00  -7.65470091E+00  -8.38345832E+00  -8.13602315E+00  -1.04043344E+01  -8.99292673E+00  -7.05672798E+00  -6.37143852E+00  -1.20193325E+01  -5.91484429E+00  -1.32360852E+01  -7.56362952E+00  -1.09431885E+01  -1.60966308E+01  -1.60968885E+01  -2.18789748E+01  -1.29676097E+01  -2.17779707E+01  -2.17782708E+01  -3.14204731E+01  -3.03736397E+01
   4.02500000E+02   5.00000000E-01   5.00000000E-01  -6.88192546E+00  -1.41545856E+01  -3.24934809E+00  -1.29794380E+00  -1.50368355E+00  -3.64205873E+00  -1.33238082E+01  -6.71547914E+00  -5.13736035E+00  -2.61986760E-01  -4.16610873E+00  -1.96477251E+00  -3.40381134E-01  -1.50633211E+00  -3.74334616E+00  -3.39655766E+00  -6.10658581E+00  -4.40755304E+00  -3.18430795E+00  -1.29719470E+01  -1.17043016E+01  -1.00167225E+01  -1.25704053E+01  -8.75846532E+00  -8.19823765E+00  -1.07333241E+01  -1.37592605E+01  -2.37819543E+00  -5.15504204E+00  -2.71446514E+00  -3.78538261E+00  -7.75712234E+00  -2.19616587E+00  -4.72251996E+00  -7.02366025E+00  -6.61455832E+00  -4.20420824E+00  -6.83285611E+00  -1.40046188E+02  -1.43918475E+02  -6.49599095E+00  -1.15810796E+01  -1.08052378E+01  -7.10925236E+00  -3.21887549E+00  -9.73195159E+00  -3.40793468E+00  -6.64298165E+01  -1.15522747E+01  -8.36438534E+00  -1.71412180E+00  -4.43147200E+01  -6.26483671E+00  -7.77064346E+00  -5.05490727E+00  -8.06083285E+00  -7.63390647E+00  -8.41669255E+00  -8.11467591E+00  -1.04484056E+01  -9.00991538E+00  -7.03345793E+00  -6.36421666E+00  -1.19770807E+01  -5.91567186E+00  -1.31169060E+01  -7.55854875E+00  -1.09489700E+01  -1.61019980E+01  -1.61022557E+01  -2.18867801E+01  -1.29688516E+01  -2.17864539E+01  -2.17867526E+01  -3.14057655E+01  -3.02101121E+01
   4.37500000E+02   5.00000000E-01   5.00000000E-01  -6.82854854E+00  -1.40907802E+01  -3.21149019E+00  -1.29837360E+00  -1.51597783E+00  -3.60780021E+00  -1.32618936E+01  -6.71585210E+00  -5.13764811E+00  -2.61725342E-01  -4.16586957E+00  -1.96524242E+00  -3.39663695E-01  -1.51270945E+00  -3.74310774E+00  -3.39631850E+00  -6.11698958E+00  -4.40731387E+00  -3.16812342E+00  -1.28986637E+01  -1.16189555E+01  -9.95688194E+00  -1.25026792E+01  -8.74121387E+00  -8.18433527E+00  -1.07563394E+01  -1.37116992E+01  -2.38319265E+00  -5.19519616E+00  -2.71913843E+00  -3.80513042E+00  -7.73347151E+00  -2.21210180E+00  -4.66388512E+00  -6.97851766E+00  -6.57003378E+00  -4.16880914E+00  -6.82084003E+00  -1.38986560E+02  -1.42826810E+02  -6.45839303E+00  -1.14801808E+01  -1.07343338E+01  -7.03723584E+00  -3.21458115E+00  -9.70835416E+00  -3.41272857E+00  -6.59245872E+01  -1.14808577E+01  -8.35447224E+00  -1.72446503E+00  -4.39927988E+01  -6.27335775E+00  -7.80762866E+00  -5.06327539E+00  -7.99033935E+00  -7.61669951E+00  -8.45248661E+00  -8.09395476E+00  -1.04930883E+01  -9.02704097E+00  -7.01033446E+00  -6.35660008E+00  -1.19353095E+01  -5.91670051E+00  -1.30006667E+01  -7.55438624E+00  -1.09557788E+01  -1.61088861E+01  -1.61091450E+01  -2.18966507E+01  -1.29717509E+01  -2.17969929E+01  -2.17972909E+01  -3.13940564E+01  -3.00486698E+01
   4.72500000E+02   5.00000000E-01   5.00000000E-01  -6.77610173E+00  -1.40281869E+01  -3.17412978E+00  -1.29880777E+00  -1.52855896E+00  -3.57637291E+00  -1.32010580E+01  -6.71623658E+00  -5.13792693E+00  -2.61450155E-01  -4.16561463E+00  -1.96572462E+00  -3.38950410E-01  -1.51939449E+00  -3.74285394E+00  -3.39606356E+00  -6.12819930E+00  -4.40705893E+00  -3.15236092E+00  -1.28262203E+01  -1.15344257E+01  -9.89751523E+00  -1.24357437E+01  -8.72421162E+00  -8.17018977E+00  -1.07795118E+01  -1.36648495E+01  -2.38864467E+00  -5.23565304E+00  -2.72369552E+00  -3.82414011E+00  -7.71046969E+00  -2.22830661E+00  -4.60787209E+00  -6.93544258E+00  -6.52823786E+00  -4.13622169E+00  -6.80923205E+00  -1.37940176E+02  -1.41748996E+02  -6.42201858E+00  -1.13812608E+01  -1.06638099E+01  -6.96617879E+00  -3.20999829E+00  -9.68504754E+00  -3.41743813E+00  -6.54250634E+01  -1.14096719E+01  -8.34434858E+00  -1.73455268E+00  -4.36746503E+01  -6.28260639E+00  -7.84467327E+00  -5.07422123E+00  -7.92396405E+00  -7.60268696E+00  -8.49050078E+00  -8.07392129E+00  -1.05384234E+01  -9.04438822E+00  -6.98742219E+00  -6.34861512E+00  -1.18940431E+01  -5.91793473E+00  -1.28872296E+01  -7.55101114E+00  -1.09635110E+01  -1.61171383E+01  -1.61173998E+01  -2.19083799E+01  -1.29760492E+01  -2.18093804E+01  -2.18096788E+01  -3.13850288E+01  -2.98891250E+01
   5.07500000E+02   5.00000000E-01   5.00000000E-01  -6.72454343E+00  -1.39667763E+01  -3.13729801E+00  -1.29924739E+00  -1.54141156E+00  -3.54742868E+00  -1.31411425E+01  -6.71663301E+00  -5.13819645E+00  -2.61161606E-01  -4.16534446E+00  -1.96621841E+00  -3.38240714E-01  -1.52635610E+00  -3.74258543E+00  -3.39579340E+00  -6.14023719E+00  -4.40678877E+00  -3.13696392E+00  -1.27545928E+01  -1.14507425E+01  -9.83869461E+00  -1.23696051E+01  -8.70751956E+00  -8.15582324E+00  -1.08029160E+01  -1.36187195E+01  -2.39458709E+00  -5.27645602E+00  -2.72814593E+00  -3.84245019E+00  -7.68811825E+00  -2.24477305E+00  -4.55415540E+00  -6.89413618E+00  -6.48885180E+00  -4.10610714E+00  -6.79803148E+00  -1.36906765E+02  -1.40684717E+02  -6.38687535E+00  -1.12843039E+01  -1.05937298E+01  -6.89603562E+00  -3.20515113E+00  -9.66205101E+00  -3.42206053E+00  -6.49311395E+01  -1.13388131E+01  -8.33405290E+00  -1.74438778E+00  -4.33602111E+01  -6.29262885E+00  -7.88186229E+00  -5.08748471E+00  -7.86136533E+00  -7.59156975E+00  -8.53047839E+00  -8.05463141E+00  -1.05844406E+01  -9.06203034E+00  -6.96478411E+00  -6.34028640E+00  -1.18532952E+01  -5.91937820E+00  -1.27764752E+01  -7.54832569E+00  -1.09720855E+01  -1.61266325E+01  -1.61268980E+01  -2.19218062E+01  -1.29815541E+01  -2.18234552E+01  -2.18237553E+01  -3.13784349E+01  -2.97313497E+01
   5.42500000E+02   5.00000000E-01   5.00000000E-01  -6.67383888E+00  -1.39065212E+01  -3.10103133E+00  -1.29969330E+00  -1.55452132E+00  -3.52069267E+00  -1.30820288E+01  -6.71704180E+00  -5.13845639E+00  -2.60860095E-01  -4.16505960E+00  -1.96672293E+00  -3.37534101E-01  -1.53356535E+00  -3.74230284E+00  -3.39550854E+00  -6.15312279E+00  -4.40650391E+00  -3.12188921E+00  -1.26837628E+01  -1.13679253E+01  -9.78046926E+00  -1.23042652E+01  -8.69119722E+00  -8.14125614E+00  -1.08266194E+01  -1.35733112E+01  -2.40105597E+00  -5.31764404E+00  -2.73249857E+00  -3.86009684E+00  -7.66641326E+00  -2.26149397E+00  -4.50248123E+00  -6.85436956E+00  -6.45162337E+00  -4.07819900E+00  -6.78723280E+00  -1.35886070E+02  -1.39633678E+02  -6.35297354E+00  -1.11893020E+01  -1.05241396E+01  -6.82676790E+00  -3.20006193E+00  -9.63937718E+00  -3.42659303E+00  -6.44427166E+01  -1.12683523E+01  -8.32361631E+00  -1.75397347E+00  -4.30494187E+01  -6.30346659E+00  -7.91926913E+00  -5.10287125E+00  -7.80227721E+00  -7.58311758E+00  -8.57222472E+00  -8.03613529E+00  -1.06311620E+01  -9.08003339E+00  -6.94248177E+00  -6.33163690E+00  -1.18130735E+01  -5.92103378E+00  -1.26682959E+01  -7.54625288E+00  -1.09814360E+01  -1.61372683E+01  -1.61375396E+01  -2.19367976E+01  -1.29881146E+01  -2.18390850E+01  -2.18393884E+01  -3.13740720E+01  -2.95752508E+01
   5.77500000E+02   5.00000000E-01   5.00000000E-01  -6.62395744E+00  -1.38473952E+01  -3.06536891E+00  -1.30014612E+00  -1.56787495E+00  -3.49594539E+00  -1.30236231E+01  -6.71746326E+00  -5.13870653E+00  -2.60546027E-01  -4.16476057E+00  -1.96723717E+00  -3.36830127E-01  -1.54099541E+00  -3.74200681E+00  -3.39520950E+00  -6.16687268E+00  -4.40620487E+00  -3.10710163E+00  -1.26137148E+01  -1.12859862E+01  -9.72287446E+00  -1.22397226E+01  -8.67530283E+00  -8.12650735E+00  -1.08506851E+01  -1.35286232E+01  -2.40808786E+00  -5.35925419E+00  -2.73676186E+00  -3.87711402E+00  -7.64534822E+00  -2.27846234E+00  -4.45264961E+00  -6.81596609E+00  -6.41635165E+00  -4.05228518E+00  -6.77682823E+00  -1.34877839E+02  -1.38595596E+02  -6.32032289E+00  -1.10962496E+01  -1.04550741E+01  -6.75834168E+00  -3.19475118E+00  -9.61703475E+00  -3.43103292E+00  -6.39597004E+01  -1.11983450E+01  -8.31306525E+00  -1.76331294E+00  -4.27422121E+01  -6.31515621E+00  -7.95695823E+00  -5.12023668E+00  -7.74648869E+00  -7.57715082E+00  -8.61559167E+00  -8.01847735E+00  -1.06786045E+01  -9.09845905E+00  -6.92057538E+00  -6.32268807E+00  -1.17733819E+01  -5.92290357E+00  -1.25625919E+01  -7.54472859E+00  -1.09915054E+01  -1.61489601E+01  -1.61492392E+01  -2.19532410E+01  -1.29956056E+01  -2.18561568E+01  -2.18564651E+01  -3.13717666E+01  -2.94207544E+01
   6.12500000E+02   5.00000000E-01   5.00000000E-01  -6.57487087E+00  -1.37893716E+01  -3.03035092E+00  -1.30060620E+00  -1.58146021E+00  -3.47300971E+00  -1.29658459E+01  -6.71789766E+00  -5.13894672E+00  -2.60219816E-01  -4.16444786E+00  -1.96775996E+00  -3.36128418E-01  -1.54862140E+00  -3.74169797E+00  -3.39489679E+00  -6.18150031E+00  -4.40589217E+00  -3.09257072E+00  -1.25444341E+01  -1.12049324E+01  -9.66593727E+00  -1.21759726E+01  -8.65989329E+00  -8.11159431E+00  -1.08751734E+01  -1.34846523E+01  -2.41571972E+00  -5.40132327E+00  -2.74094378E+00  -3.89353372E+00  -7.62491571E+00  -2.29567129E+00  -4.40450141E+00  -6.77878848E+00  -6.38287571E+00  -4.02819495E+00  -6.76680942E+00  -1.33881833E+02  -1.37570199E+02  -6.28893091E+00  -1.10051400E+01  -1.03865606E+01  -6.69072567E+00  -3.18923772E+00  -9.59503018E+00  -3.43537753E+00  -6.34819992E+01  -1.11288368E+01  -8.30242323E+00  -1.77240940E+00  -4.24385313E+01  -6.32772941E+00  -7.99498673E+00  -5.13947589E+00  -7.69382878E+00  -7.57352735E+00  -8.66046630E+00  -8.00169623E+00  -1.07267811E+01  -9.11736628E+00  -6.89912380E+00  -6.31345990E+00  -1.17342226E+01  -5.92498883E+00  -1.24592676E+01  -7.54369658E+00  -1.10022431E+01  -1.61616314E+01  -1.61619203E+01  -2.19710354E+01  -1.30039175E+01  -2.18745697E+01  -2.18748848E+01  -3.13713645E+01  -2.92677961E+01
   6.47500000E+02   5.00000000E-01   5.00000000E-01  -6.52655096E+00  -1.37324570E+01  -2.99601641E+00  -1.30107375E+00  -1.59526582E+00  -3.45174093E+00  -1.29085581E+01  -6.71834523E+00  -5.13917684E+00  -2.59881890E-01  -4.16412201E+00  -1.96828991E+00  -3.35428664E-01  -1.55642023E+00  -3.74137690E+00  -3.39457094E+00  -6.19701623E+00  -4.40556631E+00  -3.07826273E+00  -1.24759053E+01  -1.11248046E+01  -9.60971967E+00  -1.21130443E+01  -8.64502447E+00  -8.09653311E+00  -1.09001441E+01  -1.34413958E+01  -2.42398905E+00  -5.44389027E+00  -2.74505192E+00  -3.90938603E+00  -7.60510975E+00  -2.31311408E+00  -4.35790864E+00  -6.74272915E+00  -6.35106714E+00  -4.00578913E+00  -6.75716966E+00  -1.32897813E+02  -1.36557224E+02  -6.25880077E+00  -1.09159611E+01  -1.03186603E+01  -6.62388886E+00  -3.18353868E+00  -9.57337002E+00  -3.43962406E+00  -6.30095216E+01  -1.10599072E+01  -8.29171330E+00  -1.78126607E+00  -4.21383173E+01  -6.34121335E+00  -8.03340724E+00  -5.16051563E+00  -7.64415465E+00  -7.57213307E+00  -8.70676368E+00  -7.98582503E+00  -1.07757039E+01  -9.13681393E+00  -6.87818482E+00  -6.30397098E+00  -1.16955983E+01  -5.92729011E+00  -1.23582603E+01  -7.54309484E+00  -1.10135932E+01  -1.61751984E+01  -1.61754994E+01  -2.19900699E+01  -1.30129292E+01  -2.18942124E+01  -2.18945364E+01  -3.13726971E+01  -2.91163037E+01
   6.82500000E+02   5.00000000E-01   5.00000000E-01  -6.47896798E+00  -1.36766690E+01  -2.96240201E+00  -1.30154879E+00  -1.60928147E+00  -3.43201939E+00  -1.28515878E+01  -6.71880615E+00  -5.13939679E+00  -2.59532699E-01  -4.16378353E+00  -1.96882531E+00  -3.34730627E-01  -1.56437049E+00  -3.74104420E+00  -3.39423246E+00  -6.21342844E+00  -4.40522784E+00  -3.06413960E+00  -1.24081101E+01  -1.10456578E+01  -9.55430251E+00  -1.20509790E+01  -8.63075144E+00  -8.08133854E+00  -1.09256588E+01  -1.33988534E+01  -2.43293404E+00  -5.48699788E+00  -2.74909354E+00  -3.92469935E+00  -7.58592725E+00  -2.33078408E+00  -4.31276703E+00  -6.70770296E+00  -6.32082411E+00  -3.98495270E+00  -6.74790539E+00  -1.31925548E+02  -1.35556405E+02  -6.22993025E+00  -1.08286929E+01  -1.02514502E+01  -6.55779891E+00  -3.17766957E+00  -9.55206237E+00  -3.44376954E+00  -6.25421751E+01  -1.09916528E+01  -8.28095961E+00  -1.78988617E+00  -4.18415122E+01  -6.35563115E+00  -8.07226980E+00  -5.18330875E+00  -7.59734304E+00  -7.57287486E+00  -8.75442141E+00  -7.97089180E+00  -1.08253853E+01  -9.15686242E+00  -6.85781536E+00  -6.29423861E+00  -1.16575135E+01  -5.92980718E+00  -1.22595182E+01  -7.54285506E+00  -1.10254957E+01  -1.61895710E+01  -1.61898863E+01  -2.20102248E+01  -1.30225070E+01  -2.19149656E+01  -2.19153007E+01  -3.13755840E+01  -2.89661904E+01
   7.17500000E+02   5.00000000E-01   5.00000000E-01  -6.43209449E+00  -1.36219026E+01  -2.92954476E+00  -1.30203106E+00  -1.62349773E+00  -3.41374480E+00  -1.27949876E+01  -6.71928058E+00  -5.13960648E+00  -2.59172711E-01  -4.16343298E+00  -1.96936476E+00  -3.34034145E-01  -1.57245233E+00  -3.74070044E+00  -3.39388191E+00  -6.23074101E+00  -4.40487729E+00  -3.05017912E+00  -1.23410316E+01  -1.09674201E+01  -9.49963627E+00  -1.19896931E+01  -8.61712755E+00  -8.06602427E+00  -1.09517761E+01  -1.33570232E+01  -2.44259255E+00  -5.53068767E+00  -2.75307561E+00  -3.93950046E+00  -7.56736422E+00  -2.34867484E+00  -4.26899052E+00  -6.67364170E+00  -6.29206202E+00  -3.96558915E+00  -6.73901229E+00  -1.30964810E+02  -1.34567488E+02  -6.20231414E+00  -1.07433136E+01  -1.01848782E+01  -6.49242593E+00  -3.17164491E+00  -9.53111365E+00  -3.44781134E+00  -6.20798698E+01  -1.09240388E+01  -8.27018367E+00  -1.79827287E+00  -4.15480593E+01  -6.37100059E+00  -8.11161690E+00  -5.20782388E+00  -7.55328712E+00  -7.57567368E+00  -8.80338891E+00  -7.95691884E+00  -1.08758329E+01  -9.17756903E+00  -6.83807053E+00  -6.28427888E+00  -1.16199713E+01  -5.93253913E+00  -1.21628825E+01  -7.54293912E+00  -1.10379192E+01  -1.62047021E+01  -1.62050341E+01  -2.20314377E+01  -1.30325776E+01  -2.19367668E+01  -2.19371153E+01  -3.13799310E+01  -2.88173902E+01