 TITLE = "Total Concentrations" 
VARIABLES = "X"          "Y"              "Z"            "H+"             "Al+++"          "CO2(aq)"        "Mg++"           "Ca++"           "Fe++"           "Fe+++"          "Ba++"           "Sr++"           "Cl-"            "K+"             "Na+"            "SO4--"          "O2(aq)"         "B(OH)3(aq)"     "HPO4--"         "NO3-"           "H4SiO4(aq)"     "HNO3(aq)"       "Al(OH)2+"       "AlO2-"          "AlOH++"         "BaHCO3+"        "BaCl+"          "BaCO3(aq)"      "BaOH+"          "HCO3-"          "CO3--"          "CaCl+"          "CaCl2(aq)"      "CaOH+"          "CaSO4(aq)"      "FeCl+"          "FeCl2(aq)"      "FeOH+"          "FeSO4(aq)"      "OH-"            "HS-"            "H2S(aq)"        "H2PO4-"         "H3PO4(aq)"      "HAlO2(aq)"      "HSO4-"          "KCl(aq)"        "KOH(aq)"        "KSO4-"          "NH3(aq)"        "NaAlO2(aq)"     "NaOH(aq)"       "NaSO4-"         "H2(aq)"         "CaHPO4(aq)"     "CaPO4-"         "FeCO3(aq)"      "FeH2PO4+"       "FeHPO4(aq)"     "FePO4-"         "KHPO4-"         "PO4---"         "S--"            "Sr(CO3)(aq)"    "SrHCO3+"        "SrCl+"          "SrOH+"          "SrSO4(aq)"     
 ZONE I=          10 , J=           1 , K=           1  F=POINT
   1.75000000E+02   5.00000000E-01   5.00000000E-01  -7.10331531E+00  -2.01240085E+01  -3.49141307E+00  -1.37819872E+00  -1.54815944E+00  -3.90605983E+00  -1.12865367E+01  -6.72088571E+00  -5.13965172E+00  -2.63369261E-01  -1.95893621E+00  -3.30619627E-01  -1.56922720E+00  -3.74472744E+00  -3.39793996E+00  -6.08757174E+00  -4.40893533E+00  -1.59701390E+00  -1.30936489E+01  -1.65999423E+01  -1.40770739E+01  -1.80356223E+01  -8.62420549E+00  -8.12969622E+00  -1.03179883E+01  -1.30493989E+01  -2.35630825E+00  -4.83035832E+00  -2.71750059E+00  -3.85817505E+00  -7.14371285E+00  -2.28001820E+00  -4.86308104E+00  -7.22670863E+00  -6.34475064E+00  -4.48362973E+00  -6.29722088E+00  -1.35365973E+02  -1.35961483E+02  -6.71754273E+00  -1.19711432E+01  -1.52871957E+01  -7.26301145E+00  -3.18624936E+00  -9.12622968E+00  -3.44724427E+00  -6.44275829E+01  -1.55438656E+01  -7.82485085E+00  -1.78181497E+00  -4.27359189E+01  -6.20907907E+00  -7.37308143E+00  -4.99502567E+00  -8.55193498E+00  -7.90107957E+00  -8.46192091E+00  -7.92691194E+00  -1.01246773E+01  -1.44352016E+02  -8.56323813E+00  -6.86695033E+00  -6.32345081E+00  -1.12917243E+01  -5.94446792E+00
   5.25000000E+02   5.00000000E-01   5.00000000E-01  -6.56177644E+00  -1.88117021E+01  -3.04427234E+00  -1.38550004E+00  -1.68402482E+00  -3.63421068E+00  -1.08596757E+01  -6.73032370E+00  -5.14663913E+00  -2.63275347E-01  -1.96164319E+00  -3.27468048E-01  -1.65487608E+00  -3.74470174E+00  -3.39791426E+00  -6.20151670E+00  -4.40890963E+00  -1.58314778E+00  -1.23537794E+01  -1.52161028E+01  -1.30917097E+01  -1.67373590E+01  -8.45470810E+00  -7.98262309E+00  -1.06269069E+01  -1.27273877E+01  -2.41616348E+00  -5.31155114E+00  -2.75084892E+00  -3.99683575E+00  -7.03979075E+00  -2.45480992E+00  -4.33859877E+00  -6.79718322E+00  -6.05079965E+00  -4.20320423E+00  -6.29579242E+00  -1.25832798E+02  -1.26069141E+02  -6.30407132E+00  -1.09062280E+01  -1.40984413E+01  -6.53946466E+00  -3.12451873E+00  -9.00112151E+00  -3.48598156E+00  -5.97886818E+01  -1.44312352E+01  -7.80312152E+00  -1.86888115E+00  -3.98463762E+01  -6.29409920E+00  -7.77464506E+00  -5.19017844E+00  -7.88508006E+00  -7.77520381E+00  -8.87050152E+00  -7.72593903E+00  -1.06517360E+01  -1.34626258E+02  -8.81939079E+00  -6.63653712E+00  -6.22900345E+00  -1.10108782E+01  -5.98153435E+00
   8.75000000E+02   5.00000000E-01   5.00000000E-01  -6.09207601E+00  -1.76783018E+01  -2.70058167E+00  -1.39786894E+00  -1.83648826E+00  -3.40646146E+00  -1.04721042E+01  -6.74232780E+00  -5.15405074E+00  -2.63308213E-01  -1.96579205E+00  -3.25097036E-01  -1.74905878E+00  -3.74469335E+00  -3.39790587E+00  -6.41921963E+00  -4.40890126E+00  -1.56516195E+00  -1.16915100E+01  -1.39833725E+01  -1.22211569E+01  -1.55885865E+01  -8.37059071E+00  -7.83126375E+00  -1.10021800E+01  -1.24579698E+01  -2.56025055E+00  -5.85098193E+00  -2.78319968E+00  -4.09975981E+00  -6.97924277E+00  -2.65182792E+00  -3.85698461E+00  -6.37987711E+00  -5.79529359E+00  -3.97350298E+00  -6.31299139E+00  -1.17331478E+02  -1.17221866E+02  -6.03920464E+00  -1.00588002E+01  -1.30275452E+01  -5.89160356E+00  -3.05617436E+00  -8.89912405E+00  -3.51892168E+00  -5.56116351E+01  -1.34292826E+01  -7.77344285E+00  -1.93943564E+00  -3.72552118E+01  -6.49310534E+00  -8.24094333E+00  -5.46805670E+00  -7.41508396E+00  -7.77512160E+00  -9.33026420E+00  -7.64296911E+00  -1.12568185E+01  -1.25980923E+02  -9.14704589E+00  -6.49035046E+00  -6.12130570E+00  -1.07689046E+01  -6.04257862E+00
   1.22500000E+03   5.00000000E-01   5.00000000E-01  -5.68326932E+00  -1.67056786E+01  -2.49166961E+00  -1.41474474E+00  -2.00075513E+00  -3.21764454E+00  -1.01185426E+01  -6.75655332E+00  -5.16061954E+00  -2.63499907E-01  -1.97123146E+00  -3.23222046E-01  -1.84269048E+00  -3.74468592E+00  -3.39789844E+00  -6.72708263E+00  -4.40889390E+00  -1.54340321E+00  -1.10982588E+01  -1.28877371E+01  -1.14528698E+01  -1.45765843E+01  -8.40459268E+00  -7.67961930E+00  -1.14732074E+01  -1.22297248E+01  -2.81676759E+00  -6.47572334E+00  -2.81624252E+00  -4.17767590E+00  -6.95144413E+00  -2.86315896E+00  -3.41759292E+00  -5.98186724E+00  -5.57408528E+00  -3.78656734E+00  -6.34129320E+00  -1.09700075E+02  -1.09261793E+02  -5.90671951E+00  -9.40494352E+00  -1.20655658E+01  -5.30608464E+00  -2.98685993E+00  -8.81579726E+00  -3.54424858E+00  -5.18318563E+01  -1.25299976E+01  -7.73832837E+00  -1.99440578E+00  -3.49180193E+01  -6.79422378E+00  -8.76795118E+00  -5.85968304E+00  -7.11982722E+00  -7.88979047E+00  -9.84167496E+00  -7.66818631E+00  -1.19248954E+01  -1.18244756E+02  -9.57373016E+00  -6.46119680E+00  -6.00518894E+00  -1.05567712E+01  -6.12020815E+00
   1.57500000E+03   5.00000000E-01   5.00000000E-01  -5.32567690E+00  -1.58746200E+01  -2.39149055E+00  -1.43533549E+00  -2.17667854E+00  -3.06219307E+00  -9.78713794E+00  -6.77556704E+00  -5.16852298E+00  -2.63989865E-01  -1.97799597E+00  -3.21705257E-01  -1.93267398E+00  -3.74467885E+00  -3.39789136E+00  -7.07737008E+00  -4.40888704E+00  -1.51847976E+00  -1.05635523E+01  -1.19143401E+01  -1.07769600E+01  -1.36868313E+01  -8.53524943E+00  -7.53101135E+00  -1.20181286E+01  -1.20373905E+01  -3.16123836E+00  -7.16433577E+00  -2.85228135E+00  -4.23731550E+00  -6.95235708E+00  -3.08448426E+00  -3.01554662E+00  -5.60174194E+00  -5.38272687E+00  -3.63274655E+00  -6.37835034E+00  -1.02807490E+02  -1.02056889E+02  -5.85306018E+00  -8.88145253E+00  -1.12024508E+01  -4.77210297E+00  -2.91823710E+00  -8.74829244E+00  -3.56136204E+00  -4.83925868E+01  -1.17238582E+01  -7.69867312E+00  -2.03501543E+00  -3.27979966E+01  -7.14909310E+00  -9.31391067E+00  -6.33935747E+00  -6.93986111E+00  -8.06939025E+00  -1.03648827E+01  -7.75131550E+00  -1.26108808E+01  -1.11277877E+02  -1.00762738E+01  -6.52771562E+00  -5.88484281E+00  -1.03711528E+01  -6.20992309E+00
   1.92500000E+03   5.00000000E-01   5.00000000E-01  -5.01579653E+00  -1.51986566E+01  -2.35030486E+00  -1.46402674E+00  -2.36577358E+00  -2.94762543E+00  -9.47651219E+00  -6.80349205E+00  -5.18269617E+00  -2.65030006E-01  -1.98631041E+00  -3.20332290E-01  -2.01891601E+00  -3.74467183E+00  -3.39788435E+00  -7.42840858E+00  -4.40888065E+00  -1.48706308E+00  -1.00815860E+01  -1.10710720E+01  -1.01978059E+01  -1.29319823E+01  -8.71407090E+00  -7.38857041E+00  -1.25846882E+01  -1.18744954E+01  -3.54283587E+00  -7.86598718E+00  -2.89320907E+00  -4.28248043E+00  -6.97591482E+00  -3.31274575E+00  -2.65718629E+00  -5.24704095E+00  -5.22488653E+00  -3.51494028E+00  -6.41958642E+00  -9.65512237E+01  -9.55061750E+01  -5.83444003E+00  -8.43950133E+00  -1.04454728E+01  -4.28553422E+00  -2.85001613E+00  -8.68987288E+00  -3.57019684E+00  -4.52494738E+01  -1.10133520E+01  -7.64935745E+00  -2.06216828E+00  -3.08644478E+01  -7.51365219E+00  -9.83532012E+00  -6.86113171E+00  -6.83890904E+00  -8.28094367E+00  -1.08704707E+01  -7.84522830E+00  -1.32727131E+01  -1.04964877E+02  -1.06023869E+01  -6.64242221E+00  -5.76512531E+00  -1.02080448E+01  -6.30998384E+00
   2.27500000E+03   5.00000000E-01   5.00000000E-01  -4.75359175E+00  -1.47030816E+01  -2.33426465E+00  -1.50826719E+00  -2.56927100E+00  -2.88798841E+00  -9.19639544E+00  -6.84421061E+00  -5.20709901E+00  -2.66892707E-01  -1.99657797E+00  -3.18862351E-01  -2.10308536E+00  -3.74466471E+00  -3.39787722E+00  -7.75609046E+00  -4.40887509E+00  -1.44559902E+00  -9.64960022E+00  -1.03728604E+01  -9.72242074E+00  -1.23336546E+01  -8.90592867E+00  -7.25464560E+00  -1.31325718E+01  -1.17336666E+01  -3.92508593E+00  -8.54229343E+00  -2.93979999E+00  -4.31467216E+00  -7.01438964E+00  -3.54556680E+00  -2.35474017E+00  -4.93019242E+00  -5.10847970E+00  -3.44347154E+00  -6.45933726E+00  -9.08503592E+01  -8.95316758E+01  -5.82704804E+00  -8.05319532E+00  -9.80619869E+00  -3.84649777E+00  -2.78125003E+00  -8.63234705E+00  -3.57161501E+00  -4.23675779E+01  -1.04027947E+01  -7.58249550E+00  -2.07707978E+00  -2.90917338E+01  -7.86027739E+00  -1.03016896E+01  -7.39681854E+00  -6.80762664E+00  -8.51495728E+00  -1.13487082E+01  -7.91965467E+00  -1.38838313E+01  -9.92103228E+01  -1.11110750E+01  -6.77027935E+00  -5.64913852E+00  -1.00613428E+01  -6.41901741E+00
   2.62500000E+03   5.00000000E-01   5.00000000E-01  -4.53812748E+00  -1.43926011E+01  -2.32794407E+00  -1.57493378E+00  -2.78625030E+00  -2.89141748E+00  -8.96531151E+00  -6.90168903E+00  -5.24466274E+00  -2.69659807E-01  -2.00935007E+00  -3.17150692E-01  -2.18859544E+00  -3.74465733E+00  -3.39786985E+00  -8.05131275E+00  -4.40887128E+00  -1.39523068E+00  -9.26419272E+00  -9.81795810E+00  -9.34459935E+00  -1.18944654E+01  -9.09622199E+00  -7.13179820E+00  -1.36444754E+01  -1.16109407E+01  -4.29174309E+00  -9.17649877E+00  -2.99051394E+00  -4.33262274E+00  -7.06063340E+00  -3.78112164E+00  -2.11453661E+00  -4.65740336E+00  -5.03758973E+00  -3.42542043E+00  -6.49420586E+00  -8.56387562E+01  -8.40683293E+01  -5.82109345E+00  -7.70989724E+00  -9.28114826E+00  -3.45598473E+00  -2.71101274E+00  -8.57023255E+00  -3.56848789E+00  -3.97166375E+01  -9.88348040E+00  -7.49218930E+00  -2.08262351E+00  -2.74584545E+01  -8.17509723E+00  -1.06970859E+01  -7.93454806E+00  -6.84536019E+00  -8.77170093E+00  -1.18000818E+01  -7.96000182E+00  -1.44337070E+01  -9.39359582E+01  -1.15833317E+01  -6.89555968E+00  -5.53891271E+00  -9.92691241E+00  -6.53769480E+00
   2.97500000E+03   5.00000000E-01   5.00000000E-01  -4.36652849E+00  -1.42470871E+01  -2.32534544E+00  -1.66916491E+00  -3.01229048E+00  -2.95656224E+00  -8.80956482E+00  -6.98003315E+00  -5.29819965E+00  -2.73091474E-01  -2.02531512E+00  -3.15181536E-01  -2.28106346E+00  -3.74464958E+00  -3.39786210E+00  -8.31531968E+00  -4.40887084E+00  -1.34173574E+00  -8.92059958E+00  -9.38556696E+00  -9.04404538E+00  -1.15947832E+01  -9.28289198E+00  -7.02316145E+00  -1.41187794E+01  -1.15064853E+01  -4.63826039E+00  -9.76540161E+00  -3.04047415E+00  -4.33162955E+00  -7.10750120E+00  -4.01806183E+00  -1.93373654E+00  -4.42571430E+00  -5.00984125E+00  -3.46234713E+00  -6.52347242E+00  -8.08622580E+01  -7.90607652E+01  -5.81561621E+00  -7.40431057E+00  -8.85038302E+00  -3.11580074E+00  -2.63871362E+00  -8.50155511E+00  -3.56672026E+00  -3.72694049E+01  -9.43327855E+00  -7.37564423E+00  -2.08447845E+00  -2.59467065E+01  -8.45280035E+00  -1.10159316E+01  -8.46799292E+00  -6.95142785E+00  -9.05356705E+00  -1.22286794E+01  -7.96337980E+00  -1.49235655E+01  -8.90786729E+01  -1.20156624E+01  -7.01476056E+00  -5.43666763E+00  -9.80425996E+00  -6.67088678E+00
   3.32500000E+03   5.00000000E-01   5.00000000E-01  -4.23517315E+00  -1.42365734E+01  -2.32422002E+00  -1.79468410E+00  -3.23989872E+00  -3.07616563E+00  -8.75958601E+00  -7.08259833E+00  -5.37047048E+00  -2.76719546E-01  -2.04530032E+00  -3.13041229E-01  -2.38760213E+00  -3.74464134E+00  -3.39785386E+00  -8.55374230E+00  -4.40887631E+00  -1.29215288E+00  -8.61398147E+00  -9.04812724E+00  -8.79587491E+00  -1.14064379E+01  -9.46851775E+00  -6.93175593E+00  -1.45601115E+01  -1.14221175E+01  -4.96462071E+00  -1.03107436E+01  -3.08214739E+00  -4.30451400E+00  -7.14679125E+00  -4.25538311E+00  -1.80414416E+00  -4.22706370E+00  -5.01861308E+00  -3.55332185E+00  -6.54751447E+00  -7.64771464E+01  -7.44632623E+01  -5.81389435E+00  -7.13518699E+00  -8.48845991E+00  -2.82923193E+00  -2.56433451E+00  -8.42637614E+00  -3.57471513E+00  -3.50020831E+01  -9.02625613E+00  -7.23184704E+00  -2.09062526E+00  -2.45414136E+01  -8.69125323E+00  -1.12564484E+01  -8.99154523E+00  -7.12404652E+00  -9.36274951E+00  -1.26387323E+01  -7.93284362E+00  -1.53590363E+01  -8.45875729E+01  -1.24115967E+01  -7.12968671E+00  -5.34511852E+00  -9.69507247E+00  -6.82711586E+00
