 TITLE = "Total Concentrations" 
VARIABLES = "X"          "Y"              "Z"            "H+"             "Al+++"          "CO2(aq)"        "Mg++"           "Ca++"           "Fe++"           "Fe+++"          "Ba++"           "Sr++"           "Li+"            "Rb+"            "Mn++"           "Zn++"           "Cu++"           "Cu+"            "Cl-"            "F-"             "K+"             "HS-"            "Na+"            "SO4--"          "O2(aq)"         "B(OH)3(aq)"     "HPO4--"         "NO3-"           "H4SiO4(aq)"     "Ti(OH)4(aq)"    "HNO3(aq)"       "Al(OH)2+"       "AlO2-"          "AlOH++"         "BaHCO3+"        "BaCl+"          "BaCO3(aq)"      "BaOH+"          "HCO3-"          "CO3--"          "CaCl+"          "CaCl2(aq)"      "CaOH+"          "CaSO4(aq)"      "FeCl+"          "FeCl2(aq)"      "FeOH+"          "FeSO4(aq)"      "OH-"            "LiCl(aq)"       "LiOH(aq)"       "RbCl(aq)"       "RbOH(aq)"       "S2O3--"         "H2S(aq)"        "H2PO4-"         "H3PO4(aq)"      "HAlO2(aq)"      "HSO4-"          "KCl(aq)"        "KOH(aq)"        "KSO4-"          "NH3(aq)"        "NaAlO2(aq)"     "NaOH(aq)"       "NaSO4-"         "H2(aq)"         "CaHPO4(aq)"     "CaPO4-"         "FeCO3(aq)"      "FeH2PO4+"       "FeHPO4(aq)"     "FePO4-"         "KHPO4-"         "PO4---"         "Sr(CO3)(aq)"    "SrHCO3+"        "SrCl+"          "SrOH+"          "SrSO4(aq)"      "AlH3SiO4++"     "Si2O2(OH)5-"    "Si2O3(OH)4--"   "Si3O5(OH)5---"  "Si3O6(OH)3---"  "Si4O12H4----"   "Si4O6(OH)6--"   "Si4O7(OH)6----" "Si4O8(OH)4----" "Si6O15------"   "SiF6--"        
 ZONE I=         200 , J=           1 , K=           1  F=POINT
   8.75000000E+00   5.00000000E-01   5.00000000E-01  -7.83946271E+00  -1.76867744E+01  -3.96469293E+00  -1.29414936E+00  -2.04417029E+00  -4.43651582E+00  -2.18218701E+01  -6.93774298E+00  -5.10353517E+00  -4.61180999E+00  -5.85969340E+00  -5.24157737E+00  -6.41098785E+00  -8.84705562E+00  -8.91432237E+00  -2.62095191E-01  -4.16749347E+00  -1.95183864E+00  -2.49674244E+01  -3.35548754E-01  -1.83620346E+00  -7.74473463E+00  -3.39794256E+00  -5.87525243E+00  -4.40893793E+00  -3.37626701E+00  -8.67865643E+00  -1.41240596E+01  -1.48365870E+01  -1.22528464E+01  -1.58130346E+01  -9.15065813E+00  -8.53258673E+00  -1.03655571E+01  -1.42563918E+01  -2.33767832E+00  -4.44043627E+00  -3.28607914E+00  -4.11689603E+00  -8.41738841E+00  -3.01328838E+00  -5.74825659E+00  -7.83226749E+00  -7.20741812E+00  -5.32792401E+00  -6.71061039E+00  -6.81007985E+00  -1.13272112E+01  -7.72972363E+00  -1.33526775E+01  -1.50369282E+02  -2.57985695E+01  -7.09862856E+00  -1.32215844E+01  -1.34348253E+01  -8.62797901E+00  -3.20717783E+00  -9.69494839E+00  -3.68502903E+00  -6.47222791E+01  -1.38620834E+01  -8.13233004E+00  -1.91233479E+00  -4.61561949E+01  -6.64543010E+00  -7.50179237E+00  -5.00940947E+00  -9.43456642E+00  -8.03682489E+00  -7.87549468E+00  -8.17507751E+00  -9.56909117E+00  -8.45656278E+00  -7.23175011E+00  -6.36338557E+00  -1.21379535E+01  -6.20356857E+00  -1.70527852E+01  -7.35539372E+00  -1.03539588E+01  -1.52667294E+01  -1.52669697E+01  -2.07334168E+01  -1.24362145E+01  -2.06250463E+01  -2.06253121E+01  -3.01273682E+01  -3.32976078E+01
   2.62500000E+01   5.00000000E-01   5.00000000E-01  -7.60931714E+00  -1.64190211E+01  -3.75768939E+00  -1.29680813E+00  -2.03607843E+00  -4.10282159E+00  -2.11953096E+01  -7.06350820E+00  -5.10391263E+00  -4.61180794E+00  -5.85983806E+00  -4.94064663E+00  -6.15468531E+00  -8.84639567E+00  -8.91500090E+00  -2.62098592E-01  -4.16749087E+00  -1.95178685E+00  -2.59363326E+01  -3.35352860E-01  -1.83175065E+00  -7.74473684E+00  -3.39794013E+00  -5.89077848E+00  -4.40893551E+00  -3.19306262E+00  -8.67739880E+00  -1.38813509E+01  -1.39201338E+01  -1.17207941E+01  -1.47282271E+01  -9.26860547E+00  -8.65168040E+00  -1.06953069E+01  -1.45213257E+01  -2.34290747E+00  -4.65326178E+00  -3.27766098E+00  -4.12720479E+00  -8.56073209E+00  -3.00485724E+00  -5.40001482E+00  -7.50086234E+00  -7.04896319E+00  -4.99042943E+00  -6.87801596E+00  -6.81001269E+00  -1.14982263E+01  -7.71895307E+00  -1.35138972E+01  -1.49052664E+02  -2.65676042E+01  -6.89438894E+00  -1.27827476E+01  -1.27150693E+01  -8.37918457E+00  -3.20817755E+00  -9.85617477E+00  -3.68468920E+00  -6.41124898E+01  -1.33257720E+01  -8.30987130E+00  -1.91858513E+00  -4.58812823E+01  -6.64877479E+00  -7.71420134E+00  -4.89876065E+00  -8.89720537E+00  -7.72972719E+00  -7.79848000E+00  -8.17093038E+00  -9.79138145E+00  -8.65585814E+00  -7.22033150E+00  -6.36292128E+00  -1.22838412E+01  -6.19931580E+00  -1.57428562E+01  -7.19115623E+00  -1.03776917E+01  -1.52997643E+01  -1.53000124E+01  -2.07781333E+01  -1.21176636E+01  -2.06703322E+01  -2.06706097E+01  -3.01734855E+01  -3.22700925E+01
   4.37500000E+01   5.00000000E-01   5.00000000E-01  -7.48399984E+00  -1.58957461E+01  -3.65373765E+00  -1.29931752E+00  -2.02816582E+00  -3.91532676E+00  -2.08825523E+01  -7.11520352E+00  -5.10435357E+00  -4.61179320E+00  -5.85997217E+00  -4.76446935E+00  -5.99457089E+00  -8.84572180E+00  -8.91566574E+00  -2.62088321E-01  -4.16747335E+00  -1.95174276E+00  -2.56021781E+01  -3.35158227E-01  -1.82762947E+00  -7.74472413E+00  -3.39792278E+00  -5.90450810E+00  -4.40891816E+00  -3.07056010E+00  -8.67630160E+00  -1.37432510E+01  -1.35395024E+01  -1.15161025E+01  -1.42833940E+01  -9.31117101E+00  -8.69636856E+00  -1.08455590E+01  -1.46085424E+01  -2.34717446E+00  -4.76101758E+00  -3.26897459E+00  -4.13664698E+00  -8.60034358E+00  -2.99641081E+00  -5.19764603E+00  -7.31478829E+00  -6.93243665E+00  -4.79892652E+00  -6.94170358E+00  -6.80958211E+00  -1.15651891E+01  -7.70812367E+00  -1.35713133E+01  -1.47953879E+02  -2.61375293E+01  -6.79266539E+00  -1.25509875E+01  -1.24266597E+01  -8.23515400E+00  -3.20879610E+00  -9.91342935E+00  -3.68421448E+00  -6.36106326E+01  -1.31164625E+01  -8.38298463E+00  -1.92455502E+00  -4.56089409E+01  -6.64995615E+00  -7.81976587E+00  -4.82854044E+00  -8.60861886E+00  -7.56658947E+00  -7.76055495E+00  -8.16459278E+00  -9.90774698E+00  -8.74983909E+00  -7.20762927E+00  -6.36209979E+00  -1.23259886E+01  -6.19509483E+00  -1.51350562E+01  -7.04415831E+00  -1.03146023E+01  -1.52025308E+01  -1.52027847E+01  -2.06492082E+01  -1.18334523E+01  -2.05419727E+01  -2.05422595E+01  -2.99589164E+01  -3.17204085E+01
   6.12500000E+01   5.00000000E-01   5.00000000E-01  -7.39611233E+00  -1.56085378E+01  -3.58570601E+00  -1.30172863E+00  -2.02042639E+00  -3.78471842E+00  -2.06814162E+01  -7.12407908E+00  -5.10482635E+00  -4.61176633E+00  -5.86009646E+00  -4.63939646E+00  -5.87782437E+00  -8.84503465E+00  -8.91631752E+00  -2.62065000E-01  -4.16744156E+00  -1.95170624E+00  -2.53078737E+01  -3.34968696E-01  -1.82381949E+00  -7.74469715E+00  -3.39789117E+00  -5.91676043E+00  -4.40888654E+00  -2.98821824E+00  -8.67538881E+00  -1.36423735E+01  -1.33210607E+01  -1.13999071E+01  -1.40375184E+01  -9.30986371E+00  -8.69791412E+00  -1.09151971E+01  -1.46166657E+01  -2.35072157E+00  -4.83132359E+00  -3.26003002E+00  -4.14525031E+00  -8.60359751E+00  -2.98794298E+00  -5.05185260E+00  -7.18476386E+00  -6.83591435E+00  -4.66410342E+00  -6.96904174E+00  -6.80880227E+00  -1.15954822E+01  -7.69723959E+00  -1.35923001E+01  -1.46937994E+02  -2.57838846E+01  -6.72639399E+00  -1.23918544E+01  -1.22633531E+01  -8.12848547E+00  -3.20904820E+00  -9.93409314E+00  -3.68360048E+00  -6.31492701E+01  -1.29953104E+01  -8.41907079E+00  -1.93024820E+00  -4.53391320E+01  -6.64930729E+00  -7.88622136E+00  -4.77708073E+00  -8.41242470E+00  -7.45842359E+00  -7.74013462E+00  -8.15640839E+00  -9.98589053E+00  -8.80610770E+00  -7.19387283E+00  -6.36090442E+00  -1.23317419E+01  -6.19087045E+00  -1.47677826E+01  -6.94070815E+00  -1.02583879E+01  -1.51155819E+01  -1.51158400E+01  -2.05340346E+01  -1.16362032E+01  -2.04273608E+01  -2.04276547E+01  -2.97648059E+01  -3.13585062E+01
   7.87500000E+01   5.00000000E-01   5.00000000E-01  -7.32419148E+00  -1.54056675E+01  -3.53256103E+00  -1.30406877E+00  -2.01285351E+00  -3.68439702E+00  -2.05275212E+01  -7.11193996E+00  -5.10532169E+00  -4.61172783E+00  -5.86021159E+00  -4.54233094E+00  -5.78587983E+00  -8.84433481E+00  -8.91695683E+00  -2.62029205E-01  -4.16739610E+00  -1.95167696E+00  -2.50319070E+01  -3.34785159E-01  -1.82030140E+00  -7.74465650E+00  -3.39784588E+00  -5.92834405E+00  -4.40884125E+00  -2.93264537E+00  -8.67464808E+00  -1.35572692E+01  -1.31559915E+01  -1.13062893E+01  -1.38603316E+01  -9.28691161E+00  -8.67813779E+00  -1.09478920E+01  -1.45889422E+01  -2.35395294E+00  -4.88602429E+00  -3.25083876E+00  -4.15304623E+00  -8.59193500E+00  -2.97945509E+00  -4.93605221E+00  -7.08422528E+00  -6.75425232E+00  -4.55936959E+00  -6.98146417E+00  -6.80768931E+00  -1.16105552E+01  -7.68630834E+00  -1.35983004E+01  -1.45961959E+02  -2.54637213E+01  -6.67493835E+00  -1.22632628E+01  -1.21377889E+01  -8.03771600E+00  -3.20895115E+00  -9.93961476E+00  -3.68284725E+00  -6.27069062E+01  -1.28964162E+01  -8.43959435E+00  -1.93566983E+00  -4.50718201E+01  -6.64765716E+00  -7.93586130E+00  -4.73965754E+00  -8.26138409E+00  -7.37945199E+00  -7.73290702E+00  -8.14721310E+00  -1.00480639E+01  -8.84652023E+00  -7.17947795E+00  -6.35934361E+00  -1.23225377E+01  -6.18663865E+00  -1.44973305E+01  -6.87547395E+00  -1.02251677E+01  -1.50631001E+01  -1.50633610E+01  -2.04648512E+01  -1.15152568E+01  -2.03587351E+01  -2.03590343E+01  -2.96395371E+01  -3.10852214E+01
   9.62500000E+01   5.00000000E-01   5.00000000E-01  -7.26217541E+00  -1.52529559E+01  -3.48837631E+00  -1.30635273E+00  -2.00544057E+00  -3.60309380E+00  -2.04026893E+01  -7.09037518E+00  -5.10583675E+00  -4.61167818E+00  -5.86031813E+00  -4.46298136E+00  -5.71001392E+00  -8.84362285E+00  -8.91758422E+00  -2.61981465E-01  -4.16733753E+00  -1.95165449E+00  -2.47681677E+01  -3.34606166E-01  -1.81705716E+00  -7.74460274E+00  -3.39778748E+00  -5.93949461E+00  -4.40878285E+00  -2.89425834E+00  -8.67406366E+00  -1.34818906E+01  -1.30222267E+01  -1.12252776E+01  -1.37237138E+01  -9.25403304E+00  -8.64864499E+00  -1.09614051E+01  -1.45430031E+01  -2.35697865E+00  -4.93126846E+00  -3.24141267E+00  -4.16006709E+00  -8.57139716E+00  -2.97095200E+00  -4.83899375E+00  -7.00194051E+00  -6.68223715E+00  -4.47346875E+00  -6.98500415E+00  -6.80625977E+00  -1.16164577E+01  -7.67533859E+00  -1.35953576E+01  -1.45013534E+02  -2.51648939E+01  -6.63249113E+00  -1.21533576E+01  -1.20339549E+01  -7.95678565E+00  -3.20852289E+00  -9.93604306E+00  -3.68195704E+00  -6.22774491E+01  -1.28098254E+01  -8.45061707E+00  -1.94082483E+00  -4.48069713E+01  -6.64526406E+00  -7.97500615E+00  -4.71118388E+00  -8.13841924E+00  -7.31865803E+00  -7.73391874E+00  -8.13727030E+00  -1.01005427E+01  -8.87724618E+00  -7.16457310E+00  -6.35743290E+00  -1.23044191E+01  -6.18240571E+00  -1.42859530E+01  -6.83533814E+00  -1.02078735E+01  -1.50344843E+01  -1.50347469E+01  -2.04275215E+01  -1.14443809E+01  -2.03219588E+01  -2.03222616E+01  -2.95619162E+01  -3.08667991E+01
   1.13750000E+02   5.00000000E-01   5.00000000E-01  -7.20728179E+00  -1.51381872E+01  -3.45044050E+00  -1.30859588E+00  -1.99818129E+00  -3.53488256E+00  -2.02985809E+01  -7.06487118E+00  -5.10636999E+00  -4.61161779E+00  -5.86041661E+00  -4.39585677E+00  -5.64542302E+00  -8.84289927E+00  -8.91820019E+00  -2.61922271E-01  -4.16726635E+00  -1.95163842E+00  -2.45138263E+01  -3.34429178E-01  -1.81407038E+00  -7.74453638E+00  -3.39771647E+00  -5.95031483E+00  -4.40871184E+00  -2.86635029E+00  -8.67362054E+00  -1.34134691E+01  -1.29131026E+01  -1.11557471E+01  -1.36182289E+01  -9.21677936E+00  -8.61493799E+00  -1.09640522E+01  -1.44870980E+01  -2.35984509E+00  -4.96986237E+00  -3.23176332E+00  -4.16634430E+00  -8.54474629E+00  -2.96243967E+00  -4.75476800E+00  -6.93201880E+00  -6.61671864E+00  -4.40048788E+00  -6.98241640E+00  -6.80452956E+00  -1.16159600E+01  -7.66433874E+00  -1.35862360E+01  -1.44087040E+02  -2.48818163E+01  -6.59639105E+00  -1.20567089E+01  -1.19479647E+01  -7.88291505E+00  -3.20778078E+00  -9.92614777E+00  -3.68093315E+00  -6.18580868E+01  -1.27344284E+01  -8.45491989E+00  -1.94571794E+00  -4.45445528E+01  -6.64225281E+00  -8.00656306E+00  -4.68857176E+00  -8.03494120E+00  -7.27023459E+00  -7.74014614E+00  -8.12670928E+00  -1.01461909E+01  -8.90111321E+00  -7.14922360E+00  -6.35518857E+00  -1.22801517E+01  -6.17818007E+00  -1.41174644E+01  -6.80965623E+00  -1.01986301E+01  -1.50179235E+01  -1.50181868E+01  -2.04062960E+01  -1.14022893E+01  -2.03012823E+01  -2.03015874E+01  -2.95083277E+01  -3.06854753E+01
   1.31250000E+02   5.00000000E-01   5.00000000E-01  -7.15740591E+00  -1.50511430E+01  -3.41673510E+00  -1.31081387E+00  -1.99106980E+00  -3.47622011E+00  -2.02088891E+01  -7.03793084E+00  -5.10692003E+00  -4.61154708E+00  -5.86050751E+00  -4.33767904E+00  -5.58917806E+00  -8.84216454E+00  -8.91880522E+00  -2.61852082E-01  -4.16718304E+00  -1.95162838E+00  -2.42667326E+01  -3.34251736E-01  -1.81132596E+00  -7.74445789E+00  -3.39763334E+00  -5.96093773E+00  -4.40862871E+00  -2.84452357E+00  -8.67330351E+00  -1.33499130E+01  -1.28225983E+01  -1.10958610E+01  -1.35357607E+01  -9.17773363E+00  -8.57953468E+00  -1.09605037E+01  -1.44258156E+01  -2.36261488E+00  -5.00395186E+00  -3.22190184E+00  -4.17190795E+00  -8.51406779E+00  -2.95392422E+00  -4.67984788E+00  -6.87095070E+00  -6.55625205E+00  -4.33689671E+00  -6.97577908E+00  -6.80251381E+00  -1.16111551E+01  -7.65331663E+00  -1.35730230E+01  -1.43178158E+02  -2.46102584E+01  -6.56468390E+00  -1.19692707E+01  -1.18758966E+01  -7.81400275E+00  -3.20674134E+00  -9.91202128E+00  -3.67977927E+00  -6.14466851E+01  -1.26684030E+01  -8.45460596E+00  -1.95035418E+00  -4.42845320E+01  -6.63877748E+00  -8.03279081E+00  -4.67045418E+00  -7.94545111E+00  -7.23078706E+00  -7.75030045E+00  -8.11568824E+00  -1.01872258E+01  -8.92028735E+00  -7.13351016E+00  -6.35262616E+00  -1.22518238E+01  -6.17397013E+00  -1.39793099E+01  -6.79172481E+00  -1.01928267E+01  -1.50065022E+01  -1.50067655E+01  -2.03919531E+01  -1.13755780E+01  -2.02874838E+01  -2.02877900E+01  -2.94649472E+01  -3.05285025E+01
   1.48750000E+02   5.00000000E-01   5.00000000E-01  -7.11098808E+00  -1.49834709E+01  -3.38578937E+00  -1.31301965E+00  -1.98410062E+00  -3.42482668E+00  -2.01289423E+01  -7.01069241E+00  -5.10748558E+00  -4.61146642E+00  -5.86059128E+00  -4.28633345E+00  -5.53936051E+00  -8.84141910E+00  -8.91939973E+00  -2.61771327E-01  -4.16708804E+00  -1.95162401E+00  -2.40252825E+01  -3.34071964E-01  -1.80880969E+00  -7.74436772E+00  -3.39753852E+00  -5.97150241E+00  -4.40853389E+00  -2.82605791E+00  -8.67309670E+00  -1.32896749E+01  -1.27454684E+01  -1.10434690E+01  -1.34695139E+01  -9.13811714E+00  -8.54358767E+00  -1.09535236E+01  -1.43618355E+01  -2.36535424E+00  -5.03514211E+00  -3.21183898E+00  -4.17678699E+00  -8.48090263E+00  -2.94541181E+00  -4.61196899E+00  -6.81648871E+00  -6.50011106E+00  -4.28042798E+00  -6.96662622E+00  -6.80022693E+00  -1.16035910E+01  -7.64227965E+00  -1.35572610E+01  -1.42283662E+02  -2.43470804E+01  -6.53596594E+00  -1.18880920E+01  -1.18140599E+01  -7.74849250E+00  -3.20542038E+00  -9.89521122E+00  -3.67849918E+00  -6.10416550E+01  -1.26096132E+01  -8.45123364E+00  -1.95473919E+00  -4.40268770E+01  -6.63499734E+00  -8.05540816E+00  -4.65618553E+00  -7.86626413E+00  -7.19818980E+00  -7.76381674E+00  -8.10437023E+00  -1.02253263E+01  -8.93639298E+00  -7.11751627E+00  -6.34976060E+00  -1.22209791E+01  -6.16978407E+00  -1.38619339E+01  -6.77765044E+00  -1.01881172E+01  -1.49967026E+01  -1.49969652E+01  -2.03798010E+01  -1.13564625E+01  -2.02758715E+01  -2.02761779E+01  -2.94247449E+01  -3.03869874E+01
   1.66250000E+02   5.00000000E-01   5.00000000E-01  -7.06696162E+00  -1.49290865E+01  -3.35661585E+00  -1.31522265E+00  -1.97726858E+00  -3.37915719E+00  -2.00555476E+01  -6.98367695E+00  -5.10806549E+00  -4.61137615E+00  -5.86066834E+00  -4.24037594E+00  -5.49464517E+00  -8.84066334E+00  -8.91998414E+00  -2.61680405E-01  -4.16698176E+00  -1.95162499E+00  -2.37883665E+01  -3.33888608E-01  -1.80650816E+00  -7.74426626E+00  -3.39743241E+00  -5.98212830E+00  -4.40842778E+00  -2.80935328E+00  -8.67298358E+00  -1.32317000E+01  -1.26777502E+01  -1.09967182E+01  -1.34144682E+01  -9.09852433E+00  -8.50763175E+00  -1.09447569E+01  -1.42967277E+01  -2.36812054E+00  -5.06453727E+00  -3.20158515E+00  -4.18100931E+00  -8.44629945E+00  -2.93690857E+00  -4.54960094E+00  -6.76711864E+00  -6.44781121E+00  -4.22954875E+00  -6.95599979E+00  -6.79768271E+00  -1.15943231E+01  -7.63123483E+00  -1.35400003E+01  -1.41401314E+02  -2.40901288E+01  -6.50930605E+00  -1.18111867E+01  -1.17595539E+01  -7.68532103E+00  -3.20383309E+00  -9.87677254E+00  -3.67709674E+00  -6.06419008E+01  -1.25562204E+01  -8.44586877E+00  -1.95887910E+00  -4.37715565E+01  -6.63105125E+00  -8.07562038E+00  -4.64535266E+00  -7.79490279E+00  -7.17103173E+00  -7.78035161E+00  -8.09289744E+00  -1.02616597E+01  -8.95055266E+00  -7.10131589E+00  -6.34660625E+00  -1.21886689E+01  -6.16562991E+00  -1.37586777E+01  -6.76528733E+00  -1.01834104E+01  -1.49868888E+01  -1.49871506E+01  -2.03676580E+01  -1.13406537E+01  -2.02642634E+01  -2.02645693E+01  -2.93844544E+01  -3.02551260E+01
   1.83750000E+02   5.00000000E-01   5.00000000E-01  -7.02462629E+00  -1.48837801E+01  -3.32858155E+00  -1.31742933E+00  -1.97056881E+00  -3.33811946E+00  -1.99866112E+01  -6.95712297E+00  -5.10865874E+00  -4.61127659E+00  -5.86073909E+00  -4.19877643E+00  -5.45407821E+00  -8.83989765E+00  -8.92055881E+00  -2.61579689E-01  -4.16686457E+00  -1.95163100E+00  -2.35552425E+01  -3.33700893E-01  -1.80440867E+00  -7.74415389E+00  -3.39731540E+00  -5.99290953E+00  -4.40831078E+00  -2.79351287E+00  -8.67294713E+00  -1.31752992E+01  -1.26166230E+01  -1.09541656E+01  -1.33671117E+01  -9.05925517E+00  -8.47191854E+00  -1.09351882E+01  -1.42314134E+01  -2.37095990E+00  -5.09286450E+00  -3.19115039E+00  -4.18460175E+00  -8.41094099E+00  -2.92842058E+00  -4.49166555E+00  -6.72177790E+00  -6.39895455E+00  -4.18317858E+00  -6.94457617E+00  -6.79489430E+00  -1.15840408E+01  -7.62018881E+00  -1.35219248E+01  -1.40529610E+02  -2.38379837E+01  -6.48411369E+00  -1.17372754E+01  -1.17102531E+01  -7.62379160E+00  -3.20199398E+00  -9.85739403E+00  -3.67557585E+00  -6.02466933E+01  -1.25067953E+01  -8.43921098E+00  -1.96278049E+00  -4.35185398E+01  -6.62705196E+00  -8.09424002E+00  -4.63761712E+00  -7.72968322E+00  -7.14832895E+00  -7.79962221E+00  -8.08138567E+00  -1.02970019E+01  -8.96351117E+00  -7.08497110E+00  -6.34317695E+00  -1.21555782E+01  -6.16151549E+00  -1.36650952E+01  -6.75352985E+00  -1.01782893E+01  -1.49764360E+01  -1.49766967E+01  -2.03546901E+01  -1.13259428E+01  -2.02518254E+01  -2.02521303E+01  -2.93428298E+01  -3.01292804E+01
   2.01250000E+02   5.00000000E-01   5.00000000E-01  -6.98353048E+00  -1.48446969E+01  -3.30129162E+00  -1.31964402E+00  -1.96399670E+00  -3.30091393E+00  -1.99207855E+01  -6.93113694E+00  -5.10926439E+00  -4.61116804E+00  -5.86080387E+00  -4.16077430E+00  -5.41695023E+00  -8.83912238E+00  -8.92112410E+00  -2.61469531E-01  -4.16673682E+00  -1.95164177E+00  -2.33254185E+01  -3.33508373E-01  -1.80249931E+00  -7.74403098E+00  -3.39718784E+00  -6.00391770E+00  -4.40818321E+00  -2.77806024E+00  -8.67297001E+00  -1.31200317E+01  -1.25601236E+01  -1.09147292E+01  -1.33250385E+01  -9.02046719E+00  -8.43656703E+00  -1.09254114E+01  -1.41664336E+01  -2.37390883E+00  -5.12059349E+00  -3.18054433E+00  -4.18759007E+00  -8.37526196E+00  -2.91995381E+00  -4.43737662E+00  -6.67969522E+00  -6.35318723E+00  -4.14052925E+00  -6.93278400E+00  -6.79187425E+00  -1.15731848E+01  -7.60914787E+00  -1.35034707E+01  -1.39667546E+02  -2.35897227E+01  -6.46002375E+00  -1.16655518E+01  -1.16646416E+01  -7.56345610E+00  -3.19991696E+00  -9.83751614E+00  -3.67394049E+00  -5.98555523E+01  -1.24602699E+01  -8.43171139E+00  -1.96645020E+00  -4.32677967E+01  -6.62308889E+00  -8.11180763E+00  -4.63267442E+00  -7.66943964E+00  -7.12936710E+00  -7.82136665E+00  -8.06992707E+00  -1.03318582E+01  -8.97575495E+00  -7.06853363E+00  -6.33948599E+00  -1.21221442E+01  -6.15744845E+00  -1.35782678E+01  -6.74186474E+00  -1.01726805E+01  -1.49652349E+01  -1.49654945E+01  -2.03407510E+01  -1.13113053E+01  -2.02384112E+01  -2.02387149E+01  -2.92996567E+01  -3.00072248E+01
   2.18750000E+02   5.00000000E-01   5.00000000E-01  -6.94338482E+00  -1.48099159E+01  -3.27450549E+00  -1.32186962E+00  -1.95754788E+00  -3.26693773E+00  -1.98572094E+01  -6.90576212E+00  -5.10988158E+00  -4.61105079E+00  -5.86086301E+00  -4.12579192E+00  -5.38271927E+00  -8.83833784E+00  -8.92168034E+00  -2.61350257E-01  -4.16659885E+00  -1.95165702E+00  -2.30985659E+01  -3.33310800E-01  -1.80076889E+00  -7.74389783E+00  -3.39705005E+00  -6.01520650E+00  -4.40804542E+00  -2.76275999E+00  -8.67303477E+00  -1.30656180E+01  -1.25068987E+01  -1.08776131E+01  -1.32866144E+01  -8.98224685E+00  -8.40163241E+00  -1.09157876E+01  -1.41021043E+01  -2.37699659E+00  -5.14802512E+00  -3.16977623E+00  -4.18999899E+00  -8.33953524E+00  -2.91151413E+00  -4.38614400E+00  -6.64029471E+00  -6.31018991E+00  -4.10100886E+00  -6.92089046E+00  -6.78863451E+00  -1.15620340E+01  -7.59811789E+00  -1.34849118E+01  -1.38814446E+02  -2.33447483E+01  -6.43681487E+00  -1.15955156E+01  -1.16216509E+01  -7.50402875E+00  -3.19761530E+00  -9.81741729E+00  -3.67219468E+00  -5.94681601E+01  -1.24158613E+01  -8.42365887E+00  -1.96989520E+00  -4.30192974E+01  -6.61923271E+00  -8.12868264E+00  -4.63024677E+00  -7.61334681E+00  -7.11361013E+00  -7.84533897E+00  -8.05859482E+00  -1.03665545E+01  -8.98760079E+00  -7.05204731E+00  -6.33554608E+00  -1.20886419E+01  -6.15343616E+00  -1.34962912E+01  -6.73009871E+00  -1.01666687E+01  -1.49534132E+01  -1.49536718E+01  -2.03260105E+01  -1.12963569E+01  -2.02241905E+01  -2.02244928E+01  -2.92551938E+01  -2.98876206E+01
   2.36250000E+02   5.00000000E-01   5.00000000E-01  -6.90400430E+00  -1.47781505E+01  -3.24808100E+00  -1.32410815E+00  -1.95121822E+00  -3.23572486E+00  -1.97953346E+01  -6.88101095E+00  -5.11050949E+00  -4.61092509E+00  -5.86091684E+00  -4.09338025E+00  -5.35096196E+00  -8.83754434E+00  -8.92222782E+00  -2.61222177E-01  -4.16645096E+00  -1.95167651E+00  -2.28744615E+01  -3.33108049E-01  -1.79920695E+00  -7.74375477E+00  -3.39690234E+00  -6.02681589E+00  -4.40789771E+00  -2.74750936E+00  -8.67312404E+00  -1.30118828E+01  -1.24560205E+01  -1.08422389E+01  -1.32507353E+01  -8.94464383E+00  -8.36713845E+00  -1.09065375E+01  -1.40386066E+01  -2.38024728E+00  -5.17535147E+00  -3.15885494E+00  -4.19185215E+00  -8.30392988E+00  -2.90310728E+00  -4.33751377E+00  -6.60313615E+00  -6.26967585E+00  -4.06416195E+00  -6.90905918E+00  -6.78518643E+00  -1.15507629E+01  -7.58710439E+00  -1.34664183E+01  -1.37969845E+02  -2.31026722E+01  -6.41435569E+00  -1.15268599E+01  -1.15805338E+01  -7.44532813E+00  -3.19510168E+00  -9.79727178E+00  -3.67034248E+00  -5.90843034E+01  -1.23730037E+01  -8.41523784E+00  -1.97312253E+00  -4.27730128E+01  -6.61553952E+00  -8.14510551E+00  -4.63008328E+00  -7.56080639E+00  -7.10064459E+00  -7.87131148E+00  -8.04744732E+00  -1.04012994E+01  -8.99925574E+00  -7.03555005E+00  -6.33136934E+00  -1.20552423E+01  -6.14948569E+00  -1.34179245E+01  -6.71819975E+00  -1.01603958E+01  -1.49411842E+01  -1.49414421E+01  -2.03107527E+01  -1.12810355E+01  -2.02094473E+01  -2.02097481E+01  -2.92098707E+01  -2.97696772E+01
   2.53750000E+02   5.00000000E-01   5.00000000E-01  -6.86527070E+00  -1.47485434E+01  -3.22193843E+00  -1.32636105E+00  -1.94500379E+00  -3.20690745E+00  -1.97348136E+01  -6.85688051E+00  -5.11114732E+00  -4.61079119E+00  -5.86096562E+00  -4.06318333E+00  -5.32134127E+00  -8.83674217E+00  -8.92276685E+00  -2.61085581E-01  -4.16629342E+00  -1.95170000E+00  -2.26529501E+01  -3.32900061E-01  -1.79780371E+00  -7.74360207E+00  -3.39674499E+00  -6.03877535E+00  -4.40774036E+00  -2.73227512E+00  -8.67322065E+00  -1.29587169E+01  -1.24068574E+01  -1.08081913E+01  -1.32166595E+01  -8.90768826E+00  -8.33309301E+00  -1.08977956E+01  -1.39760400E+01  -2.38368134E+00  -5.20269486E+00  -3.14778891E+00  -4.19317217E+00  -8.26854852E+00  -2.89473879E+00  -4.29112953E+00  -6.56787618E+00  -6.23138968E+00  -4.02963080E+00  -6.89738775E+00  -6.78154080E+00  -1.15394797E+01  -7.57611248E+00  -1.34480937E+01  -1.37133410E+02  -2.28632399E+01  -6.39257059E+00  -1.14594002E+01  -1.15407727E+01  -7.38723967E+00  -3.19238814E+00  -9.77718733E+00  -3.66838797E+00  -5.87038358E+01  -1.23312940E+01  -8.40656577E+00  -1.97613921E+00  -4.25289142E+01  -6.61205408E+00  -8.16123851E+00  -4.63196028E+00  -7.51137392E+00  -7.09014413E+00  -7.89907673E+00  -8.03653148E+00  -1.04362247E+01  -9.01085622E+00  -7.01907545E+00  -6.32696731E+00  -1.20220500E+01  -6.14560378E+00  -1.33423600E+01  -6.70620824E+00  -1.01540094E+01  -1.49287699E+01  -1.49290275E+01  -2.02952732E+01  -1.12654239E+01  -2.01944770E+01  -2.01947766E+01  -2.91641343E+01  -2.96529379E+01
   2.71250000E+02   5.00000000E-01   5.00000000E-01  -6.82710866E+00  -1.47205291E+01  -3.19603769E+00  -1.32862941E+00  -1.93890085E+00  -3.18018980E+00  -1.96754272E+01  -6.83336026E+00  -5.11179428E+00  -4.61064932E+00  -5.86100964E+00  -4.03491421E+00  -5.29358451E+00  -8.83593157E+00  -8.92329767E+00  -2.60940742E-01  -4.16612651E+00  -1.95172726E+00  -2.24339205E+01  -3.32686814E-01  -1.79655007E+00  -7.74343999E+00  -3.39657827E+00  -6.05110624E+00  -4.40757364E+00  -2.71705775E+00  -8.67330779E+00  -1.29060536E+01  -1.23589838E+01  -1.07751763E+01  -1.31838944E+01  -8.87139939E+00  -8.29949576E+00  -1.08896432E+01  -1.39144534E+01  -2.38731671E+00  -5.23013289E+00  -3.13658619E+00  -4.19398067E+00  -8.23345139E+00  -2.88641401E+00  -4.24670647E+00  -6.53424245E+00  -6.19510539E+00  -3.99712941E+00  -6.88593166E+00  -6.77770787E+00  -1.15282496E+01  -7.56514696E+00  -1.34299992E+01  -1.36304900E+02  -2.26262830E+01  -6.37141808E+00  -1.13930283E+01  -1.15020133E+01  -7.32969167E+00  -3.18948617E+00  -9.75722898E+00  -3.66633523E+00  -5.83266539E+01  -1.22904497E+01  -8.39771711E+00  -1.97895217E+00  -4.22869733E+01  -6.60881220E+00  -8.17719206E+00  -4.63568044E+00  -7.46471130E+00  -7.08184590E+00  -7.92844789E+00  -8.02588507E+00  -1.04714119E+01  -9.02249304E+00  -7.00265391E+00  -6.32235093E+00  -1.19891267E+01  -6.14179686E+00  -1.32690741E+01  -6.69418951E+00  -1.01476395E+01  -1.49163658E+01  -1.49166236E+01  -2.02798323E+01  -1.12496545E+01  -2.01795400E+01  -2.01798386E+01  -2.91183782E+01  -2.95371490E+01
   2.88750000E+02   5.00000000E-01   5.00000000E-01  -6.78947039E+00  -1.46937414E+01  -3.17036375E+00  -1.33091412E+00  -1.93290585E+00  -3.15533052E+00  -1.96170387E+01  -6.81043590E+00  -5.11244963E+00  -4.61049969E+00  -5.86104914E+00  -4.00833816E+00  -5.26746796E+00  -8.83511281E+00  -8.92382055E+00  -2.60787918E-01  -4.16595048E+00  -1.95175810E+00  -2.22172900E+01  -3.32468301E-01  -1.79543750E+00  -7.74326879E+00  -3.39640242E+00  -6.06382345E+00  -4.40739779E+00  -2.70187198E+00  -8.67336915E+00  -1.28538531E+01  -1.23121183E+01  -1.07429892E+01  -1.31521188E+01  -8.83579029E+00  -8.26634210E+00  -1.08821282E+01  -1.38538652E+01  -2.39116948E+00  -5.25771443E+00  -3.12525447E+00  -4.19429829E+00  -8.19867152E+00  -2.87813808E+00  -4.20401353E+00  -6.50201582E+00  -6.16062380E+00  -3.96642568E+00  -6.87471952E+00  -6.77369736E+00  -1.15171107E+01  -7.55421223E+00  -1.34121685E+01  -1.35484129E+02  -2.23916887E+01  -6.35087724E+00  -1.13276836E+01  -1.14640179E+01  -7.27263994E+00  -3.18640669E+00  -9.73743441E+00  -3.66418833E+00  -5.79526821E+01  -1.22502769E+01  -8.38873858E+00  -1.98156829E+00  -4.20471622E+01  -6.60584243E+00  -8.19304172E+00  -4.64107095E+00  -7.42055532E+00  -7.07553440E+00  -7.95925793E+00  -8.01553850E+00  -1.05069090E+01  -9.03422741E+00  -6.98631332E+00  -6.31753061E+00  -1.19565072E+01  -6.13807095E+00  -1.31977295E+01  -6.68220995E+00  -1.01413898E+01  -1.49041280E+01  -1.49043865E+01  -2.02646376E+01  -1.12338622E+01  -2.01648439E+01  -2.01651419E+01  -2.90729170E+01  -2.94221793E+01
   3.06250000E+02   5.00000000E-01   5.00000000E-01  -6.75232583E+00  -1.46679498E+01  -3.14491736E+00  -1.33321590E+00  -1.92701541E+00  -3.13212994E+00  -1.95595651E+01  -6.78809138E+00  -5.11311259E+00  -4.61034251E+00  -5.86108434E+00  -3.98326079E+00  -5.24280579E+00  -8.83428610E+00  -8.92433571E+00  -2.60627354E-01  -4.16576555E+00  -1.95179232E+00  -2.20029947E+01  -3.32244526E-01  -1.79445805E+00  -7.74308870E+00  -3.39621768E+00  -6.07693665E+00  -4.40721305E+00  -2.68673648E+00  -8.67338904E+00  -1.28020929E+01  -1.22660800E+01  -1.07114912E+01  -1.31211297E+01  -8.80087037E+00  -8.23362514E+00  -1.08752777E+01  -1.37942742E+01  -2.39525444E+00  -5.28546988E+00  -3.11380107E+00  -4.19414471E+00  -8.16422457E+00  -2.86991589E+00  -4.16286080E+00  -6.47101774E+00  -6.12776972E+00  -3.93732879E+00  -6.86376288E+00  -6.76951848E+00  -1.15060835E+01  -7.54331240E+00  -1.33946180E+01  -1.34670948E+02  -2.21593798E+01  -6.33093911E+00  -1.12633350E+01  -1.14266315E+01  -7.21605806E+00  -3.18316009E+00  -9.71782371E+00  -3.66195128E+00  -5.75818627E+01  -1.22106471E+01  -8.37965896E+00  -1.98399429E+00  -4.18094536E+01  -6.60316731E+00  -8.20883923E+00  -4.64798119E+00  -7.37869646E+00  -7.07103009E+00  -7.99135798E+00  -8.00551602E+00  -1.05427417E+01  -9.04610126E+00  -6.97007963E+00  -6.31251619E+00  -1.19242085E+01  -6.13443174E+00  -1.31281123E+01  -6.67032638E+00  -1.01353369E+01  -1.48921717E+01  -1.48924317E+01  -2.02498426E+01  -1.12181622E+01  -2.01505420E+01  -2.01508401E+01  -2.90279837E+01  -2.93079701E+01