 TITLE = "Total Concentrations" 
VARIABLES = "X"          "Y"              "Z"            "H+"             "Al+++"          "CO2(aq)"        "Mg++"           "Ca++"           "Fe++"           "Fe+++"          "Ba++"           "Sr++"           "Cl-"            "F-"             "K+"             "HS-"            "Na+"            "SO4--"          "O2(aq)"         "B(OH)3(aq)"     "HPO4--"         "NO3-"           "H4SiO4(aq)"     "HNO3(aq)"       "Al(OH)2+"       "AlO2-"          "AlOH++"         "BaHCO3+"        "BaCl+"          "BaCO3(aq)"      "BaOH+"          "HCO3-"          "CO3--"          "CaCl+"          "CaCl2(aq)"      "CaOH+"          "CaSO4(aq)"      "FeCl+"          "FeCl2(aq)"      "FeOH+"          "FeSO4(aq)"      "OH-"            "S2O3--"         "H2S(aq)"        "H2PO4-"         "H3PO4(aq)"      "HAlO2(aq)"      "HSO4-"          "KCl(aq)"        "KOH(aq)"        "KSO4-"          "NH3(aq)"        "NaAlO2(aq)"     "NaOH(aq)"       "NaSO4-"         "H2(aq)"         "CaHPO4(aq)"     "CaPO4-"         "FeCO3(aq)"      "FeH2PO4+"       "FeHPO4(aq)"     "FePO4-"         "KHPO4-"         "PO4---"         "Sr(CO3)(aq)"    "SrHCO3+"        "SrCl+"          "SrOH+"          "SrSO4(aq)"      "AlH3SiO4++"     "Si2O2(OH)5-"    "Si2O3(OH)4--"   "Si3O5(OH)5---"  "Si3O6(OH)3---"  "Si4O12H4----"   "Si4O6(OH)6--"   "Si4O7(OH)6----" "Si4O8(OH)4----" "Si6O15------"   "SiF6--"        
 ZONE I=         200 , J=           1 , K=           1  F=POINT
   8.75000000E+00   5.00000000E-01   5.00000000E-01  -7.86695667E+00  -1.78206648E+01  -3.99184100E+00  -1.29407082E+00  -2.04411409E+00  -4.44169526E+00  -2.19456071E+01  -6.71262931E+00  -5.10354811E+00  -2.62115675E-01  -4.16749363E+00  -1.95198447E+00  -1.00521817E+01  -3.35544613E-01  -1.83620550E+00  -7.74473465E+00  -3.39794256E+00  -5.87468739E+00  -4.40893793E+00  -3.37195303E+00  -1.41515519E+01  -1.49154874E+01  -1.22767587E+01  -1.59194305E+01  -8.92519781E+00  -8.30749112E+00  -1.01126011E+01  -1.40037823E+01  -2.33733379E+00  -4.41259977E+00  -3.28604151E+00  -4.11687672E+00  -8.38983684E+00  -3.01322859E+00  -5.75345459E+00  -7.83748381E+00  -7.18510218E+00  -5.33309985E+00  -6.68311679E+00  -1.50424268E+02  -1.09108192E+01  -7.12555510E+00  -1.32760036E+01  -1.34862300E+01  -8.65547279E+00  -3.20734170E+00  -9.66759833E+00  -3.68517389E+00  -6.47497690E+01  -1.38859896E+01  -8.10483030E+00  -1.91232979E+00  -4.61561931E+01  -6.64480322E+00  -7.47367302E+00  -4.98674714E+00  -9.46667079E+00  -8.04143364E+00  -7.85261096E+00  -8.17465529E+00  -9.54103613E+00  -8.42873347E+00  -7.23141641E+00  -6.36341658E+00  -1.21104706E+01  -6.20357742E+00  -1.71548683E+01  -7.31927444E+00  -1.02903473E+01  -1.51713147E+01  -1.51715550E+01  -2.06061931E+01  -1.23639773E+01  -2.04978226E+01  -2.04980884E+01  -2.99365523E+01  -3.34032717E+01
   2.62500000E+01   5.00000000E-01   5.00000000E-01  -7.59574526E+00  -1.62043276E+01  -3.74452730E+00  -1.29674452E+00  -2.03597130E+00  -4.10091760E+00  -2.11958548E+01  -6.71276247E+00  -5.10390690E+00  -2.62118839E-01  -4.16749120E+00  -1.95223729E+00  -1.00855801E+01  -3.35343776E-01  -1.83175854E+00  -7.74473688E+00  -3.39794013E+00  -5.89160070E+00  -4.40893551E+00  -3.20301071E+00  -1.38677740E+01  -1.37325772E+01  -1.15603808E+01  -1.45271034E+01  -8.91826719E+00  -8.30094747E+00  -1.03585354E+01  -1.41841460E+01  -2.34332144E+00  -4.66725373E+00  -3.27756819E+00  -4.12712560E+00  -8.57419247E+00  -3.00474063E+00  -5.39812518E+00  -7.49898630E+00  -7.06062673E+00  -4.98851598E+00  -6.89158894E+00  -1.49025519E+02  -1.07032752E+01  -6.88163199E+00  -1.27564146E+01  -1.25410794E+01  -8.36561370E+00  -3.20864074E+00  -9.87019113E+00  -3.68513825E+00  -6.40989056E+01  -1.31653435E+01  -8.32342906E+00  -1.91857501E+00  -4.58812769E+01  -6.64947252E+00  -7.72847553E+00  -4.91083244E+00  -8.88253946E+00  -7.72862807E+00  -7.81095735E+00  -8.17219377E+00  -9.80578776E+00  -8.66982664E+00  -7.22073322E+00  -6.36292834E+00  -1.22974014E+01  -6.19929905E+00  -1.55516842E+01  -7.22463245E+00  -1.04247450E+01  -1.53703524E+01  -1.53706005E+01  -2.08722381E+01  -1.21846203E+01  -2.07644369E+01  -2.07647145E+01  -3.03147031E+01  -3.22257583E+01
   4.37500000E+01   5.00000000E-01   5.00000000E-01  -7.46594114E+00  -1.56327088E+01  -3.63642205E+00  -1.29920515E+00  -2.02801068E+00  -3.91328055E+00  -2.08696376E+01  -6.71295520E+00  -5.10434536E+00  -2.62108303E-01  -4.16747385E+00  -1.95249406E+00  -1.01029087E+01  -3.35146694E-01  -1.82763851E+00  -7.74472420E+00  -3.39792278E+00  -5.90601952E+00  -4.40891816E+00  -3.08966077E+00  -1.37251868E+01  -1.33125752E+01  -1.13252922E+01  -1.40384132E+01  -8.90966328E+00  -8.29413226E+00  -1.04621045E+01  -1.42243465E+01  -2.34792202E+00  -4.77983035E+00  -3.26883312E+00  -4.13651841E+00  -8.61824247E+00  -2.99624615E+00  -5.19561349E+00  -7.31276864E+00  -6.94844447E+00  -4.79687080E+00  -6.95976344E+00  -1.47917761E+02  -1.06201962E+01  -6.77611032E+00  -1.25163692E+01  -1.22177857E+01  -8.21709699E+00  -3.20955936E+00  -9.93223297E+00  -3.68496490E+00  -6.35925607E+01  -1.29256341E+01  -8.40102641E+00  -1.92454298E+00  -4.56089352E+01  -6.65129388E+00  -7.83916719E+00  -4.84528972E+00  -8.59001226E+00  -7.56603612E+00  -7.77806519E+00  -8.16684558E+00  -9.92733018E+00  -8.76862472E+00  -7.20836165E+00  -6.36210360E+00  -1.23440328E+01  -6.19507545E+00  -1.49091799E+01  -7.10042705E+00  -1.03889354E+01  -1.53140390E+01  -1.53142929E+01  -2.07978722E+01  -1.19459944E+01  -2.06906367E+01  -2.06909235E+01  -3.01819772E+01  -3.16672810E+01
   6.12500000E+01   5.00000000E-01   5.00000000E-01  -7.38183391E+00  -1.53650635E+01  -3.57212895E+00  -1.30153701E+00  -2.02022592E+00  -3.78319307E+00  -2.06798410E+01  -6.71316573E+00  -5.10481925E+00  -2.62084637E-01  -4.16744223E+00  -1.95281494E+00  -1.01124464E+01  -3.34954978E-01  -1.82382776E+00  -7.74469724E+00  -3.39789117E+00  -5.91821308E+00  -4.40888654E+00  -3.01548279E+00  -1.36280904E+01  -1.31061370E+01  -1.12135398E+01  -1.38083206E+01  -8.89964957E+00  -8.28701363E+00  -1.05192567E+01  -1.42200254E+01  -2.35142670E+00  -4.84631269E+00  -3.25984383E+00  -4.14507773E+00  -8.61767148E+00  -2.98773499E+00  -5.05034151E+00  -7.18326639E+00  -6.84866343E+00  -4.66257055E+00  -6.98332114E+00  -1.46909438E+02  -1.05741747E+01  -6.71356161E+00  -1.23647398E+01  -1.20627032E+01  -8.11420907E+00  -3.21016973E+00  -9.94947483E+00  -3.68470901E+00  -6.31349803E+01  -1.28089239E+01  -8.43333090E+00  -1.93023463E+00  -4.53391271E+01  -6.65054369E+00  -7.90174034E+00  -4.79052977E+00  -8.39806244E+00  -7.45833510E+00  -7.75432870E+00  -8.15896131E+00  -1.00016327E+01  -8.82107359E+00  -7.19456494E+00  -6.36091019E+00  -1.23460078E+01  -6.19085443E+00  -1.45658527E+01  -7.00952308E+00  -1.03414860E+01  -1.52402364E+01  -1.52404945E+01  -2.07002290E+01  -1.17738370E+01  -2.05935553E+01  -2.05938492E+01  -3.00141528E+01  -3.13286642E+01
   7.87500000E+01   5.00000000E-01   5.00000000E-01  -7.31459631E+00  -1.51904615E+01  -3.52350373E+00  -1.30379052E+00  -2.01260984E+00  -3.68331714E+00  -2.05399939E+01  -6.71338349E+00  -5.10531643E+00  -2.62048420E-01  -4.16739695E+00  -1.95320835E+00  -1.01188995E+01  -3.34767738E-01  -1.82030871E+00  -7.74465662E+00  -3.39784588E+00  -5.92948332E+00  -4.40884125E+00  -2.96681766E+00  -1.35476705E+01  -1.29599710E+01  -1.11294588E+01  -1.36547193E+01  -8.88889136E+00  -8.27959535E+00  -1.05594634E+01  -1.41999768E+01  -2.35449369E+00  -4.89616446E+00  -3.25061020E+00  -4.15283228E+00  -8.60128344E+00  -2.97920664E+00  -4.93498744E+00  -7.08317512E+00  -6.76276455E+00  -4.55828493E+00  -6.99106008E+00  -1.45942772E+02  -1.05411155E+01  -6.66647738E+00  -1.22452037E+01  -1.19513600E+01  -8.02812334E+00  -3.21049654E+00  -9.95073715E+00  -3.68437947E+00  -6.26973023E+01  -1.27195641E+01  -8.44916858E+00  -1.93565349E+00  -4.50718163E+01  -6.64854068E+00  -7.94634315E+00  -4.74870657E+00  -8.25183978E+00  -7.37949928E+00  -7.74255265E+00  -8.14987729E+00  -1.00588068E+01  -8.85664279E+00  -7.18000891E+00  -6.35935238E+00  -1.23321234E+01  -6.18662753E+00  -1.43258930E+01  -6.95341936E+00  -1.03127120E+01  -1.51944221E+01  -1.51946830E+01  -2.06399383E+01  -1.16711506E+01  -2.05338222E+01  -2.05341214E+01  -2.99022101E+01  -3.10810205E+01
   9.62500000E+01   5.00000000E-01   5.00000000E-01  -7.25706368E+00  -1.50667865E+01  -3.48358385E+00  -1.30599040E+00  -2.00515525E+00  -3.60235237E+00  -2.04286106E+01  -6.71360647E+00  -5.10583358E+00  -2.62000205E-01  -4.16733854E+00  -1.95365235E+00  -1.01235003E+01  -3.34582747E-01  -1.81706406E+00  -7.74460288E+00  -3.39778748E+00  -5.94019905E+00  -4.40878285E+00  -2.93332047E+00  -1.34767765E+01  -1.28462774E+01  -1.10595515E+01  -1.35426551E+01  -8.87758245E+00  -8.27189143E+00  -1.05900638E+01  -1.41713433E+01  -2.35729991E+00  -4.93670439E+00  -3.24114325E+00  -4.15981322E+00  -8.57622144E+00  -2.97066520E+00  -4.83826821E+00  -7.00123053E+00  -6.68660532E+00  -4.47272583E+00  -6.99011638E+00  -1.45003316E+02  -1.05151126E+01  -6.62808032E+00  -1.21438331E+01  -1.18631149E+01  -7.95167751E+00  -3.21053588E+00  -9.94314975E+00  -3.68395731E+00  -6.22723312E+01  -1.26440729E+01  -8.45570294E+00  -1.94080400E+00  -4.48069687E+01  -6.64567480E+00  -7.98053080E+00  -4.71587057E+00  -8.13326460E+00  -7.31861265E+00  -7.73898728E+00  -8.13996811E+00  -1.01063648E+01  -8.88267039E+00  -7.16488805E+00  -6.35744488E+00  -1.23095248E+01  -6.18240031E+00  -1.41439581E+01  -6.91857804E+00  -1.02962276E+01  -1.51670195E+01  -1.51672820E+01  -2.06042288E+01  -1.16108628E+01  -2.04986661E+01  -2.04989689E+01  -2.98270066E+01  -3.08854221E+01
   1.13750000E+02   5.00000000E-01   5.00000000E-01  -7.20611760E+00  -1.49794236E+01  -3.44935669E+00  -1.30815649E+00  -1.99785532E+00  -3.53438881E+00  -2.03363432E+01  -6.71383419E+00  -5.10636900E+00  -2.61940514E-01  -4.16726754E+00  -1.95412140E+00  -1.01268101E+01  -3.34397569E-01  -1.81407771E+00  -7.74453654E+00  -3.39771647E+00  -5.95053499E+00  -4.40871184E+00  -2.90816694E+00  -1.34123034E+01  -1.27566654E+01  -1.10016380E+01  -1.34606288E+01  -8.86582205E+00  -8.26391705E+00  -1.06142576E+01  -1.41372234E+01  -2.35992668E+00  -4.97110995E+00  -3.23145386E+00  -4.16605115E+00  -8.54558322E+00  -2.96211592E+00  -4.75429076E+00  -6.93155787E+00  -6.61738779E+00  -4.39999635E+00  -6.98358090E+00  -1.44084721E+02  -1.04936346E+01  -6.59544487E+00  -1.20545973E+01  -1.17926901E+01  -7.88175616E+00  -3.21027980E+00  -9.92979318E+00  -3.68342072E+00  -6.18569187E+01  -1.25802860E+01  -8.45605099E+00  -1.94569102E+00  -4.45445511E+01  -6.64214190E+00  -8.00761768E+00  -4.68932084E+00  -8.03349981E+00  -7.26995590E+00  -7.74103297E+00  -8.12940969E+00  -1.01475789E+01  -8.90235460E+00  -7.14930230E+00  -6.35520363E+00  -1.22813131E+01  -6.17818084E+00  -1.40016821E+01  -6.89445610E+00  -1.02845957E+01  -1.51468743E+01  -1.51471376E+01  -2.05782267E+01  -1.15718903E+01  -2.04732130E+01  -2.04735180E+01  -2.97662416E+01  -3.07226434E+01
   1.31250000E+02   5.00000000E-01   5.00000000E-01  -7.15957967E+00  -1.49173698E+01  -3.41874939E+00  -1.31030525E+00  -1.99070362E+00  -3.47590511E+00  -2.02566640E+01  -6.71406640E+00  -5.10692121E+00  -2.61869827E-01  -4.16718441E+00  -1.95459612E+00  -1.01292975E+01  -3.34210295E-01  -1.81133450E+00  -7.74445808E+00  -3.39763334E+00  -5.96066569E+00  -4.40862871E+00  -2.88727779E+00  -1.33520861E+01  -1.26844766E+01  -1.09533916E+01  -1.33998134E+01  -8.85370940E+00  -8.25568695E+00  -1.06343050E+01  -1.40997765E+01  -2.36245599E+00  -5.00162005E+00  -3.22155258E+00  -4.17157553E+00  -8.51152724E+00  -2.95356417E+00  -4.67954981E+00  -6.87066946E+00  -6.55376268E+00  -4.33658785E+00  -6.97360547E+00  -1.43182520E+02  -1.04749964E+01  -6.56658461E+00  -1.19733446E+01  -1.17356004E+01  -7.81618410E+00  -3.20972579E+00  -9.91281444E+00  -3.68275427E+00  -6.14488568E+01  -1.25258914E+01  -8.45239006E+00  -1.95032005E+00  -4.42845311E+01  -6.63813685E+00  -8.02997704E+00  -4.66780513E+00  -7.94703614E+00  -7.23019761E+00  -7.74753787E+00  -8.11838266E+00  -1.01847817E+01  -8.91795427E+00  -7.13335155E+00  -6.35264406E+00  -1.22496504E+01  -6.17397724E+00  -1.38861173E+01  -6.87506062E+00  -1.02739895E+01  -1.51282475E+01  -1.51285107E+01  -2.05542784E+01  -1.15422502E+01  -2.04498091E+01  -2.04501153E+01  -2.97084436E+01  -3.05799605E+01
   1.48750000E+02   5.00000000E-01   5.00000000E-01  -7.11596041E+00  -1.48723989E+01  -3.39036756E+00  -1.31244858E+00  -1.98369407E+00  -3.42464235E+00  -2.01851119E+01  -6.71430297E+00  -5.10748893E+00  -2.61788586E-01  -4.16708959E+00  -1.95506388E+00  -1.01313219E+01  -3.34019679E-01  -1.80882009E+00  -7.74436793E+00  -3.39753852E+00  -5.97074506E+00  -4.40853389E+00  -2.86837736E+00  -1.32946472E+01  -1.26244517E+01  -1.09125076E+01  -1.33534696E+01  -8.84133354E+00  -8.24721539E+00  -1.06517676E+01  -1.40604737E+01  -2.36496017E+00  -5.02977579E+00  -3.21144961E+00  -4.17641479E+00  -8.47552369E+00  -2.94501542E+00  -4.61180184E+00  -6.81633872E+00  -6.49495435E+00  -4.28025381E+00  -6.96165391E+00  -1.42293627E+02  -1.04580920E+01  -6.54018081E+00  -1.18972792E+01  -1.16880709E+01  -7.75347512E+00  -3.20887741E+00  -9.89367869E+00  -3.68194933E+00  -6.10466268E+01  -1.24785995E+01  -8.44620896E+00  -1.95469718E+00  -4.40268768E+01  -6.63383320E+00  -8.04927176E+00  -4.65063466E+00  -7.87029460E+00  -7.19724788E+00  -7.75790256E+00  -8.10705263E+00  -1.02195968E+01  -8.93102977E+00  -7.11712546E+00  -6.34978111E+00  -1.22160101E+01  -6.16979756E+00  -1.37882091E+01  -6.85731714E+00  -1.02628116E+01  -1.51087443E+01  -1.51090070E+01  -2.05291899E+01  -1.15157959E+01  -2.04252603E+01  -2.04255667E+01  -2.96488290E+01  -3.04492055E+01
   1.66250000E+02   5.00000000E-01   5.00000000E-01  -7.07425347E+00  -1.48383536E+01  -3.36328746E+00  -1.31459445E+00  -1.97682095E+00  -3.37906935E+00  -2.01186748E+01  -6.71454392E+00  -5.10807102E+00  -2.61697199E-01  -4.16698348E+00  -1.95551736E+00  -1.01331475E+01  -3.33825011E-01  -1.80652088E+00  -7.74426649E+00  -3.39743241E+00  -5.98090175E+00  -4.40842778E+00  -2.85031265E+00  -1.32389923E+01  -1.25724342E+01  -1.08768185E+01  -1.33164437E+01  -8.82877126E+00  -8.23851615E+00  -1.06677124E+01  -1.40203033E+01  -2.36749994E+00  -5.05662429E+00  -3.20115482E+00  -4.18059633E+00  -8.43856034E+00  -2.93647514E+00  -4.54953040E+00  -6.76706545E+00  -6.44043190E+00  -4.22947511E+00  -6.94870785E+00  -1.41415924E+02  -1.04422020E+01  -6.51537197E+00  -1.18245449E+01  -1.16469465E+01  -7.69262619E+00  -3.20774288E+00  -9.87337357E+00  -3.68100262E+00  -6.06491932E+01  -1.24362576E+01  -8.43851375E+00  -1.95882898E+00  -4.37715568E+01  -6.62937854E+00  -8.06665543E+00  -4.63735322E+00  -7.80088130E+00  -7.16971882E+00  -7.77174646E+00  -8.09556405E+00  -1.02531403E+01  -8.94264672E+00  -7.10070138E+00  -6.34662920E+00  -1.21813830E+01  -6.16564977E+00  -1.37016122E+01  -6.83991353E+00  -1.02507443E+01  -1.50878890E+01  -1.50881508E+01  -2.05023260E+01  -1.14899058E+01  -2.03989314E+01  -2.03992373E+01  -2.95864511E+01  -3.03252629E+01
   1.83750000E+02   5.00000000E-01   5.00000000E-01  -7.03378279E+00  -1.48106399E+01  -3.33690466E+00  -1.31674802E+00  -1.97007886E+00  -3.33810231E+00  -2.00553318E+01  -6.71478932E+00  -5.10866641E+00  -2.61596044E-01  -4.16686647E+00  -1.95595283E+00  -1.01349645E+01  -3.33625953E-01  -1.80442405E+00  -7.74415416E+00  -3.39731540E+00  -5.99124134E+00  -4.40831078E+00  -2.83258625E+00  -1.31844566E+01  -1.25251709E+01  -1.08444006E+01  -1.32848153E+01  -8.81608852E+00  -8.22960245E+00  -1.06828659E+01  -1.39799242E+01  -2.37012585E+00  -5.08287297E+00  -3.19067774E+00  -4.18414652E+00  -8.40129526E+00  -2.92794880E+00  -4.49166570E+00  -6.72179547E+00  -6.38978161E+00  -4.18317961E+00  -6.93541951E+00  -1.40547955E+02  -1.04268629E+01  -6.49160318E+00  -1.17539220E+01  -1.16096454E+01  -7.63296459E+00  -3.20633337E+00  -9.85256033E+00  -3.67991456E+00  -6.02558512E+01  -1.23969563E+01  -8.42998035E+00  -1.96272237E+00  -4.35185405E+01  -6.62489662E+00  -8.08292746E+00  -4.62761105E+00  -7.73715635E+00  -7.14664640E+00  -7.78878244E+00  -8.08404081E+00  -1.02861752E+01  -8.95353018E+00  -7.08414578E+00  -6.34320218E+00  -1.21464304E+01  -6.16154160E+00  -1.36218716E+01  -6.82251883E+00  -1.02381209E+01  -1.50661821E+01  -1.50664428E+01  -2.04743536E+01  -1.14639200E+01  -2.03714889E+01  -2.03717939E+01  -2.95223153E+01  -3.02049906E+01
   2.01250000E+02   5.00000000E-01   5.00000000E-01  -6.99421201E+00  -1.47869276E+01  -3.31093468E+00  -1.31891230E+00  -1.96346270E+00  -3.30095212E+00  -1.99940807E+01  -6.71503939E+00  -5.10927425E+00  -2.61485474E-01  -4.16673891E+00  -1.95636823E+00  -1.01368690E+01  -3.33422343E-01  -1.80251756E+00  -7.74403127E+00  -3.39718784E+00  -6.00182712E+00  -4.40818321E+00  -2.81497887E+00  -1.31307143E+01  -1.24809928E+01  -1.08142355E+01  -1.32565881E+01  -8.80333172E+00  -8.22048709E+00  -1.06975955E+01  -1.39396558E+01  -2.37286945E+00  -5.10887123E+00  -3.18002758E+00  -4.18709073E+00  -8.36404742E+00  -2.91944192E+00  -4.43743207E+00  -6.67976807E+00  -6.34254488E+00  -4.14058956E+00  -6.92210225E+00  -1.39688949E+02  -1.04118557E+01  -6.46861632E+00  -1.16848268E+01  -1.15748304E+01  -7.57415742E+00  -3.20466101E+00  -9.83156240E+00  -3.67868727E+00  -5.98662360E+01  -1.23596915E+01  -8.42094496E+00  -1.96638442E+00  -4.32677977E+01  -6.62046817E+00  -8.09850438E+00  -4.62099394E+00  -7.67807151E+00  -7.12731857E+00  -7.80863559E+00  -8.07256502E+00  -1.03190833E+01  -8.96404649E+00  -7.06750556E+00  -6.33951345E+00  -1.21114739E+01  -6.15748078E+00  -1.35467353E+01  -6.80501868E+00  -1.02251517E+01  -1.50439400E+01  -1.50441995E+01  -2.04456939E+01  -1.14376122E+01  -2.03433541E+01  -2.03436578E+01  -2.94570575E+01  -3.00868812E+01
   2.18750000E+02   5.00000000E-01   5.00000000E-01  -6.95539209E+00  -1.47662040E+01  -3.28526727E+00  -1.32108913E+00  -1.95696764E+00  -3.26702571E+00  -1.99344813E+01  -6.71529443E+00  -5.10989377E+00  -2.61365817E-01  -4.16660112E+00  -1.95676227E+00  -1.01389018E+01  -3.33214097E-01  -1.80079018E+00  -7.74389816E+00  -3.39705005E+00  -6.01269373E+00  -4.40804542E+00  -2.79738753E+00  -1.30776266E+01  -1.24391741E+01  -1.07858742E+01  -1.32308958E+01  -8.79053434E+00  -8.21118233E+00  -1.07120693E+01  -1.38996310E+01  -2.37574999E+00  -5.13476958E+00  -3.16921317E+00  -4.18945329E+00  -8.32694896E+00  -2.91095996E+00  -4.38624917E+00  -6.64041724E+00  -6.29827186E+00  -4.10112291E+00  -6.90888292E+00  -1.38838507E+02  -1.03970927E+01  -6.44631138E+00  -1.16170205E+01  -1.15419204E+01  -7.51605919E+00  -3.20273815E+00  -9.81051692E+00  -3.67732378E+00  -5.94801701E+01  -1.23240273E+01  -8.41155630E+00  -1.96982226E+00  -4.30192987E+01  -6.61614448E+00  -8.11358592E+00  -4.61708366E+00  -7.62293267E+00  -7.11119013E+00  -7.83091048E+00  -8.06118986E+00  -1.03520311E+01  -8.97436231E+00  -7.05081468E+00  -6.33557588E+00  -1.20766485E+01  -6.15347484E+00  -1.34751991E+01  -6.78734432E+00  -1.02119056E+01  -1.50212663E+01  -1.50215249E+01  -2.04164849E+01  -1.14108469E+01  -2.03146649E+01  -2.03149671E+01  -2.93908884E+01  -2.99702898E+01
   2.36250000E+02   5.00000000E-01   5.00000000E-01  -6.91717454E+00  -1.47472954E+01  -3.25979496E+00  -1.32328005E+00  -1.95058916E+00  -3.23586112E+00  -1.98760950E+01  -6.71555468E+00  -5.11052418E+00  -2.61237384E-01  -4.16645341E+00  -1.95713459E+00  -1.01411080E+01  -3.33001195E-01  -1.79923140E+00  -7.74375512E+00  -3.39690234E+00  -6.02387900E+00  -4.40789771E+00  -2.77981375E+00  -1.30250547E+01  -1.23988272E+01  -1.07587053E+01  -1.32067106E+01  -8.77773208E+00  -8.20169979E+00  -1.07264572E+01  -1.38599821E+01  -2.37878970E+00  -5.16072169E+00  -3.15824298E+00  -4.19125750E+00  -8.29013201E+00  -2.90250826E+00  -4.33766714E+00  -6.60330683E+00  -6.25664332E+00  -4.06432827E+00  -6.89588862E+00  -1.37996239E+02  -1.03824904E+01  -6.42459139E+00  -1.15502672E+01  -1.15101719E+01  -7.45852504E+00  -3.20057735E+00  -9.78956155E+00  -3.67582802E+00  -5.90974768E+01  -1.22893652E+01  -8.40196238E+00  -1.97304302E+00  -4.27730144E+01  -6.61197915E+00  -8.12837347E+00  -4.61559497E+00  -7.57117995E+00  -7.09784956E+00  -7.85534477E+00  -8.04997151E+00  -1.03851883E+01  -8.98464635E+00  -7.03410925E+00  -6.33140164E+00  -1.20420887E+01  -6.14953092E+00  -1.34062030E+01  -6.76963569E+00  -1.01986598E+01  -1.49985776E+01  -1.49988355E+01  -2.03872814E+01  -1.13839060E+01  -2.02859759E+01  -2.02862768E+01  -2.93246439E+01  -2.98546760E+01
   2.53750000E+02   5.00000000E-01   5.00000000E-01  -6.87952163E+00  -1.47299155E+01  -3.23451087E+00  -1.32548599E+00  -1.94432298E+00  -3.20709584E+00  -1.98188157E+01  -6.71582045E+00  -5.11116479E+00  -2.61100463E-01  -4.16629606E+00  -1.95748507E+00  -1.01434963E+01  -3.32783618E-01  -1.79783145E+00  -7.74360246E+00  -3.39674499E+00  -6.03539822E+00  -4.40774036E+00  -2.76226151E+00  -1.29729697E+01  -1.23597303E+01  -1.07325626E+01  -1.31837815E+01  -8.76495062E+00  -8.19205057E+00  -1.07408089E+01  -1.38207312E+01  -2.38200137E+00  -5.18676173E+00  -3.14712513E+00  -4.19252567E+00  -8.25361842E+00  -2.89409208E+00  -4.29133496E+00  -6.56809888E+00  -6.21732878E+00  -4.02985329E+00  -6.88313647E+00  -1.37161973E+02  -1.03680387E+01  -6.40344706E+00  -1.14845291E+01  -1.14793966E+01  -7.40152087E+00  -3.19819081E+00  -9.76872367E+00  -3.67420420E+00  -5.87180904E+01  -1.22555510E+01  -8.39220025E+00  -1.97605379E+00  -4.25289160E+01  -6.60800249E+00  -8.14293436E+00  -4.61622146E+00  -7.52244060E+00  -7.08696175E+00  -7.88164178E+00  -8.03894283E+00  -1.04185921E+01  -8.99494705E+00  -7.01741534E+00  -6.32700239E+00  -1.20078187E+01  -6.14565593E+00  -1.33394672E+01  -6.75192717E+00  -1.01854755E+01  -1.49759660E+01  -1.49762236E+01  -2.03582061E+01  -1.13568601E+01  -2.02574099E+01  -2.02577095E+01  -2.92585111E+01  -2.97399424E+01
   2.71250000E+02   5.00000000E-01   5.00000000E-01  -6.84241035E+00  -1.47138907E+01  -3.20942105E+00  -1.32770774E+00  -1.93816509E+00  -3.18043807E+00  -1.97625811E+01  -6.71609205E+00  -5.11181491E+00  -2.60955330E-01  -4.16612934E+00  -1.95781389E+00  -1.01460706E+01  -3.32561348E-01  -1.79658120E+00  -7.74344042E+00  -3.39657827E+00  -6.04726175E+00  -4.40757364E+00  -2.74474221E+00  -1.29213573E+01  -1.23217448E+01  -1.07073342E+01  -1.31619552E+01  -8.75221387E+00  -8.18224521E+00  -1.07551581E+01  -1.37818860E+01  -2.38539672E+00  -5.21290871E+00  -3.13586744E+00  -4.19327919E+00  -8.21741578E+00  -2.88571653E+00  -4.24697175E+00  -6.53452501E+00  -6.18005382E+00  -3.99741597E+00  -6.87062958E+00  -1.36335572E+02  -1.03537367E+01  -6.38287828E+00  -1.14197918E+01  -1.14494748E+01  -7.34502733E+00  -3.19559043E+00  -9.74801639E+00  -3.67245683E+00  -5.83419597E+01  -1.22224846E+01  -8.38229204E+00  -1.97886154E+00  -4.22869752E+01  -6.60423908E+00  -8.15731543E+00  -4.61871118E+00  -7.47642181E+00  -7.07825683E+00  -7.90955530E+00  -8.02813104E+00  -1.04522606E+01  -9.00529677E+00  -7.00075723E+00  -6.32238921E+00  -1.19738482E+01  -6.14185641E+00  -1.32748178E+01  -6.73425345E+00  -1.01723996E+01  -1.49535026E+01  -1.49537603E+01  -2.03293533E+01  -1.13297806E+01  -2.02290610E+01  -2.02293596E+01  -2.91926344E+01  -2.96260556E+01
   2.88750000E+02   5.00000000E-01   5.00000000E-01  -6.80581220E+00  -1.46989922E+01  -3.18452646E+00  -1.32994607E+00  -1.93211175E+00  -3.15564897E+00  -1.97073127E+01  -6.71636973E+00  -5.11247384E+00  -2.60802240E-01  -4.16595349E+00  -1.95812152E+00  -1.01488374E+01  -3.32334368E-01  -1.79547215E+00  -7.74326926E+00  -3.39640242E+00  -6.05947973E+00  -4.40739779E+00  -2.72727646E+00  -1.28701972E+01  -1.22846886E+01  -1.06828763E+01  -1.31410288E+01  -8.73954616E+00  -8.17229367E+00  -1.07695446E+01  -1.37434600E+01  -2.38898853E+00  -5.23918888E+00  -3.12447739E+00  -4.19353851E+00  -8.18153766E+00  -2.87738658E+00  -4.20434901E+00  -6.50236861E+00  -6.14460250E+00  -3.96678675E+00  -6.85837727E+00  -1.35516889E+02  -1.03395799E+01  -6.36287867E+00  -1.13560287E+01  -1.14202488E+01  -7.28901956E+00  -3.19278783E+00  -9.72745876E+00  -3.67059068E+00  -5.79690285E+01  -1.21900328E+01  -8.37226515E+00  -1.98147312E+00  -4.20471644E+01  -6.60071256E+00  -8.17156800E+00  -4.62287126E+00  -7.43287747E+00  -7.07151709E+00  -7.93889678E+00  -8.01756247E+00  -1.04862178E+01  -9.01573420E+00  -6.98415958E+00  -6.31757257E+00  -1.19401924E+01  -6.13813850E+00  -1.32120423E+01  -6.71667343E+00  -1.01595090E+01  -1.49313031E+01  -1.49315616E+01  -2.03008770E+01  -1.13027871E+01  -2.02010833E+01  -2.02013814E+01  -2.91272479E+01  -2.95129672E+01
   3.06250000E+02   5.00000000E-01   5.00000000E-01  -6.76969369E+00  -1.46849425E+01  -3.15982370E+00  -1.33220169E+00  -1.92615946E+00  -3.13253054E+00  -1.96529168E+01  -6.71665373E+00  -5.11314088E+00  -2.60641438E-01  -4.16576875E+00  -1.95840870E+00  -1.01518056E+01  -3.32102662E-01  -1.79449633E+00  -7.74308921E+00  -3.39621768E+00  -6.07206259E+00  -4.40721305E+00  -2.70989218E+00  -1.28194633E+01  -1.22483405E+01  -1.06590164E+01  -1.31207557E+01  -8.72697247E+00  -8.16220536E+00  -1.07840145E+01  -1.37054717E+01  -2.39279088E+00  -5.26563537E+00  -3.11296220E+00  -4.19332323E+00  -8.14600304E+00  -2.86910704E+00  -4.16327848E+00  -6.47145281E+00  -6.11080475E+00  -3.93777650E+00  -6.84639454E+00  -1.34705768E+02  -1.03255609E+01  -6.34343662E+00  -1.12932024E+01  -1.13915268E+01  -7.23346770E+00  -3.18979431E+00  -9.70707528E+00  -3.66861069E+00  -5.75992356E+01  -1.21580335E+01  -8.36215180E+00  -1.98389527E+00  -4.18094560E+01  -6.59744612E+00  -8.18574794E+00  -4.62855548E+00  -7.39159708E+00  -7.06656545E+00  -7.96952324E+00  -8.00726308E+00  -1.05204936E+01  -9.02630404E+00  -6.96764767E+00  -6.31256236E+00  -1.19068720E+01  -6.13450792E+00  -1.31508921E+01  -6.69926588E+00  -1.01469058E+01  -1.49095210E+01  -1.49097810E+01  -2.02729816E+01  -1.12760390E+01  -2.01736809E+01  -2.01739790E+01  -2.90626609E+01  -2.94006144E+01
   3.23750000E+02   5.00000000E-01   5.00000000E-01  -6.73402036E+00  -1.46714513E+01  -3.13530875E+00  -1.33447528E+00  -1.92030500E+00  -3.11091683E+00  -1.95992969E+01  -6.71694423E+00  -5.11381527E+00  -2.60473153E-01  -4.16557533E+00  -1.95867636E+00  -1.01549856E+01  -3.31866216E-01  -1.79364634E+00  -7.74290049E+00  -3.39602426E+00  -6.08502046E+00  -4.40701963E+00  -2.69262126E+00  -1.27691285E+01  -1.22124689E+01  -1.06355741E+01  -1.31008775E+01  -8.71451817E+00  -8.15198916E+00  -1.07986153E+01  -1.36679412E+01  -2.39681883E+00  -5.29228386E+00  -3.10132879E+00  -4.19265209E+00  -8.11083233E+00  -2.86088254E+00  -4.12360350E+00  -6.44163176E+00  -6.07852355E+00  -3.91022768E+00  -6.83469798E+00  -1.33902054E+02  -1.03116715E+01  -6.32453871E+00  -1.12312724E+01  -1.13631078E+01  -7.17834084E+00  -3.18662085E+00  -9.68689173E+00  -3.66652194E+00  -5.72325190E+01  -1.21263162E+01  -8.35198497E+00  -1.98613454E+00  -4.15738232E+01  -6.59446197E+00  -8.19991105E+00  -4.63565127E+00  -7.35240043E+00  -7.06325605E+00  -8.00132393E+00  -7.99725782E+00  -1.05551190E+01  -9.03705270E+00  -6.95124711E+00  -6.30736792E+00  -1.18739086E+01  -6.13097000E+00  -1.30911121E+01  -6.68211867E+00  -1.01347022E+01  -1.48883250E+01  -1.48885874E+01  -2.02458918E+01  -1.12497136E+01  -2.01470787E+01  -2.01473775E+01  -2.89992133E+01  -2.92889321E+01
   3.41250000E+02   5.00000000E-01   5.00000000E-01  -6.69876126E+00  -1.46582572E+01  -3.11098093E+00  -1.33676746E+00  -1.91454533E+00  -3.09066745E+00  -1.95463671E+01  -6.71724142E+00  -5.11449628E+00  -2.60297604E-01  -4.16537344E+00  -1.95892560E+00  -1.01583872E+01  -3.31625017E-01  -1.79291522E+00  -7.74270330E+00  -3.39582237E+00  -6.09836205E+00  -4.40681774E+00  -2.67549556E+00  -1.27191685E+01  -1.21768637E+01  -1.06123846E+01  -1.30811610E+01  -8.70220845E+00  -8.14165345E+00  -1.08133914E+01  -1.36308851E+01  -2.40108784E+00  -5.31916753E+00  -3.08958380E+00  -4.19154306E+00  -8.07604284E+00  -2.85271750E+00  -4.08519244E+00  -6.41278417E+00  -6.04764403E+00  -3.88400788E+00  -6.82330135E+00  -1.33105599E+02  -1.02979063E+01  -6.30617313E+00  -1.11702029E+01  -1.13348090E+01  -7.12361150E+00  -3.18327807E+00  -9.66693074E+00  -3.66432956E+00  -5.68688203E+01  -1.20947252E+01  -8.34179401E+00  -1.98819734E+00  -4.13402393E+01  -6.59178028E+00  -8.21410754E+00  -4.64406813E+00  -7.31513448E+00  -7.06146675E+00  -8.03420824E+00  -7.98756955E+00  -1.05901210E+01  -9.04802331E+00  -6.93498333E+00  -6.30199808E+00  -1.18413207E+01  -6.12752962E+00  -1.30324733E+01  -6.66531641E+00  -1.01230039E+01  -1.48678743E+01  -1.48681399E+01  -2.02198192E+01  -1.12239820E+01  -2.01214882E+01  -2.01217884E+01  -2.89372253E+01  -2.91778676E+01