 TITLE = "Total Concentrations" 
VARIABLES = "X"          "Y"              "Z"            "H+"             "Al+++"          "CO2(aq)"        "Mg++"           "Ca++"           "Fe++"           "Fe+++"          "Ba++"           "Sr++"           "Li+"            "Rb+"            "Mn++"           "Zn++"           "Cu++"           "Cu+"            "Cl-"            "F-"             "K+"             "HS-"            "Na+"            "SO4--"          "O2(aq)"         "B(OH)3(aq)"     "HPO4--"         "NO3-"           "H4SiO4(aq)"     "Ti(OH)4(aq)"    "HNO3(aq)"       "Al(OH)2+"       "AlO2-"          "AlOH++"         "BaHCO3+"        "BaCl+"          "BaCO3(aq)"      "BaOH+"          "HCO3-"          "CO3--"          "CaCl+"          "CaCl2(aq)"      "CaOH+"          "CaSO4(aq)"      "FeCl+"          "FeCl2(aq)"      "FeOH+"          "FeSO4(aq)"      "OH-"            "LiCl(aq)"       "LiOH(aq)"       "RbCl(aq)"       "RbOH(aq)"       "S2O3--"         "H2S(aq)"        "H2PO4-"         "H3PO4(aq)"      "HAlO2(aq)"      "HSO4-"          "KCl(aq)"        "KOH(aq)"        "KSO4-"          "NH3(aq)"        "NaAlO2(aq)"     "NaOH(aq)"       "NaSO4-"         "H2(aq)"         "CaHPO4(aq)"     "CaPO4-"         "FeCO3(aq)"      "FeH2PO4+"       "FeHPO4(aq)"     "FePO4-"         "KHPO4-"         "PO4---"         "Sr(CO3)(aq)"    "SrHCO3+"        "SrCl+"          "SrOH+"          "SrSO4(aq)"      "AlH3SiO4++"     "Si2O2(OH)5-"    "Si2O3(OH)4--"   "Si3O5(OH)5---"  "Si3O6(OH)3---"  "Si4O12H4----"   "Si4O6(OH)6--"   "Si4O7(OH)6----" "Si4O8(OH)4----" "Si6O15------"   "SiF6--"        
 ZONE I=         200 , J=           1 , K=           1  F=POINT
   8.75000000E+00   5.00000000E-01   5.00000000E-01  -7.82142676E+00  -1.75314259E+01  -3.94691103E+00  -1.29415741E+00  -2.04423918E+00  -4.43340151E+00  -2.17715616E+01  -6.93807052E+00  -5.10352714E+00  -4.61181000E+00  -5.85969344E+00  -5.24934069E+00  -6.41108308E+00  -8.84705562E+00  -8.91431845E+00  -2.62095122E-01  -4.16749347E+00  -1.95183883E+00  -2.49494204E+01  -3.35549680E-01  -1.83620261E+00  -7.74473460E+00  -3.39794256E+00  -5.87568257E+00  -4.40893793E+00  -3.38430568E+00  -8.67857316E+00  -1.41060221E+01  -1.47173084E+01  -1.21696395E+01  -1.56757216E+01  -9.15123900E+00  -8.53291189E+00  -1.03841723E+01  -1.42747535E+01  -2.33793367E+00  -4.45872946E+00  -3.28614614E+00  -4.11696089E+00  -8.43549191E+00  -3.01335104E+00  -5.74514038E+00  -7.82914914E+00  -7.22233841E+00  -5.32480346E+00  -6.72864668E+00  -6.81007799E+00  -1.13452458E+01  -7.72972109E+00  -1.33707115E+01  -1.50333203E+02  -2.57625281E+01  -7.08102048E+00  -1.31859391E+01  -1.33335810E+01  -8.60994009E+00  -3.20717561E+00  -9.71298268E+00  -3.68502549E+00  -6.47042394E+01  -1.37788756E+01  -8.15036535E+00  -1.91233210E+00  -4.61561932E+01  -6.64592375E+00  -7.52032339E+00  -5.02458333E+00  -9.41384249E+00  -8.03413532E+00  -7.89084249E+00  -8.17550496E+00  -9.58756105E+00  -8.47484245E+00  -7.23199541E+00  -6.36337516E+00  -1.21559796E+01  -6.20355383E+00  -1.69235119E+01  -7.38950955E+00  -1.04061122E+01  -1.53449620E+01  -1.53452023E+01  -2.08377230E+01  -1.25044475E+01  -2.07293525E+01  -2.07296183E+01  -3.02838462E+01  -3.32335037E+01
   2.62500000E+01   5.00000000E-01   5.00000000E-01  -7.59918113E+00  -1.63277489E+01  -3.74785886E+00  -1.29679092E+00  -2.03621526E+00  -4.10182410E+00  -2.11686998E+01  -7.06377872E+00  -5.10390866E+00  -4.61180795E+00  -5.85983808E+00  -4.94853077E+00  -6.15479467E+00  -8.84639567E+00  -8.91499294E+00  -2.62098433E-01  -4.16749087E+00  -1.95178703E+00  -2.59267818E+01  -3.35354399E-01  -1.83174631E+00  -7.74473678E+00  -3.39794013E+00  -5.89134841E+00  -4.40893551E+00  -3.20053840E+00  -8.67727958E+00  -1.38712140E+01  -1.38491324E+01  -1.16700646E+01  -1.46470906E+01  -9.26918107E+00  -8.65194948E+00  -1.07060176E+01  -1.45317312E+01  -2.34321367E+00  -4.66370505E+00  -3.27779662E+00  -4.12733912E+00  -8.57100416E+00  -3.00498671E+00  -5.39901615E+00  -7.49986235E+00  -7.05810095E+00  -4.98942458E+00  -6.88815216E+00  -6.81001153E+00  -1.15083616E+01  -7.71895153E+00  -1.35240321E+01  -1.49032380E+02  -2.65479166E+01  -6.88482160E+00  -1.27630435E+01  -1.26542030E+01  -8.36904303E+00  -3.20817627E+00  -9.86630992E+00  -3.68468342E+00  -6.41023518E+01  -1.32750430E+01  -8.32000797E+00  -1.91858078E+00  -4.58812814E+01  -6.64947854E+00  -7.72504189E+00  -4.90820362E+00  -8.88663967E+00  -7.72929662E+00  -7.80818624E+00  -8.17149889E+00  -9.80208951E+00  -8.66629437E+00  -7.22063260E+00  -6.36291586E+00  -1.22939722E+01  -6.19930421E+00  -1.56691960E+01  -7.21624520E+00  -1.04129176E+01  -1.53526045E+01  -1.53528526E+01  -2.08485848E+01  -1.21678423E+01  -2.07407836E+01  -2.07410612E+01  -3.02791732E+01  -3.22370248E+01
   4.37500000E+01   5.00000000E-01   5.00000000E-01  -7.47679992E+00  -1.58272017E+01  -3.64682950E+00  -1.29927690E+00  -2.02836986E+00  -3.91487326E+00  -2.08647502E+01  -7.11536313E+00  -5.10435082E+00  -4.61179321E+00  -5.85997218E+00  -4.77245733E+00  -5.99468695E+00  -8.84572180E+00  -8.91565362E+00  -2.62088073E-01  -4.16747335E+00  -1.95174296E+00  -2.55955714E+01  -3.35160648E-01  -1.82762179E+00  -7.74472403E+00  -3.39792278E+00  -5.90505374E+00  -4.40891816E+00  -3.07857277E+00  -8.67615553E+00  -1.37360506E+01  -1.34853572E+01  -1.14763571E+01  -1.42220493E+01  -9.31162215E+00  -8.69652719E+00  -1.08532095E+01  -1.46159014E+01  -2.34746663E+00  -4.76851025E+00  -3.26917781E+00  -4.13684932E+00  -8.60774711E+00  -2.99660549E+00  -5.19719172E+00  -7.31433308E+00  -6.93918264E+00  -4.79846366E+00  -6.94890360E+00  -6.80958131E+00  -1.15723886E+01  -7.70812265E+00  -1.35785126E+01  -1.47939462E+02  -2.61237223E+01  -6.78601041E+00  -1.25371322E+01  -1.23797139E+01  -8.22794574E+00  -3.20879533E+00  -9.92062889E+00  -3.68420610E+00  -6.36034317E+01  -1.30767189E+01  -8.39018648E+00  -1.92454889E+00  -4.56089405E+01  -6.65070416E+00  -7.82771424E+00  -4.83557805E+00  -8.60150990E+00  -7.56667994E+00  -7.76784577E+00  -8.16513772E+00  -9.91549373E+00  -8.75732729E+00  -7.20791805E+00  -6.36209606E+00  -1.23331852E+01  -6.19508256E+00  -1.50817245E+01  -7.06738436E+00  -1.03450288E+01  -1.52481713E+01  -1.52484252E+01  -2.07100610E+01  -1.18799048E+01  -2.06028254E+01  -2.06031123E+01  -3.00502014E+01  -3.16996219E+01
   6.12500000E+01   5.00000000E-01   5.00000000E-01  -7.38975309E+00  -1.55451445E+01  -3.57965569E+00  -1.30166618E+00  -2.02069667E+00  -3.78443434E+00  -2.06661357E+01  -7.12416657E+00  -5.10482390E+00  -4.61176633E+00  -5.86009647E+00  -4.64747538E+00  -5.87794460E+00  -8.84503465E+00  -8.91630116E+00  -2.62064664E-01  -4.16744156E+00  -1.95170648E+00  -2.53021160E+01  -3.34972213E-01  -1.82380856E+00  -7.74469702E+00  -3.39789117E+00  -5.91733790E+00  -4.40888654E+00  -2.99729856E+00  -8.67521749E+00  -1.36360140E+01  -1.32703855E+01  -1.13619504E+01  -1.39804842E+01  -9.31025998E+00  -8.69800085E+00  -1.09219523E+01  -1.46231121E+01  -2.35103071E+00  -4.83799231E+00  -3.26029964E+00  -4.14551922E+00  -8.61022678E+00  -2.98820136E+00  -5.05156785E+00  -7.18447841E+00  -6.84198926E+00  -4.66380745E+00  -6.97540104E+00  -6.80880162E+00  -1.16018412E+01  -7.69723881E+00  -1.35986590E+01  -1.46925253E+02  -2.57717674E+01  -6.72061183E+00  -1.23797127E+01  -1.22190369E+01  -8.12211493E+00  -3.20904769E+00  -9.94045228E+00  -3.68358927E+00  -6.31429104E+01  -1.29573569E+01  -8.42543326E+00  -1.93024029E+00  -4.53391318E+01  -6.65015408E+00  -7.89342764E+00  -4.78346447E+00  -8.40635818E+00  -7.45871601E+00  -7.74678653E+00  -8.15698558E+00  -9.99282792E+00  -8.81277298E+00  -7.19417916E+00  -6.36090122E+00  -1.23380984E+01  -6.19085602E+00  -1.47198290E+01  -6.96522848E+00  -1.02892677E+01  -1.51619021E+01  -1.51621602E+01  -2.05957942E+01  -1.16852441E+01  -2.04891204E+01  -2.04894143E+01  -2.98574487E+01  -3.13421498E+01
   7.87500000E+01   5.00000000E-01   5.00000000E-01  -7.31834373E+00  -1.53446705E+01  -3.52703919E+00  -1.30398413E+00  -2.01318882E+00  -3.68420598E+00  -2.05137749E+01  -7.11199158E+00  -5.10531941E+00  -4.61172783E+00  -5.86021160E+00  -4.55048987E+00  -5.78600304E+00  -8.84433482E+00  -8.91693614E+00  -2.62028780E-01  -4.16739610E+00  -1.95167724E+00  -2.50266693E+01  -3.34789810E-01  -1.82028720E+00  -7.74465634E+00  -3.39784588E+00  -5.92895219E+00  -4.40884125E+00  -2.94287041E+00  -8.67445218E+00  -1.35514214E+01  -1.31066899E+01  -1.12686832E+01  -1.38051823E+01  -9.28728911E+00  -8.67818885E+00  -1.09541171E+01  -1.45948415E+01  -2.35427894E+00  -4.89219816E+00  -3.25117353E+00  -4.15338045E+00  -8.59811798E+00  -2.97977587E+00  -4.93586063E+00  -7.08403315E+00  -6.75990895E+00  -4.55916402E+00  -6.98731194E+00  -6.80768878E+00  -1.16164029E+01  -7.68630777E+00  -1.36041481E+01  -1.45950235E+02  -2.54526357E+01  -6.66969861E+00  -1.22521752E+01  -1.20943349E+01  -8.03185391E+00  -3.20895086E+00  -9.94546268E+00  -3.68283315E+00  -6.27010585E+01  -1.28588146E+01  -8.44544666E+00  -1.93566011E+00  -4.50718201E+01  -6.64860029E+00  -7.94265227E+00  -4.74564006E+00  -8.25595321E+00  -7.37986876E+00  -7.73917163E+00  -8.14782135E+00  -1.00545200E+01  -8.85269147E+00  -7.17980154E+00  -6.35934076E+00  -1.23283830E+01  -6.18662181E+00  -1.44524064E+01  -6.90177193E+00  -1.02573136E+01  -1.51113190E+01  -1.51115799E+01  -2.05291428E+01  -1.15678529E+01  -2.04230267E+01  -2.04233259E+01  -2.97359757E+01  -3.10720555E+01
   9.62500000E+01   5.00000000E-01   5.00000000E-01  -7.25688416E+00  -1.51949892E+01  -3.48341492E+00  -1.30624571E+00  -2.00583956E+00  -3.60297271E+00  -2.03906122E+01  -7.09041120E+00  -5.10583468E+00  -4.61167818E+00  -5.86031814E+00  -4.47121076E+00  -5.71013942E+00  -8.84362285E+00  -8.91755914E+00  -2.61980950E-01  -4.16733753E+00  -1.95165481E+00  -2.47634951E+01  -3.34611778E-01  -1.81703970E+00  -7.74460255E+00  -3.39778748E+00  -5.94010615E+00  -4.40878285E+00  -2.90544591E+00  -8.67384410E+00  -1.34765995E+01  -1.29748426E+01  -1.11884760E+01  -1.36710384E+01  -9.25439897E+00  -8.64868065E+00  -1.09670624E+01  -1.45483305E+01  -2.35730842E+00  -4.93688935E+00  -3.24181126E+00  -4.16046531E+00  -8.57708748E+00  -2.97133388E+00  -4.83887227E+00  -7.00181865E+00  -6.68740739E+00  -4.47333055E+00  -6.99029537E+00  -6.80625937E+00  -1.16217491E+01  -7.67533825E+00  -1.36006490E+01  -1.45002917E+02  -2.51549301E+01  -6.62781158E+00  -1.21433869E+01  -1.19918622E+01  -7.95147709E+00  -3.20852285E+00  -9.94133474E+00  -3.68194008E+00  -6.22721585E+01  -1.27730296E+01  -8.45591402E+00  -1.94081316E+00  -4.48069715E+01  -6.64627495E+00  -7.98130818E+00  -4.71668400E+00  -8.13361869E+00  -7.31914883E+00  -7.73970069E+00  -8.13788234E+00  -1.01064453E+01  -8.88286537E+00  -7.16490093E+00  -6.35743047E+00  -1.23097084E+01  -6.18238656E+00  -1.42444651E+01  -6.86300437E+00  -1.02408308E+01  -1.50839202E+01  -1.50841828E+01  -2.04934362E+01  -1.14997133E+01  -2.03878735E+01  -2.03881763E+01  -2.96607871E+01  -3.08568216E+01
   1.13750000E+02   5.00000000E-01   5.00000000E-01  -7.20251228E+00  -1.50833722E+01  -3.44599793E+00  -1.30846715E+00  -1.99864251E+00  -3.53481142E+00  -2.02880687E+01  -7.06490138E+00  -5.10636815E+00  -4.61161779E+00  -5.86041661E+00  -4.40414829E+00  -5.64555037E+00  -8.84289927E+00  -8.91817067E+00  -2.61921665E-01  -4.16726635E+00  -1.95163878E+00  -2.45096842E+01  -3.34435475E-01  -1.81404974E+00  -7.74453616E+00  -3.39771647E+00  -5.95091493E+00  -4.40871184E+00  -2.87823791E+00  -8.67337834E+00  -1.34086999E+01  -1.28678270E+01  -1.11200105E+01  -1.35681835E+01  -9.21713663E+00  -8.61496801E+00  -1.09691793E+01  -1.44918980E+01  -2.36017179E+00  -4.97495823E+00  -3.23222427E+00  -4.16680503E+00  -8.54997728E+00  -2.96288125E+00  -4.75469660E+00  -6.93194717E+00  -6.62141727E+00  -4.40039710E+00  -6.98718585E+00  -6.80452928E+00  -1.16207298E+01  -7.66433860E+00  -1.35910059E+01  -1.44077461E+02  -2.48729050E+01  -6.59222206E+00  -1.20477707E+01  -1.19074589E+01  -7.87812529E+00  -3.20778096E+00  -9.93091798E+00  -3.68091341E+00  -6.18533185E+01  -1.26986985E+01  -8.45969599E+00  -1.94570411E+00  -4.45445532E+01  -6.64331514E+00  -8.01239463E+00  -4.69359741E+00  -8.03070136E+00  -7.27076456E+00  -7.74544535E+00  -8.12731028E+00  -1.01515598E+01  -8.90620827E+00  -7.14954885E+00  -6.35518656E+00  -1.22849197E+01  -6.17815869E+00  -1.40793064E+01  -6.83820050E+00  -1.02319436E+01  -1.50678933E+01  -1.50681565E+01  -2.04729231E+01  -1.14593776E+01  -2.03679094E+01  -2.03682145E+01  -2.96082648E+01  -3.06782847E+01
   1.31250000E+02   5.00000000E-01   5.00000000E-01  -7.15305607E+00  -1.49990352E+01  -3.41270948E+00  -1.31066448E+00  -1.99159174E+00  -3.47618082E+00  -2.01996357E+01  -7.03795972E+00  -5.10691840E+00  -4.61154708E+00  -5.86050751E+00  -4.34602533E+00  -5.58930692E+00  -8.84216454E+00  -8.91877120E+00  -2.61851384E-01  -4.16718304E+00  -1.95162878E+00  -2.42630190E+01  -3.34258449E-01  -1.81130224E+00  -7.74445764E+00  -3.39763334E+00  -5.96152606E+00  -4.40862871E+00  -2.85686857E+00  -8.67303964E+00  -1.33455636E+01  -1.27791907E+01  -1.10611531E+01  -1.34880029E+01  -9.17808696E+00  -8.57956353E+00  -1.09652073E+01  -1.44301948E+01  -2.36293873E+00  -5.00862500E+00  -3.22242360E+00  -4.17242961E+00  -8.51893997E+00  -2.95442400E+00  -4.67980842E+00  -6.87091114E+00  -6.56056300E+00  -4.33683526E+00  -6.98012883E+00  -6.80251362E+00  -1.16155053E+01  -7.65331665E+00  -1.35773734E+01  -1.43169413E+02  -2.46021954E+01  -6.56092304E+00  -1.19611604E+01  -1.18368393E+01  -7.80962981E+00  -3.20674170E+00  -9.91637206E+00  -3.67975679E+00  -6.14423369E+01  -1.26337025E+01  -8.45896296E+00  -1.95033799E+00  -4.42845326E+01  -6.63988930E+00  -8.03825206E+00  -4.67508948E+00  -7.94165141E+00  -7.23133765E+00  -7.75520048E+00  -8.11627781E+00  -1.01921628E+01  -8.92496045E+00  -7.13383297E+00  -6.35262450E+00  -1.22561725E+01  -6.17394648E+00  -1.39438968E+01  -6.82076393E+00  -1.02262152E+01  -1.50565842E+01  -1.50568475E+01  -2.04587302E+01  -1.14336558E+01  -2.03542610E+01  -2.03545671E+01  -2.95651075E+01  -3.05234478E+01
   1.48750000E+02   5.00000000E-01   5.00000000E-01  -7.10694599E+00  -1.49334612E+01  -3.38207255E+00  -1.31285058E+00  -1.98468174E+00  -3.42480476E+00  -2.01206119E+01  -7.01072207E+00  -5.10748410E+00  -4.61146642E+00  -5.86059128E+00  -4.29472802E+00  -5.53949065E+00  -8.84141910E+00  -8.91936117E+00  -2.61770535E-01  -4.16708804E+00  -1.95162445E+00  -2.40218857E+01  -3.34078882E-01  -1.80878299E+00  -7.74436742E+00  -3.39753852E+00  -5.97208615E+00  -4.40853389E+00  -2.83867414E+00  -8.67281200E+00  -1.32856334E+01  -1.27035437E+01  -1.10096285E+01  -1.34235466E+01  -9.13847236E+00  -8.54361740E+00  -1.09579215E+01  -1.43659080E+01  -2.36567905E+00  -5.03950830E+00  -3.21241999E+00  -4.17736796E+00  -8.48552635E+00  -2.94596823E+00  -4.61194696E+00  -6.81646665E+00  -6.50413175E+00  -4.28038137E+00  -6.97066819E+00  -6.80022680E+00  -1.16076335E+01  -7.64227978E+00  -1.35613038E+01  -1.42275527E+02  -2.43396420E+01  -6.53250843E+00  -1.18805929E+01  -1.17761779E+01  -7.74442450E+00  -3.20542089E+00  -9.89925444E+00  -3.67847400E+00  -6.10376149E+01  -1.25757804E+01  -8.45528323E+00  -1.95472044E+00  -4.40268777E+01  -6.63616420E+00  -8.06061659E+00  -4.66053167E+00  -7.86278527E+00  -7.19875362E+00  -7.76842214E+00  -8.10495549E+00  -1.02299508E+01  -8.94075974E+00  -7.11784035E+00  -6.34975919E+00  -1.22250204E+01  -6.16975808E+00  -1.38285824E+01  -6.80692406E+00  -1.02214323E+01  -1.50466743E+01  -1.50469370E+01  -2.04464315E+01  -1.14150092E+01  -2.03425019E+01  -2.03428083E+01  -2.95246835E+01  -3.03834349E+01
   1.66250000E+02   5.00000000E-01   5.00000000E-01  -7.06313072E+00  -1.48805979E+01  -3.35311630E+00  -1.31503464E+00  -1.97790732E+00  -3.37914161E+00  -2.00478505E+01  -6.98370837E+00  -5.10806410E+00  -4.61137615E+00  -5.86066834E+00  -4.24881305E+00  -5.49477639E+00  -8.84066334E+00  -8.91994101E+00  -2.61679518E-01  -4.16698176E+00  -1.95162548E+00  -2.37851899E+01  -3.33895586E-01  -1.80647854E+00  -7.74426593E+00  -3.39743241E+00  -5.98271727E+00  -4.40842778E+00  -2.82211382E+00  -8.67267875E+00  -1.32278698E+01  -1.26369244E+01  -1.09635543E+01  -1.33698109E+01  -9.09888743E+00  -8.50766329E+00  -1.09489516E+01  -1.43005908E+01  -2.36845133E+00  -5.06869813E+00  -3.20222381E+00  -4.18164797E+00  -8.45076969E+00  -2.93752004E+00  -4.54958527E+00  -6.76710298E+00  -6.45162713E+00  -4.22950591E+00  -6.95983055E+00  -6.79768260E+00  -1.15981546E+01  -7.63123502E+00  -1.35438320E+01  -1.41393596E+02  -2.40831219E+01  -6.50606511E+00  -1.18041155E+01  -1.17225597E+01  -7.68146144E+00  -3.20383370E+00  -9.88060474E+00  -3.67706887E+00  -6.06380721E+01  -1.25230642E+01  -8.44970733E+00  -1.95885767E+00  -4.37715574E+01  -6.63228131E+00  -8.08068073E+00  -4.64950013E+00  -7.79164694E+00  -7.17160748E+00  -7.78475764E+00  -8.09348816E+00  -1.02660779E+01  -8.95471454E+00  -7.10164618E+00  -6.34660499E+00  -1.21924992E+01  -6.16560147E+00  -1.37267804E+01  -6.79463823E+00  -1.02165915E+01  -1.50366594E+01  -1.50369211E+01  -2.04340205E+01  -1.13993549E+01  -2.03306258E+01  -2.03309318E+01  -2.94839897E+01  -3.02525625E+01
   1.83750000E+02   5.00000000E-01   5.00000000E-01  -7.02093110E+00  -1.48363293E+01  -3.32522888E+00  -1.31722287E+00  -1.97126362E+00  -3.33810181E+00  -1.99793212E+01  -6.95715663E+00  -5.10865739E+00  -4.61127659E+00  -5.86073908E+00  -4.20725100E+00  -5.45421034E+00  -8.83989765E+00  -8.92051108E+00  -2.61578707E-01  -4.16686457E+00  -1.95163154E+00  -2.35522108E+01  -3.33707845E-01  -1.80437616E+00  -7.74415353E+00  -3.39731540E+00  -5.99351378E+00  -4.40831078E+00  -2.80633932E+00  -8.67262275E+00  -1.31716048E+01  -1.25765636E+01  -1.09214967E+01  -1.33233564E+01  -9.05963171E+00  -8.47195234E+00  -1.09392607E+01  -1.42351431E+01  -2.37130180E+00  -5.09690068E+00  -3.19184511E+00  -4.18529648E+00  -8.41533167E+00  -2.92908550E+00  -4.49164781E+00  -6.72176018E+00  -6.40263277E+00  -4.18313105E+00  -6.94827121E+00  -6.79489418E+00  -1.15877367E+01  -7.62018904E+00  -1.35256210E+01  -1.40522157E+02  -2.38312574E+01  -6.48102386E+00  -1.17304909E+01  -1.16738897E+01  -7.62006494E+00  -3.20199466E+00  -9.86109067E+00  -3.67554529E+00  -6.02430006E+01  -1.24741342E+01  -8.44291389E+00  -1.96275629E+00  -4.35185408E+01  -6.62835365E+00  -8.09923622E+00  -4.64163810E+00  -7.72657648E+00  -7.14891818E+00  -7.80390596E+00  -8.08199187E+00  -1.03012995E+01  -8.96754868E+00  -7.08531264E+00  -6.34317574E+00  -1.21592730E+01  -6.16148450E+00  -1.36341658E+01  -6.78287673E+00  -1.02113306E+01  -1.50259967E+01  -1.50262574E+01  -2.04207729E+01  -1.13846359E+01  -2.03179082E+01  -2.03182132E+01  -2.94419448E+01  -3.01273255E+01
   2.01250000E+02   5.00000000E-01   5.00000000E-01  -6.97991490E+00  -1.47979014E+01  -3.29803453E+00  -1.31941938E+00  -1.96474602E+00  -3.30088764E+00  -1.99137342E+01  -6.93117306E+00  -5.10926301E+00  -4.61116804E+00  -5.86080386E+00  -4.16928184E+00  -5.41708313E+00  -8.83912238E+00  -8.92107174E+00  -2.61468452E-01  -4.16673682E+00  -1.95164236E+00  -2.33224756E+01  -3.33515253E-01  -1.80246392E+00  -7.74403058E+00  -3.39718784E+00  -6.00454655E+00  -4.40818321E+00  -2.79090915E+00  -8.67262658E+00  -1.31164169E+01  -1.25205605E+01  -1.08823973E+01  -1.32818589E+01  -9.02086221E+00  -8.43660330E+00  -1.09294228E+01  -1.41700863E+01  -2.37426665E+00  -5.12456590E+00  -3.18129354E+00  -4.18833928E+00  -8.37962760E+00  -2.92067060E+00  -4.43735022E+00  -6.67966882E+00  -6.35677725E+00  -4.14047043E+00  -6.93639942E+00  -6.79187411E+00  -1.15768011E+01  -7.60914810E+00  -1.35070873E+01  -1.39660248E+02  -2.35831649E+01  -6.45703821E+00  -1.16589513E+01  -1.16286949E+01  -7.55980626E+00  -3.19991769E+00  -9.84113330E+00  -3.67390722E+00  -5.98519395E+01  -1.24279459E+01  -8.43533469E+00  -1.96642316E+00  -4.32677977E+01  -6.62446991E+00  -8.11680350E+00  -4.63662319E+00  -7.66642863E+00  -7.12997251E+00  -7.82558690E+00  -8.07055803E+00  -1.03361006E+01  -8.97972889E+00  -7.06889115E+00  -6.33948476E+00  -1.21257594E+01  -6.15741480E+00  -1.35479366E+01  -6.77117682E+00  -1.02056073E+01  -1.50146238E+01  -1.50148833E+01  -2.04066049E+01  -1.13699288E+01  -2.03042651E+01  -2.03045688E+01  -2.93984276E+01  -3.00056107E+01
   2.18750000E+02   5.00000000E-01   5.00000000E-01  -6.93980848E+00  -1.47634836E+01  -3.27130794E+00  -1.32162694E+00  -1.95835020E+00  -3.26689746E+00  -1.98502756E+01  -6.90580085E+00  -5.10988012E+00  -4.61105079E+00  -5.86086301E+00  -4.13432841E+00  -5.38285283E+00  -8.83833784E+00  -8.92162333E+00  -2.61349081E-01  -4.16659885E+00  -1.95165767E+00  -2.30956715E+01  -3.33317592E-01  -1.80073063E+00  -7.74389741E+00  -3.39705005E+00  -6.01586818E+00  -4.40804542E+00  -2.77561108E+00  -8.67267272E+00  -1.30620425E+01  -1.24676203E+01  -1.08454874E+01  -1.32437588E+01  -8.98266480E+00  -8.40167127E+00  -1.09197828E+01  -1.41057204E+01  -2.37737468E+00  -5.15197849E+00  -3.17057840E+00  -4.19080112E+00  -8.34391468E+00  -2.91228122E+00  -4.38610358E+00  -6.64025427E+00  -6.31372677E+00  -4.10093336E+00  -6.92446663E+00  -6.78863432E+00  -1.15656111E+01  -7.59811811E+00  -1.34884893E+01  -1.38807221E+02  -2.33382783E+01  -6.43390149E+00  -1.15890265E+01  -1.15859497E+01  -7.50041534E+00  -3.19761607E+00  -9.82099533E+00  -3.67215869E+00  -5.94645868E+01  -1.23837435E+01  -8.42724290E+00  -1.96986530E+00  -4.30192985E+01  -6.62069974E+00  -8.13372524E+00  -4.63416269E+00  -7.61039402E+00  -7.11423458E+00  -7.84953899E+00  -8.05925877E+00  -1.03707904E+01  -8.99155579E+00  -7.05242507E+00  -6.33554475E+00  -1.20922179E+01  -6.15339975E+00  -1.34662860E+01  -6.75937584E+00  -1.01995213E+01  -1.50026906E+01  -1.50029492E+01  -2.03917160E+01  -1.13549104E+01  -2.02898960E+01  -2.02901983E+01  -2.93537413E+01  -2.98861657E+01
   2.36250000E+02   5.00000000E-01   5.00000000E-01  -6.90043881E+00  -1.47318630E+01  -3.24491851E+00  -1.32384744E+00  -1.95207202E+00  -3.23566609E+00  -1.97884334E+01  -6.88105234E+00  -5.11050789E+00  -4.61092509E+00  -5.86091683E+00  -4.10194214E+00  -5.35109607E+00  -8.83754434E+00  -8.92216615E+00  -2.61220902E-01  -4.16645096E+00  -1.95167721E+00  -2.28715872E+01  -3.33114756E-01  -1.79916581E+00  -7.74375431E+00  -3.39690234E+00  -6.02751757E+00  -4.40789771E+00  -2.76035665E+00  -8.67274372E+00  -1.30083182E+01  -1.24168653E+01  -1.08102148E+01  -1.32080137E+01  -8.94508868E+00  -8.36717994E+00  -1.09105488E+01  -1.40422146E+01  -2.38064953E+00  -5.17931809E+00  -3.15970854E+00  -4.19270568E+00  -8.30834998E+00  -2.90392313E+00  -4.33745480E+00  -6.60307711E+00  -6.27318339E+00  -4.06406523E+00  -6.91262448E+00  -6.78518619E+00  -1.15543292E+01  -7.58710457E+00  -1.34699850E+01  -1.37962635E+02  -2.30962333E+01  -6.41149324E+00  -1.15204327E+01  -1.15449451E+01  -7.44172277E+00  -3.19510246E+00  -9.80083907E+00  -3.67030375E+00  -5.90807411E+01  -1.23409874E+01  -8.41881096E+00  -1.97308975E+00  -4.27730140E+01  -6.61709819E+00  -8.15022885E+00  -4.63399409E+00  -7.55788608E+00  -7.10129070E+00  -7.87552226E+00  -8.04815142E+00  -1.04055643E+01  -9.00322401E+00  -7.03595189E+00  -6.33136784E+00  -1.20588073E+01  -6.14944642E+00  -1.33880495E+01  -6.74745833E+00  -1.01932189E+01  -1.49904173E+01  -1.49906752E+01  -2.03763993E+01  -1.13395519E+01  -2.02750938E+01  -2.02753947E+01  -2.93083293E+01  -2.97682618E+01
   2.53750000E+02   5.00000000E-01   5.00000000E-01  -6.86169654E+00  -1.47022410E+01  -3.21879499E+00  -1.32608227E+00  -1.94590760E+00  -3.20682618E+00  -1.97278863E+01  -6.85692461E+00  -5.11114551E+00  -4.61079119E+00  -5.86096562E+00  -4.07176746E+00  -5.32147584E+00  -8.83674217E+00  -8.92270049E+00  -2.61084205E-01  -4.16629342E+00  -1.95170075E+00  -2.26500765E+01  -3.32906696E-01  -1.79775968E+00  -7.74360157E+00  -3.39674499E+00  -6.03952323E+00  -4.40774036E+00  -2.74512073E+00  -8.67282239E+00  -1.29551437E+01  -1.23677046E+01  -1.07761870E+01  -1.31739317E+01  -8.90816355E+00  -8.33313716E+00  -1.09018460E+01  -1.39796594E+01  -2.38411129E+00  -5.20669780E+00  -3.14869247E+00  -4.19407561E+00  -8.27302735E+00  -2.89560190E+00  -4.29104801E+00  -6.56779453E+00  -6.23488342E+00  -4.02950883E+00  -6.90096173E+00  -6.78154050E+00  -1.15430546E+01  -7.57611263E+00  -1.34516691E+01  -1.37126178E+02  -2.28567930E+01  -6.38974571E+00  -1.14530020E+01  -1.15051951E+01  -7.38362281E+00  -3.19238893E+00  -9.78076339E+00  -3.66834648E+00  -5.87002649E+01  -1.22992975E+01  -8.41014753E+00  -1.97610353E+00  -4.25289155E+01  -6.61370910E+00  -8.16646683E+00  -4.63588503E+00  -7.50846872E+00  -7.09081406E+00  -7.90331996E+00  -8.03728189E+00  -1.04405444E+01  -9.01486074E+00  -7.01950485E+00  -6.32696556E+00  -1.20256235E+01  -6.14556158E+00  -1.33124771E+01  -6.73547210E+00  -1.01868464E+01  -1.49780239E+01  -1.49782814E+01  -2.03609476E+01  -1.13239507E+01  -2.02601514E+01  -2.02604510E+01  -2.92626341E+01  -2.96514861E+01
   2.71250000E+02   5.00000000E-01   5.00000000E-01  -6.82351264E+00  -1.46740963E+01  -3.19290335E+00  -1.32833248E+00  -1.93985324E+00  -3.18008236E+00  -1.96684342E+01  -6.83340709E+00  -5.11179222E+00  -4.61064932E+00  -5.86100964E+00  -4.04351775E+00  -5.29371946E+00  -8.83593158E+00  -8.92322661E+00  -2.60939264E-01  -4.16612651E+00  -1.95172807E+00  -2.24310344E+01  -3.32693397E-01  -1.79650314E+00  -7.74343946E+00  -3.39657827E+00  -6.05190569E+00  -4.40757364E+00  -2.72990799E+00  -8.67289190E+00  -1.29024586E+01  -1.23197443E+01  -1.07431290E+01  -1.31410580E+01  -8.87190838E+00  -8.29954259E+00  -1.08937492E+01  -1.39180975E+01  -2.38777759E+00  -5.23418858E+00  -3.13753827E+00  -4.19493257E+00  -8.23800069E+00  -2.88732292E+00  -4.24659872E+00  -6.53413452E+00  -6.19859486E+00  -3.99697849E+00  -6.88952749E+00  -6.77770751E+00  -1.15318465E+01  -7.56514706E+00  -1.34335965E+01  -1.36297619E+02  -2.26198018E+01  -6.36862295E+00  -1.13866379E+01  -1.14663709E+01  -7.32605009E+00  -3.18948697E+00  -9.76082700E+00  -3.66629097E+00  -5.83230613E+01  -1.22584102E+01  -8.40132072E+00  -1.97891361E+00  -4.22869746E+01  -6.61056748E+00  -8.18254248E+00  -4.63963189E+00  -7.46180971E+00  -7.08254135E+00  -7.93273848E+00  -8.02668717E+00  -1.04758049E+01  -9.02655018E+00  -7.00311402E+00  -6.32234887E+00  -1.19927219E+01  -6.14175163E+00  -1.32390872E+01  -6.72348442E+00  -1.01805294E+01  -1.49656990E+01  -1.49659568E+01  -2.03456124E+01  -1.13082435E+01  -2.02453202E+01  -2.02456188E+01  -2.92170363E+01  -2.95356144E+01
   2.88750000E+02   5.00000000E-01   5.00000000E-01  -6.78584372E+00  -1.46470955E+01  -3.16723274E+00  -1.33059893E+00  -1.93390543E+00  -3.15519346E+00  -1.96099538E+01  -6.81048547E+00  -5.11244725E+00  -4.61049969E+00  -5.86104913E+00  -4.01695860E+00  -5.26760323E+00  -8.83511281E+00  -8.92374477E+00  -2.60786337E-01  -4.16595048E+00  -1.95175896E+00  -2.22143827E+01  -3.32474856E-01  -1.79538767E+00  -7.74326823E+00  -3.39640242E+00  -6.06467917E+00  -4.40739779E+00  -2.71473484E+00  -8.67293594E+00  -1.28502274E+01  -1.22727271E+01  -1.07108515E+01  -1.31091000E+01  -8.83633602E+00  -8.26639161E+00  -1.08863017E+01  -1.38575426E+01  -2.39166431E+00  -5.26183469E+00  -3.12625367E+00  -4.19529723E+00  -8.20329868E+00  -2.87909137E+00  -4.20387609E+00  -6.50187813E+00  -6.16411432E+00  -3.96624234E+00  -6.87834599E+00  -6.77369693E+00  -1.15207383E+01  -7.55421228E+00  -1.34157965E+01  -1.35476781E+02  -2.23851556E+01  -6.34810778E+00  -1.13212883E+01  -1.14282544E+01  -7.26896486E+00  -3.18640749E+00  -9.74106316E+00  -3.66414128E+00  -5.79490590E+01  -1.22181469E+01  -8.39237283E+00  -1.98152685E+00  -4.20471636E+01  -6.60770127E+00  -8.19852631E+00  -4.64505744E+00  -7.41764981E+00  -7.07625660E+00  -7.96360589E+00  -8.01639699E+00  -1.05113889E+01  -9.03834891E+00  -6.98680711E+00  -6.31752817E+00  -1.19601328E+01  -6.13802261E+00  -1.31675728E+01  -6.71156070E+00  -1.01743661E+01  -1.49535908E+01  -1.49538493E+01  -2.03305907E+01  -1.12925628E+01  -2.02307969E+01  -2.02310950E+01  -2.91718341E+01  -2.94205347E+01
   3.06250000E+02   5.00000000E-01   5.00000000E-01  -6.74866271E+00  -1.46210314E+01  -3.14178678E+00  -1.33288235E+00  -1.92806081E+00  -3.13195993E+00  -1.95523708E+01  -6.78814368E+00  -5.11310982E+00  -4.61034251E+00  -5.86108434E+00  -3.99189588E+00  -5.24294131E+00  -8.83428610E+00  -8.92425521E+00  -2.60625668E-01  -4.16576555E+00  -1.95179324E+00  -2.20000603E+01  -3.32251077E-01  -1.79440531E+00  -7.74308811E+00  -3.39621768E+00  -6.07785281E+00  -4.40721305E+00  -2.69962027E+00  -8.67293879E+00  -1.27984309E+01  -1.22264893E+01  -1.06792269E+01  -1.30778749E+01  -8.80145573E+00  -8.23367732E+00  -1.08795272E+01  -1.37979908E+01  -2.39578613E+00  -5.28966340E+00  -3.11484602E+00  -4.19518934E+00  -8.16893402E+00  -2.87091220E+00  -4.16269034E+00  -6.47084696E+00  -6.13126376E+00  -3.93710969E+00  -6.86742579E+00  -6.76951798E+00  -1.15097475E+01  -7.54331238E+00  -1.33982825E+01  -1.34663521E+02  -2.21527833E+01  -6.32819369E+00  -1.12569273E+01  -1.13907050E+01  -7.21234365E+00  -3.18316088E+00  -9.72148901E+00  -3.66190143E+00  -5.75782033E+01  -1.21783906E+01  -8.38332968E+00  -1.98394999E+00  -4.18094550E+01  -6.60513251E+00  -8.21446663E+00  -4.65200809E+00  -7.37578207E+00  -7.07177988E+00  -7.99576997E+00  -8.00643506E+00  -1.05473184E+01  -9.05029573E+00  -6.97060992E+00  -6.31251331E+00  -1.19278701E+01  -6.13438020E+00  -1.30977405E+01  -6.69975541E+00  -1.01684279E+01  -1.49418065E+01  -1.49420666E+01  -2.03160251E+01  -1.12770193E+01  -2.02167245E+01  -2.02170226E+01  -2.91272446E+01  -2.93062006E+01