 TITLE = "Total Concentrations" 
VARIABLES = "X"          "Y"              "Z"            "H+"             "Al+++"          "CO2(aq)"        "Mg++"           "Ca++"           "Fe++"           "Fe+++"          "Ba++"           "Sr++"           "Cl-"            "F-"             "K+"             "HS-"            "Na+"            "SO4--"          "O2(aq)"         "B(OH)3(aq)"     "HPO4--"         "NO3-"           "H4SiO4(aq)"     "HNO3(aq)"       "Al(OH)2+"       "AlO2-"          "AlOH++"         "BaHCO3+"        "BaCl+"          "BaCO3(aq)"      "BaOH+"          "HCO3-"          "CO3--"          "CaCl+"          "CaCl2(aq)"      "CaOH+"          "CaSO4(aq)"      "FeCl+"          "FeCl2(aq)"      "FeOH+"          "FeSO4(aq)"      "OH-"            "S2O3--"         "H2S(aq)"        "H2PO4-"         "H3PO4(aq)"      "HAlO2(aq)"      "HSO4-"          "KCl(aq)"        "KOH(aq)"        "KSO4-"          "NH3(aq)"        "NaAlO2(aq)"     "NaOH(aq)"       "NaSO4-"         "H2(aq)"         "CaHPO4(aq)"     "CaPO4-"         "FeCO3(aq)"      "FeH2PO4+"       "FeHPO4(aq)"     "FePO4-"         "KHPO4-"         "PO4---"         "Sr(CO3)(aq)"    "SrHCO3+"        "SrCl+"          "SrOH+"          "SrSO4(aq)"      "AlH3SiO4++"     "Si2O2(OH)5-"    "Si2O3(OH)4--"   "Si3O5(OH)5---"  "Si3O6(OH)3---"  "Si4O12H4----"   "Si4O6(OH)6--"   "Si4O7(OH)6----" "Si4O8(OH)4----" "Si6O15------"   "SiF6--"        
 ZONE I=         100 , J=           1 , K=           1  F=POINT
   1.75000000E+01   5.00000000E-01   5.00000000E-01  -7.71218041E+00  -1.77137948E+01  -3.85681754E+00  -1.30692885E+00  -2.01303318E+00  -3.30649631E+00  -1.16717958E+01  -6.71262735E+00  -5.10353890E+00  -2.62158086E-01  -4.16748106E+00  -1.95177166E+00  -1.00257028E+01  -3.35230149E-01  -1.83595229E+00  -7.74477379E+00  -3.39792999E+00  -5.94083155E+00  -4.40892536E+00  -2.76740301E+00  -1.39904086E+01  -1.50634147E+01  -1.26961324E+01  -1.59436561E+01  -8.92936442E+00  -8.30408895E+00  -1.02621819E+01  -1.41128032E+01  -2.34810905E+00  -4.56690504E+00  -3.25477747E+00  -4.09496054E+00  -8.47397602E+00  -2.98367755E+00  -4.61094672E+00  -6.70337150E+00  -6.17707068E+00  -4.19770197E+00  -6.80640415E+00  -1.49689155E+02  -1.07447193E+01  -7.04203535E+00  -1.30354337E+01  -1.37720647E+01  -8.49326080E+00  -3.20759568E+00  -9.78750388E+00  -3.68666846E+00  -6.44044545E+01  -1.43029442E+01  -8.23293913E+00  -1.91711437E+00  -4.60182900E+01  -6.67755053E+00  -7.65072805E+00  -4.01073520E+00  -8.24813306E+00  -6.97762908E+00  -6.94364722E+00  -8.23064566E+00  -9.75041729E+00  -8.57576740E+00  -7.23359121E+00  -6.36293282E+00  -1.22226749E+01  -6.20290176E+00  -1.65534708E+01  -6.25104025E+00  -9.35580893E+00  -1.37683868E+01  -1.37686313E+01  -1.87357020E+01  -1.02325722E+01  -1.86276166E+01  -1.86278886E+01  -2.71215565E+01  -3.22180146E+01
   5.25000000E+01   5.00000000E-01   5.00000000E-01  -7.58948385E+00  -1.75803643E+01  -3.77221838E+00  -1.31803978E+00  -1.97780343E+00  -3.14030323E+00  -1.17914076E+01  -6.71305432E+00  -5.10438788E+00  -2.62158533E-01  -4.16743256E+00  -1.95165156E+00  -9.99149897E+00  -3.34853247E-01  -1.82881339E+00  -7.74478179E+00  -3.39788149E+00  -5.96521042E+00  -4.40887686E+00  -2.58569731E+00  -1.38421151E+01  -1.49593618E+01  -1.26880728E+01  -1.58391615E+01  -8.90688581E+00  -8.29049463E+00  -1.03271111E+01  -1.40563036E+01  -2.35201994E+00  -4.64987561E+00  -3.21800055E+00  -4.09443891E+00  -8.40583334E+00  -2.94841655E+00  -4.41500590E+00  -6.54001789E+00  -6.02485505E+00  -4.02452939E+00  -6.80583779E+00  -1.47749508E+02  -1.06466003E+01  -6.96341945E+00  -1.28246692E+01  -1.37244936E+01  -8.33421684E+00  -3.20879461E+00  -9.77401376E+00  -3.68675591E+00  -6.35285375E+01  -1.42856405E+01  -8.25121868E+00  -1.93013783E+00  -4.54735586E+01  -6.65736118E+00  -7.71138644E+00  -3.94648937E+00  -8.00456593E+00  -6.85699907E+00  -6.94552416E+00  -8.21482562E+00  -9.85217734E+00  -8.63108514E+00  -7.20350839E+00  -6.36125053E+00  -1.21789684E+01  -6.19545591E+00  -1.61863455E+01  -5.95573645E+00  -9.10040368E+00  -1.33801156E+01  -1.33803719E+01  -1.82193901E+01  -9.66155341E+00  -1.81124360E+01  -1.81127266E+01  -2.63049950E+01  -3.16936545E+01
   8.75000000E+01   5.00000000E-01   5.00000000E-01  -7.49011676E+00  -1.74665059E+01  -3.70569466E+00  -1.32695422E+00  -1.94612792E+00  -3.08747132E+00  -1.18322669E+01  -6.71350774E+00  -5.10534846E+00  -2.62102271E-01  -4.16732927E+00  -1.95156682E+00  -9.95880265E+00  -3.34590269E-01  -1.82253594E+00  -7.74473512E+00  -3.39777820E+00  -5.97621684E+00  -4.40877357E+00  -2.50980108E+00  -1.37163645E+01  -1.48321415E+01  -1.26147976E+01  -1.57321913E+01  -8.88099905E+00  -8.27568122E+00  -1.03680309E+01  -1.39810988E+01  -2.35377384E+00  -4.71009728E+00  -3.18309889E+00  -4.09352203E+00  -8.32149297E+00  -2.91564984E+00  -4.33122642E+00  -6.48677210E+00  -5.96485819E+00  -3.96361168E+00  -6.78620191E+00  -1.45887791E+02  -1.05699854E+01  -6.89281521E+00  -1.26442653E+01  -1.36317990E+01  -8.19790542E+00  -3.20858279E+00  -9.74054349E+00  -3.68597243E+00  -6.26881764E+01  -1.42019123E+01  -8.24788757E+00  -1.94183585E+00  -4.49389006E+01  -6.62535038E+00  -7.73748777E+00  -3.97025707E+00  -7.88259456E+00  -6.83468277E+00  -7.02222813E+00  -8.18424035E+00  -9.91990262E+00  -8.66267839E+00  -7.16997480E+00  -6.35810687E+00  -1.21160413E+01  -6.18769790E+00  -1.59280889E+01  -5.85130134E+00  -9.01552707E+00  -1.32475112E+01  -1.32477731E+01  -1.80441477E+01  -9.47173517E+00  -1.79383088E+01  -1.79386100E+01  -2.59992456E+01  -3.13601852E+01
   1.22500000E+02   5.00000000E-01   5.00000000E-01  -7.39278222E+00  -1.73145574E+01  -3.63833326E+00  -1.33514576E+00  -1.91681932E+00  -3.05808997E+00  -1.18677690E+01  -6.71397421E+00  -5.10638233E+00  -2.61998582E-01  -4.16717548E+00  -1.95151052E+00  -9.93045145E+00  -3.34398016E-01  -1.81723038E+00  -7.74463805E+00  -3.39762441E+00  -5.98652977E+00  -4.40861978E+00  -2.46238532E+00  -1.35919621E+01  -1.46665675E+01  -1.25034978E+01  -1.55863551E+01  -8.85401964E+00  -8.25975404E+00  -1.04083919E+01  -1.39083002E+01  -2.35556097E+00  -4.77088607E+00  -3.14902436E+00  -4.09131519E+00  -8.24094112E+00  -2.88449611E+00  -4.26983004E+00  -6.45399803E+00  -5.92840402E+00  -3.92535229E+00  -6.76856730E+00  -1.44060941E+02  -1.04966177E+01  -6.82173877E+00  -1.24645449E+01  -1.35000344E+01  -8.06328402E+00  -3.20708769E+00  -9.70826815E+00  -3.68456574E+00  -6.18618051E+01  -1.40790414E+01  -8.24419837E+00  -1.95245020E+00  -4.44140333E+01  -6.59320326E+00  -7.76202727E+00  -4.01566977E+00  -7.78379915E+00  -6.83353960E+00  -7.11793720E+00  -8.15176548E+00  -9.98742372E+00  -8.69397213E+00  -7.13529717E+00  -6.35359845E+00  -1.20550121E+01  -6.17987312E+00  -1.56646382E+01  -5.80428811E+00  -8.98893930E+00  -1.32022452E+01  -1.32025085E+01  -1.79854931E+01  -9.39625779E+00  -1.78807522E+01  -1.78810580E+01  -2.58678171E+01  -3.10557025E+01
   1.57500000E+02   5.00000000E-01   5.00000000E-01  -7.27990376E+00  -1.70205868E+01  -3.55428776E+00  -1.34329117E+00  -1.88867586E+00  -3.01368447E+00  -1.19561970E+01  -6.71444380E+00  -5.10745645E+00  -2.61856379E-01  -4.16697485E+00  -1.95147646E+00  -9.91009985E+00  -3.34368677E-01  -1.81293340E+00  -7.74449426E+00  -3.39742378E+00  -6.00313013E+00  -4.40841915E+00  -2.41811192E+00  -1.34514354E+01  -1.43937629E+01  -1.23202481E+01  -1.53152768E+01  -8.82761971E+00  -8.24282877E+00  -1.04673033E+01  -1.38553240E+01  -2.35892253E+00  -4.85118746E+00  -3.11471645E+00  -4.08691485E+00  -8.18044461E+00  -2.85400721E+00  -4.19247630E+00  -6.40350154E+00  -5.89454402E+00  -3.87153742E+00  -6.77029767E+00  -1.42233242E+02  -1.04127734E+01  -6.73973472E+00  -1.22575800E+01  -1.32778577E+01  -7.91296017E+00  -3.20444364E+00  -9.69466228E+00  -3.68271963E+00  -6.10316109E+01  -1.38833304E+01  -8.25782658E+00  -1.96229065E+00  -4.38986971E+01  -6.56691432E+00  -7.80857563E+00  -4.06344109E+00  -7.65923801E+00  -6.82220037E+00  -7.21886772E+00  -8.12458034E+00  -1.00791347E+01  -8.74405144E+00  -7.10113943E+00  -6.34783307E+00  -1.20133041E+01  -6.17218434E+00  -1.52839501E+01  -5.78149462E+00  -9.00491542E+00  -1.32207397E+01  -1.32210020E+01  -1.80119794E+01  -9.36873860E+00  -1.79083179E+01  -1.79086242E+01  -2.58636055E+01  -3.06851133E+01
   1.92500000E+02   5.00000000E-01   5.00000000E-01  -7.18298045E+00  -1.68271434E+01  -3.48391610E+00  -1.35095513E+00  -1.86209032E+00  -2.97973598E+00  -1.19996448E+01  -6.71493557E+00  -5.10859032E+00  -2.61675630E-01  -4.16673054E+00  -1.95146344E+00  -9.89039930E+00  -3.34425308E-01  -1.80942958E+00  -7.74430690E+00  -3.39717947E+00  -6.02057847E+00  -4.40817484E+00  -2.38430413E+00  -1.33263815E+01  -1.41931899E+01  -1.21813244E+01  -1.51299879E+01  -8.80063236E+00  -8.22503692E+00  -1.05119732E+01  -1.37905520E+01  -2.36253910E+00  -4.91801867E+00  -3.08069395E+00  -4.08098164E+00  -8.10879752E+00  -2.82457203E+00  -4.12476529E+00  -6.36101443E+00  -5.85721507E+00  -3.82765104E+00  -6.75969535E+00  -1.40466650E+02  -1.03427907E+01  -6.67299784E+00  -1.20811617E+01  -1.31131968E+01  -7.77835795E+00  -3.20077603E+00  -9.66813903E+00  -3.68036578E+00  -6.02288700E+01  -1.37311069E+01  -8.25720324E+00  -1.97123871E+00  -4.33926456E+01  -6.54164727E+00  -7.84079170E+00  -4.10630437E+00  -7.56058091E+00  -6.82083709E+00  -7.31369679E+00  -8.09743662E+00  -1.01579350E+01  -8.78012355E+00  -7.06634888E+00  -6.34095711E+00  -1.19593280E+01  -6.16463143E+00  -1.50040678E+01  -5.76596270E+00  -9.01489797E+00  -1.32301599E+01  -1.32304200E+01  -1.80264962E+01  -9.35527728E+00  -1.79238946E+01  -1.79241990E+01  -2.58409481E+01  -3.03822354E+01
   2.27500000E+02   5.00000000E-01   5.00000000E-01  -7.09931331E+00  -1.67188654E+01  -3.42441220E+00  -1.35831801E+00  -1.83711265E+00  -2.96099126E+00  -1.20068285E+01  -6.71545515E+00  -5.10978461E+00  -2.61457707E-01  -4.16644526E+00  -1.95146980E+00  -9.87092895E+00  -3.34474562E-01  -1.80661074E+00  -7.74407869E+00  -3.39689419E+00  -6.03745646E+00  -4.40788956E+00  -2.35673167E+00  -1.32141824E+01  -1.40547875E+01  -1.20818870E+01  -1.50178033E+01  -8.77290850E+00  -8.20647648E+00  -1.05448260E+01  -1.37165471E+01  -2.36614475E+00  -4.97367030E+00  -3.04711437E+00  -4.07379500E+00  -8.02864627E+00  -2.79629763E+00  -4.07154418E+00  -6.33149618E+00  -5.82381188E+00  -3.79850311E+00  -6.73927618E+00  -1.38754925E+02  -1.02837164E+01  -6.61752394E+00  -1.19286691E+01  -1.29986486E+01  -7.65678794E+00  -3.19618888E+00  -9.63130341E+00  -3.67751587E+00  -5.94506441E+01  -1.36175454E+01  -8.24492933E+00  -1.97923894E+00  -4.28956326E+01  -6.51619823E+00  -7.86017045E+00  -4.15148624E+00  -7.48855745E+00  -6.83287228E+00  -7.40855634E+00  -8.06907319E+00  -1.02249732E+01  -8.80460613E+00  -7.03078413E+00  -6.33307720E+00  -1.18956685E+01  -6.15725458E+00  -1.48077897E+01  -5.75184156E+00  -9.01564683E+00  -1.32256579E+01  -1.32259161E+01  -1.80225645E+01  -9.34419361E+00  -1.79210025E+01  -1.79213040E+01  -2.57902160E+01  -3.01325020E+01
   2.62500000E+02   5.00000000E-01   5.00000000E-01  -7.02045111E+00  -1.66334922E+01  -3.36791931E+00  -1.36567859E+00  -1.81360384E+00  -2.95079777E+00  -1.20046780E+01  -6.71600168E+00  -5.11102877E+00  -2.61205571E-01  -4.16612139E+00  -1.95149319E+00  -9.85331766E+00  -3.34487155E-01  -1.80442816E+00  -7.74381199E+00  -3.39657032E+00  -6.05513497E+00  -4.40756569E+00  -2.33155345E+00  -1.31064596E+01  -1.39331041E+01  -1.19932210E+01  -1.49248916E+01  -8.74499549E+00  -8.18723241E+00  -1.05747430E+01  -1.36416247E+01  -2.37018674E+00  -5.02690902E+00  -3.01393889E+00  -4.06543028E+00  -7.94820503E+00  -2.76914624E+00  -4.02625333E+00  -6.30849223E+00  -5.79608371E+00  -3.77754781E+00  -6.71732098E+00  -1.37080454E+02  -1.02288829E+01  -6.56633697E+00  -1.17847491E+01  -1.28971742E+01  -7.53985777E+00  -3.19077823E+00  -9.59251617E+00  -3.67423025E+00  -5.86882467E+01  -1.35139997E+01  -8.22941934E+00  -1.98634777E+00  -4.24074205E+01  -6.49194862E+00  -7.87654262E+00  -4.20127327E+00  -7.42952746E+00  -6.85311223E+00  -7.50671295E+00  -8.04100140E+00  -1.02899486E+01  -8.82636887E+00  -6.99499452E+00  -6.32428140E+00  -1.18306566E+01  -6.15012760E+00  -1.46371754E+01  -5.73981374E+00  -9.01621030E+00  -1.32208169E+01  -1.32210744E+01  -1.80182823E+01  -9.33687216E+00  -1.79177388E+01  -1.79180379E+01  -2.57386306E+01  -2.98986853E+01
   2.97500000E+02   5.00000000E-01   5.00000000E-01  -6.94447466E+00  -1.65578041E+01  -3.31286066E+00  -1.37319292E+00  -1.79142453E+00  -2.94522883E+00  -1.19997791E+01  -6.71657670E+00  -5.11231575E+00  -2.60921857E-01  -4.16576097E+00  -1.95153151E+00  -9.83779827E+00  -3.34454516E-01  -1.80282874E+00  -7.74350886E+00  -3.39620990E+00  -6.07422861E+00  -4.40720527E+00  -2.30731442E+00  -1.30013610E+01  -1.38186699E+01  -1.19095398E+01  -1.48399307E+01  -8.71719294E+00  -8.16738639E+00  -1.06038347E+01  -1.35675787E+01  -2.37486977E+00  -5.07973489E+00  -2.98112133E+00  -4.05594839E+00  -7.86916099E+00  -2.74306621E+00  -3.98505200E+00  -6.28826029E+00  -5.77197651E+00  -3.76095125E+00  -6.69559000E+00  -1.35438697E+02  -1.01767487E+01  -6.51823058E+00  -1.16463447E+01  -1.28011883E+01  -7.42569542E+00  -3.18463405E+00  -9.55361197E+00  -3.67055855E+00  -5.79395314E+01  -1.34147651E+01  -8.21257542E+00  -1.99262985E+00  -4.19277817E+01  -6.46951443E+00  -7.89243861E+00  -4.25390058E+00  -7.37834914E+00  -6.87833204E+00  -7.60686754E+00  -8.01396452E+00  -1.03552764E+01  -8.84751179E+00  -6.95928184E+00  -6.31465499E+00  -1.17661014E+01  -6.14331554E+00  -1.44791950E+01  -5.72880201E+00  -9.01734607E+00  -1.32167796E+01  -1.32170388E+01  -1.80151670E+01  -9.33117497E+00  -1.79156205E+01  -1.79159185E+01  -2.56885109E+01  -2.96720330E+01
   3.32500000E+02   5.00000000E-01   5.00000000E-01  -6.87080126E+00  -1.64879100E+01  -3.25890049E+00  -1.38093907E+00  -1.77045123E+00  -2.94232320E+00  -1.19942936E+01  -6.71718222E+00  -5.11364002E+00  -2.60608808E-01  -4.16536581E+00  -1.95158304E+00  -9.82432402E+00  -3.34374638E-01  -1.80175777E+00  -7.74317110E+00  -3.39581475E+00  -6.09495685E+00  -4.40681012E+00  -2.28359074E+00  -1.28983645E+01  -1.37086743E+01  -1.18290530E+01  -1.47595912E+01  -8.68970682E+00  -8.14701343E+00  -1.06327891E+01  -1.34948728E+01  -2.38031300E+00  -5.13273492E+00  -2.94862348E+00  -4.04540991E+00  -7.79188481E+00  -2.71800753E+00  -3.94605697E+00  -6.26900769E+00  -5.75006682E+00  -3.74683025E+00  -6.67451793E+00  -1.33827797E+02  -1.01268189E+01  -6.47293235E+00  -1.15126628E+01  -1.27084304E+01  -7.31375527E+00  -3.17783877E+00  -9.51509311E+00  -3.66654073E+00  -5.72036928E+01  -1.33181313E+01  -8.19496760E+00  -1.99814504E+00  -4.14564964E+01  -6.44911998E+00  -7.90865925E+00  -4.30814178E+00  -7.33278133E+00  -6.90687204E+00  -7.70794865E+00  -7.98829769E+00  -1.04216479E+01  -8.86871285E+00  -6.92385447E+00  -6.30427687E+00  -1.17024814E+01  -6.13687135E+00  -1.43298585E+01  -5.71845758E+00  -9.01920639E+00  -1.32137791E+01  -1.32140430E+01  -1.80135251E+01  -9.32641929E+00  -1.79149537E+01  -1.79152531E+01  -2.56403464E+01  -2.94501350E+01
   3.67500000E+02   5.00000000E-01   5.00000000E-01  -6.79916605E+00  -1.64219972E+01  -3.20598530E+00  -1.38895987E+00  -1.75057507E+00  -2.94107970E+00  -1.19892329E+01  -6.71782011E+00  -5.11499662E+00  -2.60268371E-01  -4.16493749E+00  -1.95164627E+00  -9.81280024E+00  -3.34247800E-01  -1.80116319E+00  -7.74280029E+00  -3.39538643E+00  -6.11737306E+00  -4.40638180E+00  -2.26032006E+00  -1.27972591E+01  -1.36017520E+01  -1.17507883E+01  -1.46823043E+01  -8.66270848E+00  -8.12618117E+00  -1.06619478E+01  -1.34236577E+01  -2.38660957E+00  -5.18616116E+00  -2.91641394E+00  -4.03387396E+00  -7.71644732E+00  -2.69392408E+00  -3.90833719E+00  -6.24988613E+00  -5.72957447E+00  -3.73425049E+00  -6.65423185E+00  -1.32246551E+02  -1.00788587E+01  -6.43031400E+00  -1.13833657E+01  -1.26177690E+01  -7.20380372E+00  -3.17046723E+00  -9.47714731E+00  -3.66221095E+00  -5.64802464E+01  -1.32232007E+01  -8.17684803E+00  -2.00294827E+00  -4.09933523E+01  -6.43082502E+00  -7.92552214E+00  -4.36338114E+00  -7.29168771E+00  -6.93785997E+00  -7.80935388E+00  -7.96415704E+00  -1.04892783E+01  -8.89030434E+00  -6.88888604E+00  -6.29321871E+00  -1.16399617E+01  -6.13083840E+00  -1.41873126E+01  -5.70884004E+00  -9.02203706E+00  -1.32121877E+01  -1.32124601E+01  -1.80138501E+01  -9.32273799E+00  -1.79162317E+01  -1.79165356E+01  -2.55949010E+01  -2.92321828E+01
   4.02500000E+02   5.00000000E-01   5.00000000E-01  -6.72941380E+00  -1.63590092E+01  -3.15415436E+00  -1.39728275E+00  -1.73169960E+00  -2.94095810E+00  -1.19851851E+01  -6.71849198E+00  -5.11638083E+00  -2.59902281E-01  -4.16447740E+00  -1.95171993E+00  -9.80312750E+00  -3.34075111E-01  -1.80099730E+00  -7.74239781E+00  -3.39492633E+00  -6.14145585E+00  -4.40592170E+00  -2.23754039E+00  -1.26979373E+01  -1.34970765E+01  -1.16741020E+01  -1.46071477E+01  -8.63635307E+00  -8.10495012E+00  -1.06915319E+01  -1.33539791E+01  -2.39384470E+00  -5.24015653E+00  -2.88446636E+00  -4.02139695E+00  -7.64282520E+00  -2.67077370E+00  -3.87141530E+00  -6.23049357E+00  -5.71007156E+00  -3.72272980E+00  -6.63475869E+00  -1.30693993E+02  -1.00327286E+01  -6.39027493E+00  -1.12582473E+01  -1.25285035E+01  -7.09571311E+00  -3.16258698E+00  -9.43985548E+00  -3.65759965E+00  -5.57688205E+01  -1.31293969E+01  -8.15835769E+00  -2.00709020E+00  -4.05381432E+01  -6.41461434E+00  -7.94315974E+00  -4.41934100E+00  -7.25442107E+00  -6.97080327E+00  -7.91075050E+00  -7.94161189E+00  -1.05582066E+01  -8.91249865E+00  -6.85453377E+00  -6.28154494E+00  -1.15786016E+01  -6.12525223E+00  -1.40504648E+01  -5.70010339E+00  -9.02607175E+00  -1.32123592E+01  -1.32126443E+01  -1.80166110E+01  -9.32045195E+00  -1.79199233E+01  -1.79202357E+01  -2.55528986E+01  -2.90178783E+01
   4.37500000E+02   5.00000000E-01   5.00000000E-01  -6.66144059E+00  -1.62982940E+01  -3.10348759E+00  -1.40592846E+00  -1.71373906E+00  -2.94165364E+00  -1.19825360E+01  -6.71919912E+00  -5.11778792E+00  -2.59512104E-01  -4.16398676E+00  -1.95180290E+00  -9.79521013E+00  -3.33857966E-01  -1.80121712E+00  -7.74196489E+00  -3.39443569E+00  -6.16714557E+00  -4.40543106E+00  -2.21529923E+00  -1.26003374E+01  -1.33941256E+01  -1.15985590E+01  -1.45335524E+01  -8.61078572E+00  -8.08337418E+00  -1.07217069E+01  -1.32858350E+01  -2.40210138E+00  -5.29481824E+00  -2.85275831E+00  -4.00803203E+00  -7.57095745E+00  -2.64851766E+00  -3.83504261E+00  -6.21064984E+00  -5.69131520E+00  -3.71201381E+00  -6.61608289E+00  -1.29169281E+02  -9.98833551E+00  -6.35272080E+00  -1.11371535E+01  -1.24401866E+01  -6.98940434E+00  -3.15425884E+00  -9.40324986E+00  -3.65273441E+00  -5.50690975E+01  -1.30363455E+01  -8.13958447E+00  -2.01061774E+00  -4.00906698E+01  -6.40043340E+00  -7.96161341E+00  -4.47592063E+00  -7.22057627E+00  -7.00540022E+00  -8.01194508E+00  -7.92068201E+00  -1.06283894E+01  -8.93545224E+00  -6.82094452E+00  -6.26931317E+00  -1.15184120E+01  -6.12014152E+00  -1.39185986E+01  -5.69237270E+00  -9.03146687E+00  -1.32145310E+01  -1.32148337E+01  -1.80221221E+01  -9.31982341E+00  -1.79263427E+01  -1.79266680E+01  -2.55148288E+01  -2.88071118E+01
   4.72500000E+02   5.00000000E-01   5.00000000E-01  -6.59517129E+00  -1.62394537E+01  -3.05408491E+00  -1.41491486E+00  -1.69661715E+00  -2.94299187E+00  -1.19815578E+01  -6.71994248E+00  -5.11921313E+00  -2.59099272E-01  -4.16346664E+00  -1.95189423E+00  -9.78895734E+00  -3.33597843E-01  -1.80178410E+00  -7.74150260E+00  -3.39391557E+00  -6.19435977E+00  -4.40491095E+00  -2.19362782E+00  -1.25044212E+01  -1.32925753E+01  -1.15238725E+01  -1.44611749E+01  -8.58614334E+00  -8.06150106E+00  -1.07526055E+01  -1.32191985E+01  -2.41146149E+00  -5.35022088E+00  -2.82127061E+00  -3.99382888E+00  -7.50076641E+00  -2.62712015E+00  -3.79909458E+00  -6.19029260E+00  -5.67316490E+00  -3.70197165E+00  -6.59816825E+00  -1.27671650E+02  -9.94561194E+00  -6.31755705E+00  -1.10199536E+01  -1.23525423E+01  -6.88482468E+00  -3.14553744E+00  -9.36733631E+00  -3.64764024E+00  -5.43807918E+01  -1.29438141E+01  -8.12058565E+00  -2.01357423E+00  -3.96507385E+01  -6.38820351E+00  -7.98087125E+00  -4.53311523E+00  -7.18987861E+00  -7.04145082E+00  -8.11281687E+00  -7.90135415E+00  -1.06997388E+01  -8.95928955E+00  -6.78825659E+00  -6.25657461E+00  -1.14593781E+01  -6.11552881E+00  -1.37912189E+01  -5.68571484E+00  -9.03829470E+00  -1.32188142E+01  -1.32191396E+01  -1.80305291E+01  -9.32099751E+00  -1.79356358E+01  -1.79359789E+01  -2.54809266E+01  -2.85998489E+01
   5.07500000E+02   5.00000000E-01   5.00000000E-01  -6.53054852E+00  -1.61822556E+01  -3.00605525E+00  -1.42425865E+00  -1.68026601E+00  -2.94487551E+00  -1.19824524E+01  -6.72072269E+00  -5.12065159E+00  -2.58665110E-01  -4.16291802E+00  -1.95199307E+00  -9.78428268E+00  -3.33296216E-01  -1.80266379E+00  -7.74101191E+00  -3.39336695E+00  -6.22300086E+00  -4.40436232E+00  -2.17253848E+00  -1.24101634E+01  -1.31922336E+01  -1.14498588E+01  -1.43898191E+01  -8.56255473E+00  -8.03937290E+00  -1.07843396E+01  -1.31540286E+01  -2.42200538E+00  -5.40642645E+00  -2.78998682E+00  -3.97883389E+00  -7.43216782E+00  -2.60654784E+00  -3.76351819E+00  -6.16942524E+00  -5.65554043E+00  -3.69254332E+00  -6.58096841E+00  -1.26200389E+02  -9.90450495E+00  -6.28468599E+00  -1.09065271E+01  -1.22654093E+01  -6.78193690E+00  -3.13647172E+00  -9.33210535E+00  -3.64233985E+00  -5.37036385E+01  -1.28516670E+01  -8.10139912E+00  -2.01599960E+00  -3.92181617E+01  -6.37782939E+00  -8.00088673E+00  -4.59097376E+00  -7.16212771E+00  -7.07881170E+00  -8.21328379E+00  -7.88359056E+00  -1.07721405E+01  -8.98411380E+00  -6.75659981E+00  -6.24337461E+00  -1.14014701E+01  -6.11143090E+00  -1.36679707E+01  -5.68014419E+00  -9.04656006E+00  -1.32252185E+01  -1.32255721E+01  -1.80418426E+01  -9.32401388E+00  -1.79478131E+01  -1.79481793E+01  -2.54512229E+01  -2.83960852E+01
   5.42500000E+02   5.00000000E-01   5.00000000E-01  -6.46752621E+00  -1.61265729E+01  -2.95950936E+00  -1.43397619E+00  -1.66462537E+00  -2.94725460E+00  -1.19853763E+01  -6.72154012E+00  -5.12209830E+00  -2.58210849E-01  -4.16234173E+00  -1.95209873E+00  -9.78110316E+00  -3.32954525E-01  -1.80382535E+00  -7.74049366E+00  -3.39279066E+00  -6.25296070E+00  -4.40378604E+00  -2.15202907E+00  -1.23175459E+01  -1.30929931E+01  -1.13764023E+01  -1.43193836E+01  -8.54013983E+00  -8.01702678E+00  -1.08170046E+01  -1.30902763E+01  -2.43381046E+00  -5.46348885E+00  -2.75889289E+00  -3.96309022E+00  -7.36507618E+00  -2.58676952E+00  -3.72830261E+00  -6.14808808E+00  -5.63839838E+00  -3.68371038E+00  -6.56443268E+00  -1.24754828E+02  -9.86496951E+00  -6.25400544E+00  -1.07967559E+01  -1.21787008E+01  -6.68071297E+00  -3.12710543E+00  -9.29753838E+00  -3.63685365E+00  -5.30373873E+01  -1.27598315E+01  -8.08204998E+00  -2.01793056E+00  -3.87927573E+01  -6.36920384E+00  -8.02158977E+00  -4.64957459E+00  -7.13716635E+00  -7.11737137E+00  -8.31328408E+00  -7.86733435E+00  -1.08454641E+01  -9.01001228E+00  -6.72609476E+00  -6.22975314E+00  -1.13446497E+01  -6.10785938E+00  -1.35485897E+01  -5.67563773E+00  -9.05622155E+00  -1.32336840E+01  -1.32340713E+01  -1.80559806E+01  -9.32883665E+00  -1.79627930E+01  -1.79631879E+01  -2.54256080E+01  -2.81958273E+01
   5.77500000E+02   5.00000000E-01   5.00000000E-01  -6.40606579E+00  -1.60723442E+01  -2.91455465E+00  -1.44408392E+00  -1.64964178E+00  -2.95010852E+00  -1.19904560E+01  -6.72239497E+00  -5.12354818E+00  -2.57737642E-01  -4.16173854E+00  -1.95221058E+00  -9.77933855E+00  -3.32574155E-01  -1.80524117E+00  -7.73994861E+00  -3.39218747E+00  -6.28412389E+00  -4.40318285E+00  -2.13208835E+00  -1.22265541E+01  -1.29947992E+01  -1.13034313E+01  -1.42498255E+01  -8.51900851E+00  -7.99449519E+00  -1.08506828E+01  -1.30278886E+01  -2.44694948E+00  -5.52145550E+00  -2.72797688E+00  -3.94663801E+00  -7.29940780E+00  -2.56775576E+00  -3.69346168E+00  -6.12634128E+00  -5.62171813E+00  -3.67547845E+00  -6.54850937E+00  -1.23334330E+02  -9.82696442E+00  -6.22540863E+00  -1.06905212E+01  -1.20923762E+01  -6.58113029E+00  -3.11747758E+00  -9.26361152E+00  -3.63119996E+00  -5.23817990E+01  -1.26682736E+01  -8.06255454E+00  -2.01940069E+00  -3.83743489E+01  -6.36221106E+00  -8.04289401E+00  -4.70901001E+00  -7.11486240E+00  -7.15703599E+00  -8.41276595E+00  -7.85251368E+00  -1.09195699E+01  -9.03705875E+00  -6.69685154E+00  -6.21574526E+00  -1.12888736E+01  -6.10482105E+00  -1.34328709E+01  -5.67214947E+00  -9.06720981E+00  -1.32441086E+01  -1.32445355E+01  -1.80728050E+01  -9.33538350E+00  -1.79804373E+01  -1.79808667E+01  -2.54038866E+01  -2.79990843E+01
   6.12500000E+02   5.00000000E-01   5.00000000E-01  -6.34613368E+00  -1.60195471E+01  -2.87129122E+00  -1.45459864E+00  -1.63526796E+00  -2.95343464E+00  -1.19977974E+01  -6.72328731E+00  -5.12499612E+00  -2.57246581E-01  -4.16110911E+00  -1.95232812E+00  -9.77891072E+00  -3.32156436E-01  -1.80688654E+00  -7.73937743E+00  -3.39155804E+00  -6.31637048E+00  -4.40255342E+00  -2.11270037E+00  -1.21371748E+01  -1.28976281E+01  -1.12308999E+01  -1.41811356E+01  -8.49925914E+00  -7.97180658E+00  -1.08854433E+01  -1.29668105E+01  -2.46148845E+00  -5.58036730E+00  -2.69722865E+00  -3.92951452E+00  -7.23508245E+00  -2.54947868E+00  -3.65902298E+00  -6.10425429E+00  -5.60549286E+00  -3.66786626E+00  -6.53314783E+00  -1.21938283E+02  -9.79044968E+00  -6.19878485E+00  -1.05877015E+01  -1.20064214E+01  -6.48316935E+00  -3.10762289E+00  -9.23029797E+00  -3.62539507E+00  -5.17366424E+01  -1.25769804E+01  -8.04292299E+00  -2.02044071E+00  -3.79627651E+01  -6.35672947E+00  -8.06470208E+00  -4.76937562E+00  -7.09509805E+00  -7.19772109E+00  -8.51168172E+00  -7.83904512E+00  -1.09943135E+01  -9.06531416E+00  -6.66896835E+00  -6.20138166E+00  -1.12340960E+01  -6.10231843E+00  -1.33206481E+01  -5.66962162E+00  -9.07944097E+00  -1.32563681E+01  -1.32568405E+01  -1.80921483E+01  -9.34354801E+00  -1.80005792E+01  -1.80010489E+01  -2.53858180E+01  -2.78058638E+01
   6.47500000E+02   5.00000000E-01   5.00000000E-01  -6.28769978E+00  -1.59681812E+01  -2.82980861E+00  -1.46553763E+00  -1.62146210E+00  -2.95724103E+00  -1.20074924E+01  -6.72421728E+00  -5.12643708E+00  -2.56738704E-01  -4.16045404E+00  -1.95245094E+00  -9.77974314E+00  -3.31702639E-01  -1.80873932E+00  -7.73878070E+00  -3.39090297E+00  -6.34957839E+00  -4.40189835E+00  -2.09384761E+00  -1.20493951E+01  -1.28014726E+01  -1.11587772E+01  -1.41133237E+01  -8.48097697E+00  -7.94898581E+00  -1.09213422E+01  -1.29069873E+01  -2.47748456E+00  -5.64025764E+00  -2.66663964E+00  -3.91175428E+00  -7.17202419E+00  -2.53191167E+00  -3.62502092E+00  -6.08189940E+00  -5.58972382E+00  -3.66089884E+00  -6.51829948E+00  -1.20566100E+02  -9.75538496E+00  -6.17402071E+00  -1.04881733E+01  -1.19208365E+01  -6.38681229E+00  -3.09757213E+00  -9.19756946E+00  -3.61945340E+00  -5.11016938E+01  -1.24859500E+01  -8.02316106E+00  -2.02107858E+00  -3.75578399E+01  -6.35263415E+00  -8.08690959E+00  -4.83076284E+00  -7.07776384E+00  -7.23934709E+00  -8.60998493E+00  -7.82683671E+00  -1.10695497E+01  -9.09482637E+00  -6.64252989E+00  -6.18668910E+00  -1.11802702E+01  -6.10035026E+00  -1.32117808E+01  -5.66799211E+00  -9.09282556E+00  -1.32703300E+01  -1.32708536E+01  -1.81138319E+01  -9.35321462E+00  -1.80230401E+01  -1.80235562E+01  -2.53711429E+01  -2.76161704E+01
   6.82500000E+02   5.00000000E-01   5.00000000E-01  -6.23073658E+00  -1.59182573E+01  -2.79018324E+00  -1.47691881E+00  -1.60818730E+00  -2.96154189E+00  -1.20196236E+01  -6.72518516E+00  -5.12786623E+00  -2.56215005E-01  -4.15977385E+00  -1.95257871E+00  -9.78176055E+00  -3.31213972E-01  -1.81077971E+00  -7.73815897E+00  -3.39022279E+00  -6.38362541E+00  -4.40121817E+00  -2.07551282E+00  -1.19632018E+01  -1.27063335E+01  -1.10870398E+01  -1.40464085E+01  -8.46423266E+00  -7.92605468E+00  -1.09584219E+01  -1.28483645E+01  -2.49498413E+00  -5.70115086E+00  -2.63620258E+00  -3.89338922E+00  -7.11016160E+00  -2.51502922E+00  -3.59149255E+00  -6.05934783E+00  -5.57441673E+00  -3.65460335E+00  -6.50391837E+00  -1.19217214E+02  -9.72172873E+00  -6.15100159E+00  -1.03918111E+01  -1.18356278E+01  -6.29204214E+00  -3.08735251E+00  -9.16539710E+00  -3.61338763E+00  -5.04767353E+01  -1.23951839E+01  -8.00327113E+00  -2.02133972E+00  -3.71594119E+01  -6.34979890E+00  -8.10940817E+00  -4.89325346E+00  -7.06275551E+00  -7.28183714E+00  -8.70762901E+00  -7.81579062E+00  -1.11451345E+01  -9.12562937E+00  -6.61760595E+00  -6.17169097E+00  -1.11273496E+01  -6.09891202E+00  -1.31061457E+01  -5.66719921E+00  -9.10727400E+00  -1.32858610E+01  -1.32864418E+01  -1.81376765E+01  -9.36426806E+00  -1.80476414E+01  -1.80482098E+01  -2.53595998E+01  -2.74300053E+01