 TITLE = "Total Concentrations" 
VARIABLES = "X"          "Y"              "Z"            "H+"             "Al+++"          "CO2(aq)"        "Mg++"           "Ca++"           "Fe++"           "Fe+++"          "Cl-"            "K+"             "Na+"            "SO4--"          "O2(aq)"         "B(OH)3(aq)"     "HPO4--"         "NO3-"           "H4SiO4(aq)"     "HNO3(aq)"       "Al(OH)2+"       "AlO2-"          "AlOH++"         "HCO3-"          "CO3--"          "CaCl+"          "CaCl2(aq)"      "CaOH+"          "CaSO4(aq)"      "FeCl+"          "FeCl2(aq)"      "FeOH+"          "FeSO4(aq)"      "OH-"            "HS-"            "H2S(aq)"        "H2PO4-"         "H3PO4(aq)"      "HAlO2(aq)"      "HSO4-"          "KCl(aq)"        "KOH(aq)"        "KSO4-"          "NH3(aq)"        "NaAlO2(aq)"     "NaOH(aq)"       "NaSO4-"         "H2(aq)"         "CaHPO4(aq)"     "CaPO4-"         "FeCO3(aq)"      "FeH2PO4+"       "FeHPO4(aq)"     "FePO4-"         "KHPO4-"         "PO4---"         "S--"           
 ZONE I=          35 , J=           1 , K=           1  F=POINT
   5.00000000E+01   5.00000000E-01   5.00000000E-01  -9.65531459E+00  -3.45399094E+01  -6.28192417E+00  -1.29427071E+00  -2.05676615E+00  -7.38976277E+00  -1.29999889E+01  -2.64585850E-01  -1.95335012E+00  -3.33926427E-01  -1.78822253E+00  -3.74471650E+00  -3.39792902E+00  -6.51708184E+00  -4.40892439E+00  -4.82871431E+00  -1.57090635E+01  -2.63455208E+01  -1.89932413E+01  -3.00960791E+01  -2.63008789E+00  -2.61883669E+00  -3.24858688E+00  -4.33166334E+00  -5.40030976E+00  -2.99455302E+00  -8.42724330E+00  -1.07382899E+01  -7.48912646E+00  -8.19034322E+00  -3.96736184E+00  -1.41619808E+02  -1.44676796E+02  -9.67390978E+00  -1.75105224E+01  -2.26072975E+01  -1.01157507E+01  -3.18951270E+00  -6.82456094E+00  -3.65796255E+00  -6.85301678E+01  -2.04955003E+01  -5.48498723E+00  -1.97943237E+00  -4.38418324E+01  -7.17537356E+00  -5.88040662E+00  -6.23953083E+00  -1.49793829E+01  -1.17689706E+01  -9.78615107E+00  -8.45093799E+00  -8.08122169E+00  -1.48355977E+02
   1.50000000E+02   5.00000000E-01   5.00000000E-01  -9.57514947E+00  -3.35370372E+01  -6.21076068E+00  -1.29450723E+00  -2.05905772E+00  -7.36866916E+00  -1.29999760E+01  -2.64605994E-01  -1.95426835E+00  -3.33753934E-01  -1.78432741E+00  -3.74470366E+00  -3.39791618E+00  -6.54013031E+00  -4.40891155E+00  -5.70384845E+00  -1.55731893E+01  -2.51473718E+01  -1.77334587E+01  -2.90134281E+01  -2.61407695E+00  -2.63501817E+00  -3.22833124E+00  -4.35245348E+00  -5.23691107E+00  -2.98609403E+00  -8.33702690E+00  -1.06850428E+01  -7.37263837E+00  -8.14483154E+00  -3.86937374E+00  -1.38723572E+02  -1.41769179E+02  -9.63002663E+00  -1.73577839E+01  -2.13823216E+01  -9.95960280E+00  -3.17709096E+00  -6.69353161E+00  -3.64807336E+00  -6.71924649E+01  -1.92040464E+01  -5.39196784E+00  -1.98656845E+00  -4.29478763E+01  -7.16090217E+00  -5.87585755E+00  -6.24091267E+00  -1.49195242E+01  -1.17900230E+01  -9.88518179E+00  -8.38546647E+00  -8.13291355E+00  -1.45301288E+02
   2.50000000E+02   5.00000000E-01   5.00000000E-01  -9.51315516E+00  -3.22972419E+01  -6.15800990E+00  -1.29455515E+00  -2.06169474E+00  -7.36529191E+00  -1.29999726E+01  -2.64642732E-01  -1.95534440E+00  -3.33642735E-01  -1.78194280E+00  -3.74470017E+00  -3.39791269E+00  -6.57776370E+00  -4.40890806E+00  -6.80810157E+00  -1.54552693E+01  -2.36872932E+01  -1.61867500E+01  -2.76796799E+01  -2.60465261E+00  -2.64513859E+00  -3.20584665E+00  -4.36674034E+00  -5.06558312E+00  -2.97772658E+00  -8.26347398E+00  -1.06446755E+01  -7.26212297E+00  -8.11680087E+00  -3.76308282E+00  -1.35939524E+02  -1.38984966E+02  -9.61536825E+00  -1.72514206E+01  -1.98810385E+01  -9.82151296E+00  -3.16306301E+00  -6.55376312E+00  -3.63724299E+00  -6.59100167E+01  -1.76242664E+01  -5.28656784E+00  -1.99148265E+00  -4.20829645E+01  -7.15927863E+00  -5.86807943E+00  -6.25044578E+00  -1.49070770E+01  -1.18403683E+01  -9.99502809E+00  -8.33447782E+00  -8.18653375E+00  -1.42352284E+02
   3.50000000E+02   5.00000000E-01   5.00000000E-01  -9.45575313E+00  -3.18707545E+01  -6.10424259E+00  -1.29456566E+00  -2.06464375E+00  -7.36629614E+00  -1.29999694E+01  -2.64686603E-01  -1.95655552E+00  -3.33575730E-01  -1.78079204E+00  -3.74469706E+00  -3.39790958E+00  -6.61914890E+00  -4.40890495E+00  -7.37008890E+00  -1.53419747E+01  -2.30421161E+01  -1.54562819E+01  -2.71584930E+01  -2.59529114E+00  -2.65566097E+00  -3.18149021E+00  -4.37535470E+00  -4.89931470E+00  -2.96969789E+00  -8.19358935E+00  -1.06046181E+01  -7.15752217E+00  -8.09321962E+00  -3.66125914E+00  -1.33249483E+02  -1.36293109E+02  -9.60597225E+00  -1.71541749E+01  -1.91936505E+01  -9.68806355E+00  -3.14778326E+00  -6.41831085E+00  -3.62563092E+00  -6.46677441E+01  -1.68596906E+01  -5.18220873E+00  -1.99445564E+00  -4.12457124E+01  -7.16020036E+00  -5.86029976E+00  -6.26193346E+00  -1.49046928E+01  -1.18962230E+01  -1.01055239E+01  -8.28762542E+00  -8.24426246E+00  -1.39503878E+02
   4.50000000E+02   5.00000000E-01   5.00000000E-01  -9.39975955E+00  -3.16687096E+01  -6.04565755E+00  -1.29456984E+00  -2.06789510E+00  -7.36990846E+00  -1.29999665E+01  -2.64737069E-01  -1.95788976E+00  -3.33546045E-01  -1.78066136E+00  -3.74469413E+00  -3.39790665E+00  -6.66141775E+00  -4.40890202E+00  -7.76669198E+00  -1.52303252E+01  -2.26288213E+01  -1.49646725E+01  -2.68640392E+01  -2.58479307E+00  -2.66805962E+00  -3.15558471E+00  -4.37903033E+00  -4.74076568E+00  -2.96223113E+00  -8.12588186E+00  -1.05637467E+01  -7.05996254E+00  -8.07256574E+00  -3.56637887E+00  -1.30645951E+02  -1.33683541E+02  -9.59616890E+00  -1.70574203E+01  -1.87401359E+01  -9.55621915E+00  -3.13155930E+00  -6.28988479E+00  -3.61339497E+00  -6.34610127E+01  -1.63332387E+01  -5.08191233E+00  -1.99575316E+00  -4.04348168E+01  -7.16124486E+00  -5.85322080E+00  -6.27562910E+00  -1.49048883E+01  -1.19532823E+01  -1.02155779E+01  -8.24242312E+00  -8.30591912E+00  -1.36751264E+02
   5.50000000E+02   5.00000000E-01   5.00000000E-01  -9.34428301E+00  -3.14717019E+01  -5.98178272E+00  -1.29457115E+00  -2.07145188E+00  -7.37559439E+00  -1.29999637E+01  -2.64793883E-01  -1.95933766E+00  -3.33548256E-01  -1.78138345E+00  -3.74469135E+00  -3.39790386E+00  -6.70351910E+00  -4.40889923E+00  -8.14068426E+00  -1.51195834E+01  -2.22292945E+01  -1.44949393E+01  -2.65776619E+01  -2.57307673E+00  -2.68270833E+00  -3.12840547E+00  -4.37838842E+00  -4.59035160E+00  -2.95550476E+00  -8.06003987E+00  -1.05220553E+01  -6.96953105E+00  -8.05449505E+00  -3.47871370E+00  -1.28123986E+02  -1.31150959E+02  -9.58433606E+00  -1.69588198E+01  -1.83031003E+01  -9.42521486E+00  -3.11464046E+00  -6.16893611E+00  -3.60067220E+00  -6.22875301E+01  -1.58281662E+01  -4.98639509E+00  -1.99560813E+00  -3.96490507E+01  -7.16171712E+00  -5.84697435E+00  -6.29181077E+00  -1.49054738E+01  -1.20102457E+01  -1.03248050E+01  -8.19810191E+00  -8.37091509E+00  -1.34089900E+02
   6.50000000E+02   5.00000000E-01   5.00000000E-01  -9.28875134E+00  -3.12758454E+01  -5.91254435E+00  -1.29457100E+00  -2.07532854E+00  -7.38298194E+00  -1.29999610E+01  -2.64856918E-01  -1.96089199E+00  -3.33578034E-01  -1.78282881E+00  -3.74468867E+00  -3.39790119E+00  -6.74469752E+00  -4.40889656E+00  -8.49280125E+00  -1.50092876E+01  -2.18403261E+01  -1.40444352E+01  -2.62959074E+01  -2.56021099E+00  -2.69987831E+00  -3.10018552E+00  -4.37394943E+00  -4.44821061E+00  -2.94965203E+00  -7.99586170E+00  -1.04795935E+01  -6.88616925E+00  -8.03876629E+00  -3.39829251E+00  -1.25679207E+02  -1.28690866E+02  -9.56941077E+00  -1.68568712E+01  -1.78797463E+01  -9.29458205E+00  -3.09722346E+00  -6.05562468E+00  -3.58757649E+00  -6.11453689E+01  -1.53420077E+01  -4.89604238E+00  -1.99421961E+00  -3.88872551E+01  -7.16113605E+00  -5.84158459E+00  -6.31071383E+00  -1.49049850E+01  -1.20662191E+01  -1.04329047E+01  -8.15410122E+00  -8.43870141E+00  -1.31515489E+02
   7.50000000E+02   5.00000000E-01   5.00000000E-01  -9.23278390E+00  -3.10807962E+01  -5.83808501E+00  -1.29457008E+00  -2.07954967E+00  -7.39178710E+00  -1.29999585E+01  -2.64926143E-01  -1.96254745E+00  -3.33631936E-01  -1.78489785E+00  -3.74468609E+00  -3.39789860E+00  -6.78440363E+00  -4.40889397E+00  -8.82237752E+00  -1.48991315E+01  -2.14618892E+01  -1.36133728E+01  -2.60186762E+01  -2.54635106E+00  -2.71979209E+00  -3.07112293E+00  -4.36614911E+00  -4.31432765E+00  -2.94476780E+00  -7.93318971E+00  -1.04364079E+01  -6.80972633E+00  -8.02517513E+00  -3.32501883E+00  -1.23307641E+02  -1.26299302E+02  -9.55068039E+00  -1.67505774E+01  -1.74702776E+01  -9.16402227E+00  -3.07946081E+00  -5.94994472E+00  -3.57420043E+00  -6.00328397E+01  -1.48751106E+01  -4.81103959E+00  -1.99175585E+00  -3.81483352E+01  -7.15915924E+00  -5.83702115E+00  -6.33252726E+00  -1.49023996E+01  -1.21205596E+01  -1.05396334E+01  -8.10999407E+00  -8.50879767E+00  -1.29023960E+02
   8.50000000E+02   5.00000000E-01   5.00000000E-01  -9.17614196E+00  -3.08862772E+01  -5.75869452E+00  -1.29456877E+00  -2.08414855E+00  -7.40178510E+00  -1.29999559E+01  -2.65001607E-01  -1.96430047E+00  -3.33707235E-01  -1.78751493E+00  -3.74468357E+00  -3.39789609E+00  -6.82225878E+00  -4.40889146E+00  -9.12940101E+00  -1.47889207E+01  -2.10937622E+01  -1.32015394E+01  -2.57457975E+01  -2.53171022E+00  -2.74263644E+00  -3.04138674E+00  -4.35535223E+00  -4.18858072E+00  -2.94091531E+00  -7.87188901E+00  -1.03925291E+01  -6.73997975E+00  -8.01353391E+00  -3.25871155E+00  -1.21005666E+02  -1.23972739E+02  -9.52770523E+00  -1.66393258E+01  -1.70745709E+01  -9.03336012E+00  -3.06146823E+00  -5.85177267E+00  -3.56061781E+00  -5.89484429E+01  -1.44273577E+01  -4.73142463E+00  -1.98835780E+00  -3.74312561E+01  -7.15556016E+00  -5.83322634E+00  -6.35739252E+00  -1.48970315E+01  -1.21728180E+01  -1.06447966E+01  -8.06546473E+00  -8.58079794E+00  -1.26611460E+02
   9.50000000E+02   5.00000000E-01   5.00000000E-01  -9.11869150E+00  -3.06921053E+01  -5.67475689E+00  -1.29456726E+00  -2.08916569E+00  -7.41279172E+00  -1.29999535E+01  -2.65083424E-01  -1.96614906E+00  -3.33801783E-01  -1.79062381E+00  -3.74468112E+00  -3.39789363E+00  -6.85802425E+00  -4.40888900E+00  -9.41429842E+00  -1.46785412E+01  -2.07356300E+01  -1.28084653E+01  -2.54770942E+01  -2.51653651E+00  -2.76856898E+00  -3.01112184E+00  -4.34186403E+00  -4.07077488E+00  -2.93813216E+00  -7.81183524E+00  -1.03479655E+01  -6.67665370E+00  -8.00366082E+00  -3.19913445E+00  -1.18769951E+02  -1.21708003E+02  -9.50025689E+00  -1.65227950E+01  -1.66923133E+01  -8.90250859E+00  -3.04333097E+00  -5.76090281E+00  -3.54688652E+00  -5.78908311E+01  -1.39983425E+01  -4.65712759E+00  -1.98414278E+00  -3.67350389E+01  -7.15020755E+00  -5.83013205E+00  -6.38540423E+00  -1.48884501E+01  -1.22226966E+01  -1.07482439E+01  -8.02028890E+00  -8.65437008E+00  -1.24274333E+02
   1.05000000E+03   5.00000000E-01   5.00000000E-01  -9.06037436E+00  -3.04981903E+01  -5.58670824E+00  -1.29456565E+00  -2.09464717E+00  -7.42465121E+00  -1.29999511E+01  -2.65171768E-01  -1.96809267E+00  -3.33913903E-01  -1.79418410E+00  -3.74467870E+00  -3.39789122E+00  -6.89157376E+00  -4.40888659E+00  -9.67778434E+00  -1.45679349E+01  -2.03871393E+01  -1.24335320E+01  -2.52124106E+01  -2.50109303E+00  -2.79772110E+00  -2.98045276E+00  -4.32593967E+00  -3.96066779E+00  -2.93643531E+00  -7.75290791E+00  -1.03027018E+01  -6.61943554E+00  -7.99537470E+00  -3.14601843E+00  -1.16597424E+02  -1.19502211E+02  -9.46826748E+00  -1.64008793E+01  -1.63230862E+01  -8.77144288E+00  -3.02510924E+00  -5.67707472E+00  -3.53305124E+00  -5.68587809E+01  -1.35874828E+01  -4.58800154E+00  -1.97920797E+00  -3.60587579E+01  -7.14304641E+00  -5.82766989E+00  -6.41661168E+00  -1.48764177E+01  -1.22700150E+01  -1.08498634E+01  -7.97431557E+00  -8.72925093E+00  -1.22009116E+02
   1.15000000E+03   5.00000000E-01   5.00000000E-01  -9.00118664E+00  -3.03045203E+01  -5.49500476E+00  -1.29456400E+00  -2.10064308E+00  -7.43722900E+00  -1.29999487E+01  -2.65266866E-01  -1.97013215E+00  -3.34042297E-01  -1.79816855E+00  -3.74467632E+00  -3.39788884E+00  -6.92287031E+00  -4.40888421E+00  -9.92075825E+00  -1.44570822E+01  -2.00479270E+01  -1.20760383E+01  -2.49516200E+01  -2.48564184E+00  -2.83019809E+00  -2.94948667E+00  -4.30779210E+00  -3.85798818E+00  -2.93582545E+00  -7.69498779E+00  -1.02567014E+01  -6.56798986E+00  -7.98849397E+00  -3.09907729E+00  -1.14485230E+02  -1.17352718E+02  -9.43178962E+00  -1.62736314E+01  -1.59664144E+01  -8.64018127E+00  -3.00684290E+00  -5.59999348E+00  -3.51914614E+00  -5.58511703E+01  -1.31940919E+01  -4.52384576E+00  -1.97363371E+00  -3.54015365E+01  -7.13408170E+00  -5.82577655E+00  -6.45102086E+00  -1.48608419E+01  -1.23146840E+01  -1.09495775E+01  -7.92745183E+00  -8.80523945E+00  -1.19812522E+02
   1.25000000E+03   5.00000000E-01   5.00000000E-01  -8.94116388E+00  -3.01111468E+01  -5.40010016E+00  -1.29456234E+00  -2.10720589E+00  -7.45040825E+00  -1.29999463E+01  -2.65368996E-01  -1.97226964E+00  -3.34185978E-01  -1.80256085E+00  -3.74467397E+00  -3.39788649E+00  -6.95194787E+00  -4.40888186E+00  -1.01442375E+01  -1.43459902E+01  -1.97176334E+01  -1.17352390E+01  -2.46946238E+01  -2.47043147E+00  -2.86607690E+00  -2.91831581E+00  -4.28759865E+00  -3.76244777E+00  -2.93629055E+00  -7.63795740E+00  -1.02099108E+01  -6.52196959E+00  -7.98283851E+00  -3.05801760E+00  -1.12430713E+02  -1.15257088E+02  -9.39096730E+00  -1.61412214E+01  -1.56217940E+01  -8.50877256E+00  -2.98855540E+00  -5.52934340E+00  -3.50519728E+00  -5.48669633E+01  -1.28174218E+01  -4.46442189E+00  -1.96748646E+00  -3.47625448E+01  -7.12336572E+00  -5.82439626E+00  -6.48859656E+00  -1.48417434E+01  -1.23566884E+01  -1.10473405E+01  -7.87965133E+00  -8.88218870E+00  -1.17681436E+02
   1.35000000E+03   5.00000000E-01   5.00000000E-01  -8.88037185E+00  -2.99181735E+01  -5.30243151E+00  -1.29456069E+00  -2.11438923E+00  -7.46408943E+00  -1.29999440E+01  -2.65478480E-01  -1.97450850E+00  -3.34344203E-01  -1.80735380E+00  -3.74467163E+00  -3.39788415E+00  -6.97889790E+00  -4.40887952E+00  -1.03493178E+01  -1.42346864E+01  -1.93959095E+01  -1.14103669E+01  -2.44413507E+01  -2.45568776E+00  -2.90540213E+00  -2.88701955E+00  -4.26550668E+00  -3.67374790E+00  -2.93780902E+00  -7.58170396E+00  -1.01622656E+01  -6.48102445E+00  -7.97823386E+00  -3.02254359E+00  -1.10431395E+02  -1.13213064E+02  -9.34601668E+00  -1.60039113E+01  -1.52887080E+01  -8.37728889E+00  -2.97025723E+00  -5.46479604E+00  -3.49122472E+00  -5.39051999E+01  -1.24566880E+01  -4.40946424E+00  -1.96082145E+00  -3.41409965E+01  -7.11098949E+00  -5.82348140E+00  -6.52926459E+00  -1.48192359E+01  -1.23960762E+01  -1.11431367E+01  -7.83090647E+00  -8.95999764E+00  -1.15612902E+02
   1.45000000E+03   5.00000000E-01   5.00000000E-01  -8.81890189E+00  -2.97257513E+01  -5.20241184E+00  -1.29455904E+00  -2.12224686E+00  -7.47819219E+00  -1.29999417E+01  -2.65595686E-01  -1.97685332E+00  -3.34516429E-01  -1.81254783E+00  -3.74466930E+00  -3.39788182E+00  -7.00385991E+00  -4.40887719E+00  -1.05371546E+01  -1.41232167E+01  -1.90824196E+01  -1.11006413E+01  -2.41917557E+01  -2.44160749E+00  -2.94818094E+00  -2.85566630E+00  -4.24163857E+00  -3.59158192E+00  -2.94035254E+00  -7.52612419E+00  -1.01136987E+01  -6.44480711E+00  -7.97451703E+00  -2.99235793E+00  -1.08484960E+02  -1.11218559E+02  -9.29721500E+00  -1.58620417E+01  -1.49666335E+01  -8.24582293E+00  -2.95194877E+00  -5.40601378E+00  -3.47724444E+00  -5.29649901E+01  -1.21110817E+01  -4.35868518E+00  -1.95368495E+00  -3.35361463E+01  -7.09707752E+00  -5.82299199E+00  -6.57291413E+00  -1.47935173E+01  -1.24329544E+01  -1.12369811E+01  -7.78124384E+00  -9.03860291E+00  -1.13604114E+02
   1.55000000E+03   5.00000000E-01   5.00000000E-01  -8.75686949E+00  -2.95340773E+01  -5.10042788E+00  -1.29455742E+00  -2.13083220E+00  -7.49265872E+00  -1.29999394E+01  -2.65721022E-01  -1.97930981E+00  -3.34702267E-01  -1.81814976E+00  -3.74466698E+00  -3.39787950E+00  -7.02701495E+00  -4.40887487E+00  -1.07089577E+01  -1.40116454E+01  -1.87768429E+01  -1.08052695E+01  -2.39458202E+01  -2.42835451E+00  -2.99437765E+00  -2.82431551E+00  -4.21609632E+00  -3.51563515E+00  -2.94388874E+00  -7.47113004E+00  -1.00641482E+01  -6.41297771E+00  -7.97154318E+00  -2.96716002E+00  -1.06589247E+02  -1.09271646E+02  -9.24489513E+00  -1.57160270E+01  -1.46550440E+01  -8.11448787E+00  -2.93362282E+00  -5.35265041E+00  -3.46326989E+00  -5.20455115E+01  -1.17797738E+01  -4.31177737E+00  -1.94611632E+00  -3.29472873E+01  -7.08178522E+00  -5.82289464E+00  -6.61940054E+00  -1.47648672E+01  -1.24674877E+01  -1.13289197E+01  -7.73072184E+00  -9.11797097E+00  -1.11652408E+02
   1.65000000E+03   5.00000000E-01   5.00000000E-01  -8.69441456E+00  -2.93433961E+01  -4.99684131E+00  -1.29455581E+00  -2.14019841E+00  -7.50745774E+00  -1.29999370E+01  -2.65854933E-01  -1.98188483E+00  -3.34901450E-01  -1.82417168E+00  -3.74466465E+00  -3.39787717E+00  -7.04858080E+00  -4.40887254E+00  -1.08659941E+01  -1.39000579E+01  -1.84788734E+01  -1.05234438E+01  -2.37035537E+01  -2.41605789E+00  -3.04390906E+00  -2.79301980E+00  -4.18896593E+00  -3.44558352E+00  -2.94838393E+00  -7.41665480E+00  -1.00135659E+01  -6.38520715E+00  -7.96919242E+00  -2.94664271E+00  -1.04742243E+02  -1.07370553E+02  -9.18944330E+00  -1.55663548E+01  -1.43534090E+01  -7.98341909E+00  -2.91526667E+00  -5.30434982E+00  -3.44931344E+00  -5.11460081E+01  -1.14619138E+01  -4.26841391E+00  -1.93814968E+00  -3.23737491E+01  -7.06529783E+00  -5.82316119E+00  -6.66854862E+00  -1.47336487E+01  -1.24999005E+01  -1.14190310E+01  -7.67942928E+00  -9.19809041E+00  -1.09755257E+02
   1.75000000E+03   5.00000000E-01   5.00000000E-01  -8.63170253E+00  -2.91540028E+01  -4.89199232E+00  -1.29455421E+00  -2.15039892E+00  -7.52258836E+00  -1.29999347E+01  -2.65997894E-01  -1.98458631E+00  -3.35113803E-01  -1.83063000E+00  -3.74466232E+00  -3.39787484E+00  -7.06880784E+00  -4.40887021E+00  -1.10095941E+01  -1.37885628E+01  -1.81882198E+01  -1.02543369E+01  -2.34649953E+01  -2.40481212E+00  -3.09664138E+00  -2.76182735E+00  -4.16032176E+00  -3.38109216E+00  -2.95380591E+00  -7.36265870E+00  -9.96192418E+00  -6.36117956E+00  -7.96737595E+00  -2.93048881E+00  -1.02942075E+02  -1.05513662E+02  -9.13129783E+00  -1.54135876E+01  -1.40611923E+01  -7.85277627E+00  -2.89686391E+00  -5.26074413E+00  -3.43538739E+00  -5.02657900E+01  -1.11566270E+01  -4.22824766E+00  -1.92981536E+00  -3.18148951E+01  -7.04783002E+00  -5.82376721E+00  -6.72015692E+00  -1.47003112E+01  -1.25304780E+01  -1.15074261E+01  -7.62748417E+00  -9.27896459E+00  -1.07910258E+02
   1.85000000E+03   5.00000000E-01   5.00000000E-01  -8.56892523E+00  -2.89662449E+01  -4.78620446E+00  -1.29455263E+00  -2.16148859E+00  -7.53808325E+00  -1.29999324E+01  -2.66150400E-01  -1.98742326E+00  -3.35339219E-01  -1.83754461E+00  -3.74465998E+00  -3.39787250E+00  -7.08797473E+00  -4.40886787E+00  -1.11411562E+01  -1.36772940E+01  -1.79046052E+01  -9.99709763E+00  -2.32302144E+01  -2.39467901E+00  -3.15238934E+00  -2.73078446E+00  -4.13023070E+00  -3.32181470E+00  -2.96012682E+00  -7.30913353E+00  -9.90922287E+00  -6.34059424E+00  -7.96604108E+00  -2.91836795E+00  -1.01187004E+02  -1.03699504E+02  -9.07094737E+00  -1.52583627E+01  -1.37778502E+01  -7.72274517E+00  -2.87839594E+00  -5.22145204E+00  -3.42150497E+00  -4.94042332E+01  -1.08630124E+01  -4.19091063E+00  -1.92114105E+00  -3.12701206E+01  -7.02962528E+00  -5.82469056E+00  -6.77400284E+00  -1.46653913E+01  -1.25595670E+01  -1.15942483E+01  -7.57503187E+00  -9.36060467E+00  -1.06115131E+02
   1.95000000E+03   5.00000000E-01   5.00000000E-01  -8.50630109E+00  -2.87805227E+01  -4.67979026E+00  -1.29455106E+00  -2.17352506E+00  -7.55401047E+00  -1.29999300E+01  -2.66312951E-01  -1.99040574E+00  -3.35577634E-01  -1.84493811E+00  -3.74465763E+00  -3.39787014E+00  -7.10638356E+00  -4.40886551E+00  -1.12621505E+01  -1.35664123E+01  -1.76277661E+01  -9.75084789E+00  -2.29993110E+01  -2.38569137E+00  -3.21091807E+00  -2.69993829E+00  -4.09875632E+00  -3.26739362E+00  -2.96732604E+00  -7.25610575E+00  -9.85549313E+00  -6.32316692E+00  -7.96517467E+00  -2.90993455E+00  -9.94754202E+01  -1.01926758E+02  -9.00892757E+00  -1.51013907E+01  -1.35028304E+01  -7.59353851E+00  -2.85984327E+00  -5.18607784E+00  -3.40768104E+00  -4.85607778E+01  -1.05801404E+01  -4.15601396E+00  -1.91215283E+00  -3.07388515E+01  -7.01095467E+00  -5.82590990E+00  -6.82984877E+00  -1.46295114E+01  -1.25875735E+01  -1.16796717E+01  -7.52224229E+00  -9.44302290E+00  -1.04367708E+02
   2.05000000E+03   5.00000000E-01   5.00000000E-01  -8.44407445E+00  -2.85972878E+01  -4.57305712E+00  -1.29454951E+00  -2.18657034E+00  -7.57047392E+00  -1.29999276E+01  -2.66486034E-01  -1.99354480E+00  -3.35829008E-01  -1.85283512E+00  -3.74465525E+00  -3.39786777E+00  -7.12435437E+00  -4.40886314E+00  -1.13741171E+01  -1.34561051E+01  -1.73574518E+01  -9.51468222E+00  -2.27724149E+01  -2.37785804E+00  -3.27194741E+00  -2.66933945E+00  -4.06596269E+00  -3.21746182E+00  -2.97539295E+00  -7.20363796E+00  -9.80080027E+00  -6.30863064E+00  -7.96480476E+00  -2.90482681E+00  -9.78058368E+01  -1.00194240E+02  -8.94581605E+00  -1.49434499E+01  -1.32355717E+01  -7.46539588E+00  -2.84118656E+00  -5.15421147E+00  -3.39393270E+00  -4.77349265E+01  -1.03070537E+01  -4.12314879E+00  -1.90287595E+00  -3.02205415E+01  -6.99211476E+00  -5.82740332E+00  -6.88744894E+00  -1.45933754E+01  -1.26149595E+01  -1.17638972E+01  -7.46930604E+00  -9.52622645E+00  -1.02665926E+02
   2.15000000E+03   5.00000000E-01   5.00000000E-01  -8.38251391E+00  -2.84170398E+01  -4.46631313E+00  -1.29454796E+00  -2.20069233E+00  -7.58761213E+00  -1.29999252E+01  -2.66670101E-01  -1.99685251E+00  -3.36093307E-01  -1.86126164E+00  -3.74465286E+00  -3.39786538E+00  -7.14221908E+00  -4.40886075E+00  -1.14786614E+01  -1.33465857E+01  -1.70934239E+01  -9.28766876E+00  -2.25496837E+01  -2.37117010E+00  -3.33515852E+00  -2.63904450E+00  -4.03191784E+00  -3.17164499E+00  -2.98432936E+00  -7.15182858E+00  -9.74524434E+00  -6.29673582E+00  -7.96500038E+00  -2.90266691E+00  -9.61768807E+01  -9.85009030E+01  -8.88222577E+00  -1.47853794E+01  -1.29755050E+01  -7.33858250E+00  -2.82240754E+00  -5.12542954E+00  -3.38027969E+00  -4.69262413E+01  -1.00427692E+01  -4.09188792E+00  -1.89333550E+00  -2.97146716E+01  -6.97342467E+00  -5.82914701E+00  -6.94655652E+00  -1.45577603E+01  -1.26422363E+01  -1.18471485E+01  -7.41642993E+00  -9.61021190E+00  -1.01007827E+02
   2.25000000E+03   5.00000000E-01   5.00000000E-01  -8.32190995E+00  -2.82403216E+01  -4.35987268E+00  -1.29454642E+00  -2.21596611E+00  -7.60559549E+00  -1.29999228E+01  -2.66865538E-01  -2.00034186E+00  -3.36370484E-01  -1.87024451E+00  -3.74465044E+00  -3.39786296E+00  -7.16031543E+00  -4.40885833E+00  -1.15774464E+01  -1.32380915E+01  -1.68354552E+01  -9.06885215E+00  -2.23313003E+01  -2.36560761E+00  -3.40020201E+00  -2.60911794E+00  -3.99669670E+00  -3.12956469E+00  -2.99415152E+00  -7.10080978E+00  -9.68895883E+00  -6.28724960E+00  -7.96586954E+00  -2.90306213E+00  -9.45872862E+01  -9.68458212E+01  -8.81879734E+00  -1.46280694E+01  -1.27220542E+01  -7.21338720E+00  -2.80348980E+00  -5.09929705E+00  -3.36674480E+00  -4.61343398E+01  -9.78628169E+00  -4.06178824E+00  -1.88355694E+00  -2.92207475E+01  -6.95522254E+00  -5.83111404E+00  -7.00693048E+00  -1.45235059E+01  -1.26699566E+01  -1.19296662E+01  -7.36383193E+00  -9.69496040E+00  -9.93915443E+01
   2.35000000E+03   5.00000000E-01   5.00000000E-01  -8.26257195E+00  -2.80677129E+01  -4.25406134E+00  -1.29454489E+00  -2.23247482E+00  -7.62462186E+00  -1.29999204E+01  -2.67072634E-01  -2.00402677E+00  -3.36660462E-01  -1.87981087E+00  -3.74464800E+00  -3.39786052E+00  -7.17898094E+00  -4.40885589E+00  -1.16721820E+01  -1.31308817E+01  -1.65833295E+01  -8.85725776E+00  -2.21174695E+01  -2.36114649E+00  -3.46670691E+00  -2.57963377E+00  -3.96038336E+00  -3.09084156E+00  -3.00489163E+00  -7.05074374E+00  -9.63210763E+00  -6.27995416E+00  -7.96755550E+00  -2.90560672E+00  -9.30358870E+01  -9.52281841E+01  -8.75619081E+00  -1.44724502E+01  -1.24746387E+01  -7.09011968E+00  -2.78441934E+00  -5.07536992E+00  -3.35335407E+00  -4.53588909E+01  -9.53656872E+00  -4.03239370E+00  -1.87356651E+00  -2.87382990E+01  -6.93786152E+00  -5.83327332E+00  -7.06834134E+00  -1.44915025E+01  -1.26987044E+01  -1.20117013E+01  -7.31173619E+00  -9.78043379E+00  -9.78153034E+01
   2.45000000E+03   5.00000000E-01   5.00000000E-01  -8.20482454E+00  -2.78998231E+01  -4.14921950E+00  -1.29454336E+00  -2.25031005E+00  -7.64491063E+00  -1.29999179E+01  -2.67291548E-01  -2.00792203E+00  -3.36963123E-01  -1.88998768E+00  -3.74464553E+00  -3.39785805E+00  -7.19854725E+00  -4.40885342E+00  -1.17646123E+01  -1.30252336E+01  -1.63368405E+01  -8.65189734E+00  -2.19084143E+01  -2.35776502E+00  -3.53428989E+00  -2.55067642E+00  -3.92307260E+00  -3.05509884E+00  -3.01659858E+00  -7.00181715E+00  -9.57488011E+00  -6.27464415E+00  -7.97023121E+00  -2.90988455E+00  -9.15216076E+01  -9.36472844E+01  -8.69507696E+00  -1.43194810E+01  -1.22326760E+01  -6.96910701E+00  -2.76518513E+00  -5.05319804E+00  -3.34013694E+00  -4.45996100E+01  -9.29259690E+00  -4.00323889E+00  -1.86339154E+00  -2.82668783E+01  -6.92170536E+00  -5.83558882E+00  -7.13057555E+00  -1.44626754E+01  -1.27290849E+01  -1.20935074E+01  -7.26036813E+00  -9.86657180E+00  -9.62774140E+01
   2.55000000E+03   5.00000000E-01   5.00000000E-01  -8.14900311E+00  -2.77372819E+01  -4.04570416E+00  -1.29454184E+00  -2.26957155E+00  -7.66669504E+00  -1.29999154E+01  -2.67522268E-01  -2.01204323E+00  -3.37278287E-01  -1.90080123E+00  -3.74464302E+00  -3.39785554E+00  -7.21933474E+00  -4.40885091E+00  -1.18564991E+01  -1.29214390E+01  -1.60957913E+01  -8.45177649E+00  -2.17043710E+01  -2.35544925E+00  -3.60256468E+00  -2.52234088E+00  -3.88487064E+00  -3.02196603E+00  -3.02933802E+00  -6.95423397E+00  -9.51748436E+00  -6.27112321E+00  -7.97409199E+00  -2.91547279E+00  -9.00434547E+01  -9.21025054E+01  -8.63612801E+00  -1.41701358E+01  -1.19955855E+01  -6.85068926E+00  -2.74577949E+00  -5.03232928E+00  -3.32712630E+00  -4.38562530E+01  -9.05332977E+00  -3.97385348E+00  -1.85306072E+00  -2.78060586E+01  -6.90712352E+00  -5.83801908E+00  -7.19343801E+00  -1.44379688E+01  -1.27617108E+01  -1.21753334E+01  -7.20994970E+00  -9.95329045E+00  -9.47762659E+01
   2.65000000E+03   5.00000000E-01   5.00000000E-01  -8.09544803E+00  -2.75807277E+01  -3.94388796E+00  -1.29454032E+00  -2.29036632E+00  -7.69021279E+00  -1.29999129E+01  -2.67764581E-01  -2.01640673E+00  -3.37605704E-01  -1.91227673E+00  -3.74464048E+00  -3.39785300E+00  -7.24164726E+00  -4.40884837E+00  -1.19495995E+01  -1.28197984E+01  -1.58599939E+01  -8.25590489E+00  -2.15055830E+01  -2.35419725E+00  -3.67115139E+00  -2.49473218E+00  -3.84589497E+00  -2.99108330E+00  -3.04319151E+00  -6.90820636E+00  -9.46013844E+00  -6.26920020E+00  -7.97934629E+00  -2.92194693E+00  -8.86005075E+01  -9.05933062E+01  -8.58000691E+00  -1.40253876E+01  -1.17627933E+01  -6.73521370E+00  -2.72619841E+00  -5.01231485E+00  -3.31435854E+00  -4.31286097E+01  -8.81773842E+00  -3.94376796E+00  -1.84260418E+00  -2.73554336E+01  -6.89448558E+00  -5.84051739E+00  -7.25675275E+00  -1.44183250E+01  -1.27971890E+01  -1.22574143E+01  -7.16069457E+00  -1.00404820E+01  -9.33103246E+01
   2.75000000E+03   5.00000000E-01   5.00000000E-01  -8.04449686E+00  -2.74307918E+01  -3.84415462E+00  -1.29453880E+00  -2.31280685E+00  -7.71569485E+00  -1.29999103E+01  -2.68018036E-01  -2.02102954E+00  -3.37945045E-01  -1.92443786E+00  -3.74463790E+00  -3.39785042E+00  -7.26576660E+00  -4.40884579E+00  -1.20456370E+01  -1.27206133E+01  -1.56292681E+01  -8.06331047E+00  -2.13122926E+01  -2.35402169E+00  -3.73968644E+00  -2.46796391E+00  -3.80627329E+00  -2.96210704E+00  -3.05825488E+00  -6.86394376E+00  -9.40305993E+00  -6.26868551E+00  -7.98620460E+00  -2.92888790E+00  -8.71919055E+01  -8.91192027E+01  -8.52735457E+00  -1.38861878E+01  -1.15337392E+01  -6.62302699E+00  -2.70644180E+00  -4.99271655E+00  -3.30187336E+00  -4.24164945E+01  -8.58481596E+00  -3.91252121E+00  -1.83205359E+00  -2.69146154E+01  -6.88415444E+00  -5.84303270E+00  -7.32036223E+00  -1.44046606E+01  -1.28361037E+01  -1.23399632E+01  -7.11280298E+00  -1.01280168E+01  -9.18781267E+01
   2.85000000E+03   5.00000000E-01   5.00000000E-01  -7.99647432E+00  -2.72880785E+01  -3.74689025E+00  -1.29453729E+00  -2.33700854E+00  -7.74335303E+00  -1.29999077E+01  -2.68281930E-01  -2.02592929E+00  -3.38295892E-01  -1.93730633E+00  -3.74463527E+00  -3.39784779E+00  -7.29194656E+00  -4.40884317E+00  -1.21462617E+01  -1.26241766E+01  -1.54034415E+01  -7.87305861E+00  -2.11247315E+01  -2.35495077E+00  -3.80783307E+00  -2.44215589E+00  -3.76614152E+00  -2.93471687E+00  -3.07463553E+00  -6.82164064E+00  -9.34645385E+00  -6.26938842E+00  -7.99486691E+00  -2.93589155E+00  -8.58168353E+01  -8.76797447E+01  -8.47877411E+00  -1.37534406E+01  -1.13078865E+01  -6.51446501E+00  -2.68651366E+00  -4.97311642E+00  -3.28971364E+00  -4.17197356E+01  -8.35359702E+00  -3.87967051E+00  -1.82144214E+00  -2.64832345E+01  -6.87647817E+00  -5.84551148E+00  -7.38412584E+00  -1.43978385E+01  -1.28789988E+01  -1.24231632E+01  -7.06645605E+00  -1.02157466E+01  -9.04782759E+01