 TITLE = "Total Concentrations" 
VARIABLES = "X"          "Y"              "Z"            "H+"             "Al+++"          "CO2(aq)"        "Mg++"           "Ca++"           "Fe++"           "Fe+++"          "Ba++"           "Sr++"           "Cl-"            "F-"             "K+"             "Na+"            "SO4--"          "O2(aq)"         "B(OH)3(aq)"     "HPO4--"         "NO3-"           "H4SiO4(aq)"     "HNO3(aq)"       "Al(OH)2+"       "AlO2-"          "AlOH++"         "BaHCO3+"        "BaCl+"          "BaCO3(aq)"      "BaOH+"          "HCO3-"          "CO3--"          "CaCl+"          "CaCl2(aq)"      "CaOH+"          "CaSO4(aq)"      "FeCl+"          "FeCl2(aq)"      "FeOH+"          "FeSO4(aq)"      "OH-"            "HS-"            "S2O3--"         "H2PO4-"         "H3PO4(aq)"      "HAlO2(aq)"      "HSO4-"          "KCl(aq)"        "KOH(aq)"        "KSO4-"          "NH3(aq)"        "NaAlO2(aq)"     "NaOH(aq)"       "NaSO4-"         "H2(aq)"         "CaHPO4(aq)"     "CaPO4-"         "FeCO3(aq)"      "FeH2PO4+"       "FeHPO4(aq)"     "FePO4-"         "KHPO4-"         "PO4---"         "Sr(CO3)(aq)"    "SrHCO3+"        "SrCl+"          "SrOH+"          "SrSO4(aq)"      "AlH3SiO4++"     "Si2O2(OH)5-"    "Si2O3(OH)4--"   "Si3O5(OH)5---"  "Si3O6(OH)3---"  "Si4O12H4----"   "Si4O6(OH)6--"   "Si4O7(OH)6----" "Si4O8(OH)4----" "Si6O15------"   "SiF6--"        
 ZONE I=         100 , J=           1 , K=           1  F=POINT
   1.75000000E+01   5.00000000E-01   5.00000000E-01  -7.62543679E+00  -1.50920030E+01  -3.75884598E+00  -1.29274052E+00  -1.96651045E+00  -4.70790178E+00  -1.33480534E+01  -6.71252458E+00  -5.10557837E+00  -2.62210419E-01  -4.16749098E+00  -1.95284358E+00  -3.36328792E-01  -1.80216961E+00  -3.74472739E+00  -3.39793991E+00  -5.89293471E+00  -4.40893528E+00  -3.56362779E+00  -1.39088494E+01  -1.26524215E+01  -1.04837652E+01  -1.34245732E+01  -8.92872034E+00  -8.30774486E+00  -1.03554056E+01  -1.42306527E+01  -2.34195717E+00  -4.65370386E+00  -3.20960277E+00  -4.04501270E+00  -8.54103815E+00  -2.90555519E+00  -6.01838592E+00  -8.10666261E+00  -7.68420936E+00  -5.56864585E+00  -6.91362520E+00  -1.53041665E+02  -1.57730846E+02  -6.90544682E+00  -1.28144138E+01  -1.14598895E+01  -8.37879525E+00  -3.20989962E+00  -9.89925263E+00  -3.65446517E+00  -7.24454160E+01  -1.20942401E+01  -8.33908379E+00  -1.88264262E+00  -4.81100090E+01  -6.58801193E+00  -7.65393122E+00  -5.49886002E+00  -9.51378509E+00  -8.33103654E+00  -8.38287049E+00  -8.19215819E+00  -9.79448764E+00  -8.67280305E+00  -7.23639634E+00  -6.36680817E+00  -1.23405715E+01  -6.17507911E+00  -1.48437482E+01  -7.93779200E+00  -1.11421404E+01  -1.64470835E+01  -1.64473253E+01  -2.23096829E+01  -1.36019308E+01  -2.22014100E+01  -2.22016780E+01  -3.24769815E+01  -3.26414387E+01
   5.25000000E+01   5.00000000E-01   5.00000000E-01  -7.51442121E+00  -1.49162467E+01  -3.68116188E+00  -1.29335744E+00  -1.53647595E+00  -4.42261264E+00  -1.39622051E+01  -6.71243616E+00  -5.12451935E+00  -2.63182205E-01  -4.16747746E+00  -1.95794174E+00  -3.43642351E-01  -1.56450428E+00  -3.74471387E+00  -3.39792639E+00  -5.99725116E+00  -4.40892176E+00  -3.45560728E+00  -1.37889535E+01  -1.25637351E+01  -1.05168864E+01  -1.32999005E+01  -8.92409613E+00  -8.31107129E+00  -1.04458290E+01  -1.42294066E+01  -2.34502295E+00  -4.72843957E+00  -2.78900745E+00  -3.66074418E+00  -8.12374656E+00  -2.27038476E+00  -5.72350740E+00  -7.84560026E+00  -7.44344072E+00  -5.07357002E+00  -6.93948605E+00  -1.51557121E+02  -1.55926122E+02  -6.92374318E+00  -1.27222004E+01  -1.14458138E+01  -8.02153615E+00  -3.22908408E+00  -9.93304187E+00  -3.44172088E+00  -7.18462723E+01  -1.21386249E+01  -8.39548714E+00  -1.68052688E+00  -4.77511336E+01  -6.28380610E+00  -7.42526549E+00  -5.32706387E+00  -9.25521887E+00  -8.19196893E+00  -8.34746216E+00  -8.28950816E+00  -9.95971845E+00  -8.77547957E+00  -7.24544660E+00  -6.39694803E+00  -1.23667926E+01  -5.98564001E+00  -1.45495725E+01  -7.78237621E+00  -1.10333873E+01  -1.62678730E+01  -1.62681243E+01  -2.20916844E+01  -1.32975927E+01  -2.19841739E+01  -2.19844565E+01  -3.20264550E+01  -3.21841580E+01
   8.75000000E+01   5.00000000E-01   5.00000000E-01  -7.43063908E+00  -1.48144862E+01  -3.62473704E+00  -1.29389005E+00  -1.43975964E+00  -4.25165755E+00  -1.39885247E+01  -6.71258257E+00  -5.13211401E+00  -2.63506565E-01  -4.16743786E+00  -1.96026114E+00  -3.46097830E-01  -1.49176052E+00  -3.74467428E+00  -3.39788680E+00  -6.03431979E+00  -4.40888217E+00  -3.39555929E+00  -1.36908950E+01  -1.24897820E+01  -1.05119070E+01  -1.32206059E+01  -8.91236321E+00  -8.30620573E+00  -1.04981728E+01  -1.41975525E+01  -2.34766776E+00  -4.78270441E+00  -2.69460253E+00  -3.59448542E+00  -8.00995855E+00  -2.11565812E+00  -5.53605238E+00  -7.68388104E+00  -7.28655149E+00  -4.83993110E+00  -6.94115212E+00  -1.50265629E+02  -1.54502909E+02  -6.89405234E+00  -1.26046535E+01  -1.14148661E+01  -7.84907264E+00  -3.23684073E+00  -9.93248996E+00  -3.38129147E+00  -7.12678739E+01  -1.21334879E+01  -8.41557763E+00  -1.62874018E+00  -4.73915808E+01  -6.22783834E+00  -7.42237867E+00  -5.23217744E+00  -9.05829017E+00  -8.08232762E+00  -8.31868103E+00  -8.30714203E+00  -1.00435518E+01  -8.82858531E+00  -7.23574568E+00  -6.40716359E+00  -1.23505466E+01  -5.93077281E+00  -1.43548368E+01  -7.70488092E+00  -1.09817965E+01  -1.61821025E+01  -1.61823601E+01  -2.19860454E+01  -1.31529628E+01  -2.18792903E+01  -2.18795833E+01  -3.18028102E+01  -3.18831395E+01
   1.22500000E+02   5.00000000E-01   5.00000000E-01  -7.35759541E+00  -1.47298453E+01  -3.57557376E+00  -1.29437996E+00  -1.42484678E+00  -4.12606121E+00  -1.39034396E+01  -6.71284449E+00  -5.13427621E+00  -2.63496705E-01  -4.16737367E+00  -1.96110938E+00  -3.46120337E-01  -1.47607479E+00  -3.74461008E+00  -3.39782260E+00  -6.04666498E+00  -4.40881797E+00  -3.35466514E+00  -1.36006926E+01  -1.24098227E+01  -1.04810904E+01  -1.31472404E+01  -8.89708242E+00  -8.29705791E+00  -1.05347588E+01  -1.41541963E+01  -2.35028457E+00  -4.83029238E+00  -2.67817063E+00  -3.60159198E+00  -7.96666187E+00  -2.09048455E+00  -5.39034084E+00  -7.55939438E+00  -7.16308791E+00  -4.69938037E+00  -6.93435845E+00  -1.49049110E+02  -1.53220272E+02  -6.84604947E+00  -1.24770296E+01  -1.13651009E+01  -7.74050235E+00  -3.23845315E+00  -9.91808970E+00  -3.37121895E+00  -7.06992931E+01  -1.20965002E+01  -8.42056376E+00  -1.62628783E+00  -4.70336395E+01  -6.21960514E+00  -7.45903107E+00  -5.16695310E+00  -8.88619515E+00  -7.98411509E+00  -8.29279583E+00  -8.29350942E+00  -1.00989735E+01  -8.86047514E+00  -7.21689276E+00  -6.40740288E+00  -1.23169829E+01  -5.91774662E+00  -1.41895809E+01  -7.66031740E+00  -1.09561984E+01  -1.61391959E+01  -1.61394572E+01  -2.19313929E+01  -1.30760777E+01  -2.18253860E+01  -2.18256860E+01  -3.16849061E+01  -3.16430272E+01
   1.57500000E+02   5.00000000E-01   5.00000000E-01  -7.29024517E+00  -1.46516532E+01  -3.53030916E+00  -1.29484218E+00  -1.42880932E+00  -4.02742901E+00  -1.38086059E+01  -6.71314059E+00  -5.13503109E+00  -2.63386484E-01  -4.16728619E+00  -1.96156853E+00  -3.45524461E-01  -1.47457733E+00  -3.74452260E+00  -3.39773512E+00  -6.05345460E+00  -4.40873049E+00  -3.32324912E+00  -1.35151956E+01  -1.23257218E+01  -1.04366097E+01  -1.30749173E+01  -8.88057631E+00  -8.28641488E+00  -1.05648611E+01  -1.41063926E+01  -2.35297424E+00  -4.87418360E+00  -2.67910141E+00  -3.62414490E+00  -7.93752230E+00  -2.09533139E+00  -5.27029384E+00  -7.45874927E+00  -7.06126766E+00  -4.59692101E+00  -6.92378608E+00  -1.47864574E+02  -1.51988230E+02  -6.79644418E+00  -1.23525474E+01  -1.13053663E+01  -7.65035137E+00  -3.23800689E+00  -9.89820677E+00  -3.37302528E+00  -7.01400756E+01  -1.20438902E+01  -8.41923776E+00  -1.63530441E+00  -4.66793311E+01  -6.22161086E+00  -7.50110422E+00  -5.12181853E+00  -8.73894560E+00  -7.90433825E+00  -8.28019326E+00  -8.27218781E+00  -1.01458481E+01  -8.88452947E+00  -7.19532173E+00  -6.40456424E+00  -1.22772721E+01  -5.91453198E+00  -1.40377344E+01  -7.63127701E+00  -1.09423884E+01  -1.61149808E+01  -1.61152438E+01  -2.19000546E+01  -1.30305837E+01  -2.17947883E+01  -2.17950924E+01  -3.16096258E+01  -3.14324391E+01
   1.92500000E+02   5.00000000E-01   5.00000000E-01  -7.22645420E+00  -1.45768496E+01  -3.48734909E+00  -1.29528544E+00  -1.43736214E+00  -3.94667077E+00  -1.37209945E+01  -6.71344924E+00  -5.13545949E+00  -2.63239777E-01  -4.16717662E+00  -1.96194201E+00  -3.44797408E-01  -1.47679051E+00  -3.74441303E+00  -3.39762555E+00  -6.05942810E+00  -4.40862092E+00  -3.29718552E+00  -1.34328115E+01  -1.22393448E+01  -1.03846279E+01  -1.30029122E+01  -8.86354333E+00  -8.27505925E+00  -1.05918173E+01  -1.40567995E+01  -2.35580282E+00  -4.91595483E+00  -2.68376597E+00  -3.64928561E+00  -7.91079448E+00  -2.10719787E+00  -5.16747530E+00  -7.37427672E+00  -6.97455801E+00  -4.51474948E+00  -6.91143579E+00  -1.46700602E+02  -1.50783027E+02  -6.74857442E+00  -1.22328586E+01  -1.12401969E+01  -7.56670181E+00  -3.23665847E+00  -9.87588517E+00  -3.37747089E+00  -6.95893190E+01  -1.19829517E+01  -8.41476524E+00  -1.64670689E+00  -4.63291717E+01  -6.22607127E+00  -7.54249160E+00  -5.09091121E+00  -8.61124296E+00  -7.84037937E+00  -8.27993603E+00  -8.24917093E+00  -1.01898292E+01  -8.90518806E+00  -7.17283811E+00  -6.40053750E+00  -1.22351841E+01  -5.91364155E+00  -1.38939488E+01  -7.61075776E+00  -1.09349809E+01  -1.61005928E+01  -1.61008560E+01  -2.18814622E+01  -1.30020560E+01  -2.17769283E+01  -2.17772344E+01  -3.15552024E+01  -3.12383460E+01
   2.27500000E+02   5.00000000E-01   5.00000000E-01  -7.16515011E+00  -1.45043277E+01  -3.44582681E+00  -1.29571562E+00  -1.44728836E+00  -3.87849860E+00  -1.36410566E+01  -6.71376599E+00  -5.13581036E+00  -2.63071658E-01  -4.16704603E+00  -1.96230252E+00  -3.44048437E-01  -1.48030341E+00  -3.74428244E+00  -3.39749496E+00  -6.06568110E+00  -4.40849033E+00  -3.27441171E+00  -1.33526175E+01  -1.21518630E+01  -1.03284243E+01  -1.29312341E+01  -8.84621598E+00  -8.26320056E+00  -1.06170205E+01  -1.40065796E+01  -2.35882346E+00  -4.95654773E+00  -2.68913012E+00  -3.67419306E+00  -7.88440538E+00  -2.12091690E+00  -5.07677793E+00  -7.30107941E+00  -6.89883200E+00  -4.44562983E+00  -6.89830264E+00  -1.45553812E+02  -1.49597897E+02  -6.70266580E+00  -1.21172435E+01  -1.11719534E+01  -7.48626509E+00  -3.23470946E+00  -9.85239148E+00  -3.38247024E+00  -6.90461864E+01  -1.19172539E+01  -8.40845736E+00  -1.65844605E+00  -4.59832243E+01  -6.23132540E+00  -7.58249764E+00  -5.07032531E+00  -8.49812839E+00  -7.78848026E+00  -8.28923424E+00  -8.22589447E+00  -1.02327623E+01  -8.92409712E+00  -7.14993220E+00  -6.39579010E+00  -1.21921439E+01  -5.91340471E+00  -1.37559793E+01  -7.59547580E+00  -1.09316210E+01  -1.60923166E+01  -1.60925791E+01  -2.18709539E+01  -1.29838320E+01  -2.17671439E+01  -2.17674502E+01  -3.15132670E+01  -3.10544245E+01
   2.62500000E+02   5.00000000E-01   5.00000000E-01  -7.10573561E+00  -1.44336070E+01  -3.40526594E+00  -1.29613702E+00  -1.45783187E+00  -3.81962967E+00  -1.35669196E+01  -6.71409047E+00  -5.13614009E+00  -2.62885985E-01  -4.16689539E+00  -1.96266831E+00  -3.43301230E-01  -1.48452482E+00  -3.74413180E+00  -3.39734432E+00  -6.07249079E+00  -4.40833969E+00  -3.25378809E+00  -1.32740733E+01  -1.20640019E+01  -1.02698679E+01  -1.28600056E+01  -8.82871187E+00  -8.25091433E+00  -1.06411781E+01  -1.39563209E+01  -2.36208092E+00  -4.99652406E+00  -2.69450935E+00  -3.69826520E+00  -7.85819042E+00  -2.13529716E+00  -4.99498833E+00  -7.23602333E+00  -6.83141470E+00  -4.38584602E+00  -6.88492103E+00  -1.44422869E+02  -1.48430368E+02  -6.65847628E+00  -1.20049147E+01  -1.11019782E+01  -7.40793010E+00  -3.23226078E+00  -9.82835027E+00  -3.38754324E+00  -6.85100849E+01  -1.18487607E+01  -8.40096715E+00  -1.67005297E+00  -4.56414477E+01  -6.23704996E+00  -7.62136996E+00  -5.05749625E+00  -8.39609981E+00  -7.74576680E+00  -8.30578770E+00  -8.20275996E+00  -1.02754097E+01  -8.94202027E+00  -7.12678250E+00  -6.39045867E+00  -1.21488047E+01  -5.91344625E+00  -1.36226933E+01  -7.58367065E+00  -1.09310889E+01  -1.60882797E+01  -1.60885408E+01  -2.18661024E+01  -1.29723721E+01  -2.17630076E+01  -2.17633130E+01  -3.14798548E+01  -3.08772635E+01
   2.97500000E+02   5.00000000E-01   5.00000000E-01  -7.04785452E+00  -1.43644482E+01  -3.36540650E+00  -1.29655297E+00  -1.46880377E+00  -3.76791201E+00  -1.34969245E+01  -6.71442322E+00  -5.13646066E+00  -2.62684038E-01  -4.16672557E+00  -1.96304454E+00  -3.42560315E-01  -1.48928403E+00  -3.74396198E+00  -3.39717450E+00  -6.07994608E+00  -4.40816987E+00  -3.23464377E+00  -1.31968571E+01  -1.19762176E+01  -1.02100750E+01  -1.27893408E+01  -8.81111699E+00  -8.23824355E+00  -1.06647035E+01  -1.39063477E+01  -2.36561492E+00  -5.03622526E+00  -2.69975904E+00  -3.72140791E+00  -7.83229378E+00  -2.15006154E+00  -4.91999665E+00  -7.17704621E+00  -6.77050306E+00  -4.33315975E+00  -6.87158969E+00  -1.43307043E+02  -1.47279226E+02  -6.61578623E+00  -1.18953292E+01  -1.10310813E+01  -7.33121831E+00  -3.22936476E+00  -9.80410641E+00  -3.39257826E+00  -6.79806095E+01  -1.17786371E+01  -8.39266425E+00  -1.68142230E+00  -4.53037779E+01  -6.24322722E+00  -7.65943893E+00  -5.05070122E+00  -8.30278985E+00  -7.71023609E+00  -8.32794477E+00  -8.17992727E+00  -1.03181540E+01  -8.95938207E+00  -7.10349036E+00  -6.38460179E+00  -1.21055106E+01  -5.91368738E+00  -1.34934381E+01  -7.57431394E+00  -1.09326767E+01  -1.60874093E+01  -1.60876690E+01  -2.18654956E+01  -1.29656180E+01  -2.17631070E+01  -2.17634109E+01  -3.14527660E+01  -3.07048987E+01
   3.32500000E+02   5.00000000E-01   5.00000000E-01  -6.99128327E+00  -1.42967175E+01  -3.32611177E+00  -1.29696619E+00  -1.48014583E+00  -3.72186689E+00  -1.34299094E+01  -6.71476498E+00  -5.13677403E+00  -2.62466489E-01  -4.16653737E+00  -1.96343300E+00  -3.41826029E-01  -1.49450860E+00  -3.74377378E+00  -3.39698630E+00  -6.08809172E+00  -4.40798167E+00  -3.21656610E+00  -1.31207730E+01  -1.18888010E+01  -1.01497323E+01  -1.27193248E+01  -8.79350648E+00  -8.22522208E+00  -1.06878634E+01  -1.38568476E+01  -2.36946236E+00  -5.07586521E+00  -2.70485730E+00  -3.74364076E+00  -7.80685430E+00  -2.16514191E+00  -4.85035833E+00  -7.12274207E+00  -6.71483061E+00  -4.28608416E+00  -6.85847802E+00  -1.42205825E+02  -1.46143706E+02  -6.57445578E+00  -1.17881509E+01  -1.09597697E+01  -7.25587359E+00  -3.22606054E+00  -9.77986336E+00  -3.39754771E+00  -6.74574758E+01  -1.17076066E+01  -8.38377552E+00  -1.69253191E+00  -4.49701465E+01  -6.24990605E+00  -7.69697308E+00  -5.04874391E+00  -8.21657999E+00  -7.68049623E+00  -8.35453642E+00  -8.15749657E+00  -1.03612150E+01  -8.97644971E+00  -7.08013585E+00  -6.37825859E+00  -1.20624584E+01  -5.91411624E+00  -1.33677987E+01  -7.56677019E+00  -1.09359419E+01  -1.60890387E+01  -1.60892971E+01  -2.18682508E+01  -1.29623011E+01  -2.17665592E+01  -2.17668611E+01  -3.14306506E+01  -3.05361513E+01
   3.67500000E+02   5.00000000E-01   5.00000000E-01  -6.93587523E+00  -1.42303326E+01  -3.28731711E+00  -1.29737900E+00  -1.49183015E+00  -3.68043678E+00  -1.33651028E+01  -6.71511646E+00  -5.13708001E+00  -2.62233849E-01  -4.16633151E+00  -1.96383446E+00  -3.41097835E-01  -1.50015061E+00  -3.74356793E+00  -3.39678045E+00  -6.09696116E+00  -4.40777582E+00  -3.19929267E+00  -1.30456991E+01  -1.18019392E+01  -1.00892712E+01  -1.26500167E+01  -8.77595036E+00  -8.21188010E+00  -1.07108423E+01  -1.38079311E+01  -2.37365868E+00  -5.11558305E+00  -2.70980910E+00  -3.76500632E+00  -7.78196389E+00  -2.18051729E+00  -4.78504651E+00  -7.07211895E+00  -6.66347430E+00  -4.24357033E+00  -6.84568125E+00  -1.41118811E+02  -1.45023243E+02  -6.53440708E+00  -1.16831798E+01  -1.08883688E+01  -7.18173743E+00  -3.22238227E+00  -9.75574571E+00  -3.40244305E+00  -6.69404737E+01  -1.16361327E+01  -8.37444802E+00  -1.70337870E+00  -4.46404854E+01  -6.25714672E+00  -7.73417626E+00  -5.05076691E+00  -8.13633395E+00  -7.65555940E+00  -8.38472175E+00  -8.13555011E+00  -1.04047289E+01  -8.99340629E+00  -7.05679162E+00  -6.37146221E+00  -1.20197650E+01  -5.91473541E+00  -1.32454884E+01  -7.56063026E+00  -1.09405937E+01  -1.60927296E+01  -1.60929872E+01  -2.18737873E+01  -1.29616063E+01  -2.17727832E+01  -2.17730833E+01  -3.14126246E+01  -3.03702937E+01
   4.02500000E+02   5.00000000E-01   5.00000000E-01  -6.88153009E+00  -1.41652382E+01  -3.24900095E+00  -1.29779343E+00  -1.50383632E+00  -3.64283980E+00  -1.33019943E+01  -6.71547832E+00  -5.13737807E+00  -2.61986571E-01  -4.16610866E+00  -1.96424927E+00  -3.40375044E-01  -1.50616981E+00  -3.74334508E+00  -3.39655760E+00  -6.10658391E+00  -4.40755297E+00  -3.18265161E+00  -1.29715577E+01  -1.17157537E+01  -1.00289666E+01  -1.25814560E+01  -8.75851540E+00  -8.19824538E+00  -1.07337762E+01  -1.37596625E+01  -2.37823877E+00  -5.15547367E+00  -2.71462456E+00  -3.78554980E+00  -7.75767602E+00  -2.19617722E+00  -4.72330767E+00  -7.02445573E+00  -6.61574029E+00  -4.20484788E+00  -6.83325074E+00  -1.40045650E+02  -1.43917382E+02  -6.49560225E+00  -1.15803004E+01  -1.08170919E+01  -7.10870274E+00  -3.21836112E+00  -9.73183148E+00  -3.40726017E+00  -6.64294388E+01  -1.15645199E+01  -8.36478121E+00  -1.71396398E+00  -4.43147277E+01  -6.26500846E+00  -7.77120518E+00  -5.05613936E+00  -8.06123087E+00  -7.63470652E+00  -8.41788255E+00  -8.11416180E+00  -1.04487845E+01  -9.01038603E+00  -7.03352655E+00  -6.36424293E+00  -1.19775012E+01  -5.91555007E+00  -1.31262956E+01  -7.55562125E+00  -1.09464318E+01  -1.60981809E+01  -1.60984386E+01  -2.18817062E+01  -1.29629912E+01  -2.17813801E+01  -2.17816788E+01  -3.13980805E+01  -3.02068669E+01
   4.37500000E+02   5.00000000E-01   5.00000000E-01  -6.82817610E+00  -1.41013936E+01  -3.21116785E+00  -1.29821128E+00  -1.51614642E+00  -3.60848182E+00  -1.32402417E+01  -6.71585114E+00  -5.13766765E+00  -2.61725070E-01  -4.16586942E+00  -1.96467755E+00  -3.39656960E-01  -1.51252978E+00  -3.74310584E+00  -3.39631835E+00  -6.11698712E+00  -4.40731373E+00  -3.16652695E+00  -1.28982978E+01  -1.16303234E+01  -9.96899608E+00  -1.25136680E+01  -8.74126597E+00  -8.18434362E+00  -1.07567712E+01  -1.37120788E+01  -2.38323742E+00  -5.19560562E+00  -2.71931424E+00  -3.80531466E+00  -7.73401861E+00  -2.21211359E+00  -4.66457395E+00  -6.97921491E+00  -6.57109390E+00  -4.16933395E+00  -6.82121167E+00  -1.38986031E+02  -1.42825732E+02  -6.45802752E+00  -1.14794482E+01  -1.07460814E+01  -7.03669255E+00  -3.21402591E+00  -9.70817022E+00  -3.41199613E+00  -6.59242354E+01  -1.14929730E+01  -8.35484515E+00  -1.72429023E+00  -4.39928076E+01  -6.27354675E+00  -7.80818420E+00  -5.06438769E+00  -7.99066164E+00  -7.61740153E+00  -8.45355517E+00  -8.09339953E+00  -1.04934423E+01  -9.02749330E+00  -7.01040706E+00  -6.35662893E+00  -1.19357096E+01  -5.91656535E+00  -1.30100539E+01  -7.55155464E+00  -1.09533130E+01  -1.61051766E+01  -1.61054355E+01  -2.18917219E+01  -1.29660818E+01  -2.17920640E+01  -2.17923620E+01  -3.13865818E+01  -3.00455750E+01
   4.72500000E+02   5.00000000E-01   5.00000000E-01  -6.77575937E+00  -1.40387663E+01  -3.17383823E+00  -1.29863414E+00  -1.52874384E+00  -3.57690091E+00  -1.31796097E+01  -6.71623541E+00  -5.13794825E+00  -2.61449735E-01  -4.16561434E+00  -1.96511930E+00  -3.38942916E-01  -1.51919695E+00  -3.74285075E+00  -3.39606327E+00  -6.12819573E+00  -4.40705864E+00  -3.15083767E+00  -1.28258848E+01  -1.15457002E+01  -9.90947598E+00  -1.24466686E+01  -8.72426453E+00  -8.17019866E+00  -1.07799150E+01  -1.36651996E+01  -2.38868968E+00  -5.23603192E+00  -2.72388817E+00  -3.82434181E+00  -7.71100357E+00  -2.22831890E+00  -4.60840786E+00  -6.93598740E+00  -6.52911485E+00  -4.13657711E+00  -6.80957353E+00  -1.37939663E+02  -1.41747947E+02  -6.42168290E+00  -1.13805886E+01  -1.06754347E+01  -6.96564852E+00  -3.20940335E+00  -9.68479382E+00  -3.41664848E+00  -6.54247457E+01  -1.14216338E+01  -8.34469128E+00  -1.73436032E+00  -4.36746604E+01  -6.28281265E+00  -7.84521548E+00  -5.07515130E+00  -7.92416316E+00  -7.60323634E+00  -8.49138611E+00  -8.07332562E+00  -1.05387447E+01  -9.04481390E+00  -6.98749758E+00  -6.34864650E+00  -1.18944157E+01  -5.91778575E+00  -1.28966256E+01  -7.54829492E+00  -1.09611299E+01  -1.61135549E+01  -1.61138163E+01  -2.19036207E+01  -1.29706103E+01  -2.18046212E+01  -2.18049196E+01  -3.13778010E+01  -2.98862222E+01
   5.07500000E+02   5.00000000E-01   5.00000000E-01  -6.72423728E+00  -1.39773281E+01  -3.13704202E+00  -1.29906344E+00  -1.54161306E+00  -3.54773105E+00  -1.31199308E+01  -6.71663153E+00  -5.13821946E+00  -2.61160927E-01  -4.16534391E+00  -1.96557441E+00  -3.38232273E-01  -1.52614018E+00  -3.74258033E+00  -3.39579285E+00  -6.14023232E+00  -4.40678822E+00  -3.13552471E+00  -1.27542939E+01  -1.14619180E+01  -9.85048411E+00  -1.23804666E+01  -8.70757185E+00  -8.15583254E+00  -1.08032830E+01  -1.36190339E+01  -2.39463094E+00  -5.27679676E+00  -2.72835570E+00  -3.84266961E+00  -7.68863315E+00  -2.24478588E+00  -4.55446605E+00  -6.89445647E+00  -6.48946757E+00  -4.10622085E+00  -6.79833666E+00  -1.36906276E+02  -1.40683710E+02  -6.38657554E+00  -1.12837043E+01  -1.06052201E+01  -6.89552409E+00  -3.20451821E+00  -9.66172322E+00  -3.42121507E+00  -6.49308631E+01  -1.13506035E+01  -8.33435914E+00  -1.74417729E+00  -4.33602228E+01  -6.29285273E+00  -7.88238533E+00  -5.08815313E+00  -7.86137530E+00  -7.59189450E+00  -8.53110230E+00  -8.05399698E+00  -1.05847228E+01  -9.06242190E+00  -6.96486089E+00  -6.34032019E+00  -1.18536342E+01  -5.91921504E+00  -1.27858913E+01  -7.54574029E+00  -1.09697984E+01  -1.61231888E+01  -1.61234543E+01  -2.19172351E+01  -1.29763762E+01  -2.18188841E+01  -2.18191842E+01  -3.13714811E+01  -2.97286735E+01
   5.42500000E+02   5.00000000E-01   5.00000000E-01  -6.67357425E+00  -1.39170532E+01  -3.10081468E+00  -1.29950042E+00  -1.55473959E+00  -3.52067752E+00  -1.30610803E+01  -6.71703984E+00  -5.13848090E+00  -2.60858981E-01  -4.16505861E+00  -1.96604270E+00  -3.37524428E-01  -1.53333065E+00  -3.74229502E+00  -3.39550754E+00  -6.15311691E+00  -4.40650292E+00  -3.12054277E+00  -1.26835058E+01  -1.13789991E+01  -9.79207416E+00  -1.23150658E+01  -8.69124724E+00  -8.14126565E+00  -1.08269435E+01  -1.35735846E+01  -2.40109704E+00  -5.31793958E+00  -2.73272556E+00  -3.86033402E+00  -7.66690412E+00  -2.26150742E+00  -4.50247481E+00  -6.85437333E+00  -6.45188081E+00  -4.07797904E+00  -6.78749635E+00  -1.35885611E+02  -1.39632724E+02  -6.35271533E+00  -1.11887861E+01  -1.05354875E+01  -6.82628014E+00  -3.19939346E+00  -9.63897258E+00  -3.42569397E+00  -6.44424886E+01  -1.12799578E+01  -8.32388058E+00  -1.75374432E+00  -4.30494327E+01  -6.30370886E+00  -7.91976839E+00  -5.10317938E+00  -7.80201201E+00  -7.58312643E+00  -8.57249056E+00  -8.03546503E+00  -1.06313998E+01  -9.08038393E+00  -6.94255826E+00  -6.33167289E+00  -1.18133734E+01  -5.92085623E+00  -1.26777433E+01  -7.54381028E+00  -1.09792493E+01  -1.61339741E+01  -1.61342454E+01  -2.19324278E+01  -1.29832217E+01  -2.18347153E+01  -2.18350186E+01  -3.13674107E+01  -2.95728299E+01
   5.77500000E+02   5.00000000E-01   5.00000000E-01  -6.62373905E+00  -1.38579163E+01  -3.06519450E+00  -1.29994616E+00  -1.56810991E+00  -3.49549974E+00  -1.30029599E+01  -6.71746057E+00  -5.13873223E+00  -2.60544214E-01  -4.16475885E+00  -1.96652395E+00  -3.36818806E-01  -1.54074160E+00  -3.74199527E+00  -3.39520779E+00  -6.16686665E+00  -4.40620316E+00  -3.10585496E+00  -1.26135041E+01  -1.12969579E+01  -9.73428491E+00  -1.22504663E+01  -8.67534858E+00  -8.12651678E+00  -1.08509597E+01  -1.35288508E+01  -2.40812423E+00  -5.35949769E+00  -2.73700590E+00  -3.87736872E+00  -7.64581037E+00  -2.27847654E+00  -4.45221304E+00  -6.81554018E+00  -6.41613320E+00  -4.05161876E+00  -6.77704543E+00  -1.34877418E+02  -1.38594706E+02  -6.32011210E+00  -1.10958280E+01  -1.04662745E+01  -6.75788230E+00  -3.19405037E+00  -9.61655205E+00  -3.43008347E+00  -6.39595276E+01  -1.12097554E+01  -8.31328258E+00  -1.76306467E+00  -4.27422290E+01  -6.31541818E+00  -7.95743017E+00  -5.12006520E+00  -7.74584127E+00  -7.57673218E+00  -8.61538300E+00  -8.01777567E+00  -1.06787936E+01  -9.09876197E+00  -6.92064952E+00  -6.32272589E+00  -1.17736379E+01  -5.92271154E+00  -1.25720815E+01  -7.54243783E+00  -1.09894234E+01  -1.61458214E+01  -1.61461005E+01  -2.19490809E+01  -1.29910155E+01  -2.18519968E+01  -2.18523050E+01  -3.13654084E+01  -2.94186130E+01
   6.12500000E+02   5.00000000E-01   5.00000000E-01  -6.57470300E+00  -1.37998914E+01  -3.03022091E+00  -1.30040155E+00  -1.58171145E+00  -3.47199905E+00  -1.29454872E+01  -6.71789386E+00  -5.13897312E+00  -2.60216919E-01  -4.16444503E+00  -1.96701789E+00  -3.36114866E-01  -1.54834825E+00  -3.74168145E+00  -3.39489397E+00  -6.18149563E+00  -4.40588934E+00  -3.09142938E+00  -1.25442740E+01  -1.12158034E+01  -9.67714621E+00  -1.21866650E+01  -8.65993239E+00  -8.11160324E+00  -1.08753919E+01  -1.34848296E+01  -2.41574908E+00  -5.40150786E+00  -2.74120435E+00  -3.89380534E+00  -7.62534469E+00  -2.29568641E+00  -4.40350008E+00  -6.77779820E+00  -6.38204279E+00  -4.02694816E+00  -6.76697593E+00  -1.33881455E+02  -1.37569386E+02  -6.28877365E+00  -1.10048233E+01  -1.03976111E+01  -6.69029904E+00  -3.18850866E+00  -9.59446952E+00  -3.43438201E+00  -6.34818886E+01  -1.11400449E+01  -8.30258900E+00  -1.77214161E+00  -4.24385519E+01  -6.32801298E+00  -7.99542877E+00  -5.13868419E+00  -7.69267100E+00  -7.57254903E+00  -8.65964644E+00  -8.00096918E+00  -1.07269183E+01  -9.11761505E+00  -6.89919310E+00  -6.31349903E+00  -1.17344302E+01  -5.92478251E+00  -1.24688104E+01  -7.54156413E+00  -1.10002677E+01  -1.61586507E+01  -1.61589396E+01  -2.19670891E+01  -1.29996430E+01  -2.18706233E+01  -2.18709384E+01  -3.13653126E+01  -2.92659542E+01
   6.47500000E+02   5.00000000E-01   5.00000000E-01  -6.52643888E+00  -1.37429516E+01  -2.99593330E+00  -1.30086729E+00  -1.59553259E+00  -3.45000976E+00  -1.28885891E+01  -6.71833980E+00  -5.13920324E+00  -2.59877369E-01  -4.16411751E+00  -1.96752422E+00  -3.35412096E-01  -1.55612762E+00  -3.74135392E+00  -3.39456644E+00  -6.19701466E+00  -4.40556181E+00  -3.07723690E+00  -1.24758007E+01  -1.11355410E+01  -9.62068273E+00  -1.21236564E+01  -8.64505380E+00  -8.09654096E+00  -1.09002986E+01  -1.34415176E+01  -2.42400838E+00  -5.44400727E+00  -2.74532810E+00  -3.90967354E+00  -7.60549982E+00  -2.31313036E+00  -4.35618688E+00  -6.74101871E+00  -6.34945927E+00  -4.00380747E+00  -6.75728018E+00  -1.32897489E+02  -1.36556501E+02  -6.25870454E+00  -1.09157624E+01  -1.03295220E+01  -6.62350055E+00  -3.18278654E+00  -9.57273178E+00  -3.43858821E+00  -6.30094816E+01  -1.10708680E+01  -8.29182180E+00  -1.78097843E+00  -4.21383427E+01  -6.34152066E+00  -8.03381596E+00  -5.15894057E+00  -7.64233880E+00  -7.57044244E+00  -8.70517446E+00  -7.98508021E+00  -1.07757848E+01  -9.13700032E+00  -6.87824598E+00  -6.30401067E+00  -1.16957519E+01  -5.92706990E+00  -1.23678373E+01  -7.54113528E+00  -1.10117334E+01  -1.61723886E+01  -1.61726896E+01  -2.19863553E+01  -1.30089991E+01  -2.18904979E+01  -2.18908218E+01  -3.13669745E+01  -2.91147889E+01
   6.82500000E+02   5.00000000E-01   5.00000000E-01  -6.47891799E+00  -1.36871379E+01  -2.96236853E+00  -1.30134394E+00  -1.60956257E+00  -3.42939245E+00  -1.28320628E+01  -6.71879837E+00  -5.13942225E+00  -2.59525824E-01  -4.16377660E+00  -1.96804232E+00  -3.34710009E-01  -1.56405841E+00  -3.74101301E+00  -3.39422553E+00  -6.21343188E+00  -4.40522091E+00  -3.06323886E+00  -1.24080670E+01  -1.10562471E+01  -9.56499463E+00  -1.20615041E+01  -8.63076694E+00  -8.08134453E+00  -1.09257395E+01  -1.33989131E+01  -2.43293943E+00  -5.48703656E+00  -2.74938392E+00  -3.92500116E+00  -7.58627133E+00  -2.33080186E+00  -4.31014937E+00  -6.70509673E+00  -6.31826016E+00  -3.98206243E+00  -6.74795355E+00  -1.31925288E+02  -1.35555790E+02  -6.22990389E+00  -1.08286276E+01  -1.02621047E+01  -6.55745583E+00  -3.17690059E+00  -9.55134710E+00  -3.44270048E+00  -6.25422158E+01  -1.10023409E+01  -8.28100396E+00  -1.78957844E+00  -4.18415439E+01  -6.35596444E+00  -8.07264077E+00  -5.18076575E+00  -7.59470314E+00  -7.57030012E+00  -8.75188433E+00  -7.97013826E+00  -1.08254044E+01  -9.15697631E+00  -6.85786409E+00  -6.29427784E+00  -1.16576065E+01  -5.92957380E+00  -1.22691319E+01  -7.54108055E+00  -1.10237569E+01  -1.61869396E+01  -1.61872548E+01  -2.20067530E+01  -1.30189453E+01  -2.19114938E+01  -2.19118289E+01  -3.13702017E+01  -2.89650325E+01
   7.17500000E+02   5.00000000E-01   5.00000000E-01  -6.43211113E+00  -1.36324051E+01  -2.92956163E+00  -1.30183185E+00  -1.62379148E+00  -3.41002898E+00  -1.27758477E+01  -6.71926952E+00  -5.13962975E+00  -2.59162522E-01  -4.16342262E+00  -1.96857160E+00  -3.34008149E-01  -1.57212091E+00  -3.74065903E+00  -3.39387155E+00  -6.23075245E+00  -4.40486693E+00  -3.04940341E+00  -1.23410541E+01  -1.09779132E+01  -9.51009943E+00  -1.20001862E+01  -8.61712475E+00  -8.06602734E+00  -1.09517744E+01  -1.33570160E+01  -2.44257973E+00  -5.53063853E+00  -2.75337821E+00  -3.93981438E+00  -7.56765663E+00  -2.34869454E+00  -4.26528354E+00  -6.66994605E+00  -6.28834484E+00  -3.96159927E+00  -6.73899346E+00  -1.30964625E+02  -1.34566996E+02  -6.20236604E+00  -1.07433951E+01  -1.01953725E+01  -6.49213354E+00  -3.17086611E+00  -9.53032465E+00  -3.44671740E+00  -6.20800003E+01  -1.09344954E+01  -8.27015859E+00  -1.79794486E+00  -4.15480988E+01  -6.37136316E+00  -8.11194836E+00  -5.20411216E+00  -7.54963898E+00  -7.57202668E+00  -8.79971080E+00  -7.95616777E+00  -1.08757873E+01  -9.17760169E+00  -6.83810206E+00  -6.28431628E+00  -1.16199985E+01  -5.93229363E+00  -1.21725873E+01  -7.54134406E+00  -1.10362907E+01  -1.62022319E+01  -1.62025640E+01  -2.20281875E+01  -1.30293726E+01  -2.19335165E+01  -2.19338650E+01  -3.13748500E+01  -2.88166007E+01