 TITLE = "Total Concentrations" 
VARIABLES = "X"          "Y"              "Z"            "H+"             "Al+++"          "CO2(aq)"        "Mg++"           "Ca++"           "Fe++"           "Fe+++"          "Ba++"           "Sr++"           "Cl-"            "F-"             "K+"             "HS-"            "Na+"            "SO4--"          "O2(aq)"         "B(OH)3(aq)"     "HPO4--"         "NO3-"           "H4SiO4(aq)"     "HNO3(aq)"       "Al(OH)2+"       "AlO2-"          "AlOH++"         "BaHCO3+"        "BaCl+"          "BaCO3(aq)"      "BaOH+"          "HCO3-"          "CO3--"          "CaCl+"          "CaCl2(aq)"      "CaOH+"          "CaSO4(aq)"      "FeCl+"          "FeCl2(aq)"      "FeOH+"          "FeSO4(aq)"      "OH-"            "S2O3--"         "H2S(aq)"        "H2PO4-"         "H3PO4(aq)"      "HAlO2(aq)"      "HSO4-"          "KCl(aq)"        "KOH(aq)"        "KSO4-"          "NH3(aq)"        "NaAlO2(aq)"     "NaOH(aq)"       "NaSO4-"         "H2(aq)"         "CaHPO4(aq)"     "CaPO4-"         "FeCO3(aq)"      "FeH2PO4+"       "FeHPO4(aq)"     "FePO4-"         "KHPO4-"         "PO4---"         "Sr(CO3)(aq)"    "SrHCO3+"        "SrCl+"          "SrOH+"          "SrSO4(aq)"      "AlH3SiO4++"     "Si2O2(OH)5-"    "Si2O3(OH)4--"   "Si3O5(OH)5---"  "Si3O6(OH)3---"  "Si4O12H4----"   "Si4O6(OH)6--"   "Si4O7(OH)6----" "Si4O8(OH)4----" "Si6O15------"   "SiF6--"        
 ZONE I=         200 , J=           1 , K=           1  F=POINT
   8.75000000E+00   5.00000000E-01   5.00000000E-01  -7.87863807E+00  -1.79178440E+01  -4.00339239E+00  -1.29406081E+00  -2.04408991E+00  -4.44403533E+00  -2.19804952E+01  -6.71263469E+00  -5.10355376E+00  -2.62115709E-01  -4.16749363E+00  -1.95197194E+00  -1.00507691E+01  -3.35544476E-01  -1.83620572E+00  -7.74473466E+00  -3.39794256E+00  -5.87448181E+00  -4.40893793E+00  -3.36792701E+00  -1.41632337E+01  -1.49893043E+01  -1.23272129E+01  -1.60049285E+01  -8.92507337E+00  -8.30749716E+00  -1.01007957E+01  -1.39921067E+01  -2.33720342E+00  -4.40078747E+00  -3.28601787E+00  -4.11685367E+00  -8.37813162E+00  -3.01320609E+00  -5.75579520E+00  -7.83982502E+00  -7.17576122E+00  -5.33544161E+00  -6.67143529E+00  -1.50447633E+02  -1.09210885E+01  -7.13703156E+00  -1.32991618E+01  -1.35483660E+01  -8.66715499E+00  -3.20732985E+00  -9.65590490E+00  -3.68516236E+00  -6.47614515E+01  -1.39364441E+01  -8.09314919E+00  -1.91233063E+00  -4.61561936E+01  -6.64457495E+00  -7.46176295E+00  -4.97727629E+00  -9.48048774E+00  -8.04356961E+00  -7.84306514E+00  -8.17443798E+00  -9.52914812E+00  -8.41692833E+00  -7.23129224E+00  -6.36342289E+00  -1.20987953E+01  -6.20358489E+00  -1.72363399E+01  -7.29954032E+00  -1.02589313E+01  -1.51241900E+01  -1.51244304E+01  -2.05433613E+01  -1.23245087E+01  -2.04349908E+01  -2.04352567E+01  -2.98422994E+01  -3.34459711E+01
   2.62500000E+01   5.00000000E-01   5.00000000E-01  -7.59947925E+00  -1.62370808E+01  -3.74814581E+00  -1.29675360E+00  -2.03590740E+00  -4.10133776E+00  -2.12069016E+01  -6.71276401E+00  -5.10390845E+00  -2.62118930E-01  -4.16749120E+00  -1.95222433E+00  -1.00848349E+01  -3.35343392E-01  -1.83176102E+00  -7.74473691E+00  -3.39794013E+00  -5.89138669E+00  -4.40893551E+00  -3.19963662E+00  -1.38715078E+01  -1.37578623E+01  -1.15781978E+01  -1.45561226E+01  -8.91815319E+00  -8.30094892E+00  -1.03546873E+01  -1.41804134E+01  -2.34320606E+00  -4.66340451E+00  -3.27750423E+00  -4.12706156E+00  -8.57039446E+00  -3.00467876E+00  -5.39854527E+00  -7.49940631E+00  -7.05731277E+00  -4.98893816E+00  -6.88785497E+00  -1.49032992E+02  -1.07062638E+01  -6.88515180E+00  -1.27636683E+01  -1.25626304E+01  -8.36935000E+00  -3.20862767E+00  -9.86644402E+00  -3.68512753E+00  -6.41026392E+01  -1.31831600E+01  -8.31969455E+00  -1.91857688E+00  -4.58812768E+01  -6.64919416E+00  -7.72446330E+00  -4.90740296E+00  -8.88647929E+00  -7.72883376E+00  -7.80742917E+00  -8.17196656E+00  -9.80184008E+00  -8.66597852E+00  -7.22061922E+00  -6.36292980E+00  -1.22936689E+01  -6.19930260E+00  -1.55773294E+01  -7.21415048E+00  -1.04105292E+01  -1.53490288E+01  -1.53492769E+01  -2.08438064E+01  -1.21636565E+01  -2.07360052E+01  -2.07362827E+01  -3.02720572E+01  -3.22373203E+01
   4.37500000E+01   5.00000000E-01   5.00000000E-01  -7.46751358E+00  -1.56490879E+01  -3.63792771E+00  -1.29923363E+00  -2.02788421E+00  -3.91337494E+00  -2.08742004E+01  -6.71295591E+00  -5.10434592E+00  -2.62108482E-01  -4.16747385E+00  -1.95247593E+00  -1.01024985E+01  -3.35146056E-01  -1.82764389E+00  -7.74472425E+00  -3.39792278E+00  -5.90590707E+00  -4.40891816E+00  -3.08569678E+00  -1.37267587E+01  -1.33258087E+01  -1.13353807E+01  -1.40532196E+01  -8.90959695E+00  -8.29413236E+00  -1.04604652E+01  -1.42227741E+01  -2.34785567E+00  -4.77819221E+00  -3.26870621E+00  -4.13639097E+00  -8.61654309E+00  -2.99612323E+00  -5.19570744E+00  -7.31286206E+00  -6.94696595E+00  -4.79696873E+00  -6.95819111E+00  -1.47920915E+02  -1.06213580E+01  -6.77756954E+00  -1.25194005E+01  -1.22294462E+01  -8.21867409E+00  -3.20954062E+00  -9.93064176E+00  -3.68495117E+00  -6.35941317E+01  -1.29357214E+01  -8.39945280E+00  -1.92454678E+00  -4.56089346E+01  -6.65105312E+00  -7.83735447E+00  -4.84374425E+00  -8.59156534E+00  -7.56601622E+00  -7.77647333E+00  -8.16671402E+00  -9.92564657E+00  -8.76698526E+00  -7.20829517E+00  -6.36210355E+00  -1.23424602E+01  -6.19507940E+00  -1.49200227E+01  -7.09092750E+00  -1.03778640E+01  -1.52974327E+01  -1.52976866E+01  -2.07757291E+01  -1.19269957E+01  -2.06684936E+01  -2.06687804E+01  -3.01487690E+01  -3.16696071E+01
   6.12500000E+01   5.00000000E-01   5.00000000E-01  -7.38283865E+00  -1.53783616E+01  -3.57308285E+00  -1.30158840E+00  -2.02001135E+00  -3.78319671E+00  -2.06827013E+01  -6.71316624E+00  -5.10481943E+00  -2.62084941E-01  -4.16744223E+00  -1.95278891E+00  -1.01121133E+01  -3.34954192E-01  -1.82383695E+00  -7.74469734E+00  -3.39789117E+00  -5.91814492E+00  -4.40888654E+00  -3.01061616E+00  -1.36290943E+01  -1.31174243E+01  -1.12228176E+01  -1.38206136E+01  -8.89959882E+00  -8.28701313E+00  -1.05182003E+01  -1.42190201E+01  -2.35137660E+00  -4.84525893E+00  -3.25962852E+00  -4.14486156E+00  -8.61645139E+00  -2.98752654E+00  -5.05034441E+00  -7.18326842E+00  -6.84766156E+00  -4.66258031E+00  -6.98231659E+00  -1.46911463E+02  -1.05748455E+01  -6.71449689E+00  -1.23666791E+01  -1.20729849E+01  -8.11522178E+00  -3.21014268E+00  -9.94844301E+00  -3.68469054E+00  -6.31359827E+01  -1.28181998E+01  -8.43232449E+00  -1.93024146E+00  -4.53391261E+01  -6.65025789E+00  -7.90045060E+00  -4.78947679E+00  -8.39900048E+00  -7.45826751E+00  -7.75325718E+00  -8.15886547E+00  -1.00005620E+01  -8.82001687E+00  -7.19451386E+00  -6.36090935E+00  -1.23450022E+01  -6.19086046E+00  -1.45732796E+01  -6.99878651E+00  -1.03297456E+01  -1.52226272E+01  -1.52228853E+01  -2.06767479E+01  -1.17523646E+01  -2.05700741E+01  -2.05703681E+01  -2.99789419E+01  -3.13278171E+01
   7.87500000E+01   5.00000000E-01   5.00000000E-01  -7.31530752E+00  -1.52028957E+01  -3.52417393E+00  -1.30386997E+00  -2.01228285E+00  -3.68326671E+00  -2.05419743E+01  -6.71338390E+00  -5.10531625E+00  -2.62048883E-01  -4.16739695E+00  -1.95317335E+00  -1.01185889E+01  -3.34767001E-01  -1.82032268E+00  -7.74465677E+00  -3.39784588E+00  -5.92945170E+00  -4.40884125E+00  -2.96104857E+00  -1.35483805E+01  -1.29709811E+01  -1.11390463E+01  -1.36664418E+01  -8.88885018E+00  -8.27959438E+00  -1.05587097E+01  -1.41992645E+01  -2.35445372E+00  -4.89541480E+00  -3.25028220E+00  -4.15250310E+00  -8.60024415E+00  -2.97888929E+00  -4.93493600E+00  -7.08312250E+00  -6.76200181E+00  -4.55824414E+00  -6.99034914E+00  -1.45944218E+02  -1.05415148E+01  -6.66715516E+00  -1.22465917E+01  -1.19616576E+01  -8.02884681E+00  -3.21046015E+00  -9.94998946E+00  -3.68435613E+00  -6.26980102E+01  -1.27291493E+01  -8.44845539E+00  -1.93566450E+00  -4.50718149E+01  -6.64817775E+00  -7.94527015E+00  -4.74790245E+00  -8.25246589E+00  -7.37941292E+00  -7.74175622E+00  -8.14980838E+00  -1.00580670E+01  -8.85588854E+00  -7.17996713E+00  -6.35935081E+00  -1.23314106E+01  -6.18663661E+00  -1.43318473E+01  -6.94117198E+00  -1.02997547E+01  -1.51749881E+01  -1.51752490E+01  -2.06140232E+01  -1.16466569E+01  -2.05079071E+01  -2.05082063E+01  -2.98633526E+01  -3.10780971E+01
   9.62500000E+01   5.00000000E-01   5.00000000E-01  -7.25751103E+00  -1.50784384E+01  -3.48400235E+00  -1.30610283E+00  -2.00469514E+00  -3.60225834E+00  -2.04298000E+01  -6.71360677E+00  -5.10583297E+00  -2.62000861E-01  -4.16733854E+00  -1.95360789E+00  -1.01232075E+01  -3.34582309E-01  -1.81708369E+00  -7.74460310E+00  -3.39778748E+00  -5.94021241E+00  -4.40878285E+00  -2.92674569E+00  -1.34772222E+01  -1.28570324E+01  -1.10694116E+01  -1.35538590E+01  -8.87755314E+00  -8.27188999E+00  -1.05895855E+01  -1.41708943E+01  -2.35727239E+00  -4.93623148E+00  -3.24068189E+00  -4.15935040E+00  -8.57531256E+00  -2.97021913E+00  -4.83817294E+00  -7.00113378E+00  -6.68606252E+00  -4.47264584E+00  -6.98966936E+00  -1.45004244E+02  -1.05152657E+01  -6.62853869E+00  -1.21447374E+01  -1.18734209E+01  -7.95214227E+00  -3.21048967E+00  -9.94265602E+00  -3.68392948E+00  -6.22727742E+01  -1.26539307E+01  -8.45525352E+00  -1.94082030E+00  -4.48069669E+01  -6.64522246E+00  -7.97963257E+00  -4.71529842E+00  -8.13362734E+00  -7.31852640E+00  -7.73845513E+00  -8.13993402E+00  -1.01059348E+01  -8.88219117E+00  -7.16485782E+00  -6.35744253E+00  -1.23090749E+01  -6.18241324E+00  -1.41485884E+01  -6.90498375E+00  -1.02821877E+01  -1.51459621E+01  -1.51462247E+01  -2.05761483E+01  -1.15836756E+01  -2.04705856E+01  -2.04708884E+01  -2.97849054E+01  -3.08806378E+01
   1.13750000E+02   5.00000000E-01   5.00000000E-01  -7.20632779E+00  -1.49903220E+01  -3.44955160E+00  -1.30830605E+00  -1.99724612E+00  -3.53426186E+00  -2.03368218E+01  -6.71383439E+00  -5.10636789E+00  -2.61941390E-01  -4.16726754E+00  -1.95406679E+00  -1.01265288E+01  -3.34397669E-01  -1.81410373E+00  -7.74453684E+00  -3.39771647E+00  -5.95059917E+00  -4.40871184E+00  -2.90088401E+00  -1.34125116E+01  -1.27671407E+01  -1.10116928E+01  -1.34713163E+01  -8.86580601E+00  -8.26391518E+00  -1.06140294E+01  -1.41370111E+01  -2.35991303E+00  -4.97088851E+00  -3.23084320E+00  -4.16543876E+00  -8.54476208E+00  -2.96152588E+00  -4.75416235E+00  -6.93142773E+00  -6.61704890E+00  -4.39988856E+00  -6.98337112E+00  -1.44085186E+02  -1.04935617E+01  -6.59571636E+00  -1.20550774E+01  -1.18029533E+01  -7.88198965E+00  -3.21022312E+00  -9.92952601E+00  -3.68338846E+00  -6.18571235E+01  -1.25903385E+01  -8.45583891E+00  -1.94571361E+00  -4.45445489E+01  -6.64159001E+00  -8.00685739E+00  -4.68896606E+00  -8.03364238E+00  -7.26988626E+00  -7.74075492E+00  -8.12941558E+00  -1.01474377E+01  -8.90212505E+00  -7.14928496E+00  -6.35520046E+00  -1.22810995E+01  -6.17819829E+00  -1.40050880E+01  -6.87968326E+00  -1.02696148E+01  -1.51244061E+01  -1.51246693E+01  -2.05482640E+01  -1.15423464E+01  -2.04432503E+01  -2.04435553E+01  -2.97213216E+01  -3.07162026E+01
   1.31250000E+02   5.00000000E-01   5.00000000E-01  -7.15958668E+00  -1.49276344E+01  -3.41875481E+00  -1.31049535E+00  -1.98993419E+00  -3.47575750E+00  -2.02565336E+01  -6.71406648E+00  -5.10691955E+00  -2.61870947E-01  -4.16718441E+00  -1.95453026E+00  -1.01290181E+01  -3.34211126E-01  -1.81136753E+00  -7.74445845E+00  -3.39763334E+00  -5.96078301E+00  -4.40862871E+00  -2.87935815E+00  -1.33520907E+01  -1.26947240E+01  -1.09636247E+01  -1.34100701E+01  -8.85370676E+00  -8.25568467E+00  -1.06342929E+01  -1.40997668E+01  -2.36245631E+00  -5.00161620E+00  -3.22078151E+00  -4.17080251E+00  -8.51074873E+00  -2.95281965E+00  -4.67940057E+00  -6.87051827E+00  -6.55360599E+00  -4.33646515E+00  -6.97359893E+00  -1.43182592E+02  -1.04747219E+01  -6.56670553E+00  -1.19734707E+01  -1.17458384E+01  -7.81622092E+00  -3.20965756E+00  -9.91273876E+00  -3.68271708E+00  -6.14488574E+01  -1.25361226E+01  -8.45238151E+00  -1.95034973E+00  -4.42845285E+01  -6.63747662E+00  -8.02931191E+00  -4.66764612E+00  -7.94700714E+00  -7.23015921E+00  -7.74749456E+00  -8.11842977E+00  -1.01848977E+01  -8.91794049E+00  -7.13334717E+00  -6.35264004E+00  -1.22496389E+01  -6.17399976E+00  -1.38884560E+01  -6.85921810E+00  -1.02581424E+01  -1.51044807E+01  -1.51047439E+01  -2.05225833E+01  -1.15105672E+01  -2.04181140E+01  -2.04184202E+01  -2.96609295E+01  -3.05720706E+01
   1.48750000E+02   5.00000000E-01   5.00000000E-01  -7.11579523E+00  -1.48821719E+01  -3.39021415E+00  -1.31268197E+00  -1.98275773E+00  -3.42448741E+00  -2.01844655E+01  -6.71430295E+00  -5.10748668E+00  -2.61789968E-01  -4.16708959E+00  -1.95498532E+00  -1.01310353E+01  -3.34021379E-01  -1.80886059E+00  -7.74436839E+00  -3.39753852E+00  -5.97091612E+00  -4.40853389E+00  -2.85986619E+00  -1.32944793E+01  -1.26345512E+01  -1.09229372E+01  -1.33634066E+01  -8.84134399E+00  -8.24721274E+00  -1.06519405E+01  -1.40606356E+01  -2.36497415E+00  -5.02995823E+00  -3.21051147E+00  -4.17547449E+00  -8.47475015E+00  -2.94411023E+00  -4.61164511E+00  -6.81617983E+00  -6.49496220E+00  -4.28013002E+00  -6.96181963E+00  -1.42293368E+02  -1.04576377E+01  -6.54018276E+00  -1.18971137E+01  -1.16983328E+01  -7.75334674E+00  -3.20879622E+00  -9.89376208E+00  -3.68190626E+00  -6.10464541E+01  -1.24890275E+01  -8.44637312E+00  -1.95473456E+00  -4.40268737E+01  -6.63305856E+00  -8.04866473E+00  -4.65065346E+00  -7.87013894E+00  -7.19725464E+00  -7.75807693E+00  -8.10714011E+00  -1.02199397E+01  -8.93120041E+00  -7.11713367E+00  -6.34977622E+00  -1.22161698E+01  -6.16982562E+00  -1.37896369E+01  -6.84046433E+00  -1.02461268E+01  -1.50837215E+01  -1.50839842E+01  -2.04958192E+01  -1.14820926E+01  -2.03918897E+01  -2.03921961E+01  -2.95988060E+01  -3.04400356E+01
   1.66250000E+02   5.00000000E-01   5.00000000E-01  -7.07393928E+00  -1.48477544E+01  -3.36299827E+00  -1.31487329E+00  -1.97571482E+00  -3.37892113E+00  -2.01175821E+01  -6.71454379E+00  -5.10806812E+00  -2.61698859E-01  -4.16698348E+00  -1.95542450E+00  -1.01328473E+01  -3.33827669E-01  -1.80656921E+00  -7.74426705E+00  -3.39743241E+00  -5.98112669E+00  -4.40842778E+00  -2.84123602E+00  -1.32386750E+01  -1.25824592E+01  -1.08874715E+01  -1.33261574E+01  -8.82879466E+00  -8.23851314E+00  -1.06680469E+01  -1.40206137E+01  -2.36752744E+00  -5.05696970E+00  -3.20004675E+00  -4.17948592E+00  -8.43776570E+00  -2.93540675E+00  -4.54938024E+00  -6.76691295E+00  -6.44059516E+00  -4.22936463E+00  -6.94902266E+00  -1.41415381E+02  -1.04415848E+01  -6.51527827E+00  -1.18241345E+01  -1.16572825E+01  -7.69235613E+00  -3.20764715E+00  -9.87359126E+00  -3.68095242E+00  -6.06488704E+01  -1.24469096E+01  -8.43882752E+00  -1.95887452E+00  -4.37715533E+01  -6.62848676E+00  -8.06608059E+00  -4.63754055E+00  -7.80063634E+00  -7.16978495E+00  -7.77212952E+00  -8.09569046E+00  -1.02536869E+01  -8.94297843E+00  -7.10072201E+00  -6.34662342E+00  -1.21816907E+01  -6.16568367E+00  -1.37022515E+01  -6.82207940E+00  -1.02332276E+01  -1.50616188E+01  -1.50618806E+01  -2.04672913E+01  -1.14542401E+01  -2.03638967E+01  -2.03642026E+01  -2.95339364E+01  -3.03149317E+01
   1.83750000E+02   5.00000000E-01   5.00000000E-01  -7.03333414E+00  -1.48197475E+01  -3.33649460E+00  -1.31707390E+00  -1.96880316E+00  -3.33797548E+00  -2.00538363E+01  -6.71478908E+00  -5.10866284E+00  -2.61597992E-01  -4.16686647E+00  -1.95584411E+00  -1.01346476E+01  -3.33629615E-01  -1.80448045E+00  -7.74415481E+00  -3.39731540E+00  -5.99152056E+00  -4.40831078E+00  -2.82295824E+00  -1.31840045E+01  -1.25351711E+01  -1.08552977E+01  -1.32943702E+01  -8.81612522E+00  -8.22959909E+00  -1.06833477E+01  -1.39803685E+01  -2.37016722E+00  -5.08336714E+00  -3.18939998E+00  -4.18286624E+00  -8.40046519E+00  -2.92671769E+00  -4.49153682E+00  -6.72166407E+00  -6.39010041E+00  -4.18309737E+00  -6.93586884E+00  -1.40547158E+02  -1.04260943E+01  -6.49142878E+00  -1.17532962E+01  -1.16200907E+01  -7.63256765E+00  -3.20622153E+00  -9.85289618E+00  -3.67985591E+00  -6.02553930E+01  -1.24078530E+01  -8.43042923E+00  -1.96277635E+00  -4.35185366E+01  -6.62388832E+00  -8.08237087E+00  -4.62796739E+00  -7.73685175E+00  -7.14678699E+00  -7.78937473E+00  -8.08420498E+00  -1.02869114E+01  -8.95400871E+00  -7.08417914E+00  -6.34319549E+00  -1.21468714E+01  -6.16158156E+00  -1.36218009E+01  -6.80371694E+00  -1.02197713E+01  -1.50386632E+01  -1.50389238E+01  -2.04376530E+01  -1.14263192E+01  -2.03347883E+01  -2.03350933E+01  -2.94673059E+01  -3.01935706E+01
   2.01250000E+02   5.00000000E-01   5.00000000E-01  -6.99363836E+00  -1.47958010E+01  -3.31041390E+00  -1.31928635E+00  -1.96202007E+00  -3.30086217E+00  -1.99922108E+01  -6.71503903E+00  -5.10926997E+00  -2.61487717E-01  -4.16673891E+00  -1.95624219E+00  -1.01365347E+01  -3.33427019E-01  -1.80258219E+00  -7.74403202E+00  -3.39718784E+00  -6.00216109E+00  -4.40818321E+00  -2.80480384E+00  -1.31301369E+01  -1.24910083E+01  -1.08253978E+01  -1.32660336E+01  -8.80338239E+00  -8.22048337E+00  -1.06982160E+01  -1.39402246E+01  -2.37292538E+00  -5.10950539E+00  -3.17858277E+00  -4.18564324E+00  -8.36317509E+00  -2.91805088E+00  -4.43733993E+00  -6.67967325E+00  -6.34302523E+00  -4.14055120E+00  -6.92267664E+00  -1.39687917E+02  -1.04109444E+01  -6.46837116E+00  -1.16840049E+01  -1.15854157E+01  -7.57364322E+00  -3.20453164E+00  -9.83200552E+00  -3.67861887E+00  -5.98656517E+01  -1.23708540E+01  -8.42151949E+00  -1.96644699E+00  -4.32677933E+01  -6.61934647E+00  -8.09795970E+00  -4.62152602E+00  -7.67773267E+00  -7.12754955E+00  -7.80944359E+00  -8.07276596E+00  -1.03200002E+01  -8.96466306E+00  -7.06755232E+00  -6.33950582E+00  -1.21120388E+01  -6.15752691E+00  -1.35460085E+01  -6.78524831E+00  -1.02059590E+01  -1.50151569E+01  -1.50154165E+01  -2.04073069E+01  -1.13980748E+01  -2.03049671E+01  -2.03052708E+01  -2.93995229E+01  -3.00744144E+01
   2.18750000E+02   5.00000000E-01   5.00000000E-01  -6.95469972E+00  -1.47748954E+01  -3.28464306E+00  -1.32151208E+00  -1.95536258E+00  -3.26698898E+00  -1.99322558E+01  -6.71529393E+00  -5.10988874E+00  -2.61368362E-01  -4.16660112E+00  -1.95661769E+00  -1.01385510E+01  -3.33219762E-01  -1.80086309E+00  -7.74389900E+00  -3.39705005E+00  -6.01308289E+00  -4.40804542E+00  -2.78665999E+00  -1.30769302E+01  -1.24492445E+01  -1.07973287E+01  -1.32402778E+01  -8.79059997E+00  -8.21117824E+00  -1.07128230E+01  -1.39003179E+01  -2.37582148E+00  -5.13553844E+00  -3.16760581E+00  -4.18784309E+00  -8.32603259E+00  -2.90941353E+00  -4.38621014E+00  -6.64037538E+00  -6.29892383E+00  -4.10114482E+00  -6.90957609E+00  -1.38837253E+02  -1.03960458E+01  -6.44600218E+00  -1.16160156E+01  -1.15526790E+01  -7.51543408E+00  -3.20259001E+00  -9.81105977E+00  -3.67724445E+00  -5.94794661E+01  -1.23354826E+01  -8.41225017E+00  -1.96989346E+00  -4.30192939E+01  -6.61491430E+00  -8.11305177E+00  -4.61780251E+00  -7.62258267E+00  -7.11152829E+00  -7.83194467E+00  -8.06142679E+00  -1.03531227E+01  -8.97511157E+00  -7.05087579E+00  -6.33556727E+00  -1.20773309E+01  -6.15352717E+00  -1.34738565E+01  -6.76658821E+00  -1.01918462E+01  -1.49911838E+01  -1.49914424E+01  -2.03763644E+01  -1.13693383E+01  -2.02745444E+01  -2.02748466E+01  -2.93307581E+01  -2.99567960E+01
   2.36250000E+02   5.00000000E-01   5.00000000E-01  -6.91636510E+00  -1.47558360E+01  -3.25907045E+00  -1.32375230E+00  -1.94882750E+00  -3.23589485E+00  -1.98735190E+01  -6.71555402E+00  -5.11051838E+00  -2.61240231E-01  -4.16645341E+00  -1.95697051E+00  -1.01407438E+01  -3.33007788E-01  -1.79931259E+00  -7.74375607E+00  -3.39690234E+00  -6.02432428E+00  -4.40789771E+00  -2.76851996E+00  -1.30242408E+01  -1.24089804E+01  -1.07704768E+01  -1.32160588E+01  -8.77781415E+00  -8.20169531E+00  -1.07273441E+01  -1.38607855E+01  -2.37887824E+00  -5.16162512E+00  -3.15647890E+00  -4.18949042E+00  -8.28917579E+00  -2.90081227E+00  -4.33769844E+00  -6.60333513E+00  -6.25748248E+00  -4.06442766E+00  -6.89669893E+00  -1.37994765E+02  -1.03813127E+01  -6.42422071E+00  -1.15490834E+01  -1.15211300E+01  -7.45779064E+00  -3.20040948E+00  -9.79020154E+00  -3.67573679E+00  -5.90966547E+01  -1.23011379E+01  -8.40277389E+00  -1.97312279E+00  -4.27730091E+01  -6.61064725E+00  -8.12785498E+00  -4.61651767E+00  -7.57083857E+00  -7.09831304E+00  -7.85662167E+00  -8.05024438E+00  -1.03864540E+01  -8.98552812E+00  -7.03418617E+00  -6.33139201E+00  -1.20428870E+01  -6.14958938E+00  -1.34042606E+01  -6.74786473E+00  -1.01777030E+01  -1.49671496E+01  -1.49674075E+01  -2.03453659E+01  -1.13403680E+01  -2.02440605E+01  -2.02443613E+01  -2.92618257E+01  -2.98401480E+01
   2.53750000E+02   5.00000000E-01   5.00000000E-01  -6.87859430E+00  -1.47383312E+01  -3.23368713E+00  -1.32600766E+00  -1.94241153E+00  -3.20721832E+00  -1.98158866E+01  -6.71581962E+00  -5.11115817E+00  -2.61103614E-01  -4.16629606E+00  -1.95730081E+00  -1.01431230E+01  -3.32791050E-01  -1.79792086E+00  -7.74360349E+00  -3.39674499E+00  -6.03590079E+00  -4.40774036E+00  -2.75037933E+00  -1.29720376E+01  -1.23699938E+01  -1.07446802E+01  -1.31931225E+01  -8.76505098E+00  -8.19204567E+00  -1.07418317E+01  -1.38216518E+01  -2.38210887E+00  -5.18780246E+00  -3.14521113E+00  -4.19060851E+00  -8.25262997E+00  -2.89225323E+00  -4.29145489E+00  -6.56821564E+00  -6.21837426E+00  -4.03004838E+00  -6.88406474E+00  -1.37160279E+02  -1.03667337E+01  -6.40301523E+00  -1.14831660E+01  -1.14905825E+01  -7.40067628E+00  -3.19800252E+00  -9.76946094E+00  -3.67410032E+00  -5.87171492E+01  -1.22676703E+01  -8.39313013E+00  -1.97614195E+00  -4.25289103E+01  -6.60657681E+00  -8.14244032E+00  -4.61736903E+00  -7.52212647E+00  -7.08757000E+00  -7.88318167E+00  -8.03925212E+00  -1.04200340E+01  -8.99596401E+00  -7.01750992E+00  -6.32699171E+00  -1.20087336E+01  -6.14572040E+00  -1.33369294E+01  -6.72909790E+00  -1.01635786E+01  -1.49431286E+01  -1.49433862E+01  -2.03144104E+01  -1.13112058E+01  -2.02136143E+01  -2.02139139E+01  -2.91928771E+01  -2.97243547E+01
   2.71250000E+02   5.00000000E-01   5.00000000E-01  -6.84136187E+00  -1.47222016E+01  -3.20849718E+00  -1.32827878E+00  -1.93611130E+00  -3.18066882E+00  -1.97592893E+01  -6.71609101E+00  -5.11180745E+00  -2.60958781E-01  -4.16612934E+00  -1.95760905E+00  -1.01456940E+01  -3.32569497E-01  -1.79667871E+00  -7.74344155E+00  -3.39657827E+00  -6.04782316E+00  -4.40757364E+00  -2.73224142E+00  -1.29203037E+01  -1.23321453E+01  -1.07198310E+01  -1.31713123E+01  -8.75233483E+00  -8.18223984E+00  -1.07563222E+01  -1.37829271E+01  -2.38552552E+00  -5.21409234E+00  -3.13381095E+00  -4.19121936E+00  -8.21640579E+00  -2.88374213E+00  -4.24719981E+00  -6.53474971E+00  -6.18132837E+00  -3.99772611E+00  -6.87167905E+00  -1.36333650E+02  -1.03523068E+01  -6.38238359E+00  -1.14182445E+01  -1.14609185E+01  -7.34406917E+00  -3.19538132E+00  -9.74885377E+00  -3.67233978E+00  -5.83408964E+01  -1.22349833E+01  -8.38334340E+00  -1.97895783E+00  -4.22869691E+01  -6.60272859E+00  -8.15685804E+00  -4.62010871E+00  -7.47615271E+00  -7.07903087E+00  -7.91138245E+00  -8.02847789E+00  -1.04538834E+01  -9.00645445E+00  -7.00087177E+00  -6.32237742E+00  -1.19748829E+01  -6.14192670E+00  -1.32716779E+01  -6.71030868E+00  -1.01495088E+01  -1.49191749E+01  -1.49194326E+01  -2.02835695E+01  -1.12818956E+01  -2.01832773E+01  -2.01835759E+01  -2.91240230E+01  -2.96093650E+01
   2.88750000E+02   5.00000000E-01   5.00000000E-01  -6.80463674E+00  -1.47072100E+01  -3.18349951E+00  -1.33056624E+00  -1.92992345E+00  -3.15600891E+00  -1.97036406E+01  -6.71636845E+00  -5.11246549E+00  -2.60805989E-01  -4.16595349E+00  -1.95789600E+00  -1.01484643E+01  -3.32343083E-01  -1.79557758E+00  -7.74327048E+00  -3.39640242E+00  -6.06010207E+00  -4.40739779E+00  -2.71411967E+00  -1.28690162E+01  -1.22952494E+01  -1.06957872E+01  -1.31504196E+01  -8.73969058E+00  -8.17228778E+00  -1.07708588E+01  -1.37446273E+01  -2.38914154E+00  -5.24052417E+00  -3.12228624E+00  -4.19134381E+00  -8.18051979E+00  -2.87528427E+00  -4.20470609E+00  -6.50272214E+00  -6.14613286E+00  -3.96723267E+00  -6.85955379E+00  -1.35514728E+02  -1.03380264E+01  -6.36231737E+00  -1.13542874E+01  -1.14319793E+01  -7.28794183E+00  -3.19255777E+00  -9.72840198E+00  -3.67046015E+00  -5.79678371E+01  -1.22029458E+01  -8.37344367E+00  -1.98157722E+00  -4.20471578E+01  -6.59912714E+00  -8.17116301E+00  -4.62454838E+00  -7.43267056E+00  -7.07247991E+00  -7.94104001E+00  -8.01794884E+00  -1.04880294E+01  -9.01704128E+00  -6.98429693E+00  -6.31755960E+00  -1.19413527E+01  -6.13821437E+00  -1.32082803E+01  -6.69154425E+00  -1.01355612E+01  -1.48953905E+01  -1.48956490E+01  -2.02529791E+01  -1.12525337E+01  -2.01531854E+01  -2.01534835E+01  -2.90554700E+01  -2.94951131E+01
   3.06250000E+02   5.00000000E-01   5.00000000E-01  -6.76838279E+00  -1.46930679E+01  -3.15868879E+00  -1.33287064E+00  -1.92384469E+00  -3.13304220E+00  -1.96488390E+01  -6.71665216E+00  -5.11313159E+00  -2.60645478E-01  -4.16576875E+00  -1.95816267E+00  -1.01514447E+01  -3.32111765E-01  -1.79460950E+00  -7.74309052E+00  -3.39621768E+00  -6.07274867E+00  -4.40721305E+00  -2.69603611E+00  -1.28181465E+01  -1.22590793E+01  -1.06723761E+01  -1.31301894E+01  -8.72714387E+00  -8.16219887E+00  -1.07854907E+01  -1.37067738E+01  -2.39297167E+00  -5.26713437E+00  -3.11064439E+00  -4.19100164E+00  -8.14499377E+00  -2.86688459E+00  -4.16378710E+00  -6.47195766E+00  -6.11262189E+00  -3.93838047E+00  -6.84770656E+00  -1.34703350E+02  -1.03238836E+01  -6.34280303E+00  -1.12912531E+01  -1.14035703E+01  -7.23226170E+00  -3.18954344E+00  -9.70813294E+00  -3.66846662E+00  -5.75979076E+01  -1.21713952E+01  -8.36346574E+00  -1.98400677E+00  -4.18094490E+01  -6.59579658E+00  -8.18541460E+00  -4.63054675E+00  -7.39146921E+00  -7.06774233E+00  -7.97201633E+00  -8.00769192E+00  -1.05225053E+01  -9.02777247E+00  -6.96781135E+00  -6.31254814E+00  -1.19081663E+01  -6.13458906E+00  -1.31464741E+01  -6.67287420E+00  -1.01218313E+01  -1.48719191E+01  -1.48721791E+01  -2.02228302E+01  -1.12232609E+01  -2.01235296E+01  -2.01238277E+01  -2.89875078E+01  -2.93815195E+01
   3.23750000E+02   5.00000000E-01   5.00000000E-01  -6.73256310E+00  -1.46794734E+01  -3.13405928E+00  -1.33519255E+00  -1.91787184E+00  -3.11160457E+00  -1.95947808E+01  -6.71694232E+00  -5.11380498E+00  -2.60477477E-01  -4.16557533E+00  -1.95841024E+00  -1.01546466E+01  -3.31875505E-01  -1.79376699E+00  -7.74290189E+00  -3.39602426E+00  -6.08577390E+00  -4.40701963E+00  -2.67801814E+00  -1.27676649E+01  -1.22233964E+01  -1.06494153E+01  -1.31103541E+01  -8.71472080E+00  -8.15198199E+00  -1.08002686E+01  -1.36693888E+01  -2.39703174E+00  -5.29396185E+00  -3.09889238E+00  -4.19021166E+00  -8.10985065E+00  -2.85854774E+00  -4.12428800E+00  -6.44231224E+00  -6.08066277E+00  -3.91101379E+00  -6.83615644E+00  -1.33899357E+02  -1.03098695E+01  -6.32382551E+00  -1.12290968E+01  -1.13754861E+01  -7.17699538E+00  -3.18634956E+00  -9.68807517E+00  -3.66636447E+00  -5.72310435E+01  -1.21401591E+01  -8.35344504E+00  -1.98625296E+00  -4.15738156E+01  -6.59275997E+00  -8.19967196E+00  -4.63799628E+00  -7.35236863E+00  -7.06467496E+00  -8.00420575E+00  -7.99773315E+00  -1.05573455E+01  -9.03869765E+00  -6.95144136E+00  -6.30735237E+00  -1.18753478E+01  -6.13105604E+00  -1.30859902E+01  -6.65437991E+00  -1.01084274E+01  -1.48489234E+01  -1.48491858E+01  -2.01933397E+01  -1.11942417E+01  -2.00945266E+01  -2.00948254E+01  -2.89204642E+01  -2.92685051E+01
   3.41250000E+02   5.00000000E-01   5.00000000E-01  -6.69714457E+00  -1.46661533E+01  -3.10960896E+00  -1.33753249E+00  -1.91200180E+00  -3.09155773E+00  -1.95413735E+01  -6.71723910E+00  -5.11448491E+00  -2.60302202E-01  -4.16537344E+00  -1.95864002E+00  -1.01580813E+01  -3.31634269E-01  -1.79304306E+00  -7.74270478E+00  -3.39582237E+00  -6.09918733E+00  -4.40681774E+00  -2.66009460E+00  -1.27175450E+01  -1.21879835E+01  -1.06267368E+01  -1.30906709E+01  -8.70244738E+00  -8.14164550E+00  -1.08152400E+01  -1.36324911E+01  -2.40133802E+00  -5.32104275E+00  -3.08703680E+00  -4.18899176E+00  -8.07510983E+00  -2.85027804E+00  -4.08607924E+00  -6.41366667E+00  -6.05014482E+00  -3.88500222E+00  -6.82491931E+00  -1.33102596E+02  -1.02959776E+01  -6.30537171E+00  -1.11677794E+01  -1.13475385E+01  -7.12211321E+00  -3.18298697E+00  -9.66825363E+00  -3.66415902E+00  -5.68671842E+01  -1.21090786E+01  -8.34341304E+00  -1.98832213E+00  -4.13402312E+01  -6.59003826E+00  -8.21398824E+00  -4.64681151E+00  -7.31521657E+00  -7.06315854E+00  -8.03752274E+00  -7.98809645E+00  -1.05925798E+01  -9.04986289E+00  -6.93521321E+00  -6.30198108E+00  -1.18429177E+01  -6.12762015E+00  -1.30265870E+01  -6.63614206E+00  -1.00954534E+01  -1.48265598E+01  -1.48268254E+01  -2.01647156E+01  -1.11656393E+01  -2.00663845E+01  -2.00666847E+01  -2.88546543E+01  -2.91560055E+01