 TITLE = "Total Concentrations" 
VARIABLES = "X"          "Y"              "Z"            "H+"             "Al+++"          "CO2(aq)"        "Mg++"           "Ca++"           "Fe++"           "Fe+++"          "Ba++"           "Sr++"           "Cl-"            "F-"             "K+"             "HS-"            "Na+"            "SO4--"          "O2(aq)"         "B(OH)3(aq)"     "HPO4--"         "NO3-"           "H4SiO4(aq)"     "HNO3(aq)"       "Al(OH)2+"       "AlO2-"          "AlOH++"         "BaHCO3+"        "BaCl+"          "BaCO3(aq)"      "BaOH+"          "HCO3-"          "CO3--"          "CaCl+"          "CaCl2(aq)"      "CaOH+"          "CaSO4(aq)"      "FeCl+"          "FeCl2(aq)"      "FeOH+"          "FeSO4(aq)"      "OH-"            "S2O3--"         "H2S(aq)"        "H2PO4-"         "H3PO4(aq)"      "HAlO2(aq)"      "HSO4-"          "KCl(aq)"        "KOH(aq)"        "KSO4-"          "NH3(aq)"        "NaAlO2(aq)"     "NaOH(aq)"       "NaSO4-"         "H2(aq)"         "CaHPO4(aq)"     "CaPO4-"         "FeCO3(aq)"      "FeH2PO4+"       "FeHPO4(aq)"     "FePO4-"         "KHPO4-"         "PO4---"         "Sr(CO3)(aq)"    "SrHCO3+"        "SrCl+"          "SrOH+"          "SrSO4(aq)"      "AlH3SiO4++"     "Si2O2(OH)5-"    "Si2O3(OH)4--"   "Si3O5(OH)5---"  "Si3O6(OH)3---"  "Si4O12H4----"   "Si4O6(OH)6--"   "Si4O7(OH)6----" "Si4O8(OH)4----" "Si6O15------"   "SiF6--"        
 ZONE I=         100 , J=           1 , K=           1  F=POINT
   1.75000000E+01   5.00000000E-01   5.00000000E-01  -7.77344826E+00  -1.82094068E+01  -3.91655946E+00  -1.30503388E+00  -2.01881236E+00  -3.37945743E+00  -1.14662275E+01  -6.71265451E+00  -5.10358912E+00  -2.62147475E-01  -4.16748106E+00  -1.95177673E+00  -1.00228730E+01  -3.35172182E-01  -1.83559927E+00  -7.74476528E+00  -3.39792999E+00  -5.93244731E+00  -4.40892536E+00  -2.76713518E+00  -1.40516908E+01  -1.54365100E+01  -1.29466934E+01  -1.63780059E+01  -8.92787217E+00  -8.30412634E+00  -1.01994361E+01  -1.40515790E+01  -2.34657140E+00  -4.50408246E+00  -3.26056256E+00  -4.10075362E+00  -8.41849952E+00  -2.98915228E+00  -4.68391375E+00  -6.77634651E+00  -6.18877611E+00  -4.27035864E+00  -6.74513319E+00  -1.49811048E+02  -1.08031705E+01  -7.09493936E+00  -1.31496173E+01  -1.40839065E+01  -8.55419489E+00  -3.20761117E+00  -9.72625777E+00  -3.68634648E+00  -6.44657736E+01  -1.45534642E+01  -8.17162739E+00  -1.91672836E+00  -4.60183092E+01  -6.67499404E+00  -7.58689084E+00  -4.02091898E+00  -8.37401212E+00  -7.04225453E+00  -6.94699194E+00  -8.22229245E+00  -9.68073101E+00  -8.51304460E+00  -7.23212202E+00  -6.36299327E+00  -1.21614738E+01  -6.20265185E+00  -1.69875429E+01  -6.18921390E+00  -9.23269995E+00  -1.35837010E+01  -1.35839455E+01  -1.84894897E+01  -1.01089076E+01  -1.83814043E+01  -1.83816763E+01  -2.67520687E+01  -3.24628092E+01
   5.25000000E+01   5.00000000E-01   5.00000000E-01  -7.61589917E+00  -1.78049203E+01  -3.79726451E+00  -1.31502363E+00  -1.98905542E+00  -3.19245787E+00  -1.16739028E+01  -6.71306945E+00  -5.10444097E+00  -2.62139450E-01  -4.16743256E+00  -1.95166068E+00  -9.99850553E+00  -3.34711572E-01  -1.82824664E+00  -7.74476475E+00  -3.39788149E+00  -5.95609979E+00  -4.40887686E+00  -2.58210100E+00  -1.38685453E+01  -1.51311070E+01  -1.28069889E+01  -1.60373081E+01  -8.90553860E+00  -8.29051233E+00  -1.02993634E+01  -1.40299206E+01  -2.35063865E+00  -4.62206126E+00  -3.22925061E+00  -4.10568914E+00  -8.39068271E+00  -2.95915224E+00  -4.46715861E+00  -6.59217078E+00  -6.05060708E+00  -4.07616773E+00  -6.77941932E+00  -1.47801288E+02  -1.06800357E+01  -6.98074534E+00  -1.28684225E+01  -1.38698383E+01  -8.36008541E+00  -3.20880643E+00  -9.74762490E+00  -3.68622526E+00  -6.35550225E+01  -1.44044325E+01  -8.22467631E+00  -1.92945536E+00  -4.54735827E+01  -6.65955299E+00  -7.68714965E+00  -3.97087667E+00  -8.07406091E+00  -6.90009354E+00  -6.96219003E+00  -8.20575110E+00  -9.81661584E+00  -8.60337537E+00  -7.20219913E+00  -6.36130618E+00  -1.21526234E+01  -6.19499719E+00  -1.63808855E+01  -5.92210484E+00  -9.04034143E+00  -1.32899989E+01  -1.32902552E+01  -1.80992714E+01  -9.59427780E+00  -1.79923173E+01  -1.79926079E+01  -2.61246406E+01  -3.17957098E+01
   8.75000000E+01   5.00000000E-01   5.00000000E-01  -7.50875683E+00  -1.76315403E+01  -3.72316430E+00  -1.32284586E+00  -1.96236375E+00  -3.12901342E+00  -1.17226791E+01  -6.71351983E+00  -5.10541334E+00  -2.62075036E-01  -4.16732927E+00  -1.95157969E+00  -9.97123072E+00  -3.34364534E-01  -1.82176840E+00  -7.74470953E+00  -3.39777820E+00  -5.96745848E+00  -4.40877357E+00  -2.50622937E+00  -1.37350206E+01  -1.49599175E+01  -1.27052952E+01  -1.58785922E+01  -8.87984822E+00  -8.27568960E+00  -1.03482561E+01  -1.39624896E+01  -2.35259034E+00  -4.69025444E+00  -3.19932611E+00  -4.10974288E+00  -8.31910261E+00  -2.93117295E+00  -4.37275992E+00  -6.52829922E+00  -5.98777410E+00  -4.00444107E+00  -6.76755849E+00  -1.45923640E+02  -1.06010682E+01  -6.90271995E+00  -1.26728231E+01  -1.37409510E+01  -8.21579969E+00  -3.20859204E+00  -9.72193516E+00  -3.68524710E+00  -6.27069062E+01  -1.42922032E+01  -8.22903768E+00  -1.94087080E+00  -4.49389303E+01  -6.63288267E+00  -7.72636563E+00  -3.99200740E+00  -7.93405709E+00  -6.86752134E+00  -7.03641226E+00  -8.17552420E+00  -9.89246552E+00  -8.64295639E+00  -7.16887676E+00  -6.35816804E+00  -1.20974849E+01  -6.18705497E+00  -1.60709068E+01  -5.82549222E+00  -8.97106122E+00  -1.31807870E+01  -1.31810489E+01  -1.79552223E+01  -9.42010337E+00  -1.78493834E+01  -1.78496846E+01  -2.58656655E+01  -3.14311629E+01
   1.22500000E+02   5.00000000E-01   5.00000000E-01  -7.41495512E+00  -1.75046976E+01  -3.65914363E+00  -1.32980385E+00  -1.93775445E+00  -3.10088380E+00  -1.17319925E+01  -6.71398870E+00  -5.10646830E+00  -2.61961985E-01  -4.16717548E+00  -1.95152784E+00  -9.94551931E+00  -3.34054957E-01  -1.81622591E+00  -7.74460390E+00  -3.39762441E+00  -5.97642779E+00  -4.40861978E+00  -2.46297925E+00  -1.36141525E+01  -1.48123859E+01  -1.26049724E+01  -1.57543296E+01  -8.85267990E+00  -8.25975770E+00  -1.03848969E+01  -1.38861624E+01  -2.35418422E+00  -4.74731534E+00  -3.16994328E+00  -4.11222028E+00  -8.23971861E+00  -2.90448679E+00  -4.31260766E+00  -6.49676183E+00  -5.94904021E+00  -3.96720166E+00  -6.74639082E+00  -1.44103404E+02  -1.05338744E+01  -6.83383491E+00  -1.24988282E+01  -1.36236975E+01  -8.08447625E+00  -3.20709421E+00  -9.68613324E+00  -3.68361073E+00  -6.18840884E+01  -1.41801936E+01  -8.22169984E+00  -1.95113358E+00  -4.44140689E+01  -6.60409643E+00  -7.75073189E+00  -4.03494874E+00  -7.83870627E+00  -6.86629147E+00  -7.12850053E+00  -8.14171296E+00  -9.95510647E+00  -8.67054861E+00  -7.13402891E+00  -6.35367358E+00  -1.20329458E+01  -6.17901999E+00  -1.58331944E+01  -5.78327510E+00  -8.94573519E+00  -1.31374111E+01  -1.31376744E+01  -1.78990918E+01  -9.35421689E+00  -1.77943509E+01  -1.77946566E+01  -2.57380044E+01  -3.11449757E+01
   1.57500000E+02   5.00000000E-01   5.00000000E-01  -7.32657459E+00  -1.73925256E+01  -3.59808057E+00  -1.33650479E+00  -1.91468672E+00  -3.08463178E+00  -1.17294346E+01  -6.71447493E+00  -5.10759016E+00  -2.61805694E-01  -4.16697485E+00  -1.95150078E+00  -9.92224274E+00  -3.33747839E-01  -1.81158499E+00  -7.74445152E+00  -3.39742378E+00  -5.98627547E+00  -4.40841915E+00  -2.43061289E+00  -1.34981215E+01  -1.46723812E+01  -1.25055265E+01  -1.56405512E+01  -8.82478020E+00  -8.24283188E+00  -1.04178085E+01  -1.38087025E+01  -2.35603208E+00  -4.80160764E+00  -3.14069455E+00  -4.11286225E+00  -8.15979813E+00  -2.87872246E+00  -4.26339086E+00  -6.47438540E+00  -5.91883399E+00  -3.94118913E+00  -6.72362376E+00  -1.42324023E+02  -1.04716011E+01  -6.76957308E+00  -1.23341016E+01  -1.35098207E+01  -7.95830353E+00  -3.20443992E+00  -9.64803397E+00  -3.68142383E+00  -6.10784042E+01  -1.40680061E+01  -8.21055026E+00  -1.96034862E+00  -4.38987347E+01  -6.57612332E+00  -7.77110012E+00  -4.08485773E+00  -7.76003876E+00  -6.87634583E+00  -7.22632866E+00  -8.10777830E+00  -1.00155719E+01  -8.69465923E+00  -7.09840251E+00  -6.34793877E+00  -1.19667852E+01  -6.17102718E+00  -1.56217146E+01  -5.75980121E+00  -8.93653516E+00  -1.31181447E+01  -1.31184070E+01  -1.78752250E+01  -9.32533860E+00  -1.77715635E+01  -1.77718697E+01  -2.56582881E+01  -3.08842864E+01
   1.92500000E+02   5.00000000E-01   5.00000000E-01  -7.24067077E+00  -1.72825289E+01  -3.53747284E+00  -1.34320470E+00  -1.89284201E+00  -3.07211541E+00  -1.17254979E+01  -6.71498029E+00  -5.10876949E+00  -2.61610214E-01  -4.16673054E+00  -1.95149514E+00  -9.90165526E+00  -3.33433173E-01  -1.80777367E+00  -7.74425556E+00  -3.39717947E+00  -5.99811366E+00  -4.40817484E+00  -2.40157748E+00  -1.33840768E+01  -1.45332017E+01  -1.24059562E+01  -1.55276852E+01  -8.79654593E+00  -8.22502364E+00  -1.04502016E+01  -1.37329124E+01  -2.35840147E+00  -4.85618463E+00  -3.11138609E+00  -4.11161490E+00  -8.08186332E+00  -2.85368512E+00  -4.21708518E+00  -6.45327543E+00  -5.89190862E+00  -3.91839187E+00  -6.70200404E+00  -1.40578838E+02  -1.04117415E+01  -6.70823062E+00  -1.21740889E+01  -1.33955234E+01  -7.83439923E+00  -3.20074972E+00  -9.61048638E+00  -3.67875085E+00  -6.02866751E+01  -1.39547525E+01  -8.19852581E+00  -1.96859960E+00  -4.33926766E+01  -6.54995145E+00  -7.79140109E+00  -4.13686588E+00  -7.68819807E+00  -6.89076901E+00  -7.32593393E+00  -8.07501279E+00  -1.00777676E+01  -8.71848635E+00  -7.06239690E+00  -6.34107829E+00  -1.19018228E+01  -6.16317355E+00  -1.54190349E+01  -5.74281105E+00  -8.93405075E+00  -1.31088809E+01  -1.31091411E+01  -1.78648037E+01  -9.30896964E+00  -1.77622021E+01  -1.77625065E+01  -2.55983485E+01  -3.06302662E+01
   2.27500000E+02   5.00000000E-01   5.00000000E-01  -7.15102868E+00  -1.71354099E+01  -3.47177232E+00  -1.35011096E+00  -1.87171698E+00  -3.05490723E+00  -1.17406545E+01  -6.71550337E+00  -5.10999214E+00  -2.61380016E-01  -4.16644526E+00  -1.95150766E+00  -9.88508181E+00  -3.33138306E-01  -1.80474182E+00  -7.74401873E+00  -3.39689419E+00  -6.01355438E+00  -4.40788956E+00  -2.36880674E+00  -1.32658886E+01  -1.43678885E+01  -1.22915561E+01  -1.53826286E+01  -8.76859697E+00  -8.20643340E+00  -1.04887898E+01  -1.36648689E+01  -2.36179687E+00  -4.91761817E+00  -3.08163026E+00  -4.10822128E+00  -8.01152709E+00  -2.82900139E+00  -4.16537171E+00  -6.42523410E+00  -5.86600433E+00  -3.89051849E+00  -6.68756260E+00  -1.38854708E+02  -1.03495764E+01  -6.64532392E+00  -1.20081771E+01  -1.32600249E+01  -7.70662183E+00  -3.19613552E+00  -9.57961497E+00  -3.67566781E+00  -5.95024573E+01  -1.38258674E+01  -8.19186850E+00  -1.97601742E+00  -4.28956528E+01  -6.52686882E+00  -7.81913380E+00  -4.18932061E+00  -7.61026436E+00  -6.90285451E+00  -7.42683133E+00  -8.04519198E+00  -1.01493782E+01  -8.74872921E+00  -7.02663190E+00  -6.33319343E+00  -1.18441496E+01  -6.15555867E+00  -1.51846966E+01  -5.72429097E+00  -8.93639046E+00  -1.31067882E+01  -1.31070464E+01  -1.78640481E+01  -9.28910037E+00  -1.77624861E+01  -1.77627876E+01  -2.55525533E+01  -3.03514455E+01
   2.62500000E+02   5.00000000E-01   5.00000000E-01  -7.04706356E+00  -1.68761808E+01  -3.39170981E+00  -1.35738196E+00  -1.85056040E+00  -3.01950072E+00  -1.18087628E+01  -6.71603498E+00  -5.11123124E+00  -2.61121171E-01  -4.16612139E+00  -1.95153449E+00  -9.87566221E+00  -3.32963404E-01  -1.80247958E+00  -7.74374339E+00  -3.39657032E+00  -6.03604214E+00  -4.40756569E+00  -2.32578792E+00  -1.31330506E+01  -1.41225375E+01  -1.21294266E+01  -1.51409585E+01  -8.74219610E+00  -8.18714914E+00  -1.05453091E+01  -1.36150195E+01  -2.36738214E+00  -4.99751825E+00  -3.05078563E+00  -4.10216450E+00  -7.95852982E+00  -2.80407936E+00  -4.09484646E+00  -6.37697284E+00  -5.83815489E+00  -3.84422732E+00  -6.69071268E+00  -1.37129847E+02  -1.02778204E+01  -6.57382510E+00  -1.18188324E+01  -1.30599731E+01  -7.56449193E+00  -3.19070320E+00  -9.56591919E+00  -3.67228276E+00  -5.87149442E+01  -1.36486560E+01  -8.20126139E+00  -1.98283677E+00  -4.24074318E+01  -6.50973751E+00  -7.86773820E+00  -4.24051580E+00  -7.50569721E+00  -6.90264750E+00  -7.52965491E+00  -8.02190967E+00  -1.02442963E+01  -8.79710418E+00  -6.99236430E+00  -6.32436731E+00  -1.18042206E+01  -6.14829989E+00  -1.48474921E+01  -5.70170471E+00  -8.95151147E+00  -1.31238037E+01  -1.31240613E+01  -1.78888760E+01  -9.26067294E+00  -1.77883325E+01  -1.77886316E+01  -2.55447860E+01  -2.99993865E+01
   2.97500000E+02   5.00000000E-01   5.00000000E-01  -6.95507991E+00  -1.66932190E+01  -3.32201387E+00  -1.36428756E+00  -1.83011360E+00  -2.98987349E+00  -1.18453928E+01  -6.71659650E+00  -5.11251314E+00  -2.60831806E-01  -4.16576097E+00  -1.95157559E+00  -9.86641891E+00  -3.32874138E-01  -1.80077690E+00  -7.74343161E+00  -3.39620990E+00  -6.05955544E+00  -4.40720527E+00  -2.28870701E+00  -1.30119424E+01  -1.39328404E+01  -1.20024965E+01  -1.49647300E+01  -8.71574859E+00  -8.16728019E+00  -1.05917605E+01  -1.35569641E+01  -2.37343701E+00  -5.06772623E+00  -3.01969195E+00  -4.09439761E+00  -7.89722316E+00  -2.77961983E+00  -4.02957822E+00  -6.33266511E+00  -5.80599428E+00  -3.80346047E+00  -6.68498932E+00  -1.35455878E+02  -1.02159529E+01  -6.51412747E+00  -1.16528276E+01  -1.29047289E+01  -7.43421565E+00  -3.18455246E+00  -9.54302194E+00  -3.66850584E+00  -5.79502331E+01  -1.35061129E+01  -8.20036549E+00  -1.98895441E+00  -4.19277946E+01  -6.49344672E+00  -7.90578694E+00  -4.28645882E+00  -7.41886688E+00  -6.90821993E+00  -7.62617146E+00  -7.99929049E+00  -1.03300573E+01  -8.83561519E+00  -6.95801509E+00  -6.31472637E+00  -1.17556643E+01  -6.14136992E+00  -1.45854041E+01  -5.68102032E+00  -8.95898443E+00  -1.31292765E+01  -1.31295357E+01  -1.78984341E+01  -9.23563271E+00  -1.77988876E+01  -1.77991856E+01  -2.55137078E+01  -2.96958658E+01
   3.32500000E+02   5.00000000E-01   5.00000000E-01  -6.87616051E+00  -1.65936615E+01  -3.26337867E+00  -1.37081615E+00  -1.81070613E+00  -2.97375887E+00  -1.18464067E+01  -6.71719646E+00  -5.11384574E+00  -2.60511439E-01  -4.16536581E+00  -1.95163054E+00  -9.85613719E+00  -3.32788052E-01  -1.79952724E+00  -7.74308518E+00  -3.39581475E+00  -6.08204872E+00  -4.40681012E+00  -2.25880651E+00  -1.29037052E+01  -1.38036807E+01  -1.19133382E+01  -1.48599753E+01  -8.68883047E+00  -8.14690220E+00  -1.06265343E+01  -1.34895049E+01  -2.37944693E+00  -5.12653254E+00  -2.98875883E+00  -4.08542345E+00  -7.82676351E+00  -2.75596659E+00  -3.97737309E+00  -6.30020199E+00  -5.77612629E+00  -3.77597008E+00  -6.66916221E+00  -1.33834164E+02  -1.01639745E+01  -6.46535596E+00  -1.15104306E+01  -1.27980583E+01  -7.31685806E+00  -3.17776112E+00  -9.50975881E+00  -3.66432255E+00  -5.72091786E+01  -1.34008078E+01  -8.18800280E+00  -1.99429414E+00  -4.14565194E+01  -6.47640144E+00  -7.93059802E+00  -4.33331433E+00  -7.35662201E+00  -6.92533426E+00  -7.72106819E+00  -7.97540191E+00  -1.04034269E+01  -8.86264953E+00  -6.92316960E+00  -6.30435712E+00  -1.16973050E+01  -6.13477532E+00  -1.44054718E+01  -5.66355977E+00  -8.95896909E+00  -1.31234539E+01  -1.31237179E+01  -1.78930429E+01  -9.21664021E+00  -1.77944716E+01  -1.77947709E+01  -2.54598551E+01  -2.94468029E+01
   3.67500000E+02   5.00000000E-01   5.00000000E-01  -6.80201884E+00  -1.65158098E+01  -3.20827532E+00  -1.37727587E+00  -1.79229409E+00  -2.96531490E+00  -1.18381251E+01  -6.71783113E+00  -5.11521624E+00  -2.60162256E-01  -4.16493749E+00  -1.95169777E+00  -9.84688209E+00  -3.32673079E-01  -1.79870931E+00  -7.74270568E+00  -3.39538643E+00  -6.10515014E+00  -4.40638180E+00  -2.23271553E+00  -1.28001019E+01  -1.36898446E+01  -1.18331740E+01  -1.47732597E+01  -8.66215157E+00  -8.12607097E+00  -1.06585278E+01  -1.34208037E+01  -2.38605482E+00  -5.18276594E+00  -2.95801494E+00  -4.07535574E+00  -7.75530443E+00  -2.73315417E+00  -3.93245437E+00  -6.27388408E+00  -5.75094777E+00  -3.75599675E+00  -6.65138093E+00  -1.32247505E+02  -1.01157843E+01  -6.42092909E+00  -1.13768256E+01  -1.27029986E+01  -7.20418871E+00  -3.17039771E+00  -9.47433392E+00  -3.65978969E+00  -5.64832642E+01  -1.33039998E+01  -8.17241035E+00  -1.99890151E+00  -4.09933888E+01  -6.46028606E+00  -7.95213925E+00  -4.38418851E+00  -7.30652802E+00  -6.94983718E+00  -7.81848717E+00  -7.95196673E+00  -1.04742275E+01  -8.88709295E+00  -6.88853774E+00  -6.29331711E+00  -1.16373162E+01  -6.12856590E+00  -1.42506706E+01  -5.65079420E+00  -8.96114904E+00  -1.31208722E+01  -1.31211446E+01  -1.78920700E+01  -9.20665520E+00  -1.77944516E+01  -1.77947555E+01  -2.54123556E+01  -2.92159977E+01
   4.02500000E+02   5.00000000E-01   5.00000000E-01  -6.73053611E+00  -1.64452995E+01  -3.15496856E+00  -1.38384572E+00  -1.77479268E+00  -2.96070126E+00  -1.18277583E+01  -6.71850017E+00  -5.11661629E+00  -2.59786367E-01  -4.16447740E+00  -1.95177582E+00  -9.83914384E+00  -3.32518197E-01  -1.79829775E+00  -7.74229449E+00  -3.39492633E+00  -6.12953624E+00  -4.40592170E+00  -2.20862353E+00  -1.26990598E+01  -1.35811224E+01  -1.17559032E+01  -1.46923157E+01  -8.63605322E+00  -8.10484258E+00  -1.06901099E+01  -1.33528651E+01  -2.39353650E+00  -5.23872587E+00  -2.92744367E+00  -4.06425850E+00  -7.68479608E+00  -2.71116765E+00  -3.89104269E+00  -6.25000520E+00  -5.72869252E+00  -3.73977382E+00  -6.63363635E+00  -1.30691046E+02  -1.00698673E+01  -6.37947780E+00  -1.12485726E+01  -1.26114271E+01  -7.09413604E+00  -3.16252713E+00  -9.43878920E+00  -3.65495621E+00  -5.57701497E+01  -1.32096413E+01  -8.15567858E+00  -2.00283395E+00  -4.05381950E+01  -6.44578822E+00  -7.97321120E+00  -4.43765388E+00  -7.26336722E+00  -6.97862722E+00  -7.91745204E+00  -7.92974838E+00  -1.05451644E+01  -8.91130387E+00  -6.85446119E+00  -6.28166467E+00  -1.15777149E+01  -6.12278859E+00  -1.41067159E+01  -5.64114717E+00  -8.96599309E+00  -1.31222410E+01  -1.31225261E+01  -1.78964537E+01  -9.20253940E+00  -1.77997660E+01  -1.78000784E+01  -2.53726613E+01  -2.89934506E+01
   4.37500000E+02   5.00000000E-01   5.00000000E-01  -6.66111896E+00  -1.63786618E+01  -3.10311096E+00  -1.39061434E+00  -1.75812273E+00  -2.95808412E+00  -1.18174823E+01  -6.71920420E+00  -5.11803959E+00  -2.59385532E-01  -4.16398676E+00  -1.95186347E+00  -9.83299344E+00  -3.32319876E-01  -1.79826067E+00  -7.74185284E+00  -3.39443569E+00  -6.15541609E+00  -4.40543106E+00  -2.18573549E+00  -1.26000266E+01  -1.34751523E+01  -1.16802306E+01  -1.46142466E+01  -8.61074151E+00  -8.08326919E+00  -1.07219955E+01  -1.32861752E+01  -2.40203770E+00  -5.29506272E+00  -2.89702843E+00  -4.05218983E+00  -7.61567274E+00  -2.68998317E+00  -3.85135954E+00  -6.22685445E+00  -5.70807731E+00  -3.72552613E+00  -6.61640249E+00  -1.29162986E+02  -1.00258070E+01  -6.34068585E+00  -1.11248056E+01  -1.25215462E+01  -6.98614149E+00  -3.15420907E+00  -9.40364525E+00  -3.64985919E+00  -5.50690263E+01  -1.31164919E+01  -8.13837909E+00  -2.00614307E+00  -4.00907375E+01  -6.43312589E+00  -7.99461791E+00  -4.49263119E+00  -7.22498271E+00  -7.01013951E+00  -8.01699639E+00  -7.90903376E+00  -1.06169543E+01  -8.93598747E+00  -6.82114690E+00  -6.26945478E+00  -1.15189987E+01  -6.11747852E+00  -1.39697213E+01  -5.63354946E+00  -8.97295367E+00  -1.31267431E+01  -1.31270457E+01  -1.79051001E+01  -9.20216718E+00  -1.78093208E+01  -1.78096461E+01  -2.53391593E+01  -2.87762525E+01
   4.72500000E+02   5.00000000E-01   5.00000000E-01  -6.59353212E+00  -1.63147189E+01  -3.05266884E+00  -1.39762669E+00  -1.74221436E+00  -2.95663238E+00  -1.18081695E+01  -6.71994380E+00  -5.11948045E+00  -2.58961254E-01  -4.16346664E+00  -1.95195972E+00  -9.82840652E+00  -3.32077503E-01  -1.79856472E+00  -7.74138181E+00  -3.39391557E+00  -6.18281874E+00  -4.40491095E+00  -2.16370473E+00  -1.25028038E+01  -1.33711506E+01  -1.16057294E+01  -1.45380888E+01  -8.58637939E+00  -8.06139774E+00  -1.07545034E+01  -1.32208663E+01  -2.41166712E+00  -5.35203847E+00  -2.86675613E+00  -4.03920513E+00  -7.54802302E+00  -2.66957534E+00  -3.81262339E+00  -6.20371214E+00  -5.68846480E+00  -3.71247014E+00  -6.59980337E+00  -1.27662248E+02  -9.98344165E+00  -6.30440952E+00  -1.10051844E+01  -1.24327794E+01  -6.87999692E+00  -3.14549767E+00  -9.36906763E+00  -3.64452815E+00  -5.43794473E+01  -1.30241767E+01  -8.12072685E+00  -2.00887468E+00  -3.96508224E+01  -6.42233705E+00  -8.01662461E+00  -4.54864523E+00  -7.19039362E+00  -7.04362766E+00  -8.11661352E+00  -7.88992040E+00  -1.06897819E+01  -8.96145344E+00  -6.78875865E+00  -6.25673730E+00  -1.14613118E+01  -6.11266118E+00  -1.38381941E+01  -5.62747283E+00  -8.98166844E+00  -1.31338382E+01  -1.31341636E+01  -1.79172856E+01  -9.20449377E+00  -1.78223923E+01  -1.78227354E+01  -2.53107852E+01  -2.85633507E+01
   5.07500000E+02   5.00000000E-01   5.00000000E-01  -6.52765057E+00  -1.62529398E+01  -3.00369901E+00  -1.40490792E+00  -1.72700589E+00  -2.95596743E+00  -1.18002536E+01  -6.72071933E+00  -5.12093334E+00  -2.58514866E-01  -4.16291802E+00  -1.95206370E+00  -9.82533275E+00  -3.31791674E-01  -1.79917796E+00  -7.74088236E+00  -3.39336695E+00  -6.21169772E+00  -4.40436232E+00  -2.14236843E+00  -1.24072983E+01  -1.32687617E+01  -1.15321878E+01  -1.44634157E+01  -8.56311080E+00  -8.03926990E+00  -1.07878278E+01  -1.31569646E+01  -2.42252071E+00  -5.40979850E+00  -2.83661634E+00  -4.02535664E+00  -7.48183630E+00  -2.64991903E+00  -3.77449974E+00  -6.18030002E+00  -5.66956094E+00  -3.70026654E+00  -6.58386023E+00  -1.26187991E+02  -9.94268684E+00  -6.27053442E+00  -1.08895039E+01  -1.23448696E+01  -6.77559978E+00  -3.13644164E+00  -9.33511423E+00  -3.63898798E+00  -5.37010798E+01  -1.29325308E+01  -8.10282634E+00  -2.01107011E+00  -3.92182619E+01  -6.41338328E+00  -8.03930934E+00  -4.60554658E+00  -7.15910143E+00  -7.07871761E+00  -8.21605843E+00  -7.87242138E+00  -1.07636518E+01  -8.98788718E+00  -6.75744100E+00  -6.24355672E+00  -1.14046912E+01  -6.10835467E+00  -1.37113736E+01  -5.62264917E+00  -8.99192750E+00  -1.31432142E+01  -1.31435677E+01  -1.79325912E+01  -9.20899394E+00  -1.78385618E+01  -1.78389280E+01  -2.52869271E+01  -2.83542954E+01
   5.42500000E+02   5.00000000E-01   5.00000000E-01  -6.46339311E+00  -1.61930448E+01  -2.95628884E+00  -1.41247424E+00  -1.71244280E+00  -2.95591337E+00  -1.17939839E+01  -6.72153093E+00  -5.12239265E+00  -2.58047577E-01  -4.16234173E+00  -1.95217470E+00  -9.82371347E+00  -3.31463503E-01  -1.80007089E+00  -7.74035534E+00  -3.39279066E+00  -6.24197133E+00  -4.40378604E+00  -2.12163933E+00  -1.23134569E+01  -1.31677958E+01  -1.14594781E+01  -1.43900082E+01  -8.54106721E+00  -8.01692236E+00  -1.08221111E+01  -1.30944559E+01  -2.43468774E+00  -5.46844379E+00  -2.80660068E+00  -4.01069307E+00  -7.41706795E+00  -2.63098990E+00  -3.73685174E+00  -6.15653227E+00  -5.65123149E+00  -3.68877210E+00  -6.56855756E+00  -1.24739478E+02  -9.90348660E+00  -6.23894955E+00  -1.07776022E+01  -1.22576825E+01  -6.67288816E+00  -3.12708463E+00  -9.30180156E+00  -3.63326036E+00  -5.30336383E+01  -1.28414691E+01  -8.08473742E+00  -2.01276696E+00  -3.87928740E+01  -6.40618930E+00  -8.06266919E+00  -4.66333456E+00  -7.13081412E+00  -7.11519818E+00  -8.31520485E+00  -7.85650615E+00  -1.08384955E+01  -9.01542224E+00  -6.72732568E+00  -6.22995226E+00  -1.13491328E+01  -6.10457109E+00  -1.35887928E+01  -5.61892054E+00  -9.00358975E+00  -1.31546616E+01  -1.31550489E+01  -1.79507356E+01  -9.21536204E+00  -1.78575479E+01  -1.78579429E+01  -2.52671771E+01  -2.81488676E+01
   5.77500000E+02   5.00000000E-01   5.00000000E-01  -6.40069953E+00  -1.61348759E+01  -2.91053469E+00  -1.42033761E+00  -1.69847685E+00  -2.95638744E+00  -1.17895184E+01  -6.72237853E+00  -5.12385266E+00  -2.57560509E-01  -4.16173854E+00  -1.95229210E+00  -9.82348699E+00  -3.31094308E-01  -1.80121679E+00  -7.73980149E+00  -3.39218747E+00  -6.27353948E+00  -4.40318285E+00  -2.10146304E+00  -1.22212431E+01  -1.30681448E+01  -1.13875180E+01  -1.43177480E+01  -8.52036875E+00  -7.99438733E+00  -1.08574670E+01  -1.30333085E+01  -2.44825147E+00  -5.52805392E+00  -2.77670236E+00  -3.99525967E+00  -7.35366105E+00  -2.61276455E+00  -3.69963101E+00  -6.13240679E+00  -5.63341524E+00  -3.67793109E+00  -6.55386529E+00  -1.23316030E+02  -9.86579666E+00  -6.20954184E+00  -1.06693324E+01  -1.21711457E+01  -6.57181870E+00  -3.11746558E+00  -9.26912731E+00  -3.62736444E+00  -5.23768617E+01  -1.27509468E+01  -8.06649793E+00  -2.01399963E+00  -3.83744820E+01  -6.40065982E+00  -8.08665989E+00  -4.72207140E+00  -7.10533105E+00  -7.15292860E+00  -8.41397568E+00  -7.84211813E+00  -1.09142102E+01  -9.04416387E+00  -6.69853269E+00  -6.21595832E+00  -1.12946144E+01  -6.10131741E+00  -1.34701284E+01  -5.61617627E+00  -9.01654279E+00  -1.31680139E+01  -1.31684408E+01  -1.79714944E+01  -9.22338644E+00  -1.78791268E+01  -1.78795561E+01  -2.52512108E+01  -2.79469468E+01
   6.12500000E+02   5.00000000E-01   5.00000000E-01  -6.33952112E+00  -1.60783407E+01  -2.86653158E+00  -1.42850785E+00  -1.68506549E+00  -2.95735120E+00  -1.17869641E+01  -6.72326198E+00  -5.12530761E+00  -2.57054711E-01  -4.16110911E+00  -1.95241538E+00  -9.82459046E+00  -3.30685478E-01  -1.80259160E+00  -7.73922150E+00  -3.39155804E+00  -6.30629188E+00  -4.40255342E+00  -2.08180110E+00  -1.21306289E+01  -1.29697450E+01  -1.13162524E+01  -1.42465714E+01  -8.50112364E+00  -7.97169297E+00  -1.08939899E+01  -1.29734825E+01  -2.46328802E+00  -5.58869503E+00  -2.74691594E+00  -3.97909837E+00  -7.29155529E+00  -2.59522052E+00  -3.66282930E+00  -6.10795718E+00  -5.61608473E+00  -3.66772713E+00  -6.53974789E+00  -1.21917006E+02  -9.82957717E+00  -6.18219509E+00  -1.05645526E+01  -1.20852205E+01  -6.47235740E+00  -3.10761918E+00  -9.23707981E+00  -3.62131716E+00  -5.17305040E+01  -1.26609420E+01  -8.04813327E+00  -2.01479954E+00  -3.79629148E+01  -6.39668765E+00  -8.11121362E+00  -4.78184216E+00  -7.08249314E+00  -7.19179829E+00  -8.51231230E+00  -7.82918355E+00  -1.09906763E+01  -9.07419760E+00  -6.67116967E+00  -6.20160488E+00  -1.12411047E+01  -6.09859620E+00  -1.33551368E+01  -5.61432865E+00  -9.03068795E+00  -1.31831248E+01  -1.31835971E+01  -1.79946708E+01  -9.23290084E+00  -1.79031016E+01  -1.79035714E+01  -2.52387433E+01  -2.77484575E+01
   6.47500000E+02   5.00000000E-01   5.00000000E-01  -6.27981592E+00  -1.60233833E+01  -2.82436711E+00  -1.43699364E+00  -1.67217121E+00  -2.95878800E+00  -1.17863969E+01  -6.72418112E+00  -5.12675178E+00  -2.56531176E-01  -4.16045404E+00  -1.95254414E+00  -9.82696056E+00  -3.30238394E-01  -1.80417375E+00  -7.73861595E+00  -3.39090297E+00  -6.34011280E+00  -4.40189835E+00  -2.06262400E+00  -1.20415894E+01  -1.28725578E+01  -1.12456423E+01  -1.41764445E+01  -8.48342680E+00  -7.94886388E+00  -1.09317574E+01  -1.29149345E+01  -2.47986448E+00  -5.65042224E+00  -2.71723714E+00  -3.96224797E+00  -7.23069088E+00  -2.57833611E+00  -3.62645629E+00  -6.08323095E+00  -5.59922838E+00  -3.65816115E+00  -6.52616865E+00  -1.20541796E+02  -9.79478915E+00  -6.15679044E+00  -1.04631216E+01  -1.19998871E+01  -6.37447515E+00  -3.09757616E+00  -9.20564268E+00  -3.61513356E+00  -5.10943294E+01  -1.25714447E+01  -8.02966115E+00  -2.01519537E+00  -3.75580062E+01  -6.39415857E+00  -8.13624857E+00  -4.84273533E+00  -7.06216077E+00  -7.23170939E+00  -8.61016177E+00  -7.81761685E+00  -1.10677668E+01  -9.10559243E+00  -6.64533059E+00  -6.18691804E+00  -1.11885683E+01  -6.09640614E+00  -1.32436219E+01  -5.61330350E+00  -9.04593552E+00  -1.31998611E+01  -1.32003848E+01  -1.80200854E+01  -9.24376549E+00  -1.79292937E+01  -1.79298097E+01  -2.52295143E+01  -2.75533449E+01
   6.82500000E+02   5.00000000E-01   5.00000000E-01  -6.22154629E+00  -1.59699681E+01  -2.78411738E+00  -1.44580292E+00  -1.65976105E+00  -2.96069213E+00  -1.17878720E+01  -6.72513602E+00  -5.12817966E+00  -2.55990853E-01  -4.15977385E+00  -1.95267803E+00  -9.83053391E+00  -3.29754398E-01  -1.80594397E+00  -7.73798537E+00  -3.39022279E+00  -6.37488434E+00  -4.40121817E+00  -2.04390802E+00  -1.19541012E+01  -1.27765577E+01  -1.11756586E+01  -1.41073497E+01  -8.46735846E+00  -7.92592160E+00  -1.09708316E+01  -1.28576203E+01  -2.49803695E+00  -5.71327978E+00  -2.68766262E+00  -3.94474428E+00  -7.17101049E+00  -2.56209038E+00  -3.59052908E+00  -6.05827937E+00  -5.58284210E+00  -3.64924098E+00  -6.51309171E+00  -1.19189813E+02  -9.76139285E+00  -6.13320745E+00  -1.03648983E+01  -1.19151358E+01  -6.27814541E+00  -3.08736374E+00  -9.17479717E+00  -3.60882687E+00  -5.04681101E+01  -1.24824510E+01  -8.01109421E+00  -2.01521323E+00  -3.71595949E+01  -6.39295472E+00  -8.16167475E+00  -4.90483272E+00  -7.04420396E+00  -7.27256945E+00  -8.70747207E+00  -7.80732453E+00  -1.11453522E+01  -9.13840159E+00  -6.62109431E+00  -6.17192046E+00  -1.11369679E+01  -6.09474262E+00  -1.31354179E+01  -5.61303627E+00  -9.06220316E+00  -1.32181007E+01  -1.32186815E+01  -1.80475737E+01  -9.25585942E+00  -1.79575386E+01  -1.79581070E+01  -2.52232838E+01  -2.73615633E+01