 TITLE = "Total Concentrations" 
VARIABLES = "X"          "Y"              "Z"            "H+"             "Al+++"          "CO2(aq)"        "Mg++"           "Ca++"           "Fe++"           "Fe+++"          "Ba++"           "Sr++"           "Cl-"            "F-"             "K+"             "HS-"            "Na+"            "SO4--"          "O2(aq)"         "B(OH)3(aq)"     "HPO4--"         "NO3-"           "H4SiO4(aq)"     "HNO3(aq)"       "Al(OH)2+"       "AlO2-"          "AlOH++"         "BaHCO3+"        "BaCl+"          "BaCO3(aq)"      "BaOH+"          "HCO3-"          "CO3--"          "CaCl+"          "CaCl2(aq)"      "CaOH+"          "CaSO4(aq)"      "FeCl+"          "FeCl2(aq)"      "FeOH+"          "FeSO4(aq)"      "OH-"            "S2O3--"         "H2S(aq)"        "H2PO4-"         "H3PO4(aq)"      "HAlO2(aq)"      "HSO4-"          "KCl(aq)"        "KOH(aq)"        "KSO4-"          "NH3(aq)"        "NaAlO2(aq)"     "NaOH(aq)"       "NaSO4-"         "H2(aq)"         "CaHPO4(aq)"     "CaPO4-"         "FeCO3(aq)"      "FeH2PO4+"       "FeHPO4(aq)"     "FePO4-"         "KHPO4-"         "PO4---"         "Sr(CO3)(aq)"    "SrHCO3+"        "SrCl+"          "SrOH+"          "SrSO4(aq)"      "AlH3SiO4++"     "Si2O2(OH)5-"    "Si2O3(OH)4--"   "Si3O5(OH)5---"  "Si3O6(OH)3---"  "Si4O12H4----"   "Si4O6(OH)6--"   "Si4O7(OH)6----" "Si4O8(OH)4----" "Si6O15------"   "SiF6--"        
 ZONE I=         200 , J=           1 , K=           1  F=POINT
   8.75000000E+00   5.00000000E-01   5.00000000E-01  -7.80743725E+00  -1.73265087E+01  -3.93313263E+00  -1.29411918E+00  -2.04425924E+00  -4.43089384E+00  -2.17680952E+01  -6.71260295E+00  -5.10352103E+00  -2.62115472E-01  -4.16749363E+00  -1.95205208E+00  -1.00599223E+01  -3.35545435E-01  -1.83620556E+00  -7.74473459E+00  -3.39794256E+00  -5.87606072E+00  -4.40893793E+00  -3.39448429E+00  -1.40920278E+01  -1.45403640E+01  -1.20206737E+01  -1.54847920E+01  -8.92598041E+00  -8.30745784E+00  -1.01728986E+01  -1.40632700E+01  -2.33814863E+00  -4.47293952E+00  -3.28618114E+00  -4.11701014E+00  -8.44949749E+00  -3.01335814E+00  -5.74264764E+00  -7.82667066E+00  -7.23381626E+00  -5.32228283E+00  -6.74263722E+00  -1.50305215E+02  -1.08590362E+01  -7.06740244E+00  -1.31583277E+01  -1.31706214E+01  -8.59594722E+00  -3.20740233E+00  -9.72717998E+00  -3.68523320E+00  -6.46902387E+01  -1.36298999E+01  -8.16434600E+00  -1.91232263E+00  -4.61561883E+01  -6.64630605E+00  -7.53469942E+00  -5.03627089E+00  -9.39771222E+00  -8.03198989E+00  -7.90269079E+00  -8.17608786E+00  -9.60193990E+00  -8.48903017E+00  -7.23219829E+00  -6.36338258E+00  -1.21699576E+01  -6.20353336E+00  -1.67427642E+01  -7.42386377E+00  -1.04544608E+01  -1.54174921E+01  -1.54177325E+01  -2.09344183E+01  -1.25731598E+01  -2.08260478E+01  -2.08263136E+01  -3.04289446E+01  -3.31877282E+01
   2.62500000E+01   5.00000000E-01   5.00000000E-01  -7.57186177E+00  -1.60026788E+01  -3.72141292E+00  -1.29671847E+00  -2.03625490E+00  -4.09857108E+00  -2.11252462E+01  -6.71275266E+00  -5.10389732E+00  -2.62118438E-01  -4.16749120E+00  -1.95230379E+00  -1.00904234E+01  -3.35345603E-01  -1.83174976E+00  -7.74473676E+00  -3.39794013E+00  -5.89305377E+00  -4.40893551E+00  -3.22020125E+00  -1.38438886E+01  -1.35786929E+01  -1.14542633E+01  -1.43493374E+01  -8.91902566E+00  -8.30093457E+00  -1.03831755E+01  -1.42080175E+01  -2.34409207E+00  -4.69191006E+00  -3.27784926E+00  -4.12740386E+00  -8.59835799E+00  -3.00500917E+00  -5.39577613E+00  -7.49663444E+00  -7.08216212E+00  -4.98615439E+00  -6.91547283E+00  -1.48977729E+02  -1.06842333E+01  -6.85919894E+00  -1.27100965E+01  -1.24110768E+01  -8.34171893E+00  -3.20870411E+00  -9.89413896E+00  -3.68519261E+00  -6.40750179E+01  -1.30592256E+01  -8.34731255E+00  -1.91856482E+00  -4.58812751E+01  -6.65120291E+00  -7.75409108E+00  -4.93313640E+00  -8.85775808E+00  -7.72772834E+00  -7.83394277E+00  -8.17370998E+00  -9.83112875E+00  -8.69446697E+00  -7.22149190E+00  -6.36291567E+00  -1.23212732E+01  -6.19927385E+00  -1.53911100E+01  -7.28289997E+00  -1.05068980E+01  -1.54935846E+01  -1.54938327E+01  -2.10365432E+01  -1.23011569E+01  -2.09287420E+01  -2.09290196E+01  -3.05611827E+01  -3.21474160E+01
   4.37500000E+01   5.00000000E-01   5.00000000E-01  -7.45160778E+00  -1.55079408E+01  -3.62270704E+00  -1.29912854E+00  -2.02842826E+00  -3.91243735E+00  -2.08276777E+01  -6.71294891E+00  -5.10433973E+00  -2.62107706E-01  -4.16747385E+00  -1.95257239E+00  -1.01064383E+01  -3.35149513E-01  -1.82762288E+00  -7.74472401E+00  -3.39792278E+00  -5.90718083E+00  -4.40891816E+00  -3.10648057E+00  -1.37108527E+01  -1.32164729E+01  -1.12578565E+01  -1.39279783E+01  -8.91027496E+00  -8.29412422E+00  -1.04770487E+01  -1.42386726E+01  -2.34854100E+00  -4.79478362E+00  -3.26924919E+00  -4.13693286E+00  -8.63299273E+00  -2.99664543E+00  -5.19476880E+00  -7.31192233E+00  -6.96193396E+00  -4.79600930E+00  -6.97409696E+00  -1.47889061E+02  -1.06093917E+01  -6.76293715E+00  -1.24888621E+01  -1.21360160E+01  -8.20274694E+00  -3.20963595E+00  -9.94664374E+00  -3.68502617E+00  -6.35782258E+01  -1.28582003E+01  -8.41536181E+00  -1.92452879E+00  -4.56089344E+01  -6.65287009E+00  -7.85507746E+00  -4.85939731E+00  -8.57599513E+00  -7.56635157E+00  -7.79271470E+00  -8.16808379E+00  -9.94282671E+00  -8.78356964E+00  -7.20897399E+00  -6.36209622E+00  -1.23583596E+01  -6.19505128E+00  -1.48155653E+01  -7.14840126E+00  -1.04512438E+01  -1.54075028E+01  -1.54077567E+01  -2.09224887E+01  -1.20419434E+01  -2.08152531E+01  -2.08155400E+01  -3.03689112E+01  -3.16267679E+01
   6.12500000E+01   5.00000000E-01   5.00000000E-01  -7.36966527E+00  -1.52558516E+01  -3.56058003E+00  -1.30142176E+00  -2.02077319E+00  -3.78271588E+00  -2.06443745E+01  -6.71315996E+00  -5.10481446E+00  -2.62083848E-01  -4.16744223E+00  -1.95291078E+00  -1.01157963E+01  -3.34958664E-01  -1.82380612E+00  -7.74469699E+00  -3.39789117E+00  -5.91937061E+00  -4.40888654E+00  -3.03331755E+00  -1.36159214E+01  -1.30212618E+01  -1.11530019E+01  -1.37112772E+01  -8.90026335E+00  -8.28700652E+00  -1.05320388E+01  -1.42321878E+01  -2.35204673E+00  -4.85910181E+00  -3.26038987E+00  -4.14562250E+00  -8.63038706E+00  -2.98825934E+00  -5.04986311E+00  -7.18278670E+00  -6.86035456E+00  -4.66207045E+00  -6.99548986E+00  -1.46885057E+02  -1.05653556E+01  -6.70254995E+00  -1.23415592E+01  -1.19899963E+01  -8.10201828E+00  -3.21026422E+00  -9.96173886E+00  -3.68478252E+00  -6.31228113E+01  -1.27483892E+01  -8.44550286E+00  -1.93021602E+00  -4.53391268E+01  -6.65224720E+00  -7.91561282E+00  -4.80284052E+00  -8.38657323E+00  -7.45901416E+00  -7.76717674E+00  -8.16021398E+00  -1.00149598E+01  -8.83385661E+00  -7.19517970E+00  -6.36090406E+00  -1.23581713E+01  -6.19082661E+00  -1.44866442E+01  -7.05736183E+00  -1.04014938E+01  -1.53302486E+01  -1.53305067E+01  -2.08202444E+01  -1.18695148E+01  -2.07135707E+01  -2.07138646E+01  -3.01941804E+01  -3.12978246E+01
   7.87500000E+01   5.00000000E-01   5.00000000E-01  -7.30342815E+00  -1.50873807E+01  -3.51297859E+00  -1.30363920E+00  -2.01328285E+00  -3.68301376E+00  -2.05075285E+01  -6.71337776E+00  -5.10531198E+00  -2.62047439E-01  -4.16739695E+00  -1.95332093E+00  -1.01222331E+01  -3.34772056E-01  -1.82028128E+00  -7.74465630E+00  -3.39784588E+00  -5.93067974E+00  -4.40884125E+00  -2.98575171E+00  -1.35365023E+01  -1.28792264E+01  -1.10710505E+01  -1.35628067E+01  -8.88952862E+00  -8.27958852E+00  -1.05712687E+01  -1.42111391E+01  -2.35513678E+00  -4.90797582E+00  -3.25128212E+00  -4.15350311E+00  -8.61312454E+00  -2.97985192E+00  -4.93468297E+00  -7.08286956E+00  -6.77362925E+00  -4.55795381E+00  -7.00222826E+00  -1.45920381E+02  -1.05332808E+01  -6.65650551E+00  -1.22240636E+01  -1.18817835E+01  -8.01692763E+00  -3.21060801E+00  -9.96201779E+00  -3.68446446E+00  -6.26861346E+01  -1.26611600E+01  -8.46034098E+00  -1.93563022E+00  -4.50718164E+01  -6.65040981E+00  -7.95938053E+00  -4.76021427E+00  -8.24156444E+00  -7.38039202E+00  -7.75461363E+00  -8.15118614E+00  -1.00711716E+01  -8.86844939E+00  -7.18064743E+00  -6.35934681E+00  -1.23432870E+01  -6.18659531E+00  -1.42529145E+01  -7.00245576E+00  -1.03729167E+01  -1.52847292E+01  -1.52849901E+01  -2.07603476E+01  -1.17692235E+01  -2.06542315E+01  -2.06545306E+01  -3.00828251E+01  -3.10552819E+01
   9.62500000E+01   5.00000000E-01   5.00000000E-01  -7.24677818E+00  -1.49694980E+01  -3.47395219E+00  -1.30580413E+00  -2.00595057E+00  -3.60216769E+00  -2.03987927E+01  -6.71360077E+00  -5.10582945E+00  -2.61999036E-01  -4.16733854E+00  -1.95377849E+00  -1.01267804E+01  -3.34587337E-01  -1.81703097E+00  -7.74460250E+00  -3.39778748E+00  -5.94140837E+00  -4.40878285E+00  -2.95301298E+00  -1.34664911E+01  -1.27695602E+01  -1.10034053E+01  -1.34556522E+01  -8.87823068E+00  -8.27188483E+00  -1.06009977E+01  -1.41816233E+01  -2.35795360E+00  -4.94764336E+00  -3.24193761E+00  -4.16060665E+00  -8.58730241E+00  -2.97142805E+00  -4.83808258E+00  -7.00104396E+00  -6.69670629E+00  -4.47250868E+00  -7.00040184E+00  -1.44982680E+02  -1.05081073E+01  -6.61900441E+00  -1.21244718E+01  -1.17966833E+01  -7.94135916E+00  -3.21066112E+00  -9.95356161E+00  -3.68405069E+00  -6.22620469E+01  -1.25879316E+01  -8.46599320E+00  -1.94077581E+00  -4.48069691E+01  -6.64768007E+00  -7.99282140E+00  -4.72662544E+00  -8.12400419E+00  -7.31963792E+00  -7.75029789E+00  -8.14130391E+00  -1.01178592E+01  -8.89360587E+00  -7.16553784E+00  -6.35743985E+00  -1.23198063E+01  -6.18236377E+00  -1.40766476E+01  -6.96824828E+00  -1.03561832E+01  -1.52569525E+01  -1.52572150E+01  -2.07241400E+01  -1.17102031E+01  -2.06185773E+01  -2.06188801E+01  -3.00068712E+01  -3.08639725E+01
   1.13750000E+02   5.00000000E-01   5.00000000E-01  -7.19653266E+00  -1.48871384E+01  -3.44043452E+00  -1.30793677E+00  -1.99877008E+00  -3.53428203E+00  -2.03086266E+01  -6.71382847E+00  -5.10636514E+00  -2.61939157E-01  -4.16726754E+00  -1.95425813E+00  -1.01300442E+01  -3.34402080E-01  -1.81403907E+00  -7.74453610E+00  -3.39771647E+00  -5.95175255E+00  -4.40871184E+00  -2.92825925E+00  -1.34027189E+01  -1.26835507E+01  -1.09476933E+01  -1.33779288E+01  -8.86647930E+00  -8.26391059E+00  -1.06245002E+01  -1.41468031E+01  -2.36058912E+00  -4.98135683E+00  -3.23236775E+00  -4.16696423E+00  -8.55608329E+00  -2.96299348E+00  -4.75418310E+00  -6.93144940E+00  -6.62686631E+00  -4.39985236E+00  -6.99316576E+00  -1.44065476E+02  -1.04872841E+01  -6.58707808E+00  -1.20366459E+01  -1.17291608E+01  -7.87213314E+00  -3.21041580E+00  -9.93951535E+00  -3.68351959E+00  -6.18473357E+01  -1.25263463E+01  -8.46564086E+00  -1.94565764E+00  -4.45445518E+01  -6.64427565E+00  -8.01933599E+00  -4.69946226E+00  -8.02502664E+00  -7.27106809E+00  -7.75172974E+00  -8.13076474E+00  -1.01583804E+01  -8.91259908E+00  -7.14996141E+00  -6.35519903E+00  -1.22908947E+01  -6.17813991E+00  -1.39390741E+01  -6.94422501E+00  -1.03439492E+01  -1.52359038E+01  -1.52361670E+01  -2.06969337E+01  -1.16714278E+01  -2.05919200E+01  -2.05922250E+01  -2.99442970E+01  -3.07043956E+01
   1.31250000E+02   5.00000000E-01   5.00000000E-01  -7.15046040E+00  -1.48286857E+01  -3.41030984E+00  -1.31005339E+00  -1.99173556E+00  -3.47584332E+00  -2.02303441E+01  -6.71406053E+00  -5.10691750E+00  -2.61868283E-01  -4.16718441E+00  -1.95474148E+00  -1.01325292E+01  -3.34214472E-01  -1.81129039E+00  -7.74445757E+00  -3.39763334E+00  -5.96190703E+00  -4.40862871E+00  -2.90752107E+00  -1.33429674E+01  -1.26140319E+01  -1.09011855E+01  -1.33202489E+01  -8.85438354E+00  -8.25568044E+00  -1.06440990E+01  -1.41088907E+01  -2.36313520E+00  -5.01141779E+00  -3.22258369E+00  -4.17260589E+00  -8.52167898E+00  -2.95455411E+00  -4.67948719E+00  -6.87060610E+00  -6.56282069E+00  -4.33648405E+00  -6.98272460E+00  -1.43164197E+02  -1.04691095E+01  -6.55870757E+00  -1.19563488E+01  -1.16742755E+01  -7.80702156E+00  -3.20987050E+00  -9.92207978E+00  -3.68285664E+00  -6.14397400E+01  -1.24736902E+01  -8.46151411E+00  -1.95028120E+00  -4.42845320E+01  -6.64041223E+00  -8.04137114E+00  -4.67754303E+00  -7.93909791E+00  -7.23137927E+00  -7.75783823E+00  -8.11977048E+00  -1.01951408E+01  -8.92775045E+00  -7.13402785E+00  -6.35263971E+00  -1.22587667E+01  -6.17393171E+00  -1.38267956E+01  -6.92466546E+00  -1.03327129E+01  -1.52163317E+01  -1.52165950E+01  -2.06717255E+01  -1.16414593E+01  -2.05672563E+01  -2.05675625E+01  -2.98846070E+01  -3.05637262E+01
   1.48750000E+02   5.00000000E-01   5.00000000E-01  -7.10709540E+00  -1.47858737E+01  -3.38221099E+00  -1.31216530E+00  -1.98484153E+00  -3.42460073E+00  -2.01595544E+01  -6.71429683E+00  -5.10748523E+00  -2.61786851E-01  -4.16708959E+00  -1.95521680E+00  -1.01346025E+01  -3.34023372E-01  -1.80877050E+00  -7.74436735E+00  -3.39753852E+00  -5.97203359E+00  -4.40853389E+00  -2.88864162E+00  -1.32857829E+01  -1.25556576E+01  -1.08614436E+01  -1.32758097E+01  -8.84203622E+00  -8.24720866E+00  -1.06613361E+01  -1.40693335E+01  -2.36566798E+00  -5.03934768E+00  -3.21259624E+00  -4.17756069E+00  -8.48553684E+00  -2.94611595E+00  -4.61175939E+00  -6.81629554E+00  -6.50377842E+00  -4.28016526E+00  -6.97051876E+00  -1.42275802E+02  -1.04525082E+01  -6.53260544E+00  -1.18808394E+01  -1.16281425E+01  -7.74456158E+00  -3.20902974E+00  -9.90269754E+00  -3.68205408E+00  -6.10377648E+01  -1.24275401E+01  -8.45507844E+00  -1.95465265E+00  -4.40268779E+01  -6.63627185E+00  -8.06057473E+00  -4.66016741E+00  -7.86267837E+00  -7.19849744E+00  -7.76801645E+00  -8.10849550E+00  -1.02297485E+01  -8.94060068E+00  -7.11783057E+00  -6.34977682E+00  -1.22248723E+01  -6.16974717E+00  -1.37308130E+01  -6.90670943E+00  -1.03210681E+01  -1.51961279E+01  -1.51963905E+01  -2.06457032E+01  -1.16145799E+01  -2.05417736E+01  -2.05420801E+01  -2.98235897E+01  -3.04340092E+01
   1.66250000E+02   5.00000000E-01   5.00000000E-01  -7.06548434E+00  -1.47528003E+01  -3.35526740E+00  -1.31427987E+00  -1.97808285E+00  -3.37902974E+00  -2.00934048E+01  -6.71453738E+00  -5.10806718E+00  -2.61695269E-01  -4.16698348E+00  -1.95567738E+00  -1.01365209E+01  -3.33828155E-01  -1.80646573E+00  -7.74426585E+00  -3.39743241E+00  -5.98226097E+00  -4.40842778E+00  -2.87055460E+00  -1.32302241E+01  -1.25044205E+01  -1.08263432E+01  -1.32396599E+01  -8.82951424E+00  -8.23850902E+00  -1.06772255E+01  -1.40290670E+01  -2.36824828E+00  -5.06614067E+00  -3.20241585E+00  -4.18185662E+00  -8.44859218E+00  -2.93768502E+00  -4.54948992E+00  -6.76702423E+00  -6.44916222E+00  -4.22938349E+00  -6.95747680E+00  -1.41398280E+02  -1.04368072E+01  -6.50796337E+00  -1.18083679E+01  -1.15877028E+01  -7.68380315E+00  -3.20790232E+00  -9.88230381E+00  -3.68110917E+00  -6.06404275E+01  -1.23857864E+01  -8.44728694E+00  -1.95877859E+00  -4.37715581E+01  -6.63200279E+00  -8.07804800E+00  -4.64683291E+00  -7.79343398E+00  -7.17104156E+00  -7.78183752E+00  -8.09708497E+00  -1.02632664E+01  -8.95216246E+00  -7.10144706E+00  -6.34662478E+00  -1.21901494E+01  -6.16559420E+00  -1.36450698E+01  -6.88916513E+00  -1.03087641E+01  -1.51749172E+01  -1.51751790E+01  -2.06183659E+01  -1.15884082E+01  -2.05149713E+01  -2.05152772E+01  -2.97605000E+01  -3.03104276E+01
   1.83750000E+02   5.00000000E-01   5.00000000E-01  -7.02500712E+00  -1.47252262E+01  -3.32892903E+00  -1.31640173E+00  -1.97145466E+00  -3.33805142E+00  -2.00300419E+01  -6.71478226E+00  -5.10866232E+00  -2.61593914E-01  -4.16686647E+00  -1.95611976E+00  -1.01384631E+01  -3.33628531E-01  -1.80436321E+00  -7.74415345E+00  -3.39731540E+00  -5.99269114E+00  -4.40831078E+00  -2.85281117E+00  -1.31756819E+01  -1.24573099E+01  -1.07940911E+01  -1.32081777E+01  -8.81688201E+00  -8.22959479E+00  -1.06924361E+01  -1.39886940E+01  -2.37092506E+00  -5.09244661E+00  -3.19205262E+00  -4.18552061E+00  -8.41144765E+00  -2.92926733E+00  -4.49161390E+00  -6.72174289E+00  -6.39850732E+00  -4.18307145E+00  -6.94419498E+00  -1.40530287E+02  -1.04215868E+01  -6.48427880E+00  -1.17378228E+01  -1.15505611E+01  -7.62412948E+00  -3.20649969E+00  -9.86150416E+00  -3.68002256E+00  -6.02470794E+01  -1.23466507E+01  -8.43875965E+00  -1.96266595E+00  -4.35185420E+01  -6.62772578E+00  -8.09453138E+00  -4.63713712E+00  -7.72978210E+00  -7.14804888E+00  -7.79895968E+00  -8.08565944E+00  -1.02963981E+01  -8.96310336E+00  -7.08494224E+00  -6.34319749E+00  -1.21552032E+01  -6.16148056E+00  -1.35654582E+01  -6.87174269E+00  -1.02961194E+01  -1.51531781E+01  -1.51534388E+01  -2.05903509E+01  -1.15623669E+01  -2.04874863E+01  -2.04877912E+01  -2.96962987E+01  -3.01901121E+01
   2.01250000E+02   5.00000000E-01   5.00000000E-01  -6.98535950E+00  -1.47010321E+01  -3.30294267E+00  -1.31853356E+00  -1.96495234E+00  -3.30087911E+00  -1.99685601E+01  -6.71503169E+00  -5.10926977E+00  -2.61483136E-01  -4.16673891E+00  -1.95654194E+00  -1.01405179E+01  -3.33424371E-01  -1.80245086E+00  -7.74403049E+00  -3.39718784E+00  -6.00338520E+00  -4.40818321E+00  -2.83521854E+00  -1.31218629E+01  -1.24128039E+01  -1.07637517E+01  -1.31795456E+01  -8.80418509E+00  -8.22047876E+00  -1.07073025E+01  -1.39485020E+01  -2.37372903E+00  -5.11858192E+00  -3.18151624E+00  -4.18857855E+00  -8.37439059E+00  -2.92086885E+00  -4.43735807E+00  -6.67969323E+00  -6.35132540E+00  -4.14045384E+00  -6.93095453E+00  -1.39671116E+02  -1.04066532E+01  -6.46132357E+00  -1.16686825E+01  -1.15154952E+01  -7.56523979E+00  -3.20483409E+00  -9.84059000E+00  -3.67879642E+00  -5.98573878E+01  -1.23092111E+01  -8.42980066E+00  -1.96632180E+00  -4.32677993E+01  -6.62351988E+00  -8.11040758E+00  -4.63063533E+00  -7.67070688E+00  -7.12880763E+00  -7.81897613E+00  -8.07429895E+00  -1.03294911E+01  -8.97375676E+00  -7.06836215E+00  -6.33950834E+00  -1.21203233E+01  -6.15741394E+00  -1.34899316E+01  -6.85434867E+00  -1.02833330E+01  -1.51312100E+01  -1.51314696E+01  -2.05620569E+01  -1.15362712E+01  -2.04597172E+01  -2.04600209E+01  -2.96315880E+01  -3.00717099E+01
   2.18750000E+02   5.00000000E-01   5.00000000E-01  -6.94640633E+00  -1.46792925E+01  -3.27721214E+00  -1.32067699E+00  -1.95857151E+00  -3.26692060E+00  -1.99085607E+01  -6.71528598E+00  -5.10988876E+00  -2.61363264E-01  -4.16660112E+00  -1.95694269E+00  -1.01427237E+01  -3.33215610E-01  -1.80071742E+00  -7.74389730E+00  -3.39705005E+00  -6.01437764E+00  -4.40804542E+00  -2.81768944E+00  -1.30686421E+01  -1.23702360E+01  -1.07349077E+01  -1.31529706E+01  -8.79145714E+00  -8.21117321E+00  -1.07219791E+01  -1.39086098E+01  -2.37667959E+00  -5.14468339E+00  -3.17081598E+00  -4.19105520E+00  -8.33753972E+00  -2.91249546E+00  -4.38614299E+00  -6.64031017E+00  -6.30715364E+00  -4.10094944E+00  -6.91786843E+00  -1.38820396E+02  -1.03919300E+01  -6.43901138E+00  -1.16007357E+01  -1.14819693E+01  -7.50700242E+00  -3.20291790E+00  -9.81968462E+00  -3.67743380E+00  -5.94711891E+01  -1.22730638E+01  -8.42054485E+00  -1.96975328E+00  -4.30193005E+01  -6.61943665E+00  -8.12586271E+00  -4.62689645E+00  -7.61552881E+00  -7.11277332E+00  -7.84147830E+00  -8.06305655E+00  -1.03626977E+01  -8.98427560E+00  -7.05174092E+00  -6.33557021E+00  -1.20856308E+01  -6.15340187E+00  -1.34175750E+01  -6.83693186E+00  -1.02704776E+01  -1.51091222E+01  -1.51093808E+01  -2.05336293E+01  -1.15100209E+01  -2.04318093E+01  -2.04321116E+01  -2.95665896E+01  -2.99546477E+01
   2.36250000E+02   5.00000000E-01   5.00000000E-01  -6.90801608E+00  -1.46589647E+01  -3.25164653E+00  -1.32283337E+00  -1.95230801E+00  -3.23571468E+00  -1.98496562E+01  -6.71554536E+00  -5.11051851E+00  -2.61234606E-01  -4.16645341E+00  -1.95732162E+00  -1.01451216E+01  -3.33002237E-01  -1.79915237E+00  -7.74375420E+00  -3.39690234E+00  -6.02570490E+00  -4.40789771E+00  -2.80022982E+00  -1.30158976E+01  -1.23288154E+01  -1.07070106E+01  -1.31275390E+01  -8.77873347E+00  -8.20168975E+00  -1.07366184E+01  -1.38691329E+01  -2.37979861E+00  -5.17088738E+00  -3.15996067E+00  -4.19297422E+00  -8.30101055E+00  -2.90415287E+00  -4.33751954E+00  -6.60315826E+00  -6.26565656E+00  -4.06410758E+00  -6.90504681E+00  -1.37977770E+02  -1.03773468E+01  -6.41726085E+00  -1.15337793E+01  -1.14493199E+01  -7.44928945E+00  -3.20076365E+00  -9.79890870E+00  -3.67593859E+00  -5.90883236E+01  -1.22376731E+01  -8.41112327E+00  -1.97296751E+00  -4.27730163E+01  -6.61552870E+00  -8.14108024E+00  -4.62561867E+00  -7.56370433E+00  -7.09953381E+00  -7.86618625E+00  -8.05198702E+00  -1.03961693E+01  -8.99481126E+00  -7.03511430E+00  -6.33139526E+00  -1.20512432E+01  -6.14945145E+00  -1.33474465E+01  -6.81962408E+00  -1.02578052E+01  -1.50872934E+01  -1.50875513E+01  -2.05055727E+01  -1.14838815E+01  -2.04042673E+01  -2.04045681E+01  -2.95020640E+01  -2.98384572E+01
   2.53750000E+02   5.00000000E-01   5.00000000E-01  -6.87015605E+00  -1.46398041E+01  -3.22624452E+00  -1.32500351E+00  -1.94615785E+00  -3.20689871E+00  -1.97917553E+01  -6.71581013E+00  -5.11115830E+00  -2.61097452E-01  -4.16629606E+00  -1.95767857E+00  -1.01477196E+01  -3.32784240E-01  -1.79774591E+00  -7.74360145E+00  -3.39674499E+00  -6.03738266E+00  -4.40774036E+00  -2.78284512E+00  -1.29636056E+01  -1.22883521E+01  -1.06799157E+01  -1.31030363E+01  -8.76604027E+00  -8.19203947E+00  -1.07512657E+01  -1.38300883E+01  -2.38309939E+00  -5.19722350E+00  -3.14895876E+00  -4.19435825E+00  -8.26482021E+00  -2.89584662E+00  -4.29113659E+00  -6.56789946E+00  -6.22649857E+00  -4.02957583E+00  -6.89250176E+00  -1.37143077E+02  -1.03628977E+01  -6.39606812E+00  -1.14677858E+01  -1.14173855E+01  -7.39207181E+00  -3.19838352E+00  -9.77828455E+00  -3.67431495E+00  -5.87087304E+01  -1.22029066E+01  -8.40156796E+00  -1.97597156E+00  -4.25289181E+01  -6.61182702E+00  -8.15612313E+00  -4.62649094E+00  -7.51486601E+00  -7.08875428E+00  -7.89279855E+00  -8.04112357E+00  -1.04299385E+01  -9.00540764E+00  -7.01850883E+00  -6.32699513E+00  -1.20171796E+01  -6.14556958E+00  -1.32793044E+01  -6.80245756E+00  -1.02453699E+01  -1.50658052E+01  -1.50660627E+01  -2.04779955E+01  -1.14579196E+01  -2.03771993E+01  -2.03774989E+01  -2.94381768E+01  -2.97230625E+01
   2.71250000E+02   5.00000000E-01   5.00000000E-01  -6.83280538E+00  -1.46216567E+01  -3.20101507E+00  -1.32718816E+00  -1.94011728E+00  -3.18018052E+00  -1.97348023E+01  -6.71608057E+00  -5.11180742E+00  -2.60952075E-01  -4.16612934E+00  -1.95801370E+00  -1.01505219E+01  -3.32561607E-01  -1.79648891E+00  -7.74343934E+00  -3.39657827E+00  -6.04942216E+00  -4.40757364E+00  -2.76554671E+00  -1.29117540E+01  -1.22487231E+01  -1.06535227E+01  -1.30793268E+01  -8.75340219E+00  -8.18223290E+00  -1.07659531E+01  -1.37914815E+01  -2.38659441E+00  -5.22370941E+00  -3.13781828E+00  -4.19522889E+00  -8.22897440E+00  -2.88758205E+00  -4.24671285E+00  -6.53426497E+00  -6.18940269E+00  -3.99707174E+00  -6.88023425E+00  -1.36316185E+02  -1.03485844E+01  -6.37543608E+00  -1.14027459E+01  -1.13860597E+01  -7.33533229E+00  -3.19578938E+00  -9.75782311E+00  -3.67256737E+00  -5.83323608E+01  -1.21686752E+01  -8.39189891E+00  -1.97877241E+00  -4.22869775E+01  -6.60835731E+00  -8.17103719E+00  -4.62925955E+00  -7.46872366E+00  -7.08016531E+00  -7.92106732E+00  -8.03049428E+00  -1.04640220E+01  -9.01609571E+00  -7.00194954E+00  -6.32238088E+00  -1.19834476E+01  -6.14176276E+00  -1.32129928E+01  -6.78546483E+00  -1.02332142E+01  -1.50447219E+01  -1.50449797E+01  -2.04509832E+01  -1.14322019E+01  -2.03506910E+01  -2.03509896E+01  -2.93750595E+01  -2.96084389E+01
   2.88750000E+02   5.00000000E-01   5.00000000E-01  -6.79593865E+00  -1.46043230E+01  -3.17596293E+00  -1.32938800E+00  -1.93418271E+00  -3.15532075E+00  -1.96787279E+01  -6.71635694E+00  -5.11246515E+00  -2.60798731E-01  -4.16595349E+00  -1.95832747E+00  -1.01535346E+01  -3.32334323E-01  -1.79537287E+00  -7.74326810E+00  -3.39640242E+00  -6.06183413E+00  -4.40739779E+00  -2.74835355E+00  -1.28603253E+01  -1.22097689E+01  -1.06277039E+01  -1.30562338E+01  -8.74084426E+00  -8.17227997E+00  -1.07807181E+01  -1.37533228E+01  -2.39029716E+00  -5.25036893E+00  -3.12654690E+00  -4.19560677E+00  -8.19348373E+00  -2.87936430E+00  -4.20401932E+00  -6.50203768E+00  -6.15414939E+00  -3.96636528E+00  -6.86825049E+00  -1.35496951E+02  -1.03344052E+01  -6.35536206E+00  -1.13386399E+01  -1.13552044E+01  -7.27904913E+00  -3.19299285E+00  -9.73754035E+00  -3.67070060E+00  -5.79591615E+01  -1.21348624E+01  -8.38214041E+00  -1.98137692E+00  -4.20471668E+01  -6.60514396E+00  -8.18587141E+00  -4.63372870E+00  -7.42503436E+00  -7.07354930E+00  -7.95080100E+00  -8.02012607E+00  -1.04984415E+01  -9.02691172E+00  -6.98546177E+00  -6.31756296E+00  -1.19500594E+01  -6.13803710E+00  -1.31483232E+01  -6.76869838E+00  -1.02214057E+01  -1.50241453E+01  -1.50244038E+01  -2.04246710E+01  -1.14068355E+01  -2.03248773E+01  -2.03251754E+01  -2.93129176E+01  -2.94945487E+01
   3.06250000E+02   5.00000000E-01   5.00000000E-01  -6.75952707E+00  -1.45875687E+01  -3.15108985E+00  -1.33160371E+00  -1.92835078E+00  -3.13212086E+00  -1.96234526E+01  -6.71663946E+00  -5.11313075E+00  -2.60637663E-01  -4.16576875E+00  -1.95862064E+00  -1.01567661E+01  -3.32102373E-01  -1.79438982E+00  -7.74308796E+00  -3.39621768E+00  -6.07462904E+00  -4.40721305E+00  -2.73129022E+00  -1.28092985E+01  -1.21713026E+01  -1.06023120E+01  -1.30335493E+01  -8.72839190E+00  -8.16219009E+00  -1.07956024E+01  -1.37156263E+01  -2.39422216E+00  -5.27723101E+00  -3.11515193E+00  -4.19551160E+00  -8.15836265E+00  -2.87119829E+00  -4.16286722E+00  -6.47104019E+00  -6.12056335E+00  -3.93726675E+00  -6.85656080E+00  -1.34685230E+02  -1.03203564E+01  -6.33583916E+00  -1.12754398E+01  -1.13246575E+01  -7.22319712E+00  -3.19000522E+00  -9.71745607E+00  -3.66871958E+00  -5.75890760E+01  -1.21013310E+01  -8.37232000E+00  -1.98379180E+00  -4.18094586E+01  -6.60221033E+00  -8.20067713E+00  -4.63974744E+00  -7.38359179E+00  -7.06872867E+00  -7.98185144E+00  -8.01004494E+00  -1.05332221E+01  -9.03789613E+00  -6.96907124E+00  -6.31255123E+00  -1.19170308E+01  -6.13439831E+00  -1.30850825E+01  -6.75222561E+00  -1.02100302E+01  -1.50042045E+01  -1.50044646E+01  -2.03992311E+01  -1.13819568E+01  -2.02999305E+01  -2.03002286E+01  -2.92520123E+01  -2.93813444E+01
   3.23750000E+02   5.00000000E-01   5.00000000E-01  -6.72354201E+00  -1.45711583E+01  -3.12639787E+00  -1.33383595E+00  -1.92261829E+00  -3.11041433E+00  -1.95688973E+01  -6.71692829E+00  -5.11380346E+00  -2.60469102E-01  -4.16557533E+00  -1.95889415E+00  -1.01602250E+01  -3.31865744E-01  -1.79353235E+00  -7.74289915E+00  -3.39602426E+00  -6.08781650E+00  -4.40701963E+00  -2.71438379E+00  -1.27586521E+01  -1.21331354E+01  -1.05771976E+01  -1.30110637E+01  -8.71607070E+00  -8.15197212E+00  -1.08106482E+01  -1.36784060E+01  -2.39838472E+00  -5.30432570E+00  -3.10364036E+00  -4.19496219E+00  -8.12362576E+00  -2.86308871E+00  -4.12309929E+00  -6.44112607E+00  -6.08850119E+00  -3.90961806E+00  -6.84517596E+00  -1.33880878E+02  -1.03064344E+01  -6.31685929E+00  -1.12131162E+01  -1.12942547E+01  -7.16775122E+00  -3.18683751E+00  -9.69759025E+00  -3.66662943E+00  -5.72220481E+01  -1.20679416E+01  -8.36246485E+00  -1.98602363E+00  -4.15738259E+01  -6.59957818E+00  -8.21550386E+00  -4.64719700E+00  -7.34422047E+00  -7.06555647E+00  -8.01410095E+00  -8.00027534E+00  -1.05683886E+01  -9.04908974E+00  -6.95280377E+00  -6.30735501E+00  -1.18843776E+01  -6.13085168E+00  -1.30230595E+01  -6.73611893E+00  -1.01991787E+01  -1.49850366E+01  -1.49852990E+01  -2.03748456E+01  -1.13577124E+01  -2.02760326E+01  -2.02763313E+01  -2.91926197E+01  -2.92687796E+01
   3.41250000E+02   5.00000000E-01   5.00000000E-01  -6.68795875E+00  -1.45548893E+01  -3.10189256E+00  -1.33608531E+00  -1.91698225E+00  -3.09006021E+00  -1.95149948E+01  -6.71722361E+00  -5.11448252E+00  -2.60293265E-01  -4.16537344E+00  -1.95914911E+00  -1.01639191E+01  -3.31624420E-01  -1.79279352E+00  -7.74270187E+00  -3.39582237E+00  -6.10140423E+00  -4.40681774E+00  -2.69766031E+00  -1.27083680E+01  -1.20951038E+01  -1.05522300E+01  -1.29885965E+01  -8.70390585E+00  -8.14163444E+00  -1.08258934E+01  -1.36416723E+01  -2.40280031E+00  -5.33167996E+00  -3.09201886E+00  -4.19397650E+00  -8.08928417E+00  -2.85504001E+00  -4.08458333E+00  -6.41217345E+00  -6.05784119E+00  -3.88328622E+00  -6.83410347E+00  -1.33083761E+02  -1.02926376E+01  -6.29841586E+00  -1.11516448E+01  -1.12638537E+01  -7.11269018E+00  -3.18350034E+00  -9.67795928E+00  -3.66443529E+00  -5.68580257E+01  -1.20345725E+01  -8.35259804E+00  -1.98807881E+00  -4.13402422E+01  -6.59726667E+00  -8.23039460E+00  -4.65598009E+00  -7.30677205E+00  -7.06390898E+00  -8.04745113E+00  -7.99083916E+00  -1.06039605E+01  -9.06052942E+00  -6.93668477E+00  -6.30198312E+00  -1.18521120E+01  -6.12740210E+00  -1.29620720E+01  -6.72044509E+00  -1.01889329E+01  -1.49667643E+01  -1.49670300E+01  -2.03516781E+01  -1.13342375E+01  -2.02533470E+01  -2.02536472E+01  -2.91349877E+01  -2.91568206E+01