 TITLE = "Total Concentrations" 
VARIABLES = "X"          "Y"              "Z"            "H+"             "Al+++"          "CO2(aq)"        "Mg++"           "Ca++"           "Fe++"           "Fe+++"          "Ba++"           "Sr++"           "Cl-"            "F-"             "K+"             "HS-"            "Na+"            "SO4--"          "O2(aq)"         "B(OH)3(aq)"     "HPO4--"         "NO3-"           "H4SiO4(aq)"     "HNO3(aq)"       "Al(OH)2+"       "AlO2-"          "AlOH++"         "BaHCO3+"        "BaCl+"          "BaCO3(aq)"      "BaOH+"          "HCO3-"          "CO3--"          "CaCl+"          "CaCl2(aq)"      "CaOH+"          "CaSO4(aq)"      "FeCl+"          "FeCl2(aq)"      "FeOH+"          "FeSO4(aq)"      "OH-"            "S2O3--"         "H2S(aq)"        "H2PO4-"         "H3PO4(aq)"      "HAlO2(aq)"      "HSO4-"          "KCl(aq)"        "KOH(aq)"        "KSO4-"          "NH3(aq)"        "NaAlO2(aq)"     "NaOH(aq)"       "NaSO4-"         "H2(aq)"         "CaHPO4(aq)"     "CaPO4-"         "FeCO3(aq)"      "FeH2PO4+"       "FeHPO4(aq)"     "FePO4-"         "KHPO4-"         "PO4---"         "Sr(CO3)(aq)"    "SrHCO3+"        "SrCl+"          "SrOH+"          "SrSO4(aq)"      "AlH3SiO4++"     "Si2O2(OH)5-"    "Si2O3(OH)4--"   "Si3O5(OH)5---"  "Si3O6(OH)3---"  "Si4O12H4----"   "Si4O6(OH)6--"   "Si4O7(OH)6----" "Si4O8(OH)4----" "Si6O15------"   "SiF6--"        
 ZONE I=         100 , J=           1 , K=           1  F=POINT
   1.75000000E+01   5.00000000E-01   5.00000000E-01  -7.76452541E+00  -1.81418608E+01  -3.90783633E+00  -1.30534563E+00  -2.01779401E+00  -3.36904987E+00  -1.14966940E+01  -6.71265053E+00  -5.10358149E+00  -2.62149204E-01  -4.16748106E+00  -1.95177592E+00  -1.00231079E+01  -3.35178765E-01  -1.83565608E+00  -7.74476665E+00  -3.39792999E+00  -5.93359060E+00  -4.40892536E+00  -2.76402755E+00  -1.40427655E+01  -1.53868065E+01  -1.29148354E+01  -1.63193818E+01  -8.92806683E+00  -8.30412064E+00  -1.02085512E+01  -1.40604952E+01  -2.34677306E+00  -4.51320979E+00  -3.25954321E+00  -4.09973291E+00  -8.42640201E+00  -2.98818270E+00  -4.67350518E+00  -6.76593659E+00  -6.18728939E+00  -4.25999984E+00  -6.75405655E+00  -1.49793305E+02  -1.07944804E+01  -7.08715642E+00  -1.31329096E+01  -1.40431234E+01  -8.54532566E+00  -3.20760860E+00  -9.73517705E+00  -3.68639818E+00  -6.44568424E+01  -1.45216099E+01  -8.18055449E+00  -1.91678762E+00  -4.60183060E+01  -6.67511094E+00  -7.59593273E+00  -4.01963126E+00  -8.35581931E+00  -7.03298221E+00  -6.94664462E+00  -8.22343064E+00  -9.69080282E+00  -8.52215609E+00  -7.23231302E+00  -6.36298391E+00  -1.21703863E+01  -6.20269226E+00  -1.69258127E+01  -6.19192528E+00  -9.24433663E+00  -1.36011597E+01  -1.36014042E+01  -1.85127621E+01  -1.01143323E+01  -1.84046767E+01  -1.84049487E+01  -2.67870054E+01  -3.24240117E+01
   5.25000000E+01   5.00000000E-01   5.00000000E-01  -7.61193293E+00  -1.77740697E+01  -3.79348015E+00  -1.31550918E+00  -1.98715227E+00  -3.18540059E+00  -1.16921275E+01  -6.71306731E+00  -5.10443285E+00  -2.62142506E-01  -4.16743256E+00  -1.95165924E+00  -9.99728189E+00  -3.34731623E-01  -1.82833654E+00  -7.74476749E+00  -3.39788149E+00  -5.95734697E+00  -4.40887686E+00  -2.58067910E+00  -1.38645766E+01  -1.51081856E+01  -1.27919997E+01  -1.60104227E+01  -8.90571721E+00  -8.29050969E+00  -1.03035058E+01  -1.40338819E+01  -2.35082252E+00  -4.62621429E+00  -3.22734770E+00  -4.10378613E+00  -8.39274372E+00  -2.95733071E+00  -4.46010157E+00  -6.58511364E+00  -6.04751396E+00  -4.06919207E+00  -6.78338608E+00  -1.47793522E+02  -1.06748436E+01  -6.97802279E+00  -1.28617317E+01  -1.38508807E+01  -8.35620579E+00  -3.20880447E+00  -9.75158686E+00  -3.68630929E+00  -6.35510449E+01  -1.43894605E+01  -8.22866021E+00  -1.92956105E+00  -4.54735787E+01  -6.65888874E+00  -7.69045382E+00  -3.96796470E+00  -8.06427871E+00  -6.89427515E+00  -6.96034006E+00  -8.20699240E+00  -9.82183509E+00  -8.60751183E+00  -7.20237178E+00  -6.36129757E+00  -1.21565787E+01  -6.19506996E+00  -1.63525799E+01  -5.92323119E+00  -9.04543653E+00  -1.32976454E+01  -1.32979016E+01  -1.81094607E+01  -9.59653252E+00  -1.80025065E+01  -1.80027971E+01  -2.61399534E+01  -3.17784245E+01
   8.75000000E+01   5.00000000E-01   5.00000000E-01  -7.50600643E+00  -1.76088930E+01  -3.72056920E+00  -1.32350021E+00  -1.95966601E+00  -3.12350982E+00  -1.17396861E+01  -6.71351816E+00  -5.10540337E+00  -2.62079366E-01  -4.16732927E+00  -1.95157766E+00  -9.96911928E+00  -3.34398296E-01  -1.82188967E+00  -7.74471364E+00  -3.39777820E+00  -5.96868044E+00  -4.40877357E+00  -2.50554309E+00  -1.37322676E+01  -1.49427675E+01  -1.26936458E+01  -1.58586942E+01  -8.88000064E+00  -8.27568845E+00  -1.03511563E+01  -1.39652352E+01  -2.35274776E+00  -4.69316539E+00  -3.19662969E+00  -4.10704741E+00  -8.31915303E+00  -2.92858762E+00  -4.36725764E+00  -6.52279790E+00  -5.98501866E+00  -3.99904988E+00  -6.77030944E+00  -1.45918365E+02  -1.05962040E+01  -6.90118778E+00  -1.26685385E+01  -1.37265488E+01  -8.21316704E+00  -3.20859052E+00  -9.72468048E+00  -3.68536160E+00  -6.27041414E+01  -1.42805844E+01  -8.23181928E+00  -1.94102127E+00  -4.49389255E+01  -6.63139803E+00  -7.72763371E+00  -3.98940649E+00  -7.92701878E+00  -6.86323083E+00  -7.03487449E+00  -8.17673939E+00  -9.89644413E+00  -8.64584832E+00  -7.16902088E+00  -6.35815859E+00  -1.21002223E+01  -6.18715661E+00  -1.60503244E+01  -5.82687421E+00  -8.97519632E+00  -1.31869938E+01  -1.31872556E+01  -1.79634915E+01  -9.42286955E+00  -1.78576526E+01  -1.78579538E+01  -2.58781003E+01  -3.14194767E+01
   1.22500000E+02   5.00000000E-01   5.00000000E-01  -7.41260014E+00  -1.74842471E+01  -3.65693354E+00  -1.33064019E+00  -1.93434200E+00  -3.09611369E+00  -1.17501519E+01  -6.71398715E+00  -5.10645591E+00  -2.61967617E-01  -4.16717548E+00  -1.95152520E+00  -9.94275033E+00  -3.34102091E-01  -1.81638046E+00  -7.74460939E+00  -3.39762441E+00  -5.97769525E+00  -4.40861978E+00  -2.46263495E+00  -1.36117946E+01  -1.47966413E+01  -1.25939374E+01  -1.57362328E+01  -8.85282186E+00  -8.25975750E+00  -1.03873909E+01  -1.38885124E+01  -2.35433146E+00  -4.74982107E+00  -3.16653308E+00  -4.10881193E+00  -8.23865861E+00  -2.90121892E+00  -4.30783979E+00  -6.49199582E+00  -5.94662255E+00  -3.96257613E+00  -6.74874639E+00  -1.44098982E+02  -1.05287478E+01  -6.83274320E+00  -1.24953792E+01  -1.36103050E+01  -8.08227187E+00  -3.20709291E+00  -9.68848215E+00  -3.68375729E+00  -6.18817154E+01  -1.41692023E+01  -8.22409906E+00  -1.95133013E+00  -4.44140631E+01  -6.60194148E+00  -7.75093452E+00  -4.03267508E+00  -7.83284161E+00  -6.86277886E+00  -7.12734549E+00  -8.14297244E+00  -9.95873595E+00  -8.67303178E+00  -7.13416003E+00  -6.35366254E+00  -1.20352849E+01  -6.17915129E+00  -1.58147553E+01  -5.78494613E+00  -8.94976422E+00  -1.31434593E+01  -1.31437226E+01  -1.79071487E+01  -9.35756142E+00  -1.78024078E+01  -1.78027135E+01  -2.57501247E+01  -3.11352136E+01
   1.57500000E+02   5.00000000E-01   5.00000000E-01  -7.32423177E+00  -1.73715904E+01  -3.59589107E+00  -1.33753775E+00  -1.91062202E+00  -3.08004504E+00  -1.17498458E+01  -6.71447326E+00  -5.10757484E+00  -2.61812702E-01  -4.16697485E+00  -1.95149747E+00  -9.91897430E+00  -3.33809020E-01  -1.81177544E+00  -7.74445840E+00  -3.39742378E+00  -5.98767528E+00  -4.40841915E+00  -2.43032942E+00  -1.34957754E+01  -1.46561271E+01  -1.24939577E+01  -1.56219574E+01  -8.82493025E+00  -8.24283232E+00  -1.04202980E+01  -1.38110398E+01  -2.35618808E+00  -4.80411046E+00  -3.13663299E+00  -4.10880337E+00  -8.15807333E+00  -2.87483680E+00  -4.25880725E+00  -6.46980448E+00  -5.91658715E+00  -3.93678142E+00  -6.72596724E+00  -1.42319693E+02  -1.04659868E+01  -6.76862528E+00  -1.23308083E+01  -1.34959060E+01  -7.95614664E+00  -3.20443873E+00  -9.65036955E+00  -3.68160486E+00  -6.10760396E+01  -1.40564945E+01  -8.21295094E+00  -1.96059436E+00  -4.38987278E+01  -6.57344702E+00  -7.77076959E+00  -4.08276319E+00  -7.75450096E+00  -6.87314749E+00  -7.22547609E+00  -8.10916868E+00  -1.00193226E+01  -8.69713507E+00  -7.09853890E+00  -6.34792555E+00  -1.19691088E+01  -6.17118986E+00  -1.56028397E+01  -5.76158238E+00  -8.94066261E+00  -1.31243412E+01  -1.31246035E+01  -1.78834785E+01  -9.32890379E+00  -1.77798171E+01  -1.77801233E+01  -2.56707086E+01  -3.08746341E+01
   1.92500000E+02   5.00000000E-01   5.00000000E-01  -7.23659929E+00  -1.72493511E+01  -3.53367187E+00  -1.34447398E+00  -1.88808541E+00  -3.06571461E+00  -1.17536696E+01  -6.71497728E+00  -5.10874883E+00  -2.61619039E-01  -4.16673054E+00  -1.95149096E+00  -9.89837126E+00  -3.33518198E-01  -1.80801093E+00  -7.74426382E+00  -3.39717947E+00  -6.00006108E+00  -4.40817484E+00  -2.39984008E+00  -1.33800016E+01  -1.45081617E+01  -1.23890587E+01  -1.54985773E+01  -8.79681162E+00  -8.22502392E+00  -1.04545349E+01  -1.37369764E+01  -2.35867500E+00  -4.86053419E+00  -3.10663393E+00  -4.10686669E+00  -8.08117489E+00  -2.84915287E+00  -4.21068882E+00  -6.44688303E+00  -5.88957599E+00  -3.91221542E+00  -6.70607626E+00  -1.40571141E+02  -1.04043827E+01  -6.70610113E+00  -1.21678849E+01  -1.33745510E+01  -7.83055989E+00  -3.20074884E+00  -9.61454923E+00  -3.67897700E+00  -6.02825781E+01  -1.39379355E+01  -8.20267857E+00  -1.96891522E+00  -4.33926685E+01  -6.54712936E+00  -7.79265382E+00  -4.13480262E+00  -7.67966409E+00  -6.88630272E+00  -7.32554246E+00  -8.07694910E+00  -1.00837956E+01  -8.72280207E+00  -7.06264494E+00  -6.34106092E+00  -1.19058692E+01  -6.16337608E+00  -1.53881922E+01  -5.74341372E+00  -8.93872882E+00  -1.31159041E+01  -1.31161642E+01  -1.78741584E+01  -9.31017821E+00  -1.77715568E+01  -1.77718612E+01  -2.56124259E+01  -3.06122457E+01
   2.27500000E+02   5.00000000E-01   5.00000000E-01  -7.13775102E+00  -1.70373572E+01  -3.45946234E+00  -1.35173265E+00  -1.86590186E+00  -3.03804259E+00  -1.18003703E+01  -6.71549267E+00  -5.10995444E+00  -2.61392686E-01  -4.16644526E+00  -1.95150160E+00  -9.88385748E+00  -3.33302391E-01  -1.80507113E+00  -7.74402838E+00  -3.39689419E+00  -6.01807081E+00  -4.40788956E+00  -2.36061636E+00  -1.32526075E+01  -1.42963863E+01  -1.22466087E+01  -1.52978521E+01  -8.76955223E+00  -8.20643019E+00  -1.05030192E+01  -1.36781317E+01  -2.36276737E+00  -4.93187056E+00  -3.07582372E+00  -4.10242286E+00  -8.01898653E+00  -2.82350352E+00  -4.14851564E+00  -6.40838616E+00  -5.86241425E+00  -3.87397110E+00  -6.70084094E+00  -1.38828780E+02  -1.03350712E+01  -6.63655761E+00  -1.19861303E+01  -1.32017968E+01  -7.69366869E+00  -3.19613697E+00  -9.59288241E+00  -3.67598459E+00  -5.94891519E+01  -1.37810800E+01  -8.20530674E+00  -1.97650459E+00  -4.28956443E+01  -6.52555807E+00  -7.83110381E+00  -4.18669714E+00  -7.58462998E+00  -6.89049424E+00  -7.42775182E+00  -8.04969587E+00  -1.01671808E+01  -8.76293159E+00  -7.02756017E+00  -6.33316321E+00  -1.18573854E+01  -6.15583713E+00  -1.50917322E+01  -5.72119344E+00  -8.94657425E+00  -1.31220695E+01  -1.31223277E+01  -1.78844143E+01  -9.28290835E+00  -1.77828523E+01  -1.77831538E+01  -2.55831452E+01  -3.02901472E+01
   2.62500000E+02   5.00000000E-01   5.00000000E-01  -7.03591082E+00  -1.67914970E+01  -3.38157639E+00  -1.35897932E+00  -1.84410591E+00  -3.00167481E+00  -1.18632317E+01  -6.71602356E+00  -5.11118799E+00  -2.61136248E-01  -4.16612139E+00  -1.95152718E+00  -9.87383913E+00  -3.33213870E-01  -1.80284222E+00  -7.74375444E+00  -3.39657032E+00  -6.04092258E+00  -4.40756569E+00  -2.32006046E+00  -1.31218987E+01  -1.40601604E+01  -1.20893551E+01  -1.50674278E+01  -8.74320441E+00  -8.18715404E+00  -1.05574710E+01  -1.36261618E+01  -2.36840078E+00  -5.00968861E+00  -3.04434720E+00  -4.09574224E+00  -7.96322882E+00  -2.79799043E+00  -4.07703662E+00  -6.35917917E+00  -5.83148248E+00  -3.82676698E+00  -6.70186527E+00  -1.37108248E+02  -1.02648453E+01  -6.56755402E+00  -1.18014092E+01  -1.30087496E+01  -7.55370299E+00  -3.19071221E+00  -9.57706563E+00  -3.67263966E+00  -5.87037714E+01  -1.36088359E+01  -8.21266545E+00  -1.98345139E+00  -4.24074271E+01  -6.50816636E+00  -7.87731905E+00  -4.23486297E+00  -7.48160105E+00  -6.88970495E+00  -7.52786436E+00  -8.02678436E+00  -1.02603274E+01  -8.80923427E+00  -6.99334079E+00  -6.32434039E+00  -1.18153311E+01  -6.14862246E+00  -1.47682334E+01  -5.70140119E+00  -8.96235982E+00  -1.31400749E+01  -1.31403325E+01  -1.79105731E+01  -9.26006517E+00  -1.78100295E+01  -1.78103286E+01  -2.55773212E+01  -2.99490474E+01
   2.97500000E+02   5.00000000E-01   5.00000000E-01  -6.95164868E+00  -1.66634696E+01  -3.31900005E+00  -1.36575264E+00  -1.82336536E+00  -2.97945482E+00  -1.18765927E+01  -6.71659123E+00  -5.11247661E+00  -2.60847393E-01  -4.16576097E+00  -1.95156794E+00  -9.86214317E+00  -3.33158471E-01  -1.80112978E+00  -7.74344405E+00  -3.39620990E+00  -6.06263478E+00  -4.40720527E+00  -2.28776180E+00  -1.30085158E+01  -1.39099599E+01  -1.19864791E+01  -1.49384138E+01  -8.71616305E+00  -8.16729740E+00  -1.05956109E+01  -1.35603956E+01  -2.37385073E+00  -5.07156554E+00  -3.01296474E+00  -4.08769201E+00  -7.89391031E+00  -2.77324051E+00  -4.01918059E+00  -6.32228908E+00  -5.79901100E+00  -3.79341073E+00  -6.68841967E+00  -1.35449712E+02  -1.02082501E+01  -6.51378233E+00  -1.16490549E+01  -1.28852844E+01  -7.43114367E+00  -3.18456723E+00  -9.54645105E+00  -3.66885970E+00  -5.79467881E+01  -1.34903853E+01  -8.20408572E+00  -1.98959992E+00  -4.19277933E+01  -6.48979386E+00  -7.90556122E+00  -4.27989438E+00  -7.40810764E+00  -6.90089664E+00  -7.62227532E+00  -8.00237079E+00  -1.03365565E+01  -8.83943434E+00  -6.95839830E+00  -6.31471233E+00  -1.17590646E+01  -6.14170377E+00  -1.45581394E+01  -5.68255376E+00  -8.96394425E+00  -1.31367087E+01  -1.31369679E+01  -1.79083556E+01  -9.23869554E+00  -1.78088091E+01  -1.78091071E+01  -2.55285332E+01  -2.96811920E+01
   3.32500000E+02   5.00000000E-01   5.00000000E-01  -6.87485819E+00  -1.65769475E+01  -3.26227353E+00  -1.37234201E+00  -1.80371499E+00  -2.96769262E+00  -1.18720159E+01  -6.71719339E+00  -5.11381038E+00  -2.60527828E-01  -4.16536581E+00  -1.95162247E+00  -9.85094011E+00  -3.33083866E-01  -1.79989155E+00  -7.74309902E+00  -3.39581475E+00  -6.08438282E+00  -4.40681012E+00  -2.26042035E+00  -1.29024081E+01  -1.37895789E+01  -1.19018419E+01  -1.48445660E+01  -8.68902728E+00  -8.14692350E+00  -1.06280389E+01  -1.34908107E+01  -2.37963985E+00  -5.12802125E+00  -2.98179038E+00  -4.07847833E+00  -7.82107950E+00  -2.74935831E+00  -3.97132953E+00  -6.29418178E+00  -5.77136718E+00  -3.77028670E+00  -6.67046352E+00  -1.33832278E+02  -1.01574799E+01  -6.46639556E+00  -1.15101722E+01  -1.27852643E+01  -7.31592742E+00  -3.17777734E+00  -9.51105948E+00  -3.66468879E+00  -5.72078615E+01  -1.33896136E+01  -8.18960633E+00  -1.99496387E+00  -4.14565181E+01  -6.47176296E+00  -7.92725715E+00  -4.32875406E+00  -7.35160065E+00  -6.92162067E+00  -7.71865221E+00  -7.97773794E+00  -1.04070501E+01  -8.86412183E+00  -6.92333412E+00  -6.30434613E+00  -1.16985784E+01  -6.13512450E+00  -1.43916725E+01  -5.66808128E+00  -8.96478730E+00  -1.31321725E+01  -1.31324364E+01  -1.79046815E+01  -9.22567851E+00  -1.78061101E+01  -1.78064095E+01  -2.54772470E+01  -2.94432032E+01
   3.67500000E+02   5.00000000E-01   5.00000000E-01  -6.80142039E+00  -1.65024277E+01  -3.20778596E+00  -1.37898226E+00  -1.78507177E+00  -2.96135153E+00  -1.18629927E+01  -6.71782893E+00  -5.11517952E+00  -2.60179857E-01  -4.16493749E+00  -1.95168913E+00  -9.84120500E+00  -3.32972112E-01  -1.79910136E+00  -7.74272092E+00  -3.39538643E+00  -6.10721468E+00  -4.40638180E+00  -2.23556077E+00  -1.27995081E+01  -1.36776660E+01  -1.18221930E+01  -1.47604781E+01  -8.66226085E+00  -8.12609335E+00  -1.06592402E+01  -1.34214056E+01  -2.38616021E+00  -5.18346409E+00  -2.95081571E+00  -4.06818016E+00  -7.74868476E+00  -2.72634008E+00  -3.92851410E+00  -6.26996747E+00  -5.74758706E+00  -3.75244162E+00  -6.65197852E+00  -1.32247077E+02  -1.01095129E+01  -6.42240200E+00  -1.13777037E+01  -1.26914232E+01  -7.20398874E+00  -3.17041355E+00  -9.47492932E+00  -3.66018182E+00  -5.64826465E+01  -1.32933233E+01  -8.17331253E+00  -1.99960098E+00  -4.09933862E+01  -6.45514446E+00  -7.94759201E+00  -4.38093835E+00  -7.30404217E+00  -6.94795454E+00  -7.81719888E+00  -7.95403136E+00  -1.04768790E+01  -8.88777090E+00  -6.88861249E+00  -6.29330496E+00  -1.16378837E+01  -6.12893889E+00  -1.42407309E+01  -5.65707573E+00  -8.96802413E+00  -1.31311772E+01  -1.31314496E+01  -1.79058220E+01  -9.21921417E+00  -1.78082036E+01  -1.78085076E+01  -2.54329261E+01  -2.92164453E+01
   4.02500000E+02   5.00000000E-01   5.00000000E-01  -6.73029880E+00  -1.64332885E+01  -3.15478832E+00  -1.38579373E+00  -1.76734879E+00  -2.95779934E+00  -1.18531954E+01  -6.71849853E+00  -5.11657730E+00  -2.59805459E-01  -4.16447740E+00  -1.95176649E+00  -9.83311012E+00  -3.32817246E-01  -1.79872583E+00  -7.74231113E+00  -3.39492633E+00  -6.13149931E+00  -4.40592170E+00  -2.21207991E+00  -1.26988258E+01  -1.35695907E+01  -1.17448467E+01  -1.46805435E+01  -8.63611038E+00  -8.10486507E+00  -1.06904078E+01  -1.33531049E+01  -2.39359091E+00  -5.23901348E+00  -2.92002285E+00  -4.05686114E+00  -7.67759256E+00  -2.70416354E+00  -3.88816384E+00  -6.24714981E+00  -5.72603096E+00  -3.73731168E+00  -6.63387305E+00  -1.30691405E+02  -1.00635993E+01  -6.38120849E+00  -1.12500686E+01  -1.26001362E+01  -7.09433145E+00  -3.16254186E+00  -9.43902123E+00  -3.65538128E+00  -5.57698872E+01  -1.31988878E+01  -8.15621834E+00  -2.00356714E+00  -4.05381903E+01  -6.44031911E+00  -7.96797646E+00  -4.43505046E+00  -7.26219933E+00  -6.97770009E+00  -7.91675927E+00  -7.93170844E+00  -1.05473564E+01  -8.91156444E+00  -6.85448101E+00  -6.28164982E+00  -1.15779173E+01  -6.12319045E+00  -1.40983976E+01  -5.64829192E+00  -8.97337162E+00  -1.31333032E+01  -1.31335884E+01  -1.79112121E+01  -9.21682594E+00  -1.78145244E+01  -1.78148368E+01  -2.53947572E+01  -2.89959549E+01
   4.37500000E+02   5.00000000E-01   5.00000000E-01  -6.66113625E+00  -1.63675133E+01  -3.10314205E+00  -1.39283665E+00  -1.75046782E+00  -2.95580527E+00  -1.18439487E+01  -6.71920306E+00  -5.11799803E+00  -2.59406307E-01  -4.16398676E+00  -1.95185339E+00  -9.82665135E+00  -3.32617729E-01  -1.79872869E+00  -7.74187089E+00  -3.39443569E+00  -6.15733459E+00  -4.40543106E+00  -2.18952051E+00  -1.26000457E+01  -1.34639718E+01  -1.16690158E+01  -1.46030816E+01  -8.61075512E+00  -8.08329153E+00  -1.07219937E+01  -1.32861589E+01  -2.40205007E+00  -5.29505561E+00  -2.88939643E+00  -4.04458094E+00  -7.60800218E+00  -2.68280256E+00  -3.84910359E+00  -6.22462162E+00  -5.70578280E+00  -3.72372158E+00  -6.61638488E+00  -1.29163926E+02  -1.00194838E+01  -6.34262429E+00  -1.11267627E+01  -1.25103503E+01  -6.98662930E+00  -3.15422242E+00  -9.40362005E+00  -3.65032052E+00  -5.50690119E+01  -1.31055771E+01  -8.13866148E+00  -2.00691220E+00  -4.00907304E+01  -6.42739576E+00  -7.98886892E+00  -4.49035106E+00  -7.22464408E+00  -7.00978544E+00  -8.01662345E+00  -7.91094557E+00  -1.06188510E+01  -8.93594522E+00  -6.82112009E+00  -6.26943671E+00  -1.15189421E+01  -6.11791185E+00  -1.39623400E+01  -5.64109938E+00  -8.98048439E+00  -1.31380362E+01  -1.31383389E+01  -1.79201623E+01  -9.21726541E+00  -1.78243830E+01  -1.78247083E+01  -2.53617302E+01  -2.87801051E+01
   4.72500000E+02   5.00000000E-01   5.00000000E-01  -6.59376273E+00  -1.63042504E+01  -3.05286936E+00  -1.40014363E+00  -1.73435927E+00  -2.95479684E+00  -1.18358683E+01  -6.71994322E+00  -5.11943632E+00  -2.58983864E-01  -4.16346664E+00  -1.95194883E+00  -9.82178101E+00  -3.32373790E-01  -1.79907458E+00  -7.74140127E+00  -3.39391557E+00  -6.18470720E+00  -4.40491095E+00  -2.16768666E+00  -1.25030345E+01  -1.33602210E+01  -1.15943386E+01  -1.45273898E+01  -8.58634879E+00  -8.06141996E+00  -1.07542423E+01  -1.32206352E+01  -2.41163693E+00  -5.35177752E+00  -2.85892378E+00  -4.03139555E+00  -7.53993741E+00  -2.66223051E+00  -3.81081059E+00  -6.20192211E+00  -5.68639875E+00  -3.71114487E+00  -6.59957273E+00  -1.27663690E+02  -9.97704687E+00  -6.30652877E+00  -1.10075343E+01  -1.24216193E+01  -6.88073755E+00  -3.14550956E+00  -9.36882626E+00  -3.64502733E+00  -5.43796393E+01  -1.30130823E+01  -8.12079264E+00  -2.00968104E+00  -3.96508128E+01  -6.41637083E+00  -8.01042767E+00  -4.54654912E+00  -7.19067745E+00  -7.04368099E+00  -8.11643614E+00  -7.89179820E+00  -1.06914394E+01  -8.96114877E+00  -6.78868448E+00  -6.25671595E+00  -1.14610372E+01  -6.11312735E+00  -1.38314769E+01  -5.63520588E+00  -8.98917075E+00  -1.31450915E+01  -1.31454168E+01  -1.79322903E+01  -9.21995977E+00  -1.78373970E+01  -1.78377401E+01  -2.53332907E+01  -2.85682550E+01
   5.07500000E+02   5.00000000E-01   5.00000000E-01  -6.52807635E+00  -1.62430632E+01  -3.00404601E+00  -1.40773485E+00  -1.71896122E+00  -2.95450202E+00  -1.18292943E+01  -6.72071945E+00  -5.12088676E+00  -2.58539448E-01  -4.16291802E+00  -1.95205197E+00  -9.81843891E+00  -3.32086399E-01  -1.79973061E+00  -7.74090323E+00  -3.39336695E+00  -6.21355346E+00  -4.40436232E+00  -2.14648375E+00  -1.24077225E+01  -1.32580312E+01  -1.15206055E+01  -1.44531127E+01  -8.56303128E+00  -8.03929213E+00  -1.07873209E+01  -1.31565369E+01  -2.42244322E+00  -5.40929724E+00  -2.82859430E+00  -4.01735707E+00  -7.47336436E+00  -2.64242130E+00  -3.77305697E+00  -6.17887971E+00  -5.66766826E+00  -3.69934807E+00  -6.58343475E+00  -1.26189901E+02  -9.93621733E+00  -6.27281351E+00  -1.08922075E+01  -1.23337116E+01  -6.77657593E+00  -3.13645207E+00  -9.33467475E+00  -3.63952581E+00  -5.37014599E+01  -1.29212414E+01  -8.10269364E+00  -2.01191452E+00  -3.92182497E+01  -6.40718863E+00  -8.03269034E+00  -4.60357461E+00  -7.15991350E+00  -7.07910223E+00  -8.21601869E+00  -7.87426229E+00  -1.07650858E+01  -8.98733351E+00  -6.75731478E+00  -6.24353225E+00  -1.14042168E+01  -6.10885451E+00  -1.37051871E+01  -5.63045663E+00  -8.99931092E+00  -1.31542920E+01  -1.31546455E+01  -1.79473574E+01  -9.22461032E+00  -1.78533279E+01  -1.78536942E+01  -2.53090967E+01  -2.83601152E+01
   5.42500000E+02   5.00000000E-01   5.00000000E-01  -6.46400603E+00  -1.61837091E+01  -2.95676709E+00  -1.41562477E+00  -1.70421865E+00  -2.95478892E+00  -1.18244382E+01  -6.72153191E+00  -5.12234387E+00  -2.58074266E-01  -4.16234173E+00  -1.95216208E+00  -9.81656091E+00  -3.31756837E-01  -1.80066686E+00  -7.74037762E+00  -3.39279066E+00  -6.24378399E+00  -4.40378604E+00  -2.12585684E+00  -1.23140664E+01  -1.31572294E+01  -1.14476853E+01  -1.43800581E+01  -8.54093168E+00  -8.01694484E+00  -1.08213591E+01  -1.30938397E+01  -2.43455574E+00  -5.46770308E+00  -2.79839913E+00  -4.00251377E+00  -7.40822773E+00  -2.62334973E+00  -3.73574989E+00  -6.15545267E+00  -5.64949097E+00  -3.68823163E+00  -6.56794526E+00  -1.24741840E+02  -9.89694393E+00  -6.24137007E+00  -1.07806330E+01  -1.22464997E+01  -6.67409228E+00  -3.12709364E+00  -9.30117189E+00  -3.63383723E+00  -5.30341985E+01  -1.28299656E+01  -8.08441438E+00  -2.01365003E+00  -3.87928592E+01  -6.39976583E+00  -8.05563576E+00  -4.66145827E+00  -7.13210677E+00  -7.11587440E+00  -8.31527112E+00  -7.85829970E+00  -1.08397038E+01  -9.01462053E+00  -6.72714039E+00  -6.22992499E+00  -1.13484669E+01  -6.10510519E+00  -1.35830627E+01  -5.62674803E+00  -9.01080795E+00  -1.31654946E+01  -1.31658819E+01  -1.79651706E+01  -9.23102008E+00  -1.78719829E+01  -1.78723778E+01  -2.52888724E+01  -2.81555397E+01
   5.77500000E+02   5.00000000E-01   5.00000000E-01  -6.40149695E+00  -1.61260493E+01  -2.91113244E+00  -1.42382509E+00  -1.69008273E+00  -2.95559363E+00  -1.18214420E+01  -6.72238057E+00  -5.12380205E+00  -2.57589442E-01  -4.16173854E+00  -1.95227856E+00  -9.81608163E+00  -3.31386498E-01  -1.80185634E+00  -7.73982519E+00  -3.39218747E+00  -6.27529497E+00  -4.40318285E+00  -2.10576764E+00  -1.22220354E+01  -1.30577158E+01  -1.13754934E+01  -1.43081217E+01  -8.52016830E+00  -7.99441036E+00  -1.08564638E+01  -1.30325066E+01  -2.44805591E+00  -5.52706741E+00  -2.76833090E+00  -3.98691035E+00  -7.34446469E+00  -2.60499161E+00  -3.69885987E+00  -6.13165778E+00  -5.63181919E+00  -3.67775846E+00  -6.55306882E+00  -1.23318839E+02  -9.85918408E+00  -6.21208698E+00  -1.06726709E+01  -1.21599140E+01  -6.57324835E+00  -3.11747323E+00  -9.26831004E+00  -3.62798050E+00  -5.23775992E+01  -1.27392082E+01  -8.06598741E+00  -2.01492181E+00  -3.83744646E+01  -6.39400282E+00  -8.07921002E+00  -4.72027401E+00  -7.10707713E+00  -7.15387191E+00  -8.41412612E+00  -7.84385013E+00  -1.09151813E+01  -9.04310800E+00  -6.69827959E+00  -6.21592869E+00  -1.12937599E+01  -6.10188630E+00  -1.34648105E+01  -5.62399629E+00  -9.02357095E+00  -1.31785649E+01  -1.31789917E+01  -1.79855486E+01  -9.23903117E+00  -1.78931809E+01  -1.78936103E+01  -2.52723579E+01  -2.79544455E+01
   6.12500000E+02   5.00000000E-01   5.00000000E-01  -6.34050363E+00  -1.60700034E+01  -2.86723872E+00  -1.43234613E+00  -1.67651029E+00  -2.95688649E+00  -1.18204065E+01  -6.72326531E+00  -5.12525562E+00  -2.57086030E-01  -4.16110911E+00  -1.95240090E+00  -9.81693542E+00  -3.30976797E-01  -1.80327484E+00  -7.73924661E+00  -3.39155804E+00  -6.30797411E+00  -4.40255342E+00  -2.08618619E+00  -1.21316045E+01  -1.29594325E+01  -1.13039738E+01  -1.42372485E+01  -8.50084777E+00  -7.97171687E+00  -1.08927243E+01  -1.29724945E+01  -2.46301819E+00  -5.58745146E+00  -2.73838358E+00  -3.97058815E+00  -7.28201106E+00  -2.58732371E+00  -3.66238744E+00  -6.10753744E+00  -5.61463100E+00  -3.66792082E+00  -6.53876668E+00  -1.21920263E+02  -9.82289837E+00  -6.18484930E+00  -1.05681837E+01  -1.20739182E+01  -6.47401324E+00  -3.10762553E+00  -9.23607430E+00  -3.62197245E+00  -5.17314194E+01  -1.26489464E+01  -8.04743494E+00  -2.01576115E+00  -3.79628948E+01  -6.38978983E+00  -8.10333945E+00  -4.78011080E+00  -7.08467555E+00  -7.19299097E+00  -8.51252862E+00  -7.83083783E+00  -1.09913938E+01  -9.07287668E+00  -6.67083849E+00  -6.20157346E+00  -1.12400614E+01  -6.09920033E+00  -1.33502040E+01  -5.62212744E+00  -9.03751177E+00  -1.31933723E+01  -1.31938446E+01  -1.80083154E+01  -9.24850477E+00  -1.79167463E+01  -1.79172160E+01  -2.52592995E+01  -2.77567785E+01
   6.47500000E+02   5.00000000E-01   5.00000000E-01  -6.28098632E+00  -1.60155240E+01  -2.82517423E+00  -1.44119739E+00  -1.66346324E+00  -2.95865561E+00  -1.18214064E+01  -6.72418605E+00  -5.12669899E+00  -2.56565030E-01  -4.16045404E+00  -1.95252868E+00  -9.81905668E+00  -3.30529125E-01  -1.80490070E+00  -7.73864248E+00  -3.39090297E+00  -6.34170457E+00  -4.40189835E+00  -2.06708767E+00  -1.20427510E+01  -1.28623448E+01  -1.12330872E+01  -1.41674109E+01  -8.48306356E+00  -7.94888903E+00  -1.09302147E+01  -1.29137579E+01  -2.47950819E+00  -5.64890665E+00  -2.70855230E+00  -3.95358537E+00  -7.22080426E+00  -2.57032365E+00  -3.62634702E+00  -6.08314393E+00  -5.59791734E+00  -3.65872427E+00  -6.52499989E+00  -1.20545508E+02  -9.78804777E+00  -6.15953927E+00  -1.04670338E+01  -1.19884946E+01  -6.37635993E+00  -3.09758131E+00  -9.20444606E+00  -3.61582798E+00  -5.10954255E+01  -1.25591698E+01  -8.02877247E+00  -2.01619664E+00  -3.75579835E+01  -6.38701094E+00  -8.12793829E+00  -4.84105814E+00  -7.06476823E+00  -7.23313733E+00  -8.61042707E+00  -7.81917609E+00  -1.10682107E+01  -9.10399195E+00  -6.64490963E+00  -6.18688548E+00  -1.11873339E+01  -6.09704596E+00  -1.32390583E+01  -5.62107447E+00  -9.05254563E+00  -1.32097913E+01  -1.32103149E+01  -1.80333019E+01  -9.25931547E+00  -1.79425101E+01  -1.79430262E+01  -2.52494519E+01  -2.75624976E+01
   6.82500000E+02   5.00000000E-01   5.00000000E-01  -6.22290908E+00  -1.59625823E+01  -2.78501531E+00  -1.45038793E+00  -1.65090807E+00  -2.96089833E+00  -1.18244983E+01  -6.72514284E+00  -5.12812672E+00  -2.56027398E-01  -4.15977385E+00  -1.95266156E+00  -9.82238009E+00  -3.30044818E-01  -1.80671451E+00  -7.73801333E+00  -3.39022279E+00  -6.37636779E+00  -4.40121817E+00  -2.04845108E+00  -1.19554534E+01  -1.27664306E+01  -1.11628043E+01  -1.40985963E+01  -8.46689446E+00  -7.92594842E+00  -1.09689938E+01  -1.28562508E+01  -2.49758054E+00  -5.71147405E+00  -2.67883316E+00  -3.93593730E+00  -7.16078470E+00  -2.55396981E+00  -3.59075880E+00  -6.05853157E+00  -5.58167550E+00  -3.65017960E+00  -6.51173092E+00  -1.19193988E+02  -9.75459225E+00  -6.13603750E+00  -1.03690827E+01  -1.19036350E+01  -6.28026349E+00  -3.08736776E+00  -9.17340487E+00  -3.60956022E+00  -5.04693912E+01  -1.24698744E+01  -8.01001094E+00  -2.01625427E+00  -3.71595696E+01  -6.38554706E+00  -8.15291368E+00  -4.90319779E+00  -7.04722931E+00  -7.27422097E+00  -8.70777019E+00  -7.80877078E+00  -1.11455002E+01  -9.13650401E+00  -6.62057056E+00  -6.17188752E+00  -1.11355387E+01  -6.09541859E+00  -1.31312153E+01  -5.62077656E+00  -9.06859225E+00  -1.32277025E+01  -1.32282833E+01  -1.80603473E+01  -9.27134977E+00  -1.79703122E+01  -1.79708806E+01  -2.52425812E+01  -2.73715665E+01