 TITLE = "Total Concentrations" 
VARIABLES = "X"          "Y"              "Z"            "H+"             "Al+++"          "CO2(aq)"        "Mg++"           "Ca++"           "Fe++"           "Fe+++"          "Ba++"           "Sr++"           "Cl-"            "F-"             "K+"             "HS-"            "Na+"            "SO4--"          "O2(aq)"         "B(OH)3(aq)"     "HPO4--"         "NO3-"           "H4SiO4(aq)"     "HNO3(aq)"       "Al(OH)2+"       "AlO2-"          "AlOH++"         "BaHCO3+"        "BaCl+"          "BaCO3(aq)"      "BaOH+"          "HCO3-"          "CO3--"          "CaCl+"          "CaCl2(aq)"      "CaOH+"          "CaSO4(aq)"      "FeCl+"          "FeCl2(aq)"      "FeOH+"          "FeSO4(aq)"      "OH-"            "S2O3--"         "H2S(aq)"        "H2PO4-"         "H3PO4(aq)"      "HAlO2(aq)"      "HSO4-"          "KCl(aq)"        "KOH(aq)"        "KSO4-"          "NH3(aq)"        "NaAlO2(aq)"     "NaOH(aq)"       "NaSO4-"         "H2(aq)"         "CaHPO4(aq)"     "CaPO4-"         "FeCO3(aq)"      "FeH2PO4+"       "FeHPO4(aq)"     "FePO4-"         "KHPO4-"         "PO4---"         "Sr(CO3)(aq)"    "SrHCO3+"        "SrCl+"          "SrOH+"          "SrSO4(aq)"      "AlH3SiO4++"     "Si2O2(OH)5-"    "Si2O3(OH)4--"   "Si3O5(OH)5---"  "Si3O6(OH)3---"  "Si4O12H4----"   "Si4O6(OH)6--"   "Si4O7(OH)6----" "Si4O8(OH)4----" "Si6O15------"   "SiF6--"        
 ZONE I=         100 , J=           1 , K=           1  F=POINT
   1.75000000E+01   5.00000000E-01   5.00000000E-01  -7.54829331E+00  -1.54777270E+01  -3.69843855E+00  -1.30473660E+00  -2.03785648E+00  -3.11902240E+00  -1.21080322E+01  -6.71255750E+00  -5.10348828E+00  -2.62137192E-01  -4.16748106E+00  -1.95177908E+00  -1.00397084E+01  -3.35183910E-01  -1.83561305E+00  -7.74479720E+00  -3.39792999E+00  -5.96378236E+00  -4.40892536E+00  -3.38598445E+00  -1.38265165E+01  -1.31551144E+01  -1.11156058E+01  -1.38714733E+01  -8.93480041E+00  -8.30399091E+00  -1.04315000E+01  -1.42766147E+01  -2.35362127E+00  -4.73631034E+00  -3.27957409E+00  -4.11972975E+00  -8.66268216E+00  -3.00814459E+00  -4.42344612E+00  -6.51584349E+00  -6.15347960E+00  -4.00987180E+00  -6.97029234E+00  -1.49360639E+02  -1.05948333E+01  -6.90109192E+00  -1.27305991E+01  -1.20276465E+01  -8.32902771E+00  -3.20757484E+00  -9.95139256E+00  -3.68632755E+00  -6.42405086E+01  -1.27223654E+01  -8.39677506E+00  -1.91672014E+00  -4.60182730E+01  -6.72530762E+00  -7.86237675E+00  -3.99265073E+00  -7.91971083E+00  -6.81308896E+00  -6.94299870E+00  -8.25359480E+00  -9.93726718E+00  -8.74510472E+00  -7.23904642E+00  -6.36285400E+00  -1.23865056E+01  -6.20249337E+00  -1.50998730E+01  -7.65209824E+00  -1.09207592E+01  -1.61158201E+01  -1.61160645E+01  -2.18656006E+01  -1.30346923E+01  -2.17575152E+01  -2.17577872E+01  -3.18164637E+01  -3.21810508E+01
   5.25000000E+01   5.00000000E-01   5.00000000E-01  -7.41930662E+00  -1.51519975E+01  -3.61263755E+00  -1.31688954E+00  -2.02380240E+00  -2.82790131E+00  -1.22095051E+01  -6.71295679E+00  -5.10429477E+00  -2.62130221E-01  -4.16743256E+00  -1.95165793E+00  -9.99785489E+00  -3.34587813E-01  -1.82874458E+00  -7.74482863E+00  -3.39788149E+00  -6.02099870E+00  -4.40887686E+00  -3.29720267E+00  -1.36719027E+01  -1.28713021E+01  -1.09403640E+01  -1.35809577E+01  -8.91736840E+00  -8.29031731E+00  -1.05077357E+01  -1.42263424E+01  -2.36264511E+00  -4.83072016E+00  -3.26393041E+00  -4.14029467E+00  -8.62197930E+00  -2.99422673E+00  -4.10253487E+00  -6.22747277E+00  -5.88260013E+00  -3.71193869E+00  -6.97602252E+00  -1.47408808E+02  -1.04827469E+01  -6.84898012E+00  -1.25400238E+01  -1.18065759E+01  -8.16392323E+00  -3.20872089E+00  -9.94415615E+00  -3.68662931E+00  -6.33581822E+01  -1.25376245E+01  -8.42109568E+00  -1.92974184E+00  -4.54734982E+01  -6.75902846E+00  -7.98326254E+00  -3.81482027E+00  -7.57769032E+00  -6.60026546E+00  -6.85899937E+00  -8.27055612E+00  -1.00782274E+01  -8.81171416E+00  -7.21399540E+00  -6.36107763E+00  -1.23490116E+01  -6.19516333E+00  -1.46396717E+01  -7.54898061E+00  -1.08638615E+01  -1.60253579E+01  -1.60256141E+01  -2.17462920E+01  -1.28480712E+01  -2.16393378E+01  -2.16396284E+01  -3.15957671E+01  -3.17244740E+01
   8.75000000E+01   5.00000000E-01   5.00000000E-01  -7.31982211E+00  -1.49885286E+01  -3.55058322E+00  -1.32825323E+00  -2.01032472E+00  -2.67148161E+00  -1.22265908E+01  -6.71338141E+00  -5.10519758E+00  -2.62073792E-01  -4.16732927E+00  -1.95156939E+00  -9.95773488E+00  -3.34003128E-01  -1.82296756E+00  -7.74480544E+00  -3.39777820E+00  -6.06096886E+00  -4.40877357E+00  -3.24974155E+00  -1.35459903E+01  -1.26946455E+01  -1.08178822E+01  -1.34244762E+01  -8.89601853E+00  -8.27540941E+00  -1.05532649E+01  -1.41511737E+01  -2.36902198E+00  -4.89573584E+00  -3.24717456E+00  -4.15746550E+00  -8.55591540E+00  -2.98000567E+00  -3.91511558E+00  -6.07052906E+00  -5.71909411E+00  -3.54778101E+00  -6.95651320E+00  -1.45547664E+02  -1.03985504E+01  -6.80715808E+00  -1.23882485E+01  -1.16645176E+01  -8.02793432E+00  -3.20843948E+00  -9.91074694E+00  -3.68626075E+00  -6.25175496E+01  -1.24043153E+01  -8.41751596E+00  -1.94153997E+00  -4.49387815E+01  -6.77402662E+00  -8.05653003E+00  -3.73965208E+00  -7.38086973E+00  -6.50317250E+00  -6.86108388E+00  -8.26884907E+00  -1.01751416E+01  -8.84788789E+00  -7.18496973E+00  -6.35781052E+00  -1.22860917E+01  -6.18768172E+00  -1.43603702E+01  -7.50160426E+00  -1.08362074E+01  -1.59786580E+01  -1.59789199E+01  -2.16854770E+01  -1.27724083E+01  -2.15796381E+01  -2.15799393E+01  -3.14621945E+01  -3.14190014E+01
   1.22500000E+02   5.00000000E-01   5.00000000E-01  -7.22638068E+00  -1.48517757E+01  -3.49038835E+00  -1.33877820E+00  -1.99738195E+00  -2.57106630E+00  -1.22292847E+01  -6.71382468E+00  -5.10618184E+00  -2.61971402E-01  -4.16717548E+00  -1.95151014E+00  -9.92296302E+00  -3.33423764E-01  -1.81811483E+00  -7.74473189E+00  -3.39762441E+00  -6.09147450E+00  -4.40861978E+00  -3.20917179E+00  -1.34254359E+01  -1.25364180E+01  -1.07061371E+01  -1.32899234E+01  -8.87226727E+00  -8.25939312E+00  -1.05929149E+01  -1.40744046E+01  -2.37411920E+00  -4.95599657E+00  -3.22941400E+00  -4.17151484E+00  -8.48779614E+00  -2.96551408E+00  -3.78263337E+00  -5.96661139E+00  -5.60767274E+00  -3.43878396E+00  -6.93499446E+00  -1.43729309E+02  -1.03226140E+01  -6.76010167E+00  -1.22364047E+01  -1.15361604E+01  -7.89759679E+00  -3.20687573E+00  -9.87452157E+00  -3.68522001E+00  -6.16949149E+01  -1.22805581E+01  -8.40950105E+00  -1.95213931E+00  -4.44138543E+01  -6.77828152E+00  -8.11361883E+00  -3.71335706E+00  -7.23501570E+00  -6.45103156E+00  -6.90194246E+00  -8.25648003E+00  -1.02590729E+01  -8.87844420E+00  -7.15349384E+00  -6.35318657E+00  -1.22210656E+01  -6.18008956E+00  -1.41150812E+01  -7.46446243E+00  -1.08156453E+01  -1.59425037E+01  -1.59427670E+01  -2.16388559E+01  -1.27167129E+01  -2.15341150E+01  -2.15344207E+01  -3.13493678E+01  -3.11369711E+01
   1.57500000E+02   5.00000000E-01   5.00000000E-01  -7.13601296E+00  -1.47247851E+01  -3.43001570E+00  -1.34848071E+00  -1.98493561E+00  -2.50138842E+00  -1.22263955E+01  -6.71428673E+00  -5.10723875E+00  -2.61826386E-01  -4.16697485E+00  -1.95147697E+00  -9.89323025E+00  -3.32847652E-01  -1.81405890E+00  -7.74461168E+00  -3.39742378E+00  -6.11690034E+00  -4.40841915E+00  -3.17118036E+00  -1.33073754E+01  -1.23855091E+01  -1.05997554E+01  -1.31632954E+01  -8.84699956E+00  -8.24239066E+00  -1.06304020E+01  -1.39988560E+01  -2.37867889E+00  -5.01503992E+00  -3.21074761E+00  -4.18269482E+00  -8.42044585E+00  -2.95080789E+00  -3.67995166E+00  -5.89072572E+00  -5.52598947E+00  -3.35978230E+00  -6.91422268E+00  -1.41946919E+02  -1.02518589E+01  -6.70936844E+00  -1.20831853E+01  -1.14133227E+01  -7.76996306E+00  -3.20416345E+00  -9.83835218E+00  -3.68353235E+00  -6.08870762E+01  -1.21611153E+01  -8.40002655E+00  -1.96159374E+00  -4.38984585E+01  -6.77635970E+00  -8.16206330E+00  -3.71445331E+00  -7.11640869E+00  -6.42308996E+00  -6.96379960E+00  -8.23803777E+00  -1.03372088E+01  -8.90708957E+00  -7.12045866E+00  -6.34733434E+00  -1.21567755E+01  -6.17245512E+00  -1.38851571E+01  -7.43179373E+00  -1.07992826E+01  -1.59125629E+01  -1.59128251E+01  -2.16006465E+01  -1.26694825E+01  -2.14969851E+01  -2.14972913E+01  -3.12486629E+01  -3.08627420E+01
   1.92500000E+02   5.00000000E-01   5.00000000E-01  -7.04841268E+00  -1.46059271E+01  -3.36986226E+00  -1.35744213E+00  -1.97295061E+00  -2.45080772E+00  -1.22190710E+01  -6.71476867E+00  -5.10836012E+00  -2.61641885E-01  -4.16673054E+00  -1.95146691E+00  -9.86784747E+00  -3.32272236E-01  -1.81070202E+00  -7.74444796E+00  -3.39717947E+00  -6.13992027E+00  -4.40817484E+00  -3.13532675E+00  -1.31915971E+01  -1.22408074E+01  -1.04980503E+01  -1.30432483E+01  -8.82087325E+00  -8.22451351E+00  -1.06665609E+01  -1.39246927E+01  -2.38322892E+00  -5.07354010E+00  -3.19126527E+00  -4.19123566E+00  -8.35403295E+00  -2.93595344E+00  -3.59554807E+00  -5.83147990E+00  -5.46266196E+00  -3.29924391E+00  -6.89430628E+00  -1.40199061E+02  -1.01854739E+01  -6.65745599E+00  -1.19308762E+01  -1.12951611E+01  -7.64476463E+00  -3.20042416E+00  -9.80245128E+00  -3.68123873E+00  -6.00934954E+01  -1.20454217E+01  -8.38939967E+00  -1.96997047E+00  -4.33923440E+01  -6.77109803E+00  -8.20500400E+00  -3.73219826E+00  -7.01589632E+00  -6.41049930E+00  -7.03812055E+00  -8.21637892E+00  -1.04123759E+01  -8.93464795E+00  -7.08652647E+00  -6.34037041E+00  -1.20934054E+01  -6.16485481E+00  -1.36685048E+01  -7.40292350E+00  -1.07866542E+01  -1.58881452E+01  -1.58884053E+01  -2.15699224E+01  -1.26293868E+01  -2.14673208E+01  -2.14676251E+01  -3.11587360E+01  -3.05951494E+01
   2.27500000E+02   5.00000000E-01   5.00000000E-01  -6.96346775E+00  -1.44946446E+01  -3.31036462E+00  -1.36577599E+00  -1.96139512E+00  -2.41294125E+00  -1.22080393E+01  -6.71527185E+00  -5.10953799E+00  -2.61420810E-01  -4.16644526E+00  -1.95147732E+00  -9.84625235E+00  -3.31694475E-01  -1.80796639E+00  -7.74424344E+00  -3.39689419E+00  -6.16220738E+00  -4.40788956E+00  -3.10143124E+00  -1.30780737E+01  -1.21018886E+01  -1.04006450E+01  -1.29293165E+01  -8.79439261E+00  -8.20586255E+00  -1.07018863E+01  -1.38518911E+01  -2.38815609E+00  -5.13184894E+00  -3.17104875E+00  -4.19734755E+00  -8.28853863E+00  -2.92101963E+00  -3.52314607E+00  -5.78271624E+00  -5.41137175E+00  -3.25089261E+00  -6.87517350E+00  -1.38484743E+02  -1.01229549E+01  -6.60604398E+00  -1.17811302E+01  -1.11813258E+01  -7.52193455E+00  -3.19576807E+00  -9.76684058E+00  -3.67838728E+00  -5.93138306E+01  -1.19332096E+01  -8.37772869E+00  -1.97734151E+00  -4.28952687E+01  -6.76431549E+00  -8.24436848E+00  -3.76076232E+00  -6.92876606E+00  -6.40865705E+00  -7.12042188E+00  -8.19333988E+00  -1.04862183E+01  -8.96160308E+00  -7.05220492E+00  -6.33239995E+00  -1.20309492E+01  -6.15736494E+00  -1.34641901E+01  -7.37750910E+00  -1.07774375E+01  -1.58687728E+01  -1.58690309E+01  -2.15460404E+01  -1.25957587E+01  -2.14444784E+01  -2.14447799E+01  -3.10786656E+01  -3.03340215E+01
   2.62500000E+02   5.00000000E-01   5.00000000E-01  -6.88102729E+00  -1.43901395E+01  -3.25181094E+00  -1.37360307E+00  -1.95024046E+00  -2.38392520E+00  -1.21941819E+01  -6.71579761E+00  -5.11076464E+00  -2.61165827E-01  -4.16612139E+00  -1.95150587E+00  -9.82802145E+00  -3.31111310E-01  -1.80578755E+00  -7.74400050E+00  -3.39657032E+00  -6.18482629E+00  -4.40756569E+00  -3.06925002E+00  -1.29667297E+01  -1.19681666E+01  -1.03070902E+01  -1.28208319E+01  -8.76795315E+00  -8.18652885E+00  -1.07368101E+01  -1.37804721E+01  -2.39374995E+00  -5.19027159E+00  -3.15017254E+00  -4.20122252E+00  -8.22398959E+00  -2.90607304E+00  -3.45897778E+00  -5.74077529E+00  -5.36835908E+00  -3.21096543E+00  -6.85680434E+00  -1.36802931E+02  -1.00638846E+01  -6.55615454E+00  -1.16348951E+01  -1.10713462E+01  -7.40136897E+00  -3.19029510E+00  -9.73158395E+00  -3.67502790E+00  -5.85477024E+01  -1.18241279E+01  -8.36515686E+00  -1.98377887E+00  -4.24069982E+01  -6.75720737E+00  -8.28149851E+00  -3.79676845E+00  -6.85216750E+00  -6.41486178E+00  -7.20815965E+00  -8.17013100E+00  -1.05598214E+01  -8.98837599E+00  -7.01789212E+00  -6.32351779E+00  -1.19694439E+01  -6.15005714E+00  -1.32710309E+01  -7.35512271E+00  -1.07712669E+01  -1.58539034E+01  -1.58541610E+01  -2.15282725E+01  -1.25677593E+01  -2.14277290E+01  -2.14280280E+01  -3.10073989E+01  -3.00789266E+01
   2.97500000E+02   5.00000000E-01   5.00000000E-01  -6.80092894E+00  -1.42915499E+01  -3.19440171E+00  -1.38103760E+00  -1.93946081E+00  -2.36127215E+00  -1.21783827E+01  -6.71634717E+00  -5.11203252E+00  -2.60879364E-01  -4.16576097E+00  -1.95155048E+00  -9.81282890E+00  -3.30519958E-01  -1.80411026E+00  -7.74372119E+00  -3.39620990E+00  -6.20845540E+00  -4.40720527E+00  -3.03852612E+00  -1.28574706E+01  -1.18390169E+01  -1.02169308E+01  -1.27170738E+01  -8.74187497E+00  -8.16659441E+00  -1.07717074E+01  -1.37104729E+01  -2.40023527E+00  -5.24907067E+00  -3.12870447E+00  -4.20303599E+00  -8.16043030E+00  -2.89117544E+00  -3.40064219E+00  -5.70335493E+00  -5.33125287E+00  -3.17706753E+00  -6.83920216E+00  -1.35152595E+02  -1.00079204E+01  -6.50840279E+00  -1.14926925E+01  -1.09647259E+01  -7.28295132E+00  -3.18409581E+00  -9.69675991E+00  -3.67120919E+00  -5.77947227E+01  -1.17178099E+01  -8.35183586E+00  -1.98935186E+00  -4.19273053E+01  -6.75056893E+00  -8.31734651E+00  -3.83815541E+00  -6.78422006E+00  -6.42739359E+00  -7.29978249E+00  -8.14756042E+00  -1.06339061E+01  -9.01533075E+00  -6.98391018E+00  -6.31380931E+00  -1.19089419E+01  -6.14299595E+00  -1.30877966E+01  -7.33532559E+00  -1.07677814E+01  -1.58430006E+01  -1.58432599E+01  -2.15158982E+01  -1.25445273E+01  -2.14163517E+01  -2.14166498E+01  -3.09438911E+01  -2.98293369E+01
   3.32500000E+02   5.00000000E-01   5.00000000E-01  -6.72302312E+00  -1.41980990E+01  -3.13829739E+00  -1.38818084E+00  -1.92903302E+00  -2.34331425E+00  -1.21614237E+01  -6.71692155E+00  -5.11333423E+00  -2.60563621E-01  -4.16536581E+00  -1.95160939E+00  -9.80041443E+00  -3.29918032E-01  -1.80288602E+00  -7.74340731E+00  -3.39581475E+00  -6.23351710E+00  -4.40681012E+00  -3.00902954E+00  -1.27502068E+01  -1.17138767E+01  -1.01297583E+01  -1.26173940E+01  -8.71642608E+00  -8.14613285E+00  -1.08068946E+01  -1.36419231E+01  -2.40779455E+00  -5.30846377E+00  -3.10670634E+00  -4.20294810E+00  -8.09789850E+00  -2.87638251E+00  -3.34654908E+00  -5.66895514E+00  -5.29848977E+00  -3.14761449E+00  -6.82236868E+00  -1.33532758E+02  -9.95478647E+00  -6.46315199E+00  -1.13547978E+01  -1.08610190E+01  -7.16657499E+00  -3.17725219E+00  -9.66243737E+00  -3.66697681E+00  -5.70545184E+01  -1.16139265E+01  -8.33790203E+00  -1.99412575E+00  -4.14559702E+01  -6.74492696E+00  -8.35258295E+00  -3.88361993E+00  -6.72361138E+00  -6.44508827E+00  -7.39428160E+00  -8.12616576E+00  -1.07089342E+01  -9.04277318E+00  -6.95052861E+00  -6.30335116E+00  -1.18494865E+01  -6.13623778E+00  -1.29133722E+01  -7.31772399E+00  -1.07666553E+01  -1.58355810E+01  -1.58358450E+01  -2.15082685E+01  -1.25252900E+01  -2.14096972E+01  -2.14099965E+01  -3.08872009E+01  -2.95847685E+01
   3.67500000E+02   5.00000000E-01   5.00000000E-01  -6.64718005E+00  -1.41091400E+01  -3.08364111E+00  -1.39511921E+00  -1.91893630E+00  -2.32890117E+00  -1.21439540E+01  -6.71752148E+00  -5.11466242E+00  -2.60220597E-01  -4.16493749E+00  -1.95168102E+00  -9.79056297E+00  -3.29303558E-01  -1.80207159E+00  -7.74306044E+00  -3.39538643E+00  -6.26025774E+00  -4.40638180E+00  -2.98056900E+00  -1.26448620E+01  -1.15922757E+01  -1.00452252E+01  -1.25212541E+01  -8.69183804E+00  -8.12521002E+00  -1.08426380E+01  -1.35748365E+01  -2.41658289E+00  -5.36863030E+00  -3.08423432E+00  -4.20110501E+00  -8.03641764E+00  -2.86174348E+00  -3.29561781E+00  -5.63657742E+00  -5.26900503E+00  -3.12153012E+00  -6.80629601E+00  -1.31942501E+02  -9.90426231E+00  -6.42060128E+00  -1.12213355E+01  -1.07598535E+01  -7.05214964E+00  -3.16983832E+00  -9.62866835E+00  -3.66237285E+00  -5.63267391E+01  -1.15122018E+01  -8.32346968E+00  -1.99816122E+00  -4.09927798E+01  -6.74062069E+00  -8.38767023E+00  -3.93232308E+00  -6.66938299E+00  -6.46711587E+00  -7.49096221E+00  -8.10629522E+00  -1.07851797E+01  -9.07095895E+00  -6.91798002E+00  -6.29221199E+00  -1.17911049E+01  -6.12983070E+00  -1.27468063E+01  -7.30198528E+00  -1.07676076E+01  -1.58312274E+01  -1.58314998E+01  -2.15048230E+01  -1.25093963E+01  -2.14072046E+01  -2.14075086E+01  -3.08365165E+01  -2.93448245E+01
   4.02500000E+02   5.00000000E-01   5.00000000E-01  -6.57328893E+00  -1.40241492E+01  -3.03056770E+00  -1.40192462E+00  -1.90915204E+00  -2.31722313E+00  -1.21264957E+01  -6.71814738E+00  -5.11600973E+00  -2.59852109E-01  -4.16447740E+00  -1.95176404E+00  -9.78309151E+00  -3.28674943E-01  -1.80162804E+00  -7.74268197E+00  -3.39492633E+00  -6.28879888E+00  -4.40592171E+00  -2.95299052E+00  -1.25413727E+01  -1.14738312E+01  -9.96304230E+00  -1.24282203E+01  -8.66831578E+00  -8.10388468E+00  -1.08791637E+01  -1.35092128E+01  -2.42673709E+00  -5.42972095E+00  -3.06133944E+00  -4.19763996E+00  -7.97599745E+00  -2.84730116E+00  -3.24710097E+00  -5.60554917E+00  -5.24205640E+00  -3.09806983E+00  -6.79096680E+00  -1.30380963E+02  -9.85616883E+00  -6.38083673E+00  -1.10923301E+01  -1.06609272E+01  -6.93960016E+00  -3.16192107E+00  -9.59548874E+00  -3.65743560E+00  -5.56110563E+01  -1.14124108E+01  -8.30863227E+00  -2.00151418E+00  -4.05375277E+01  -6.73785409E+00  -8.42291605E+00  -3.98372391E+00  -6.62080431E+00  -6.49285560E+00  -7.58931940E+00  -8.08816013E+00  -1.08627812E+01  -9.10010395E+00  -6.88646998E+00  -6.28045300E+00  -1.17338088E+01  -6.12381466E+00  -1.25873031E+01  -7.28783588E+00  -1.07704004E+01  -1.58295870E+01  -1.58298721E+01  -2.15050875E+01  -1.24963122E+01  -2.14083998E+01  -2.14087122E+01  -3.07911526E+01  -2.91091925E+01
   4.37500000E+02   5.00000000E-01   5.00000000E-01  -6.50125459E+00  -1.39427060E+01  -2.97920626E+00  -1.40865592E+00  -1.89966358E+00  -2.30770107E+00  -1.21094602E+01  -6.71879942E+00  -5.11736876E+00  -2.59459820E-01  -4.16398676E+00  -1.95185725E+00  -9.77784047E+00  -3.28030928E-01  -1.80152011E+00  -7.74227311E+00  -3.39443569E+00  -6.31917185E+00  -4.40543106E+00  -2.92617143E+00  -1.24396855E+01  -1.13582338E+01  -9.88297035E+00  -1.23379459E+01  -8.64604354E+00  -8.08220908E+00  -1.09166671E+01  -1.34450396E+01  -2.43838086E+00  -5.49186537E+00  -3.03806801E+00  -4.19267434E+00  -7.91663690E+00  -2.83309227E+00  -3.20047521E+00  -5.57541506E+00  -5.21711757E+00  -3.07671132E+00  -6.77635683E+00  -1.28847335E+02  -9.81035742E+00  -6.34386319E+00  -1.09677351E+01  -1.05639972E+01  -6.82886340E+00  -3.15356069E+00  -9.56292147E+00  -3.65219956E+00  -5.49071602E+01  -1.13143719E+01  -8.29346584E+00  -2.00423592E+00  -4.00900140E+01  -6.73673130E+00  -8.45851209E+00  -4.03747853E+00  -6.57729470E+00  -6.52182103E+00  -7.68896666E+00  -8.07187046E+00  -1.09417786E+01  -9.13039297E+00  -6.85618287E+00  -6.26812861E+00  -1.16775972E+01  -6.11822187E+00  -1.24341987E+01  -7.27505236E+00  -1.07748334E+01  -1.58303626E+01  -1.58306653E+01  -2.15086624E+01  -1.24856033E+01  -2.14128831E+01  -2.14132084E+01  -3.07505327E+01  -2.88776280E+01
   4.72500000E+02   5.00000000E-01   5.00000000E-01  -6.43099411E+00  -1.38644702E+01  -2.92967960E+00  -1.41536070E+00  -1.89045604E+00  -2.29991560E+00  -1.20931685E+01  -6.71947752E+00  -5.11873206E+00  -2.59045254E-01  -4.16346664E+00  -1.95195966E+00  -9.77466776E+00  -3.27370540E-01  -1.80171580E+00  -7.74183495E+00  -3.39391557E+00  -6.35134212E+00  -4.40491095E+00  -2.90001391E+00  -1.23397540E+01  -1.12452327E+01  -9.80481109E+00  -1.22501527E+01  -8.62518776E+00  -8.06022952E+00  -1.09553180E+01  -1.33822966E+01  -2.45162711E+00  -5.55517737E+00  -3.01446196E+00  -4.18631866E+00  -7.85832734E+00  -2.81914784E+00  -3.15537077E+00  -5.54586720E+00  -5.19381067E+00  -3.05708418E+00  -6.76243780E+00  -1.27340847E+02  -9.76670113E+00  -6.30962572E+00  -1.08474513E+01  -1.04688677E+01  -6.71988492E+00  -3.14481134E+00  -9.53097979E+00  -3.64669565E+00  -5.42147565E+01  -1.12179382E+01  -8.27803270E+00  -2.00637327E+00  -3.96500448E+01  -6.73728186E+00  -8.49456275E+00  -4.09337537E+00  -6.53837380E+00  -6.55361400E+00  -7.78959320E+00  -8.05746021E+00  -1.10221406E+01  -9.16198585E+00  -6.82728490E+00  -6.25528697E+00  -1.16224600E+01  -6.11307751E+00  -1.22869345E+01  -7.26345185E+00  -1.07807373E+01  -1.58333036E+01  -1.58336289E+01  -2.15152102E+01  -1.24769156E+01  -2.14203169E+01  -2.14206601E+01  -3.07141707E+01  -2.86499364E+01
   5.07500000E+02   5.00000000E-01   5.00000000E-01  -6.36243383E+00  -1.37891628E+01  -2.88210230E+00  -1.42207701E+00  -1.88151618E+00  -2.29355962E+00  -1.20778686E+01  -6.72018144E+00  -5.12009218E+00  -2.58609819E-01  -4.16291802E+00  -1.95207038E+00  -9.77344466E+00  -3.26693038E-01  -1.80218603E+00  -7.74136844E+00  -3.39336695E+00  -6.38522737E+00  -4.40436233E+00  -2.87443936E+00  -1.22415364E+01  -1.11346217E+01  -9.72839909E+00  -1.21646146E+01  -8.60589819E+00  -8.03798703E+00  -1.09952650E+01  -1.33209576E+01  -2.46657827E+00  -5.61975761E+00  -2.99055928E+00  -4.17867344E+00  -7.80105514E+00  -2.80549373E+00  -3.11152458E+00  -5.51669872E+00  -5.17186167E+00  -3.03892314E+00  -6.74917965E+00  -1.25860766E+02  -9.72508826E+00  -6.27802529E+00  -1.07313405E+01  -1.03753794E+01  -6.61261627E+00  -3.13572164E+00  -9.49967013E+00  -3.64095145E+00  -5.35335635E+01  -1.11229900E+01  -8.26238458E+00  -2.00796893E+00  -3.92174323E+01  -6.73947954E+00  -8.53110707E+00  -4.15129144E+00  -6.50362984E+00  -6.58789578E+00  -7.89093806E+00  -8.04490642E+00  -1.11037848E+01  -9.19502105E+00  -6.79992511E+00  -6.24197057E+00  -1.15683809E+01  -6.10840029E+00  -1.21450345E+01  -7.25288359E+00  -1.07879681E+01  -1.58381968E+01  -1.58385503E+01  -2.15244442E+01  -1.24699586E+01  -2.14304147E+01  -2.14307809E+01  -3.06816544E+01  -2.84259575E+01
   5.42500000E+02   5.00000000E-01   5.00000000E-01  -6.29550715E+00  -1.37165514E+01  -2.83657807E+00  -1.42883495E+00  -1.87283224E+00  -2.28840588E+00  -1.20637499E+01  -6.72091093E+00  -5.12144177E+00  -2.58154824E-01  -4.16234173E+00  -1.95218865E+00  -9.77405284E+00  -3.25997880E-01  -1.80290441E+00  -7.74087444E+00  -3.39279066E+00  -6.42071150E+00  -4.40378604E+00  -2.84938405E+00  -1.21449940E+01  -1.10262288E+01  -9.65359525E+00  -1.20811452E+01  -8.58830758E+00  -8.01551783E+00  -1.10366370E+01  -1.32609935E+01  -2.48332545E+00  -5.68569439E+00  -2.96639432E+00  -4.16983012E+00  -7.74480372E+00  -2.79215106E+00  -3.06874844E+00  -5.48777239E+00  -5.15107033E+00  -3.02203633E+00  -6.73655228E+00  -1.24406389E+02  -9.68541772E+00  -6.24893100E+00  -1.06192352E+01  -1.02834011E+01  -6.50701311E+00  -3.12633512E+00  -9.46899419E+00  -3.63499147E+00  -5.28633101E+01  -1.10294286E+01  -8.24656491E+00  -2.00906173E+00  -3.87919941E+01  -6.74325712E+00  -8.56813564E+00  -4.21116171E+00  -6.47269946E+00  -6.62436906E+00  -7.99277437E+00  -8.03414391E+00  -1.11865940E+01  -9.22961728E+00  -6.77423517E+00  -6.22821686E+00  -1.15153396E+01  -6.10420321E+00  -1.20080881E+01  -7.24322215E+00  -1.07964029E+01  -1.58448602E+01  -1.58452475E+01  -2.15361187E+01  -1.24644917E+01  -2.14429311E+01  -2.14433260E+01  -3.06526310E+01  -2.82055543E+01
   5.77500000E+02   5.00000000E-01   5.00000000E-01  -6.23015306E+00  -1.36464392E+01  -2.79319707E+00  -1.43565804E+00  -1.86439385E+00  -2.28428462E+00  -1.20509551E+01  -6.72166582E+00  -5.12277372E+00  -2.57681493E-01  -4.16173854E+00  -1.95231385E+00  -9.77638220E+00  -3.25284679E-01  -1.80384696E+00  -7.74035368E+00  -3.39218747E+00  -6.45765571E+00  -4.40318285E+00  -2.82479578E+00  -1.20500894E+01  -1.09199085E+01  -9.58028183E+00  -1.19995882E+01  -8.57253058E+00  -7.99285402E+00  -1.10795431E+01  -1.32023732E+01  -2.50194664E+00  -5.75306298E+00  -2.94199813E+00  -4.15987174E+00  -7.68955483E+00  -2.77913676E+00  -3.02690697E+00  -5.45899904E+00  -5.13128919E+00  -3.00628347E+00  -6.72452647E+00  -1.22977042E+02  -9.64759591E+00  -6.22219007E+00  -1.05109479E+01  -1.01928238E+01  -6.40303388E+00  -3.11669066E+00  -9.43895038E+00  -3.62883745E+00  -5.22037341E+01  -1.09371723E+01  -8.23061058E+00  -2.00968698E+00  -3.83735538E+01  -6.74851809E+00  -8.60560396E+00  -4.27295679E+00  -6.44525521E+00  -6.66276705E+00  -8.09489993E+00  -8.02507721E+00  -1.12704276E+01  -9.26587377E+00  -6.75032830E+00  -6.21405878E+00  -1.14633129E+01  -6.10049431E+00  -1.18757361E+01  -7.23436230E+00  -1.08059357E+01  -1.58531368E+01  -1.58535637E+01  -2.15500224E+01  -1.24603143E+01  -2.14576548E+01  -2.14580841E+01  -3.06267962E+01  -2.79886051E+01
   6.12500000E+02   5.00000000E-01   5.00000000E-01  -6.16631505E+00  -1.35786579E+01  -2.75203323E+00  -1.44256438E+00  -1.85619193E+00  -2.28106772E+00  -1.20395888E+01  -6.72244621E+00  -5.12408136E+00  -2.57190975E-01  -4.16110911E+00  -1.95244542E+00  -9.78032930E+00  -3.24553182E-01  -1.80499199E+00  -7.73980685E+00  -3.39155804E+00  -6.49590738E+00  -4.40255342E+00  -2.80063162E+00  -1.19567866E+01  -1.08155370E+01  -9.50835878E+00  -1.19198117E+01  -8.55866232E+00  -7.97002401E+00  -1.11240722E+01  -1.31450647E+01  -2.52250468E+00  -5.82192408E+00  -2.91739880E+00  -4.14887376E+00  -7.63528930E+00  -2.76646396E+00  -2.98590224E+00  -5.43032264E+00  -5.11240882E+00  -2.99156064E+00  -6.71307449E+00  -1.21572072E+02  -9.61153456E+00  -6.19763612E+00  -1.04062786E+01  -1.01035561E+01  -6.30063908E+00  -3.10682291E+00  -9.40953469E+00  -3.62250856E+00  -5.15545814E+01  -1.08461522E+01  -8.21455305E+00  -2.00987670E+00  -3.79619399E+01  -6.75514620E+00  -8.64344294E+00  -4.33666642E+00  -6.42099809E+00  -6.70284692E+00  -8.19713169E+00  -8.01759006E+00  -1.13551317E+01  -9.30386948E+00  -6.72829787E+00  -6.19952544E+00  -1.14122764E+01  -6.09727734E+00  -1.17476625E+01  -7.22621529E+00  -1.08164744E+01  -1.58628907E+01  -1.58633630E+01  -2.15659718E+01  -1.24572580E+01  -2.14744027E+01  -2.14748724E+01  -3.06038859E+01  -2.77749989E+01
   6.47500000E+02   5.00000000E-01   5.00000000E-01  -6.10394068E+00  -1.35130634E+01  -2.71314205E+00  -1.44956769E+00  -1.84821858E+00  -2.27865760E+00  -1.20297244E+01  -6.72325266E+00  -5.12535867E+00  -2.56684359E-01  -4.16045404E+00  -1.95258293E+00  -9.78579608E+00  -3.23803238E-01  -1.80631990E+00  -7.73923454E+00  -3.39090297E+00  -6.53530708E+00  -4.40189835E+00  -2.77685638E+00  -1.18650504E+01  -1.07130082E+01  -9.43774102E+00  -1.18417042E+01  -8.54677680E+00  -7.94705314E+00  -1.11702916E+01  -1.30890358E+01  -2.54504512E+00  -5.89232181E+00  -2.89262170E+00  -4.13690468E+00  -7.58198746E+00  -2.75414243E+00  -2.94566308E+00  -5.40170989E+00  -5.09434719E+00  -2.97778970E+00  -6.70217015E+00  -1.20190853E+02  -9.57714938E+00  -6.17509604E+00  -1.03050215E+01  -1.00155217E+01  -6.19979102E+00  -3.09676262E+00  -9.38074117E+00  -3.61602170E+00  -5.09156057E+01  -1.07563109E+01  -8.19841898E+00  -2.00965996E+00  -3.75569862E+01  -6.76301303E+00  -8.68156712E+00  -4.40228704E+00  -6.39965326E+00  -6.74438607E+00  -8.29930255E+00  -8.01155312E+00  -1.14405461E+01  -9.34366197E+00  -6.70821594E+00  -6.18464265E+00  -1.13622049E+01  -6.09455251E+00  -1.16235878E+01  -7.21870616E+00  -1.08279392E+01  -1.58740033E+01  -1.58745269E+01  -2.15838072E+01  -1.24551815E+01  -2.14930154E+01  -2.14935315E+01  -3.05836697E+01  -2.75646334E+01
   6.82500000E+02   5.00000000E-01   5.00000000E-01  -6.04298127E+00  -1.34495334E+01  -2.67655877E+00  -1.45667820E+00  -1.84046703E+00  -2.27697940E+00  -1.20214091E+01  -6.72408628E+00  -5.12660051E+00  -2.56162680E-01  -4.15977385E+00  -1.95272602E+00  -9.79268889E+00  -3.23034778E-01  -1.80781305E+00  -7.73863727E+00  -3.39022279E+00  -6.57569405E+00  -4.40121817E+00  -2.75344163E+00  -1.17748462E+01  -1.06122320E+01  -9.36835657E+00  -1.17651723E+01  -8.53692554E+00  -7.92396410E+00  -1.12182455E+01  -1.30342544E+01  -2.56959425E+00  -5.96428164E+00  -2.86768974E+00  -4.12402664E+00  -7.52962918E+00  -2.74217899E+00  -2.90613749E+00  -5.37314302E+00  -5.07704208E+00  -2.96491089E+00  -6.69178863E+00  -1.18832779E+02  -9.54435930E+00  -6.15439549E+00  -1.02069704E+01  -9.92865700E+00  -6.10045375E+00  -3.08653705E+00  -9.35256206E+00  -3.60939170E+00  -5.02865681E+01  -1.06676001E+01  -8.18223059E+00  -2.00906306E+00  -3.71585315E+01  -6.77198397E+00  -8.71988084E+00  -4.46981252E+00  -6.38096768E+00  -6.78717998E+00  -8.40125946E+00  -8.00683000E+00  -1.15265095E+01  -9.38528607E+00  -6.69013198E+00  -6.16943355E+00  -1.13130726E+01  -6.09231720E+00  -1.15032658E+01  -7.21177194E+00  -1.08402604E+01  -1.58863715E+01  -1.58869522E+01  -2.16033892E+01  -1.24539670E+01  -2.15133541E+01  -2.15139225E+01  -3.05659455E+01  -2.73574138E+01