 TITLE = "Total Concentrations" 
VARIABLES = "X"          "Y"              "Z"            "H+"             "Al+++"          "CO2(aq)"        "Mg++"           "Ca++"           "Fe++"           "Fe+++"          "Ba++"           "Sr++"           "Li+"            "Rb+"            "Mn++"           "Zn++"           "Cu++"           "Cu+"            "Cl-"            "F-"             "K+"             "HS-"            "Na+"            "SO4--"          "O2(aq)"         "B(OH)3(aq)"     "HPO4--"         "NO3-"           "H4SiO4(aq)"     "Ti(OH)4(aq)"    "HNO3(aq)"       "Al(OH)2+"       "AlO2-"          "AlOH++"         "BaHCO3+"        "BaCl+"          "BaCO3(aq)"      "BaOH+"          "HCO3-"          "CO3--"          "CaCl+"          "CaCl2(aq)"      "CaOH+"          "CaSO4(aq)"      "FeCl+"          "FeCl2(aq)"      "FeOH+"          "FeSO4(aq)"      "OH-"            "LiCl(aq)"       "LiOH(aq)"       "RbCl(aq)"       "RbOH(aq)"       "S2O3--"         "H2S(aq)"        "H2PO4-"         "H3PO4(aq)"      "HAlO2(aq)"      "HSO4-"          "KCl(aq)"        "KOH(aq)"        "KSO4-"          "NH3(aq)"        "NaAlO2(aq)"     "NaOH(aq)"       "NaSO4-"         "H2(aq)"         "CaHPO4(aq)"     "CaPO4-"         "FeCO3(aq)"      "FeH2PO4+"       "FeHPO4(aq)"     "FePO4-"         "KHPO4-"         "PO4---"         "Sr(CO3)(aq)"    "SrHCO3+"        "SrCl+"          "SrOH+"          "SrSO4(aq)"      "AlH3SiO4++"     "Si2O2(OH)5-"    "Si2O3(OH)4--"   "Si3O5(OH)5---"  "Si3O6(OH)3---"  "Si4O12H4----"   "Si4O6(OH)6--"   "Si4O7(OH)6----" "Si4O8(OH)4----" "Si6O15------"   "SiF6--"        
 ZONE I=         200 , J=           1 , K=           1  F=POINT
   8.75000000E+00   5.00000000E-01   5.00000000E-01  -7.86880102E+00  -1.79366014E+01  -3.99366692E+00  -1.29412891E+00  -2.04409111E+00  -4.44200015E+00  -2.19043781E+01  -6.93736027E+00  -5.10354886E+00  -4.61180998E+00  -5.85969337E+00  -5.23273379E+00  -6.41088359E+00  -8.84705562E+00  -8.91432685E+00  -2.62095264E-01  -4.16749347E+00  -1.95183844E+00  -2.49967245E+01  -3.35547503E-01  -1.83620433E+00  -7.74473466E+00  -3.39794256E+00  -5.87465588E+00  -4.40893793E+00  -3.36521498E+00  -8.67879880E+00  -1.41533996E+01  -1.50277397E+01  -1.23853226E+01  -1.60335240E+01  -9.14991186E+00  -8.53220653E+00  -1.03354741E+01  -1.42266727E+01  -2.33731262E+00  -4.41073026E+00  -3.28600198E+00  -4.11682111E+00  -8.38797235E+00  -3.01321576E+00  -5.75374292E+00  -7.83775608E+00  -7.18356556E+00  -5.33341489E+00  -6.68127171E+00  -6.81008181E+00  -1.12978742E+01  -7.72972631E+00  -1.33233413E+01  -1.50427966E+02  -2.58572094E+01  -7.12737270E+00  -1.32796682E+01  -1.35966413E+01  -8.65732045E+00  -3.20718017E+00  -9.66561183E+00  -3.68503274E+00  -6.47516214E+01  -1.39945603E+01  -8.10299212E+00  -1.91233733E+00  -4.61561966E+01  -6.64476006E+00  -7.47178251E+00  -4.98519308E+00  -9.46879653E+00  -8.04171835E+00  -7.85104832E+00  -8.17448380E+00  -9.53915231E+00  -8.42687627E+00  -7.23140024E+00  -6.36340178E+00  -1.21086308E+01  -6.20358933E+00  -1.72622214E+01  -7.30394868E+00  -1.02731737E+01  -1.51455491E+01  -1.51457895E+01  -2.05718473E+01  -1.23333230E+01  -2.04634768E+01  -2.04637426E+01  -2.98849941E+01  -3.34039080E+01
   2.62500000E+01   5.00000000E-01   5.00000000E-01  -7.62557067E+00  -1.65619038E+01  -3.77347311E+00  -1.29681954E+00  -2.03592393E+00  -4.10464456E+00  -2.12385645E+01  -7.06319738E+00  -5.10391931E+00  -4.61180794E+00  -5.85983804E+00  -4.93183220E+00  -6.15456627E+00  -8.84639567E+00  -8.91500986E+00  -2.62098766E-01  -4.16749087E+00  -1.95178666E+00  -2.59518741E+01  -3.35350864E-01  -1.83175549E+00  -7.74473690E+00  -3.39794013E+00  -5.88989629E+00  -4.40893551E+00  -3.18350491E+00  -8.67759451E+00  -1.38976054E+01  -1.40305106E+01  -1.17986640E+01  -1.48548566E+01  -9.26782526E+00  -8.65137110E+00  -1.06782741E+01  -1.45047624E+01  -2.34243690E+00  -4.63653658E+00  -3.27750771E+00  -4.12705289E+00  -8.54432483E+00  -3.00471069E+00  -5.40183903E+00  -7.50268792E+00  -7.03453341E+00  -4.99226036E+00  -6.86176223E+00  -6.81001390E+00  -1.14819735E+01  -7.71895467E+00  -1.34976449E+01  -1.49085183E+02  -2.65994001E+01  -6.90976160E+00  -1.28143745E+01  -1.28091935E+01  -8.39544418E+00  -3.20817889E+00  -9.83992212E+00  -3.68469551E+00  -6.41287454E+01  -1.34036409E+01  -8.29361667E+00  -1.91858958E+00  -4.58812832E+01  -6.64774122E+00  -7.69691340E+00  -4.88386133E+00  -8.91440189E+00  -7.73067110E+00  -7.78316955E+00  -8.17004967E+00  -9.77424352E+00  -8.63914280E+00  -7.21986878E+00  -6.36292947E+00  -1.22675954E+01  -6.19933071E+00  -1.58599274E+01  -7.15578581E+00  -1.03260668E+01  -1.52223255E+01  -1.52225736E+01  -2.06748839E+01  -1.20469220E+01  -2.05670827E+01  -2.05673603E+01  -3.00186004E+01  -3.23255483E+01
   4.37500000E+01   5.00000000E-01   5.00000000E-01  -7.49505948E+00  -1.59975955E+01  -3.66436030E+00  -1.29935783E+00  -2.02793798E+00  -3.91619734E+00  -2.09102263E+01  -7.11502416E+00  -5.10435810E+00  -4.61179320E+00  -5.85997215E+00  -4.75564060E+00  -5.99444528E+00  -8.84572180E+00  -8.91567921E+00  -2.62088594E-01  -4.16747335E+00  -1.95174254E+00  -2.56125171E+01  -3.35155084E-01  -1.82763810E+00  -7.74472423E+00  -3.39792278E+00  -5.90367863E+00  -4.40891816E+00  -3.06061900E+00  -8.67653574E+00  -1.37543111E+01  -1.36192332E+01  -1.15737141E+01  -1.43741840E+01  -9.31055487E+00  -8.69619016E+00  -1.08338837E+01  -1.45973040E+01  -2.34673708E+00  -4.74951999E+00  -3.26874757E+00  -4.13642085E+00  -8.58905650E+00  -2.99619320E+00  -5.19851744E+00  -7.31566058E+00  -6.92224800E+00  -4.79980735E+00  -6.93064383E+00  -6.80958291E+00  -1.15541298E+01  -7.70812467E+00  -1.35602542E+01  -1.47976016E+02  -2.61589283E+01  -6.80289625E+00  -1.25722784E+01  -1.24953313E+01  -8.24622291E+00  -3.20879686E+00  -9.90237005E+00  -3.68422375E+00  -6.36216932E+01  -1.31740714E+01  -8.37192231E+00  -1.92456133E+00  -4.56089414E+01  -6.64890046E+00  -7.80765011E+00  -4.81791493E+00  -8.61972076E+00  -7.56663220E+00  -7.74953761E+00  -8.16376396E+00  -9.89585674E+00  -8.73834768E+00  -7.20719702E+00  -6.36210528E+00  -1.23149340E+01  -6.19510974E+00  -1.52159047E+01  -7.01321571E+00  -1.02725996E+01  -1.51395259E+01  -1.51397799E+01  -2.05652029E+01  -1.17715667E+01  -2.04579674E+01  -2.04582542E+01  -2.98329029E+01  -3.17547057E+01
   6.12500000E+01   5.00000000E-01   5.00000000E-01  -7.40564951E+00  -1.57001028E+01  -3.59478940E+00  -1.30179464E+00  -2.02012636E+00  -3.78530229E+00  -2.07045232E+01  -7.12398279E+00  -5.10483036E+00  -4.61176633E+00  -5.86009645E+00  -4.63052018E+00  -5.87769465E+00  -8.84503465E+00  -8.91633561E+00  -2.62065369E-01  -4.16744156E+00  -1.95170599E+00  -2.53166811E+01  -3.34964067E-01  -1.82383180E+00  -7.74469728E+00  -3.39789117E+00  -5.91589594E+00  -4.40888654E+00  -2.97699417E+00  -8.67566030E+00  -1.36519109E+01  -1.33935515E+01  -1.14533237E+01  -1.41195462E+01  -9.30931373E+00  -8.69781852E+00  -1.09051102E+01  -1.46070325E+01  -2.35026759E+00  -4.82133217E+00  -3.25973061E+00  -4.14495156E+00  -8.59376049E+00  -2.98765601E+00  -5.05243708E+00  -7.18534900E+00  -6.82696122E+00  -4.66470035E+00  -6.95950452E+00  -6.80880289E+00  -1.15859452E+01  -7.69724030E+00  -1.35827632E+01  -1.46957093E+02  -2.58022294E+01  -6.73506700E+00  -1.24100647E+01  -1.23263071E+01  -8.13803527E+00  -3.20904864E+00  -9.92455596E+00  -3.68361295E+00  -6.31588075E+01  -1.30487226E+01  -8.40952920E+00  -1.93025627E+00  -4.53391322E+01  -6.64814353E+00  -7.87552022E+00  -4.76767387E+00  -8.42168179E+00  -7.45814372E+00  -7.73031737E+00  -8.15554405E+00  -9.97548834E+00  -8.79612105E+00  -7.19342314E+00  -6.36090912E+00  -1.23222090E+01  -6.19088759E+00  -1.48385863E+01  -6.90872249E+00  -1.02168648E+01  -1.50532969E+01  -1.50535550E+01  -2.04509885E+01  -1.15722317E+01  -2.03443147E+01  -2.03446087E+01  -2.96402342E+01  -3.13854307E+01
   7.87500000E+01   5.00000000E-01   5.00000000E-01  -7.33296530E+00  -1.54933367E+01  -3.54085473E+00  -1.30416065E+00  -2.01248208E+00  -3.68483807E+00  -2.05483384E+01  -7.11188389E+00  -5.10532552E+00  -4.61172783E+00  -5.86021159E+00  -4.53338581E+00  -5.78574698E+00  -8.84433481E+00  -8.91697966E+00  -2.62029671E-01  -4.16739610E+00  -1.95167666E+00  -2.50399418E+01  -3.34778929E-01  -1.82031746E+00  -7.74465667E+00  -3.39784588E+00  -5.92742730E+00  -4.40884125E+00  -2.91993387E+00  -8.67495726E+00  -1.35660430E+01  -1.32261131E+01  -1.13588632E+01  -1.39392270E+01  -9.28637542E+00  -8.67808220E+00  -1.09385820E+01  -1.45801123E+01  -2.35347281E+00  -4.87677034E+00  -3.25046780E+00  -4.15267574E+00  -8.58278975E+00  -2.97909972E+00  -4.93649373E+00  -7.08466727E+00  -6.74591955E+00  -4.55982671E+00  -6.97269035E+00  -6.80768978E+00  -1.16017814E+01  -7.68630881E+00  -1.35895266E+01  -1.45979539E+02  -2.54805299E+01  -6.68279543E+00  -1.22798937E+01  -1.21991366E+01  -8.04650588E+00  -3.20895132E+00  -9.93084064E+00  -3.68286300E+00  -6.27156797E+01  -1.29489839E+01  -8.43081430E+00  -1.93567966E+00  -4.50718200E+01  -6.64636899E+00  -7.92579931E+00  -4.73084465E+00  -8.26968222E+00  -7.37897630E+00  -7.72365750E+00  -8.14629606E+00  -1.00383733E+01  -8.83727011E+00  -7.17900165E+00  -6.35934791E+00  -1.23137677E+01  -6.18665854E+00  -1.45635144E+01  -6.84127712E+00  -1.01821971E+01  -1.49986441E+01  -1.49989050E+01  -2.03789099E+01  -1.14468631E+01  -2.02727938E+01  -2.02730930E+01  -2.95106251E+01  -3.11076052E+01
   9.62500000E+01   5.00000000E-01   5.00000000E-01  -7.27017063E+00  -1.53363178E+01  -3.49588108E+00  -1.30647097E+00  -2.00499846E+00  -3.60343031E+00  -2.04211711E+01  -7.09033611E+00  -5.10584035E+00  -4.61167817E+00  -5.86031813E+00  -4.45395583E+00  -5.70987842E+00  -8.84362285E+00  -8.91761191E+00  -2.61982031E-01  -4.16733753E+00  -1.95165414E+00  -2.47754143E+01  -3.34598518E-01  -1.81707697E+00  -7.74460295E+00  -3.39778748E+00  -5.93855937E+00  -4.40878285E+00  -2.88025299E+00  -8.67440995E+00  -1.34898856E+01  -1.30895979E+01  -1.12766583E+01  -1.37990804E+01  -9.25350342E+00  -8.64860616E+00  -1.09528801E+01  -1.45349686E+01  -2.35648838E+00  -4.92278324E+00  -3.24097087E+00  -4.15962556E+00  -8.56295963E+00  -2.97052893E+00  -4.83933057E+00  -7.00227760E+00  -6.67457825E+00  -4.47382430E+00  -6.97700897E+00  -6.80626008E+00  -1.16084623E+01  -7.67533880E+00  -1.35873621E+01  -1.45029563E+02  -2.51801355E+01  -6.63955079E+00  -1.21684123E+01  -1.20933307E+01  -7.96480038E+00  -3.20852278E+00  -9.92804722E+00  -3.68197608E+00  -6.22854434E+01  -1.28611982E+01  -8.44261397E+00  -1.94083659E+00  -4.48069710E+01  -6.64388594E+00  -7.96563300E+00  -4.70303445E+00  -8.14581519E+00  -7.31805853E+00  -7.72532422E+00  -8.13633430E+00  -1.00916128E+01  -8.86876378E+00  -7.16408614E+00  -6.35743674E+00  -1.22964272E+01  -6.18242828E+00  -1.43473144E+01  -6.79933259E+00  -1.01638729E+01  -1.49684839E+01  -1.49687464E+01  -2.03395203E+01  -1.13723700E+01  -2.02339576E+01  -2.02342604E+01  -2.94299171E+01  -3.08847748E+01
   1.13750000E+02   5.00000000E-01   5.00000000E-01  -7.21453298E+00  -1.52170137E+01  -3.45720162E+00  -1.30873989E+00  -1.99766931E+00  -3.53514300E+00  -2.03148310E+01  -7.06483821E+00  -5.10637333E+00  -4.61161779E+00  -5.86041661E+00  -4.38674642E+00  -5.64528518E+00  -8.84289927E+00  -8.91823285E+00  -2.61922940E-01  -4.16726635E+00  -1.95163803E+00  -2.45203192E+01  -3.34420461E-01  -1.81409386E+00  -7.74453663E+00  -3.39771647E+00  -5.94938443E+00  -4.40871184E+00  -2.85138303E+00  -8.67400274E+00  -1.34207199E+01  -1.29774261E+01  -1.12055682E+01  -1.36898040E+01  -9.21625611E+00  -8.61490503E+00  -1.09562773E+01  -1.44798133E+01  -2.35935538E+00  -4.96212201E+00  -3.23125149E+00  -4.16583257E+00  -8.53698274E+00  -2.96194964E+00  -4.75502859E+00  -6.93227949E+00  -6.60972751E+00  -4.40077028E+00  -6.97516530E+00  -6.80452972E+00  -1.16087085E+01  -7.66433871E+00  -1.35789843E+01  -1.44101587E+02  -2.48955600E+01  -6.60271120E+00  -1.20702799E+01  -1.20050365E+01  -7.89018911E+00  -3.20778040E+00  -9.91889566E+00  -3.68095542E+00  -6.18653364E+01  -1.27842403E+01  -8.44765954E+00  -1.94573191E+00  -4.45445522E+01  -6.64080891E+00  -7.99786837E+00  -4.68109042E+00  -8.04152135E+00  -7.26956311E+00  -7.73222386E+00  -8.12577767E+00  -1.01380104E+01  -8.89337465E+00  -7.14873667E+00  -6.35519193E+00  -1.22729033E+01  -6.17820523E+00  -1.41740726E+01  -6.77247123E+00  -1.01541944E+01  -1.49512706E+01  -1.49515339E+01  -2.03174244E+01  -1.13279197E+01  -2.02124107E+01  -2.02127157E+01  -2.93750256E+01  -3.06995131E+01
   1.31250000E+02   5.00000000E-01   5.00000000E-01  -7.16404449E+00  -1.51259937E+01  -3.42288506E+00  -1.31098241E+00  -1.99048892E+00  -3.47643036E+00  -2.02233018E+01  -7.03789905E+00  -5.10692315E+00  -4.61154708E+00  -5.86050751E+00  -4.32848418E+00  -5.58903811E+00  -8.84216454E+00  -8.91884295E+00  -2.61852855E-01  -4.16718304E+00  -1.95162794E+00  -2.42726029E+01  -3.34242313E-01  -1.81135300E+00  -7.74445818E+00  -3.39763334E+00  -5.96001567E+00  -4.40862871E+00  -2.82891488E+00  -8.67372025E+00  -1.33565509E+01  -1.28841710E+01  -1.11441564E+01  -1.36039726E+01  -9.17721292E+00  -8.57950271E+00  -1.09533437E+01  -1.44191444E+01  -2.36212678E+00  -4.99682595E+00  -3.22132098E+00  -4.17132703E+00  -8.50684777E+00  -2.95336818E+00  -4.68005815E+00  -6.87116092E+00  -6.54982316E+00  -4.33713180E+00  -6.96914063E+00  -6.80251386E+00  -1.16045159E+01  -7.65331639E+00  -1.35663836E+01  -1.43191487E+02  -2.46227667E+01  -6.57039950E+00  -1.19816244E+01  -1.19308300E+01  -7.82066750E+00  -3.20674072E+00  -9.90538151E+00  -3.67980470E+00  -6.14533216E+01  -1.27166883E+01  -8.44795731E+00  -1.95037067E+00  -4.42845312E+01  -6.63727233E+00  -8.02464765E+00  -4.66353647E+00  -7.95137633E+00  -7.23007305E+00  -7.74294843E+00  -8.11476457E+00  -1.01796667E+01  -8.91316233E+00  -7.13302437E+00  -6.35262912E+00  -1.22451876E+01  -6.17399791E+00  -1.40319135E+01  -6.75386988E+00  -1.01483339E+01  -1.49397640E+01  -1.49400272E+01  -2.03029671E+01  -1.12998686E+01  -2.01984979E+01  -2.01988041E+01  -2.93314761E+01  -3.05394486E+01
   1.48750000E+02   5.00000000E-01   5.00000000E-01  -7.11716733E+00  -1.50551848E+01  -3.39147701E+00  -1.31321149E+00  -1.98345195E+00  -3.42500782E+00  -2.01419772E+01  -7.01065958E+00  -5.10748856E+00  -4.61146642E+00  -5.86059129E+00  -4.27705726E+00  -5.53921867E+00  -8.84141910E+00  -8.91944263E+00  -2.61772206E-01  -4.16708804E+00  -1.95162352E+00  -2.40306833E+01  -3.34062132E-01  -1.80884020E+00  -7.74436804E+00  -3.39753852E+00  -5.97058067E+00  -4.40853389E+00  -2.81005891E+00  -8.67354665E+00  -1.32958534E+01  -1.28048228E+01  -1.10904647E+01  -1.35350483E+01  -9.13759233E+00  -8.54355453E+00  -1.09468187E+01  -1.43556225E+01  -2.36486330E+00  -5.02847289E+00  -3.21119024E+00  -4.17613809E+00  -8.47407401E+00  -2.94479088E+00  -4.61215007E+00  -6.81666961E+00  -6.49411225E+00  -4.28063686E+00  -6.96044714E+00  -6.80022690E+00  -1.15974110E+01  -7.64227925E+00  -1.35510807E+01  -1.42296079E+02  -2.43586596E+01  -6.54122228E+00  -1.18995270E+01  -1.18672342E+01  -7.75470115E+00  -3.20541958E+00  -9.88903053E+00  -3.67852772E+00  -6.10478317E+01  -1.26565982E+01  -8.44504376E+00  -1.95475844E+00  -4.40268760E+01  -6.63342416E+00  -8.04765646E+00  -4.64969487E+00  -7.87170081E+00  -7.19744642E+00  -7.75689485E+00  -8.10344652E+00  -1.02182273E+01  -8.92972392E+00  -7.11702727E+00  -6.34976327E+00  -1.22148019E+01  -6.16981454E+00  -1.39114699E+01  -6.73947449E+00  -1.01437628E+01  -1.49301723E+01  -1.49304350E+01  -2.02910920E+01  -1.12801112E+01  -2.01871624E+01  -2.01874688E+01  -2.92916911E+01  -3.03957060E+01
   1.66250000E+02   5.00000000E-01   5.00000000E-01  -7.07281758E+00  -1.49984837E+01  -3.36197067E+00  -1.31543683E+00  -1.97655338E+00  -3.37932550E+00  -2.00676128E+01  -6.98364206E+00  -5.10806842E+00  -4.61137615E+00  -5.86066835E+00  -4.23102316E+00  -5.49450164E+00  -8.84066334E+00  -8.92003227E+00  -2.61681391E-01  -4.16698176E+00  -1.95162445E+00  -2.37934336E+01  -3.33878573E-01  -1.80654208E+00  -7.74426662E+00  -3.39743241E+00  -5.98119433E+00  -4.40842778E+00  -2.79313771E+00  -8.67346553E+00  -1.32375550E+01  -1.27354342E+01  -1.10426901E+01  -1.34780090E+01  -9.09798785E+00  -8.50759645E+00  -1.09383635E+01  -1.42908357E+01  -2.36762016E+00  -5.05818208E+00  -3.20086983E+00  -4.18029374E+00  -8.43972746E+00  -2.93622403E+00  -4.54976913E+00  -6.76728658E+00  -6.44212273E+00  -4.22974772E+00  -6.95014402E+00  -6.79768263E+00  -1.15884664E+01  -7.63123432E+00  -1.35341431E+01  -1.41413090E+02  -2.41010510E+01  -6.51422667E+00  -1.18219626E+01  -1.18113809E+01  -7.69120961E+00  -3.20383213E+00  -9.87091492E+00  -3.67712837E+00  -6.06477537E+01  -1.26021811E+01  -8.44000183E+00  -1.95890130E+00  -4.37715553E+01  -6.62939881E+00  -8.06811283E+00  -4.63916275E+00  -7.79999079E+00  -7.17026281E+00  -7.77372758E+00  -8.09196118E+00  -1.02548721E+01  -8.94419707E+00  -7.10081722E+00  -6.34660876E+00  -1.21828147E+01  -6.16566320E+00  -1.38060037E+01  -6.72700176E+00  -1.01392699E+01  -1.49206795E+01  -1.49209413E+01  -2.02793766E+01  -1.12640834E+01  -2.01759819E+01  -2.01762879E+01  -2.92520437E+01  -3.02623350E+01
   1.83750000E+02   5.00000000E-01   5.00000000E-01  -7.03026730E+00  -1.49515589E+01  -3.33370489E+00  -1.31766521E+00  -1.96978845E+00  -3.33828750E+00  -1.99980319E+01  -6.95708555E+00  -5.10866170E+00  -4.61127659E+00  -5.86073910E+00  -4.18935249E+00  -5.45393318E+00  -8.83989765E+00  -8.92061225E+00  -2.61580786E-01  -4.16686457E+00  -1.95163041E+00  -2.35600842E+01  -3.33690784E-01  -1.80444597E+00  -7.74415429E+00  -3.39731540E+00  -5.99194986E+00  -4.40831078E+00  -2.77718976E+00  -8.67346002E+00  -1.31809392E+01  -1.26731183E+01  -1.09993787E+01  -1.34292490E+01  -9.05869956E+00  -8.47188063E+00  -1.09289905E+01  -1.42257337E+01  -2.37044310E+00  -5.08670800E+00  -3.19036987E+00  -4.18382093E+00  -8.40451868E+00  -2.92767382E+00  -4.49183344E+00  -6.72194549E+00  -6.39348064E+00  -4.18338023E+00  -6.93893538E+00  -6.79489420E+00  -1.15783989E+01  -7.62018822E+00  -1.35162825E+01  -1.40540962E+02  -2.38484653E+01  -6.48879348E+00  -1.17475953E+01  -1.17611063E+01  -7.62946844E+00  -3.20199290E+00  -9.85175116E+00  -3.67561058E+00  -6.02523309E+01  -1.25519970E+01  -8.43355879E+00  -1.96280578E+00  -4.35185385E+01  -6.62530824E+00  -8.08685625E+00  -4.63162523E+00  -7.73452999E+00  -7.14753363E+00  -7.79318684E+00  -8.08042343E+00  -1.02904038E+01  -8.95735386E+00  -7.08445588E+00  -6.34317942E+00  -1.21499389E+01  -6.16155173E+00  -1.37109101E+01  -6.71524436E+00  -1.01343639E+01  -1.49105496E+01  -1.49108103E+01  -2.02668389E+01  -1.12493727E+01  -2.01639742E+01  -2.01642792E+01  -2.92110660E+01  -3.01355221E+01
   2.01250000E+02   5.00000000E-01   5.00000000E-01  -6.98903823E+00  -1.49114158E+01  -3.30625852E+00  -1.31990122E+00  -1.96315260E+00  -3.30109158E+00  -1.99318066E+01  -6.93109673E+00  -5.10926747E+00  -4.61116804E+00  -5.86080388E+00  -4.15128476E+00  -5.41680386E+00  -8.83912238E+00  -8.92118290E+00  -2.61470739E-01  -4.16673682E+00  -1.95164112E+00  -2.33301163E+01  -3.33498260E-01  -1.80253997E+00  -7.74403142E+00  -3.39718784E+00  -6.00291957E+00  -4.40818321E+00  -2.76169133E+00  -8.67351295E+00  -1.31255382E+01  -1.26158254E+01  -1.09594153E+01  -1.33862491E+01  -9.01988556E+00  -8.43652628E+00  -1.09193208E+01  -1.41608842E+01  -2.37336893E+00  -5.11454726E+00  -3.17970007E+00  -4.18674548E+00  -8.36890907E+00  -2.91914632E+00  -4.43755410E+00  -6.67987237E+00  -6.34785608E+00  -4.14074350E+00  -6.92727648E+00  -6.79187414E+00  -1.15676761E+01  -7.60914722E+00  -1.34979614E+01  -1.39678638E+02  -2.35999271E+01  -6.46453167E+00  -1.16755665E+01  -1.17148344E+01  -7.56900291E+00  -3.19991578E+00  -9.83200634E+00  -3.67397833E+00  -5.98610564E+01  -1.25049445E+01  -8.42619235E+00  -1.96647866E+00  -4.32677952E+01  -6.62124261E+00  -8.10445464E+00  -4.62680206E+00  -7.67412405E+00  -7.12854256E+00  -7.81503540E+00  -8.06892611E+00  -1.03253551E+01  -8.96970766E+00  -7.06799528E+00  -6.33948853E+00  -1.21166382E+01  -6.15748777E+00  -1.36231104E+01  -6.70362105E+00  -1.01289303E+01  -1.48996115E+01  -1.48998710E+01  -2.02532501E+01  -1.12348190E+01  -2.01509103E+01  -2.01512140E+01  -2.91684197E+01  -3.00128878E+01
   2.18750000E+02   5.00000000E-01   5.00000000E-01  -6.94881899E+00  -1.48760064E+01  -3.27936948E+00  -1.32214797E+00  -1.95664153E+00  -3.26713306E+00  -1.98680099E+01  -6.90571900E+00  -5.10988487E+00  -4.61105079E+00  -5.86086303E+00  -4.11624212E+00  -5.38257172E+00  -8.83833784E+00  -8.92174455E+00  -2.61351578E-01  -4.16659885E+00  -1.95165632E+00  -2.31031793E+01  -3.33300713E-01  -1.80081292E+00  -7.74389831E+00  -3.39705005E+00  -6.01415843E+00  -4.40804542E+00  -2.74637533E+00  -8.67360700E+00  -1.30710509E+01  -1.25621191E+01  -1.09219650E+01  -1.33472702E+01  -8.98163292E+00  -8.40158872E+00  -1.09097382E+01  -1.40966255E+01  -2.37642744E+00  -5.14202335E+00  -3.16886971E+00  -4.18909213E+00  -8.33319359E+00  -2.91064742E+00  -4.38633916E+00  -6.64048954E+00  -6.30494995E+00  -4.10124383E+00  -6.91545654E+00  -6.78863440E+00  -1.15565988E+01  -7.59811721E+00  -1.34794760E+01  -1.38825398E+02  -2.33547948E+01  -6.44119912E+00  -1.16053330E+01  -1.16714358E+01  -7.50950520E+00  -3.19761404E+00  -9.81198090E+00  -3.67223565E+00  -5.94735903E+01  -1.24602015E+01  -8.41821335E+00  -1.96992688E+00  -4.30192958E+01  -6.61727390E+00  -8.12129079E+00  -4.62443624E+00  -7.61792514E+00  -7.11275300E+00  -7.83904881E+00  -8.05754369E+00  -1.03600754E+01  -8.98159781E+00  -7.05147979E+00  -6.33554880E+00  -1.20832095E+01  -6.15347868E+00  -1.35405632E+01  -6.69189726E+00  -1.01230344E+01  -1.48879638E+01  -1.48882224E+01  -2.02387414E+01  -1.12199551E+01  -2.01369214E+01  -2.01372237E+01  -2.91243057E+01  -2.98929736E+01
   2.36250000E+02   5.00000000E-01   5.00000000E-01  -6.90940742E+00  -1.48439376E+01  -3.25287905E+00  -1.32440762E+00  -1.95025110E+00  -3.23594475E+00  -1.98060422E+01  -6.88096485E+00  -5.11051306E+00  -4.61092509E+00  -5.86091685E+00  -4.08377518E+00  -5.35081335E+00  -8.83754434E+00  -8.92229749E+00  -2.61223613E-01  -4.16645096E+00  -1.95167575E+00  -2.28790330E+01  -3.33097990E-01  -1.79925436E+00  -7.74375529E+00  -3.39690234E+00  -6.02570780E+00  -4.40789771E+00  -2.73111920E+00  -8.67372490E+00  -1.30172846E+01  -1.25109995E+01  -1.08864114E+01  -1.33111187E+01  -8.94399199E+00  -8.36709177E+00  -1.09004812E+01  -1.40331558E+01  -2.37964330E+00  -5.16934602E+00  -3.15788765E+00  -4.19088453E+00  -8.29755842E+00  -2.90218287E+00  -4.33773350E+00  -6.60335555E+00  -6.26449141E+00  -4.06442456E+00  -6.90365632E+00  -6.78518633E+00  -1.15453587E+01  -7.58710367E+00  -1.34610134E+01  -1.37980740E+02  -2.31126456E+01  -6.41864876E+00  -1.15365550E+01  -1.16301082E+01  -7.45077680E+00  -3.19510034E+00  -9.79186627E+00  -3.67038661E+00  -5.90897022E+01  -1.24171645E+01  -8.40982329E+00  -1.97315746E+00  -4.27730111E+01  -6.61345960E+00  -8.13762368E+00  -4.62429334E+00  -7.56531801E+00  -7.09975170E+00  -7.86501667E+00  -8.04633595E+00  -1.03947915E+01  -8.99324906E+00  -7.03494787E+00  -6.33137233E+00  -1.20498411E+01  -6.14953155E+00  -1.34619187E+01  -6.68001847E+00  -1.01168128E+01  -1.48758119E+01  -1.48760698E+01  -2.02235862E+01  -1.12046741E+01  -2.01222808E+01  -2.01225816E+01  -2.90791376E+01  -2.97749006E+01
   2.53750000E+02   5.00000000E-01   5.00000000E-01  -6.87067253E+00  -1.48142675E+01  -3.22669522E+00  -1.32668170E+00  -1.94397737E+00  -3.20715800E+00  -1.97455174E+01  -6.85683140E+00  -5.11115126E+00  -4.61079119E+00  -5.86096564E+00  -4.05352752E+00  -5.32119173E+00  -8.83674217E+00  -8.92284201E+00  -2.61087134E-01  -4.16629342E+00  -1.95169917E+00  -2.26575095E+01  -3.32890017E-01  -1.79785453E+00  -7.74360263E+00  -3.39674499E+00  -6.03759850E+00  -4.40774036E+00  -2.71587814E+00  -8.67384957E+00  -1.29641174E+01  -1.24617758E+01  -1.08523059E+01  -1.32769812E+01  -8.90699339E+00  -8.33304330E+00  -1.08916974E+01  -1.39705873E+01  -2.38303746E+00  -5.19665090E+00  -3.14676234E+00  -4.19214528E+00  -8.26211898E+00  -2.89375819E+00  -4.29137994E+00  -6.56812626E+00  -6.22623711E+00  -4.02992717E+00  -6.89198620E+00  -6.78154072E+00  -1.15340766E+01  -7.57611175E+00  -1.34426900E+01  -1.37144309E+02  -2.28731997E+01  -6.39679347E+00  -1.14690238E+01  -1.15902879E+01  -7.39269034E+00  -3.19238673E+00  -9.77178295E+00  -3.66843528E+00  -5.87092330E+01  -1.23753969E+01  -8.40115244E+00  -1.97617740E+00  -4.25289124E+01  -6.60984580E+00  -8.15362968E+00  -4.62616222E+00  -7.51584593E+00  -7.08921283E+00  -7.89274487E+00  -8.03535111E+00  -1.04296496E+01  -9.00481110E+00  -7.01843365E+00  -6.32697066E+00  -1.20166503E+01  -6.14565310E+00  -1.33862858E+01  -6.66801477E+00  -1.01104156E+01  -1.48633816E+01  -1.48636391E+01  -2.02080850E+01  -1.11890382E+01  -2.01072889E+01  -2.01075885E+01  -2.90333697E+01  -2.96581494E+01
   2.71250000E+02   5.00000000E-01   5.00000000E-01  -6.83252963E+00  -1.47863656E+01  -3.20076898E+00  -1.32897136E+00  -1.93781659E+00  -3.18047662E+00  -1.96861885E+01  -6.83330812E+00  -5.11179870E+00  -4.61064932E+00  -5.86100966E+00  -4.02521171E+00  -5.29343415E+00  -8.83593157E+00  -8.92337837E+00  -2.60942413E-01  -4.16612652E+00  -1.95172637E+00  -2.24384880E+01  -3.32676761E-01  -1.79660430E+00  -7.74344059E+00  -3.39657827E+00  -6.04985301E+00  -4.40757364E+00  -2.70064649E+00  -8.67396427E+00  -1.29114731E+01  -1.24139762E+01  -1.08193266E+01  -1.32443093E+01  -8.87065680E+00  -8.29944303E+00  -1.08834781E+01  -1.39089785E+01  -2.38662825E+00  -5.22402532E+00  -3.13550181E+00  -4.19289598E+00  -8.22694480E+00  -2.88537870E+00  -4.24699317E+00  -6.53452884E+00  -6.18996988E+00  -3.99746518E+00  -6.88051098E+00  -6.77770782E+00  -1.15228274E+01  -7.56514622E+00  -1.34245762E+01  -1.36315844E+02  -2.26362700E+01  -6.37558359E+00  -1.14026135E+01  -1.15515832E+01  -7.33516477E+00  -3.18948470E+00  -9.75180530E+00  -3.66638574E+00  -5.83320700E+01  -1.23345881E+01  -8.39228456E+00  -1.97899363E+00  -4.22869713E+01  -6.60646942E+00  -8.16942966E+00  -4.62985478E+00  -7.46916213E+00  -7.08087421E+00  -7.92205658E+00  -8.02462811E+00  -1.04647414E+01  -9.01638449E+00  -7.00196789E+00  -6.32235475E+00  -1.19837084E+01  -6.14184975E+00  -1.33130788E+01  -6.65594846E+00  -1.01039791E+01  -1.48508777E+01  -1.48511354E+01  -2.01925108E+01  -1.11731738E+01  -2.00922186E+01  -2.00925172E+01  -2.89874147E+01  -2.95424229E+01
   2.88750000E+02   5.00000000E-01   5.00000000E-01  -6.79492430E+00  -1.47598169E+01  -3.17507898E+00  -1.33127751E+00  -1.93176518E+00  -3.15565892E+00  -1.96278990E+01  -6.81038073E+00  -5.11245460E+00  -4.61049969E+00  -5.86104915E+00  -3.99859257E+00  -5.26731687E+00  -8.83511281E+00  -8.92390682E+00  -2.60789709E-01  -4.16595048E+00  -1.95175715E+00  -2.22218793E+01  -3.32458210E-01  -1.79549516E+00  -7.74326944E+00  -3.39640242E+00  -6.06248720E+00  -4.40739779E+00  -2.68543614E+00  -8.67405275E+00  -1.28593054E+01  -1.23672836E+01  -1.07872465E+01  -1.32127397E+01  -8.83499562E+00  -8.26628633E+00  -1.08758780E+01  -1.38483541E+01  -2.39043208E+00  -5.25152507E+00  -3.12411371E+00  -4.19315722E+00  -8.19207549E+00  -2.87704951E+00  -4.20434183E+00  -6.50234383E+00  -6.15549685E+00  -3.96680619E+00  -6.86926591E+00  -6.77369735E+00  -1.15116555E+01  -7.55421149E+00  -1.34067125E+01  -1.35495146E+02  -2.24017304E+01  -6.35499255E+00  -1.13372515E+01  -1.15137277E+01  -7.27814931E+00  -3.18640517E+00  -9.73197762E+00  -3.66424206E+00  -5.79581309E+01  -1.22945222E+01  -8.38327296E+00  -1.98161300E+00  -4.20471602E+01  -6.60335994E+00  -8.18510674E+00  -4.63520481E+00  -7.42499745E+00  -7.07452099E+00  -7.95279202E+00  -8.01419831E+00  -1.05001228E+01  -9.02803734E+00  -6.98557881E+00  -6.31753498E+00  -1.19510564E+01  -6.13812753E+00  -1.32419156E+01  -6.64388691E+00  -1.00976145E+01  -1.48384677E+01  -1.48387262E+01  -2.01770864E+01  -1.11572175E+01  -2.00772927E+01  -2.00775908E+01  -2.89416099E+01  -2.94275604E+01
   3.06250000E+02   5.00000000E-01   5.00000000E-01  -6.75782194E+00  -1.47343555E+01  -3.14962162E+00  -1.33360091E+00  -1.92581971E+00  -3.13250504E+00  -1.95705522E+01  -6.78803318E+00  -5.11311821E+00  -4.61034251E+00  -5.86108435E+00  -3.97347527E+00  -5.24265405E+00  -8.83428610E+00  -8.92442758E+00  -2.60629266E-01  -4.16576555E+00  -1.95179130E+00  -2.20076151E+01  -3.32234365E-01  -1.79451916E+00  -7.74308938E+00  -3.39621768E+00  -6.07551150E+00  -4.40721305E+00  -2.67026488E+00  -8.67409932E+00  -1.28075874E+01  -1.23214911E+01  -1.07559098E+01  -1.31820386E+01  -8.80001947E+00  -8.23356634E+00  -1.08689289E+01  -1.37887178E+01  -2.39446393E+00  -5.27918531E+00  -3.11260530E+00  -4.19294867E+00  -8.15753125E+00  -2.86877547E+00  -4.16323584E+00  -6.47139250E+00  -6.12264720E+00  -3.93775917E+00  -6.85826708E+00  -6.76951851E+00  -1.15005859E+01  -7.54331165E+00  -1.33891197E+01  -1.34682056E+02  -2.21694948E+01  -6.33500761E+00  -1.12728982E+01  -1.14765448E+01  -7.22161296E+00  -3.18315850E+00  -9.71232457E+00  -3.66200824E+00  -5.75873534E+01  -1.22550536E+01  -8.37415099E+00  -1.98404223E+00  -4.18094514E+01  -6.60054062E+00  -8.20071792E+00  -4.64206630E+00  -7.38313840E+00  -7.06997420E+00  -7.98480747E+00  -8.00408671E+00  -1.05358246E+01  -9.03981636E+00  -6.96929256E+00  -6.31252122E+00  -1.19187160E+01  -6.13449211E+00  -1.31725508E+01  -6.63188975E+00  -1.00914059E+01  -1.48262779E+01  -1.48265380E+01  -2.01619800E+01  -1.11412904E+01  -2.00626793E+01  -2.00629774E+01  -2.88962105E+01  -2.93134843E+01