 TITLE = "Total Concentrations" 
VARIABLES = "X"          "Y"              "Z"            "H+"             "Al+++"          "CO2(aq)"        "Mg++"           "Ca++"           "Fe++"           "Fe+++"          "Cl-"            "K+"             "Na+"            "SiO2(aq)"       "SO4--"          "O2(aq)"         "B(OH)3(aq)"     "HPO4--"         "NO3-"           "H4SiO4(aq)"     "HNO3(aq)"       "Al(OH)2+"       "AlO2-"          "AlOH++"         "HCO3-"          "CO3--"          "CaCl+"          "CaCl2(aq)"      "CaOH+"          "CaSO4(aq)"      "FeCl+"          "FeCl2(aq)"      "FeOH+"          "FeSO4(aq)"      "OH-"            "HS-"            "H2S(aq)"        "H2PO4-"         "H3PO4(aq)"      "HAlO2(aq)"      "HSO4-"          "KCl(aq)"        "KOH(aq)"        "KSO4-"          "NH3(aq)"        "NaAlO2(aq)"     "NaOH(aq)"       "NaSO4-"         "H2(aq)"         "CaHPO4(aq)"     "CaPO4-"         "FeCO3(aq)"      "FeH2PO4+"       "FeHPO4(aq)"     "FePO4-"         "KHPO4-"         "PO4---"         "S--"           
 ZONE I=           1 , J=           1 , K=           1  F=POINT
   5.00000000E-01   5.00000000E-01   5.00000000E-01  -6.71083576E+00  -1.39651738E+01  -5.14701419E+00  -7.04607295E-01   1.16394597E+00  -7.41734760E+00  -1.29999998E+01  -2.65613323E+00  -1.92304388E+00  -2.37752620E+00  -3.76955103E+00  -8.57325595E+00  -3.74472744E+00  -3.39793996E+00  -1.20274205E+01  -4.40893555E+00   1.50905083E+00  -1.07083337E+01  -3.27014414E+00   1.49255391E+00  -8.41032048E+00  -5.62502147E+00  -9.38060629E+00  -2.62452529E-01  -3.29671794E+00  -1.91421525E-02  -4.03263687E+00  -7.77590937E+00  -1.20109673E+01  -6.57917595E+00  -1.21040390E+01  -4.57911156E+00  -8.72382679E+01  -8.72737100E+01  -1.08219008E+01  -1.42599425E+01  -1.80481392E-01  -1.06854911E+01  -4.22435434E+00  -5.77772676E+00  -8.56870388E+00  -3.84252273E+01  -3.28080107E-01  -6.85731762E+00  -9.27369980E+00  -2.54896916E+01  -5.85372178E+00  -6.52366902E+00  -1.05030739E+01  -1.55457484E+01  -1.51359126E+01  -1.64437769E+01  -1.03420744E+01  -1.79017173E+01  -9.39093741E+01
