 TITLE = "Total Concentrations" 
VARIABLES = "X"          "Y"              "Z"            "H+"             "Al+++"          "CO2(aq)"        "Mg++"           "Ca++"           "Fe++"           "Fe+++"          "Ba++"           "Sr++"           "Cl-"            "F-"             "K+"             "HS-"            "Na+"            "SO4--"          "O2(aq)"         "B(OH)3(aq)"     "HPO4--"         "NO3-"           "H4SiO4(aq)"     "HNO3(aq)"       "Al(OH)2+"       "AlO2-"          "AlOH++"         "BaHCO3+"        "BaCl+"          "BaCO3(aq)"      "BaOH+"          "HCO3-"          "CO3--"          "CaCl+"          "CaCl2(aq)"      "CaOH+"          "CaSO4(aq)"      "FeCl+"          "FeCl2(aq)"      "FeOH+"          "FeSO4(aq)"      "OH-"            "S2O3--"         "H2S(aq)"        "H2PO4-"         "H3PO4(aq)"      "HAlO2(aq)"      "HSO4-"          "KCl(aq)"        "KOH(aq)"        "KSO4-"          "NH3(aq)"        "NaAlO2(aq)"     "NaOH(aq)"       "NaSO4-"         "H2(aq)"         "CaHPO4(aq)"     "CaPO4-"         "FeCO3(aq)"      "FeH2PO4+"       "FeHPO4(aq)"     "FePO4-"         "KHPO4-"         "PO4---"         "Sr(CO3)(aq)"    "SrHCO3+"        "SrCl+"          "SrOH+"          "SrSO4(aq)"      "AlH3SiO4++"     "Si2O2(OH)5-"    "Si2O3(OH)4--"   "Si3O5(OH)5---"  "Si3O6(OH)3---"  "Si4O12H4----"   "Si4O6(OH)6--"   "Si4O7(OH)6----" "Si4O8(OH)4----" "Si6O15------"   "SiF6--"        
 ZONE I=         100 , J=           1 , K=           1  F=POINT
   1.75000000E+01   5.00000000E-01   5.00000000E-01  -7.68368442E+00  -1.65415490E+01  -3.81674382E+00  -1.29685937E+00  -1.82576562E+00  -4.79914296E+00  -1.25903841E+01  -6.71246820E+00  -5.10947672E+00  -2.62443634E-01  -4.16749098E+00  -1.95323981E+00  -1.00818737E+01  -3.37824062E-01  -1.74458940E+00  -3.74472739E+00  -3.39793991E+00  -5.91509357E+00  -4.40893528E+00  -3.19313965E+00  -1.39688316E+01  -1.39877730E+01  -1.17028065E+01  -1.48165605E+01  -8.92908161E+00  -8.31042375E+00  -1.02992624E+01  -1.41743427E+01  -2.34018740E+00  -4.59163924E+00  -3.07107186E+00  -3.90896621E+00  -8.34351837E+00  -2.71308838E+00  -6.11184101E+00  -8.20260212E+00  -7.71867558E+00  -5.60816504E+00  -6.85501972E+00  -1.57737819E+02  -1.07649326E+01  -6.98830232E+00  -1.29569369E+01  -1.27387365E+01  -8.38177362E+00  -3.21307409E+00  -9.84343822E+00  -3.60040254E+00  -7.25078514E+01  -1.33168305E+01  -8.28405377E+00  -1.82956041E+00  -4.81118488E+01  -6.47528420E+00  -7.48139782E+00  -5.53349302E+00  -9.68954782E+00  -8.45029481E+00  -8.44232310E+00  -8.21783464E+00  -9.75428718E+00  -8.62061457E+00  -7.24071233E+00  -6.37344179E+00  -1.22882162E+01  -6.12777682E+00  -1.58640208E+01  -7.13578346E+00  -1.02801162E+01  -1.51513463E+01  -1.51515882E+01  -2.05863164E+01  -1.19964770E+01  -2.04780435E+01  -2.04783115E+01  -2.98715033E+01  -3.25027620E+01
   5.25000000E+01   5.00000000E-01   5.00000000E-01  -7.55383839E+00  -1.61334655E+01  -3.71580794E+00  -1.30164270E+00  -1.69575757E+00  -4.49240149E+00  -1.29618843E+01  -6.71264018E+00  -5.11504874E+00  -2.62705949E-01  -4.16747746E+00  -1.95436819E+00  -1.00982249E+01  -3.39436737E-01  -1.67357255E+00  -3.74471387E+00  -3.39792639E+00  -5.95255405E+00  -4.40892176E+00  -3.04907254E+00  -1.38242413E+01  -1.36965809E+01  -1.15703053E+01  -1.44760350E+01  -8.91781114E+00  -8.30495174E+00  -1.03958305E+01  -1.41854099E+01  -2.34362403E+00  -4.69238347E+00  -2.94320896E+00  -3.80910934E+00  -8.24007090E+00  -2.52486840E+00  -5.78821616E+00  -7.90447266E+00  -7.47027231E+00  -5.23856091E+00  -6.90077053E+00  -1.56209631E+02  -1.06936821E+01  -6.91273997E+00  -1.27472421E+01  -1.25349461E+01  -8.16462990E+00  -3.21896690E+00  -9.88504752E+00  -3.53988595E+00  -7.18754287E+01  -1.31829536E+01  -8.34761794E+00  -1.77834659E+00  -4.77465351E+01  -6.38452436E+00  -7.49027035E+00  -5.34789366E+00  -9.31015789E+00  -8.20319443E+00  -8.32297425E+00  -8.23390784E+00  -9.88526457E+00  -8.71580643E+00  -7.22948699E+00  -6.38115386E+00  -1.23131212E+01  -6.07012796E+00  -1.53222379E+01  -6.93665899E+00  -1.01523437E+01  -1.49527371E+01  -1.49529884E+01  -2.03279619E+01  -1.16096110E+01  -2.02204514E+01  -2.02207340E+01  -2.94293735E+01  -3.19388766E+01
   8.75000000E+01   5.00000000E-01   5.00000000E-01  -7.47497348E+00  -1.59917130E+01  -3.66284385E+00  -1.30625545E+00  -1.61131998E+00  -4.31710134E+00  -1.31134067E+01  -6.71285119E+00  -5.11975981E+00  -2.62889758E-01  -4.16743786E+00  -1.95529176E+00  -1.01062831E+01  -3.40617617E-01  -1.62119325E+00  -3.74467428E+00  -3.39788680E+00  -5.98112676E+00  -4.40888217E+00  -2.98928826E+00  -1.37297748E+01  -1.35709514E+01  -1.15035122E+01  -1.43512660E+01  -8.90419094E+00  -8.29818968E+00  -1.04398834E+01  -1.41471211E+01  -2.34588652E+00  -4.74281359E+00  -2.85952658E+00  -3.75170756E+00  -8.13246728E+00  -2.39835209E+00  -5.59485987E+00  -7.73498663E+00  -7.30294366E+00  -5.01650852E+00  -6.89763745E+00  -1.54832612E+02  -1.06631328E+01  -6.87768872E+00  -1.26281779E+01  -1.24459183E+01  -8.01577583E+00  -3.22322763E+00  -9.87646154E+00  -3.49611852E+00  -7.12984492E+01  -1.31131613E+01  -8.36004659E+00  -1.74343895E+00  -4.73853524E+01  -6.32790655E+00  -7.48299989E+00  -5.24071148E+00  -9.10235906E+00  -8.07627927E+00  -8.27318569E+00  -8.23934332E+00  -9.95873032E+00  -8.75767300E+00  -7.21495060E+00  -6.38652473E+00  -1.22874925E+01  -6.02790389E+00  -1.50833781E+01  -6.85704415E+00  -1.00949608E+01  -1.48603677E+01  -1.48606253E+01  -2.02102079E+01  -1.14618896E+01  -2.01034529E+01  -2.01037459E+01  -2.92032110E+01  -3.16595106E+01
   1.22500000E+02   5.00000000E-01   5.00000000E-01  -7.40930725E+00  -1.59029857E+01  -3.62107738E+00  -1.31083132E+00  -1.55398502E+00  -4.19385245E+00  -1.31917854E+01  -6.71308609E+00  -5.12365506E+00  -2.63002164E-01  -4.16737367E+00  -1.95601658E+00  -1.01122933E+01  -3.41396247E-01  -1.58280904E+00  -3.74461008E+00  -3.39782260E+00  -6.00403960E+00  -4.40881797E+00  -2.95562712E+00  -1.36477263E+01  -1.34731484E+01  -1.14401717E+01  -1.42667333E+01  -8.88922320E+00  -8.29023420E+00  -1.04701785E+01  -1.40972287E+01  -2.34788420E+00  -4.78150706E+00  -2.80166372E+00  -3.71850791E+00  -8.04001104E+00  -2.31063644E+00  -5.45248693E+00  -7.61496330E+00  -7.17509008E+00  -4.85818526E+00  -6.88330328E+00  -1.53521830E+02  -1.06418524E+01  -6.84870487E+00  -1.25275890E+01  -1.23717056E+01  -7.89289795E+00  -3.22597015E+00  -9.85546277E+00  -3.46459240E+00  -7.07391172E+01  -1.30453218E+01  -8.35917586E+00  -1.72036054E+00  -4.70282323E+01  -6.29039741E+00  -7.48229991E+00  -5.17134260E+00  -8.95236149E+00  -7.99356035E+00  -8.25471767E+00  -8.23752325E+00  -1.00155413E+01  -8.78503209E+00  -7.19817080E+00  -6.38971642E+00  -1.22491525E+01  -5.99671896E+00  -1.49136407E+01  -6.81832272E+00  -1.00670516E+01  -1.48128155E+01  -1.48130768E+01  -2.01512378E+01  -1.13960644E+01  -2.00452310E+01  -2.00455310E+01  -2.90698977E+01  -3.14556447E+01
   1.57500000E+02   5.00000000E-01   5.00000000E-01  -7.34842570E+00  -1.58299158E+01  -3.58248024E+00  -1.31541832E+00  -1.51470566E+00  -4.09852631E+00  -1.32312164E+01  -6.71334110E+00  -5.12681184E+00  -2.63050696E-01  -4.16728619E+00  -1.95655792E+00  -1.01178623E+01  -3.41819775E-01  -1.55525578E+00  -3.74452260E+00  -3.39773512E+00  -6.02292970E+00  -4.40873049E+00  -2.93114533E+00  -1.35697689E+01  -1.33826573E+01  -1.13765233E+01  -1.41934926E+01  -8.87330091E+00  -8.28120596E+00  -1.04955171E+01  -1.40441460E+01  -2.34989695E+00  -4.81703543E+00  -2.76068859E+00  -3.70070116E+00  -7.96207175E+00  -2.24975406E+00  -5.33708199E+00  -7.52050650E+00  -7.07101808E+00  -4.73654465E+00  -6.86608929E+00  -1.52254094E+02  -1.06231468E+01  -6.81913417E+00  -1.24304858E+01  -1.23002332E+01  -7.78453981E+00  -3.22733475E+00  -9.83049691E+00  -3.44230401E+00  -7.01890487E+01  -1.29758283E+01  -8.35350882E+00  -1.70614555E+00  -4.66751309E+01  -6.26483018E+00  -7.48937027E+00  -5.12447154E+00  -8.82943454E+00  -7.93275854E+00  -8.25366028E+00  -8.23026319E+00  -1.00655716E+01  -8.80676566E+00  -7.17962657E+00  -6.39093557E+00  -1.22066057E+01  -5.97373880E+00  -1.47670061E+01  -6.79491630E+00  -1.00513621E+01  -1.47841289E+01  -1.47843919E+01  -2.01165636E+01  -1.13609502E+01  -2.00112973E+01  -2.00116014E+01  -2.89771537E+01  -3.12768971E+01
   1.92500000E+02   5.00000000E-01   5.00000000E-01  -7.28980602E+00  -1.57631343E+01  -3.54474621E+00  -1.32003634E+00  -1.48820616E+00  -4.02060934E+00  -1.32452695E+01  -6.71361456E+00  -5.12932285E+00  -2.63043042E-01  -4.16717662E+00  -1.95693764E+00  -1.01235046E+01  -3.41943073E-01  -1.53619858E+00  -3.74441303E+00  -3.39762555E+00  -6.03888535E+00  -4.40862092E+00  -2.91011383E+00  -1.34934693E+01  -1.32951905E+01  -1.13132603E+01  -1.41247101E+01  -8.85664952E+00  -8.27122938E+00  -1.05186534E+01  -1.39904067E+01  -2.35203524E+00  -4.85191032E+00  -2.73144049E+00  -3.69325298E+00  -7.89590605E+00  -2.20834829E+00  -5.23824438E+00  -7.44133866E+00  -6.98276414E+00  -4.63899446E+00  -6.84843331E+00  -1.51019673E+02  -1.06051216E+01  -6.78766596E+00  -1.23331148E+01  -1.22297725E+01  -7.68596574E+00  -3.22747339E+00  -9.80413713E+00  -3.42708867E+00  -6.96457730E+01  -1.29055381E+01  -8.34567415E+00  -1.69866739E+00  -4.63260189E+01  -6.24727088E+00  -7.50274807E+00  -5.09234625E+00  -8.72180722E+00  -7.88467354E+00  -8.26328706E+00  -8.21883790E+00  -1.01122497E+01  -8.82572220E+00  -7.15964235E+00  -6.39040568E+00  -1.21624893E+01  -5.95698563E+00  -1.46307769E+01  -6.77777313E+00  -1.00412729E+01  -1.47642999E+01  -1.47645632E+01  -2.00929695E+01  -1.13384083E+01  -1.99884355E+01  -1.99887416E+01  -2.89045461E+01  -3.11076226E+01
   2.27500000E+02   5.00000000E-01   5.00000000E-01  -7.23257220E+00  -1.56996201E+01  -3.50715789E+00  -1.32469516E+00  -1.47105543E+00  -3.95460115E+00  -1.32415564E+01  -6.71390544E+00  -5.13128555E+00  -2.62986636E-01  -4.16704603E+00  -1.95718075E+00  -1.01294076E+01  -3.41821446E-01  -1.52383768E+00  -3.74428244E+00  -3.39749496E+00  -6.05272222E+00  -4.40849033E+00  -2.89046367E+00  -1.34180378E+01  -1.32095174E+01  -1.12508465E+01  -1.40582545E+01  -8.83943518E+00  -8.26042401E+00  -1.05406411E+01  -1.39369006E+01  -2.35435559E+00  -4.88694851E+00  -2.71059762E+00  -3.69296436E+00  -7.83897043E+00  -2.18143511E+00  -5.15058091E+00  -7.37218619E+00  -6.90573253E+00  -4.55848352E+00  -6.83113382E+00  -1.49813201E+02  -1.05871980E+01  -6.75435839E+00  -1.22347351E+01  -1.21600091E+01  -7.59461630E+00  -3.22653779E+00  -9.77731735E+00  -3.41731445E+00  -6.91084725E+01  -1.28350760E+01  -8.33665661E+00  -1.69632898E+00  -4.59808736E+01  -6.23535045E+00  -7.52088922E+00  -5.07052538E+00  -8.62408758E+00  -7.84484079E+00  -8.27996130E+00  -8.20424552E+00  -1.01570906E+01  -8.84305342E+00  -7.13848715E+00  -6.38834930E+00  -1.21178006E+01  -5.94501462E+00  -1.45006188E+01  -6.76351336E+00  -1.00341938E+01  -1.47493637E+01  -1.47496262E+01  -2.00752976E+01  -1.13216430E+01  -1.99714875E+01  -1.99717939E+01  -2.88437300E+01  -3.09423912E+01
   2.62500000E+02   5.00000000E-01   5.00000000E-01  -7.17639938E+00  -1.56382562E+01  -3.46952250E+00  -1.32940068E+00  -1.46086545E+00  -3.89727931E+00  -1.32250792E+01  -6.71421299E+00  -5.13279399E+00  -2.62888306E-01  -4.16689539E+00  -1.95731245E+00  -1.01356436E+01  -3.41505958E-01  -1.51675852E+00  -3.74413180E+00  -3.39734432E+00  -6.06507855E+00  -4.40833969E+00  -2.87142446E+00  -1.33432295E+01  -1.31252064E+01  -1.11894473E+01  -1.39933464E+01  -8.82179521E+00  -8.24889971E+00  -1.05619538E+01  -1.38839649E+01  -2.35689469E+00  -4.92240474E+00  -2.69587218E+00  -3.69766175E+00  -7.78921193E+00  -2.16544025E+00  -5.07096721E+00  -7.31003594E+00  -6.83705227E+00  -4.49060517E+00  -6.81444478E+00  -1.48631175E+02  -1.05692263E+01  -6.71963400E+00  -1.21355152E+01  -1.20908752E+01  -7.50885898E+00  -3.22467097E+00  -9.75041914E+00  -3.41172370E+00  -6.85768757E+01  -1.27647564E+01  -8.32688312E+00  -1.69790297E+00  -4.56396737E+01  -6.22754711E+00  -7.54254953E+00  -5.05626551E+00  -8.53352061E+00  -7.81088001E+00  -8.30158334E+00  -8.18729449E+00  -1.02008940E+01  -8.85932740E+00  -7.11639723E+00  -6.38497544E+00  -1.20729801E+01  -5.93674328E+00  -1.43748531E+01  -6.75080853E+00  -1.00290414E+01  -1.47376209E+01  -1.47378821E+01  -2.00614019E+01  -1.13079628E+01  -1.99583071E+01  -1.99586125E+01  -2.87909214E+01  -3.07792545E+01
   2.97500000E+02   5.00000000E-01   5.00000000E-01  -7.12116253E+00  -1.55785902E+01  -3.43183129E+00  -1.33415734E+00  -1.45590525E+00  -3.84660138E+00  -1.31993731E+01  -6.71453667E+00  -5.13393354E+00  -2.62754057E-01  -4.16672557E+00  -1.95735608E+00  -1.01422416E+01  -3.41040933E-01  -1.51384311E+00  -3.74396198E+00  -3.39717450E+00  -6.07646000E+00  -4.40816987E+00  -2.85270788E+00  -1.32689910E+01  -1.30420853E+01  -1.11290917E+01  -1.39296695E+01  -8.80384863E+00  -8.23675431E+00  -1.05828442E+01  -1.38317324E+01  -2.35968163E+00  -4.95833683E+00  -2.68562274E+00  -3.70580676E+00  -7.74503140E+00  -2.15771857E+00  -4.99744823E+00  -7.25303293E+00  -6.77482856E+00  -4.43240466E+00  -6.79842623E+00  -1.47471068E+02  -1.05512042E+01  -6.68397116E+00  -1.20358723E+01  -1.20223581E+01  -7.42754639E+00  -3.22200200E+00  -9.72361757E+00  -3.40933965E+00  -6.80508990E+01  -1.26947405E+01  -8.31656867E+00  -1.70243801E+00  -4.53023946E+01  -6.22283909E+00  -7.56679069E+00  -5.04778274E+00  -8.44858052E+00  -7.78143583E+00  -8.32688440E+00  -8.16864349E+00  -1.02441442E+01  -8.87488220E+00  -7.09358142E+00  -6.38047198E+00  -1.20282547E+01  -5.93135090E+00  -1.42527531E+01  -6.73910421E+00  -1.00253144E+01  -1.47282539E+01  -1.47285135E+01  -2.00502982E+01  -1.12962283E+01  -1.99479096E+01  -1.99482134E+01  -2.87441446E+01  -3.06175309E+01
   3.32500000E+02   5.00000000E-01   5.00000000E-01  -7.06681173E+00  -1.55204214E+01  -3.39413978E+00  -1.33896898E+00  -1.45487204E+00  -3.80119611E+00  -1.31670642E+01  -6.71487610E+00  -5.13477968E+00  -2.62589069E-01  -4.16653737E+00  -1.95733238E+00  -1.01492130E+01  -3.40463642E-01  -1.51419502E+00  -3.74377378E+00  -3.39698630E+00  -6.08727309E+00  -4.40798167E+00  -2.83420947E+00  -1.31953354E+01  -1.29600764E+01  -1.10697555E+01  -1.38670821E+01  -8.78570131E+00  -8.22407385E+00  -1.06034727E+01  -1.37802555E+01  -2.36274272E+00  -4.99473472E+00  -2.67862573E+00  -3.71626752E+00  -7.70517886E+00  -2.15624995E+00  -4.92872977E+00  -7.19997185E+00  -6.71775818E+00  -4.38179522E+00  -6.78306798E+00  -1.46330927E+02  -1.05331786E+01  -6.64781318E+00  -1.19362560E+01  -1.19544596E+01  -7.34981702E+00  -3.21864516E+00  -9.69700410E+00  -3.40939080E+00  -6.75305203E+01  -1.26251196E+01  -8.30583978E+00  -1.70918369E+00  -4.49690081E+01  -6.22050904E+00  -7.59290939E+00  -5.04387288E+00  -8.36837153E+00  -7.75570223E+00  -8.35507575E+00  -8.14883461E+00  -1.02871686E+01  -8.88995352E+00  -7.07022521E+00  -6.37500488E+00  -1.19837608E+01  -5.92820214E+00  -1.41339583E+01  -6.72814919E+00  -1.00227470E+01  -1.47208068E+01  -1.47210652E+01  -2.00414706E+01  -1.12859107E+01  -1.99397790E+01  -1.99400809E+01  -2.87021957E+01  -3.04570143E+01
   3.67500000E+02   5.00000000E-01   5.00000000E-01  -7.01332539E+00  -1.54636513E+01  -3.35652288E+00  -1.34383925E+00  -1.45677801E+00  -3.76009841E+00  -1.31301291E+01  -6.71523107E+00  -5.13539631E+00  -2.62397657E-01  -4.16633151E+00  -1.95725879E+00  -1.01565626E+01  -3.39804081E-01  -1.51710362E+00  -3.74356793E+00  -3.39678045E+00  -6.09784115E+00  -4.40777582E+00  -2.81589557E+00  -1.31222956E+01  -1.28791398E+01  -1.10113977E+01  -1.38055139E+01  -8.76744800E+00  -8.21093230E+00  -1.06239550E+01  -1.37295527E+01  -2.36610353E+00  -5.03156940E+00  -2.67396217E+00  -3.72820499E+00  -7.66868642E+00  -2.15948915E+00  -4.86391335E+00  -7.15003139E+00  -6.66491060E+00  -4.33725596E+00  -6.76833576E+00  -1.45209209E+02  -1.05152087E+01  -6.61153721E+00  -1.18370709E+01  -1.18871845E+01  -7.27501242E+00  -3.21469862E+00  -9.67063151E+00  -3.41127406E+00  -6.70157298E+01  -1.25559506E+01  -8.29478013E+00  -1.71755413E+00  -4.46394801E+01  -6.22004556E+00  -7.62038603E+00  -5.04369424E+00  -8.29233150E+00  -7.73317201E+00  -8.38564529E+00  -8.12830809E+00  -1.03302002E+01  -8.90472067E+00  -7.04649094E+00  -6.36871610E+00  -1.19395883E+01  -5.92680809E+00  -1.40182586E+01  -6.71781719E+00  -1.00211773E+01  -1.47149902E+01  -1.47152478E+01  -2.00346088E+01  -1.12767362E+01  -1.99336047E+01  -1.99339048E+01  -2.86642537E+01  -3.02976772E+01
   4.02500000E+02   5.00000000E-01   5.00000000E-01  -6.96069206E+00  -1.54082262E+01  -3.31905784E+00  -1.34877174E+00  -1.46089997E+00  -3.72259826E+00  -1.30900074E+01  -6.71560150E+00  -5.13583324E+00  -2.62183212E-01  -4.16610866E+00  -1.95714881E+00  -1.01642923E+01  -3.39084772E-01  -1.52203261E+00  -3.74334508E+00  -3.39655760E+00  -6.10840931E+00  -4.40755297E+00  -2.79775908E+00  -1.30499062E+01  -1.27992520E+01  -1.09539748E+01  -1.37449264E+01  -8.74917341E+00  -8.19739165E+00  -1.06443811E+01  -1.36796257E+01  -2.36978986E+00  -5.06881192E+00  -2.67096738E+00  -3.74102262E+00  -7.63483576E+00  -2.16630389E+00  -4.80234530E+00  -7.10262337E+00  -6.61559484E+00  -4.29766936E+00  -6.75418896E+00  -1.44104720E+02  -1.04973526E+01  -6.57544113E+00  -1.17386451E+01  -1.18205372E+01  -7.20264777E+00  -3.21024373E+00  -9.64453101E+00  -3.41454266E+00  -6.65065115E+01  -1.24872700E+01  -8.28344820E+00  -1.72711646E+00  -4.43137709E+01  -6.22109773E+00  -7.64885739E+00  -5.04663565E+00  -8.22006802E+00  -7.71349059E+00  -8.41822957E+00  -8.10740689E+00  -1.03734017E+01  -8.91932294E+00  -7.02251655E+00  -6.36172119E+00  -1.18957964E+01  -5.92681218E+00  -1.39055114E+01  -6.70803706E+00  -1.00204963E+01  -1.47106032E+01  -1.47108609E+01  -2.00295045E+01  -1.12685464E+01  -1.99291783E+01  -1.99294770E+01  -2.86297276E+01  -3.01395566E+01
   4.37500000E+02   5.00000000E-01   5.00000000E-01  -6.90890345E+00  -1.53541119E+01  -3.28181890E+00  -1.35377006E+00  -1.46670040E+00  -3.68815694E+00  -1.30477650E+01  -6.71598748E+00  -5.13612912E+00  -2.61948394E-01  -4.16586942E+00  -1.95701275E+00  -1.01724027E+01  -3.38322444E-01  -1.52857420E+00  -3.74310584E+00  -3.39631835E+00  -6.11916481E+00  -4.40731373E+00  -2.77980219E+00  -1.29781975E+01  -1.27203961E+01  -1.08974447E+01  -1.36852956E+01  -8.73095443E+00  -8.18350404E+00  -1.06648257E+01  -1.36304682E+01  -2.37382814E+00  -5.10643898E+00  -2.66915389E+00  -3.75429134E+00  -7.60308726E+00  -2.17585473E+00  -4.74353474E+00  -7.05731273E+00  -6.56928369E+00  -4.26219623E+00  -6.74058705E+00  -1.43016512E+02  -1.04796629E+01  -6.53975894E+00  -1.16412399E+01  -1.17545201E+01  -7.13236091E+00  -3.20534806E+00  -9.61872137E+00  -3.41886362E+00  -6.60028392E+01  -1.24191017E+01  -8.27188722E+00  -1.73754908E+00  -4.39918356E+01  -6.22342116E+00  -7.67806849E+00  -5.05224254E+00  -8.15129117E+00  -7.69639708E+00  -8.45256060E+00  -8.08640030E+00  -1.04168891E+01  -8.93387291E+00  -6.99842065E+00  -6.35411448E+00  -1.18524242E+01  -5.92795238E+00  -1.37956047E+01  -6.69876297E+00  -1.00206225E+01  -1.47074951E+01  -1.47077540E+01  -2.00260034E+01  -1.12612377E+01  -1.99263455E+01  -1.99266435E+01  -2.85981692E+01  -2.99827090E+01
   4.72500000E+02   5.00000000E-01   5.00000000E-01  -6.85795172E+00  -1.53012832E+01  -3.24487577E+00  -1.35883783E+00  -1.47377527E+00  -3.65635509E+00  -1.30042006E+01  -6.71638914E+00  -5.13631390E+00  -2.61695300E-01  -4.16561434E+00  -1.95685841E+00  -1.01808941E+01  -3.37529401E-01  -1.53641663E+00  -3.74285075E+00  -3.39606327E+00  -6.13025145E+00  -4.40705864E+00  -2.76202952E+00  -1.29071946E+01  -1.26425577E+01  -1.08417682E+01  -1.36266043E+01  -8.71286163E+00  -8.16931358E+00  -1.06853534E+01  -1.35820696E+01  -2.37824551E+00  -5.14443440E+00  -2.66816081E+00  -3.76770060E+00  -7.57303134E+00  -2.18751427E+00  -4.68710325E+00  -7.01376894E+00  -6.52556537E+00  -4.23019522E+00  -6.72749189E+00  -1.41943820E+02  -1.04621857E+01  -6.50467405E+00  -1.15450615E+01  -1.16891335E+01  -7.06387878E+00  -3.20006801E+00  -9.59321361E+00  -3.42398803E+00  -6.55046765E+01  -1.23514611E+01  -8.26013034E+00  -1.74861258E+00  -4.36736262E+01  -6.22684406E+00  -7.70784031E+00  -5.06017014E+00  -8.08577604E+00  -7.68169050E+00  -8.48843369E+00  -8.06550120E+00  -1.04607460E+01  -8.94846418E+00  -6.97430659E+00  -6.34597334E+00  -1.18094976E+01  -5.93003531E+00  -1.36884427E+01  -6.68996155E+00  -1.00214918E+01  -1.47055475E+01  -1.47058089E+01  -2.00239832E+01  -1.12547349E+01  -1.99249837E+01  -1.99252822E+01  -2.85692277E+01  -2.98271926E+01
   5.07500000E+02   5.00000000E-01   5.00000000E-01  -6.80782854E+00  -1.52497187E+01  -3.20829355E+00  -1.36397874E+00  -1.48181833E+00  -3.62685928E+00  -1.29599177E+01  -6.71680666E+00  -5.13641068E+00  -2.61425583E-01  -4.16534391E+00  -1.95669165E+00  -1.01897659E+01  -3.36714594E-01  -1.54532068E+00  -3.74258033E+00  -3.39579285E+00  -6.14177983E+00  -4.40678822E+00  -2.74444552E+00  -1.28369174E+01  -1.25657234E+01  -1.07869094E+01  -1.35688381E+01  -8.69496048E+00  -8.15485780E+00  -1.07060215E+01  -1.35344168E+01  -2.38306981E+00  -5.18278884E+00  -2.66771930E+00  -3.78102537E+00  -7.54435439E+00  -2.20081123E+00  -4.63275260E+00  -6.97173518E+00  -6.48411176E+00  -4.20116914E+00  -6.71486836E+00  -1.40886012E+02  -1.04449610E+01  -6.47033001E+00  -1.14502714E+01  -1.16243753E+01  -6.99699423E+00  -3.19445090E+00  -9.56801353E+00  -3.42972974E+00  -6.50119782E+01  -1.22843575E+01  -8.24820368E+00  -1.76012892E+00  -4.33590915E+01  -6.23124508E+00  -7.73804772E+00  -5.07015283E+00  -8.02334082E+00  -7.66920981E+00  -8.52568764E+00  -8.04487866E+00  -1.05050332E+01  -8.96317639E+00  -6.95026560E+00  -6.33736153E+00  -1.17670331E+01  -5.93291813E+00  -1.35839378E+01  -6.68160615E+00  -1.00230508E+01  -1.47046633E+01  -1.47049288E+01  -2.00233426E+01  -1.12489787E+01  -1.99249915E+01  -1.99252917E+01  -2.85426221E+01  -2.96730608E+01
   5.42500000E+02   5.00000000E-01   5.00000000E-01  -6.75852478E+00  -1.51993986E+01  -3.17213310E+00  -1.36919646E+00  -1.49059591E+00  -3.59939967E+00  -1.29153758E+01  -6.71724026E+00  -5.13643729E+00  -2.61140557E-01  -4.16505861E+00  -1.95651682E+00  -1.01990174E+01  -3.35884453E-01  -1.55510230E+00  -3.74229502E+00  -3.39550754E+00  -6.15383489E+00  -4.40650292E+00  -2.72705357E+00  -1.27673808E+01  -1.24898796E+01  -1.07328346E+01  -1.35119837E+01  -8.67731224E+00  -8.14016884E+00  -1.07268822E+01  -1.34874954E+01  -2.38832953E+00  -5.22149916E+00  -2.66762841E+00  -3.79410305E+00  -7.51681452E+00  -2.21539044E+00  -4.58024348E+00  -6.93100818E+00  -6.44465703E+00  -4.17472788E+00  -6.70268448E+00  -1.39842561E+02  -1.04280229E+01  -6.43683878E+00  -1.13569955E+01  -1.15602417E+01  -6.93154946E+00  -3.18853673E+00  -9.54312340E+00  -3.43594994E+00  -6.45246920E+01  -1.22177954E+01  -8.23612821E+00  -1.77196634E+00  -4.30481789E+01  -6.23653821E+00  -7.76860400E+00  -5.08198359E+00  -7.96383345E+00  -7.65882160E+00  -8.56419200E+00  -8.02466733E+00  -1.05497943E+01  -8.97807863E+00  -6.92637923E+00  -6.32833205E+00  -1.17250401E+01  -5.93649556E+00  -1.34820078E+01  -6.67367398E+00  -1.00252543E+01  -1.47047615E+01  -1.47050329E+01  -2.00239945E+01  -1.12439199E+01  -1.99262820E+01  -1.99265853E+01  -2.85181239E+01  -2.95203596E+01
   5.77500000E+02   5.00000000E-01   5.00000000E-01  -6.71003050E+00  -1.51503028E+01  -3.13645150E+00  -1.37449471E+00  -1.49992870E+00  -3.57375470E+00  -1.28709268E+01  -6.71769012E+00  -5.13640747E+00  -2.60841273E-01  -4.16475885E+00  -1.95633709E+00  -1.02086471E+01  -3.35043536E-01  -1.56561963E+00  -3.74199527E+00  -3.39520779E+00  -6.16648140E+00  -4.40620316E+00  -2.70985573E+00  -1.26985957E+01  -1.24150117E+01  -1.06795127E+01  -1.34560279E+01  -8.65997462E+00  -8.12527441E+00  -1.07479840E+01  -1.34412901E+01  -2.39405366E+00  -5.26056750E+00  -2.66773761E+00  -3.80681702E+00  -7.49022380E+00  -2.23098382E+00  -4.52938091E+00  -6.89142464E+00  -6.40698278E+00  -4.15056221E+00  -6.69091117E+00  -1.38813016E+02  -1.04114007E+01  -6.40428712E+00  -1.12653306E+01  -1.14967267E+01  -6.86742378E+00  -3.18235959E+00  -9.51854299E+00  -3.44254558E+00  -6.40427598E+01  -1.21517758E+01  -8.22392114E+00  -1.78402805E+00  -4.27408345E+01  -6.24266219E+00  -7.79944980E+00  -5.09549979E+00  -7.90712314E+00  -7.65041235E+00  -8.60383879E+00  -8.00497450E+00  -1.05950597E+01  -8.99323200E+00  -6.90272124E+00  -6.31892921E+00  -1.16835229E+01  -5.94069043E+00  -1.33825736E+01  -6.66614468E+00  -1.00280627E+01  -1.47057730E+01  -1.47060521E+01  -2.00258630E+01  -1.12395157E+01  -1.99287789E+01  -1.99290871E+01  -2.84955445E+01  -2.93691273E+01
   6.12500000E+02   5.00000000E-01   5.00000000E-01  -6.66233498E+00  -1.51024110E+01  -3.10130239E+00  -1.37987720E+00  -1.50967826E+00  -3.54974016E+00  -1.28268422E+01  -6.71815644E+00  -5.13633182E+00  -2.60528581E-01  -4.16444503E+00  -1.95615480E+00  -1.02186528E+01  -3.34195012E-01  -1.57676317E+00  -3.74168145E+00  -3.39489397E+00  -6.17976810E+00  -4.40588934E+00  -2.69285278E+00  -1.26305693E+01  -1.23411046E+01  -1.06269141E+01  -1.34009570E+01  -8.64300223E+00  -8.11019855E+00  -1.07693722E+01  -1.33957857E+01  -2.40027155E+00  -5.30000048E+00  -2.66793403E+00  -3.81908463E+00  -7.46443516E+00  -2.24738880E+00  -4.48000405E+00  -6.85285178E+00  -6.37090756E+00  -4.12842485E+00  -6.67952210E+00  -1.37796986E+02  -1.03951187E+01  -6.37274144E+00  -1.11753501E+01  -1.14338226E+01  -6.80452458E+00  -3.17594880E+00  -9.49427046E+00  -3.44944075E+00  -6.35661193E+01  -1.20862966E+01  -8.21159690E+00  -1.79624377E+00  -4.24370035E+01  -6.24957293E+00  -7.83054500E+00  -5.11057311E+00  -7.85309483E+00  -7.64388326E+00  -8.64453697E+00  -7.98588547E+00  -1.06408500E+01  -9.00869141E+00  -6.87935906E+00  -6.30919045E+00  -1.16424824E+01  -5.94544665E+00  -1.32855580E+01  -6.65899948E+00  -1.00314408E+01  -1.47076376E+01  -1.47079266E+01  -2.00288802E+01  -1.12357274E+01  -1.99324144E+01  -1.99327295E+01  -2.84747258E+01  -2.92193947E+01
   6.47500000E+02   5.00000000E-01   5.00000000E-01  -6.61542682E+00  -1.50557013E+01  -3.06673628E+00  -1.38534761E+00  -1.51973708E+00  -3.52720144E+00  -1.27833326E+01  -6.71863935E+00  -5.13621851E+00  -2.60203173E-01  -4.16411751E+00  -1.95597161E+00  -1.02290319E+01  -3.33341038E-01  -1.58844827E+00  -3.74135392E+00  -3.39456644E+00  -6.19373071E+00  -4.40556181E+00  -2.67604434E+00  -1.25633060E+01  -1.22681416E+01  -1.05750107E+01  -1.33467561E+01  -8.62644694E+00  -8.09496226E+00  -1.07910895E+01  -1.33509668E+01  -2.40701265E+00  -5.33980841E+00  -2.66813295E+00  -3.83084826E+00  -7.43933258E+00  -2.26445217E+00  -4.43197892E+00  -6.81518063E+00  -6.33627923E+00  -4.10811648E+00  -6.66849341E+00  -1.36794128E+02  -1.03791972E+01  -6.34225155E+00  -1.10871081E+01  -1.13715203E+01  -6.74278045E+00  -3.16932973E+00  -9.47030288E+00  -3.45658015E+00  -6.30947050E+01  -1.20213534E+01  -8.19916782E+00  -1.80856336E+00  -4.21366313E+01  -6.25723787E+00  -7.86186273E+00  -5.12710223E+00  -7.80164542E+00  -7.63914684E+00  -8.68620843E+00  -7.96746754E+00  -1.06871775E+01  -9.02450695E+00  -6.85635484E+00  -6.29914769E+00  -1.16019168E+01  -5.95072387E+00  -1.31908854E+01  -6.65222068E+00  -1.00353571E+01  -1.47103024E+01  -1.47106034E+01  -2.00329847E+01  -1.12325196E+01  -1.99371272E+01  -1.99374512E+01  -2.84555332E+01  -2.90711848E+01
   6.82500000E+02   5.00000000E-01   5.00000000E-01  -6.56929406E+00  -1.50101504E+01  -3.03280073E+00  -1.39090960E+00  -1.53002094E+00  -3.50600766E+00  -1.27405635E+01  -6.71913898E+00  -5.13607393E+00  -2.59865625E-01  -4.16377660E+00  -1.95578868E+00  -1.02397809E+01  -3.32483034E-01  -1.60060939E+00  -3.74101301E+00  -3.39422553E+00  -6.20839426E+00  -4.40522091E+00  -2.65942900E+00  -1.24968078E+01  -1.21961051E+01  -1.05237756E+01  -1.32934091E+01  -8.61035803E+00  -8.07958399E+00  -1.08131769E+01  -1.33068182E+01  -2.41430637E+00  -5.38000457E+00  -2.66827069E+00  -3.84206873E+00  -7.41482367E+00  -2.28205789E+00  -4.38519298E+00  -6.77832114E+00  -6.30296935E+00  -4.08947531E+00  -6.65780355E+00  -1.35804134E+02  -1.03636531E+01  -6.31285350E+00  -1.10006425E+01  -1.13098090E+01  -6.68213594E+00  -3.16252461E+00  -9.44663669E+00  -3.46392403E+00  -6.26284489E+01  -1.19569398E+01  -8.18664471E+00  -1.82095189E+00  -4.18396631E+01  -6.26563187E+00  -7.89338484E+00  -5.14500736E+00  -7.75268105E+00  -7.63612440E+00  -8.72878524E+00  -7.94977321E+00  -1.07340479E+01  -9.04072484E+00  -6.83376626E+00  -6.28882838E+00  -1.15618226E+01  -5.95649360E+00  -1.30984809E+01  -6.64579131E+00  -1.00397827E+01  -1.47137201E+01  -1.47140353E+01  -2.00381202E+01  -1.12298591E+01  -1.99428611E+01  -1.99431962E+01  -2.84378507E+01  -2.89245143E+01