 TITLE = "Total Concentrations" 
VARIABLES = "X"          "Y"              "Z"            "H+"             "Al+++"          "CO2(aq)"        "Mg++"           "Ca++"           "Fe++"           "Fe+++"          "Ba++"           "Sr++"           "Cl-"            "F-"             "K+"             "HS-"            "Na+"            "SO4--"          "O2(aq)"         "B(OH)3(aq)"     "HPO4--"         "NO3-"           "H4SiO4(aq)"     "HNO3(aq)"       "Al(OH)2+"       "AlO2-"          "AlOH++"         "BaHCO3+"        "BaCl+"          "BaCO3(aq)"      "BaOH+"          "HCO3-"          "CO3--"          "CaCl+"          "CaCl2(aq)"      "CaOH+"          "CaSO4(aq)"      "FeCl+"          "FeCl2(aq)"      "FeOH+"          "FeSO4(aq)"      "OH-"            "S2O3--"         "H2S(aq)"        "H2PO4-"         "H3PO4(aq)"      "HAlO2(aq)"      "HSO4-"          "KCl(aq)"        "KOH(aq)"        "KSO4-"          "NH3(aq)"        "NaAlO2(aq)"     "NaOH(aq)"       "NaSO4-"         "H2(aq)"         "CaHPO4(aq)"     "CaPO4-"         "FeCO3(aq)"      "FeH2PO4+"       "FeHPO4(aq)"     "FePO4-"         "KHPO4-"         "PO4---"         "Sr(CO3)(aq)"    "SrHCO3+"        "SrCl+"          "SrOH+"          "SrSO4(aq)"      "AlH3SiO4++"     "Si2O2(OH)5-"    "Si2O3(OH)4--"   "Si3O5(OH)5---"  "Si3O6(OH)3---"  "Si4O12H4----"   "Si4O6(OH)6--"   "Si4O7(OH)6----" "Si4O8(OH)4----" "Si6O15------"   "SiF6--"        
 ZONE I=         100 , J=           1 , K=           1  F=POINT
   1.75000000E+01   5.00000000E-01   5.00000000E-01  -7.54429463E+00  -1.54534724E+01  -3.69460368E+00  -1.30484560E+00  -2.03772786E+00  -3.11452576E+00  -1.21258889E+01  -6.71255581E+00  -5.10348529E+00  -2.62137671E-01  -4.16748106E+00  -1.95177881E+00  -1.00356593E+01  -3.35185345E-01  -1.83563367E+00  -7.74480437E+00  -3.39792999E+00  -5.96456532E+00  -4.40892536E+00  -3.37896188E+00  -1.38225167E+01  -1.31388558E+01  -1.11073444E+01  -1.38512170E+01  -8.93496204E+00  -8.30398815E+00  -1.04356593E+01  -1.42806105E+01  -2.35378595E+00  -4.74047497E+00  -3.27944472E+00  -4.11959947E+00  -8.66655132E+00  -3.00803299E+00  -4.41894873E+00  -6.51134519E+00  -6.15298073E+00  -4.00539217E+00  -6.97429125E+00  -1.49352665E+02  -1.05867845E+01  -6.89787468E+00  -1.27233823E+01  -1.20153855E+01  -8.32504823E+00  -3.20757349E+00  -9.95538973E+00  -3.68634598E+00  -6.42364930E+01  -1.27141042E+01  -8.40077413E+00  -1.91674034E+00  -4.60182683E+01  -6.72595835E+00  -7.86702712E+00  -3.99231535E+00  -7.91199592E+00  -6.80937166E+00  -6.94328104E+00  -8.25437556E+00  -9.94205137E+00  -8.74926267E+00  -7.23920675E+00  -6.36284995E+00  -1.23905001E+01  -6.20250707E+00  -1.50725948E+01  -7.64205347E+00  -1.09147142E+01  -1.61067542E+01  -1.61069987E+01  -2.18535102E+01  -1.30146036E+01  -2.17454248E+01  -2.17456968E+01  -3.17983407E+01  -3.21580342E+01
   5.25000000E+01   5.00000000E-01   5.00000000E-01  -7.41690861E+00  -1.51369184E+01  -3.61040385E+00  -1.31706670E+00  -2.02355290E+00  -2.82398147E+00  -1.22231321E+01  -6.71295543E+00  -5.10429110E+00  -2.62131115E-01  -4.16743256E+00  -1.95165742E+00  -9.98984682E+00  -3.34593411E-01  -1.82877965E+00  -7.74484301E+00  -3.39788149E+00  -6.02201602E+00  -4.40887686E+00  -3.29249010E+00  -1.36695035E+01  -1.28610175E+01  -1.09348752E+01  -1.35682762E+01  -8.91753078E+00  -8.29031506E+00  -1.05102949E+01  -1.42287376E+01  -2.36281042E+00  -4.83328494E+00  -3.26368040E+00  -4.14004397E+00  -8.62412677E+00  -2.99400815E+00  -4.09861452E+00  -6.22355172E+00  -5.88107725E+00  -3.70804976E+00  -6.97842079E+00  -1.47404049E+02  -1.04723397E+01  -6.84759769E+00  -1.25362424E+01  -1.17986881E+01  -8.16155865E+00  -3.20871947E+00  -9.94655220E+00  -3.68666165E+00  -6.33557525E+01  -1.25321399E+01  -8.42349807E+00  -1.92978037E+00  -4.54734898E+01  -6.75979213E+00  -7.98642531E+00  -3.81346133E+00  -7.57238686E+00  -6.59735879E+00  -6.85849180E+00  -8.27157071E+00  -1.00816456E+01  -8.81427102E+00  -7.21415547E+00  -6.36107307E+00  -1.23514045E+01  -6.19519020E+00  -1.46222785E+01  -7.54195542E+00  -1.08592356E+01  -1.60184209E+01  -1.60186771E+01  -2.17370397E+01  -1.28340219E+01  -2.16300855E+01  -2.16303761E+01  -3.15819032E+01  -3.17101702E+01
   8.75000000E+01   5.00000000E-01   5.00000000E-01  -7.31804651E+00  -1.49769896E+01  -3.54896978E+00  -1.32847631E+00  -2.00996175E+00  -2.66808100E+00  -1.22387971E+01  -6.71338013E+00  -5.10519322E+00  -2.62075032E-01  -4.16732927E+00  -1.95156869E+00  -9.94675830E+00  -3.34013315E-01  -1.82301261E+00  -7.74482706E+00  -3.39777820E+00  -6.06205032E+00  -4.40877357E+00  -3.24591532E+00  -1.35442135E+01  -1.26866560E+01  -1.08134438E+01  -1.34147123E+01  -8.89617883E+00  -8.27540756E+00  -1.05551996E+01  -1.41529466E+01  -2.36918515E+00  -4.89767609E+00  -3.24681139E+00  -4.15710197E+00  -8.55732696E+00  -2.97968353E+00  -3.91171477E+00  -6.06712788E+00  -5.71746802E+00  -3.54442122E+00  -6.95828905E+00  -1.45544155E+02  -1.03857971E+01  -6.80646216E+00  -1.23857760E+01  -1.16583024E+01  -8.02620210E+00  -3.20843819E+00  -9.91252038E+00  -3.68630283E+00  -6.25157278E+01  -1.23998856E+01  -8.41930052E+00  -1.94159303E+00  -4.49387694E+01  -6.77474088E+00  -8.05902099E+00  -3.73818777E+00  -7.37677198E+00  -6.50084912E+00  -6.86053720E+00  -8.26992756E+00  -1.01780016E+01  -8.84981946E+00  -7.18512694E+00  -6.35780558E+00  -1.22878615E+01  -6.18771781E+00  -1.43467810E+01  -7.49572937E+00  -1.08321094E+01  -1.59725130E+01  -1.59727748E+01  -2.16772805E+01  -1.27606596E+01  -2.15714416E+01  -2.15717428E+01  -3.14499146E+01  -3.14080736E+01
   1.22500000E+02   5.00000000E-01   5.00000000E-01  -7.22489533E+00  -1.48418786E+01  -3.48905826E+00  -1.33902583E+00  -1.99691238E+00  -2.56815156E+00  -1.22409425E+01  -6.71382343E+00  -5.10617695E+00  -2.61972918E-01  -4.16717548E+00  -1.95150930E+00  -9.90966755E+00  -3.33438943E-01  -1.81816591E+00  -7.74476078E+00  -3.39762441E+00  -6.09253346E+00  -4.40861978E+00  -3.20576237E+00  -1.34239494E+01  -1.25294902E+01  -1.07021798E+01  -1.32815113E+01  -8.87242076E+00  -8.25939179E+00  -1.05945526E+01  -1.40758874E+01  -2.37427535E+00  -4.95763938E+00  -3.22894467E+00  -4.17104561E+00  -8.48881096E+00  -2.96509185E+00  -3.77971888E+00  -5.96369699E+00  -5.60624240E+00  -3.43591656E+00  -6.93648003E+00  -1.43726379E+02  -1.03078322E+01  -6.75967371E+00  -1.22344905E+01  -1.15307167E+01  -7.89616105E+00  -3.20687479E+00  -9.87600479E+00  -3.68526825E+00  -6.16933692E+01  -1.22766147E+01  -8.41100049E+00  -1.95220364E+00  -4.44138387E+01  -6.77886716E+00  -8.11569079E+00  -3.71208163E+00  -7.23167193E+00  -6.44917203E+00  -6.90156926E+00  -8.25753615E+00  -1.02616199E+01  -8.88007829E+00  -7.15364369E+00  -6.35318159E+00  -1.22225447E+01  -6.18013168E+00  -1.41032604E+01  -7.45913069E+00  -1.08118001E+01  -1.59367375E+01  -1.59370009E+01  -2.16311649E+01  -1.27060504E+01  -2.15264240E+01  -2.15267298E+01  -3.13378445E+01  -3.11276211E+01
   1.57500000E+02   5.00000000E-01   5.00000000E-01  -7.13471906E+00  -1.47159786E+01  -3.42886780E+00  -1.34873592E+00  -1.98436577E+00  -2.49891414E+00  -1.22376993E+01  -6.71428551E+00  -5.10723349E+00  -2.61828122E-01  -4.16697485E+00  -1.95147603E+00  -9.87805695E+00  -3.32868153E-01  -1.81411310E+00  -7.74464785E+00  -3.39742378E+00  -6.11789816E+00  -4.40841915E+00  -3.16805798E+00  -1.33060807E+01  -1.23792891E+01  -1.05961232E+01  -1.31557824E+01  -8.84714394E+00  -8.24238996E+00  -1.06318394E+01  -1.40001477E+01  -2.37882556E+00  -5.01648149E+00  -3.21017853E+00  -4.18212640E+00  -8.42116917E+00  -2.95028938E+00  -3.67747815E+00  -5.88825286E+00  -5.52480835E+00  -3.35735936E+00  -6.91551674E+00  -1.41944364E+02  -1.02353909E+01  -6.70907118E+00  -1.20815935E+01  -1.14083958E+01  -7.76872223E+00  -3.20416303E+00  -9.83964415E+00  -3.68358408E+00  -6.08857079E+01  -1.21575025E+01  -8.40134011E+00  -1.96166697E+00  -4.38984395E+01  -6.77678483E+00  -8.16378307E+00  -3.71341793E+00  -7.11363633E+00  -6.42161065E+00  -6.96361492E+00  -8.23903313E+00  -1.03395026E+01  -8.90852296E+00  -7.12059900E+00  -6.34732959E+00  -1.21580631E+01  -6.17250095E+00  -1.38745223E+01  -7.42684418E+00  -1.07956278E+01  -1.59070820E+01  -1.59073443E+01  -2.15933366E+01  -1.26595841E+01  -2.14896752E+01  -2.14899814E+01  -3.12377081E+01  -3.08544447E+01
   1.92500000E+02   5.00000000E-01   5.00000000E-01  -7.04726378E+00  -1.45979554E+01  -3.36885078E+00  -1.35769361E+00  -1.97228630E+00  -2.44871901E+00  -1.22300893E+01  -6.71476746E+00  -5.10835458E+00  -2.61643801E-01  -4.16673054E+00  -1.95146590E+00  -9.85112045E+00  -3.32298260E-01  -1.81075747E+00  -7.74449141E+00  -3.39717947E+00  -6.14084541E+00  -4.40817484E+00  -3.13243366E+00  -1.31904478E+01  -1.22351328E+01  -1.04946734E+01  -1.30364253E+01  -8.82100922E+00  -8.22451349E+00  -1.06678453E+01  -1.39258398E+01  -2.38336674E+00  -5.07482742E+00  -3.19060229E+00  -4.19057396E+00  -8.35451710E+00  -2.93534288E+00  -3.59346070E+00  -5.82939380E+00  -5.46172171E+00  -3.29720894E+00  -6.89545527E+00  -1.40196786E+02  -1.01675976E+01  -6.65723152E+00  -1.19295025E+01  -1.12906349E+01  -7.64367051E+00  -3.20042434E+00  -9.80359858E+00  -3.68129225E+00  -6.00922584E+01  -1.20420702E+01  -8.39057410E+00  -1.97005106E+00  -4.33923218E+01  -6.77135716E+00  -8.20641246E+00  -3.73139527E+00  -7.01358265E+00  -6.40933403E+00  -7.03810461E+00  -8.21730214E+00  -1.04144512E+01  -8.93592798E+00  -7.08665811E+00  -6.34036605E+00  -1.20945481E+01  -6.16490286E+00  -1.36587891E+01  -7.39828701E+00  -1.07831672E+01  -1.58829154E+01  -1.58831755E+01  -2.15629480E+01  -1.26201143E+01  -2.14603464E+01  -2.14606508E+01  -3.11482805E+01  -3.05876611E+01
   2.27500000E+02   5.00000000E-01   5.00000000E-01  -6.96243101E+00  -1.44873251E+01  -3.30945923E+00  -1.36601730E+00  -1.96064167E+00  -2.41118123E+00  -1.22188271E+01  -6.71527062E+00  -5.10953220E+00  -2.61422884E-01  -4.16644526E+00  -1.95147626E+00  -9.82822061E+00  -3.31726107E-01  -1.80802212E+00  -7.74429419E+00  -3.39689419E+00  -6.16306288E+00  -4.40788956E+00  -3.09872497E+00  -1.30770368E+01  -1.20966424E+01  -1.03974723E+01  -1.29230337E+01  -8.79452267E+00  -8.20586321E+00  -1.07030529E+01  -1.38529265E+01  -2.38828754E+00  -5.13301728E+00  -3.17029723E+00  -4.19659793E+00  -8.28882181E+00  -2.92032147E+00  -3.52138798E+00  -5.78096006E+00  -5.41064836E+00  -3.24918789E+00  -6.87621027E+00  -1.38482679E+02  -1.01038863E+01  -6.60586255E+00  -1.17799119E+01  -1.11771162E+01  -7.52095337E+00  -3.19576889E+00  -9.76787610E+00  -3.67844171E+00  -5.93126920E+01  -1.19300684E+01  -8.37879693E+00  -1.97742865E+00  -4.28952432E+01  -6.76441710E+00  -8.24550694E+00  -3.76017023E+00  -6.92682449E+00  -6.40775210E+00  -7.12055377E+00  -8.19419407E+00  -1.04881108E+01  -8.96276518E+00  -7.05233041E+00  -6.33239604E+00  -1.20319800E+01  -6.15741441E+00  -1.34552012E+01  -7.37313352E+00  -1.07740988E+01  -1.58637649E+01  -1.58640231E+01  -2.15393630E+01  -1.25870076E+01  -2.14378009E+01  -2.14381025E+01  -3.10686510E+01  -3.03271684E+01
   2.62500000E+02   5.00000000E-01   5.00000000E-01  -6.88007726E+00  -1.43833288E+01  -3.25098948E+00  -1.37383143E+00  -1.94940276E+00  -2.38244022E+00  -1.22047918E+01  -6.71579633E+00  -5.11075857E+00  -2.61168048E-01  -4.16612139E+00  -1.95150474E+00  -9.80888097E+00  -3.31148554E-01  -1.80584321E+00  -7.74405855E+00  -3.39657032E+00  -6.18562201E+00  -4.40756569E+00  -3.06669508E+00  -1.29657799E+01  -1.19632563E+01  -1.03040800E+01  -1.28149713E+01  -8.76808057E+00  -8.18653016E+00  -1.07378878E+01  -1.37814211E+01  -2.39387832E+00  -5.19134968E+00  -3.14933735E+00  -4.20038988E+00  -8.22410214E+00  -2.90529186E+00  -3.45749532E+00  -5.73929537E+00  -5.36782436E+00  -3.20953697E+00  -6.85775432E+00  -1.36801027E+02  -1.00437943E+01  -6.55600059E+00  -1.16337913E+01  -1.10673862E+01  -7.40047494E+00  -3.19029656E+00  -9.73253315E+00  -3.67508290E+00  -5.85466369E+01  -1.18211553E+01  -8.36614439E+00  -1.98387222E+00  -4.24069694E+01  -6.75716624E+00  -8.28240720E+00  -3.79636237E+00  -6.85052882E+00  -6.41417338E+00  -7.20842106E+00  -8.17092605E+00  -1.05615665E+01  -8.98944890E+00  -7.01801475E+00  -6.32351432E+00  -1.19703882E+01  -6.15010768E+00  -1.32626153E+01  -7.35096247E+00  -1.07680565E+01  -1.58490873E+01  -1.58493449E+01  -2.15218516E+01  -1.25594386E+01  -2.14213081E+01  -2.14216072E+01  -3.09977645E+01  -3.00725714E+01
   2.97500000E+02   5.00000000E-01   5.00000000E-01  -6.80004600E+00  -1.42851355E+01  -3.19364796E+00  -1.38125258E+00  -1.93854337E+00  -2.36001442E+00  -1.21888635E+01  -6.71634581E+00  -5.11202613E+00  -2.60881731E-01  -4.16576097E+00  -1.95154930E+00  -9.79273650E+00  -3.30562768E-01  -1.80416588E+00  -7.74378654E+00  -3.39620990E+00  -6.20920346E+00  -4.40720527E+00  -3.03609319E+00  -1.28565882E+01  -1.18343693E+01  -1.02140492E+01  -1.27115426E+01  -8.74200311E+00  -8.16659633E+00  -1.07727191E+01  -1.37113553E+01  -2.40036397E+00  -5.25008157E+00  -3.12779012E+00  -4.20212480E+00  -8.16039636E+00  -2.89031575E+00  -3.39938754E+00  -5.70210345E+00  -5.33087863E+00  -3.17586755E+00  -6.84008498E+00  -1.35150812E+02  -9.98694557E+00  -6.50826881E+00  -1.14916761E+01  -1.09609618E+01  -7.28212485E+00  -3.18409790E+00  -9.69764240E+00  -3.67126477E+00  -5.77937105E+01  -1.17149718E+01  -8.35276223E+00  -1.98945139E+00  -4.19272733E+01  -6.75040169E+00  -8.31806167E+00  -3.83791055E+00  -6.78282896E+00  -6.42688605E+00  -7.30015735E+00  -8.14830845E+00  -1.06355356E+01  -9.01633743E+00  -6.98403329E+00  -6.31380620E+00  -1.19098192E+01  -6.14304751E+00  -1.30798321E+01  -7.33134170E+00  -1.07646798E+01  -1.58383473E+01  -1.58386065E+01  -2.15096953E+01  -1.25365589E+01  -2.14101488E+01  -2.14104468E+01  -3.09345791E+01  -2.98233717E+01
   3.32500000E+02   5.00000000E-01   5.00000000E-01  -6.72219235E+00  -1.41919942E+01  -3.13759964E+00  -1.38838348E+00  -1.92803999E+00  -2.34224270E+00  -1.21718183E+01  -6.71692006E+00  -5.11332745E+00  -2.60566140E-01  -4.16536581E+00  -1.95160814E+00  -9.77949728E+00  -3.29966335E-01  -1.80294186E+00  -7.74347997E+00  -3.39581475E+00  -6.23422946E+00  -4.40681012E+00  -3.00669486E+00  -1.27493769E+01  -1.17094348E+01  -1.01269780E+01  -1.26121203E+01  -8.71655810E+00  -8.14613531E+00  -1.08078583E+01  -1.36427535E+01  -2.40792680E+00  -5.30942561E+00  -3.10571696E+00  -4.20196249E+00  -8.09773710E+00  -2.87544866E+00  -3.34548119E+00  -5.66789102E+00  -5.29824986E+00  -3.14660212E+00  -6.82319926E+00  -1.33531066E+02  -9.93303942E+00  -6.46303499E+00  -1.13538508E+01  -1.08574088E+01  -7.16580139E+00  -3.17725488E+00  -9.66326804E+00  -3.66703320E+00  -5.70535446E+01  -1.16111956E+01  -8.33878206E+00  -1.99423162E+00  -4.14559349E+01  -6.74464963E+00  -8.35313553E+00  -3.88351333E+00  -6.72242379E+00  -6.44473243E+00  -7.39475567E+00  -8.12687867E+00  -1.07104749E+01  -9.04373166E+00  -6.95065535E+00  -6.30334834E+00  -1.18503117E+01  -6.13629048E+00  -1.29057632E+01  -7.31388388E+00  -1.07636449E+01  -1.58310639E+01  -1.58313278E+01  -2.15022482E+01  -1.25176089E+01  -2.14036768E+01  -2.14039762E+01  -3.08781585E+01  -2.95791100E+01
   3.67500000E+02   5.00000000E-01   5.00000000E-01  -6.64639027E+00  -1.41032787E+01  -3.08299102E+00  -1.39531127E+00  -1.91787151E+00  -2.32798146E+00  -1.21542986E+01  -6.71751982E+00  -5.11465518E+00  -2.60223280E-01  -4.16493749E+00  -1.95167971E+00  -9.76892527E+00  -3.29357267E-01  -1.80212802E+00  -7.74314041E+00  -3.39538643E+00  -6.26094494E+00  -4.40638180E+00  -2.97831342E+00  -1.26440735E+01  -1.15879959E+01  -1.00425251E+01  -1.25161832E+01  -8.69197674E+00  -8.12521298E+00  -1.08435677E+01  -1.35756262E+01  -2.41672156E+00  -5.36955718E+00  -3.08317373E+00  -4.20004878E+00  -8.03614379E+00  -2.86073959E+00  -3.29470231E+00  -5.63566627E+00  -5.26887627E+00  -3.12067132E+00  -6.80708555E+00  -1.31940878E+02  -9.88183598E+00  -6.42050058E+00  -1.12204460E+01  -1.07563647E+01  -7.05141806E+00  -3.16984158E+00  -9.62945835E+00  -3.66243037E+00  -5.63257925E+01  -1.15095569E+01  -8.32431447E+00  -1.99827367E+00  -4.09927411E+01  -6.74024757E+00  -8.38808577E+00  -3.93233442E+00  -6.66836386E+00  -6.46688784E+00  -7.49152283E+00  -8.10698352E+00  -1.07866535E+01  -9.07188316E+00  -6.91811314E+00  -6.29220936E+00  -1.17918891E+01  -6.12988477E+00  -1.27394789E+01  -7.29826187E+00  -1.07646726E+01  -1.58268228E+01  -1.58270952E+01  -2.14989536E+01  -1.25019483E+01  -2.14013352E+01  -2.14016391E+01  -3.08276964E+01  -2.93394088E+01
   4.02500000E+02   5.00000000E-01   5.00000000E-01  -6.57253174E+00  -1.40184815E+01  -3.02995937E+00  -1.40210820E+00  -1.90801902E+00  -2.31642700E+00  -1.21368200E+01  -6.71814552E+00  -5.11600194E+00  -2.59854971E-01  -4.16447740E+00  -1.95176264E+00  -9.76081945E+00  -3.28733967E-01  -1.80168546E+00  -7.74276924E+00  -3.39492633E+00  -6.28946964E+00  -4.40592171E+00  -2.95079880E+00  -1.25406171E+01  -1.14696801E+01  -9.96040584E+00  -1.24233105E+01  -8.66846360E+00  -8.10388807E+00  -1.08800704E+01  -1.35099701E+01  -2.42688468E+00  -5.43062378E+00  -3.06021117E+00  -4.19651661E+00  -7.97562306E+00  -2.84623109E+00  -3.24630959E+00  -5.60476270E+00  -5.24201889E+00  -3.09733665E+00  -6.79172369E+00  -1.30379394E+02  -9.83314101E+00  -6.38075264E+00  -1.10914901E+01  -1.06575349E+01  -6.93890259E+00  -3.16192488E+00  -9.59624643E+00  -3.65749461E+00  -5.56101283E+01  -1.14098352E+01  -8.30945008E+00  -2.00163349E+00  -4.05374857E+01  -6.73739736E+00  -8.42321512E+00  -3.98383575E+00  -6.61992567E+00  -6.49273576E+00  -7.58995536E+00  -8.08883247E+00  -1.08642052E+01  -9.10100463E+00  -6.88661186E+00  -6.28045046E+00  -1.17345601E+01  -6.12387031E+00  -1.25802005E+01  -7.28420711E+00  -1.07675272E+01  -1.58252745E+01  -1.58255596E+01  -2.14993416E+01  -1.24890532E+01  -2.14026539E+01  -2.14029663E+01  -3.07825141E+01  -2.91039708E+01
   4.37500000E+02   5.00000000E-01   5.00000000E-01  -6.50052379E+00  -1.39371942E+01  -2.97863558E+00  -1.40883319E+00  -1.89846560E+00  -2.30700556E+00  -1.21197885E+01  -6.71879732E+00  -5.11736033E+00  -2.59462878E-01  -4.16398676E+00  -1.95185577E+00  -9.75500587E+00  -3.28095178E-01  -1.80157892E+00  -7.74236771E+00  -3.39443569E+00  -6.31983299E+00  -4.40543106E+00  -2.92403159E+00  -1.24389565E+01  -1.13541863E+01  -9.88038471E+00  -1.23331657E+01  -8.64620253E+00  -8.08221285E+00  -1.09175588E+01  -1.34457706E+01  -2.43853951E+00  -5.49275253E+00  -3.03687530E+00  -4.19148711E+00  -7.91617142E+00  -2.83195960E+00  -3.19978498E+00  -5.57473031E+00  -5.21715456E+00  -3.07608113E+00  -6.77708728E+00  -1.28845808E+02  -9.78679368E+00  -6.34379628E+00  -1.09669388E+01  -1.05606824E+01  -6.82819400E+00  -3.15356502E+00  -9.56365302E+00  -3.65226040E+00  -5.49062447E+01  -1.13118527E+01  -8.29426276E+00  -2.00436236E+00  -4.00899687E+01  -6.73620097E+00  -8.45871092E+00  -4.03767622E+00  -6.57653413E+00  -6.52179317E+00  -7.68966797E+00  -8.07253363E+00  -1.09431659E+01  -9.13127834E+00  -6.85633554E+00  -6.26812605E+00  -1.16783218E+01  -6.11827936E+00  -1.24272774E+01  -7.27150053E+00  -1.07720104E+01  -1.58261251E+01  -1.58264277E+01  -2.15030172E+01  -1.24784980E+01  -2.14072378E+01  -2.14075631E+01  -3.07420416E+01  -2.88725635E+01
   4.72500000E+02   5.00000000E-01   5.00000000E-01  -6.43028516E+00  -1.38590864E+01  -2.92914380E+00  -1.41553373E+00  -1.88919612E+00  -2.29930225E+00  -1.21035196E+01  -6.71947514E+00  -5.11872291E+00  -2.59048527E-01  -4.16346664E+00  -1.95195808E+00  -9.75133083E+00  -3.27439928E-01  -1.80177636E+00  -7.74193687E+00  -3.39391557E+00  -6.35199867E+00  -4.40491095E+00  -2.89791663E+00  -1.23390471E+01  -1.12412699E+01  -9.80226643E+00  -1.22454787E+01  -8.62535966E+00  -8.06023363E+00  -1.09562010E+01  -1.33830057E+01  -2.45179858E+00  -5.55605519E+00  -3.01320784E+00  -4.18507056E+00  -7.85777830E+00  -2.81795590E+00  -3.15476321E+00  -5.54526568E+00  -5.19390820E+00  -3.05653881E+00  -6.76314636E+00  -1.27339353E+02  -9.74265713E+00  -6.30957645E+00  -1.08466948E+01  -1.04656159E+01  -6.71923948E+00  -3.14481617E+00  -9.53168970E+00  -3.64675864E+00  -5.42138488E+01  -1.12154654E+01  -8.27881318E+00  -2.00650708E+00  -3.96499961E+01  -6.73668590E+00  -8.49467389E+00  -4.09364672E+00  -6.53771329E+00  -6.55366462E+00  -7.79035091E+00  -8.05811919E+00  -1.10235008E+01  -9.16286210E+00  -6.82745002E+00  -6.25528430E+00  -1.16231624E+01  -6.11313703E+00  -1.22801617E+01  -7.25996290E+00  -1.07779550E+01  -1.58291267E+01  -1.58294521E+01  -2.15096466E+01  -1.24699358E+01  -2.14147533E+01  -2.14150964E+01  -3.07057988E+01  -2.86450016E+01
   5.07500000E+02   5.00000000E-01   5.00000000E-01  -6.36174349E+00  -1.37838867E+01  -2.88159955E+00  -1.42224770E+00  -1.88019710E+00  -2.29301369E+00  -1.20882569E+01  -6.72017876E+00  -5.12008224E+00  -2.58613327E-01  -4.16291802E+00  -1.95206869E+00  -9.74965616E+00  -3.26767483E-01  -1.80224868E+00  -7.74147770E+00  -3.39336695E+00  -6.38588276E+00  -4.40436233E+00  -2.87237754E+00  -1.22408484E+01  -1.11307296E+01  -9.72588801E+00  -1.21600298E+01  -8.60608436E+00  -8.03799143E+00  -1.09961439E+01  -1.33216482E+01  -2.46676400E+00  -5.62063076E+00  -2.98924653E+00  -4.17736726E+00  -7.80042856E+00  -2.80424556E+00  -3.11098498E+00  -5.51616569E+00  -5.17200824E+00  -3.03844812E+00  -6.74986955E+00  -1.25859300E+02  -9.70061152E+00  -6.27799384E+00  -1.07306206E+01  -1.03721800E+01  -6.61199188E+00  -3.13572696E+00  -9.50036161E+00  -3.64101688E+00  -5.35326603E+01  -1.11205561E+01  -8.26315173E+00  -2.00811032E+00  -3.92173801E+01  -6.73882412E+00  -8.53113993E+00  -4.15162635E+00  -6.50305483E+00  -6.58801351E+00  -7.89174407E+00  -8.04556459E+00  -1.11051247E+01  -9.19589270E+00  -6.80010402E+00  -6.24196772E+00  -1.15690643E+01  -6.10846201E+00  -1.21383862E+01  -7.24944656E+00  -1.07852189E+01  -1.58340691E+01  -1.58344226E+01  -2.15189467E+01  -1.24630824E+01  -2.14249173E+01  -2.14252835E+01  -3.06733788E+01  -2.84211324E+01
   5.42500000E+02   5.00000000E-01   5.00000000E-01  -6.29483325E+00  -1.37113688E+01  -2.83610724E+00  -1.42900501E+00  -1.87145659E+00  -2.28791575E+00  -1.20741860E+01  -6.72090791E+00  -5.12143097E+00  -2.58158588E-01  -4.16234173E+00  -1.95218685E+00  -9.74985575E+00  -3.26077303E-01  -1.80296941E+00  -7.74099105E+00  -3.39279066E+00  -6.42136778E+00  -4.40378604E+00  -2.84735240E+00  -1.21443226E+01  -1.10223977E+01  -9.65111235E+00  -1.20766376E+01  -8.58850903E+00  -8.01552250E+00  -1.10375150E+01  -1.32616676E+01  -2.48352650E+00  -5.68656615E+00  -2.96502553E+00  -4.16846844E+00  -7.74410435E+00  -2.79084947E+00  -3.06826516E+00  -5.48729622E+00  -5.15125647E+00  -3.02162025E+00  -6.73722570E+00  -1.24404947E+02  -9.66054903E+00  -6.24891720E+00  -1.06185495E+01  -1.02802465E+01  -6.50640782E+00  -3.12634091E+00  -9.46966939E+00  -3.63505958E+00  -5.28624091E+01  -1.10270282E+01  -8.24732083E+00  -2.00921088E+00  -3.87919385E+01  -6.74254681E+00  -8.56809699E+00  -4.21155175E+00  -6.47219812E+00  -6.62454426E+00  -7.99362122E+00  -8.03480329E+00  -1.11879177E+01  -9.23048749E+00  -6.77442884E+00  -6.22821374E+00  -1.15160059E+01  -6.10426730E+00  -1.20015470E+01  -7.23982870E+00  -1.07936807E+01  -1.58407725E+01  -1.58411598E+01  -2.15306752E+01  -1.24577025E+01  -2.14374876E+01  -2.14378825E+01  -3.06444333E+01  -2.82008249E+01
   5.77500000E+02   5.00000000E-01   5.00000000E-01  -6.22949424E+00  -1.36413411E+01  -2.79275749E+00  -1.43582897E+00  -1.86296404E+00  -2.28384117E+00  -1.20614462E+01  -6.72166245E+00  -5.12276201E+00  -2.57685534E-01  -4.16173854E+00  -1.95231192E+00  -9.75181307E+00  -3.25369008E-01  -1.80391454E+00  -7.74047766E+00  -3.39218747E+00  -6.45831373E+00  -4.40318285E+00  -2.82279057E+00  -1.20494333E+01  -1.09161321E+01  -9.57782338E+00  -1.19951501E+01  -8.57274796E+00  -7.99285893E+00  -1.10804221E+01  -1.32030321E+01  -2.50216368E+00  -5.75393538E+00  -2.94057571E+00  -4.15845698E+00  -7.68878639E+00  -2.77778433E+00  -3.02647090E+00  -5.45857064E+00  -5.13150712E+00  -3.00591740E+00  -6.72518476E+00  -1.22975621E+02  -9.62237045E+00  -6.22219342E+00  -1.05102946E+01  -1.01897089E+01  -6.40244656E+00  -3.11669691E+00  -9.43961062E+00  -3.62890842E+00  -5.22028339E+01  -1.09348014E+01  -8.23135653E+00  -2.00984400E+00  -3.83734947E+01  -6.74775609E+00  -8.60549835E+00  -4.27339484E+00  -6.44481792E+00  -6.66299141E+00  -8.09578068E+00  -8.02573861E+00  -1.12717374E+01  -9.26674445E+00  -6.75053733E+00  -6.21405535E+00  -1.14639635E+01  -6.10056087E+00  -1.18692908E+01  -7.23100632E+00  -1.08032355E+01  -1.58490819E+01  -1.58495088E+01  -2.15446233E+01  -1.24535998E+01  -2.14522556E+01  -2.14526850E+01  -3.06186624E+01  -2.79839624E+01
   6.12500000E+02   5.00000000E-01   5.00000000E-01  -6.16567070E+00  -1.35736394E+01  -2.75162452E+00  -1.44273750E+00  -1.85471020E+00  -2.28066392E+00  -1.20501393E+01  -6.72244248E+00  -5.12406869E+00  -2.57195315E-01  -4.16110911E+00  -1.95244337E+00  -9.75541928E+00  -3.24642347E-01  -1.80506233E+00  -7.73993821E+00  -3.39155804E+00  -6.49656698E+00  -4.40255342E+00  -2.79865039E+00  -1.19561452E+01  -1.08118115E+01  -9.50592247E+00  -1.19154388E+01  -8.55889585E+00  -7.97002917E+00  -1.11249532E+01  -1.31457090E+01  -2.52273798E+00  -5.82279803E+00  -2.91592500E+00  -4.14740818E+00  -7.63445467E+00  -2.76506306E+00  -2.98550637E+00  -5.42993499E+00  -5.11265212E+00  -2.99123768E+00  -6.71371829E+00  -1.21570672E+02  -9.58598283E+00  -6.19765582E+00  -1.04056563E+01  -1.01004780E+01  -6.30006926E+00  -3.10682962E+00  -9.41018058E+00  -3.62258254E+00  -5.15536814E+01  -1.08438086E+01  -8.21528957E+00  -2.01004168E+00  -3.79618773E+01  -6.75433456E+00  -8.64327307E+00  -4.33714632E+00  -6.42061700E+00  -6.70311322E+00  -8.19803975E+00  -8.01825330E+00  -1.13564282E+01  -9.30474146E+00  -6.72852246E+00  -6.19952165E+00  -1.14129118E+01  -6.09734646E+00  -1.17413063E+01  -7.22289250E+00  -1.08137928E+01  -1.58588632E+01  -1.58593355E+01  -2.15606098E+01  -1.24506097E+01  -2.14690407E+01  -2.14695104E+01  -3.05958053E+01  -2.77704379E+01
   6.47500000E+02   5.00000000E-01   5.00000000E-01  -6.10331072E+00  -1.35081232E+01  -2.71276393E+00  -1.44974412E+00  -1.84668701E+00  -2.27828812E+00  -1.20403362E+01  -6.72324856E+00  -5.12534501E+00  -2.56689021E-01  -4.16045404E+00  -1.95258074E+00  -9.76057184E+00  -3.23897172E-01  -1.80639312E+00  -7.73937329E+00  -3.39090297E+00  -6.53596727E+00  -4.40189835E+00  -2.77489775E+00  -1.18644235E+01  -1.07093325E+01  -9.43532575E+00  -1.18373954E+01  -8.54702629E+00  -7.94705855E+00  -1.11711743E+01  -1.30896656E+01  -2.54529448E+00  -5.89319718E+00  -2.89109861E+00  -4.13539038E+00  -7.58108878E+00  -2.75269525E+00  -2.94530207E+00  -5.40135767E+00  -5.09461059E+00  -2.97750460E+00  -6.70279951E+00  -1.20189473E+02  -9.55129799E+00  -6.17513101E+00  -1.03044290E+01  -1.00124792E+01  -6.19923875E+00  -3.09676980E+00  -9.38137275E+00  -3.61609880E+00  -5.09147058E+01  -1.07539933E+01  -8.19914605E+00  -2.00983294E+00  -3.75569201E+01  -6.76215281E+00  -8.68133410E+00  -4.40280330E+00  -6.39932195E+00  -6.74468793E+00  -8.30023162E+00  -8.01221718E+00  -1.14418283E+01  -9.34453508E+00  -6.70845587E+00  -6.18463850E+00  -1.13628252E+01  -6.09462426E+00  -1.16173181E+01  -7.21541390E+00  -1.08252735E+01  -1.58699994E+01  -1.58705231E+01  -2.15784771E+01  -1.24485941E+01  -2.14876853E+01  -2.14882014E+01  -3.05756345E+01  -2.75601524E+01
   6.82500000E+02   5.00000000E-01   5.00000000E-01  -6.04236613E+00  -1.34446732E+01  -2.67621102E+00  -1.45685889E+00  -1.83888760E+00  -2.27664027E+00  -1.20320820E+01  -6.72408182E+00  -5.12658586E+00  -2.56167687E-01  -4.15977385E+00  -1.95272369E+00  -9.76717329E+00  -3.23133416E-01  -1.80788923E+00  -7.73878343E+00  -3.39022279E+00  -6.57635314E+00  -4.40121818E+00  -2.75150512E+00  -1.17742343E+01  -1.06086069E+01  -9.36596227E+00  -1.17609287E+01  -8.53719032E+00  -7.92396977E+00  -1.12191288E+01  -1.30348692E+01  -2.56985902E+00  -5.96515738E+00  -2.86611936E+00  -4.12246561E+00  -7.52866798E+00  -2.74068754E+00  -2.90580742E+00  -5.37282230E+00  -5.07732120E+00  -2.96465975E+00  -6.69240313E+00  -1.18831420E+02  -9.51823152E+00  -6.15444446E+00  -1.02064069E+01  -9.92565046E+00  -6.09991953E+00  -3.08654469E+00  -9.35317888E+00  -3.60947198E+00  -5.02856685E+01  -1.06653084E+01  -8.18294772E+00  -2.00924406E+00  -3.71584619E+01  -6.77107543E+00  -8.71958454E+00  -4.47036010E+00  -6.38068091E+00  -6.78751175E+00  -8.40220346E+00  -8.00749317E+00  -1.15277753E+01  -9.38615921E+00  -6.69038658E+00  -6.16942904E+00  -1.13136773E+01  -6.09239163E+00  -1.14970834E+01  -7.20850884E+00  -1.08376088E+01  -1.58823885E+01  -1.58829693E+01  -2.15980875E+01  -1.24474378E+01  -2.15080524E+01  -2.15086207E+01  -3.05579505E+01  -2.73530140E+01