 TITLE = "Total Concentrations" 
VARIABLES = "X"          "Y"              "Z"            "H+"             "Al+++"          "CO2(aq)"        "Mg++"           "Ca++"           "Fe++"           "Fe+++"          "Ba++"           "Sr++"           "Cl-"            "F-"             "K+"             "HS-"            "Na+"            "SO4--"          "O2(aq)"         "B(OH)3(aq)"     "HPO4--"         "NO3-"           "H4SiO4(aq)"     "HNO3(aq)"       "Al(OH)2+"       "AlO2-"          "AlOH++"         "BaHCO3+"        "BaCl+"          "BaCO3(aq)"      "BaOH+"          "HCO3-"          "CO3--"          "CaCl+"          "CaCl2(aq)"      "CaOH+"          "CaSO4(aq)"      "FeCl+"          "FeCl2(aq)"      "FeOH+"          "FeSO4(aq)"      "OH-"            "S2O3--"         "H2S(aq)"        "H2PO4-"         "H3PO4(aq)"      "HAlO2(aq)"      "HSO4-"          "KCl(aq)"        "KOH(aq)"        "KSO4-"          "NH3(aq)"        "NaAlO2(aq)"     "NaOH(aq)"       "NaSO4-"         "H2(aq)"         "CaHPO4(aq)"     "CaPO4-"         "FeCO3(aq)"      "FeH2PO4+"       "FeHPO4(aq)"     "FePO4-"         "KHPO4-"         "PO4---"         "Sr(CO3)(aq)"    "SrHCO3+"        "SrCl+"          "SrOH+"          "SrSO4(aq)"      "AlH3SiO4++"     "Si2O2(OH)5-"    "Si2O3(OH)4--"   "Si3O5(OH)5---"  "Si3O6(OH)3---"  "Si4O12H4----"   "Si4O6(OH)6--"   "Si4O7(OH)6----" "Si4O8(OH)4----" "Si6O15------"   "SiF6--"        
 ZONE I=         100 , J=           1 , K=           1  F=POINT
   1.75000000E+01   5.00000000E-01   5.00000000E-01  -7.68204045E+00  -1.65313550E+01  -3.81543317E+00  -1.29695897E+00  -1.79429247E+00  -4.80008700E+00  -1.26649167E+01  -6.71245032E+00  -5.11065939E+00  -2.62506798E-01  -4.16749098E+00  -1.95353111E+00  -1.00698045E+01  -3.38303846E-01  -1.72880858E+00  -3.74472739E+00  -3.39793991E+00  -5.92184209E+00  -4.40893528E+00  -3.18833827E+00  -1.39675526E+01  -1.39813511E+01  -1.16997139E+01  -1.48081556E+01  -8.92955618E+00  -8.31099308E+00  -1.03017498E+01  -1.41763883E+01  -2.34022206E+00  -4.59288947E+00  -3.04007632E+00  -3.87850733E+00  -8.31399910E+00  -2.66706450E+00  -6.11326268E+00  -8.20456043E+00  -7.72157351E+00  -5.59455836E+00  -6.85659079E+00  -1.57704156E+02  -1.07515527E+01  -6.99391982E+00  -1.29612091E+01  -1.27343276E+01  -8.36483272E+00  -3.21396392E+00  -9.84580432E+00  -3.58556736E+00  -7.25070932E+01  -1.33146495E+01  -8.28654210E+00  -1.81488871E+00  -4.81122394E+01  -6.45178966E+00  -7.45921953E+00  -5.53683284E+00  -9.69645755E+00  -8.45921746E+00  -8.45256200E+00  -8.22552879E+00  -9.76181766E+00  -8.62430262E+00  -7.24238746E+00  -6.37521168E+00  -1.22914624E+01  -6.11451837E+00  -1.58505541E+01  -7.12723657E+00  -1.02728436E+01  -1.51398700E+01  -1.51401118E+01  -2.05719149E+01  -1.19790809E+01  -2.04636420E+01  -2.04639100E+01  -2.98456103E+01  -3.24911247E+01
   5.25000000E+01   5.00000000E-01   5.00000000E-01  -7.55318553E+00  -1.61294489E+01  -3.71558168E+00  -1.30183108E+00  -1.66200029E+00  -4.49432593E+00  -1.30377150E+01  -6.71261550E+00  -5.11672439E+00  -2.62795377E-01  -4.16747746E+00  -1.95478751E+00  -1.00195830E+01  -3.40111317E-01  -1.65384343E+00  -3.74471387E+00  -3.39792639E+00  -5.96112727E+00  -4.40892176E+00  -3.04528520E+00  -1.38241036E+01  -1.36945600E+01  -1.15696583E+01  -1.44728786E+01  -8.91843309E+00  -8.30575165E+00  -1.03976356E+01  -1.41866346E+01  -2.34362979E+00  -4.69244264E+00  -2.91012096E+00  -3.77677967E+00  -8.20740770E+00  -2.47311739E+00  -5.79080987E+00  -7.90782471E+00  -7.47329082E+00  -5.22249161E+00  -6.90132982E+00  -1.56170546E+02  -1.06148573E+01  -6.92137990E+00  -1.27556500E+01  -1.25341083E+01  -8.14492617E+00  -3.22023263E+00  -9.88673805E+00  -3.52149624E+00  -7.18760440E+01  -1.31835909E+01  -8.34946943E+00  -1.76017649E+00  -4.77470999E+01  -6.36107569E+00  -7.46701239E+00  -5.35149255E+00  -9.32120780E+00  -8.21542748E+00  -8.33539801E+00  -8.24382047E+00  -9.89327813E+00  -8.71931184E+00  -7.23180926E+00  -6.38365409E+00  -1.23160463E+01  -6.05396519E+00  -1.53149177E+01  -6.92889851E+00  -1.01447201E+01  -1.49404980E+01  -1.49407493E+01  -2.03129184E+01  -1.15936597E+01  -2.02054078E+01  -2.02056904E+01  -2.94007408E+01  -3.19320610E+01
   8.75000000E+01   5.00000000E-01   5.00000000E-01  -7.47472571E+00  -1.59896819E+01  -3.66301615E+00  -1.30652809E+00  -1.58186556E+00  -4.31942333E+00  -1.31799159E+01  -6.71282570E+00  -5.12149552E+00  -2.62982387E-01  -4.16743787E+00  -1.95573064E+00  -9.86398193E+00  -3.41308102E-01  -1.60247166E+00  -3.74467429E+00  -3.39788681E+00  -5.98942622E+00  -4.40888218E+00  -2.98614552E+00  -1.37300561E+01  -1.35701310E+01  -1.15032659E+01  -1.43496983E+01  -8.90480831E+00  -8.29900862E+00  -1.04413012E+01  -1.41479604E+01  -2.34587513E+00  -4.74243822E+00  -2.83075644E+00  -3.72371757E+00  -8.10371745E+00  -2.35195870E+00  -5.59786615E+00  -7.73877305E+00  -7.30597025E+00  -5.00189154E+00  -6.89779704E+00  -1.54796402E+02  -1.04210662E+01  -6.88647625E+00  -1.26371491E+01  -1.24458983E+01  -7.99749959E+00  -3.22453776E+00  -9.87779199E+00  -3.47877854E+00  -7.12995188E+01  -1.31142317E+01  -8.36153109E+00  -1.72631364E+00  -4.73859437E+01  -6.30853421E+00  -7.46340114E+00  -5.24431664E+00  -9.11396268E+00  -8.08868335E+00  -8.28536336E+00  -8.24902440E+00  -9.96603478E+00  -8.76085202E+00  -7.21732917E+00  -6.38910487E+00  -1.22900929E+01  -6.01286076E+00  -1.50782735E+01  -6.85013808E+00  -1.00877769E+01  -1.48487636E+01  -1.48490212E+01  -2.01960501E+01  -1.14476319E+01  -2.00892950E+01  -2.00895881E+01  -2.91757282E+01  -3.16549062E+01
   1.22500000E+02   5.00000000E-01   5.00000000E-01  -7.40923047E+00  -1.59017713E+01  -3.62136366E+00  -1.31117576E+00  -1.53029855E+00  -4.19644148E+00  -1.32467079E+01  -6.71306319E+00  -5.12521705E+00  -2.63085600E-01  -4.16737372E+00  -1.95641371E+00  -9.63099934E+00  -3.42008138E-01  -1.56699588E+00  -3.74461013E+00  -3.39782265E+00  -6.01116874E+00  -4.40881802E+00  -2.95279587E+00  -1.36481185E+01  -1.34727268E+01  -1.14399794E+01  -1.42657889E+01  -8.88975925E+00  -8.29095955E+00  -1.04712871E+01  -1.40978332E+01  -2.34786540E+00  -4.78102496E+00  -2.77858294E+00  -3.69612052E+00  -8.01680942E+00  -2.27271847E+00  -5.45568165E+00  -7.61885141E+00  -7.17816396E+00  -4.84654278E+00  -6.88330753E+00  -1.53491587E+02  -1.01609090E+01  -6.85640791E+00  -1.25355971E+01  -1.23718565E+01  -7.87762060E+00  -3.22714198E+00  -9.85651377E+00  -3.45001132E+00  -7.07402187E+01  -1.30462967E+01  -8.36035457E+00  -1.70596121E+00  -4.70287644E+01  -6.27542174E+00  -7.46698106E+00  -5.17492057E+00  -8.96308877E+00  -8.00486017E+00  -8.26567431E+00  -8.24588446E+00  -1.00216462E+01  -8.78772558E+00  -7.20029173E+00  -6.39202665E+00  -1.22513419E+01  -5.98419200E+00  -1.49095102E+01  -6.81196232E+00  -1.00603048E+01  -1.48019580E+01  -1.48022193E+01  -2.01379306E+01  -1.13829456E+01  -2.00319238E+01  -2.00322238E+01  -2.90443838E+01  -3.14520587E+01
   1.57500000E+02   5.00000000E-01   5.00000000E-01  -7.34841058E+00  -1.58291233E+01  -3.58275185E+00  -1.31580806E+00  -1.49656875E+00  -4.10157230E+00  -1.32750832E+01  -6.71332238E+00  -5.12810174E+00  -2.63119809E-01  -4.16728637E+00  -1.95688641E+00  -9.38044599E+00  -3.42316303E-01  -1.54279803E+00  -3.74452279E+00  -3.39773531E+00  -6.02862494E+00  -4.40873068E+00  -2.92843589E+00  -1.35701319E+01  -1.33824144E+01  -1.13763758E+01  -1.41928725E+01  -8.87372639E+00  -8.28179173E+00  -1.04963610E+01  -1.40445891E+01  -2.34987638E+00  -4.81659562E+00  -2.74304079E+00  -3.68361451E+00  -7.94428127E+00  -2.22043614E+00  -5.34061708E+00  -7.52460274E+00  -7.07441049E+00  -4.72840962E+00  -6.86604952E+00  -1.52230389E+02  -9.88605950E+00  -6.82533828E+00  -1.24369821E+01  -1.23004088E+01  -7.77256004E+00  -3.22829035E+00  -9.83130982E+00  -3.43084794E+00  -7.01899897E+01  -1.29766250E+01  -8.35441918E+00  -1.69483073E+00  -4.66755646E+01  -6.25366525E+00  -7.47788228E+00  -5.12826482E+00  -8.83903402E+00  -7.94277650E+00  -8.26335518E+00  -8.23696011E+00  -1.00703940E+01  -8.80891824E+00  -7.18136067E+00  -6.39282996E+00  -1.22083575E+01  -5.96396307E+00  -1.47633874E+01  -6.78888514E+00  -1.00449740E+01  -1.47739499E+01  -1.47742130E+01  -2.01039381E+01  -1.13485647E+01  -1.99986717E+01  -1.99989759E+01  -2.89537243E+01  -3.12737474E+01
   1.92500000E+02   5.00000000E-01   5.00000000E-01  -7.28978348E+00  -1.57625216E+01  -3.54493452E+00  -1.32042556E+00  -1.47483463E+00  -4.02453770E+00  -1.32795614E+01  -6.71360055E+00  -5.13032469E+00  -2.63097117E-01  -4.16717715E+00  -1.95719254E+00  -9.14793636E+00  -3.42322157E-01  -1.52686831E+00  -3.74441356E+00  -3.39762608E+00  -6.04319535E+00  -4.40862145E+00  -2.90742602E+00  -1.34937299E+01  -1.32950141E+01  -1.13131802E+01  -1.41242386E+01  -8.85696437E+00  -8.27167007E+00  -1.05192947E+01  -1.39907514E+01  -2.35201659E+00  -4.85158951E+00  -2.71843698E+00  -3.68067189E+00  -7.88280655E+00  -2.18660332E+00  -5.24254076E+00  -7.44605746E+00  -6.98696453E+00  -4.63454937E+00  -6.84841682E+00  -1.51001897E+02  -9.62978802E+00  -6.79234552E+00  -1.23380013E+01  -1.22299226E+01  -7.67698180E+00  -3.22820031E+00  -9.80476807E+00  -3.41851752E+00  -6.96464688E+01  -1.29061721E+01  -8.34637617E+00  -1.69020025E+00  -4.63263458E+01  -6.23916617E+00  -7.49441318E+00  -5.09684322E+00  -8.73067596E+00  -7.89386872E+00  -8.27225205E+00  -8.22390701E+00  -1.01159170E+01  -8.82737933E+00  -7.16097305E+00  -6.39186222E+00  -1.21638499E+01  -5.94970070E+00  -1.46273995E+01  -6.77194917E+00  -1.00351936E+01  -1.47547326E+01  -1.47549958E+01  -2.00809238E+01  -1.13265171E+01  -1.99763899E+01  -1.99766960E+01  -2.88831060E+01  -3.11045514E+01
   2.27500000E+02   5.00000000E-01   5.00000000E-01  -7.23248515E+00  -1.56989682E+01  -3.50721761E+00  -1.32501421E+00  -1.46154743E+00  -3.96000521E+00  -1.32678756E+01  -6.71389619E+00  -5.13202756E+00  -2.63027365E-01  -4.16704733E+00  -1.95736932E+00  -8.94419605E+00  -3.42099063E-01  -1.51713123E+00  -3.74428374E+00  -3.39749626E+00  -6.05582504E+00  -4.40849163E+00  -2.88774710E+00  -1.34181498E+01  -1.32093151E+01  -1.12508554E+01  -1.40577733E+01  -8.83965573E+00  -8.26073623E+00  -1.05411624E+01  -1.39372150E+01  -2.35434200E+00  -4.88679460E+00  -2.70135017E+00  -3.68401559E+00  -7.82972514E+00  -2.16589167E+00  -5.15624552E+00  -7.37814948E+00  -6.91139929E+00  -4.55785214E+00  -6.83119458E+00  -1.49800264E+02  -9.40207927E+00  -6.75764892E+00  -1.22380989E+01  -1.21601077E+01  -7.58808123E+00  -3.22705994E+00  -9.77784165E+00  -3.41115013E+00  -6.91088889E+01  -1.28355970E+01  -8.33723259E+00  -1.69023952E+00  -4.59811033E+01  -6.22961628E+00  -7.51506541E+00  -5.07639915E+00  -8.63296464E+00  -7.85401867E+00  -8.28904954E+00  -8.20789048E+00  -1.01598139E+01  -8.84432605E+00  -7.13945895E+00  -6.38941278E+00  -1.21188663E+01  -5.93978210E+00  -1.44972676E+01  -6.75783705E+00  -1.00284101E+01  -1.47403730E+01  -1.47406355E+01  -2.00638093E+01  -1.13101191E+01  -1.99599993E+01  -1.99603057E+01  -2.88241293E+01  -3.09391208E+01
   2.62500000E+02   5.00000000E-01   5.00000000E-01  -7.17618894E+00  -1.56373286E+01  -3.46941278E+00  -1.32955304E+00  -1.45438919E+00  -3.90486462E+00  -1.32447859E+01  -6.71420848E+00  -5.13332407E+00  -2.62918542E-01  -4.16689818E+00  -1.95744765E+00  -8.76930207E+00  -3.41705644E-01  -1.51209790E+00  -3.74413460E+00  -3.39734711E+00  -6.06718351E+00  -4.40834248E+00  -2.86865475E+00  -1.33431519E+01  -1.31248821E+01  -1.11895689E+01  -1.39926847E+01  -8.82194650E+00  -8.24911055E+00  -1.05624567E+01  -1.38843273E+01  -2.35689007E+00  -4.92246072E+00  -2.68957102E+00  -3.69156065E+00  -7.78306233E+00  -2.15474587E+00  -5.07872762E+00  -7.31799641E+00  -6.84496424E+00  -4.49397236E+00  -6.81463841E+00  -1.48621857E+02  -9.20279252E+00  -6.72170968E+00  -1.21374858E+01  -1.20909025E+01  -7.50415827E+00  -3.22502930E+00  -9.75092903E+00  -3.40743151E+00  -6.85769953E+01  -1.27652320E+01  -8.32743280E+00  -1.69366588E+00  -4.56398243E+01  -6.22361832E+00  -7.53871505E+00  -5.06431799E+00  -8.54330176E+00  -7.82101278E+00  -8.31181042E+00  -8.18976788E+00  -1.02029015E+01  -8.86036490E+00  -7.11708311E+00  -6.38572086E+00  -1.20738771E+01  -5.93309548E+00  -1.43713203E+01  -6.74526203E+00  -1.00235773E+01  -1.47292165E+01  -1.47294777E+01  -2.00505258E+01  -1.12967564E+01  -1.99474310E+01  -1.99477365E+01  -2.87730431E+01  -3.07755164E+01
   2.97500000E+02   5.00000000E-01   5.00000000E-01  -7.12076081E+00  -1.55771168E+01  -3.43150594E+00  -1.33401814E+00  -1.45176949E+00  -3.85714037E+00  -1.32134460E+01  -6.71453713E+00  -5.13430511E+00  -2.62777160E-01  -4.16673102E+00  -1.95745270E+00  -8.62015200E+00  -3.41187958E-01  -1.51067056E+00  -3.74396744E+00  -3.39717995E+00  -6.07776007E+00  -4.40817533E+00  -2.84987322E+00  -1.32686765E+01  -1.30415307E+01  -1.11293566E+01  -1.39286329E+01  -8.80396046E+00  -8.23689465E+00  -1.05834468E+01  -1.38322334E+01  -2.35969183E+00  -4.95865424E+00  -2.68160144E+00  -3.70191547E+00  -7.74137086E+00  -2.15068935E+00  -5.00810169E+00  -7.26381640E+00  -6.78584277E+00  -4.44005019E+00  -6.79881756E+00  -1.47464179E+02  -9.02878720E+00  -6.68498380E+00  -1.20365493E+01  -1.20222942E+01  -7.42407959E+00  -3.22224321E+00  -9.72421954E+00  -3.40641090E+00  -6.80507015E+01  -1.26952495E+01  -8.31720543E+00  -1.69955374E+00  -4.53024878E+01  -6.22028249E+00  -7.56456282E+00  -5.05889845E+00  -8.46020792E+00  -7.79355399E+00  -8.33933129E+00  -8.17018737E+00  -1.02456518E+01  -8.87585592E+00  -7.09406437E+00  -6.38098344E+00  -1.20291269E+01  -5.92885444E+00  -1.42488180E+01  -6.73369971E+00  -1.00202309E+01  -1.47204970E+01  -1.47207567E+01  -2.00401640E+01  -1.12853476E+01  -1.99377754E+01  -1.99380793E+01  -2.87279554E+01  -3.06130307E+01
   3.32500000E+02   5.00000000E-01   5.00000000E-01  -7.06613842E+00  -1.55180934E+01  -3.39354246E+00  -1.33838527E+00  -1.45256018E+00  -3.81548959E+00  -1.31760362E+01  -6.71488222E+00  -5.13504301E+00  -2.62608561E-01  -4.16654719E+00  -1.95740473E+00  -8.49313421E+00  -3.40581706E-01  -1.51202484E+00  -3.74378361E+00  -3.39699612E+00  -6.08792024E+00  -4.40799149E+00  -2.83130316E+00  -1.31947239E+01  -1.29591688E+01  -1.10702049E+01  -1.38654499E+01  -8.78580596E+00  -8.22417403E+00  -1.06043074E+01  -1.37809982E+01  -2.36277666E+00  -4.99538162E+00  -2.67639169E+00  -3.71412105E+00  -7.70358731E+00  -2.15194600E+00  -4.94310107E+00  -7.21443072E+00  -6.73277197E+00  -4.39409661E+00  -6.78373473E+00  -1.46325393E+02  -8.87647367E+00  -6.64786001E+00  -1.19356716E+01  -1.19542821E+01  -7.34704215E+00  -3.21881440E+00  -9.69781583E+00  -3.40738697E+00  -6.75299706E+01  -1.26257489E+01  -8.30668725E+00  -1.70722178E+00  -4.49690642E+01  -6.21902242E+00  -7.59204967E+00  -5.05897871E+00  -8.38276020E+00  -7.77082096E+00  -8.37082137E+00  -8.14964811E+00  -1.02883650E+01  -8.89104545E+00  -7.07058707E+00  -6.37536227E+00  -1.19847607E+01  -5.92648963E+00  -1.41293791E+01  -6.72292276E+00  -1.00181423E+01  -1.47138157E+01  -1.47140741E+01  -2.00322823E+01  -1.12754120E+01  -1.99305906E+01  -1.99308925E+01  -2.86877819E+01  -3.04514151E+01
   3.67500000E+02   5.00000000E-01   5.00000000E-01  -7.01228684E+00  -1.54601207E+01  -3.35558638E+00  -1.34263169E+00  -1.45593932E+00  -3.77894672E+00  -1.31341116E+01  -6.71524416E+00  -5.13559536E+00  -2.62417178E-01  -4.16634807E+00  -1.95731991E+00  -8.38493581E+00  -3.39914353E-01  -1.51553136E+00  -3.74358448E+00  -3.39679700E+00  -6.09794278E+00  -4.40779237E+00  -2.81291207E+00  -1.31213124E+01  -1.28777416E+01  -1.10120844E+01  -1.38030386E+01  -8.76758016E+00  -8.21102073E+00  -1.06251680E+01  -1.37306517E+01  -2.36617425E+00  -5.03263352E+00  -2.67318666E+00  -3.72749981E+00  -7.66892148E+00  -2.15721138E+00  -4.88282484E+00  -7.16901321E+00  -6.68483266E+00  -4.35466519E+00  -6.76936944E+00  -1.45204083E+02  -8.74257856E+00  -6.61065492E+00  -1.18351814E+01  -1.18868672E+01  -7.27245298E+00  -3.21483704E+00  -9.67178052E+00  -3.40983327E+00  -6.70147741E+01  -1.25567937E+01  -8.29597083E+00  -1.71615966E+00  -4.46395173E+01  -6.21944168E+00  -7.62078612E+00  -5.06373038E+00  -8.31033371E+00  -7.75225513E+00  -8.40573237E+00  -8.12854120E+00  -1.03312475E+01  -8.90611972E+00  -7.04680908E+00  -6.36899049E+00  -1.19408733E+01  -5.92558022E+00  -1.40127696E+01  -6.71282381E+00  -1.00171839E+01  -1.47089371E+01  -1.47091947E+01  -2.00266377E+01  -1.12667151E+01  -1.99256336E+01  -1.99259337E+01  -2.86518243E+01  -3.02905949E+01
   4.02500000E+02   5.00000000E-01   5.00000000E-01  -6.95918199E+00  -1.54031074E+01  -3.31770585E+00  -1.34673744E+00  -1.46130184E+00  -3.74678318E+00  -1.30887963E+01  -6.71562357E+00  -5.13600761E+00  -2.62206720E-01  -4.16613507E+00  -1.95721098E+00  -8.29272526E+00  -3.39206729E-01  -1.52070804E+00  -3.74337149E+00  -3.39658401E+00  -6.10804219E+00  -4.40757938E+00  -2.79469221E+00  -1.30484628E+01  -1.27972110E+01  -1.09549620E+01  -1.37413352E+01  -8.74937147E+00  -8.19749541E+00  -1.06461332E+01  -1.36812072E+01  -2.36991546E+00  -5.07040051E+00  -2.67143827E+00  -3.74156981E+00  -7.63678441E+00  -2.16551986E+00  -4.82659923E+00  -7.12695361E+00  -6.64132654E+00  -4.32066838E+00  -6.75569396E+00  -1.44099132E+02  -8.62431209E+00  -6.57362089E+00  -1.17353473E+01  -1.18200502E+01  -7.19986667E+00  -3.21038947E+00  -9.64615451E+00  -3.41335360E+00  -6.65050782E+01  -1.24884271E+01  -8.28512371E+00  -1.72598423E+00  -4.43138048E+01  -6.22127115E+00  -7.65050500E+00  -5.07253796E+00  -8.24247042E+00  -7.73744706E+00  -8.44366023E+00  -8.10717528E+00  -1.03744479E+01  -8.92122738E+00  -7.02286692E+00  -6.36197725E+00  -1.18975302E+01  -5.92581332E+00  -1.38988219E+01  -6.70334606E+00  -1.00172751E+01  -1.47057058E+01  -1.47059635E+01  -2.00230785E+01  -1.12591286E+01  -1.99227524E+01  -1.99230511E+01  -2.86195959E+01  -3.01305622E+01
   4.37500000E+02   5.00000000E-01   5.00000000E-01  -6.90680453E+00  -1.53469869E+01  -3.27996852E+00  -1.35068616E+00  -1.46819835E+00  -3.71842690E+00  -1.30409126E+01  -6.71602126E+00  -5.13631537E+00  -2.61980322E-01  -4.16590963E+00  -1.95708791E+00  -8.21413955E+00  -3.38474472E-01  -1.52718415E+00  -3.74314604E+00  -3.39635856E+00  -6.11838536E+00  -4.40735393E+00  -2.77664441E+00  -1.29761935E+01  -1.27175476E+01  -1.08988051E+01  -1.36802936E+01  -8.73126145E+00  -8.18364921E+00  -1.06672915E+01  -1.36326684E+01  -2.37403254E+00  -5.10867800E+00  -2.67074593E+00  -3.75598717E+00  -7.60673425E+00  -2.17615176E+00  -4.77389879E+00  -7.08778057E+00  -6.60170269E+00  -4.29126527E+00  -6.74267902E+00  -1.43009636E+02  -8.51935049E+00  -6.53695833E+00  -1.16363845E+01  -1.17538304E+01  -7.12894507E+00  -3.20553693E+00  -9.62096519E+00  -3.41764889E+00  -6.60008402E+01  -1.24206794E+01  -8.27419729E+00  -1.73640718E+00  -4.39918796E+01  -6.22432878E+00  -7.68102626E+00  -5.08492718E+00  -8.17881205E+00  -7.72607671E+00  -8.48429038E+00  -8.08579616E+00  -1.04180763E+01  -8.93649114E+00  -6.99888014E+00  -6.35441213E+00  -1.18547768E+01  -5.92695502E+00  -1.37874021E+01  -6.69445485E+00  -1.00183584E+01  -1.47040093E+01  -1.47042682E+01  -2.00214974E+01  -1.12525726E+01  -1.99218395E+01  -1.99221375E+01  -2.85907375E+01  -2.99713348E+01
   4.72500000E+02   5.00000000E-01   5.00000000E-01  -6.85513759E+00  -1.52917083E+01  -3.24244039E+00  -1.35446548E+00  -1.47629353E+00  -3.69341385E+00  -1.29910680E+01  -6.71643812E+00  -5.13654641E+00  -2.61740664E-01  -4.16567315E+00  -1.95695842E+00  -8.14721974E+00  -3.37729199E-01  -1.53467413E+00  -3.74290957E+00  -3.39612208E+00  -6.12910336E+00  -4.40711746E+00  -2.75877175E+00  -1.29045200E+01  -1.26387274E+01  -1.08435824E+01  -1.36198790E+01  -8.71332626E+00  -8.16952547E+00  -1.06887202E+01  -1.35850324E+01  -2.37855932E+00  -5.14746721E+00  -2.67081640E+00  -3.77050749E+00  -7.57843782E+00  -2.18856939E+00  -4.72429934E+00  -7.05111633E+00  -6.56551235E+00  -4.26579084E+00  -6.73029566E+00  -1.41934858E+02  -8.42577036E+00  -6.50082686E+00  -1.15384651E+01  -1.16882054E+01  -7.05943032E+00  -3.20033398E+00  -9.59623047E+00  -3.42249366E+00  -6.55020097E+01  -1.23535712E+01  -8.26323130E+00  -1.74721204E+00  -4.36736909E+01  -6.22849359E+00  -7.71223217E+00  -5.10052117E+00  -8.11906388E+00  -7.71788053E+00  -8.52736605E+00  -8.06460125E+00  -1.04622165E+01  -8.95201455E+00  -6.97495477E+00  -6.34636876E+00  -1.18126440E+01  -5.92883027E+00  -1.36783968E+01  -6.68612559E+00  -1.00203886E+01  -1.47037603E+01  -1.47040217E+01  -2.00218100E+01  -1.12469907E+01  -1.99228105E+01  -1.99231089E+01  -2.85649730E+01  -2.98129402E+01
   5.07500000E+02   5.00000000E-01   5.00000000E-01  -6.80416598E+00  -1.52372314E+01  -3.20518584E+00  -1.35806712E+00  -1.48533670E+00  -3.67135802E+00  -1.29397145E+01  -6.71687509E+00  -5.13672221E+00  -2.61490055E-01  -4.16542706E+00  -1.95682847E+00  -8.09034087E+00  -3.36979449E-01  -1.54295798E+00  -3.74266347E+00  -3.39587599E+00  -6.14030001E+00  -4.40687136E+00  -2.74107732E+00  -1.28334544E+01  -1.25607297E+01  -1.07892642E+01  -1.35600646E+01  -8.69563779E+00  -8.15516109E+00  -1.07104883E+01  -1.35382922E+01  -2.38353104E+00  -5.18677471E+00  -2.67143547E+00  -3.78495901E+00  -7.55164260E+00  -2.20237120E+00  -4.67744915E+00  -7.01664920E+00  -6.53238036E+00  -4.24370950E+00  -6.71851577E+00  -1.40874185E+02  -8.34197880E+00  -6.46535437E+00  -1.14417268E+01  -1.16231712E+01  -6.99112578E+00  -3.19482643E+00  -9.57196112E+00  -3.42771855E+00  -6.50085295E+01  -1.22871159E+01  -8.25225657E+00  -1.75823713E+00  -4.33591854E+01  -6.23368794E+00  -7.74404956E+00  -5.11901293E+00  -8.06297452E+00  -7.71263304E+00  -8.57266987E+00  -8.04375035E+00  -1.05069325E+01  -8.96788634E+00  -6.95118602E+00  -6.33790793E+00  -1.17711516E+01  -5.93130834E+00  -1.35717059E+01  -6.67833841E+00  -1.00233278E+01  -1.47048868E+01  -1.47051523E+01  -2.00239442E+01  -1.12423386E+01  -1.99255932E+01  -1.99258933E+01  -2.85420835E+01  -2.96554106E+01
   5.42500000E+02   5.00000000E-01   5.00000000E-01  -6.75387587E+00  -1.51835246E+01  -3.16826795E+00  -1.36148671E+00  -1.49514026E+00  -3.65193201E+00  -1.28871920E+01  -6.71733312E+00  -5.13685927E+00  -2.61230507E-01  -4.16517271E+00  -1.95670265E+00  -8.04214999E+00  -3.36231422E-01  -1.55186626E+00  -3.74240912E+00  -3.39562164E+00  -6.15205816E+00  -4.40661701E+00  -2.72356346E+00  -1.27630065E+01  -1.24835366E+01  -1.07358216E+01  -1.35008297E+01  -8.67826442E+00  -8.14058769E+00  -1.07326582E+01  -1.34924369E+01  -2.38898426E+00  -5.22661170E+00  -2.67244744E+00  -3.79922324E+00  -7.52615622E+00  -2.21725794E+00  -4.63305050E+00  -6.98411636E+00  -6.50198672E+00  -4.22458337E+00  -6.70731215E+00  -1.39827101E+02  -8.26665199E+00  -6.43064413E+00  -1.13462809E+01  -1.15587226E+01  -6.92388175E+00  -3.18905310E+00  -9.54816244E+00  -3.43319709E+00  -6.45203378E+01  -1.22213208E+01  -8.24129694E+00  -1.76936268E+00  -4.30483082E+01  -6.23986502E+00  -7.77643694E+00  -5.14014777E+00  -8.01032442E+00  -7.71013640E+00  -8.62001292E+00  -8.02337379E+00  -1.05522739E+01  -8.98418375E+00  -6.92766052E+00  -6.32908001E+00  -1.17303107E+01  -5.93429200E+00  -1.34672396E+01  -6.67107570E+00  -1.00271416E+01  -1.47073267E+01  -1.47075981E+01  -2.00278352E+01  -1.12385786E+01  -1.99301226E+01  -1.99304259E+01  -2.85218899E+01  -2.94987796E+01
   5.77500000E+02   5.00000000E-01   5.00000000E-01  -6.70425465E+00  -1.51305629E+01  -3.13174870E+00  -1.36472344E+00  -1.50556373E+00  -3.63485418E+00  -1.28337588E+01  -6.71781310E+00  -5.13697017E+00  -2.60963779E-01  -4.16491141E+00  -1.95658445E+00  -8.00151492E+00  -3.35489560E-01  -1.56126842E+00  -3.74214782E+00  -3.39536034E+00  -6.16444433E+00  -4.40635571E+00  -2.70623164E+00  -1.26931840E+01  -1.24071319E+01  -1.06832267E+01  -1.34421578E+01  -8.66127166E+00  -8.12583257E+00  -1.07552873E+01  -1.34474532E+01  -2.39495667E+00  -5.26699314E+00  -2.67373992E+00  -3.81322063E+00  -7.50183103E+00  -2.23300717E+00  -4.59084768E+00  -6.95329271E+00  -6.47405447E+00  -4.20805002E+00  -6.69665851E+00  -1.38793167E+02  -8.19868439E+00  -6.39678019E+00  -1.12522179E+01  -1.14948531E+01  -6.85758452E+00  -3.18304711E+00  -9.52483543E+00  -3.43883553E+00  -6.40373695E+01  -1.21561885E+01  -8.23037064E+00  -1.78050087E+00  -4.27410030E+01  -6.24699968E+00  -7.80937490E+00  -5.16371167E+00  -7.96091887E+00  -7.71021429E+00  -8.66922835E+00  -8.00357860E+00  -1.05982786E+01  -9.00097498E+00  -6.90445801E+00  -6.31992708E+00  -1.16901257E+01  -5.93770934E+00  -1.33649162E+01  -6.66432090E+00  -1.00317982E+01  -1.47110247E+01  -1.47113038E+01  -2.00334216E+01  -1.12356766E+01  -1.99363375E+01  -1.99366457E+01  -2.85042418E+01  -2.93430814E+01
   6.12500000E+02   5.00000000E-01   5.00000000E-01  -6.65529075E+00  -1.50783263E+01  -3.09568913E+00  -1.36777961E+00  -1.51650163E+00  -3.61987983E+00  -1.27796150E+01  -6.71831583E+00  -5.13706443E+00  -2.60691418E-01  -4.16464439E+00  -1.95647654E+00  -7.96748295E+00  -3.34756999E-01  -1.57106368E+00  -3.74188081E+00  -3.39509332E+00  -6.17751215E+00  -4.40608870E+00  -2.68908255E+00  -1.26239931E+01  -1.23315008E+01  -1.06314518E+01  -1.33840361E+01  -8.64472255E+00  -8.11091940E+00  -1.07784286E+01  -1.34033257E+01  -2.40148682E+00  -5.30793709E+00  -2.67523239E+00  -3.82690000E+00  -7.47855268E+00  -2.24945390E+00  -4.55061872E+00  -6.92398345E+00  -6.44834138E+00  -4.19380626E+00  -6.68652945E+00  -1.37772003E+02  -8.13714788E+00  -6.36383136E+00  -1.11596115E+01  -1.14315550E+01  -6.79214780E+00  -3.17683701E+00  -9.50197783E+00  -3.44456493E+00  -6.35595572E+01  -1.20917172E+01  -8.21949156E+00  -1.79158808E+00  -4.24372135E+01  -6.25508158E+00  -7.84285903E+00  -5.18952341E+00  -7.91458362E+00  -7.71270822E+00  -8.72016730E+00  -7.98445319E+00  -1.06449757E+01  -9.01832111E+00  -6.88165259E+00  -6.31048451E+00  -1.16505956E+01  -5.94150745E+00  -1.32646604E+01  -6.65805798E+00  -1.00372673E+01  -1.47159296E+01  -1.47162186E+01  -2.00406447E+01  -1.12336006E+01  -1.99441790E+01  -1.99444941E+01  -2.84890090E+01  -2.91883499E+01
   6.47500000E+02   5.00000000E-01   5.00000000E-01  -6.60697346E+00  -1.50267980E+01  -3.06014924E+00  -1.37066010E+00  -1.52787443E+00  -3.60679486E+00  -1.27249185E+01  -6.71884202E+00  -5.13714920E+00  -2.60414786E-01  -4.16437282E+00  -1.95638094E+00  -7.93924790E+00  -3.34035904E-01  -1.58117395E+00  -3.74160923E+00  -3.39482175E+00  -6.19130484E+00  -4.40581712E+00  -2.67211617E+00  -1.25554384E+01  -1.22566289E+01  -1.05804695E+01  -1.33264535E+01  -8.62867788E+00  -8.09586891E+00  -1.08021322E+01  -1.33600376E+01  -2.40861388E+00  -5.34946406E+00  -2.67686760E+00  -3.84023045E+00  -7.45623145E+00  -2.26647579E+00  -4.51216964E+00  -6.89601888E+00  -6.42463416E+00  -4.18159617E+00  -6.67690052E+00  -1.36763274E+02  -8.08125905E+00  -6.33185416E+00  -1.10685225E+01  -1.13688194E+01  -6.72750603E+00  -3.17044763E+00  -9.47958499E+00  -3.45033496E+00  -6.30868325E+01  -1.20279019E+01  -8.20867014E+00  -1.80257891E+00  -4.21368830E+01  -6.26410995E+00  -7.87689451E+00  -5.21742899E+00  -7.87116181E+00  -7.71747499E+00  -8.77269627E+00  -7.96607081E+00  -1.06923869E+01  -9.03627765E+00  -6.85931379E+00  -6.30078234E+00  -1.16117156E+01  -5.94564750E+00  -1.31664018E+01  -6.65227116E+00  -1.00435196E+01  -1.47219937E+01  -1.47222947E+01  -2.00494473E+01  -1.12323200E+01  -1.99535899E+01  -1.99539139E+01  -2.84760763E+01  -2.90346176E+01
   6.82500000E+02   5.00000000E-01   5.00000000E-01  -6.55929276E+00  -1.49759638E+01  -3.02518784E+00  -1.37337186E+00  -1.53962161E+00  -3.59541104E+00  -1.26697970E+01  -6.71939226E+00  -5.13722979E+00  -2.60135087E-01  -4.16409775E+00  -1.95629918E+00  -7.91612380E+00  -3.33327732E-01  -1.59153833E+00  -3.74133416E+00  -3.39454668E+00  -6.20585696E+00  -4.40554205E+00  -2.65533194E+00  -1.24875236E+01  -1.21825023E+01  -1.05302523E+01  -1.32694007E+01  -8.61319631E+00  -8.08069929E+00  -1.08264452E+01  -1.33175712E+01  -2.41637731E+00  -5.39159654E+00  -2.67860514E+00  -3.85319547E+00  -7.43479582E+00  -2.28398191E+00  -4.47533014E+00  -6.86925058E+00  -6.40274419E+00  -4.17120203E+00  -6.66774828E+00  -1.35766681E+02  -8.03035308E+00  -6.30089480E+00  -1.09790000E+01  -1.13066362E+01  -6.66360915E+00  -3.16390073E+00  -9.45765050E+00  -3.45610922E+00  -6.26191261E+01  -1.19647346E+01  -8.19791421E+00  -1.81344148E+00  -4.18399553E+01  -6.27408965E+00  -7.91149209E+00  -5.24729746E+00  -7.83051155E+00  -7.72438487E+00  -8.82669520E+00  -7.94849215E+00  -1.07405277E+01  -9.05489567E+00  -6.83750711E+00  -6.29084626E+00  -1.15734781E+01  -5.95010104E+00  -1.30700736E+01  -6.64694485E+00  -1.00505265E+01  -1.47291716E+01  -1.47294869E+01  -2.00597735E+01  -1.12318052E+01  -1.99645143E+01  -1.99648494E+01  -2.84653398E+01  -2.88819155E+01