 TITLE = "Total Concentrations" 
VARIABLES = "X"          "Y"              "Z"            "H+"             "Al+++"          "CO2(aq)"        "Mg++"           "Ca++"           "Fe++"           "Fe+++"          "Ba++"           "Sr++"           "Cl-"            "K+"             "Na+"            "SO4--"          "O2(aq)"         "B(OH)3(aq)"     "HPO4--"         "NO3-"           "H4SiO4(aq)"     "HNO3(aq)"       "Al(OH)2+"       "AlO2-"          "AlOH++"         "BaHCO3+"        "BaCl+"          "BaCO3(aq)"      "BaOH+"          "HCO3-"          "CO3--"          "CaCl+"          "CaCl2(aq)"      "CaOH+"          "CaSO4(aq)"      "FeCl+"          "FeCl2(aq)"      "FeOH+"          "FeSO4(aq)"      "OH-"            "HS-"            "H2S(aq)"        "H2PO4-"         "H3PO4(aq)"      "HAlO2(aq)"      "HSO4-"          "KCl(aq)"        "KOH(aq)"        "KSO4-"          "NH3(aq)"        "NaAlO2(aq)"     "NaOH(aq)"       "NaSO4-"         "H2(aq)"         "CaHPO4(aq)"     "CaPO4-"         "FeCO3(aq)"      "FeH2PO4+"       "FeHPO4(aq)"     "FePO4-"         "KHPO4-"         "PO4---"         "S--"            "Sr(CO3)(aq)"    "SrHCO3+"        "SrCl+"          "SrOH+"          "SrSO4(aq)"     
 ZONE I=          10 , J=           1 , K=           1  F=POINT
   1.75000000E+02   5.00000000E-01   5.00000000E-01  -6.99700362E+00  -1.90246464E+01  -3.39350405E+00  -1.34394669E+00  -1.57241206E+00  -3.57663041E+00  -1.13852621E+01  -6.72076743E+00  -5.13975525E+00  -2.63287458E-01  -1.95900093E+00  -3.34171648E-01  -1.56734328E+00  -3.74472744E+00  -3.39793996E+00  -6.09521294E+00  -4.40893533E+00  -1.82021618E+00  -1.29873072E+01  -1.57131600E+01  -1.34029092E+01  -1.70425586E+01  -8.63247539E+00  -8.12945161E+00  -1.04325374E+01  -1.31555549E+01  -2.36473506E+00  -4.94513292E+00  -2.74163652E+00  -3.88218962E+00  -7.27424935E+00  -2.30228186E+00  -4.53353493E+00  -6.89704117E+00  -6.12160510E+00  -4.15221135E+00  -6.40353682E+00  -1.35257691E+02  -1.35746862E+02  -6.61882866E+00  -1.17660933E+01  -1.45066926E+01  -7.15477485E+00  -3.18618722E+00  -9.23256811E+00  -3.44536904E+00  -6.43211953E+01  -1.48732171E+01  -7.93468247E+00  -1.78342928E+00  -4.27358845E+01  -6.24086783E+00  -7.51120860E+00  -4.78027328E+00  -8.12376249E+00  -7.57918630E+00  -8.24636604E+00  -7.93456183E+00  -1.02387042E+01  -1.44350073E+02  -8.67800906E+00  -6.87544204E+00  -6.32342802E+00  -1.13981020E+01  -5.94257285E+00
   5.25000000E+02   5.00000000E-01   5.00000000E-01  -6.46027047E+00  -1.77603020E+01  -2.96455447E+00  -1.35283250E+00  -1.70125128E+00  -3.31562423E+00  -1.09661371E+01  -6.72990752E+00  -5.14716184E+00  -2.63261431E-01  -1.96190108E+00  -3.31229174E-01  -1.64340864E+00  -3.74471273E+00  -3.39792525E+00  -6.23683850E+00  -4.40892063E+00  -1.79634534E+00  -1.22527561E+01  -1.43684139E+01  -1.24471167E+01  -1.57876765E+01  -8.47633367E+00  -7.98291832E+00  -1.07505406E+01  -1.28290793E+01  -2.43757493E+00  -5.43387941E+00  -2.76863115E+00  -4.01522973E+00  -7.15896934E+00  -2.46225563E+00  -4.02056809E+00  -6.47976429E+00  -5.83416534E+00  -3.87483703E+00  -6.39722033E+00  -1.25721159E+02  -1.25856422E+02  -6.23859705E+00  -1.07396244E+01  -1.33527605E+01  -6.42715956E+00  -3.12547713E+00  -9.10347628E+00  -3.47568307E+00  -5.96883328E+01  -1.37909692E+01  -7.90888449E+00  -1.86204987E+00  -3.98468929E+01  -6.34833415E+00  -7.92996775E+00  -4.99548621E+00  -7.50149399E+00  -7.49362586E+00  -8.69001130E+00  -7.76242978E+00  -1.07873622E+01  -1.34615686E+02  -8.94396335E+00  -6.65910156E+00  -6.23023756E+00  -1.11135087E+01  -5.97243195E+00
   8.75000000E+02   5.00000000E-01   5.00000000E-01  -5.99785502E+00  -1.67023957E+01  -2.64882466E+00  -1.36762405E+00  -1.85289263E+00  -3.10686674E+00  -1.05702582E+01  -6.74138704E+00  -5.15401030E+00  -2.63374508E-01  -1.96614173E+00  -3.28863749E-01  -1.73178052E+00  -3.74470796E+00  -3.39792048E+00  -6.48479963E+00  -4.40891588E+00  -1.76255810E+00  -1.15979420E+01  -1.31968601E+01  -1.16231845E+01  -1.47071866E+01  -8.41248833E+00  -7.83140211E+00  -1.11389613E+01  -1.25520744E+01  -2.60220721E+00  -5.98633487E+00  -2.80046808E+00  -4.11794577E+00  -7.09047736E+00  -2.65327483E+00  -3.55825392E+00  -6.08206397E+00  -5.59052909E+00  -3.65895081E+00  -6.40708658E+00  -1.17221773E+02  -1.17018515E+02  -6.01155507E+00  -9.93743694E+00  -1.23359166E+01  -5.78103833E+00  -3.05756406E+00  -8.99447993E+00  -3.50326242E+00  -5.55189377E+01  -1.28358459E+01  -7.87208466E+00  -1.92714375E+00  -3.72558794E+01  -6.57741052E+00  -8.41890479E+00  -5.30596902E+00  -7.08850630E+00  -7.54342768E+00  -9.19222656E+00  -7.71016811E+00  -1.14149476E+01  -1.25964820E+02  -9.28472757E+00  -6.53314839E+00  -6.12234437E+00  -1.08639095E+01  -6.02779580E+00
   1.22500000E+03   5.00000000E-01   5.00000000E-01  -5.59773190E+00  -1.58196839E+01  -2.46618464E+00  -1.38754448E+00  -2.02010668E+00  -2.94212038E+00  -1.01996516E+01  -6.75532176E+00  -5.15995942E+00  -2.63723719E-01  -1.97163844E+00  -3.26929049E-01  -1.82108912E+00  -3.74470371E+00  -3.39791623E+00  -6.81202723E+00  -4.40891171E+00  -1.72215461E+00  -1.10133877E+01  -1.21737839E+01  -1.09100742E+01  -1.37764133E+01  -8.46382178E+00  -7.67966829E+00  -1.16186291E+01  -1.23148740E+01  -2.87630685E+00  -6.61993762E+00  -2.83665237E+00  -4.19917806E+00  -7.05695420E+00  -2.86329797E+00  -3.14312706E+00  -5.70849369E+00  -5.38471964E+00  -3.49183064E+00  -6.42668195E+00  -1.09594735E+02  -1.09071499E+02  -5.90716125E+00  -9.32036103E+00  -1.14378052E+01  -5.19992116E+00  -2.98848564E+00  -8.90252319E+00  -3.52437589E+00  -5.17478199E+01  -1.19916925E+01  -7.82821898E+00  -1.97778187E+00  -3.49186631E+01  -6.90090875E+00  -8.95960111E+00  -5.73058982E+00  -6.84544395E+00  -7.70159973E+00  -9.73844918E+00  -7.75485957E+00  -1.20936391E+01  -1.18224305E+02  -9.71972323E+00  -6.52099734E+00  -6.00580938E+00  -1.06424919E+01  -6.10055775E+00
   1.57500000E+03   5.00000000E-01   5.00000000E-01  -5.25101561E+00  -1.50957757E+01  -2.38149453E+00  -1.41296377E+00  -2.20052827E+00  -2.81873520E+00  -9.85055065E+00  -6.77448725E+00  -5.16800159E+00  -2.64515974E-01  -1.97845837E+00  -3.25306222E-01  -1.90669618E+00  -3.74469967E+00  -3.39791219E+00  -7.16610599E+00  -4.40890792E+00  -1.67595942E+00  -1.04894848E+01  -1.12856697E+01  -1.02976707E+01  -1.29828973E+01  -8.59921740E+00  -7.53141309E+00  -1.21573212E+01  -1.21117205E+01  -3.22545206E+00  -7.30242959E+00  -2.87741331E+00  -4.26374376E+00  -7.05141731E+00  -3.08448976E+00  -2.77337099E+00  -5.36086260E+00  -5.21447951E+00  -3.36544446E+00  -6.45286274E+00  -1.02708414E+02  -1.01883666E+02  -5.86807033E+00  -8.82225297E+00  -1.06490050E+01  -4.67234628E+00  -2.92010914E+00  -8.82409273E+00  -3.53703963E+00  -4.83192097E+01  -1.12488638E+01  -7.77749063E+00  -2.01378563E+00  -3.27985352E+01  -7.26381231E+00  -9.50278646E+00  -6.23597263E+00  -6.71204818E+00  -7.91680187E+00  -1.02864509E+01  -7.84170680E+00  -1.27727114E+01  -1.11252872E+02  -1.02160247E+01  -6.59224200E+00  -5.88580296E+00  -1.04460412E+01  -6.18575677E+00
   1.92500000E+03   5.00000000E-01   5.00000000E-01  -4.95389481E+00  -1.45400829E+01  -2.34685308E+00  -1.44803938E+00  -2.39500600E+00  -2.74564482E+00  -9.52316083E+00  -6.80262699E+00  -5.18263341E+00  -2.66010849E-01  -1.98683289E+00  -3.23810582E-01  -1.98795218E+00  -3.74469566E+00  -3.39790818E+00  -7.50841535E+00  -4.40890461E+00  -1.62189121E+00  -1.00201597E+01  -1.05369680E+01  -9.78753984E+00  -1.23355026E+01  -8.77197248E+00  -7.38945432E+00  -1.27049229E+01  -1.19361228E+01  -3.60093125E+00  -7.98535519E+00  -2.92403145E+00  -4.31489245E+00  -7.06748070E+00  -3.31271029E+00  -2.45679565E+00  -5.04823995E+00  -5.08523940E+00  -3.28369179E+00  -6.48135709E+00  -9.64595604E+01  -9.53530150E+01  -5.85329736E+00  -8.39681151E+00  -9.97370203E+00  -4.19337853E+00  -2.85221871E+00  -8.75281896E+00  -3.54071317E+00  -4.51885479E+01  -1.06071122E+01  -7.71516248E+00  -2.03560375E+00  -3.08648469E+01  -7.62458733E+00  -1.00077600E+01  -6.78009187E+00  -6.65629802E+00  -8.16066578E+00  -1.08116976E+01  -7.92671524E+00  -1.34133660E+01  -1.04934640E+02  -1.07234239E+01  -6.70112608E+00  -5.76681151E+00  -1.02704745E+01  -6.28081220E+00
   2.27500000E+03   5.00000000E-01   5.00000000E-01  -4.70324073E+00  -1.41531579E+01  -2.33310675E+00  -1.49719242E+00  -2.60448080E+00  -2.73244684E+00  -9.22271986E+00  -6.84334313E+00  -5.20725101E+00  -2.68343864E-01  -1.99715257E+00  -3.22300268E-01  -2.06626431E+00  -3.74469159E+00  -3.39790411E+00  -7.82156350E+00  -4.40890228E+00  -1.56090398E+00  -9.59969286E+00  -9.92424543E+00  -9.37452725E+00  -1.18342541E+01  -8.95455840E+00  -7.25594983E+00  -1.32319378E+01  -1.17836931E+01  -3.97395276E+00  -8.64092011E+00  -2.97703357E+00  -4.35391976E+00  -7.10034547E+00  -3.54552908E+00  -2.20122237E+00  -4.77868864E+00  -5.00368415E+00  -3.25268245E+00  -6.50955381E+00  -9.07642699E+01  -8.93956088E+01  -5.84287589E+00  -8.01899845E+00  -9.40831996E+00  -3.75999206E+00  -2.78392289E+00  -8.68374216E+00  -3.53626554E+00  -4.23180945E+01  -1.00588454E+01  -7.63666375E+00  -2.04455947E+00  -2.90920787E+01  -7.96253376E+00  -1.04539312E+01  -7.34136251E+00  -6.66839536E+00  -8.42646228E+00  -1.13101985E+01  -7.98659928E+00  -1.39984815E+01  -9.91741356E+01  -1.12114605E+01  -6.81992856E+00  -5.65146223E+00  -1.01123888E+01  -6.38406983E+00
   2.62500000E+03   5.00000000E-01   5.00000000E-01  -4.49355774E+00  -1.39086870E+01  -2.32752248E+00  -1.56195423E+00  -2.82715341E+00  -2.78150630E+00  -8.95723441E+00  -6.90048962E+00  -5.24454266E+00  -2.71344407E-01  -2.00992709E+00  -3.20737501E-01  -2.14520113E+00  -3.74468737E+00  -3.39789989E+00  -8.10483985E+00  -4.40890196E+00  -1.49870668E+00  -9.22033318E+00  -9.42414900E+00  -9.03993718E+00  -1.14553893E+01  -9.13968061E+00  -7.13347278E+00  -1.37331078E+01  -1.16551856E+01  -4.33535927E+00  -9.26370685E+00  -3.03404921E+00  -4.37876141E+00  -7.14673900E+00  -3.78119984E+00  -2.00725760E+00  -4.55272775E+00  -4.97288105E+00  -3.27468435E+00  -6.53853137E+00  -8.55525498E+01  -8.39381622E+01  -5.83121619E+00  -7.67598221E+00  -8.93251290E+00  -3.36912148E+00  -2.71433097E+00  -8.61612112E+00  -3.52714850E+00  -3.96734472E+01  -9.58323116E+00  -7.54094013E+00  -2.04423800E+00  -2.74589866E+01  -8.27209683E+00  -1.08380587E+01  -7.91422683E+00  -6.74637177E+00  -8.71788626E+00  -1.17902403E+01  -8.01558384E+00  -1.45298739E+01  -9.38935766E+01  -1.16730434E+01  -6.94009764E+00  -5.54166663E+00  -9.97223666E+00  -6.49699165E+00
   2.97500000E+03   5.00000000E-01   5.00000000E-01  -4.31731358E+00  -1.37647584E+01  -2.32515722E+00  -1.64064393E+00  -3.05695563E+00  -2.88767496E+00  -8.73599234E+00  -6.97808310E+00  -5.29722660E+00  -2.74576910E-01  -2.02576419E+00  -3.19127258E-01  -2.23147115E+00  -3.74468294E+00  -3.39789546E+00  -8.36749873E+00  -4.40890576E+00  -1.44191836E+00  -8.87281070E+00  -9.00356462E+00  -8.76042669E+00  -1.11621818E+01  -9.33102347E+00  -7.02514279E+00  -1.42173020E+01  -1.15554949E+01  -4.68619613E+00  -9.86053641E+00  -3.08857918E+00  -4.38309741E+00  -7.20263446E+00  -4.01836233E+00  -1.86828914E+00  -4.36362973E+00  -4.99142207E+00  -3.34909520E+00  -6.57212969E+00  -8.07670045E+01  -7.89175442E+01  -5.82097757E+00  -7.36154798E+00  -8.51877173E+00  -3.01925939E+00  -2.64280590E+00  -8.55267561E+00  -3.52060955E+00  -3.72229291E+01  -9.15529439E+00  -7.42996122E+00  -2.04175060E+00  -2.59477246E+01  -8.55487220E+00  -1.11659961E+01  -8.49908672E+00  -6.88955622E+00  -9.04208647E+00  -1.22651914E+01  -8.01904045E+00  -1.50210095E+01  -8.90310917E+01  -1.21151619E+01  -7.06386905E+00  -5.43962597E+00  -9.85424652E+00  -6.62604058E+00
   3.32500000E+03   5.00000000E-01   5.00000000E-01  -4.16713475E+00  -1.36826313E+01  -2.32411593E+00  -1.73077173E+00  -3.28365803E+00  -3.04109260E+00  -8.57350921E+00  -7.07946216E+00  -5.36808839E+00  -2.77603690E-01  -2.04537435E+00  -3.17421743E-01  -2.33505625E+00  -3.74467824E+00  -3.39789076E+00  -8.62140127E+00  -4.40891762E+00  -1.39455859E+00  -8.54847680E+00  -8.63345010E+00  -8.51705835E+00  -1.09213619E+01  -9.53518604E+00  -6.93386647E+00  -1.46967972E+01  -1.14900141E+01  -5.03059103E+00  -1.04411461E+01  -3.13028934E+00  -4.35688723E+00  -7.26071926E+00  -4.25582274E+00  -1.77345378E+00  -4.20060460E+00  -5.05370876E+00  -3.47492915E+00  -6.61443758E+00  -7.63627384E+01  -7.42830554E+01  -5.81779210E+00  -7.07301034E+00  -8.14380011E+00  -2.71269367E+00  -2.56913344E+00  -8.49696114E+00  -3.52763764E+00  -3.49387531E+01  -8.75483516E+00  -7.30621009E+00  -2.04765376E+00  -2.45430815E+01  -8.81189770E+00  -1.14429361E+01  -9.09542993E+00  -7.09584132E+00  -9.40456165E+00  -1.27463877E+01  -8.00597097E+00  -1.54877300E+01  -8.45384299E+01  -1.25490364E+01  -7.19710908E+00  -5.34798314E+00  -9.76372315E+00  -6.78227816E+00
