 TITLE = "Total Concentrations" 
VARIABLES = "X"          "Y"              "Z"            "H+"             "Al+++"          "CO2(aq)"        "Mg++"           "Ca++"           "Fe++"           "Fe+++"          "Ba++"           "Sr++"           "Cl-"            "K+"             "Na+"            "SO4--"          "O2(aq)"         "B(OH)3(aq)"     "HPO4--"         "NO3-"           "H4SiO4(aq)"     "HNO3(aq)"       "Al(OH)2+"       "AlO2-"          "AlOH++"         "BaHCO3+"        "BaCl+"          "BaCO3(aq)"      "BaOH+"          "HCO3-"          "CO3--"          "CaCl+"          "CaCl2(aq)"      "CaOH+"          "CaSO4(aq)"      "FeCl+"          "FeCl2(aq)"      "FeOH+"          "FeSO4(aq)"      "OH-"            "HS-"            "H2S(aq)"        "H2PO4-"         "H3PO4(aq)"      "HAlO2(aq)"      "HSO4-"          "KCl(aq)"        "KOH(aq)"        "KSO4-"          "NH3(aq)"        "NaAlO2(aq)"     "NaOH(aq)"       "NaSO4-"         "H2(aq)"         "CaHPO4(aq)"     "CaPO4-"         "FeCO3(aq)"      "FeH2PO4+"       "FeHPO4(aq)"     "FePO4-"         "KHPO4-"         "PO4---"         "S--"            "Sr(CO3)(aq)"    "SrHCO3+"        "SrCl+"          "SrOH+"          "SrSO4(aq)"     
 ZONE I=          10 , J=           1 , K=           1  F=POINT
   1.75000000E+02   5.00000000E-01   5.00000000E-01  -6.89177332E+00  -1.78630585E+01  -3.29854738E+00  -1.32606397E+00  -1.62939804E+00  -3.23285593E+00  -1.14951051E+01  -6.72068869E+00  -5.13698434E+00  -2.63119695E-01  -1.95840272E+00  -3.35622156E-01  -1.59219481E+00  -3.74472744E+00  -3.39793996E+00  -6.10540680E+00  -4.40893533E+00  -2.06557752E+00  -1.28812220E+01  -1.47607895E+01  -1.26608376E+01  -1.59858227E+01  -8.64225509E+00  -8.12793502E+00  -1.05466252E+01  -1.32596404E+01  -2.37569588E+00  -5.06235401E+00  -2.79745895E+00  -3.93671803E+00  -7.43567385E+00  -2.38112608E+00  -4.18859690E+00  -6.55080911E+00  -5.88226913E+00  -3.83029510E+00  -6.50889087E+00  -1.35174855E+02  -1.35558021E+02  -6.52254926E+00  -1.15638964E+01  -1.36586301E+01  -7.07322649E+00  -3.18413832E+00  -9.33612128E+00  -3.46802475E+00  -6.42138083E+01  -1.41315751E+01  -8.04045207E+00  -1.80819733E+00  -4.27349081E+01  -6.30505438E+00  -7.68138602E+00  -4.55093958E+00  -7.68288054E+00  -7.24261239E+00  -8.01578300E+00  -7.94255987E+00  -1.03562371E+01  -1.44373233E+02  -8.78940462E+00  -6.88252957E+00  -6.31921925E+00  -1.14994953E+01  -5.96138587E+00
   5.25000000E+02   5.00000000E-01   5.00000000E-01  -6.36860436E+00  -1.67430398E+01  -2.89595447E+00  -1.33816373E+00  -1.73326452E+00  -3.01098601E+00  -1.11016774E+01  -6.72955362E+00  -5.14612473E+00  -2.63241184E-01  -1.96179890E+00  -3.33209626E-01  -1.64872621E+00  -3.74472008E+00  -3.39793260E+00  -6.28136929E+00  -4.40892798E+00  -2.01125295E+00  -1.21608499E+01  -1.35341169E+01  -1.17961077E+01  -1.48619693E+01  -8.49891293E+00  -7.98216372E+00  -1.08645223E+01  -1.29200756E+01  -2.46083868E+00  -5.54911826E+00  -2.80032537E+00  -4.04657538E+00  -7.28241453E+00  -2.49870149E+00  -3.71561084E+00  -6.17445848E+00  -5.62095907E+00  -3.57463143E+00  -6.48892720E+00  -1.25634084E+02  -1.25677457E+02  -6.19108936E+00  -1.06002530E+01  -1.26098659E+01  -6.34046049E+00  -3.12497980E+00  -9.19472992E+00  -3.48042054E+00  -5.95960460E+01  -1.31416437E+01  -8.00227064E+00  -1.86888888E+00  -3.98466149E+01  -6.42399321E+00  -8.09751239E+00  -4.80526525E+00  -7.14909918E+00  -7.23263346E+00  -8.52090448E+00  -7.80638046E+00  -1.09241894E+01  -1.34620507E+02  -9.05726182E+00  -6.68099762E+00  -6.22879975E+00  -1.12038218E+01  -5.97574578E+00
   8.75000000E+02   5.00000000E-01   5.00000000E-01  -5.92087719E+00  -1.58425987E+01  -2.61016590E+00  -1.35631894E+00  -1.86970353E+00  -2.84765816E+00  -1.07093377E+01  -6.74066404E+00  -5.15346607E+00  -2.63511108E-01  -1.96630496E+00  -3.31019916E-01  -1.72513620E+00  -3.74471770E+00  -3.39793022E+00  -6.55463732E+00  -4.40892562E+00  -1.94447962E+00  -1.15210442E+01  -1.24911235E+01  -1.10714145E+01  -1.39243988E+01  -8.45012544E+00  -7.83092698E+00  -1.12536493E+01  -1.26284199E+01  -2.64047048E+00  -6.10148540E+00  -2.81750319E+00  -4.13521110E+00  -7.18433313E+00  -2.66369657E+00  -3.29926955E+00  -5.82330983E+00  -5.40836539E+00  -3.39335307E+00  -6.48405075E+00  -1.17138332E+02  -1.16858159E+02  -6.00452384E+00  -9.85348368E+00  -1.17072309E+01  -5.69751878E+00  -3.05797100E+00  -9.07170753E+00  -3.49692082E+00  -5.54421197E+01  -1.22863166E+01  -7.95129076E+00  -1.92278962E+00  -3.72559490E+01  -6.66431426E+00  -8.58272425E+00  -5.16214778E+00  -6.82233968E+00  -7.35431195E+00  -9.08002655E+00  -7.78030852E+00  -1.15615794E+01  -1.25958289E+02  -9.39959434E+00  -6.57096428E+00  -6.12204801E+00  -1.09404338E+01  -6.02088607E+00
   1.22500000E+03   5.00000000E-01   5.00000000E-01  -5.53424822E+00  -1.51037429E+01  -2.44940341E+00  -1.37937098E+00  -2.03271351E+00  -2.72900628E+00  -1.03229889E+01  -6.75450736E+00  -5.15944148E+00  -2.64060448E-01  -1.97189784E+00  -3.29078263E-01  -1.80900831E+00  -3.74471558E+00  -3.39792809E+00  -6.88903732E+00  -4.40892359E+00  -1.87451944E+00  -1.09500723E+01  -1.15850436E+01  -1.04483215E+01  -1.31240251E+01  -8.50980795E+00  -7.67944513E+00  -1.17282573E+01  -1.23777467E+01  -2.92288558E+00  -6.72979240E+00  -2.84979683E+00  -4.21286870E+00  -7.13319458E+00  -2.86439981E+00  -2.93055061E+00  -5.49646341E+00  -5.23523910E+00  -3.26721156E+00  -6.49013021E+00  -1.09519590E+02  -1.08933011E+02  -5.92093683E+00  -9.27077665E+00  -1.09127069E+01  -5.12459155E+00  -2.98932172E+00  -8.96645518E+00  -3.51287292E+00  -5.16846914E+01  -1.15322779E+01  -7.89400811E+00  -1.96815634E+00  -3.49188152E+01  -6.99110148E+00  -9.11313951E+00  -5.62786478E+00  -6.64627368E+00  -7.56607154E+00  -9.66626666E+00  -7.83244749E+00  -1.22337141E+01  -1.18212487E+02  -9.82964796E+00  -6.56727998E+00  -6.00588269E+00  -1.07056611E+01  -6.08858843E+00
   1.57500000E+03   5.00000000E-01   5.00000000E-01  -5.19892890E+00  -1.44988216E+01  -2.37533482E+00  -1.40684598E+00  -2.21535379E+00  -2.65760287E+00  -9.94787895E+00  -6.77382462E+00  -5.16773049E+00  -2.65091183E-01  -1.97875782E+00  -3.27442405E-01  -1.89133970E+00  -3.74471355E+00  -3.39792607E+00  -7.23631129E+00  -4.40892185E+00  -1.80554512E+00  -1.04375812E+01  -1.07931405E+01  -9.90933260E+00  -1.24381035E+01  -8.64459437E+00  -7.53160736E+00  -1.22549515E+01  -1.21633656E+01  -3.27124580E+00  -7.40007980E+00  -2.89303690E+00  -4.28016986E+00  -7.11849172E+00  -3.08458827E+00  -2.61303673E+00  -5.20133086E+00  -5.10559607E+00  -3.18958513E+00  -6.50490590E+00  -1.02641417E+02  -1.01764734E+02  -5.88646476E+00  -8.78869394E+00  -1.02087291E+01  -4.60516323E+00  -2.92124459E+00  -8.87667900E+00  -3.52233444E+00  -4.82674951E+01  -1.08628667E+01  -7.83187779E+00  -2.00090360E+00  -3.27986909E+01  -7.34947261E+00  -9.64038452E+00  -6.17307440E+00  -6.56949730E+00  -7.82650433E+00  -1.02480911E+01  -7.91256339E+00  -1.28945414E+01  -1.11237788E+02  -1.03140465E+01  -6.63801048E+00  -5.88638875E+00  -1.04980778E+01  -6.17081749E+00
   1.92500000E+03   5.00000000E-01   5.00000000E-01  -4.90628250E+00  -1.39979056E+01  -2.34449225E+00  -1.43763939E+00  -2.41413737E+00  -2.64998416E+00  -9.58327169E+00  -6.80203952E+00  -5.18257016E+00  -2.66661156E-01  -1.98718492E+00  -3.26152268E-01  -1.96824554E+00  -3.74471155E+00  -3.39792407E+00  -7.56751631E+00  -4.40892062E+00  -1.74359673E+00  -9.97286762E+00  -1.00904647E+01  -9.43628503E+00  -1.18410672E+01  -8.81684942E+00  -7.39003428E+00  -1.27977035E+01  -1.19835459E+01  -3.64594386E+00  -8.07755673E+00  -2.94422308E+00  -4.33614462E+00  -7.13451548E+00  -3.31327747E+00  -2.36219524E+00  -4.95470009E+00  -5.03748213E+00  -3.16946694E+00  -6.52888178E+00  -9.63930527E+01  -9.52391680E+01  -5.86529246E+00  -8.36143316E+00  -9.57510236E+00  -4.12653743E+00  -2.85369231E+00  -8.80113571E+00  -3.52200349E+00  -4.51415947E+01  -1.02585683E+01  -7.76540356E+00  -2.01885898E+00  -3.08651170E+01  -7.70396212E+00  -1.01344796E+01  -6.77769214E+00  -6.57297709E+00  -8.12524854E+00  -1.08236252E+01  -7.98681316E+00  -1.35192338E+01  -1.04915424E+02  -1.08167287E+01  -6.74652724E+00  -5.76791569E+00  -1.03184218E+01  -6.26229194E+00
   2.27500000E+03   5.00000000E-01   5.00000000E-01  -4.64266846E+00  -1.35299603E+01  -2.33186798E+00  -1.46559121E+00  -2.62821551E+00  -2.72053672E+00  -9.21563893E+00  -6.84265850E+00  -5.20704835E+00  -2.68433292E-01  -1.99759944E+00  -3.25317694E-01  -2.04037788E+00  -3.74470951E+00  -3.39792203E+00  -7.88118373E+00  -4.40892061E+00  -1.69881911E+00  -9.53990430E+00  -9.42330806E+00  -8.99477289E+00  -1.12719455E+01  -9.01376443E+00  -7.25667717E+00  -1.33524267E+01  -1.18445793E+01  -4.03268683E+00  -8.75914186E+00  -3.00190826E+00  -4.37991839E+00  -7.18537902E+00  -3.54626802E+00  -2.19045223E+00  -4.76904245E+00  -5.05307288E+00  -3.21777656E+00  -6.56988148E+00  -9.06798671E+01  -8.92513197E+01  -5.84321937E+00  -7.95936909E+00  -8.96866539E+00  -3.67475624E+00  -2.78564871E+00  -8.74562684E+00  -3.51247301E+00  -4.22591528E+01  -9.68303869E+00  -7.70095304E+00  -2.02327461E+00  -2.90927318E+01  -8.04877936E+00  -1.06000770E+01  -7.45035387E+00  -6.65771333E+00  -8.47706305E+00  -1.14206994E+01  -8.04831341E+00  -1.41165186E+01  -9.91494823E+01  -1.13324313E+01  -6.87961656E+00  -5.65267154E+00  -1.01737570E+01  -6.36114339E+00
   2.62500000E+03   5.00000000E-01   5.00000000E-01  -4.39527347E+00  -1.30361059E+01  -2.32669297E+00  -1.48573798E+00  -2.85355315E+00  -2.86233815E+00  -8.84007271E+00  -6.89971371E+00  -5.24394036E+00  -2.69937909E-01  -2.01050725E+00  -3.24889157E-01  -2.11365851E+00  -3.74470741E+00  -3.39791992E+00  -8.19241760E+00  -4.40892367E+00  -1.67275364E+00  -9.12361582E+00  -8.75033529E+00  -8.56271803E+00  -1.06817039E+01  -9.23751316E+00  -7.13398928E+00  -1.39306066E+01  -1.17546852E+01  -4.43160513E+00  -9.45601979E+00  -3.06119095E+00  -4.40658636E+00  -7.27286388E+00  -3.78189563E+00  -2.08883145E+00  -4.63498481E+00  -5.15343804E+00  -3.32981224E+00  -6.63626893E+00  -8.54268270E+01  -8.37155393E+01  -5.82315406E+00  -7.57084470E+00  -8.35836553E+00  -3.24179184E+00  -2.71590849E+00  -8.71668176E+00  -3.49954194E+00  -3.95783649E+01  -9.11204206E+00  -7.64473596E+00  -2.02007539E+00  -2.74602329E+01  -8.39191297E+00  -1.10548031E+01  -8.19278307E+00  -6.82095369E+00  -8.89213451E+00  -1.20614168E+01  -8.10709764E+00  -1.47113535E+01  -9.38644510E+01  -1.18707158E+01  -7.03810379E+00  -5.54235673E+00  -1.00719099E+01  -6.47123579E+00
   2.97500000E+03   5.00000000E-01   5.00000000E-01  -4.15893986E+00  -1.25074963E+01  -2.32460659E+00  -1.50340748E+00  -3.07872467E+00  -3.04976684E+00  -8.49963647E+00  -6.97749584E+00  -5.29626701E+00  -2.71108686E-01  -2.02640604E+00  -3.24414291E-01  -2.20124952E+00  -3.74470519E+00  -3.39791771E+00  -8.51478883E+00  -4.40893445E+00  -1.65329688E+00  -8.71680253E+00  -8.06624115E+00  -8.13979298E+00  -1.00641558E+01  -9.49001771E+00  -7.02518257E+00  -1.45366644E+01  -1.17162167E+01  -4.84218844E+00  -1.01715310E+01  -3.11014867E+00  -4.40435308E+00  -7.38488594E+00  -4.01868057E+00  -2.03018148E+00  -4.52520824E+00  -5.31399639E+00  -3.48973628E+00  -6.72958572E+00  -8.05844684E+01  -7.85787290E+01  -5.81390773E+00  -7.19793520E+00  -7.74181642E+00  -2.83445649E+00  -2.64360668E+00  -8.71415838E+00  -3.49611253E+00  -3.70692302E+01  -8.54278407E+00  -7.59558310E+00  -2.02170664E+00  -2.59494789E+01  -8.73270217E+00  -1.15001477E+01  -8.98030168E+00  -7.04734087E+00  -9.36023928E+00  -1.27396658E+01  -8.17205516E+00  -1.53200535E+01  -8.90043549E+01  -1.24341520E+01  -7.22249096E+00  -5.43929342E+00  -1.00145960E+01  -6.60445679E+00
   3.32500000E+03   5.00000000E-01   5.00000000E-01  -3.94680096E+00  -1.20911396E+01  -2.32380171E+00  -1.53161604E+00  -3.28674551E+00  -3.26143261E+00  -8.24268692E+00  -7.07947315E+00  -5.36710319E+00  -2.72093641E-01  -2.05385323E+00  -3.22610860E-01  -2.32247464E+00  -3.74470284E+00  -3.39791536E+00  -8.84107280E+00  -4.40896268E+00  -1.60325235E+00  -8.33111095E+00  -7.48636890E+00  -7.81042082E+00  -9.55117538E+00  -9.75738693E+00  -6.93346062E+00  -1.51416805E+01  -1.17138748E+01  -5.24831022E+00  -1.08749947E+01  -3.13194558E+00  -4.35695933E+00  -7.48664202E+00  -4.25712721E+00  -1.99236254E+00  -4.41792922E+00  -5.49688405E+00  -3.69348615E+00  -6.83349220E+00  -7.61371343E+01  -7.38397422E+01  -5.82212354E+00  -6.85930836E+00  -7.21940129E+00  -2.48449984E+00  -2.57660975E+00  -8.72870397E+00  -3.52984108E+00  -3.47240292E+01  -8.05692134E+00  -7.53404065E+00  -2.04633086E+00  -2.45450875E+01  -9.04545531E+00  -1.18942550E+01  -9.75962783E+00  -7.32396907E+00  -9.85537178E+00  -1.34149591E+01  -8.24042756E+00  -1.59195492E+01  -8.45299343E+01  -1.29929235E+01  -7.41831378E+00  -5.34658109E+00  -9.98658763E+00  -6.78052434E+00
