 TITLE = "Total Concentrations" 
VARIABLES = "X"          "Y"              "Z"            "H+"             "Al+++"          "CO2(aq)"        "Mg++"           "Ca++"           "Fe++"           "Fe+++"          "Ba++"           "Sr++"           "Cl-"            "F-"             "K+"             "Na+"            "SO4--"          "O2(aq)"         "B(OH)3(aq)"     "HPO4--"         "NO3-"           "H4SiO4(aq)"     "HNO3(aq)"       "Al(OH)2+"       "AlO2-"          "AlOH++"         "BaHCO3+"        "BaCl+"          "BaCO3(aq)"      "BaOH+"          "HCO3-"          "CO3--"          "CaCl+"          "CaCl2(aq)"      "CaOH+"          "CaSO4(aq)"      "FeCl+"          "FeCl2(aq)"      "FeOH+"          "FeSO4(aq)"      "OH-"            "HS-"            "S2O3--"         "H2PO4-"         "H3PO4(aq)"      "HAlO2(aq)"      "HSO4-"          "KCl(aq)"        "KOH(aq)"        "KSO4-"          "NH3(aq)"        "NaAlO2(aq)"     "NaOH(aq)"       "NaSO4-"         "H2(aq)"         "CaHPO4(aq)"     "CaPO4-"         "FeCO3(aq)"      "FeH2PO4+"       "FeHPO4(aq)"     "FePO4-"         "KHPO4-"         "PO4---"         "Sr(CO3)(aq)"    "SrHCO3+"        "SrCl+"          "SrOH+"          "SrSO4(aq)"      "AlH3SiO4++"     "Si2O2(OH)5-"    "Si2O3(OH)4--"   "Si3O5(OH)5---"  "Si3O6(OH)3---"  "Si4O12H4----"   "Si4O6(OH)6--"   "Si4O7(OH)6----" "Si4O8(OH)4----" "Si6O15------"   "SiF6--"        
 ZONE I=         100 , J=           1 , K=           1  F=POINT
   1.75000000E+01   5.00000000E-01   5.00000000E-01  -7.62629768E+00  -1.50735031E+01  -3.76661745E+00  -1.29273317E+00  -1.51161252E+00  -4.73319459E+00  -1.42601844E+01  -6.71212985E+00  -5.12525543E+00  -2.63306700E-01  -4.16749098E+00  -1.95784793E+00  -3.44796649E-01  -1.55358804E+00  -3.74472739E+00  -3.39793991E+00  -5.99747708E+00  -4.40893528E+00  -3.56433302E+00  -1.39184850E+01  -1.26438617E+01  -1.04746078E+01  -1.34087125E+01  -8.93893070E+00  -8.32091564E+00  -1.03737566E+01  -1.42394882E+01  -2.34169023E+00  -4.64240551E+00  -2.76563940E+00  -3.61352527E+00  -8.09273959E+00  -2.23152338E+00  -6.05461329E+00  -8.15536590E+00  -7.71610153E+00  -5.37480477E+00  -6.91114957E+00  -1.52818109E+02  -1.57263932E+02  -7.02305507E+00  -1.29400605E+01  -1.14594704E+01  -8.14257969E+00  -3.22887163E+00  -9.91388945E+00  -3.42648973E+00  -7.24678450E+01  -1.21039274E+01  -8.35558690E+00  -1.65752684E+00  -4.81196040E+01  -6.26710406E+00  -7.32428506E+00  -5.54026769E+00  -9.66492722E+00  -8.49031940E+00  -8.53341507E+00  -8.31730668E+00  -9.87761311E+00  -8.71122592E+00  -7.26667849E+00  -6.40005074E+00  -1.23694788E+01  -5.97825322E+00  -1.48221961E+01  -7.92406748E+00  -1.11187979E+01  -1.63984622E+01  -1.63987040E+01  -2.22664614E+01  -1.35672052E+01  -2.21581885E+01  -2.21584565E+01  -3.23093709E+01  -3.26386413E+01
   5.25000000E+01   5.00000000E-01   5.00000000E-01  -7.51525293E+00  -1.49064795E+01  -3.68467605E+00  -1.29336685E+00  -1.42758919E+00  -4.43227244E+00  -1.41884033E+01  -6.71228273E+00  -5.13206209E+00  -2.63616526E-01  -4.16747746E+00  -1.96003798E+00  -3.46995692E-01  -1.48823140E+00  -3.74471387E+00  -3.39792639E+00  -6.03123075E+00  -4.40892176E+00  -3.45718734E+00  -1.37932650E+01  -1.25569856E+01  -1.05090564E+01  -1.32907153E+01  -8.92799036E+00  -8.31619712E+00  -1.04525939E+01  -1.42324556E+01  -2.34486597E+00  -4.72352111E+00  -2.68435509E+00  -3.56103920E+00  -8.01701742E+00  -2.09682934E+00  -5.73740160E+00  -7.86444184E+00  -7.45525815E+00  -5.01856117E+00  -6.93815018E+00  -1.51491426E+02  -1.55786587E+02  -6.96329662E+00  -1.27654249E+01  -1.14419349E+01  -7.95055714E+00  -3.23672587E+00  -9.93860688E+00  -3.37363788E+00  -7.18559217E+01  -1.21382588E+01  -8.40166894E+00  -1.61345780E+00  -4.77551371E+01  -6.22050314E+00  -7.35801140E+00  -5.34259707E+00  -9.30759188E+00  -8.24721254E+00  -8.39875463E+00  -8.33167762E+00  -9.98483244E+00  -8.78994056E+00  -7.25703699E+00  -6.40977003E+00  -1.23775378E+01  -5.92955895E+00  -1.45392983E+01  -7.77891621E+00  -1.10257302E+01  -1.62509925E+01  -1.62512438E+01  -2.20777503E+01  -1.32877578E+01  -2.19702397E+01  -2.19705223E+01  -3.19649282E+01  -3.21856051E+01
   8.75000000E+01   5.00000000E-01   5.00000000E-01  -7.43117049E+00  -1.48067149E+01  -3.62591836E+00  -1.29391385E+00  -1.41525260E+00  -4.25363682E+00  -1.40510888E+01  -6.71254383E+00  -5.13399463E+00  -2.63615009E-01  -4.16743786E+00  -1.96087500E+00  -3.46928345E-01  -1.47388532E+00  -3.74467428E+00  -3.39788680E+00  -6.04230600E+00  -4.40888217E+00  -3.39708648E+00  -1.36922986E+01  -1.24821328E+01  -1.05033560E+01  -1.32126623E+01  -8.91331093E+00  -8.30748421E+00  -1.04995314E+01  -1.41980012E+01  -2.34760712E+00  -4.78113411E+00  -2.67114975E+00  -3.57227326E+00  -7.98567596E+00  -2.07618533E+00  -5.53908590E+00  -7.68815519E+00  -7.28875520E+00  -4.82694463E+00  -6.94050822E+00  -1.50250748E+02  -1.54471074E+02  -6.90375306E+00  -1.26155962E+01  -1.14076277E+01  -7.83284130E+00  -3.23884627E+00  -9.93366570E+00  -3.36555359E+00  -7.12706421E+01  -1.21267980E+01  -8.41680834E+00  -1.61315745E+00  -4.73926042E+01  -6.21422696E+00  -7.40745469E+00  -5.23529101E+00  -9.07075429E+00  -8.09520255E+00  -8.33024335E+00  -8.31726555E+00  -1.00489972E+01  -8.83186321E+00  -7.23861276E+00  -6.41036144E+00  -1.23529147E+01  -5.91795066E+00  -1.43477381E+01  -7.70594043E+00  -1.09814886E+01  -1.61802832E+01  -1.61805408E+01  -2.19857761E+01  -1.31543448E+01  -2.18790211E+01  -2.18793141E+01  -3.17921982E+01  -3.18858502E+01
   1.22500000E+02   5.00000000E-01   5.00000000E-01  -7.35796334E+00  -1.47222499E+01  -3.57607442E+00  -1.29441468E+00  -1.41930809E+00  -4.12602363E+00  -1.39294269E+01  -6.71283563E+00  -5.13470455E+00  -2.63521265E-01  -4.16737367E+00  -1.96135824E+00  -3.46306930E-01  -1.47206826E+00  -3.74461008E+00  -3.39782260E+00  -6.04845338E+00  -4.40881797E+00  -3.35602506E+00  -1.36012577E+01  -1.24017614E+01  -1.04723311E+01  -1.31393590E+01  -8.89728302E+00  -8.29734753E+00  -1.05348057E+01  -1.41540514E+01  -2.35025688E+00  -4.82967524E+00  -2.67287066E+00  -3.59657283E+00  -7.96092741E+00  -2.08159906E+00  -5.39054199E+00  -7.55987633E+00  -7.16285457E+00  -4.69599599E+00  -6.93396614E+00  -1.49046031E+02  -1.53213641E+02  -6.84847388E+00  -1.24799823E+01  -1.13568860E+01  -7.73711577E+00  -3.23901717E+00  -9.91821922E+00  -3.36780671E+00  -7.07001685E+01  -1.20881606E+01  -8.42059425E+00  -1.62279934E+00  -4.70338722E+01  -6.21651459E+00  -7.45539610E+00  -5.16691155E+00  -8.88875938E+00  -7.98652564E+00  -8.29466197E+00  -8.29589212E+00  -1.00999382E+01  -8.86095925E+00  -7.21753056E+00  -6.40812969E+00  -1.23172752E+01  -5.91488790E+00  -1.41829043E+01  -7.66233766E+00  -1.09576616E+01  -1.61410821E+01  -1.61413434E+01  -2.19343977E+01  -1.30799503E+01  -2.18283908E+01  -2.18286908E+01  -3.16870944E+01  -3.16456395E+01
   1.57500000E+02   5.00000000E-01   5.00000000E-01  -7.29055311E+00  -1.46439914E+01  -3.53063283E+00  -1.29488653E+00  -1.42751705E+00  -4.02691777E+00  -1.38264608E+01  -6.71313872E+00  -5.13512478E+00  -2.63392011E-01  -4.16728619E+00  -1.96175748E+00  -3.45566892E-01  -1.47370536E+00  -3.74452260E+00  -3.39773512E+00  -6.05385782E+00  -4.40873049E+00  -3.32452939E+00  -1.35155464E+01  -1.23175032E+01  -1.04277836E+01  -1.30669654E+01  -8.88060710E+00  -8.28647832E+00  -1.05646307E+01  -1.41061336E+01  -2.35295515E+00  -4.87380822E+00  -2.67786140E+00  -3.62296618E+00  -7.93595977E+00  -2.09331108E+00  -5.26983485E+00  -7.45835159E+00  -7.06048615E+00  -4.59568173E+00  -6.92347293E+00  -1.47864132E+02  -1.51987242E+02  -6.79721387E+00  -1.23536599E+01  -1.12968865E+01  -7.64984235E+00  -3.23826465E+00  -9.89814201E+00  -3.37241769E+00  -7.01404940E+01  -1.20351572E+01  -8.41901844E+00  -1.63454723E+00  -4.66793819E+01  -6.22086574E+00  -7.50001283E+00  -5.12106566E+00  -8.73924273E+00  -7.90437416E+00  -8.27988290E+00  -8.27285541E+00  -1.01458439E+01  -8.88439459E+00  -7.19544808E+00  -6.40472324E+00  -1.22771086E+01  -5.91391069E+00  -1.40310291E+01  -7.63345746E+00  -1.09442196E+01  -1.61176602E+01  -1.61179232E+01  -2.19037342E+01  -1.30349079E+01  -2.17984679E+01  -2.17987720E+01  -3.16146384E+01  -3.14349027E+01
   1.92500000E+02   5.00000000E-01   5.00000000E-01  -7.22675037E+00  -1.45691339E+01  -3.48763318E+00  -1.29533898E+00  -1.43703132E+00  -3.94604799E+00  -1.37371073E+01  -6.71344902E+00  -5.13547595E+00  -2.63241034E-01  -4.16717662E+00  -1.96214108E+00  -3.44808168E-01  -1.47663721E+00  -3.74441303E+00  -3.39762555E+00  -6.05952021E+00  -4.40862092E+00  -3.29844915E+00  -1.34331154E+01  -1.22310476E+01  -1.03757399E+01  -1.29949036E+01  -8.86353414E+00  -8.27507117E+00  -1.05915204E+01  -1.40565124E+01  -2.35578444E+00  -4.91563147E+00  -2.68344492E+00  -3.64897594E+00  -7.91017436E+00  -2.10673995E+00  -5.16686230E+00  -7.37367510E+00  -6.97364595E+00  -4.51399960E+00  -6.91113869E+00  -1.46700767E+02  -1.50783338E+02  -6.74897335E+00  -1.22335600E+01  -1.12316120E+01  -7.56685470E+00  -3.23687028E+00  -9.87579792E+00  -3.37753039E+00  -6.95896352E+01  -1.19740837E+01  -8.41448823E+00  -1.64657753E+00  -4.63291809E+01  -6.22585876E+00  -7.54197597E+00  -5.08998942E+00  -8.61102616E+00  -7.83987491E+00  -8.27912844E+00  -8.24947584E+00  -1.01896070E+01  -8.90490789E+00  -7.17284562E+00  -6.40056611E+00  -1.22349137E+01  -5.91353329E+00  -1.38871977E+01  -7.61297577E+00  -1.09368952E+01  -1.61034520E+01  -1.61037152E+01  -2.18852940E+01  -1.30064853E+01  -2.17807600E+01  -2.17810661E+01  -3.15608577E+01  -3.12407854E+01
   2.27500000E+02   5.00000000E-01   5.00000000E-01  -7.16545189E+00  -1.44965918E+01  -3.44610804E+00  -1.29577824E+00  -1.44716771E+00  -3.87784859E+00  -1.36568803E+01  -6.71376618E+00  -5.13580861E+00  -2.63071974E-01  -4.16704603E+00  -1.96252762E+00  -3.44052582E-01  -1.48031898E+00  -3.74428244E+00  -3.39749496E+00  -6.06570348E+00  -4.40849033E+00  -3.27568299E+00  -1.33529189E+01  -1.21435232E+01  -1.03194809E+01  -1.29231963E+01  -8.84619550E+00  -8.26320064E+00  -1.06166979E+01  -1.40062777E+01  -2.35880315E+00  -4.95622600E+00  -2.68900944E+00  -3.67407231E+00  -7.88398268E+00  -2.12081079E+00  -5.07612789E+00  -7.30042930E+00  -6.89787994E+00  -4.44499436E+00  -6.89800090E+00  -1.45554129E+02  -1.49598530E+02  -6.70298953E+00  -1.21178688E+01  -1.11633115E+01  -7.48658204E+00  -3.23493443E+00  -9.85231441E+00  -3.38271037E+00  -6.90464874E+01  -1.19083143E+01  -8.40815940E+00  -1.65846525E+00  -4.59832239E+01  -6.23122608E+00  -7.58209683E+00  -5.06935260E+00  -8.49780183E+00  -7.78785158E+00  -8.28830407E+00  -8.22614140E+00  -1.02324837E+01  -8.92377260E+00  -7.14990978E+00  -6.39578824E+00  -1.21918400E+01  -5.91341741E+00  -1.37492131E+01  -7.59771710E+00  -1.09335608E+01  -1.60952268E+01  -1.60954893E+01  -2.18748334E+01  -1.29883149E+01  -2.17710234E+01  -2.17713298E+01  -3.15190900E+01  -3.10569033E+01
   2.62500000E+02   5.00000000E-01   5.00000000E-01  -7.10604581E+00  -1.44258753E+01  -3.40555119E+00  -1.29620871E+00  -1.45775062E+00  -3.81897156E+00  -1.35827487E+01  -6.71409079E+00  -5.13613343E+00  -2.62886102E-01  -4.16689539E+00  -1.96292309E+00  -3.43304252E-01  -1.48458574E+00  -3.74413180E+00  -3.39734432E+00  -6.07249698E+00  -4.40833969E+00  -3.25506871E+00  -1.32743811E+01  -1.20556464E+01  -1.02608916E+01  -1.28519626E+01  -8.82868626E+00  -8.25091143E+00  -1.06408397E+01  -1.39560081E+01  -2.36205788E+00  -4.99619353E+00  -2.69442560E+00  -3.69817848E+00  -7.85779685E+00  -2.13526881E+00  -4.99432772E+00  -7.23535976E+00  -6.83044428E+00  -4.38524081E+00  -6.88461112E+00  -1.44423233E+02  -1.48431102E+02  -6.65878940E+00  -1.20055361E+01  -1.10933099E+01  -7.40829814E+00  -3.23251217E+00  -9.82829185E+00  -3.38785472E+00  -6.85103890E+01  -1.18397846E+01  -8.40065741E+00  -1.67011287E+00  -4.56414449E+01  -6.23696688E+00  -7.62097879E+00  -5.05650016E+00  -8.39575265E+00  -7.74510686E+00  -8.30481967E+00  -8.20301671E+00  -1.02751112E+01  -8.94167489E+00  -7.12674991E+00  -6.39044878E+00  -1.21484850E+01  -5.91349176E+00  -1.36159328E+01  -7.58592567E+00  -1.09330360E+01  -1.60912041E+01  -1.60914653E+01  -2.18699957E+01  -1.29768842E+01  -2.17669009E+01  -2.17672063E+01  -3.14857231E+01  -3.08797877E+01
   2.97500000E+02   5.00000000E-01   5.00000000E-01  -7.04816968E+00  -1.43567349E+01  -3.36569327E+00  -1.29663378E+00  -1.46872345E+00  -3.76724993E+00  -1.35127813E+01  -6.71442362E+00  -5.13645201E+00  -2.62684117E-01  -4.16672557E+00  -1.96332991E+00  -3.42563394E-01  -1.48936326E+00  -3.74396198E+00  -3.39717450E+00  -6.07994795E+00  -4.40816987E+00  -3.23592500E+00  -1.31971692E+01  -1.19678696E+01  -1.02010960E+01  -1.27813110E+01  -8.81108768E+00  -8.23823960E+00  -1.06643556E+01  -1.39060291E+01  -2.36558905E+00  -5.03588780E+00  -2.69967535E+00  -3.72132023E+00  -7.83189550E+00  -2.15004986E+00  -4.91933119E+00  -7.17637677E+00  -6.76952301E+00  -4.33256630E+00  -6.87127489E+00  -1.43307428E+02  -1.47280005E+02  -6.61609894E+00  -1.18959546E+01  -1.10224147E+01  -7.33160865E+00  -3.22964560E+00  -9.80407266E+00  -3.39293729E+00  -6.79809166E+01  -1.17696575E+01  -8.39234879E+00  -1.68149926E+00  -4.53037742E+01  -6.24313818E+00  -7.65903751E+00  -5.04969183E+00  -8.30243762E+00  -7.70956528E+00  -8.32696157E+00  -8.18020894E+00  -1.03178481E+01  -8.95902514E+00  -7.10345200E+00  -6.38458880E+00  -1.21051830E+01  -5.91374640E+00  -1.34866920E+01  -7.57656648E+00  -1.09346171E+01  -1.60903249E+01  -1.60905846E+01  -2.18693752E+01  -1.29701258E+01  -2.17669866E+01  -2.17672905E+01  -3.14586229E+01  -3.07074442E+01
   3.32500000E+02   5.00000000E-01   5.00000000E-01  -6.99159766E+00  -1.42890303E+01  -3.32639480E+00  -1.29705619E+00  -1.48005766E+00  -3.72120157E+00  -1.34457576E+01  -6.71476543E+00  -5.13676398E+00  -2.62466565E-01  -4.16653737E+00  -1.96374928E+00  -3.41829408E-01  -1.49460063E+00  -3.74377378E+00  -3.39698630E+00  -6.08809227E+00  -4.40798167E+00  -3.21783555E+00  -1.31210838E+01  -1.18804800E+01  -1.01407817E+01  -1.27113217E+01  -8.79347404E+00  -8.22521750E+00  -1.06875126E+01  -1.38565293E+01  -2.36943389E+00  -5.07552648E+00  -2.70476522E+00  -3.74354406E+00  -7.80644851E+00  -2.16513353E+00  -4.84968909E+00  -7.12206822E+00  -6.71384766E+00  -4.28549863E+00  -6.85816406E+00  -1.42206222E+02  -1.46144507E+02  -6.57476571E+00  -1.17887724E+01  -1.09511303E+01  -7.25627531E+00  -3.22637158E+00  -9.77986068E+00  -3.39794957E+00  -6.74577809E+01  -1.16986552E+01  -8.38346063E+00  -1.69262113E+00  -4.49701422E+01  -6.24980618E+00  -7.69656202E+00  -5.04772849E+00  -8.21622130E+00  -7.67981921E+00  -8.35354821E+00  -8.15780695E+00  -1.03609097E+01  -8.97608844E+00  -7.08009291E+00  -6.37824350E+00  -1.20621296E+01  -5.91418486E+00  -1.33610678E+01  -7.56900073E+00  -1.09378616E+01  -1.60919240E+01  -1.60921823E+01  -2.18720887E+01  -1.29667653E+01  -2.17703971E+01  -2.17706990E+01  -3.14364509E+01  -3.05386825E+01
   3.67500000E+02   5.00000000E-01   5.00000000E-01  -6.93618269E+00  -1.42226748E+01  -3.28759071E+00  -1.29747829E+00  -1.49173187E+00  -3.67976825E+00  -1.33808983E+01  -6.71511697E+00  -5.13706866E+00  -2.62233930E-01  -4.16633151E+00  -1.96418183E+00  -3.41101558E-01  -1.50025464E+00  -3.74356793E+00  -3.39678045E+00  -6.09696167E+00  -4.40777582E+00  -3.20053756E+00  -1.30460026E+01  -1.17936608E+01  -1.00803770E+01  -1.26420497E+01  -8.77591528E+00  -8.21187495E+00  -1.07104953E+01  -1.38076192E+01  -2.37362806E+00  -5.11524960E+00  -2.70970642E+00  -3.76489848E+00  -7.78155452E+00  -2.18050933E+00  -4.78437359E+00  -7.07144087E+00  -6.66249469E+00  -4.24299213E+00  -6.84537427E+00  -1.41119211E+02  -1.45024053E+02  -6.53470943E+00  -1.16837864E+01  -1.08797786E+01  -7.18214364E+00  -3.22272376E+00  -9.75578051E+00  -3.40288721E+00  -6.69407708E+01  -1.16272375E+01  -8.37413995E+00  -1.70347951E+00  -4.46404807E+01  -6.25703524E+00  -7.73376089E+00  -5.04975221E+00  -8.13596407E+00  -7.65487767E+00  -8.38373614E+00  -8.13589075E+00  -1.04044315E+01  -8.99304750E+00  -7.05674467E+00  -6.37144519E+00  -1.20194413E+01  -5.91481311E+00  -1.32387695E+01  -7.56281931E+00  -1.09424792E+01  -1.60955644E+01  -1.60958220E+01  -2.18775568E+01  -1.29659880E+01  -2.17765527E+01  -2.17768528E+01  -3.14183276E+01  -3.03727731E+01
   4.02500000E+02   5.00000000E-01   5.00000000E-01  -6.88182485E+00  -1.41576103E+01  -3.24925994E+00  -1.29790210E+00  -1.50372708E+00  -3.64216800E+00  -1.33176982E+01  -6.71547888E+00  -5.13736538E+00  -2.61986657E-01  -4.16610866E+00  -1.96462787E+00  -3.40379110E-01  -1.50628608E+00  -3.74334508E+00  -3.39655760E+00  -6.10658550E+00  -4.40755297E+00  -3.18386024E+00  -1.29718480E+01  -1.17075299E+01  -1.00201524E+01  -1.25735313E+01  -8.75847825E+00  -8.19823966E+00  -1.07334394E+01  -1.37593629E+01  -2.37820656E+00  -5.15515185E+00  -2.71451043E+00  -3.78542997E+00  -7.75726799E+00  -2.19616906E+00  -4.72263098E+00  -7.02377335E+00  -6.61476971E+00  -4.20427716E+00  -6.83295652E+00  -1.40046049E+02  -1.43918189E+02  -6.49589237E+00  -1.15808818E+01  -1.08085685E+01  -7.10910791E+00  -3.21873322E+00  -9.73190968E+00  -3.40774701E+00  -6.64297222E+01  -1.15557044E+01  -8.36448573E+00  -1.71407662E+00  -4.43147225E+01  -6.26488562E+00  -7.77079152E+00  -5.05513164E+00  -8.06084507E+00  -7.63402112E+00  -8.41690633E+00  -8.11453397E+00  -1.04485019E+01  -9.01003603E+00  -7.03347616E+00  -6.36422397E+00  -1.19771883E+01  -5.91563707E+00  -1.31195830E+01  -7.55775116E+00  -1.09482713E+01  -1.61009474E+01  -1.61012051E+01  -2.18853835E+01  -1.29672549E+01  -2.17850574E+01  -2.17853560E+01  -3.14036504E+01  -3.02092596E+01
   4.37500000E+02   5.00000000E-01   5.00000000E-01  -6.82845309E+00  -1.40937941E+01  -3.21140784E+00  -1.29832942E+00  -1.51602563E+00  -3.60780667E+00  -1.32558224E+01  -6.71585175E+00  -5.13765358E+00  -2.61725164E-01  -4.16586942E+00  -1.96508752E+00  -3.39661361E-01  -1.51265877E+00  -3.74310584E+00  -3.39631835E+00  -6.11699100E+00  -4.40731373E+00  -3.16768918E+00  -1.28985699E+01  -1.16221629E+01  -9.96028063E+00  -1.25057894E+01  -8.74122741E+00  -8.18433732E+00  -1.07564504E+01  -1.37117965E+01  -2.38320431E+00  -5.19530117E+00  -2.71918808E+00  -3.80518224E+00  -7.73361640E+00  -2.21210510E+00  -4.66389342E+00  -6.97852813E+00  -6.57013732E+00  -4.16877111E+00  -6.82093526E+00  -1.38986423E+02  -1.42826528E+02  -6.45830154E+00  -1.14799953E+01  -1.07376387E+01  -7.03709210E+00  -3.21442875E+00  -9.70829700E+00  -3.41252626E+00  -6.59245000E+01  -1.14842562E+01  -8.35456730E+00  -1.72441515E+00  -4.39928019E+01  -6.27341315E+00  -7.80777792E+00  -5.06339260E+00  -7.99025599E+00  -7.61671358E+00  -8.45259453E+00  -8.09380456E+00  -1.04931808E+01  -9.02715776E+00  -7.01035383E+00  -6.35660796E+00  -1.19354126E+01  -5.91666206E+00  -1.30033413E+01  -7.55361020E+00  -1.09550964E+01  -1.61078596E+01  -1.61081185E+01  -2.18952867E+01  -1.29701972E+01  -2.17956288E+01  -2.17959269E+01  -3.13919884E+01  -3.00478508E+01
   4.72500000E+02   5.00000000E-01   5.00000000E-01  -6.77601432E+00  -1.40311927E+01  -3.17405570E+00  -1.29876186E+00  -1.52861096E+00  -3.57622238E+00  -1.31950432E+01  -6.71623606E+00  -5.13793275E+00  -2.61449836E-01  -4.16561434E+00  -1.96556078E+00  -3.38947640E-01  -1.51933920E+00  -3.74285075E+00  -3.39606327E+00  -6.12820325E+00  -4.40705864E+00  -3.15194504E+00  -1.28261345E+01  -1.15376091E+01  -9.90087390E+00  -1.24388377E+01  -8.72422532E+00  -8.17019176E+00  -1.07796151E+01  -1.36649388E+01  -2.38865644E+00  -5.23574992E+00  -2.72374941E+00  -3.82419624E+00  -7.71061089E+00  -2.22831006E+00  -4.60772345E+00  -6.93529617E+00  -6.52817652E+00  -4.13602260E+00  -6.80931922E+00  -1.37940045E+02  -1.41748724E+02  -6.42193789E+00  -1.13810943E+01  -1.06670829E+01  -6.96603869E+00  -3.20983705E+00  -9.68497360E+00  -3.41722256E+00  -6.54249871E+01  -1.14130301E+01  -8.34443534E+00  -1.73449803E+00  -4.36746542E+01  -6.28266908E+00  -7.84482163E+00  -5.07417384E+00  -7.92373466E+00  -7.60254711E+00  -8.49044661E+00  -8.07376497E+00  -1.05385100E+01  -9.04449780E+00  -6.98744222E+00  -6.34862345E+00  -1.18941387E+01  -5.91789261E+00  -1.28899063E+01  -7.55026353E+00  -1.09628489E+01  -1.61161419E+01  -1.61164033E+01  -2.19070564E+01  -1.29745522E+01  -2.18080569E+01  -2.18083553E+01  -3.13830195E+01  -2.98883555E+01
   5.07500000E+02   5.00000000E-01   5.00000000E-01  -6.72446664E+00  -1.39697772E+01  -3.13723428E+00  -1.29920084E+00  -1.54146755E+00  -3.54704912E+00  -1.31351995E+01  -6.71663223E+00  -5.13820247E+00  -2.61161035E-01  -4.16534391E+00  -1.96604752E+00  -3.38237309E-01  -1.52629628E+00  -3.74258033E+00  -3.39579285E+00  -6.14024495E+00  -4.40678822E+00  -3.13657032E+00  -1.27545176E+01  -1.14539001E+01  -9.84200628E+00  -1.23726838E+01  -8.70753283E+00  -8.15582502E+00  -1.08030084E+01  -1.36187982E+01  -2.39459843E+00  -5.27654162E+00  -2.72820379E+00  -3.84251030E+00  -7.68825301E+00  -2.24477667E+00  -4.55377771E+00  -6.89376074E+00  -6.48855101E+00  -4.10567521E+00  -6.79810801E+00  -1.36906645E+02  -1.40684462E+02  -6.38680939E+00  -1.12841629E+01  -1.05969666E+01  -6.89590189E+00  -3.20498288E+00  -9.66195966E+00  -3.42183378E+00  -6.49310778E+01  -1.13421239E+01  -8.33412862E+00  -1.74432835E+00  -4.33602161E+01  -6.29270005E+00  -7.88200837E+00  -5.08719766E+00  -7.86092182E+00  -7.59120540E+00  -8.53018892E+00  -8.05447223E+00  -1.05845199E+01  -9.06212957E+00  -6.96480419E+00  -6.34029499E+00  -1.18533807E+01  -5.91933254E+00  -1.27791586E+01  -7.54761168E+00  -1.09714462E+01  -1.61256699E+01  -1.61259353E+01  -2.19205283E+01  -1.29801242E+01  -2.18221773E+01  -2.18224774E+01  -3.13764915E+01  -2.97306432E+01
   5.42500000E+02   5.00000000E-01   5.00000000E-01  -6.67377513E+00  -1.39095212E+01  -3.10097978E+00  -1.29964761E+00  -1.55458086E+00  -3.51999218E+00  -1.30761721E+01  -6.71704057E+00  -5.13846236E+00  -2.60859097E-01  -4.16505861E+00  -1.96654758E+00  -3.37529764E-01  -1.53350119E+00  -3.74229502E+00  -3.39550754E+00  -6.15313624E+00  -4.40650292E+00  -3.12152106E+00  -1.26837005E+01  -1.13710563E+01  -9.78372834E+00  -1.23073301E+01  -8.69120933E+00  -8.14125748E+00  -1.08266979E+01  -1.35733768E+01  -2.40106621E+00  -5.31771515E+00  -2.73255990E+00  -3.86016037E+00  -7.66653881E+00  -2.26149782E+00  -4.50178253E+00  -6.85367307E+00  -6.45098888E+00  -4.07744282E+00  -6.78729624E+00  -1.35885964E+02  -1.39633446E+02  -6.35292672E+00  -1.11891934E+01  -1.05273371E+01  -6.82664327E+00  -3.19988922E+00  -9.63926869E+00  -3.42635801E+00  -6.44426737E+01  -1.12716100E+01  -8.32367836E+00  -1.75390929E+00  -4.30494255E+01  -6.30354805E+00  -7.91941217E+00  -5.10224973E+00  -7.80153221E+00  -7.58243900E+00  -8.57160772E+00  -8.03597786E+00  -1.06312333E+01  -9.08011912E+00  -6.94250108E+00  -6.33164545E+00  -1.18131463E+01  -5.92098485E+00  -1.26709907E+01  -7.54557627E+00  -1.09808207E+01  -1.61363413E+01  -1.61366126E+01  -2.19355680E+01  -1.29867592E+01  -2.18378554E+01  -2.18381587E+01  -3.13721974E+01  -2.95746189E+01
   5.77500000E+02   5.00000000E-01   5.00000000E-01  -6.62390913E+00  -1.38503990E+01  -3.06533114E+00  -1.30010324E+00  -1.56793737E+00  -3.49481100E+00  -1.30178671E+01  -6.71746132E+00  -5.13871208E+00  -2.60544338E-01  -4.16475885E+00  -1.96706071E+00  -3.36824430E-01  -1.54092722E+00  -3.74199527E+00  -3.39520779E+00  -6.16689434E+00  -4.40620316E+00  -3.10676157E+00  -1.26136676E+01  -1.12890908E+01  -9.72607628E+00  -1.22427759E+01  -8.67531278E+00  -8.12650793E+00  -1.08507465E+01  -1.35286732E+01  -2.40809611E+00  -5.35930735E+00  -2.73682588E+00  -3.87718012E+00  -7.64546162E+00  -2.27846655E+00  -4.45151681E+00  -6.81483537E+00  -6.41526823E+00  -4.05109256E+00  -6.77687619E+00  -1.34877754E+02  -1.38595395E+02  -6.32030035E+00  -1.10961810E+01  -1.04582301E+01  -6.75822904E+00  -3.19457732E+00  -9.61691026E+00  -3.43079358E+00  -6.39596808E+01  -1.12015445E+01  -8.31311096E+00  -1.76324414E+00  -4.27422213E+01  -6.31525026E+00  -7.95709805E+00  -5.11916470E+00  -7.74533447E+00  -7.57604805E+00  -8.61453468E+00  -8.01832785E+00  -1.06786674E+01  -9.09852794E+00  -6.92059281E+00  -6.32269614E+00  -1.17734394E+01  -5.92285182E+00  -1.25653029E+01  -7.54409202E+00  -1.09909142E+01  -1.61480686E+01  -1.61483477E+01  -2.19520598E+01  -1.29943299E+01  -2.18549757E+01  -2.18552839E+01  -3.13699592E+01  -2.94202075E+01
   6.12500000E+02   5.00000000E-01   5.00000000E-01  -6.57484045E+00  -1.37923846E+01  -3.03032837E+00  -1.30056864E+00  -1.58152450E+00  -3.47130691E+00  -1.29602059E+01  -6.71789463E+00  -5.13895129E+00  -2.60217051E-01  -4.16444503E+00  -1.96758666E+00  -3.36120765E-01  -1.54854960E+00  -3.74168145E+00  -3.39489397E+00  -6.18153342E+00  -4.40588934E+00  -3.09226094E+00  -1.25444044E+01  -1.12080114E+01  -9.66907780E+00  -1.21790176E+01  -8.65989980E+00  -8.11159369E+00  -1.08752141E+01  -1.34846840E+01  -2.41572478E+00  -5.40135458E+00  -2.74100935E+00  -3.89360113E+00  -7.62501369E+00  -2.29567602E+00  -4.40279989E+00  -6.77708880E+00  -6.38120660E+00  -4.02643259E+00  -6.76683939E+00  -1.33881774E+02  -1.37570040E+02  -6.28893865E+00  -1.10051201E+01  -1.03896738E+01  -6.69062821E+00  -3.18906691E+00  -9.59489178E+00  -3.43513895E+00  -6.34820079E+01  -1.11319739E+01  -8.30244978E+00  -1.77233620E+00  -4.24385437E+01  -6.32783904E+00  -7.99512367E+00  -5.13781576E+00  -7.69213707E+00  -7.57186989E+00  -8.65883615E+00  -8.00156255E+00  -1.07268361E+01  -9.11741465E+00  -6.89913791E+00  -6.31346687E+00  -1.17342620E+01  -5.92493497E+00  -1.24620001E+01  -7.54310161E+00  -1.10016750E+01  -1.61607734E+01  -1.61610623E+01  -2.19699006E+01  -1.30027244E+01  -2.18734349E+01  -2.18737500E+01  -3.13696186E+01  -2.92673437E+01
   6.47500000E+02   5.00000000E-01   5.00000000E-01  -6.52654185E+00  -1.37354631E+01  -2.99601102E+00  -1.30104450E+00  -1.59533058E+00  -3.44931423E+00  -1.29030948E+01  -6.71834057E+00  -5.13917967E+00  -2.59877511E-01  -4.16411751E+00  -1.96812508E+00  -3.35418255E-01  -1.55634538E+00  -3.74135392E+00  -3.39456644E+00  -6.19706446E+00  -4.40556181E+00  -3.07798886E+00  -1.24758961E+01  -1.11278355E+01  -9.61276970E+00  -1.21160615E+01  -8.64502567E+00  -8.09653066E+00  -1.09001592E+01  -1.34414058E+01  -2.42398920E+00  -5.44389420E+00  -2.74511745E+00  -3.90945305E+00  -7.60518777E+00  -2.31311957E+00  -4.35548271E+00  -6.74030471E+00  -6.34865370E+00  -4.00330317E+00  -6.75717820E+00  -1.32897788E+02  -1.36557117E+02  -6.25884634E+00  -1.09160011E+01  -1.03217052E+01  -6.62381096E+00  -3.18337616E+00  -9.57321999E+00  -3.43939269E+00  -6.30095653E+01  -1.10629521E+01  -8.29171681E+00  -1.78118879E+00  -4.21383340E+01  -6.34134192E+00  -8.03354097E+00  -5.15810733E+00  -7.64177779E+00  -7.56977019E+00  -8.70440595E+00  -7.98571674E+00  -1.07757503E+01  -9.13683660E+00  -6.87819351E+00  -6.30397602E+00  -1.16956158E+01  -5.92723511E+00  -1.23610003E+01  -7.54254883E+00  -1.10130517E+01  -1.61743788E+01  -1.61746797E+01  -2.19889888E+01  -1.30118331E+01  -2.18931314E+01  -2.18934554E+01  -3.13710198E+01  -2.91159613E+01
   6.82500000E+02   5.00000000E-01   5.00000000E-01  -6.47898350E+00  -1.36796979E+01  -2.96241526E+00  -1.30153145E+00  -1.60934483E+00  -3.42869349E+00  -1.28462846E+01  -6.71879913E+00  -5.13939685E+00  -2.59525974E-01  -4.16377660E+00  -1.96867517E+00  -3.34716411E-01  -1.56429328E+00  -3.74101301E+00  -3.39422553E+00  -6.21349622E+00  -4.40522091E+00  -3.06390231E+00  -1.24081245E+01  -1.10486642E+01  -9.55727904E+00  -1.20539949E+01  -8.63074498E+00  -8.08133345E+00  -1.09256432E+01  -1.33988382E+01  -2.43292710E+00  -5.48696842E+00  -2.74915694E+00  -3.92476370E+00  -7.58598053E+00  -2.33079066E+00  -4.30944118E+00  -6.70437805E+00  -6.31748813E+00  -3.98157002E+00  -6.74788910E+00  -1.31925565E+02  -1.35556363E+02  -6.23002201E+00  -1.08288048E+01  -1.02544475E+01  -6.55774519E+00  -3.17752145E+00  -9.55190413E+00  -3.44355309E+00  -6.25422608E+01  -1.09946220E+01  -8.28093615E+00  -1.78980521E+00  -4.18415345E+01  -6.35578271E+00  -8.07240068E+00  -5.17997236E+00  -7.59411452E+00  -7.56963717E+00  -8.75116303E+00  -7.97082033E+00  -1.08254231E+01  -9.15685386E+00  -6.85781597E+00  -6.29424060E+00  -1.16575054E+01  -5.92975234E+00  -1.22622924E+01  -7.54235531E+00  -1.10249744E+01  -1.61887794E+01  -1.61890947E+01  -2.20091847E+01  -1.30215022E+01  -2.19139255E+01  -2.19142606E+01  -3.13739508E+01  -2.89659671E+01
   7.17500000E+02   5.00000000E-01   5.00000000E-01  -6.43213744E+00  -1.36249620E+01  -2.92957729E+00  -1.30202979E+00  -1.62355733E+00  -3.40932658E+00  -1.27898638E+01  -6.71927024E+00  -5.13960245E+00  -2.59162683E-01  -4.16342262E+00  -1.96923652E+00  -3.34014780E-01  -1.57237362E+00  -3.74065903E+00  -3.39387155E+00  -6.23083363E+00  -4.40486693E+00  -3.04997950E+00  -1.23410719E+01  -1.09704049E+01  -9.50253674E+00  -1.19927129E+01  -8.61711060E+00  -8.06601543E+00  -1.09517246E+01  -1.33569796E+01  -2.44257594E+00  -5.53061879E+00  -2.75313420E+00  -3.93955922E+00  -7.56738813E+00  -2.34868292E+00  -4.26457129E+00  -6.66922264E+00  -6.28760810E+00  -3.96111941E+00  -6.73896830E+00  -1.30964879E+02  -1.34567525E+02  -6.20246100E+00  -1.07435095E+01  -1.01878285E+01  -6.49240078E+00  -3.17151827E+00  -9.53095232E+00  -3.44761891E+00  -6.20800049E+01  -1.09269291E+01  -8.27012968E+00  -1.79818874E+00  -4.15480889E+01  -6.37118001E+00  -8.11174651E+00  -5.20336202E+00  -7.54902324E+00  -7.57137528E+00  -8.79904070E+00  -7.95689775E+00  -1.08758634E+01  -9.17752386E+00  -6.83805989E+00  -6.28427635E+00  -1.16199341E+01  -5.93248609E+00  -1.21656967E+01  -7.54248413E+00  -1.10374133E+01  -1.62039303E+01  -1.62042623E+01  -2.20304291E+01  -1.30316605E+01  -2.19357582E+01  -2.19361067E+01  -3.13783206E+01  -2.88172916E+01