 TITLE = "Total Concentrations" 
VARIABLES = "X"          "Y"              "Z"            "H+"             "Al+++"          "CO2(aq)"        "Mg++"           "Ca++"           "Fe++"           "Fe+++"          "Ba++"           "Sr++"           "Cl-"            "F-"             "K+"             "Na+"            "SO4--"          "O2(aq)"         "B(OH)3(aq)"     "HPO4--"         "NO3-"           "H4SiO4(aq)"     "HNO3(aq)"       "Al(OH)2+"       "AlO2-"          "AlOH++"         "BaHCO3+"        "BaCl+"          "BaCO3(aq)"      "BaOH+"          "HCO3-"          "CO3--"          "CaCl+"          "CaCl2(aq)"      "CaOH+"          "CaSO4(aq)"      "FeCl+"          "FeCl2(aq)"      "FeOH+"          "FeSO4(aq)"      "OH-"            "HS-"            "S2O3--"         "H2PO4-"         "H3PO4(aq)"      "HAlO2(aq)"      "HSO4-"          "KCl(aq)"        "KOH(aq)"        "KSO4-"          "NH3(aq)"        "NaAlO2(aq)"     "NaOH(aq)"       "NaSO4-"         "H2(aq)"         "CaHPO4(aq)"     "CaPO4-"         "FeCO3(aq)"      "FeH2PO4+"       "FeHPO4(aq)"     "FePO4-"         "KHPO4-"         "PO4---"         "Sr(CO3)(aq)"    "SrHCO3+"        "SrCl+"          "SrOH+"          "SrSO4(aq)"      "AlH3SiO4++"     "Si2O2(OH)5-"    "Si2O3(OH)4--"   "Si3O5(OH)5---"  "Si3O6(OH)3---"  "Si4O12H4----"   "Si4O6(OH)6--"   "Si4O7(OH)6----" "Si4O8(OH)4----" "Si6O15------"   "SiF6--"        
 ZONE I=         100 , J=           1 , K=           1  F=POINT
   1.75000000E+01   5.00000000E-01   5.00000000E-01  -7.63195723E+00  -1.51505423E+01  -3.76440417E+00  -1.29267906E+00  -2.05219430E+00  -4.71176677E+00  -1.31250477E+01  -6.71257159E+00  -5.10354815E+00  -2.62101241E-01  -4.16749098E+00  -1.95221619E+00  -3.35494136E-01  -1.83504984E+00  -3.74472739E+00  -3.39793991E+00  -5.88006322E+00  -4.40893528E+00  -3.57168162E+00  -1.39144155E+01  -1.26966548E+01  -1.05148635E+01  -1.34762135E+01  -8.92737524E+00  -8.30629847E+00  -1.03465885E+01  -1.42230823E+01  -2.34177641E+00  -4.64813659E+00  -3.29408028E+00  -4.12814218E+00  -8.61939173E+00  -3.02088857E+00  -6.02104457E+00  -8.10797322E+00  -7.68074407E+00  -5.60216036E+00  -6.90730960E+00  -1.53078467E+02  -1.57806545E+02  -6.89774090E+00  -1.28124469E+01  -1.14966508E+01  -8.41691693E+00  -3.20776278E+00  -9.89099185E+00  -3.68499310E+00  -7.24496480E+01  -1.21233733E+01  -8.33078860E+00  -1.91302837E+00  -4.81090084E+01  -6.65759359E+00  -7.71784979E+00  -5.49414797E+00  -9.50901987E+00  -8.31879933E+00  -8.36497021E+00  -8.17693440E+00  -9.77736778E+00  -8.66190873E+00  -7.23297401E+00  -6.36328456E+00  -1.23309239E+01  -6.20241135E+00  -1.49041094E+01  -7.94890361E+00  -1.11477121E+01  -1.64569290E+01  -1.64571709E+01  -2.23204517E+01  -1.36249441E+01  -2.22121788E+01  -2.22124468E+01  -3.25043965E+01  -3.26761830E+01
   5.25000000E+01   5.00000000E-01   5.00000000E-01  -7.51776451E+00  -1.49701376E+01  -3.67733919E+00  -1.29327477E+00  -2.05198523E+00  -4.40097760E+00  -1.28981972E+01  -6.71285424E+00  -5.10417425E+00  -2.62081088E-01  -4.16747746E+00  -1.95262574E+00  -3.35221923E-01  -1.82874994E+00  -3.74471387E+00  -3.39792639E+00  -5.89027360E+00  -4.40892176E+00  -3.46030323E+00  -1.37832893E+01  -1.25988772E+01  -1.05441851E+01  -1.33468233E+01  -8.91346719E+00  -8.29749971E+00  -1.04226180E+01  -1.42160517E+01  -2.34521687E+00  -4.73580575E+00  -3.29324373E+00  -4.15218173E+00  -8.62819953E+00  -3.01976158E+00  -5.69059937E+00  -7.79989349E+00  -7.41074939E+00  -5.28580253E+00  -6.93781442E+00  -1.51799858E+02  -1.56431940E+02  -6.80749382E+00  -1.26019344E+01  -1.14683738E+01  -8.27723212E+00  -3.20943060E+00  -9.91360508E+00  -3.68452869E+00  -7.18275108E+01  -1.21468399E+01  -8.37459351E+00  -1.92085284E+00  -4.77413107E+01  -6.66195969E+00  -7.80815780E+00  -5.28451643E+00  -9.10881019E+00  -8.03297821E+00  -8.19321015E+00  -8.16109274E+00  -9.87064278E+00  -8.73150540E+00  -7.21405447E+00  -6.36261327E+00  -1.23326745E+01  -6.19644579E+00  -1.46077399E+01  -7.80305544E+00  -1.10597803E+01  -1.63215245E+01  -1.63217758E+01  -2.21409124E+01  -1.33464748E+01  -2.20334018E+01  -2.20336844E+01  -3.22064865E+01  -3.22093361E+01
   8.75000000E+01   5.00000000E-01   5.00000000E-01  -7.43139685E+00  -1.48668204E+01  -3.61614708E+00  -1.29378186E+00  -2.05184492E+00  -4.21960837E+00  -1.27287686E+01  -6.71314790E+00  -5.10484464E+00  -2.62037162E-01  -4.16743786E+00  -1.95303031E+00  -3.34947280E-01  -1.82303554E+00  -3.74467428E+00  -3.39788680E+00  -5.89962155E+00  -4.40888217E+00  -3.39614533E+00  -1.36795962E+01  -1.25243113E+01  -1.05431935E+01  -1.32672733E+01  -8.89844374E+00  -8.28810805E+00  -1.04709601E+01  -1.41833017E+01  -2.34815560E+00  -4.79643627E+00  -3.29167608E+00  -4.17441878E+00  -8.61087898E+00  -3.01833306E+00  -5.48899146E+00  -7.61967993E+00  -7.24333744E+00  -5.09847158E+00  -6.94246780E+00  -1.50564150E+02  -1.55127572E+02  -6.74328345E+00  -1.24448068E+01  -1.14361020E+01  -8.16524976E+00  -3.21039531E+00  -9.90989142E+00  -3.68379132E+00  -7.12387326E+01  -1.21393478E+01  -8.39128033E+00  -1.92816077E+00  -4.73781989E+01  -6.66454003E+00  -7.86913092E+00  -5.17600140E+00  -8.86415072E+00  -7.87489485E+00  -8.12129882E+00  -8.14366863E+00  -9.93649612E+00  -8.77353782E+00  -7.19399151E+00  -6.36123122E+00  -1.23084611E+01  -6.19044184E+00  -1.44110115E+01  -7.72502485E+00  -1.10132207E+01  -1.62481343E+01  -1.62483919E+01  -2.20441184E+01  -1.32034017E+01  -2.19373634E+01  -2.19376564E+01  -3.20324367E+01  -3.18971624E+01
   1.22500000E+02   5.00000000E-01   5.00000000E-01  -7.35648832E+00  -1.47808278E+01  -3.56490400E+00  -1.29424154E+00  -2.05176776E+00  -4.09129406E+00  -1.26057745E+01  -6.71344762E+00  -5.10555122E+00  -2.61970750E-01  -4.16737367E+00  -1.95342724E+00  -3.34667449E-01  -1.81785673E+00  -3.74461008E+00  -3.39782260E+00  -5.90886596E+00  -4.40881797E+00  -3.35184968E+00  -1.35870071E+01  -1.24458945E+01  -1.05174897E+01  -1.31941601E+01  -8.88272683E+00  -8.27816064E+00  -1.05083550E+01  -1.41411439E+01  -2.35096995E+00  -4.84671236E+00  -3.28941909E+00  -4.19494739E+00  -8.58375519E+00  -3.01662365E+00  -5.33990117E+00  -7.49106165E+00  -7.11849310E+00  -4.96383134E+00  -6.93756307E+00  -1.49354676E+02  -1.53860411E+02  -6.68955103E+00  -1.23091760E+01  -1.13891246E+01  -8.06460536E+00  -3.21070134E+00  -9.89618275E+00  -3.68278159E+00  -7.06668744E+01  -1.21065431E+01  -8.39721642E+00  -1.93496194E+00  -4.70195896E+01  -6.66616329E+00  -7.91796483E+00  -5.10900692E+00  -8.68311335E+00  -7.76898510E+00  -8.09004146E+00  -8.12549110E+00  -9.99199732E+00  -8.80474324E+00  -7.17320905E+00  -6.35917748E+00  -1.22746024E+01  -6.18441186E+00  -1.42430518E+01  -7.67642868E+00  -1.09859846E+01  -1.62036893E+01  -1.62039506E+01  -2.19859729E+01  -1.31189661E+01  -2.18799660E+01  -2.18802660E+01  -3.19161311E+01  -3.16470346E+01
   1.57500000E+02   5.00000000E-01   5.00000000E-01  -7.28780890E+00  -1.47017194E+01  -3.51859783E+00  -1.29467114E+00  -2.05174860E+00  -3.99211821E+00  -1.25108674E+01  -6.71375269E+00  -5.10629030E+00  -2.61883004E-01  -4.16728619E+00  -1.95382222E+00  -3.34381036E-01  -1.81316732E+00  -3.74452260E+00  -3.39773512E+00  -5.91832931E+00  -4.40873049E+00  -3.31788241E+00  -1.35003276E+01  -1.23636169E+01  -1.04774589E+01  -1.31222676E+01  -8.86651912E+00  -8.26769751E+00  -1.05401913E+01  -1.40947608E+01  -2.35381570E+00  -4.89196279E+00  -3.28651316E+00  -4.21385854E+00  -8.55201959E+00  -3.01465632E+00  -5.21945551E+00  -7.39021284E+00  -7.01751487E+00  -4.85799587E+00  -6.92826102E+00  -1.48165917E+02  -1.52619710E+02  -6.64143595E+00  -1.21849864E+01  -1.13326489E+01  -7.97007221E+00  -3.21039996E+00  -9.87768538E+00  -3.68151068E+00  -7.01066357E+01  -1.20588554E+01  -8.39763448E+00  -1.94126930E+00  -4.66654022E+01  -6.66722052E+00  -7.96028047E+00  -5.06502780E+00  -8.53691775E+00  -7.69169783E+00  -8.08111943E+00  -8.10695794E+00  -1.00426443E+01  -8.83050681E+00  -7.15191164E+00  -6.35649399E+00  -1.22362874E+01  -6.17837491E+00  -1.40890040E+01  -7.64339610E+00  -1.09693992E+01  -1.61751830E+01  -1.61754461E+01  -2.19491317E+01  -1.30654330E+01  -2.18438653E+01  -2.18441695E+01  -3.18315700E+01  -3.14286810E+01
   1.92500000E+02   5.00000000E-01   5.00000000E-01  -7.22307261E+00  -1.46262487E+01  -3.47509004E+00  -1.29508027E+00  -2.05178275E+00  -3.91143537E+00  -1.24338029E+01  -6.71406344E+00  -5.10705931E+00  -2.61774971E-01  -4.16717662E+00  -1.95422025E+00  -3.34087281E-01  -1.80892530E+00  -3.74441303E+00  -3.39762555E+00  -5.92819449E+00  -4.40862092E+00  -3.28996885E+00  -1.34173047E+01  -1.22787752E+01  -1.04289075E+01  -1.30506295E+01  -8.84995411E+00  -8.25675749E+00  -1.05688462E+01  -1.40463936E+01  -2.35678117E+00  -4.93450761E+00  -3.28299671E+00  -4.23123861E+00  -8.51792112E+00  -3.01245462E+00  -5.11705004E+00  -7.30657373E+00  -6.93202866E+00  -4.77035023E+00  -6.91678166E+00  -1.46995308E+02  -1.51400624E+02  -6.59687967E+00  -1.20679264E+01  -1.12702455E+01  -7.87936915E+00  -3.20953928E+00  -9.85666188E+00  -3.67999062E+00  -6.95556608E+01  -1.20021337E+01  -8.39482298E+00  -1.94709757E+00  -4.63155582E+01  -6.66795963E+00  -7.99861104E+00  -5.03581666E+00  -8.41285713E+00  -7.63261173E+00  -8.08639947E+00  -8.08832227E+00  -1.00908535E+01  -8.85320264E+00  -7.13023452E+00  -6.35322136E+00  -1.21957639E+01  -6.17235143E+00  -1.39435252E+01  -7.61963118E+00  -1.09594233E+01  -1.61565556E+01  -1.61568188E+01  -2.19255137E+01  -1.30302164E+01  -2.18209798E+01  -2.18212859E+01  -3.17666438E+01  -3.12288542E+01
   2.27500000E+02   5.00000000E-01   5.00000000E-01  -7.16110784E+00  -1.45531730E+01  -3.43332583E+00  -1.29547512E+00  -2.05186603E+00  -3.84356928E+00  -1.23686401E+01  -6.71438052E+00  -5.10785611E+00  -2.61647602E-01  -4.16704603E+00  -1.95462484E+00  -3.33785737E-01  -1.80509264E+00  -3.74428244E+00  -3.39749496E+00  -5.93858247E+00  -4.40849033E+00  -3.26589189E+00  -1.33367981E+01  -1.21924414E+01  -1.03751916E+01  -1.29791688E+01  -8.83313518E+00  -8.24537729E+00  -1.05955544E+01  -1.39971707E+01  -2.35992707E+00  -4.97552768E+00  -3.27890603E+00  -4.24716923E+00  -8.48259568E+00  -3.01004206E+00  -5.02704685E+00  -7.23454859E+00  -6.85751531E+00  -4.69524800E+00  -6.90423381E+00  -1.45841405E+02  -1.50200544E+02  -6.55487369E+00  -1.19558468E+01  -1.12041464E+01  -7.79133061E+00  -3.20816331E+00  -9.83425970E+00  -3.67823306E+00  -6.90127088E+01  -1.19397740E+01  -8.38995537E+00  -1.95246255E+00  -4.59699807E+01  -6.66856269E+00  -8.03430930E+00  -5.01695133E+00  -8.30424407E+00  -7.58621057E+00  -8.10153891E+00  -8.06976943E+00  -1.01378678E+01  -8.87406219E+00  -7.10828263E+00  -6.34939806E+00  -1.21541662E+01  -6.16636192E+00  -1.38042233E+01  -7.60183960E+00  -1.09539040E+01  -1.61445789E+01  -1.61448414E+01  -2.19108141E+01  -1.30067336E+01  -2.18070040E+01  -2.18073104E+01  -3.17149054E+01  -3.10408113E+01
   2.62500000E+02   5.00000000E-01   5.00000000E-01  -7.10125019E+00  -1.44819497E+01  -3.39274164E+00  -1.29586013E+00  -2.05199464E+00  -3.78513158E+00  -1.23117598E+01  -6.71470467E+00  -5.10867875E+00  -2.61501765E-01  -4.16689539E+00  -1.95503827E+00  -3.33476131E-01  -1.80163498E+00  -3.74413180E+00  -3.39734432E+00  -5.94958125E+00  -4.40833969E+00  -3.24439052E+00  -1.32581721E+01  -1.21053738E+01  -1.03183416E+01  -1.29080011E+01  -8.81615005E+00  -8.23359140E+00  -1.06210291E+01  -1.39477147E+01  -2.36330103E+00  -5.01568640E+00  -3.27427538E+00  -4.26172738E+00  -8.44667320E+00  -3.00744183E+00  -4.94609350E+00  -7.17082466E+00  -6.79123663E+00  -4.62932983E+00  -6.89122214E+00  -1.44703282E+02  -1.49017885E+02  -6.51488132E+00  -1.18475753E+01  -1.11357631E+01  -7.70529917E+00  -3.20631236E+00  -9.81111861E+00  -3.67624930E+00  -6.84770464E+01  -1.18738443E+01  -8.38369720E+00  -1.95738074E+00  -4.56285948E+01  -6.66917493E+00  -8.06818367E+00  -5.00577544E+00  -8.20715101E+00  -7.54923091E+00  -8.12394056E+00  -8.05144633E+00  -1.01843924E+01  -8.89379581E+00  -7.08614514E+00  -6.34506020E+00  -1.21121229E+01  -6.16042642E+00  -1.36698598E+01  -7.58813291E+00  -1.09515876E+01  -1.61373742E+01  -1.61376354E+01  -2.19025267E+01  -1.29912130E+01  -2.17994319E+01  -2.17997373E+01  -3.16726050E+01  -3.08607846E+01
   2.97500000E+02   5.00000000E-01   5.00000000E-01  -7.04309514E+00  -1.44123162E+01  -3.35302442E+00  -1.29623872E+00  -2.05216513E+00  -3.73393582E+00  -1.22608677E+01  -6.71503667E+00  -5.10952536E+00  -2.61338251E-01  -4.16672557E+00  -1.95546198E+00  -3.33158281E-01  -1.79852124E+00  -3.74396198E+00  -3.39717450E+00  -5.96125860E+00  -4.40816987E+00  -3.22470084E+00  -1.31810491E+01  -1.20180917E+01  -1.02596311E+01  -1.28372624E+01  -8.79907720E+00  -8.22143209E+00  -1.06457165E+01  -1.38983893E+01  -2.36694409E+00  -5.05538325E+00  -3.26913697E+00  -4.27498556E+00  -8.41052480E+00  -3.00467648E+00  -4.87203702E+00  -7.11328630E+00  -6.73139652E+00  -4.57043713E+00  -6.87809427E+00  -1.43580277E+02  -1.47851592E+02  -6.47660323E+00  -1.17424350E+01  -1.10660082E+01  -7.62087803E+00  -3.20402349E+00  -9.78761823E+00  -3.67405045E+00  -6.79482002E+01  -1.18056537E+01  -8.37645330E+00  -1.96186907E+00  -4.52913269E+01  -6.66991746E+00  -8.10075844E+00  -5.00056607E+00  -8.11908971E+00  -7.51958876E+00  -8.15192671E+00  -8.03347476E+00  -1.02308549E+01  -8.91284635E+00  -7.06390182E+00  -6.34024159E+00  -1.20700035E+01  -6.15456419E+00  -1.35397174E+01  -7.57735800E+00  -1.09516970E+01  -1.61337769E+01  -1.61340365E+01  -2.18990980E+01  -1.29813537E+01  -2.17967094E+01  -2.17970132E+01  -3.16374209E+01  -3.06865338E+01
   3.32500000E+02   5.00000000E-01   5.00000000E-01  -6.98695358E+00  -1.43398756E+01  -3.31842876E+00  -1.29659195E+00  -1.68066681E+00  -3.70882960E+00  -1.29458562E+01  -6.71505728E+00  -5.12412023E+00  -2.61816754E-01  -4.16653737E+00  -1.95897950E+00  -3.37342906E-01  -1.62199249E+00  -3.74377378E+00  -3.39698630E+00  -6.03659737E+00  -4.40798167E+00  -3.20591314E+00  -1.31112148E+01  -1.19332158E+01  -1.02018277E+01  -1.27645605E+01  -8.78812502E+00  -8.21731569E+00  -1.06811670E+01  -1.38551205E+01  -2.37033746E+00  -5.08718840E+00  -2.89881335E+00  -3.93010264E+00  -8.00698957E+00  -2.47519920E+00  -4.83075610E+00  -7.09564568E+00  -6.70140760E+00  -4.38258318E+00  -6.86352877E+00  -1.42314056E+02  -1.46372656E+02  -6.51124391E+00  -1.17163809E+01  -1.10028696E+01  -7.37207738E+00  -3.21317863E+00  -9.77316066E+00  -3.51107752E+00  -6.74398601E+01  -1.17490030E+01  -8.37804330E+00  -1.80641172E+00  -4.49641034E+01  -6.38098511E+00  -7.83704767E+00  -5.03035166E+00  -8.13541572E+00  -7.59801701E+00  -8.28105274E+00  -8.09204815E+00  -1.03265897E+01  -8.95680720E+00  -7.06180829E+00  -6.35740611E+00  -1.20477851E+01  -6.00936500E+00  -1.34064101E+01  -7.55848852E+00  -1.09372265E+01  -1.60994257E+01  -1.60996840E+01  -2.18687089E+01  -1.29503371E+01  -2.17670173E+01  -2.17673192E+01  -3.14949182E+01  -3.05137556E+01
   3.67500000E+02   5.00000000E-01   5.00000000E-01  -6.93221734E+00  -1.42706458E+01  -3.28331515E+00  -1.29694414E+00  -1.52636740E+00  -3.68246710E+00  -1.32043848E+01  -6.71517141E+00  -5.13465434E+00  -2.62104435E-01  -4.16633151E+00  -1.96170522E+00  -3.40204536E-01  -1.52289308E+00  -3.74356793E+00  -3.39678045E+00  -6.08768434E+00  -4.40777582E+00  -3.18889833E+00  -1.30410297E+01  -1.18481253E+01  -1.01425677E+01  -1.26935477E+01  -8.77521926E+00  -8.21035217E+00  -1.07126620E+01  -1.38104083E+01  -2.37413132E+00  -5.12088912E+00  -2.74308059E+00  -3.79682340E+00  -7.81924059E+00  -2.23432593E+00  -4.78581107E+00  -7.07142910E+00  -6.66824408E+00  -4.26487205E+00  -6.84946375E+00  -1.41134987E+02  -1.45058047E+02  -6.52004995E+00  -1.16643481E+01  -1.09371057E+01  -7.19948471E+00  -3.21861665E+00  -9.75598530E+00  -3.42122350E+00  -6.69342172E+01  -1.16873334E+01  -8.37611833E+00  -1.72346914E+00  -4.46392951E+01  -6.27893607E+00  -7.76052534E+00  -5.05487910E+00  -8.12306557E+00  -7.64484183E+00  -8.37856390E+00  -8.12231127E+00  -1.04015296E+01  -8.99274537E+00  -7.05357989E+00  -6.36745365E+00  -1.20197617E+01  -5.93126400E+00  -1.32794186E+01  -7.54519487E+00  -1.09298202E+01  -1.60782107E+01  -1.60784683E+01  -2.18518305E+01  -1.29316313E+01  -2.17508264E+01  -2.17511265E+01  -3.13920100E+01  -3.03464260E+01
   4.02500000E+02   5.00000000E-01   5.00000000E-01  -6.87847401E+00  -1.42053628E+01  -3.24617092E+00  -1.29730784E+00  -1.51043750E+00  -3.64789082E+00  -1.31978882E+01  -6.71548500E+00  -5.13698455E+00  -2.61962638E-01  -4.16610866E+00  -1.96247622E+00  -3.40197117E-01  -1.50980502E+00  -3.74334508E+00  -3.39655760E+00  -6.10512465E+00  -4.40755297E+00  -3.17325388E+00  -1.29683360E+01  -1.17617530E+01  -1.00810439E+01  -1.26245642E+01  -8.75867517E+00  -8.19798962E+00  -1.07368103E+01  -1.37625221E+01  -2.37859834E+00  -5.15908215E+00  -2.72101540E+00  -3.79169964E+00  -7.76718221E+00  -2.20584408E+00  -4.72814836E+00  -7.02905541E+00  -6.62369633E+00  -4.21296459E+00  -6.83632682E+00  -1.40045752E+02  -1.43917988E+02  -6.49085350E+00  -1.15723621E+01  -1.08659656E+01  -7.10906245E+00  -3.21631714E+00  -9.73290285E+00  -3.40882147E+00  -6.64259568E+01  -1.16162223E+01  -8.36747973E+00  -1.71713259E+00  -4.43145324E+01  -6.26958085E+00  -7.77898117E+00  -5.06426992E+00  -8.06137876E+00  -7.63772875E+00  -8.42410839E+00  -8.11062864E+00  -1.04507785E+01  -9.01301994E+00  -7.03328612E+00  -6.36358697E+00  -1.19799606E+01  -5.91817012E+00  -1.31601362E+01  -7.54015961E+00  -1.09341909E+01  -1.60800892E+01  -1.60803469E+01  -2.18571570E+01  -1.29322152E+01  -2.17568309E+01  -2.17571296E+01  -3.13632809E+01  -3.01854370E+01
   4.37500000E+02   5.00000000E-01   5.00000000E-01  -6.82562480E+00  -1.41415384E+01  -3.20891875E+00  -1.29767743E+00  -1.51788766E+00  -3.61409742E+00  -1.31485548E+01  -6.71584904E+00  -5.13764285E+00  -2.61719967E-01  -4.16586942E+00  -1.96284856E+00  -3.39603915E-01  -1.51274999E+00  -3.74310584E+00  -3.39631835E+00  -6.11684305E+00  -4.40731373E+00  -3.15813436E+00  -1.28957326E+01  -1.16755508E+01  -1.00193232E+01  -1.25563580E+01  -8.74155987E+00  -8.18431636E+00  -1.07596012E+01  -1.37146109E+01  -2.38355078E+00  -5.19848649E+00  -2.72103470E+00  -3.80701182E+00  -7.73829845E+00  -2.21402720E+00  -4.67016878E+00  -6.98478644E+00  -6.57924810E+00  -4.17512193E+00  -6.82376465E+00  -1.38983660E+02  -1.42821023E+02  -6.45531252E+00  -1.14741707E+01  -1.07938449E+01  -7.03434301E+00  -3.21217110E+00  -9.70887478E+00  -3.41036205E+00  -6.59216485E+01  -1.15432306E+01  -8.35732835E+00  -1.72443312E+00  -4.39927913E+01  -6.27509608E+00  -7.81229718E+00  -5.07283975E+00  -7.99354927E+00  -7.62282523E+00  -8.46154252E+00  -8.09140117E+00  -1.04958829E+01  -9.03030058E+00  -7.01067827E+00  -6.35657897E+00  -1.19382190E+01  -5.91670854E+00  -1.30443622E+01  -7.53734399E+00  -1.09416675E+01  -1.60877310E+01  -1.60879899E+01  -2.18684252E+01  -1.29376729E+01  -2.17687674E+01  -2.17690654E+01  -3.13518070E+01  -3.00269933E+01
   4.72500000E+02   5.00000000E-01   5.00000000E-01  -6.77364177E+00  -1.40789426E+01  -3.17201412E+00  -1.29805252E+00  -1.52957693E+00  -3.58264557E+00  -1.30924479E+01  -6.71623160E+00  -5.13800081E+00  -2.61448252E-01  -4.16561434E+00  -1.96316223E+00  -3.38912820E-01  -1.51870384E+00  -3.74285075E+00  -3.39606327E+00  -6.12824925E+00  -4.40705864E+00  -3.14334527E+00  -1.28237842E+01  -1.15901362E+01  -9.95815072E+00  -1.24889700E+01  -8.72456189E+00  -8.17021801E+00  -1.07823486E+01  -1.36673344E+01  -2.38896950E+00  -5.23840942E+00  -2.72473904E+00  -3.82521349E+00  -7.71396987E+00  -2.22871761E+00  -4.61417029E+00  -6.94177065E+00  -6.53699271E+00  -4.14188737E+00  -6.81168906E+00  -1.37937102E+02  -1.41742782E+02  -6.41964295E+00  -1.13764447E+01  -1.07220069E+01  -6.96306050E+00  -3.20747018E+00  -9.68497607E+00  -3.41422940E+00  -6.54226717E+01  -1.14702986E+01  -8.34679720E+00  -1.73386695E+00  -4.36746804E+01  -6.28375798E+00  -7.84826329E+00  -5.08332797E+00  -7.92788381E+00  -7.60909323E+00  -8.49934549E+00  -8.07145316E+00  -1.05408748E+01  -9.04730386E+00  -6.98785131E+00  -6.34872222E+00  -1.18966068E+01  -5.91740930E+00  -1.29314213E+01  -7.53539930E+00  -1.09503349E+01  -1.60973344E+01  -1.60975958E+01  -2.18820375E+01  -1.29448038E+01  -2.17830380E+01  -2.17833365E+01  -3.13452172E+01  -2.98702397E+01
   5.07500000E+02   5.00000000E-01   5.00000000E-01  -6.72250353E+00  -1.40175395E+01  -3.13557559E+00  -1.29843405E+00  -1.54231782E+00  -3.55351699E+00  -1.30354823E+01  -6.71662745E+00  -5.13829253E+00  -2.61160093E-01  -4.16534391E+00  -1.96347509E+00  -3.38205601E-01  -1.52545937E+00  -3.74258033E+00  -3.39579285E+00  -6.14026436E+00  -4.40678822E+00  -3.12883964E+00  -1.27525847E+01  -1.15056324E+01  -9.89767106E+00  -1.24224225E+01  -8.70784630E+00  -8.15586331E+00  -1.08053181E+01  -1.36207940E+01  -2.39487857E+00  -5.27874928E+00  -2.72908753E+00  -3.84343278E+00  -7.69109425E+00  -2.24489474E+00  -4.56027905E+00  -6.90030081E+00  -6.49700984E+00  -4.11141087E+00  -6.80006740E+00  -1.36903932E+02  -1.40678963E+02  -6.38490876E+00  -1.12803234E+01  -1.06506951E+01  -6.89314236E+00  -3.20245470E+00  -9.66138898E+00  -3.41847995E+00  -6.49291921E+01  -1.13977930E+01  -8.33609276E+00  -1.74351300E+00  -4.33602516E+01  -6.29367444E+00  -7.88491901E+00  -5.09597042E+00  -7.86551756E+00  -7.59779738E+00  -8.53871715E+00  -8.05197471E+00  -1.05864292E+01  -9.06453412E+00  -6.96521250E+00  -6.34042812E+00  -1.18554714E+01  -5.91870000E+00  -1.28211430E+01  -7.53406295E+00  -1.09598302E+01  -1.61081961E+01  -1.61084616E+01  -2.18973087E+01  -1.29529995E+01  -2.17989577E+01  -2.17992578E+01  -3.13412887E+01  -2.97150251E+01
   5.42500000E+02   5.00000000E-01   5.00000000E-01  -6.67218945E+00  -1.39573070E+01  -3.09966529E+00  -1.29882306E+00  -1.55546929E+00  -3.52648638E+00  -1.29788014E+01  -6.71703578E+00  -5.13856381E+00  -2.60858227E-01  -4.16505861E+00  -1.96379816E+00  -3.37497534E-01  -1.53256074E+00  -3.74229502E+00  -3.39550754E+00  -6.15308139E+00  -4.40650292E+00  -3.11459578E+00  -1.26821486E+01  -1.14220627E+01  -9.83791306E+00  -1.23567166E+01  -8.69149142E+00  -8.14130125E+00  -1.08286028E+01  -1.35749997E+01  -2.40131029E+00  -5.31950494E+00  -2.73348610E+00  -3.86113011E+00  -7.66904418E+00  -2.26156321E+00  -4.50831450E+00  -6.86024858E+00  -6.45910002E+00  -4.08311398E+00  -6.78887772E+00  -1.35883536E+02  -1.39628507E+02  -6.35133456E+00  -1.11860427E+01  -1.05799662E+01  -6.82416261E+00  -3.19718953E+00  -9.63814817E+00  -3.42273047E+00  -6.44411745E+01  -1.13258027E+01  -8.32526841E+00  -1.75299642E+00  -4.30494650E+01  -6.30449904E+00  -7.92191883E+00  -5.11064273E+00  -7.80646626E+00  -7.58899577E+00  -8.57972016E+00  -8.03323593E+00  -1.06326818E+01  -9.08213016E+00  -6.94288941E+00  -6.33179545E+00  -1.18148755E+01  -5.92027404E+00  -1.27134256E+01  -7.53325501E+00  -1.09700509E+01  -1.61201309E+01  -1.61204022E+01  -2.19140425E+01  -1.29620862E+01  -2.18163299E+01  -2.18166332E+01  -3.13394900E+01  -2.95613119E+01
   5.77500000E+02   5.00000000E-01   5.00000000E-01  -6.62267863E+00  -1.38982253E+01  -3.06433303E+00  -1.29922051E+00  -1.56889584E+00  -3.50132704E+00  -1.29225972E+01  -6.71745664E+00  -5.13882324E+00  -2.60543431E-01  -4.16475885E+00  -1.96413326E+00  -3.36791052E-01  -1.53989876E+00  -3.74199527E+00  -3.39520779E+00  -6.16674923E+00  -4.40620316E+00  -3.10059601E+00  -1.26124737E+01  -1.13394315E+01  -9.77888554E+00  -1.22918491E+01  -8.67555768E+00  -8.12655609E+00  -1.08522620E+01  -1.35299447E+01  -2.40829914E+00  -5.36069739E+00  -2.73782547E+00  -3.87822695E+00  -7.64768454E+00  -2.27852407E+00  -4.45807398E+00  -6.82143978E+00  -6.42304873E+00  -4.05670766E+00  -6.77810206E+00  -1.34875601E+02  -1.38591000E+02  -6.31897735E+00  -1.10936569E+01  -1.05098414E+01  -6.75601954E+00  -3.19170384E+00  -9.61526011E+00  -3.42690544E+00  -6.39585438E+01  -1.12543640E+01  -8.31434768E+00  -1.76224734E+00  -4.27422640E+01  -6.31619114E+00  -7.95923692E+00  -5.12718918E+00  -7.75056235E+00  -7.58254650E+00  -8.62223112E+00  -8.01532307E+00  -1.06796633E+01  -9.10015926E+00  -6.92095356E+00  -6.32286015E+00  -1.17748267E+01  -5.92207375E+00  -1.26081820E+01  -7.53293040E+00  -1.09809460E+01  -1.61330555E+01  -1.61333346E+01  -2.19321384E+01  -1.29719735E+01  -2.18350543E+01  -2.18353625E+01  -3.13396216E+01  -2.94090780E+01
   6.12500000E+02   5.00000000E-01   5.00000000E-01  -6.57394950E+00  -1.38402729E+01  -3.02962460E+00  -1.29962720E+00  -1.58256172E+00  -3.47784325E+00  -1.28668725E+01  -6.71789013E+00  -5.13907217E+00  -2.60216083E-01  -4.16444503E+00  -1.96448044E+00  -3.36086175E-01  -1.54743300E+00  -3.74168145E+00  -3.39489397E+00  -6.18128687E+00  -4.40588934E+00  -3.08682211E+00  -1.25435527E+01  -1.12577391E+01  -9.72059548E+00  -1.22278144E+01  -8.66010118E+00  -8.11164620E+00  -1.08763495E+01  -1.34856197E+01  -2.41588044E+00  -5.40235427E+00  -2.74209094E+00  -3.89473353E+00  -7.62697845E+00  -2.29573399E+00  -4.40938061E+00  -6.78372032E+00  -6.38867048E+00  -4.03198968E+00  -6.76772531E+00  -1.33879880E+02  -1.37566157E+02  -6.28785790E+00  -1.10031799E+01  -1.04403355E+01  -6.68867401E+00  -3.18601874E+00  -9.59272677E+00  -3.43098921E+00  -6.34812173E+01  -1.11835039E+01  -8.30334865E+00  -1.77125515E+00  -4.24385894E+01  -6.32876706E+00  -7.99690774E+00  -5.14547931E+00  -7.69763025E+00  -7.57829704E+00  -8.66611934E+00  -7.99828287E+00  -1.07273840E+01  -9.11867538E+00  -6.89946467E+00  -6.31364476E+00  -1.17353231E+01  -5.92408923E+00  -1.25053275E+01  -7.53304945E+00  -1.09924737E+01  -1.61469061E+01  -1.61471950E+01  -2.19515144E+01  -1.29825844E+01  -2.18550486E+01  -2.18553637E+01  -3.13415481E+01  -2.92582963E+01
   6.47500000E+02   5.00000000E-01   5.00000000E-01  -6.52597961E+00  -1.37834257E+01  -2.99558321E+00  -1.30004377E+00  -1.59645106E+00  -3.45587006E+00  -1.28115904E+01  -6.71833635E+00  -5.13931062E+00  -2.59876475E-01  -4.16411751E+00  -1.96483938E+00  -3.35382501E-01  -1.55513750E+00  -3.74135392E+00  -3.39456644E+00  -6.19670525E+00  -4.40556181E+00  -3.07325430E+00  -1.24753759E+01  -1.11769842E+01  -9.66305154E+00  -1.21646051E+01  -8.64517614E+00  -8.09658770E+00  -1.09009179E+01  -1.34420167E+01  -2.42408992E+00  -5.44450675E+00  -2.74628562E+00  -3.91067563E+00  -7.60690975E+00  -2.31317953E+00  -4.36208624E+00  -6.74696265E+00  -6.35581105E+00  -4.00879848E+00  -6.75773497E+00  -1.32896140E+02  -1.36553718E+02  -6.25798585E+00  -1.09146121E+01  -1.03714621E+01  -6.62209817E+00  -3.18015265E+00  -9.57055030E+00  -3.43497763E+00  -6.30091102E+01  -1.11132484E+01  -8.29228874E+00  -1.78002051E+00  -4.21383828E+01  -6.34225054E+00  -8.03497448E+00  -5.16541252E+00  -7.64751353E+00  -7.57611416E+00  -8.71127482E+00  -7.98215034E+00  -1.07758497E+01  -9.13773047E+00  -6.87847915E+00  -6.30416823E+00  -1.16963618E+01  -5.92631911E+00  -1.24047767E+01  -7.53357200E+00  -1.10045940E+01  -1.61616221E+01  -1.61619230E+01  -2.19720910E+01  -1.29938412E+01  -2.18762336E+01  -2.18765576E+01  -3.13451458E+01  -2.91089302E+01
   6.82500000E+02   5.00000000E-01   5.00000000E-01  -6.47874560E+00  -1.37276568E+01  -2.96224969E+00  -1.30047066E+00  -1.61055241E+00  -3.43526839E+00  -1.27567029E+01  -6.71879532E+00  -5.13953832E+00  -2.59524866E-01  -4.16377660E+00  -1.96520972E+00  -3.34679576E-01  -1.56299035E+00  -3.74101301E+00  -3.39422553E+00  -6.21301124E+00  -4.40522091E+00  -3.05987105E+00  -1.24079314E+01  -1.10971649E+01  -9.60626469E+00  -1.21022118E+01  -8.63083538E+00  -8.08139525E+00  -1.09260205E+01  -1.33991288E+01  -2.43296350E+00  -5.48718874E+00  -2.75041561E+00  -3.92608046E+00  -7.58746802E+00  -2.33085291E+00  -4.31606716E+00  -6.71106214E+00  -6.32434295E+00  -3.98699959E+00  -6.74812108E+00  -1.31924154E+02  -1.35553433E+02  -6.22936441E+00  -1.08279452E+01  -1.03032350E+01  -6.55626574E+00  -3.17412243E+00  -9.54873394E+00  -3.43886879E+00  -6.25421371E+01  -1.10436244E+01  -8.28118565E+00  -1.78854613E+00  -4.18415865E+01  -6.35666291E+00  -8.07347895E+00  -5.18691387E+00  -7.60007510E+00  -7.57588468E+00  -8.75760862E+00  -7.96695398E+00  -1.08250651E+01  -9.15737647E+00  -6.85805165E+00  -6.29444768E+00  -1.16579413E+01  -5.92876300E+00  -1.23064433E+01  -7.53445620E+00  -1.10172671E+01  -1.61771432E+01  -1.61774585E+01  -2.19937888E+01  -1.30056630E+01  -2.18985296E+01  -2.18988647E+01  -3.13502924E+01  -2.89609337E+01
   7.17500000E+02   5.00000000E-01   5.00000000E-01  -6.43222318E+00  -1.36729361E+01  -2.92966237E+00  -1.30090811E+00  -1.62485583E+00  -3.41592029E+00  -1.27021573E+01  -6.71926698E+00  -5.13975494E+00  -2.59161496E-01  -4.16342262E+00  -1.96559108E+00  -3.33976957E-01  -1.57097163E+00  -3.74065903E+00  -3.39387155E+00  -6.23020832E+00  -4.40486693E+00  -3.04664908E+00  -1.23412053E+01  -1.10182780E+01  -9.55024806E+00  -1.20406228E+01  -8.61713022E+00  -8.06608226E+00  -1.09517106E+01  -1.33569510E+01  -2.44253706E+00  -5.53043647E+00  -2.75448729E+00  -3.94097419E+00  -7.56864570E+00  -2.34874756E+00  -4.27121959E+00  -6.67593282E+00  -6.29416088E+00  -3.96647925E+00  -6.73887616E+00  -1.30963701E+02  -1.34565054E+02  -6.20199118E+00  -1.07431637E+01  -1.02356680E+01  -6.49115012E+00  -3.16794360E+00  -9.52728213E+00  -3.44266129E+00  -6.20802119E+01  -1.09746597E+01  -8.27005759E+00  -1.79683512E+00  -4.15481441E+01  -6.37202133E+00  -8.11245970E+00  -5.20992947E+00  -7.55519340E+00  -7.57751180E+00  -8.80504910E+00  -7.95271680E+00  -1.08750338E+01  -9.17766560E+00  -6.83823525E+00  -6.28449893E+00  -1.16200612E+01  -5.93142021E+00  -1.22102394E+01  -7.53565838E+00  -1.10304525E+01  -1.61934088E+01  -1.61937409E+01  -2.20165276E+01  -1.30179654E+01  -2.19218566E+01  -2.19222051E+01  -3.13568657E+01  -2.88142508E+01