 TITLE = "Total Concentrations" 
VARIABLES = "X"          "Y"              "Z"            "H+"             "Al+++"          "CO2(aq)"        "Mg++"           "Ca++"           "Fe++"           "Fe+++"          "Ba++"           "Sr++"           "Li+"            "Rb+"            "Mn++"           "Zn++"           "Cu++"           "Cu+"            "Cl-"            "F-"             "K+"             "HS-"            "Na+"            "SO4--"          "O2(aq)"         "B(OH)3(aq)"     "HPO4--"         "NO3-"           "H4SiO4(aq)"     "Ti(OH)4(aq)"    "HNO3(aq)"       "Al(OH)2+"       "AlO2-"          "AlOH++"         "BaHCO3+"        "BaCl+"          "BaCO3(aq)"      "BaOH+"          "HCO3-"          "CO3--"          "CaCl+"          "CaCl2(aq)"      "CaOH+"          "CaSO4(aq)"      "FeCl+"          "FeCl2(aq)"      "FeOH+"          "FeSO4(aq)"      "OH-"            "LiCl(aq)"       "LiOH(aq)"       "RbCl(aq)"       "RbOH(aq)"       "S2O3--"         "H2S(aq)"        "H2PO4-"         "H3PO4(aq)"      "HAlO2(aq)"      "HSO4-"          "KCl(aq)"        "KOH(aq)"        "KSO4-"          "NH3(aq)"        "NaAlO2(aq)"     "NaOH(aq)"       "NaSO4-"         "H2(aq)"         "CaHPO4(aq)"     "CaPO4-"         "FeCO3(aq)"      "FeH2PO4+"       "FeHPO4(aq)"     "FePO4-"         "KHPO4-"         "PO4---"         "Sr(CO3)(aq)"    "SrHCO3+"        "SrCl+"          "SrOH+"          "SrSO4(aq)"      "AlH3SiO4++"     "Si2O2(OH)5-"    "Si2O3(OH)4--"   "Si3O5(OH)5---"  "Si3O6(OH)3---"  "Si4O12H4----"   "Si4O6(OH)6--"   "Si4O7(OH)6----" "Si4O8(OH)4----" "Si6O15------"   "SiF6--"        
 ZONE I=         200 , J=           1 , K=           1  F=POINT
   8.75000000E+00   5.00000000E-01   5.00000000E-01  -7.86134122E+00  -1.78732609E+01  -3.98629410E+00  -1.29413453E+00  -2.04410914E+00  -4.44056051E+00  -2.18832912E+01  -6.93744392E+00  -5.10354530E+00  -4.61180998E+00  -5.85969338E+00  -5.23474234E+00  -6.41090660E+00  -8.84705562E+00  -8.91432583E+00  -2.62095248E-01  -4.16749347E+00  -1.95183848E+00  -2.49892730E+01  -3.35547803E-01  -1.83620409E+00  -7.74473465E+00  -3.39794256E+00  -5.87479526E+00  -4.40893793E+00  -3.36788559E+00  -8.67875858E+00  -1.41459395E+01  -1.49793184E+01  -1.23518208E+01  -1.59776432E+01  -9.15008235E+00  -8.53228973E+00  -1.03431041E+01  -1.42342158E+01  -2.33739985E+00  -4.41827764E+00  -3.28601964E+00  -4.11683837E+00  -8.39544991E+00  -3.01323252E+00  -5.75230292E+00  -7.83631567E+00  -7.18958546E+00  -5.33197399E+00  -6.68873157E+00  -6.81008146E+00  -1.13053338E+01  -7.72972583E+00  -1.33308008E+01  -1.50413045E+02  -2.58422979E+01  -7.12005185E+00  -1.32648873E+01  -1.35556794E+01  -8.64986000E+00  -3.20717975E+00  -9.67307132E+00  -3.68503198E+00  -6.47441609E+01  -1.39610585E+01  -8.11045193E+00  -1.91233686E+00  -4.61561963E+01  -6.64491644E+00  -7.47939896E+00  -4.99129988E+00  -9.46003575E+00  -8.04041707E+00  -7.85720711E+00  -8.17462267E+00  -9.54675220E+00  -8.43441905E+00  -7.23148352E+00  -6.36339776E+00  -1.21160867E+01  -6.20358441E+00  -1.72090114E+01  -7.31675017E+00  -1.02934353E+01  -1.51759420E+01  -1.51761823E+01  -2.06123704E+01  -1.23589263E+01  -2.05039999E+01  -2.05042657E+01  -2.99457823E+01  -3.33767396E+01
   2.62500000E+01   5.00000000E-01   5.00000000E-01  -7.62154621E+00  -1.65265991E+01  -3.76956271E+00  -1.29681701E+00  -2.03596071E+00  -4.10417520E+00  -2.12277834E+01  -7.06326649E+00  -5.10391763E+00  -4.61180794E+00  -5.85983804E+00  -4.93392380E+00  -6.15459392E+00  -8.84639567E+00  -8.91500773E+00  -2.62098724E-01  -4.16749087E+00  -1.95178670E+00  -2.59480049E+01  -3.35351350E-01  -1.83175428E+00  -7.74473689E+00  -3.39794013E+00  -5.89011010E+00  -4.40893551E+00  -3.18581058E+00  -8.67753585E+00  -1.38935808E+01  -1.40032547E+01  -1.17794569E+01  -1.48235764E+01  -9.26800837E+00  -8.65143997E+00  -1.06824815E+01  -1.45088558E+01  -2.34255108E+00  -4.64067539E+00  -3.27754429E+00  -4.12708924E+00  -8.54838596E+00  -3.00474578E+00  -5.40136947E+00  -7.50221813E+00  -7.03808840E+00  -4.99178931E+00  -6.86578672E+00  -6.81001370E+00  -1.14859979E+01  -7.71895442E+00  -1.35016691E+01  -1.49077132E+02  -2.65915063E+01  -6.90595075E+00  -1.28065391E+01  -1.27859619E+01  -8.39141831E+00  -3.20817868E+00  -9.84394646E+00  -3.68469408E+00  -6.41247206E+01  -1.33844342E+01  -8.29764149E+00  -1.91858861E+00  -4.58812831E+01  -6.64799134E+00  -7.70118811E+00  -4.88753033E+00  -8.91012154E+00  -7.73041507E+00  -7.78693811E+00  -8.17026327E+00  -9.77848213E+00  -8.64327944E+00  -7.21998109E+00  -6.36292754E+00  -1.22716180E+01  -6.19932730E+00  -1.58309529E+01  -7.16442184E+00  -1.03387274E+01  -1.52413167E+01  -1.52415648E+01  -2.07002051E+01  -1.20641942E+01  -2.05924039E+01  -2.05926815E+01  -3.00565839E+01  -3.23117562E+01
   4.37500000E+01   5.00000000E-01   5.00000000E-01  -7.49242850E+00  -1.59732405E+01  -3.66183207E+00  -1.29934735E+00  -2.02799517E+00  -3.91598146E+00  -2.09036254E+01  -7.11506517E+00  -5.10435701E+00  -4.61179320E+00  -5.85997215E+00  -4.75784944E+00  -5.99447611E+00  -8.84572180E+00  -8.91567583E+00  -2.62088525E-01  -4.16747335E+00  -1.95174259E+00  -2.56100437E+01  -3.35155868E-01  -1.82763585E+00  -7.74472420E+00  -3.39792278E+00  -5.90387296E+00  -4.40891816E+00  -3.06306759E+00  -8.67646021E+00  -1.37516801E+01  -1.36001402E+01  -1.15598830E+01  -1.43524600E+01  -9.31069861E+00  -8.69623105E+00  -1.08366583E+01  -1.45999759E+01  -2.34683986E+00  -4.75225378E+00  -3.26880465E+00  -4.13647783E+00  -8.59174464E+00  -2.99624805E+00  -5.19830145E+00  -7.31544448E+00  -6.92466307E+00  -4.79958912E+00  -6.93327482E+00  -6.80958281E+00  -1.15567608E+01  -7.70812456E+00  -1.35628852E+01  -1.47970750E+02  -2.61538240E+01  -6.80045955E+00  -1.25672107E+01  -1.24788692E+01  -8.24358965E+00  -3.20879679E+00  -9.90500104E+00  -3.68422150E+00  -6.36190622E+01  -1.31602411E+01  -8.37455405E+00  -1.92455982E+00  -4.56089414E+01  -6.64915187E+00  -7.81053253E+00  -4.82043275E+00  -8.61706815E+00  -7.56661054E+00  -7.75214696E+00  -8.16395828E+00  -9.89868212E+00  -8.74108027E+00  -7.20729867E+00  -6.36210408E+00  -1.23175639E+01  -6.19510630E+00  -1.51966293E+01  -7.02074391E+00  -1.02827588E+01  -1.51547648E+01  -1.51550187E+01  -2.05855213E+01  -1.17866231E+01  -2.04782858E+01  -2.04785726E+01  -2.98633808E+01  -3.17466304E+01
   6.12500000E+01   5.00000000E-01   5.00000000E-01  -7.40344437E+00  -1.56785977E+01  -3.59268819E+00  -1.30177648E+00  -2.02020601E+00  -3.78516390E+00  -2.06991997E+01  -7.12400586E+00  -5.10482944E+00  -4.61176633E+00  -5.86009645E+00  -4.63286919E+00  -5.87772838E+00  -8.84503465E+00  -8.91633081E+00  -2.62065270E-01  -4.16744156E+00  -1.95170604E+00  -2.53146364E+01  -3.34965234E-01  -1.82382845E+00  -7.74469725E+00  -3.39789117E+00  -5.91609216E+00  -4.40888654E+00  -2.97982049E+00  -8.67556637E+00  -1.36497058E+01  -1.33764568E+01  -1.14406392E+01  -1.41002463E+01  -9.30944075E+00  -8.69784156E+00  -1.09074424E+01  -1.46092607E+01  -2.35037149E+00  -4.82364114E+00  -3.25981022E+00  -4.14503113E+00  -8.59604532E+00  -2.98773247E+00  -5.05229865E+00  -7.18521053E+00  -6.82902801E+00  -4.66455877E+00  -6.96170964E+00  -6.80880284E+00  -1.15881504E+01  -7.69724027E+00  -1.35849684E+01  -1.46952677E+02  -2.57979796E+01  -6.73305816E+00  -1.24058508E+01  -1.23114175E+01  -8.13582684E+00  -3.20904867E+00  -9.92676121E+00  -3.68360974E+00  -6.31566026E+01  -1.30360394E+01  -8.41173555E+00  -1.93025417E+00  -4.53391323E+01  -6.64841956E+00  -7.87800135E+00  -4.76984461E+00  -8.41953459E+00  -7.45820171E+00  -7.73258045E+00  -8.15574042E+00  -9.97788958E+00  -8.79842927E+00  -7.19352617E+00  -6.36090817E+00  -1.23244133E+01  -6.19088350E+00  -1.48221126E+01  -6.91658019E+00  -1.02269276E+01  -1.50683910E+01  -1.50686491E+01  -2.04711141E+01  -1.15879471E+01  -2.03644403E+01  -2.03647343E+01  -2.96704220E+01  -3.13794365E+01
   7.87500000E+01   5.00000000E-01   5.00000000E-01  -7.33096755E+00  -1.54728472E+01  -3.53896539E+00  -1.30413422E+00  -2.01258623E+00  -3.68473816E+00  -2.05436370E+01  -7.11189822E+00  -5.10532468E+00  -4.61172783E+00  -5.86021159E+00  -4.53588660E+00  -5.78578352E+00  -8.84433481E+00  -8.91697326E+00  -2.62029539E-01  -4.16739610E+00  -1.95167673E+00  -2.50381076E+01  -3.34780508E-01  -1.82031289E+00  -7.74465662E+00  -3.39784588E+00  -5.92763111E+00  -4.40884125E+00  -2.92319454E+00  -8.67484374E+00  -1.35640454E+01  -1.32096192E+01  -1.13463648E+01  -1.39207353E+01  -9.28649823E+00  -8.67809658E+00  -1.09407027E+01  -1.45821246E+01  -2.35358112E+00  -4.87887626E+00  -3.25057196E+00  -4.15277992E+00  -8.58489176E+00  -2.97919973E+00  -4.93639383E+00  -7.08456739E+00  -6.74781749E+00  -4.55972264E+00  -6.97468807E+00  -6.80768979E+00  -1.16037793E+01  -7.68630886E+00  -1.35915245E+01  -1.45975535E+02  -2.54766981E+01  -6.68100167E+00  -1.22761022E+01  -1.21846406E+01  -8.04450373E+00  -3.20895144E+00  -9.93283860E+00  -3.68285873E+00  -6.27136823E+01  -1.29364872E+01  -8.43281375E+00  -1.93567689E+00  -4.50718202E+01  -6.64667737E+00  -7.92810533E+00  -4.73285104E+00  -8.26778866E+00  -7.37908061E+00  -7.72575945E+00  -8.14650016E+00  -1.00405745E+01  -8.83937560E+00  -7.17910928E+00  -6.35934711E+00  -1.23157647E+01  -6.18665359E+00  -1.45482833E+01  -6.84979603E+00  -1.01927136E+01  -1.50144187E+01  -1.50146796E+01  -2.03999430E+01  -1.14639009E+01  -2.02938269E+01  -2.02941261E+01  -2.95421733E+01  -3.11028748E+01
   9.62500000E+01   5.00000000E-01   5.00000000E-01  -7.26837499E+00  -1.53168687E+01  -3.49419478E+00  -1.30643566E+00  -2.00512889E+00  -3.60335848E+00  -2.04170759E+01  -7.09034681E+00  -5.10583960E+00  -4.61167817E+00  -5.86031813E+00  -4.45661089E+00  -5.70991767E+00  -8.84362285E+00  -8.91760374E+00  -2.61981863E-01  -4.16733753E+00  -1.95165423E+00  -2.47737857E+01  -3.34600457E-01  -1.81707111E+00  -7.74460289E+00  -3.39778748E+00  -5.93876293E+00  -4.40878285E+00  -2.88390351E+00  -8.67427650E+00  -1.34880902E+01  -1.30737403E+01  -1.12643920E+01  -1.37814270E+01  -9.25362355E+00  -8.64861698E+00  -1.09547960E+01  -1.45367751E+01  -2.35659756E+00  -4.92468783E+00  -3.24110136E+00  -4.15975614E+00  -8.56488588E+00  -2.97065418E+00  -4.83925880E+00  -7.00220592E+00  -6.67630222E+00  -4.47374727E+00  -6.97880457E+00  -6.80626013E+00  -1.16102581E+01  -7.67533894E+00  -1.35891580E+01  -1.45025961E+02  -2.51767115E+01  -6.63795899E+00  -1.21650250E+01  -1.20792689E+01  -7.96299914E+00  -3.20852299E+00  -9.92984319E+00  -3.68197067E+00  -6.22836483E+01  -1.28489341E+01  -8.44441175E+00  -1.94083302E+00  -4.48069712E+01  -6.64422061E+00  -7.96776314E+00  -4.70486784E+00  -8.14415175E+00  -7.31819093E+00  -7.72725209E+00  -8.13653831E+00  -1.00936115E+01  -8.87066831E+00  -7.16419483E+00  -6.35743611E+00  -1.22982223E+01  -6.18242240E+00  -1.43333113E+01  -6.80842895E+00  -1.01747647E+01  -1.49848213E+01  -1.49850838E+01  -2.03613040E+01  -1.13905626E+01  -2.02557413E+01  -2.02560441E+01  -2.94625903E+01  -3.08812426E+01
   1.13750000E+02   5.00000000E-01   5.00000000E-01  -7.21293059E+00  -1.51986578E+01  -3.45570684E+00  -1.30869538E+00  -1.99782740E+00  -3.53509175E+00  -2.03113154E+01  -7.06484774E+00  -5.10637269E+00  -4.61161779E+00  -5.86041661E+00  -4.38955174E+00  -5.64532703E+00  -8.84289927E+00  -8.91822278E+00  -2.61922732E-01  -4.16726635E+00  -1.95163813E+00  -2.45188876E+01  -3.34422667E-01  -1.81408665E+00  -7.74453655E+00  -3.39771647E+00  -5.94958167E+00  -4.40871184E+00  -2.85534249E+00  -8.67384964E+00  -1.34191178E+01  -1.29622754E+01  -1.11936222E+01  -1.36730506E+01  -9.21637338E+00  -8.61491476E+00  -1.09579973E+01  -1.44814255E+01  -2.35946277E+00  -4.96383147E+00  -3.23140969E+00  -4.16599091E+00  -8.53874346E+00  -2.96210145E+00  -4.75497745E+00  -6.93222849E+00  -6.61127889E+00  -4.40071275E+00  -6.97676764E+00  -6.80452982E+00  -1.16103111E+01  -7.66433893E+00  -1.35805870E+01  -1.44098369E+02  -2.48925263E+01  -6.60130644E+00  -1.20672730E+01  -1.19914885E+01  -7.88857987E+00  -3.20778070E+00  -9.92049848E+00  -3.68094882E+00  -6.18637349E+01  -1.27722969E+01  -8.44926442E+00  -1.94572739E+00  -4.45445525E+01  -6.64116518E+00  -7.99982679E+00  -4.68274950E+00  -8.04006561E+00  -7.26971003E+00  -7.73397294E+00  -8.12597552E+00  -1.01398094E+01  -8.89508441E+00  -7.14884377E+00  -6.35519148E+00  -1.22745054E+01  -6.17819839E+00  -1.41612784E+01  -6.78199210E+00  -1.01653174E+01  -1.49679547E+01  -1.49682179E+01  -2.03396705E+01  -1.13469612E+01  -2.02346568E+01  -2.02349618E+01  -2.94083914E+01  -3.06970628E+01
   1.31250000E+02   5.00000000E-01   5.00000000E-01  -7.16260426E+00  -1.51086057E+01  -3.42155025E+00  -1.31092863E+00  -1.99067562E+00  -3.47639275E+00  -2.02202725E+01  -7.03790860E+00  -5.10692261E+00  -4.61154708E+00  -5.86050751E+00  -4.33143157E+00  -5.58908239E+00  -8.84216454E+00  -8.91883083E+00  -2.61852605E-01  -4.16718304E+00  -1.95162806E+00  -2.42713375E+01  -3.34244686E-01  -1.81134440E+00  -7.74445809E+00  -3.39763334E+00  -5.96020515E+00  -4.40862871E+00  -2.83310347E+00  -8.67354810E+00  -1.33551110E+01  -1.28696639E+01  -1.11325298E+01  -1.35880250E+01  -9.17732807E+00  -8.57951253E+00  -1.09548995E+01  -1.44205946E+01  -2.36223193E+00  -4.99837091E+00  -3.22150783E+00  -4.17151408E+00  -8.50847500E+00  -2.95354746E+00  -4.68002070E+00  -6.87112366E+00  -6.55122608E+00  -4.33708677E+00  -6.97058079E+00  -6.80251399E+00  -1.16059565E+01  -7.65331668E+00  -1.35678242E+01  -1.43188591E+02  -2.46200614E+01  -6.56914924E+00  -1.19789342E+01  -1.19177635E+01  -7.81921914E+00  -3.20674111E+00  -9.90682227E+00  -3.67979685E+00  -6.14518824E+01  -1.27050645E+01  -8.44940026E+00  -1.95036505E+00  -4.42845316E+01  -6.63764969E+00  -8.02646494E+00  -4.66504492E+00  -7.95008880E+00  -7.23022610E+00  -7.74454140E+00  -8.11495480E+00  -1.01812955E+01  -8.91470795E+00  -7.13312942E+00  -6.35262884E+00  -1.22466277E+01  -6.17399005E+00  -1.40201543E+01  -6.76368674E+00  -1.01595906E+01  -1.49566485E+01  -1.49569118E+01  -2.03254807E+01  -1.13195021E+01  -2.02210115E+01  -2.02213177E+01  -2.93652423E+01  -3.05378760E+01
   1.48750000E+02   5.00000000E-01   5.00000000E-01  -7.11585264E+00  -1.50385713E+01  -3.39026641E+00  -1.31314843E+00  -1.98366781E+00  -3.42497794E+00  -2.01393245E+01  -7.01066975E+00  -5.10748811E+00  -4.61146642E+00  -5.86059128E+00  -4.28013616E+00  -5.53926520E+00  -8.84141910E+00  -8.91942836E+00  -2.61771911E-01  -4.16708804E+00  -1.95162367E+00  -2.40295477E+01  -3.34064589E-01  -1.80883019E+00  -7.74436793E+00  -3.39753852E+00  -5.97076376E+00  -4.40853389E+00  -2.81441266E+00  -8.67335624E+00  -1.32945391E+01  -1.27908392E+01  -1.10791106E+01  -1.35197496E+01  -9.13770679E+00  -8.54356501E+00  -1.09482483E+01  -1.43569478E+01  -2.36496706E+00  -5.02989085E+00  -3.21140629E+00  -4.17635437E+00  -8.47560492E+00  -2.94499814E+00  -4.61212037E+00  -6.81664016E+00  -6.49539742E+00  -4.28059838E+00  -6.96176175E+00  -6.80022707E+00  -1.15987261E+01  -7.64227960E+00  -1.35523959E+01  -1.42293431E+02  -2.43562097E+01  -6.54009127E+00  -1.18970816E+01  -1.18545658E+01  -7.75337701E+00  -3.20542004E+00  -9.89034585E+00  -3.67851860E+00  -6.10465182E+01  -1.26452470E+01  -8.44636132E+00  -1.95475161E+00  -4.40268765E+01  -6.63382452E+00  -8.04937114E+00  -4.65108426E+00  -7.87054033E+00  -7.19760105E+00  -7.75836380E+00  -8.10363051E+00  -1.02197241E+01  -8.93114287E+00  -7.11713111E+00  -6.34976314E+00  -1.22161166E+01  -6.16980562E+00  -1.39005247E+01  -6.74949603E+00  -1.01550986E+01  -1.49471754E+01  -1.49474380E+01  -2.03137637E+01  -1.13001540E+01  -2.02098342E+01  -2.02101406E+01  -2.93256938E+01  -3.03948007E+01
   1.66250000E+02   5.00000000E-01   5.00000000E-01  -7.07159561E+00  -1.49824536E+01  -3.36085285E+00  -1.31536447E+00  -1.97679861E+00  -3.37929853E+00  -2.00652382E+01  -6.98365314E+00  -5.10806805E+00  -4.61137615E+00  -5.86066834E+00  -4.23422192E+00  -5.49455021E+00  -8.84066334E+00  -8.92001578E+00  -2.61681051E-01  -4.16698176E+00  -1.95162461E+00  -2.37923951E+01  -3.33881057E-01  -1.80653063E+00  -7.74426649E+00  -3.39743241E+00  -5.98137359E+00  -4.40842778E+00  -2.79761089E+00  -8.67325772E+00  -1.32363335E+01  -1.27218487E+01  -1.10315486E+01  -1.34632011E+01  -9.09810330E+00  -8.50760788E+00  -1.09397014E+01  -1.42920693E+01  -2.36772392E+00  -5.05950723E+00  -3.20111527E+00  -4.18053945E+00  -8.44119506E+00  -2.93645943E+00  -4.54974237E+00  -6.76726010E+00  -6.44331814E+00  -4.22971093E+00  -6.95136589E+00  -6.79768282E+00  -1.15896887E+01  -7.63123472E+00  -1.35353656E+01  -1.41410625E+02  -2.40987910E+01  -6.51318464E+00  -1.18196989E+01  -1.17990179E+01  -7.68997684E+00  -3.20383266E+00  -9.87213761E+00  -3.67711795E+00  -6.06465331E+01  -1.25910426E+01  -8.44122675E+00  -1.95889317E+00  -4.37715559E+01  -6.62982492E+00  -8.06976048E+00  -4.64046244E+00  -7.79892226E+00  -7.17041673E+00  -7.77510303E+00  -8.09214148E+00  -1.02562722E+01  -8.94552351E+00  -7.10092122E+00  -6.34660875E+00  -1.21840369E+01  -6.16565315E+00  -1.37956686E+01  -6.73716932E+00  -1.01506589E+01  -1.49377623E+01  -1.49380241E+01  -2.03021548E+01  -1.12844181E+01  -2.01987602E+01  -2.01990661E+01  -2.92862053E+01  -3.02619200E+01
   1.83750000E+02   5.00000000E-01   5.00000000E-01  -7.02911171E+00  -1.49359487E+01  -3.33265497E+00  -1.31758351E+00  -1.97006294E+00  -3.33825948E+00  -1.99958562E+01  -6.95709770E+00  -5.10866139E+00  -4.61127659E+00  -5.86073909E+00  -4.19265920E+00  -5.45398358E+00  -8.83989765E+00  -8.92059347E+00  -2.61580397E-01  -4.16686457E+00  -1.95163060E+00  -2.35591166E+01  -3.33693259E-01  -1.80443306E+00  -7.74415415E+00  -3.39731540E+00  -5.99212812E+00  -4.40831078E+00  -2.78175217E+00  -8.67323569E+00  -1.31797841E+01  -1.26598200E+01  -1.09883917E+01  -1.34147946E+01  -9.05881764E+00  -8.47189318E+00  -1.09302647E+01  -1.42269020E+01  -2.37054834E+00  -5.08796818E+00  -3.19064459E+00  -4.18409596E+00  -8.40594923E+00  -2.92793723E+00  -4.49180565E+00  -6.72191801E+00  -6.39460867E+00  -4.18334113E+00  -6.94009086E+00  -6.79489440E+00  -1.15795550E+01  -7.62018866E+00  -1.35174387E+01  -1.40538627E+02  -2.38463427E+01  -6.48781692E+00  -1.17454636E+01  -1.17489642E+01  -7.62830066E+00  -3.20199349E+00  -9.85290757E+00  -3.67559884E+00  -6.02511769E+01  -1.25410131E+01  -8.43471739E+00  -1.96279628E+00  -4.35185391E+01  -6.62576281E+00  -8.08846594E+00  -4.63285909E+00  -7.73352593E+00  -7.14768569E+00  -7.79449402E+00  -8.08060286E+00  -1.02917364E+01  -8.95861560E+00  -7.08456149E+00  -6.34317951E+00  -1.21510948E+01  -6.16154051E+00  -1.37010178E+01  -6.72552390E+00  -1.01457985E+01  -1.49277007E+01  -1.49279613E+01  -2.02897082E+01  -1.12699314E+01  -2.01868435E+01  -2.01871485E+01  -2.92453636E+01  -3.01354618E+01
   2.01250000E+02   5.00000000E-01   5.00000000E-01  -6.98792898E+00  -1.48960944E+01  -3.30525786E+00  -1.31981013E+00  -1.96345603E+00  -3.30105916E+00  -1.99297699E+01  -6.93111006E+00  -5.10926721E+00  -4.61116804E+00  -5.86080387E+00  -4.15468779E+00  -5.41685589E+00  -8.83912238E+00  -8.92116178E+00  -2.61470301E-01  -4.16673682E+00  -1.95164133E+00  -2.33291997E+01  -3.33500705E-01  -1.80252559E+00  -7.74403126E+00  -3.39718784E+00  -6.00309956E+00  -4.40818321E+00  -2.76632443E+00  -8.67327292E+00  -1.31244296E+01  -1.26027233E+01  -1.09485318E+01  -1.33720372E+01  -9.02000777E+00  -8.43654005E+00  -1.09205528E+01  -1.41620075E+01  -2.37347705E+00  -5.11576392E+00  -3.18000374E+00  -4.18704948E+00  -8.37032226E+00  -2.91943738E+00  -4.43752194E+00  -6.67984053E+00  -6.34893343E+00  -4.14069872E+00  -6.92838561E+00  -6.79187436E+00  -1.15687858E+01  -7.60914771E+00  -1.34990714E+01  -1.39676393E+02  -2.35979018E+01  -6.46360326E+00  -1.16735293E+01  -1.17028422E+01  -7.56788007E+00  -3.19991642E+00  -9.83311650E+00  -3.67396524E+00  -5.98599488E+01  -1.24940641E+01  -8.42730463E+00  -1.96646775E+00  -4.32677959E+01  -6.62172804E+00  -8.10604881E+00  -4.62798819E+00  -7.67316380E+00  -7.12869215E+00  -7.81629372E+00  -8.06910740E+00  -1.03266430E+01  -8.97092612E+00  -7.06810390E+00  -6.33948871E+00  -1.21177478E+01  -6.15747533E+00  -1.36135312E+01  -6.71399555E+00  -1.01404134E+01  -1.49168352E+01  -1.49170948E+01  -2.02762166E+01  -1.12555675E+01  -2.01738768E+01  -2.01741805E+01  -2.92028624E+01  -3.00130834E+01
   2.18750000E+02   5.00000000E-01   5.00000000E-01  -6.94774134E+00  -1.48608722E+01  -3.27840461E+00  -1.32204744E+00  -1.95697338E+00  -3.26709333E+00  -1.98660679E+01  -6.90573357E+00  -5.10988464E+00  -4.61105079E+00  -5.86086302E+00  -4.11973046E+00  -5.38262519E+00  -8.83833784E+00  -8.92172106E+00  -2.61351091E-01  -4.16659885E+00  -1.95165655E+00  -2.31022990E+01  -3.33303120E-01  -1.80079704E+00  -7.74389814E+00  -3.39705005E+00  -6.01434260E+00  -4.40804542E+00  -2.75106871E+00  -8.67335207E+00  -1.30699739E+01  -1.25491410E+01  -1.09111423E+01  -1.33332139E+01  -8.98176058E+00  -8.40160375E+00  -1.09109442E+01  -1.40977185E+01  -2.37653970E+00  -5.14321248E+00  -3.16920182E+00  -4.18942458E+00  -8.33460366E+00  -2.91096560E+00  -4.38629970E+00  -6.64045042E+00  -6.30598844E+00  -4.10119043E+00  -6.91653406E+00  -6.78863463E+00  -1.15576769E+01  -7.59811772E+00  -1.34805545E+01  -1.38823213E+02  -2.33528374E+01  -6.44030658E+00  -1.16033633E+01  -1.16595360E+01  -7.50841255E+00  -3.19761473E+00  -9.81305954E+00  -3.67222119E+00  -5.94725145E+01  -1.24493820E+01  -8.41929404E+00  -1.96991455E+00  -4.30192966E+01  -6.61779212E+00  -8.12288609E+00  -4.62558770E+00  -7.61699350E+00  -7.11289965E+00  -7.84027254E+00  -8.05772928E+00  -1.03613356E+01  -8.98278897E+00  -7.05159265E+00  -6.33554903E+00  -1.20842877E+01  -6.15346498E+00  -1.35311998E+01  -6.70236064E+00  -1.01345748E+01  -1.49052733E+01  -1.49055319E+01  -2.02618224E+01  -1.12408813E+01  -2.01600024E+01  -2.01603047E+01  -2.91589194E+01  -2.98933559E+01
   2.36250000E+02   5.00000000E-01   5.00000000E-01  -6.90835083E+00  -1.48289140E+01  -3.25194052E+00  -1.32429757E+00  -1.95061072E+00  -3.23589508E+00  -1.98041632E+01  -6.88098068E+00  -5.11051285E+00  -4.61092509E+00  -5.86091684E+00  -4.08733855E+00  -5.35086809E+00  -8.83754434E+00  -8.92227161E+00  -2.61223076E-01  -4.16645096E+00  -1.95167601E+00  -2.28781786E+01  -3.33100360E-01  -1.79923698E+00  -7.74375510E+00  -3.39690234E+00  -6.02589830E+00  -4.40789771E+00  -2.73586784E+00  -8.67345579E+00  -1.30162287E+01  -1.24980901E+01  -1.08756153E+01  -1.32971520E+01  -8.94412624E+00  -8.36710809E+00  -1.09016727E+01  -1.40342290E+01  -2.37976081E+00  -5.17051928E+00  -3.15824755E+00  -4.19124478E+00  -8.29897524E+00  -2.90252749E+00  -4.33768410E+00  -6.60330651E+00  -6.26549895E+00  -4.06435990E+00  -6.90471277E+00  -6.78518657E+00  -1.15464158E+01  -7.58710422E+00  -1.34620709E+01  -1.37978595E+02  -2.31107352E+01  -6.41778366E+00  -1.15346339E+01  -1.16182561E+01  -7.44970378E+00  -3.19510108E+00  -9.79292394E+00  -3.67037076E+00  -5.90886477E+01  -1.24063716E+01  -8.41088295E+00  -1.97314368E+00  -4.27730119E+01  -6.61401210E+00  -8.13923215E+00  -4.62541916E+00  -7.56440393E+00  -7.09989491E+00  -7.86621586E+00  -8.04652798E+00  -1.03960369E+01  -8.99442454E+00  -7.03506607E+00  -6.33137261E+00  -1.20508984E+01  -6.14951656E+00  -1.34527002E+01  -6.69057125E+00  -1.01284215E+01  -1.48932238E+01  -1.48934816E+01  -2.02468038E+01  -1.12257791E+01  -2.01454983E+01  -2.01457992E+01  -2.91139555E+01  -2.97754223E+01
   2.53750000E+02   5.00000000E-01   5.00000000E-01  -6.86962964E+00  -1.47992983E+01  -3.22577664E+00  -1.32656206E+00  -1.94436401E+00  -3.20709594E+00  -1.97436795E+01  -6.85684852E+00  -5.11115106E+00  -4.61079119E+00  -5.86096563E+00  -4.05715649E+00  -5.32124757E+00  -8.83674217E+00  -8.92281372E+00  -2.61086545E-01  -4.16629342E+00  -1.95169946E+00  -2.26566734E+01  -3.32892357E-01  -1.79783564E+00  -7.74360242E+00  -3.39674499E+00  -6.03779713E+00  -4.40774036E+00  -2.72068049E+00  -8.67356697E+00  -1.29630752E+01  -1.24488934E+01  -1.08415094E+01  -1.32630552E+01  -8.90713520E+00  -8.33306094E+00  -1.08928829E+01  -1.39716482E+01  -2.38316118E+00  -5.19781661E+00  -3.14714926E+00  -4.19253258E+00  -8.26354918E+00  -2.89412850E+00  -4.29131815E+00  -6.56806485E+00  -6.22721860E+00  -4.02984878E+00  -6.89302895E+00  -6.78154097E+00  -1.15351201E+01  -7.57611233E+00  -1.34437338E+01  -1.37142189E+02  -2.28713215E+01  -6.39595028E+00  -1.14671383E+01  -1.15784491E+01  -7.39162957E+00  -3.19238752E+00  -9.77282701E+00  -3.66841805E+00  -5.87081923E+01  -1.23646036E+01  -8.40219842E+00  -1.97616217E+00  -4.25289133E+01  -6.61043363E+00  -8.15525975E+00  -4.62726825E+00  -7.51494141E+00  -7.08935196E+00  -7.89392624E+00  -8.03555140E+00  -1.04308893E+01  -9.00597923E+00  -7.01855812E+00  -6.32697097E+00  -1.20176939E+01  -6.14563680E+00  -1.33771616E+01  -6.67866118E+00  -1.01221041E+01  -1.48809132E+01  -1.48811707E+01  -2.02314624E+01  -1.12103303E+01  -2.01306662E+01  -2.01309658E+01  -2.90684267E+01  -2.96587796E+01
   2.71250000E+02   5.00000000E-01   5.00000000E-01  -6.83149543E+00  -1.47714099E+01  -3.19986617E+00  -1.32884208E+00  -1.93822943E+00  -3.18039981E+00  -1.96843766E+01  -6.83332655E+00  -5.11179848E+00  -4.61064932E+00  -5.86100964E+00  -4.02889768E+00  -5.29349094E+00  -8.83593157E+00  -8.92334767E+00  -2.60941772E-01  -4.16612651E+00  -1.95172668E+00  -2.24376654E+01  -3.32679080E-01  -1.79658390E+00  -7.74344037E+00  -3.39657827E+00  -6.05006131E+00  -4.40757364E+00  -2.70550312E+00  -8.67366880E+00  -1.29104397E+01  -1.24010899E+01  -1.08085088E+01  -1.32303881E+01  -8.87080701E+00  -8.29946199E+00  -1.08846633E+01  -1.39100320E+01  -2.38675900E+00  -5.22518931E+00  -3.13591493E+00  -4.19330949E+00  -8.22839254E+00  -2.88577388E+00  -4.24691665E+00  -6.53445271E+00  -6.19092798E+00  -3.99737072E+00  -6.88154503E+00  -6.77770807E+00  -1.15238622E+01  -7.56514682E+00  -1.34256114E+01  -1.36313738E+02  -2.26344140E+01  -6.37475885E+00  -1.14007552E+01  -1.15397320E+01  -7.33411126E+00  -3.18948554E+00  -9.75284075E+00  -3.66636713E+00  -5.83310381E+01  -1.23237736E+01  -8.39332187E+00  -1.97897696E+00  -4.22869723E+01  -6.60709330E+00  -8.17108704E+00  -4.63094451E+00  -7.46826136E+00  -7.08100844E+00  -7.92322431E+00  -8.02483820E+00  -1.04659820E+01  -9.01755106E+00  -7.00209945E+00  -6.32235507E+00  -1.19847433E+01  -6.14183212E+00  -1.33040137E+01  -6.66669464E+00  -1.01157586E+01  -1.48685457E+01  -1.48688035E+01  -2.02160702E+01  -1.11946654E+01  -2.01157780E+01  -2.01160766E+01  -2.90227442E+01  -2.95431421E+01
   2.88750000E+02   5.00000000E-01   5.00000000E-01  -6.79389552E+00  -1.47448456E+01  -3.17418939E+00  -1.33113855E+00  -1.93220333E+00  -3.15556508E+00  -1.96261033E+01  -6.81040046E+00  -5.11245436E+00  -4.61049969E+00  -5.86104914E+00  -4.00232775E+00  -5.26737447E+00  -8.83511281E+00  -8.92387370E+00  -2.60789016E-01  -4.16595048E+00  -1.95175748E+00  -2.22210670E+01  -3.32460523E-01  -1.79547326E+00  -7.74326919E+00  -3.39640242E+00  -6.06270647E+00  -4.40739779E+00  -2.69034887E+00  -8.67374496E+00  -1.28582775E+01  -1.23543711E+01  -1.07763916E+01  -1.31987975E+01  -8.83515496E+00  -8.26630662E+00  -1.08770670E+01  -1.38494037E+01  -2.39057059E+00  -5.25269134E+00  -3.12455216E+00  -4.19359607E+00  -8.19354318E+00  -2.87746867E+00  -4.20424829E+00  -6.50225069E+00  -6.15643255E+00  -3.96669337E+00  -6.87029453E+00  -6.77369760E+00  -1.15126850E+01  -7.55421212E+00  -1.34077423E+01  -1.35493048E+02  -2.23998901E+01  -6.35418427E+00  -1.13354152E+01  -1.15018447E+01  -7.27709979E+00  -3.18640605E+00  -9.73300774E+00  -3.66422206E+00  -5.79571046E+01  -1.22836706E+01  -8.38430490E+00  -1.98159491E+00  -4.20471612E+01  -6.60402028E+00  -8.18679511E+00  -4.63627996E+00  -7.42409616E+00  -7.07464933E+00  -7.95394840E+00  -8.01441948E+00  -1.05013688E+01  -9.02920635E+00  -6.98571817E+00  -6.31753530E+00  -1.19520859E+01  -6.13810856E+00  -1.32328856E+01  -6.65473981E+00  -1.01094953E+01  -1.48562875E+01  -1.48565460E+01  -2.02008483E+01  -1.11789225E+01  -2.01010546E+01  -2.01013527E+01  -2.89772425E+01  -2.94283573E+01
   3.06250000E+02   5.00000000E-01   5.00000000E-01  -6.75679651E+00  -1.47193482E+01  -3.14874382E+00  -1.33345222E+00  -1.92628229E+00  -3.13239193E+00  -1.95687664E+01  -6.78805421E+00  -5.11311793E+00  -4.61034250E+00  -5.86108434E+00  -3.97725264E+00  -5.24271235E+00  -8.83428610E+00  -8.92439206E+00  -2.60628521E-01  -4.16576555E+00  -1.95179166E+00  -2.20068108E+01  -3.32236686E-01  -1.79449576E+00  -7.74308912E+00  -3.39621768E+00  -6.07574281E+00  -4.40721305E+00  -2.67523624E+00  -8.67377973E+00  -1.28065628E+01  -1.23085359E+01  -1.07450057E+01  -1.31680572E+01  -8.80018858E+00  -8.23358796E+00  -1.08701244E+01  -1.37897653E+01  -2.39461085E+00  -5.28035656E+00  -3.11306818E+00  -4.19341196E+00  -8.15902005E+00  -2.86921773E+00  -4.16312303E+00  -6.47128011E+00  -6.12356031E+00  -3.93762575E+00  -6.85929234E+00  -6.76951876E+00  -1.15016121E+01  -7.54331231E+00  -1.33901463E+01  -1.34679961E+02  -2.21676659E+01  -6.33421480E+00  -1.12710807E+01  -1.14646160E+01  -7.22056536E+00  -3.18315943E+00  -9.71335143E+00  -3.66198686E+00  -5.75863306E+01  -1.22441528E+01  -8.37517964E+00  -1.98402274E+00  -4.18094525E+01  -6.60123761E+00  -8.20243954E+00  -4.64312732E+00  -7.38223337E+00  -7.07009550E+00  -7.98595341E+00  -8.00432005E+00  -1.05370792E+01  -9.04099049E+00  -6.96944035E+00  -6.31252152E+00  -1.19197422E+01  -6.13447179E+00  -1.31635401E+01  -6.64285648E+00  -1.01033971E+01  -1.48442633E+01  -1.48445234E+01  -2.01859628E+01  -1.11632231E+01  -2.00866621E+01  -2.00869602E+01  -2.89321737E+01  -2.93143533E+01