 TITLE = "Total Concentrations" 
VARIABLES = "X"          "Y"              "Z"            "H+"             "Al+++"          "CO2(aq)"        "Mg++"           "Ca++"           "Fe++"           "Fe+++"          "Ba++"           "Sr++"           "Cl-"            "F-"             "K+"             "HS-"            "Na+"            "SO4--"          "O2(aq)"         "B(OH)3(aq)"     "HPO4--"         "NO3-"           "H4SiO4(aq)"     "HNO3(aq)"       "Al(OH)2+"       "AlO2-"          "AlOH++"         "BaHCO3+"        "BaCl+"          "BaCO3(aq)"      "BaOH+"          "HCO3-"          "CO3--"          "CaCl+"          "CaCl2(aq)"      "CaOH+"          "CaSO4(aq)"      "FeCl+"          "FeCl2(aq)"      "FeOH+"          "FeSO4(aq)"      "OH-"            "S2O3--"         "H2S(aq)"        "H2PO4-"         "H3PO4(aq)"      "HAlO2(aq)"      "HSO4-"          "KCl(aq)"        "KOH(aq)"        "KSO4-"          "NH3(aq)"        "NaAlO2(aq)"     "NaOH(aq)"       "NaSO4-"         "H2(aq)"         "CaHPO4(aq)"     "CaPO4-"         "FeCO3(aq)"      "FeH2PO4+"       "FeHPO4(aq)"     "FePO4-"         "KHPO4-"         "PO4---"         "Sr(CO3)(aq)"    "SrHCO3+"        "SrCl+"          "SrOH+"          "SrSO4(aq)"      "AlH3SiO4++"     "Si2O2(OH)5-"    "Si2O3(OH)4--"   "Si3O5(OH)5---"  "Si3O6(OH)3---"  "Si4O12H4----"   "Si4O6(OH)6--"   "Si4O7(OH)6----" "Si4O8(OH)4----" "Si6O15------"   "SiF6--"        
 ZONE I=         200 , J=           1 , K=           1  F=POINT
   8.75000000E+00   5.00000000E-01   5.00000000E-01  -7.80334846E+00  -1.72923305E+01  -3.92910903E+00  -1.29412138E+00  -2.04427465E+00  -4.43022615E+00  -2.17559175E+01  -6.71260119E+00  -5.10351924E+00  -2.62115451E-01  -4.16749363E+00  -1.95205739E+00  -1.00604903E+01  -3.35545513E-01  -1.83620536E+00  -7.74473458E+00  -3.39794256E+00  -5.87617470E+00  -4.40893793E+00  -3.39638117E+00  -1.40879387E+01  -1.45143629E+01  -1.20028501E+01  -1.54547024E+01  -8.92604368E+00  -8.30745559E+00  -1.01770503E+01  -1.40673567E+01  -2.33821407E+00  -4.47709414E+00  -3.28619615E+00  -4.11702471E+00  -8.45360141E+00  -3.01337225E+00  -5.74197956E+00  -7.82600213E+00  -7.23723708E+00  -5.32161384E+00  -6.74672607E+00  -1.50297036E+02  -1.08555151E+01  -7.06342718E+00  -1.31502634E+01  -1.31487088E+01  -8.59185780E+00  -3.20740714E+00  -9.73127370E+00  -3.68523772E+00  -6.46861491E+01  -1.36120761E+01  -8.16843455E+00  -1.91232194E+00  -4.61561880E+01  -6.64643434E+00  -7.53891678E+00  -5.03975680E+00  -9.39306895E+00  -8.03143509E+00  -7.90622506E+00  -8.17620657E+00  -9.60614344E+00  -8.49318187E+00  -7.23226153E+00  -6.36338030E+00  -1.21740442E+01  -6.20353017E+00  -1.67145717E+01  -7.43174683E+00  -1.04664329E+01  -1.54354509E+01  -1.54356913E+01  -2.09583625E+01  -1.25889262E+01  -2.08499920E+01  -2.08502579E+01  -3.04648648E+01  -3.31732701E+01
   2.62500000E+01   5.00000000E-01   5.00000000E-01  -7.57008558E+00  -1.59873916E+01  -3.71969621E+00  -1.29671432E+00  -2.03628552E+00  -4.09842831E+00  -2.11200060E+01  -6.71275193E+00  -5.10389663E+00  -2.62118395E-01  -4.16749120E+00  -1.95230963E+00  -1.00907954E+01  -3.35345770E-01  -1.83174873E+00  -7.74473675E+00  -3.39794013E+00  -5.89316483E+00  -4.40893551E+00  -3.22181517E+00  -1.38421123E+01  -1.35669579E+01  -1.14460807E+01  -1.43358264E+01  -8.91908433E+00  -8.30093361E+00  -1.03850102E+01  -1.42097928E+01  -2.34415164E+00  -4.69374597E+00  -3.27787968E+00  -4.12743407E+00  -8.60016468E+00  -3.00503831E+00  -5.39563315E+00  -7.49649126E+00  -7.08379542E+00  -4.98601014E+00  -6.91724904E+00  -1.48974174E+02  -1.06828290E+01  -6.85753363E+00  -1.27066549E+01  -1.24011179E+01  -8.33994155E+00  -3.20870972E+00  -9.89592083E+00  -3.68519719E+00  -6.40732414E+01  -1.30510430E+01  -8.34908878E+00  -1.91856373E+00  -4.58812749E+01  -6.65134414E+00  -7.75600861E+00  -4.93482912E+00  -8.85594987E+00  -7.72769618E+00  -7.83568692E+00  -8.17382665E+00  -9.83301631E+00  -8.69630174E+00  -7.22155062E+00  -6.36291474E+00  -1.23230486E+01  -6.19927165E+00  -1.53792129E+01  -7.28790421E+00  -1.05136785E+01  -1.55037557E+01  -1.55040038E+01  -2.10501043E+01  -1.23111655E+01  -2.09423031E+01  -2.09425806E+01  -3.05815259E+01  -3.21419253E+01
   4.37500000E+01   5.00000000E-01   5.00000000E-01  -7.45044699E+00  -1.54975272E+01  -3.62159737E+00  -1.29911955E+00  -2.02847401E+00  -3.91239359E+00  -2.08242836E+01  -6.71294840E+00  -5.10433930E+00  -2.62107642E-01  -4.16747385E+00  -1.95257961E+00  -1.01067321E+01  -3.35149763E-01  -1.82762114E+00  -7.74472399E+00  -3.39792278E+00  -5.90727489E+00  -4.40891816E+00  -3.10812031E+00  -1.37096919E+01  -1.32083808E+01  -1.12520860E+01  -1.39187254E+01  -8.91032555E+00  -8.29412357E+00  -1.04782601E+01  -1.42398329E+01  -2.34859217E+00  -4.79599565E+00  -3.26929482E+00  -4.13697836E+00  -8.63419923E+00  -2.99668927E+00  -5.19472491E+00  -7.31187831E+00  -6.96305094E+00  -4.79596363E+00  -6.97525776E+00  -1.47886736E+02  -1.06085247E+01  -6.76187035E+00  -1.24866344E+01  -1.21290846E+01  -8.20158435E+00  -3.20964303E+00  -9.94781169E+00  -3.68503156E+00  -6.35770649E+01  -1.28524300E+01  -8.41652280E+00  -1.92452721E+00  -4.56089344E+01  -6.65300973E+00  -7.85637793E+00  -4.86056541E+00  -8.57488452E+00  -7.56640169E+00  -7.79392565E+00  -8.16818498E+00  -9.94408169E+00  -8.78478105E+00  -7.20902467E+00  -6.36209565E+00  -1.23595199E+01  -6.19504892E+00  -1.48079522E+01  -7.15284162E+00  -1.04568450E+01  -1.54159047E+01  -1.54161586E+01  -2.09336911E+01  -1.20508242E+01  -2.08264555E+01  -2.08267423E+01  -3.03857154E+01  -3.16237645E+01
   6.12500000E+01   5.00000000E-01   5.00000000E-01  -7.36863922E+00  -1.52463197E+01  -3.55960712E+00  -1.30140866E+00  -2.02083399E+00  -3.78269798E+00  -2.06413846E+01  -6.71315947E+00  -5.10481409E+00  -2.62083761E-01  -4.16744223E+00  -1.95291975E+00  -1.01160870E+01  -3.34958982E-01  -1.82380372E+00  -7.74469696E+00  -3.39789117E+00  -5.91946741E+00  -4.40888654E+00  -3.03507413E+00  -1.36148954E+01  -1.30137820E+01  -1.11475742E+01  -1.37027714E+01  -8.90031599E+00  -8.28700592E+00  -1.05331174E+01  -1.42332133E+01  -2.35209989E+00  -4.86018103E+00  -3.26045056E+00  -4.14568308E+00  -8.63147389E+00  -2.98831767E+00  -5.04984509E+00  -7.18276857E+00  -6.86136268E+00  -4.66205007E+00  -6.99651591E+00  -1.46883000E+02  -1.05646203E+01  -6.70162068E+00  -1.23396039E+01  -1.19835425E+01  -8.10098981E+00  -3.21027308E+00  -9.96277385E+00  -3.68478906E+00  -6.31217853E+01  -1.27429618E+01  -8.44652920E+00  -1.93021390E+00  -4.53391268E+01  -6.65240474E+00  -7.91679643E+00  -4.80390177E+00  -8.38562604E+00  -7.45909299E+00  -7.76828163E+00  -8.16031972E+00  -1.00160827E+01  -8.83493539E+00  -7.19523246E+00  -6.36090357E+00  -1.23591969E+01  -6.19082376E+00  -1.44798950E+01  -7.06190108E+00  -1.04070591E+01  -1.53385966E+01  -1.53388548E+01  -2.08313751E+01  -1.18785933E+01  -2.07247013E+01  -2.07249952E+01  -3.02108766E+01  -3.12954771E+01
   7.87500000E+01   5.00000000E-01   5.00000000E-01  -7.30247942E+00  -1.50782811E+01  -3.51208530E+00  -1.30362204E+00  -2.01335860E+00  -3.68301004E+00  -2.05047704E+01  -6.71337727E+00  -5.10531164E+00  -2.62047330E-01  -4.16739695E+00  -1.95333150E+00  -1.01225257E+01  -3.34772414E-01  -1.82027822E+00  -7.74465627E+00  -3.39784588E+00  -5.93077979E+00  -4.40884125E+00  -2.98761989E+00  -1.35355535E+01  -1.28720243E+01  -1.10657459E+01  -1.35546558E+01  -8.88958357E+00  -8.27958793E+00  -1.05722724E+01  -1.42120874E+01  -2.35519222E+00  -4.90897998E+00  -3.25135777E+00  -4.15357865E+00  -8.61414902E+00  -2.97992462E+00  -4.93467915E+00  -7.08286563E+00  -6.77457426E+00  -4.55794705E+00  -7.00317699E+00  -1.45918477E+02  -1.05326246E+01  -6.65565684E+00  -1.22222662E+01  -1.18755301E+01  -8.01597585E+00  -3.21061848E+00  -9.96297710E+00  -3.68447198E+00  -6.26851859E+01  -1.26558557E+01  -8.46129007E+00  -1.93562753E+00  -4.50718164E+01  -6.65058562E+00  -7.96050506E+00  -4.76121472E+00  -8.24071205E+00  -7.38048837E+00  -7.75565870E+00  -8.15129677E+00  -1.00722204E+01  -8.86945323E+00  -7.18070254E+00  -6.35934638E+00  -1.23442354E+01  -6.18659194E+00  -1.42466318E+01  -7.00714084E+00  -1.03785505E+01  -1.52931799E+01  -1.52934408E+01  -2.07716152E+01  -1.17785936E+01  -2.06654991E+01  -2.06657983E+01  -3.00997264E+01  -3.10533552E+01
   9.62500000E+01   5.00000000E-01   5.00000000E-01  -7.24590463E+00  -1.49608768E+01  -3.47313490E+00  -1.30578296E+00  -2.00604113E+00  -3.60217427E+00  -2.03962601E+01  -6.71360029E+00  -5.10582916E+00  -2.61998905E-01  -4.16733854E+00  -1.95379035E+00  -1.01270697E+01  -3.34587698E-01  -1.81702725E+00  -7.74460246E+00  -3.39778748E+00  -5.94150860E+00  -4.40878285E+00  -2.95495682E+00  -1.34656176E+01  -1.27626861E+01  -1.09982784E+01  -1.34479046E+01  -8.87828647E+00  -8.27188426E+00  -1.06019271E+01  -1.41824964E+01  -2.35800984E+00  -4.94857312E+00  -3.24202807E+00  -4.16069702E+00  -8.58826655E+00  -2.97151499E+00  -4.83808907E+00  -7.00105036E+00  -6.69758646E+00  -4.47251165E+00  -7.00127539E+00  -1.44980926E+02  -1.05075231E+01  -6.61823113E+00  -1.21228250E+01  -1.17906829E+01  -7.94048192E+00  -3.21067290E+00  -9.95444706E+00  -3.68405888E+00  -6.22611735E+01  -1.25828050E+01  -8.46686715E+00  -1.94077250E+00  -4.48069691E+01  -6.64787095E+00  -7.99388581E+00  -4.72756188E+00  -8.12323752E+00  -7.31974484E+00  -7.75127833E+00  -8.14141605E+00  -1.01188329E+01  -8.89453544E+00  -7.16559383E+00  -6.35743947E+00  -1.23206796E+01  -6.18235987E+00  -1.40708438E+01  -6.97300946E+00  -1.03618179E+01  -1.52654045E+01  -1.52656671E+01  -2.07354094E+01  -1.17197254E+01  -2.06298467E+01  -2.06301495E+01  -3.00237750E+01  -3.08624221E+01
   1.13750000E+02   5.00000000E-01   5.00000000E-01  -7.19571925E+00  -1.48789390E+01  -3.43967803E+00  -1.30791166E+00  -1.99887532E+00  -3.53429556E+00  -2.03062744E+01  -6.71382798E+00  -5.10636489E+00  -2.61939004E-01  -4.16726754E+00  -1.95427102E+00  -1.01303309E+01  -3.34402410E-01  -1.81403469E+00  -7.74453605E+00  -3.39771647E+00  -5.95185249E+00  -4.40871184E+00  -2.93024442E+00  -1.34019056E+01  -1.26769781E+01  -1.09427475E+01  -1.33705428E+01  -8.86653575E+00  -8.26391002E+00  -1.06253701E+01  -1.41476161E+01  -2.36064599E+00  -4.98222705E+00  -3.23247290E+00  -4.16706929E+00  -8.55700199E+00  -2.96309451E+00  -4.75419654E+00  -6.93146275E+00  -6.62769330E+00  -4.39986169E+00  -6.99397916E+00  -1.44063841E+02  -1.04867574E+01  -6.58636469E+00  -1.20351192E+01  -1.17234017E+01  -7.87131542E+00  -3.21042860E+00  -9.94034170E+00  -3.68352818E+00  -6.18465225E+01  -1.25214009E+01  -8.46645466E+00  -1.94565367E+00  -4.45445519E+01  -6.64448101E+00  -8.02035472E+00  -4.70034618E+00  -8.02432684E+00  -7.27118175E+00  -7.75265675E+00  -8.13087766E+00  -1.01592936E+01  -8.91346923E+00  -7.15001810E+00  -6.35519870E+00  -1.22917079E+01  -6.17813547E+00  -1.39336732E+01  -6.94900866E+00  -1.03495462E+01  -1.52442992E+01  -1.52445624E+01  -2.07081277E+01  -1.16809951E+01  -2.06031140E+01  -2.06034190E+01  -2.99610875E+01  -3.07031271E+01
   1.31250000E+02   5.00000000E-01   5.00000000E-01  -7.14968684E+00  -1.48207893E+01  -3.40959458E+00  -1.31002442E+00  -1.99185535E+00  -3.47586099E+00  -2.02281114E+01  -6.71406003E+00  -5.10691728E+00  -2.61868106E-01  -4.16718441E+00  -1.95475521E+00  -1.01328172E+01  -3.34214745E-01  -1.81128535E+00  -7.74445751E+00  -3.39763334E+00  -5.96200810E+00  -4.40862871E+00  -2.90952440E+00  -1.33421939E+01  -1.26076827E+01  -1.08963835E+01  -1.33131261E+01  -8.85444137E+00  -8.25567987E+00  -1.06449305E+01  -1.41096638E+01  -2.36319344E+00  -5.01224950E+00  -3.22270339E+00  -4.17272550E+00  -8.52257239E+00  -2.95466909E+00  -4.67950477E+00  -6.87062359E+00  -6.56361198E+00  -4.33649692E+00  -6.98349815E+00  -1.43162640E+02  -1.04686240E+01  -6.55803518E+00  -1.19549030E+01  -1.16687000E+01  -7.80624305E+00  -3.20988417E+00  -9.92286716E+00  -3.68286546E+00  -6.14389668E+01  -1.24688885E+01  -8.46228801E+00  -1.95027655E+00  -4.42845322E+01  -6.64063333E+00  -8.04236574E+00  -4.67839264E+00  -7.93844326E+00  -7.23149825E+00  -7.75873072E+00  -8.11988542E+00  -1.01960152E+01  -8.92858218E+00  -7.13408595E+00  -6.35263941E+00  -1.22595401E+01  -6.17392670E+00  -1.38216761E+01  -6.92944556E+00  -1.03382665E+01  -1.52246620E+01  -1.52249252E+01  -2.06828327E+01  -1.16510195E+01  -2.05783635E+01  -2.05786696E+01  -2.99012669E+01  -3.05626353E+01
   1.48750000E+02   5.00000000E-01   5.00000000E-01  -7.10634354E+00  -1.47781577E+01  -3.38151985E+00  -1.31213248E+00  -1.98497573E+00  -3.42462041E+00  -2.01573869E+01  -6.71429631E+00  -5.10748502E+00  -2.61786651E-01  -4.16708959E+00  -1.95523132E+00  -1.01348963E+01  -3.34023575E-01  -1.80876478E+00  -7.74436729E+00  -3.39753852E+00  -5.97213784E+00  -4.40853389E+00  -2.89065113E+00  -1.32850312E+01  -1.25494454E+01  -1.08567351E+01  -1.32688456E+01  -8.84209645E+00  -8.24720806E+00  -1.06621483E+01  -1.40700849E+01  -2.36572863E+00  -5.04016008E+00  -3.21273033E+00  -4.17769469E+00  -8.48642297E+00  -2.94624472E+00  -4.61177897E+00  -6.81631503E+00  -6.50455003E+00  -4.28017952E+00  -6.97127060E+00  -1.42274287E+02  -1.04520503E+01  -6.53195797E+00  -1.18794402E+01  -1.16226823E+01  -7.74380412E+00  -3.20904418E+00  -9.90346400E+00  -3.68206303E+00  -6.10370132E+01  -1.24228319E+01  -8.45583058E+00  -1.95464729E+00  -4.40268780E+01  -6.63651059E+00  -8.06156525E+00  -4.66099976E+00  -7.86205066E+00  -7.19862167E+00  -7.76889245E+00  -8.10861442E+00  -1.02306044E+01  -8.94141316E+00  -7.11789112E+00  -6.34977653E+00  -1.22256240E+01  -6.16974156E+00  -1.37258583E+01  -6.91148016E+00  -1.03265906E+01  -1.52044115E+01  -1.52046741E+01  -2.06567482E+01  -1.16241212E+01  -2.05528187E+01  -2.05531251E+01  -2.98401562E+01  -3.04330112E+01
   1.66250000E+02   5.00000000E-01   5.00000000E-01  -7.06474074E+00  -1.47451642E+01  -3.35458797E+00  -1.31424318E+00  -1.97823131E+00  -3.37904984E+00  -2.00912620E+01  -6.71453682E+00  -5.10806698E+00  -2.61695046E-01  -4.16698348E+00  -1.95569263E+00  -1.01368244E+01  -3.33828281E-01  -1.80645933E+00  -7.74426578E+00  -3.39743241E+00  -5.98237045E+00  -4.40842778E+00  -2.87256626E+00  -1.32294806E+01  -1.24982717E+01  -1.08216816E+01  -1.32327675E+01  -8.82957789E+00  -8.23850838E+00  -1.06780328E+01  -1.40298101E+01  -2.36831237E+00  -5.06694824E+00  -3.20256420E+00  -4.18200487E+00  -8.44948432E+00  -2.93782741E+00  -4.54950991E+00  -6.76704412E+00  -6.44992600E+00  -4.22939752E+00  -6.95822038E+00  -1.41396780E+02  -1.04363671E+01  -6.50732940E+00  -1.18069904E+01  -1.15822977E+01  -7.68305328E+00  -3.20791749E+00  -9.88306277E+00  -3.68111821E+00  -6.06396843E+01  -1.23811252E+01  -8.44803076E+00  -1.95877249E+00  -4.37715583E+01  -6.63226106E+00  -8.07904979E+00  -4.64766088E+00  -7.79282019E+00  -7.17117147E+00  -7.78271094E+00  -8.09720988E+00  -1.02641193E+01  -8.95297016E+00  -7.10151107E+00  -6.34662450E+00  -1.21908929E+01  -6.16558796E+00  -1.36401890E+01  -6.89393189E+00  -1.03142744E+01  -1.51831824E+01  -1.51834442E+01  -2.06293865E+01  -1.15979416E+01  -2.05259918E+01  -2.05262978E+01  -2.97770296E+01  -3.03094648E+01
   1.83750000E+02   5.00000000E-01   5.00000000E-01  -7.02426319E+00  -1.47176002E+01  -3.32825361E+00  -1.31636112E+00  -1.97161723E+00  -3.33807075E+00  -2.00278981E+01  -6.71478166E+00  -5.10866211E+00  -2.61593666E-01  -4.16686647E+00  -1.95613574E+00  -1.01387789E+01  -3.33628579E-01  -1.80435611E+00  -7.74415336E+00  -3.39731540E+00  -5.99280756E+00  -4.40831078E+00  -2.85482535E+00  -1.31749381E+01  -1.24511720E+01  -1.07894410E+01  -1.32012957E+01  -8.81694996E+00  -8.22959410E+00  -1.06932481E+01  -1.39894375E+01  -2.37099348E+00  -5.09325883E+00  -3.19221507E+00  -4.18568295E+00  -8.41235424E+00  -2.92942317E+00  -4.49163310E+00  -6.72176197E+00  -6.39927066E+00  -4.18308404E+00  -6.94493889E+00  -1.40528786E+02  -1.04211587E+01  -6.48365144E+00  -1.17364516E+01  -1.15451672E+01  -7.62337861E+00  -3.20651558E+00  -9.86226420E+00  -3.68003164E+00  -6.02463359E+01  -1.23420008E+01  -8.43950373E+00  -1.96265909E+00  -4.35185421E+01  -6.62800513E+00  -8.09555456E+00  -4.63796900E+00  -7.72917417E+00  -7.14818499E+00  -7.79983962E+00  -8.08579204E+00  -1.02972582E+01  -8.96391574E+00  -7.08501058E+00  -6.34319719E+00  -1.21559470E+01  -6.16147365E+00  -1.35605903E+01  -6.87651479E+00  -1.03016353E+01  -1.51614519E+01  -1.51617125E+01  -2.06013828E+01  -1.15719110E+01  -2.04985182E+01  -2.04988231E+01  -2.97128453E+01  -3.01891505E+01
   2.01250000E+02   5.00000000E-01   5.00000000E-01  -6.98460944E+00  -1.46933646E+01  -3.30226625E+00  -1.31848896E+00  -1.96512887E+00  -3.30089667E+00  -1.99663978E+01  -6.71503104E+00  -5.10926955E+00  -2.61482862E-01  -4.16673891E+00  -1.95655864E+00  -1.01408481E+01  -3.33424342E-01  -1.80244306E+00  -7.74403040E+00  -3.39718784E+00  -6.00351007E+00  -4.40818321E+00  -2.83723798E+00  -1.31211130E+01  -1.24066368E+01  -1.07590847E+01  -1.31726282E+01  -8.80425813E+00  -8.22047800E+00  -1.07081258E+01  -1.39492516E+01  -2.37380258E+00  -5.11940539E+00  -3.18169263E+00  -4.18875481E+00  -8.37531728E+00  -2.92103797E+00  -4.43737549E+00  -6.67971053E+00  -6.35209312E+00  -4.14046398E+00  -6.93170457E+00  -1.39669600E+02  -1.04062334E+01  -6.46069854E+00  -1.16673075E+01  -1.15100782E+01  -7.56448208E+00  -3.20485069E+00  -9.84135690E+00  -3.67880553E+00  -5.98566382E+01  -1.23045442E+01  -8.43055080E+00  -1.96631417E+00  -4.32677995E+01  -6.62382167E+00  -8.11145933E+00  -4.63147673E+00  -7.67009952E+00  -7.12895044E+00  -7.81986891E+00  -8.07444073E+00  -1.03303657E+01  -8.97458042E+00  -7.06843563E+00  -6.33950802E+00  -1.21210733E+01  -6.15740634E+00  -1.34850337E+01  -6.85913744E+00  -1.02888717E+01  -1.51395179E+01  -1.51397775E+01  -2.05731344E+01  -1.15458487E+01  -2.04707946E+01  -2.04710983E+01  -2.96482028E+01  -3.00707291E+01
   2.18750000E+02   5.00000000E-01   5.00000000E-01  -6.94564555E+00  -1.46715396E+01  -3.27653094E+00  -1.32062831E+00  -1.95876185E+00  -3.26693548E+00  -1.99063663E+01  -6.71528526E+00  -5.10988852E+00  -2.61362964E-01  -4.16660112E+00  -1.95696011E+00  -1.01430702E+01  -3.33215509E-01  -1.80070889E+00  -7.74389720E+00  -3.39705005E+00  -6.01451244E+00  -4.40804542E+00  -2.81971831E+00  -1.30678815E+01  -1.23640048E+01  -1.07301981E+01  -1.31459785E+01  -8.79153607E+00  -8.21117237E+00  -1.07228189E+01  -1.39093700E+01  -2.37675908E+00  -5.14552352E+00  -3.17100616E+00  -4.19124523E+00  -8.33849095E+00  -2.91267769E+00  -4.38615772E+00  -6.64032475E+00  -6.30792941E+00  -4.10095620E+00  -6.91862919E+00  -1.38818858E+02  -1.03915158E+01  -6.43838557E+00  -1.15993492E+01  -1.14764990E+01  -7.50623327E+00  -3.20293520E+00  -9.82046296E+00  -3.67744291E+00  -5.94704288E+01  -1.22683542E+01  -8.42130565E+00  -1.96974486E+00  -4.30193007E+01  -6.61976221E+00  -8.12694894E+00  -4.62775185E+00  -7.61491800E+00  -7.11292342E+00  -7.84238907E+00  -8.06320899E+00  -1.03635929E+01  -8.98511591E+00  -7.05182032E+00  -6.33556984E+00  -1.20863915E+01  -6.15339354E+00  -1.34126117E+01  -6.84175020E+00  -1.02760566E+01  -1.51174905E+01  -1.51177491E+01  -2.05447873E+01  -1.15196575E+01  -2.04429674E+01  -2.04432696E+01  -2.95833252E+01  -2.99536334E+01
   2.36250000E+02   5.00000000E-01   5.00000000E-01  -6.90724147E+00  -1.46510938E+01  -3.25095822E+00  -1.32278052E+00  -1.95251199E+00  -3.23572603E+00  -1.98474203E+01  -6.71554456E+00  -5.11051823E+00  -2.61234280E-01  -4.16645341E+00  -1.95733973E+00  -1.01454857E+01  -3.33002069E-01  -1.79914309E+00  -7.74375409E+00  -3.39690234E+00  -6.02585099E+00  -4.40789771E+00  -2.80227266E+00  -1.30151231E+01  -1.23224938E+01  -1.07022382E+01  -1.31204427E+01  -8.77881904E+00  -8.20168882E+00  -1.07374787E+01  -1.38699069E+01  -2.37988481E+00  -5.17174803E+00  -3.16016448E+00  -4.19317787E+00  -8.30198926E+00  -2.90434802E+00  -4.33753072E+00  -6.60316927E+00  -6.26644264E+00  -4.06411010E+00  -6.90582140E+00  -1.37976203E+02  -1.03769364E+01  -6.41663252E+00  -1.15323764E+01  -1.14437731E+01  -7.44850574E+00  -3.20078162E+00  -9.79970157E+00  -3.67594765E+00  -5.90875495E+01  -1.22329008E+01  -8.41189784E+00  -1.97295829E+00  -4.27730165E+01  -6.61587922E+00  -8.14220526E+00  -4.62649108E+00  -7.56308748E+00  -7.09969169E+00  -7.86711864E+00  -8.05215145E+00  -1.03970897E+01  -8.99567209E+00  -7.03520038E+00  -6.33139484E+00  -1.20520177E+01  -6.14944238E+00  -1.33423930E+01  -6.82448417E+00  -1.02634398E+01  -1.50957451E+01  -1.50960030E+01  -2.05168419E+01  -1.14936016E+01  -2.04155365E+01  -2.04158373E+01  -2.95189662E+01  -2.98374015E+01
   2.53750000E+02   5.00000000E-01   5.00000000E-01  -6.86936495E+00  -1.46317862E+01  -3.22554723E+00  -1.32494640E+00  -1.94637533E+00  -3.20690568E+00  -1.97894699E+01  -6.71580925E+00  -5.11115797E+00  -2.61097098E-01  -4.16629606E+00  -1.95769733E+00  -1.01481028E+01  -3.32784012E-01  -1.79773588E+00  -7.74360133E+00  -3.39674499E+00  -6.03754142E+00  -4.40774036E+00  -2.78490659E+00  -1.29628146E+01  -1.22819166E+01  -1.06750625E+01  -1.30958096E+01  -8.76613327E+00  -8.19203844E+00  -1.07521499E+01  -1.38308786E+01  -2.38319310E+00  -5.19810814E+00  -3.14917604E+00  -4.19457535E+00  -8.26582891E+00  -2.89605452E+00  -4.29114336E+00  -6.56790605E+00  -6.22729676E+00  -4.02957323E+00  -6.89329284E+00  -1.37141476E+02  -1.03624899E+01  -6.39543597E+00  -1.14663626E+01  -1.14117412E+01  -7.39127086E+00  -3.19840213E+00  -9.77909457E+00  -3.67432393E+00  -5.87079399E+01  -1.21980533E+01  -8.40235897E+00  -1.97596153E+00  -4.25289183E+01  -6.61220371E+00  -8.15729081E+00  -4.62738299E+00  -7.51424097E+00  -7.08892047E+00  -7.89375573E+00  -8.04130134E+00  -1.04308880E+01  -9.00629243E+00  -7.01860237E+00  -6.32699465E+00  -1.20179706E+01  -6.14555972E+00  -1.32741391E+01  -6.80737139E+00  -1.02510747E+01  -1.50743622E+01  -1.50746197E+01  -2.04894051E+01  -1.14677471E+01  -2.03886089E+01  -2.03889085E+01  -2.94552896E+01  -2.97219595E+01
   2.71250000E+02   5.00000000E-01   5.00000000E-01  -6.83199533E+00  -1.46134649E+01  -3.20030721E+00  -1.32712670E+00  -1.94034808E+00  -3.18018223E+00  -1.97324601E+01  -6.71607960E+00  -5.11180703E+00  -2.60951692E-01  -4.16612934E+00  -1.95803308E+00  -1.01509254E+01  -3.32561327E-01  -1.79647811E+00  -7.74343921E+00  -3.39657827E+00  -6.04959503E+00  -4.40757364E+00  -2.76763146E+00  -1.29109441E+01  -1.22421515E+01  -1.06485713E+01  -1.30719451E+01  -8.75350348E+00  -8.18223175E+00  -1.07668645E+01  -1.37922907E+01  -2.38669649E+00  -5.22462136E+00  -3.13804886E+00  -4.19545927E+00  -8.23001537E+00  -2.88780252E+00  -4.24671435E+00  -6.53426626E+00  -6.19021458E+00  -3.99706313E+00  -6.88104426E+00  -1.36314544E+02  -1.03481780E+01  -6.37479911E+00  -1.14012990E+01  -1.13802983E+01  -7.33451163E+00  -3.19580859E+00  -9.75865271E+00  -3.67257621E+00  -5.83315514E+01  -1.21637237E+01  -8.39270881E+00  -1.97876157E+00  -4.22869777E+01  -6.60876146E+00  -8.17225127E+00  -4.63017366E+00  -7.46808854E+00  -7.08034037E+00  -7.92205231E+00  -8.03068679E+00  -1.04650046E+01  -9.01700776E+00  -7.00205140E+00  -6.32238031E+00  -1.19842574E+01  -6.14175208E+00  -1.32076958E+01  -6.79044415E+00  -1.02390035E+01  -1.50534056E+01  -1.50536633E+01  -2.04625617E+01  -1.14421605E+01  -2.03622695E+01  -2.03625681E+01  -2.93924255E+01  -2.96072833E+01
   2.88750000E+02   5.00000000E-01   5.00000000E-01  -6.79510751E+00  -1.45959330E+01  -3.17524324E+00  -1.32932211E+00  -1.93442668E+00  -3.15531631E+00  -1.96763224E+01  -6.71635586E+00  -5.11246468E+00  -2.60798320E-01  -4.16595349E+00  -1.95834744E+00  -1.01539599E+01  -3.32333998E-01  -1.79536127E+00  -7.74326796E+00  -3.39640242E+00  -6.06202258E+00  -4.40739779E+00  -2.75046606E+00  -1.28594943E+01  -1.22030415E+01  -1.06226388E+01  -1.30486751E+01  -8.74095471E+00  -8.17227869E+00  -1.07816598E+01  -1.37541531E+01  -2.39040851E+00  -5.25131126E+00  -3.12679062E+00  -4.19585027E+00  -8.19455898E+00  -2.87959717E+00  -4.20401464E+00  -6.50203277E+00  -6.15497622E+00  -3.96634974E+00  -6.86908161E+00  -1.35495266E+02  -1.03339995E+01  -6.35471958E+00  -1.13371664E+01  -1.13493082E+01  -7.27820659E+00  -3.19301261E+00  -9.73839163E+00  -3.67070923E+00  -5.79583310E+01  -1.21297971E+01  -8.38297137E+00  -1.98136525E+00  -4.20471671E+01  -6.60557688E+00  -8.18713535E+00  -4.63466704E+00  -7.42438758E+00  -7.07373381E+00  -7.95181653E+00  -8.02033476E+00  -1.04994607E+01  -9.02785407E+00  -6.98557283E+00  -6.31756229E+00  -1.19508902E+01  -6.13802557E+00  -1.31428769E+01  -6.77375433E+00  -1.02272927E+01  -1.50329755E+01  -1.50332340E+01  -2.04364450E+01  -1.14169473E+01  -2.03366513E+01  -2.03369494E+01  -2.93305768E+01  -2.94933365E+01
   3.06250000E+02   5.00000000E-01   5.00000000E-01  -6.75867308E+00  -1.45789603E+01  -3.15035753E+00  -1.33153331E+00  -1.92860775E+00  -3.13210934E+00  -1.96209785E+01  -6.71663825E+00  -5.11313018E+00  -2.60637222E-01  -4.16576875E+00  -1.95864113E+00  -1.01572143E+01  -3.32102013E-01  -1.79437743E+00  -7.74308781E+00  -3.39621768E+00  -6.07483454E+00  -4.40721305E+00  -2.73343466E+00  -1.28084447E+01  -1.21644024E+01  -1.05971197E+01  -1.30257949E+01  -8.72851245E+00  -8.16218866E+00  -1.07965771E+01  -1.37164793E+01  -2.39434372E+00  -5.27820638E+00  -3.11540863E+00  -4.19576805E+00  -8.15947374E+00  -2.87144338E+00  -4.16285543E+00  -6.47102815E+00  -6.12140595E+00  -3.93724334E+00  -6.85741477E+00  -1.34683498E+02  -1.03199507E+01  -6.33519089E+00  -1.12739376E+01  -1.13186113E+01  -7.22233094E+00  -3.19002549E+00  -9.71833072E+00  -3.66872795E+00  -5.75882226E+01  -1.20961385E+01  -8.37317378E+00  -1.98377931E+00  -4.18094589E+01  -6.60267331E+00  -8.20199397E+00  -4.64071175E+00  -7.38293213E+00  -7.06892315E+00  -7.98289978E+00  -8.01027120E+00  -1.05342812E+01  -9.03887144E+00  -6.96919242E+00  -6.31255043E+00  -1.19178844E+01  -6.13438590E+00  -1.30794724E+01  -6.75736825E+00  -1.02160267E+01  -1.50131990E+01  -1.50134591E+01  -2.04112241E+01  -1.13922419E+01  -2.03119235E+01  -2.03122216E+01  -2.92700001E+01  -2.93800728E+01
   3.23750000E+02   5.00000000E-01   5.00000000E-01  -6.72266394E+00  -1.45623158E+01  -3.12565263E+00  -1.33376095E+00  -1.92288811E+00  -3.11039478E+00  -1.95663510E+01  -6.71692695E+00  -5.11380277E+00  -2.60468631E-01  -4.16557533E+00  -1.95891511E+00  -1.01606971E+01  -3.31865356E-01  -1.79351915E+00  -7.74289899E+00  -3.39602426E+00  -6.08804043E+00  -4.40701963E+00  -2.71656385E+00  -1.27577742E+01  -1.21260492E+01  -1.05718676E+01  -1.30030993E+01  -8.71620225E+00  -8.15197053E+00  -1.08116579E+01  -1.36792829E+01  -2.39851742E+00  -5.30533629E+00  -3.10390988E+00  -4.19523142E+00  -8.12477377E+00  -2.86334583E+00  -4.12307943E+00  -6.44110594E+00  -6.08935983E+00  -3.90958581E+00  -6.84605400E+00  -1.33879096E+02  -1.03060285E+01  -6.31620538E+00  -1.12115843E+01  -1.12880468E+01  -7.16686015E+00  -3.18685821E+00  -9.69848945E+00  -3.66663746E+00  -5.72211707E+01  -1.20626113E+01  -8.36334268E+00  -1.98601030E+00  -4.15738262E+01  -6.60007244E+00  -8.21687606E+00  -4.64818851E+00  -7.34354715E+00  -7.06576136E+00  -8.01518378E+00  -8.00052051E+00  -1.05694902E+01  -9.05010016E+00  -6.95293598E+00  -6.30735407E+00  -1.18852551E+01  -6.13083835E+00  -1.30172751E+01  -6.74135688E+00  -1.02052946E+01  -1.49942101E+01  -1.49944726E+01  -2.03870774E+01  -1.13681882E+01  -2.02882643E+01  -2.02885631E+01  -2.92109656E+01  -2.92674473E+01
   3.41250000E+02   5.00000000E-01   5.00000000E-01  -6.68705591E+00  -1.45458023E+01  -3.10113462E+00  -1.33600562E+00  -1.91726474E+00  -3.09003163E+00  -1.95123742E+01  -6.71722211E+00  -5.11448169E+00  -2.60292763E-01  -4.16537344E+00  -1.95917049E+00  -1.01644160E+01  -3.31624014E-01  -1.79277949E+00  -7.74270170E+00  -3.39582237E+00  -6.10164789E+00  -4.40681774E+00  -2.69987914E+00  -1.27074653E+01  -1.20878227E+01  -1.05467546E+01  -1.29804124E+01  -8.70404933E+00  -8.14163266E+00  -1.08269399E+01  -1.36425739E+01  -2.40294510E+00  -5.33272740E+00  -3.09230102E+00  -4.19425836E+00  -8.09046964E+00  -2.85530899E+00  -4.08455443E+00  -6.41214424E+00  -6.05871560E+00  -3.88324414E+00  -6.83500628E+00  -1.33081928E+02  -1.02922318E+01  -6.29775691E+00  -1.11500831E+01  -1.12574756E+01  -7.11177352E+00  -3.18352143E+00  -9.67888368E+00  -3.66444292E+00  -5.68571235E+01  -1.20290969E+01  -8.35350063E+00  -1.98806465E+00  -4.13402425E+01  -6.59779335E+00  -8.23182399E+00  -4.65699945E+00  -7.30608467E+00  -7.06412459E+00  -8.04856946E+00  -7.99110448E+00  -1.06051066E+01  -9.06157656E+00  -6.93682892E+00  -6.30198201E+00  -1.18530142E+01  -6.12738781E+00  -1.29561067E+01  -6.72578536E+00  -1.01951758E+01  -1.49761285E+01  -1.49763942E+01  -2.03641640E+01  -1.13449179E+01  -2.02658330E+01  -2.02661332E+01  -2.91537148E+01  -2.91554280E+01