 TITLE = "Total Concentrations" 
VARIABLES = "X"          "Y"              "Z"            "H+"             "Al+++"          "CO2(aq)"        "Mg++"           "Ca++"           "Fe++"           "Fe+++"          "Ba++"           "Sr++"           "Cl-"            "F-"             "K+"             "HS-"            "Na+"            "SO4--"          "O2(aq)"         "B(OH)3(aq)"     "HPO4--"         "NO3-"           "H4SiO4(aq)"     "HNO3(aq)"       "Al(OH)2+"       "AlO2-"          "AlOH++"         "BaHCO3+"        "BaCl+"          "BaCO3(aq)"      "BaOH+"          "HCO3-"          "CO3--"          "CaCl+"          "CaCl2(aq)"      "CaOH+"          "CaSO4(aq)"      "FeCl+"          "FeCl2(aq)"      "FeOH+"          "FeSO4(aq)"      "OH-"            "S2O3--"         "H2S(aq)"        "H2PO4-"         "H3PO4(aq)"      "HAlO2(aq)"      "HSO4-"          "KCl(aq)"        "KOH(aq)"        "KSO4-"          "NH3(aq)"        "NaAlO2(aq)"     "NaOH(aq)"       "NaSO4-"         "H2(aq)"         "CaHPO4(aq)"     "CaPO4-"         "FeCO3(aq)"      "FeH2PO4+"       "FeHPO4(aq)"     "FePO4-"         "KHPO4-"         "PO4---"         "Sr(CO3)(aq)"    "SrHCO3+"        "SrCl+"          "SrOH+"          "SrSO4(aq)"      "AlH3SiO4++"     "Si2O2(OH)5-"    "Si2O3(OH)4--"   "Si3O5(OH)5---"  "Si3O6(OH)3---"  "Si4O12H4----"   "Si4O6(OH)6--"   "Si4O7(OH)6----" "Si4O8(OH)4----" "Si6O15------"   "SiF6--"        
 ZONE I=         200 , J=           1 , K=           1  F=POINT
   8.75000000E+00   5.00000000E-01   5.00000000E-01  -7.85158885E+00  -1.76934192E+01  -3.97665851E+00  -1.29408534E+00  -2.04414120E+00  -4.43872713E+00  -2.18997322E+01  -6.71262235E+00  -5.10354087E+00  -2.62115636E-01  -4.16749363E+00  -1.95200054E+00  -1.00540895E+01  -3.35544776E-01  -1.83620568E+00  -7.74473464E+00  -3.39794256E+00  -5.87499054E+00  -4.40893793E+00  -3.37708360E+00  -1.41361832E+01  -1.48189762E+01  -1.22109831E+01  -1.58075524E+01  -8.92537577E+00  -8.30748281E+00  -1.01281460E+01  -1.40191421E+01  -2.33751986E+00  -4.42815473E+00  -3.28606754E+00  -4.11690153E+00  -8.40523100E+00  -3.01325281E+00  -5.75048538E+00  -7.83451338E+00  -7.19750110E+00  -5.33012882E+00  -6.69848480E+00  -1.50393530E+02  -1.08973584E+01  -7.11048915E+00  -1.32455690E+01  -1.34050858E+01  -8.64010393E+00  -3.20735640E+00  -9.68298116E+00  -3.68518849E+00  -6.47343991E+01  -1.38202131E+01  -8.12019739E+00  -1.91232855E+00  -4.61561922E+01  -6.64513042E+00  -7.48936885E+00  -4.99933112E+00  -9.44863582E+00  -8.03876559E+00  -7.86531155E+00  -8.17497287E+00  -9.55670926E+00  -8.44427806E+00  -7.23159408E+00  -6.36340798E+00  -1.21258301E+01  -6.20356701E+00  -1.70481213E+01  -7.34490486E+00  -1.03313464E+01  -1.52328148E+01  -1.52330552E+01  -2.06881911E+01  -1.24152389E+01  -2.05798206E+01  -2.05800864E+01  -3.00595599E+01  -3.33469316E+01
   2.62500000E+01   5.00000000E-01   5.00000000E-01  -7.58995520E+00  -1.61558466E+01  -3.73891860E+00  -1.29674193E+00  -2.03602397E+00  -4.10028810E+00  -2.11787123E+01  -6.71276009E+00  -5.10390451E+00  -2.62118763E-01  -4.16749120E+00  -1.95225184E+00  -1.00867295E+01  -3.35344160E-01  -1.83175695E+00  -7.74473686E+00  -3.39794013E+00  -5.89194503E+00  -4.40893551E+00  -3.20660302E+00  -1.38619836E+01  -1.36956759E+01  -1.15350595E+01  -1.44844124E+01  -8.91844601E+00  -8.30094451E+00  -1.03645039E+01  -1.41899332E+01  -2.34350308E+00  -4.67322584E+00  -3.27762039E+00  -4.12717727E+00  -8.58003491E+00  -3.00479053E+00  -5.39749521E+00  -7.49835580E+00  -7.06578699E+00  -4.98788370E+00  -6.89737907E+00  -1.49013935E+02  -1.06986342E+01  -6.87618578E+00  -1.27451780E+01  -1.25099678E+01  -8.35982158E+00  -3.20865470E+00  -9.87599533E+00  -3.68515058E+00  -6.40931147E+01  -1.31400222E+01  -8.32921916E+00  -1.91857319E+00  -4.58812766E+01  -6.64986835E+00  -7.73466173E+00  -4.91617395E+00  -8.87646341E+00  -7.72834173E+00  -7.81646138E+00  -8.17255202E+00  -9.81192298E+00  -8.67579516E+00  -7.22091202E+00  -6.36292537E+00  -1.23031887E+01  -6.19929379E+00  -1.55125856E+01  -7.23760767E+00  -1.04435107E+01  -1.53985014E+01  -1.53987495E+01  -2.09097692E+01  -1.22105710E+01  -2.08019680E+01  -2.08022456E+01  -3.03710040E+01  -3.22061906E+01
   4.37500000E+01   5.00000000E-01   5.00000000E-01  -7.46269629E+00  -1.56048618E+01  -3.63331512E+00  -1.29919183E+00  -2.02808786E+00  -3.91304891E+00  -2.08601304E+01  -6.71295378E+00  -5.10434403E+00  -2.62108191E-01  -4.16747385E+00  -1.95251055E+00  -1.01036941E+01  -3.35147301E-01  -1.82763561E+00  -7.74472416E+00  -3.39792278E+00  -5.90628127E+00  -4.40891816E+00  -3.09306743E+00  -1.37219419E+01  -1.32912177E+01  -1.13104244E+01  -1.40138110E+01  -8.90979971E+00  -8.29413052E+00  -1.04654856E+01  -1.42275897E+01  -2.34806005E+00  -4.78321340E+00  -3.26891002E+00  -4.13659501E+00  -8.62156437E+00  -2.99631995E+00  -5.19538159E+00  -7.31253643E+00  -6.95145756E+00  -4.79663578E+00  -6.96300831E+00  -1.47911265E+02  -1.06177367E+01  -6.77312703E+00  -1.25101410E+01  -1.21996729E+01  -8.21384905E+00  -3.20957554E+00  -9.93549414E+00  -3.68497823E+00  -6.35893156E+01  -1.29107668E+01  -8.40427172E+00  -1.92454044E+00  -4.56089350E+01  -6.65163232E+00  -7.84275061E+00  -4.84844068E+00  -8.58679719E+00  -7.56606576E+00  -7.78133980E+00  -8.16712356E+00  -9.93083711E+00  -8.77200595E+00  -7.20849817E+00  -6.36210195E+00  -1.23472761E+01  -6.19507070E+00  -1.48879844E+01  -7.11048545E+00  -1.04022388E+01  -1.53339943E+01  -1.53342482E+01  -2.08244789E+01  -1.19661113E+01  -2.07172434E+01  -2.07175302E+01  -3.02218890E+01  -3.16577083E+01
   6.12500000E+01   5.00000000E-01   5.00000000E-01  -7.37917341E+00  -1.53415800E+01  -3.56960231E+00  -1.30151612E+00  -2.02032676E+00  -3.78305497E+00  -2.06720867E+01  -6.71316447E+00  -5.10481815E+00  -2.62084490E-01  -4.16744223E+00  -1.95283488E+00  -1.01131665E+01  -3.34955780E-01  -1.82382374E+00  -7.74469720E+00  -3.39789117E+00  -5.91846620E+00  -4.40888654E+00  -3.01906238E+00  -1.36254299E+01  -1.30879743E+01  -1.12006981E+01  -1.37874975E+01  -8.89978214E+00  -8.28701214E+00  -1.05220497E+01  -1.42226845E+01  -2.35156062E+00  -4.84910718E+00  -3.25994445E+00  -4.14517812E+00  -8.62043276E+00  -2.98783159E+00  -5.05020319E+00  -7.18312784E+00  -6.85118577E+00  -4.66242821E+00  -6.98598165E+00  -1.46904109E+02  -1.05722342E+01  -6.71115413E+00  -1.23596718E+01  -1.20472010E+01  -8.11154446E+00  -3.21018942E+00  -9.95215519E+00  -3.68472481E+00  -6.31323198E+01  -1.27960829E+01  -8.43599214E+00  -1.93023130E+00  -4.53391271E+01  -6.65089744E+00  -7.90475464E+00  -4.79318596E+00  -8.39551680E+00  -7.45844990E+00  -7.75710406E+00  -8.15923424E+00  -1.00045465E+01  -8.82386676E+00  -7.19469767E+00  -6.36090885E+00  -1.23486672E+01  -6.19084907E+00  -1.45486092E+01  -7.01934286E+00  -1.03539664E+01  -1.52589570E+01  -1.52592151E+01  -2.07251897E+01  -1.17934766E+01  -2.06185159E+01  -2.06188099E+01  -3.00515946E+01  -3.13216018E+01
   7.87500000E+01   5.00000000E-01   5.00000000E-01  -7.31217397E+00  -1.51685120E+01  -3.52121936E+00  -1.30376277E+00  -2.01273382E+00  -3.68322000E+00  -2.05329540E+01  -6.71338225E+00  -5.10531541E+00  -2.62048237E-01  -4.16739695E+00  -1.95323171E+00  -1.01196097E+01  -3.34768687E-01  -1.82030360E+00  -7.74465656E+00  -3.39784588E+00  -5.92974370E+00  -4.40884125E+00  -2.97061150E+00  -1.35452482E+01  -1.29428662E+01  -1.11171987E+01  -1.36351922E+01  -8.88902809E+00  -8.27959392E+00  -1.05620224E+01  -1.42023979E+01  -2.35463167E+00  -4.89872479E+00  -3.25073398E+00  -4.15295586E+00  -8.60382975E+00  -2.97932547E+00  -4.93489010E+00  -7.08307758E+00  -6.76508974E+00  -4.55818264E+00  -6.99348242E+00  -1.45937917E+02  -1.05394033E+01  -6.66431541E+00  -1.22406194E+01  -1.19366775E+01  -8.02569589E+00  -3.21051970E+00  -9.95318284E+00  -3.68439771E+00  -6.26948801E+01  -1.27073049E+01  -8.45159186E+00  -1.93564932E+00  -4.50718163E+01  -6.64892500E+00  -7.94914983E+00  -4.75116972E+00  -8.24958065E+00  -7.37966249E+00  -7.74513821E+00  -8.15016102E+00  -1.00614896E+01  -8.85920206E+00  -7.18014584E+00  -6.35935115E+00  -1.23345447E+01  -6.18662136E+00  -1.43101597E+01  -6.96342939E+00  -1.03251444E+01  -1.52130706E+01  -1.52133315E+01  -2.06648031E+01  -1.16911707E+01  -2.05586869E+01  -2.05589861E+01  -2.99395073E+01  -3.10751249E+01
   9.62500000E+01   5.00000000E-01   5.00000000E-01  -7.25483614E+00  -1.50461356E+01  -3.48149654E+00  -1.30595595E+00  -2.00530222E+00  -3.60228227E+00  -2.04221550E+01  -6.71360524E+00  -5.10583262E+00  -2.61999986E-01  -4.16733854E+00  -1.95367853E+00  -1.01241972E+01  -3.34583767E-01  -1.81705789E+00  -7.74460281E+00  -3.39778748E+00  -5.94046270E+00  -4.40878285E+00  -2.93726654E+00  -1.34745490E+01  -1.28300816E+01  -1.10478108E+01  -1.35242317E+01  -8.87772148E+00  -8.27189004E+00  -1.05924304E+01  -1.41735696E+01  -2.35744011E+00  -4.93907209E+00  -3.24129004E+00  -4.15995985E+00  -8.57859599E+00  -2.97080614E+00  -4.83819795E+00  -7.00116010E+00  -6.68876280E+00  -4.47264970E+00  -6.99234392E+00  -1.44998849E+02  -1.05135819E+01  -6.62611649E+00  -1.21396417E+01  -1.18491467E+01  -7.94944384E+00  -3.21056190E+00  -9.94540353E+00  -3.68397739E+00  -6.22701039E+01  -1.26323333E+01  -8.45793154E+00  -1.94079891E+00  -4.48069688E+01  -6.64608556E+00  -7.98316907E+00  -4.71816830E+00  -8.13123072E+00  -7.31880635E+00  -7.74140849E+00  -8.14025802E+00  -1.01088559E+01  -8.88503727E+00  -7.16502734E+00  -6.35744376E+00  -1.23117514E+01  -6.18239333E+00  -1.41294808E+01  -6.92869767E+00  -1.03085748E+01  -1.51855401E+01  -1.51858026E+01  -2.06289231E+01  -1.16311020E+01  -2.05233604E+01  -2.05236632E+01  -2.98640475E+01  -3.08804579E+01
   1.13750000E+02   5.00000000E-01   5.00000000E-01  -7.20404357E+00  -1.49598754E+01  -3.44742482E+00  -1.30811550E+00  -1.99802557E+00  -3.53433659E+00  -2.03303481E+01  -6.71383296E+00  -5.10636808E+00  -2.61940259E-01  -4.16726754E+00  -1.95414979E+00  -1.01274959E+01  -3.34398583E-01  -1.81407045E+00  -7.74453646E+00  -3.39771647E+00  -5.95080087E+00  -4.40871184E+00  -2.91219395E+00  -1.34102295E+01  -1.27412654E+01  -1.09903861E+01  -1.34431547E+01  -8.86596301E+00  -8.26391569E+00  -1.06164727E+01  -1.41392963E+01  -2.36006877E+00  -4.97332596E+00  -3.23162396E+00  -4.16622111E+00  -8.54782757E+00  -2.96227922E+00  -4.75423839E+00  -6.93150536E+00  -6.61940968E+00  -4.39993718E+00  -6.98565491E+00  -1.44080559E+02  -1.04922464E+01  -6.59363685E+00  -1.20507154E+01  -1.17793642E+01  -7.87967500E+00  -3.21030808E+00  -9.93189571E+00  -3.68344203E+00  -6.18548451E+01  -1.25690352E+01  -8.45812613E+00  -1.94568494E+00  -4.45445513E+01  -6.64257834E+00  -8.01012806E+00  -4.69148491E+00  -8.03163966E+00  -7.27016986E+00  -7.74332088E+00  -8.12970413E+00  -1.01499186E+01  -8.90457001E+00  -7.14944358E+00  -6.35520260E+00  -1.22833863E+01  -6.17817302E+00  -1.39882349E+01  -6.90458401E+00  -1.02967976E+01  -1.51651769E+01  -1.51654402E+01  -2.06026304E+01  -1.15921461E+01  -2.04976167E+01  -2.04979217E+01  -2.98028460E+01  -3.07183742E+01
   1.31250000E+02   5.00000000E-01   5.00000000E-01  -7.15760826E+00  -1.48986159E+01  -3.41692374E+00  -1.31025776E+00  -1.99089789E+00  -3.47586357E+00  -2.02509767E+01  -6.71406513E+00  -5.10692032E+00  -2.61869534E-01  -4.16718441E+00  -1.95462634E+00  -1.01299819E+01  -3.34211240E-01  -1.81132613E+00  -7.74445798E+00  -3.39763334E+00  -5.96093683E+00  -4.40862871E+00  -2.89133546E+00  -1.33501148E+01  -1.26696657E+01  -1.09425236E+01  -1.33830310E+01  -8.85385395E+00  -8.25568560E+00  -1.06364211E+01  -1.41017468E+01  -2.36260162E+00  -5.00373692E+00  -3.22174672E+00  -4.17176956E+00  -8.51369303E+00  -2.95375056E+00  -4.67950814E+00  -6.87062768E+00  -6.55569267E+00  -4.33653842E+00  -6.97557684E+00  -1.43178561E+02  -1.04737096E+01  -6.56488454E+00  -1.19696733E+01  -1.17227610E+01  -7.81420452E+00  -3.20975593E+00  -9.91481623E+00  -3.68277638E+00  -6.14468859E+01  -1.25150245E+01  -8.45436255E+00  -1.95031288E+00  -4.42845313E+01  -6.63860274E+00  -8.03241421E+00  -4.66988090E+00  -7.94529467E+00  -7.23042769E+00  -7.74973922E+00  -8.11868428E+00  -1.01870239E+01  -8.92007074E+00  -7.13349648E+00  -6.35264309E+00  -1.22516211E+01  -6.17396851E+00  -1.38733925E+01  -6.88514715E+00  -1.02860473E+01  -1.51463340E+01  -1.51465972E+01  -2.05783940E+01  -1.15624231E+01  -2.04739247E+01  -2.04742309E+01  -2.97446154E+01  -3.05761324E+01
   1.48750000E+02   5.00000000E-01   5.00000000E-01  -7.11404566E+00  -1.48541238E+01  -3.38860465E+00  -1.31239442E+00  -1.98391357E+00  -3.42460614E+00  -2.01795944E+01  -6.71430165E+00  -5.10748804E+00  -2.61788252E-01  -4.16708959E+00  -1.95509575E+00  -1.01320165E+01  -3.34020511E-01  -1.80881054E+00  -7.74436782E+00  -3.39753852E+00  -5.97102617E+00  -4.40853389E+00  -2.87243970E+00  -1.32927326E+01  -1.26100064E+01  -1.09018918E+01  -1.33371093E+01  -8.84148415E+00  -8.24721401E+00  -1.06538332E+01  -1.40623873E+01  -2.36511185E+00  -5.03184199E+00  -3.21166900E+00  -4.17663409E+00  -8.47765811E+00  -2.94522603E+00  -4.61176552E+00  -6.81630231E+00  -6.49683305E+00  -4.28020871E+00  -6.96356861E+00  -1.42289779E+02  -1.04568720E+01  -6.53854745E+00  -1.18937312E+01  -1.16755404E+01  -7.75155109E+00  -3.20890923E+00  -9.89562552E+00  -3.68197199E+00  -6.10447127E+01  -1.24679847E+01  -8.44812473E+00  -1.95468880E+00  -4.40268771E+01  -6.63433446E+00  -8.05168760E+00  -4.65266525E+00  -7.86862521E+00  -7.19749343E+00  -7.76006268E+00  -8.10736595E+00  -1.02217922E+01  -8.93309575E+00  -7.11727650E+00  -6.34978017E+00  -1.22179241E+01  -6.16978784E+00  -1.37759111E+01  -6.86735626E+00  -1.02747653E+01  -1.51266745E+01  -1.51269372E+01  -2.05530973E+01  -1.15358740E+01  -2.04491678E+01  -2.04494742E+01  -2.96846879E+01  -3.04456087E+01
   1.66250000E+02   5.00000000E-01   5.00000000E-01  -7.07236075E+00  -1.48202969E+01  -3.36155520E+00  -1.31453323E+00  -1.97706733E+00  -3.37903458E+00  -2.01132234E+01  -6.71454251E+00  -5.10807010E+00  -2.61696820E-01  -4.16698348E+00  -1.95555084E+00  -1.01338624E+01  -3.33825700E-01  -1.80651005E+00  -7.74426637E+00  -3.39743241E+00  -5.98119756E+00  -4.40842778E+00  -2.85437177E+00  -1.32370998E+01  -1.25581633E+01  -1.08663331E+01  -1.33002798E+01  -8.82893045E+00  -8.23851472E+00  -1.06697646E+01  -1.40221949E+01  -2.36766022E+00  -5.05867701E+00  -3.20140110E+00  -4.18084255E+00  -8.44069966E+00  -2.93671153E+00  -4.54949553E+00  -6.76703052E+00  -6.44229007E+00  -4.22943035E+00  -6.95060053E+00  -1.41412118E+02  -1.04410244E+01  -6.51377541E+00  -1.18210558E+01  -1.16345685E+01  -7.69072297E+00  -3.20777634E+00  -9.87530006E+00  -3.68102572E+00  -6.06473013E+01  -1.24257731E+01  -8.44040741E+00  -1.95881928E+00  -4.37715572E+01  -6.62992157E+00  -8.06909097E+00  -4.63937194E+00  -7.79925020E+00  -7.16998070E+00  -7.77390085E+00  -8.09589379E+00  -1.02553282E+01  -8.94469936E+00  -7.10086105E+00  -6.34662826E+00  -1.21832751E+01  -6.16563893E+00  -1.36895073E+01  -6.84992412E+00  -1.02626474E+01  -1.51057432E+01  -1.51060050E+01  -2.05261322E+01  -1.15099267E+01  -2.04227376E+01  -2.04230435E+01  -2.96221575E+01  -3.03217509E+01
   1.83750000E+02   5.00000000E-01   5.00000000E-01  -7.03188951E+00  -1.47926178E+01  -3.33518272E+00  -1.31667916E+00  -1.97035416E+00  -3.33806614E+00  -2.00498785E+01  -6.71478780E+00  -5.10866544E+00  -2.61595617E-01  -4.16686647E+00  -1.95598798E+00  -1.01357075E+01  -3.33626476E-01  -1.80441182E+00  -7.74415401E+00  -3.39731540E+00  -5.99155581E+00  -4.40831078E+00  -2.83664452E+00  -1.31825636E+01  -1.25109358E+01  -1.08339521E+01  -1.32686867E+01  -8.81625849E+00  -8.22960095E+00  -1.06849294E+01  -1.39818163E+01  -2.37029696E+00  -5.08493700E+00  -3.19095296E+00  -4.18442170E+00  -8.40346411E+00  -2.92821291E+00  -4.49162946E+00  -6.72175919E+00  -6.39163900E+00  -4.18313225E+00  -6.93731274E+00  -1.40544146E+02  -1.04257129E+01  -6.49002480E+00  -1.17504506E+01  -1.15973039E+01  -7.63105948E+00  -3.20636853E+00  -9.85448912E+00  -3.67993804E+00  -6.02539589E+01  -1.23865088E+01  -8.43187447E+00  -1.96271120E+00  -4.35185409E+01  -6.62548742E+00  -8.08541128E+00  -4.62963987E+00  -7.73554209E+00  -7.14692574E+00  -7.79095480E+00  -8.08439099E+00  -1.02883822E+01  -8.95559429E+00  -7.08431630E+00  -6.34320123E+00  -1.21483231E+01  -6.16152953E+00  -1.36098010E+01  -6.83252817E+00  -1.02500232E+01  -1.50840351E+01  -1.50842958E+01  -2.04981584E+01  -1.14839385E+01  -2.03952937E+01  -2.03955987E+01  -2.95580188E+01  -3.02014755E+01
   2.01250000E+02   5.00000000E-01   5.00000000E-01  -6.99230253E+00  -1.47688022E+01  -3.30920948E+00  -1.31883507E+00  -1.96376930E+00  -3.30091221E+00  -1.99885787E+01  -6.71503773E+00  -5.10927320E+00  -2.61484992E-01  -4.16673891E+00  -1.95640515E+00  -1.01376467E+01  -3.33422681E-01  -1.80250380E+00  -7.74403111E+00  -3.39718784E+00  -6.00216371E+00  -4.40818321E+00  -2.81904433E+00  -1.31288052E+01  -1.24666868E+01  -1.08037485E+01  -1.32403723E+01  -8.80351451E+00  -8.22048548E+00  -1.06996881E+01  -1.39415641E+01  -2.37305343E+00  -5.11096425E+00  -3.18033413E+00  -4.18739726E+00  -8.36626382E+00  -2.91973601E+00  -4.43739210E+00  -6.67972809E+00  -6.34441477E+00  -4.14053714E+00  -6.92401166E+00  -1.39685104E+02  -1.04107242E+01  -6.46704397E+00  -1.16813453E+01  -1.15624343E+01  -7.57223467E+00  -3.20469799E+00  -9.83350924E+00  -3.67871110E+00  -5.98643277E+01  -1.23492053E+01  -8.42285514E+00  -1.96637163E+00  -4.32677982E+01  -6.62111262E+00  -8.10105799E+00  -4.62304822E+00  -7.67645959E+00  -7.12761651E+00  -7.81084268E+00  -8.07293921E+00  -1.03213285E+01  -8.96613974E+00  -7.06768897E+00  -6.33951246E+00  -1.21133828E+01  -6.15746733E+00  -1.35345847E+01  -6.81505848E+00  -1.02371006E+01  -1.50618627E+01  -1.50621223E+01  -2.04695918E+01  -1.14576915E+01  -2.03672521E+01  -2.03675558E+01  -2.94929000E+01  -3.00833085E+01
   2.18750000E+02   5.00000000E-01   5.00000000E-01  -6.95345376E+00  -1.47478558E+01  -3.28352826E+00  -1.32100267E+00  -1.95730821E+00  -3.26697981E+00  -1.99288926E+01  -6.71529260E+00  -5.10989262E+00  -2.61365275E-01  -4.16660112E+00  -1.95680112E+00  -1.01397200E+01  -3.33214232E-01  -1.80077470E+00  -7.74389798E+00  -3.39705005E+00  -6.01305588E+00  -4.40804542E+00  -2.80147164E+00  -1.30756887E+01  -1.24247032E+01  -1.07752800E+01  -1.32144861E+01  -8.79073205E+00  -8.21118061E+00  -1.07142057E+01  -1.39015680E+01  -2.37594896E+00  -5.13690635E+00  -3.16955371E+00  -4.18979385E+00  -8.32922825E+00  -2.91128656E+00  -4.38620323E+00  -6.64037133E+00  -6.30016467E+00  -4.10106303E+00  -6.91082117E+00  -1.38834602E+02  -1.03959730E+01  -6.44473582E+00  -1.16135069E+01  -1.15293883E+01  -7.51410598E+00  -3.20277710E+00  -9.81249462E+00  -3.67734796E+00  -5.94782332E+01  -1.23134337E+01  -8.41349520E+00  -1.96980769E+00  -4.30192993E+01  -6.61684870E+00  -8.11622808E+00  -4.61917592E+00  -7.62131163E+00  -7.11150787E+00  -7.83316616E+00  -8.06159166E+00  -1.03543305E+01  -8.97649946E+00  -7.05101307E+00  -6.33557483E+00  -1.20785862E+01  -6.15345985E+00  -1.34628732E+01  -6.79745018E+00  -1.02239494E+01  -1.50393312E+01  -1.50395898E+01  -2.04405725E+01  -1.14310583E+01  -2.03387525E+01  -2.03390548E+01  -2.94270146E+01  -2.99666203E+01
   2.36250000E+02   5.00000000E-01   5.00000000E-01  -6.91519835E+00  -1.47286332E+01  -3.25803517E+00  -1.32318339E+00  -1.95096659E+00  -3.23580703E+00  -1.98703927E+01  -6.71555266E+00  -5.11052291E+00  -2.61236774E-01  -4.16645341E+00  -1.95717556E+00  -1.01419721E+01  -3.33001106E-01  -1.79921403E+00  -7.74375492E+00  -3.39690234E+00  -6.02426982E+00  -4.40789771E+00  -2.78392906E+00  -1.30230790E+01  -1.23841181E+01  -1.07479486E+01  -1.31900248E+01  -8.77794672E+00  -8.20169792E+00  -1.07286485E+01  -1.38619569E+01  -2.37900568E+00  -5.16291324E+00  -3.15862040E+00  -4.19163498E+00  -8.29248609E+00  -2.90287010E+00  -4.33761304E+00  -6.60325279E+00  -6.25856587E+00  -4.06425858E+00  -6.89786471E+00  -1.37992254E+02  -1.03813788E+01  -6.42300678E+00  -1.15467068E+01  -1.14974395E+01  -7.45653219E+00  -3.20061847E+00  -9.79157932E+00  -3.67585257E+00  -5.90955023E+01  -1.22786090E+01  -8.40393899E+00  -1.97302648E+00  -4.27730150E+01  -6.61274918E+00  -8.13111922E+00  -4.61773407E+00  -7.56954175E+00  -7.09818806E+00  -7.85765901E+00  -8.05040425E+00  -1.03875541E+01  -8.98683844E+00  -7.03432463E+00  -6.33140052E+00  -1.20440643E+01  -6.14951422E+00  -1.33936322E+01  -6.77984168E+00  -1.02108415E+01  -1.50168492E+01  -1.50171071E+01  -2.04116449E+01  -1.14043175E+01  -2.03103394E+01  -2.03106403E+01  -2.93611829E+01  -2.98508862E+01
   2.53750000E+02   5.00000000E-01   5.00000000E-01  -6.87749968E+00  -1.47108571E+01  -3.23272455E+00  -1.32537807E+00  -1.94474031E+00  -3.20703121E+00  -1.98129759E+01  -6.71581822E+00  -5.11116337E+00  -2.61099779E-01  -4.16629606E+00  -1.95752837E+00  -1.01444114E+01  -3.32783287E-01  -1.79781200E+00  -7.74360223E+00  -3.39674499E+00  -6.03582095E+00  -4.40774036E+00  -2.76642101E+00  -1.29709483E+01  -1.23447165E+01  -1.07215928E+01  -1.31667453E+01  -8.76518432E+00  -8.19204854E+00  -1.07430652E+01  -1.38227516E+01  -2.38223653E+00  -5.18901811E+00  -3.14754248E+00  -4.19294312E+00  -8.25605824E+00  -2.89449202E+00  -4.29127035E+00  -6.56803437E+00  -6.21928664E+00  -4.02977128E+00  -6.88515831E+00  -1.37157892E+02  -1.03669323E+01  -6.40184871E+00  -1.14809093E+01  -1.14664054E+01  -7.39948028E+00  -3.19823431E+00  -9.77078964E+00  -3.67422916E+00  -5.87160703E+01  -1.22445817E+01  -8.39422247E+00  -1.97603507E+00  -4.25289167E+01  -6.60884462E+00  -8.14579791E+00  -4.61841514E+00  -7.52077820E+00  -7.08732192E+00  -7.88402338E+00  -8.03940997E+00  -1.04210354E+01  -8.99720413E+00  -7.01764986E+00  -6.32700119E+00  -1.20098400E+01  -6.14563732E+00  -1.33265900E+01  -6.76226717E+00  -1.01978368E+01  -1.49945071E+01  -1.49947646E+01  -2.03829290E+01  -1.13775396E+01  -2.02821328E+01  -2.02824324E+01  -2.92955882E+01  -2.97360136E+01
   2.71250000E+02   5.00000000E-01   5.00000000E-01  -6.84033517E+00  -1.46943577E+01  -3.20760308E+00  -1.32758745E+00  -1.93862544E+00  -3.18036030E+00  -1.97565815E+01  -6.71608956E+00  -5.11181332E+00  -2.60954563E-01  -4.16612934E+00  -1.95785978E+00  -1.01470420E+01  -3.32560754E-01  -1.79655946E+00  -7.74344017E+00  -3.39657827E+00  -6.04771982E+00  -4.40757364E+00  -2.74895907E+00  -1.29192828E+01  -1.23063632E+01  -1.06961031E+01  -1.31444976E+01  -8.75246894E+00  -8.18224299E+00  -1.07574891E+01  -1.37839595E+01  -2.38565338E+00  -5.21523972E+00  -3.13632783E+00  -4.19373972E+00  -8.21995194E+00  -2.88615752E+00  -4.24689403E+00  -6.53444742E+00  -6.18205185E+00  -3.99731884E+00  -6.87270463E+00  -1.36331381E+02  -1.03526335E+01  -6.38126218E+00  -1.14161011E+01  -1.14361690E+01  -7.34293135E+00  -3.19563658E+00  -9.75013829E+00  -3.67248227E+00  -5.83398867E+01  -1.22112536E+01  -8.38436733E+00  -1.97884043E+00  -4.22869761E+01  -6.60515990E+00  -8.16031082E+00  -4.62096664E+00  -7.47472861E+00  -7.07863952E+00  -7.91201257E+00  -8.02863629E+00  -1.04547922E+01  -9.00762863E+00  -7.00101320E+00  -6.32238789E+00  -1.19759226E+01  -6.14183568E+00  -1.32615767E+01  -6.74476125E+00  -1.01849819E+01  -1.49723749E+01  -1.49726326E+01  -2.03545181E+01  -1.13507956E+01  -2.02542258E+01  -2.02545245E+01  -2.92303731E+01  -2.96219711E+01
   2.88750000E+02   5.00000000E-01   5.00000000E-01  -6.80367699E+00  -1.46789125E+01  -3.18267254E+00  -1.32981224E+00  -1.93261825E+00  -3.15555515E+00  -1.97011328E+01  -6.71636696E+00  -5.11247205E+00  -2.60801382E-01  -4.16595349E+00  -1.95817028E+00  -1.01498702E+01  -3.32333489E-01  -1.79544789E+00  -7.74326898E+00  -3.39640242E+00  -6.05997675E+00  -4.40739779E+00  -2.73156370E+00  -1.28680628E+01  -1.22688805E+01  -1.06713386E+01  -1.31230846E+01  -8.73982507E+00  -8.17229122E+00  -1.07719596E+01  -1.37455934E+01  -2.38926919E+00  -5.24160377E+00  -3.12498398E+00  -4.19404527E+00  -8.18418008E+00  -2.87787159E+00  -4.20425525E+00  -6.50227503E+00  -6.14664459E+00  -3.96667142E+00  -6.86051233E+00  -1.35512573E+02  -1.03384783E+01  -6.36124164E+00  -1.13522571E+01  -1.14065766E+01  -7.28686120E+00  -3.19283691E+00  -9.72964369E+00  -3.67061667E+00  -5.79668958E+01  -1.21784951E+01  -8.37440028E+00  -1.98144941E+00  -4.20471654E+01  -6.60171884E+00  -8.17470878E+00  -4.62519488E+00  -7.43114740E+00  -7.07192303E+00  -7.94143723E+00  -8.01810974E+00  -1.04888481E+01  -9.01815010E+00  -6.98443947E+00  -6.31757110E+00  -1.19423268E+01  -6.13811545E+00  -1.31983848E+01  -6.72738186E+00  -1.01723518E+01  -1.49505660E+01  -1.49508246E+01  -2.03265629E+01  -1.13242033E+01  -2.02267692E+01  -2.02270673E+01  -2.91657671E+01  -2.95087130E+01
   3.06250000E+02   5.00000000E-01   5.00000000E-01  -6.76749271E+00  -1.46642531E+01  -3.15793069E+00  -1.33205313E+00  -1.92671522E+00  -3.13241742E+00  -1.96465394E+01  -6.71665063E+00  -5.11313883E+00  -2.60640480E-01  -4.16576875E+00  -1.95846066E+00  -1.01529050E+01  -3.32101475E-01  -1.79446936E+00  -7.74308890E+00  -3.39621768E+00  -6.07260221E+00  -4.40721305E+00  -2.71426237E+00  -1.28172632E+01  -1.22320544E+01  -1.06471323E+01  -1.31022677E+01  -8.72727780E+00  -8.16220265E+00  -1.07865217E+01  -1.37076707E+01  -2.39309813E+00  -5.26814249E+00  -3.11351807E+00  -4.19387931E+00  -8.14876059E+00  -2.86963897E+00  -4.16316547E+00  -6.47134002E+00  -6.11289341E+00  -3.93763954E+00  -6.84859534E+00  -1.34701316E+02  -1.03244601E+01  -6.34177658E+00  -1.12893421E+01  -1.13774426E+01  -7.23124099E+00  -3.18984665E+00  -9.70932930E+00  -3.66863736E+00  -5.75970375E+01  -1.21461493E+01  -8.36435250E+00  -1.98386873E+00  -4.18094571E+01  -6.59854463E+00  -8.18904663E+00  -4.63095240E+00  -7.38982482E+00  -7.06699508E+00  -7.97215306E+00  -8.00785634E+00  -1.05232319E+01  -9.02881232E+00  -6.96795405E+00  -6.31256070E+00  -1.19090720E+01  -6.13448232E+00  -1.31367737E+01  -6.71020580E+00  -1.01600458E+01  -1.49292294E+01  -1.49294895E+01  -2.02992618E+01  -1.12979180E+01  -2.01999612E+01  -2.02002593E+01  -2.91020702E+01  -2.93961799E+01
   3.23750000E+02   5.00000000E-01   5.00000000E-01  -6.73174919E+00  -1.46501012E+01  -3.13337490E+00  -1.33431077E+00  -1.92091303E+00  -3.11078081E+00  -1.95927088E+01  -6.71694077E+00  -5.11381294E+00  -2.60472087E-01  -4.16557533E+00  -1.95873187E+00  -1.01561563E+01  -3.31864700E-01  -1.79361644E+00  -7.74290014E+00  -3.39602426E+00  -6.08560626E+00  -4.40701963E+00  -2.69708620E+00  -1.27668583E+01  -1.21956626E+01  -1.06233103E+01  -1.30817990E+01  -8.71485253E+00  -8.15198615E+00  -1.08012218E+01  -1.36702101E+01  -2.39715533E+00  -5.29489029E+00  -3.10193695E+00  -4.19326051E+00  -8.11371245E+00  -2.86146420E+00  -4.12346762E+00  -6.44149615E+00  -6.08065962E+00  -3.91006530E+00  -6.83696896E+00  -1.33897456E+02  -1.03105720E+01  -6.32285483E+00  -1.12273182E+01  -1.13485737E+01  -7.17604117E+00  -3.18667680E+00  -9.68921963E+00  -3.66654944E+00  -5.72302510E+01  -1.21140521E+01  -8.35425566E+00  -1.98610495E+00  -4.15738244E+01  -6.59565935E+00  -8.20337869E+00  -4.63812497E+00  -7.35058155E+00  -7.06370938E+00  -8.00404753E+00  -7.99790103E+00  -1.05579735E+01  -9.03966040E+00  -6.95158260E+00  -6.30736604E+00  -1.18761787E+01  -6.13094161E+00  -1.30764979E+01  -6.69331810E+00  -1.01481717E+01  -1.49085277E+01  -1.49087901E+01  -2.02728312E+01  -1.12721116E+01  -2.01740182E+01  -2.01743169E+01  -2.90396099E+01  -2.92843116E+01
   3.41250000E+02   5.00000000E-01   5.00000000E-01  -6.69641694E+00  -1.46362085E+01  -3.10900592E+00  -1.33658576E+00  -1.91520850E+00  -3.09050456E+00  -1.95395593E+01  -6.71723754E+00  -5.11449360E+00  -2.60296420E-01  -4.16537344E+00  -1.95898503E+00  -1.01596333E+01  -3.31623151E-01  -1.79288217E+00  -7.74270291E+00  -3.39582237E+00  -6.09899744E+00  -4.40681774E+00  -2.68006613E+00  -1.27168253E+01  -1.21595053E+01  -1.05997149E+01  -1.30614571E+01  -8.70257447E+00  -8.14165010E+00  -1.08161029E+01  -1.36332269E+01  -2.40145625E+00  -5.32187886E+00  -3.09024714E+00  -4.19220670E+00  -8.07905137E+00  -2.85335159E+00  -4.08502971E+00  -6.41262174E+00  -6.04982649E+00  -3.88381590E+00  -6.82564545E+00  -1.33100849E+02  -1.02968091E+01  -6.30446588E+00  -1.11661523E+01  -1.13197960E+01  -7.12123570E+00  -3.18333800E+00  -9.66933586E+00  -3.66435807E+00  -5.68664795E+01  -1.20820551E+01  -8.34413762E+00  -1.98816447E+00  -4.13402407E+01  -6.59308283E+00  -8.21775341E+00  -4.64662026E+00  -7.31326547E+00  -7.06194323E+00  -8.03702803E+00  -7.98826651E+00  -1.05930979E+01  -9.05073602E+00  -6.93535054E+00  -6.30199593E+00  -1.18436637E+01  -6.12749821E+00  -1.30173391E+01  -6.67680005E+00  -1.01368306E+01  -1.48886126E+01  -1.48888782E+01  -2.02474732E+01  -1.12469483E+01  -2.01491422E+01  -2.01494424E+01  -2.89786922E+01  -2.91730600E+01