 TITLE = "Total Concentrations" 
VARIABLES = "X"          "Y"              "Z"            "H+"             "Al+++"          "CO2(aq)"        "Mg++"           "Ca++"           "Fe++"           "Fe+++"          "Ba++"           "Sr++"           "Cl-"            "K+"             "Na+"            "SO4--"          "O2(aq)"         "B(OH)3(aq)"     "HPO4--"         "NO3-"           "H4SiO4(aq)"     "HNO3(aq)"       "Al(OH)2+"       "AlO2-"          "AlOH++"         "BaHCO3+"        "BaCl+"          "BaCO3(aq)"      "BaOH+"          "HCO3-"          "CO3--"          "CaCl+"          "CaCl2(aq)"      "CaOH+"          "CaSO4(aq)"      "FeCl+"          "FeCl2(aq)"      "FeOH+"          "FeSO4(aq)"      "OH-"            "HS-"            "H2S(aq)"        "H2PO4-"         "H3PO4(aq)"      "HAlO2(aq)"      "HSO4-"          "KCl(aq)"        "KOH(aq)"        "KSO4-"          "NH3(aq)"        "NaAlO2(aq)"     "NaOH(aq)"       "NaSO4-"         "H2(aq)"         "CaHPO4(aq)"     "CaPO4-"         "FeCO3(aq)"      "FeH2PO4+"       "FeHPO4(aq)"     "FePO4-"         "KHPO4-"         "PO4---"         "S--"            "Sr(CO3)(aq)"    "SrHCO3+"        "SrCl+"          "SrOH+"          "SrSO4(aq)"     
 ZONE I=          10 , J=           1 , K=           1  F=POINT
   1.75000000E+02   5.00000000E-01   5.00000000E-01  -6.68130971E+00  -1.53846828E+01  -3.11162501E+00  -1.30818148E+00  -1.95054140E+00  -3.15927018E+00  -1.14103061E+01  -6.72073453E+00  -5.12278567E+00  -2.62396994E-01  -1.95535328E+00  -3.33720107E-01  -1.74588987E+00  -3.74472744E+00  -3.39793996E+00  -6.09588068E+00  -4.40893533E+00  -2.62910393E+00  -1.26658369E+01  -1.26962149E+01  -1.10163616E+01  -1.37157476E+01  -8.66336659E+00  -8.11986105E+00  -1.07729903E+01  -1.34640280E+01  -2.40319756E+00  -5.30633536E+00  -3.11206230E+00  -4.24411341E+00  -7.96273877E+00  -2.83865908E+00  -4.10847114E+00  -6.46347539E+00  -6.01460495E+00  -3.89309900E+00  -6.72017024E+00  -1.35104056E+02  -1.35272297E+02  -6.29532035E+00  -1.11222434E+01  -1.17993091E+01  -7.00963969E+00  -3.17298324E+00  -9.53742776E+00  -3.60939070E+00  -6.39911306E+01  -1.24793153E+01  -8.24386704E+00  -1.95107440E+00  -4.27294387E+01  -6.59936621E+00  -8.19054283E+00  -4.70525290E+00  -7.37720966E+00  -7.14219511E+00  -8.13021070E+00  -7.92070465E+00  -1.05694197E+01  -1.44517395E+02  -9.00152522E+00  -6.88939656E+00  -6.29690078E+00  -1.16896384E+01  -6.08199705E+00
   5.25000000E+02   5.00000000E-01   5.00000000E-01  -6.15991284E+00  -1.43125469E+01  -2.75125723E+00  -1.31405759E+00  -1.97715901E+00  -3.18378969E+00  -1.11357150E+01  -6.72891048E+00  -5.13543265E+00  -2.62614699E-01  -1.95975558E+00  -3.33133287E-01  -1.75099173E+00  -3.74472671E+00  -3.39793922E+00  -6.33763988E+00  -4.40893461E+00  -2.55928159E+00  -1.19490625E+01  -1.15164196E+01  -1.01952769E+01  -1.26387814E+01  -8.56056807E+00  -7.97609562E+00  -1.11316003E+01  -1.31241724E+01  -2.52731213E+00  -5.82818673E+00  -3.03981841E+00  -4.28132649E+00  -7.73207241E+00  -2.83374483E+00  -3.88401307E+00  -6.33811878E+00  -5.99952614E+00  -3.83858396E+00  -6.69816750E+00  -1.25518762E+02  -1.25350639E+02  -6.03397204E+00  -1.02319650E+01  -1.07975916E+01  -6.22961103E+00  -3.11761237E+00  -9.39752733E+00  -3.57462412E+00  -5.93797342E+01  -1.15370126E+01  -8.20765833E+00  -1.96529544E+00  -3.98432281E+01  -6.71304163E+00  -8.59800442E+00  -5.24681362E+00  -7.16163388E+00  -7.45059106E+00  -8.95030570E+00  -7.85458911E+00  -1.11970885E+01  -1.34716796E+02  -9.31429092E+00  -6.73260382E+00  -6.21268271E+00  -1.13978697E+01  -6.05517904E+00
   8.75000000E+02   5.00000000E-01   5.00000000E-01  -5.71668369E+00  -1.35185960E+01  -2.52257323E+00  -1.32159030E+00  -2.01793477E+00  -3.23301025E+00  -1.08757664E+01  -6.73903575E+00  -5.14649656E+00  -2.62907681E-01  -1.96683447E+00  -3.32671946E-01  -1.76993690E+00  -3.74472647E+00  -3.39793899E+00  -6.65884666E+00  -4.40893441E+00  -2.45691019E+00  -1.13157318E+01  -1.05738272E+01  -9.56233347E+00  -1.18040860E+01  -8.56443563E+00  -7.82690530E+00  -1.15709838E+01  -1.28295295E+01  -2.75796745E+00  -6.42463360E+00  -2.96372092E+00  -4.27932186E+00  -7.53568209E+00  -2.85262855E+00  -3.68260813E+00  -6.20454144E+00  -5.99683519E+00  -3.81940589E+00  -6.68846784E+00  -1.16975704E+02  -1.16490321E+02  -5.90278757E+00  -9.54665778E+00  -9.99295884E+00  -5.53647521E+00  -3.05617732E+00  -9.27504508E+00  -3.54000811E+00  -5.52352032E+01  -1.07775295E+01  -8.15598232E+00  -1.96708710E+00  -3.72547547E+01  -6.91265488E+00  -9.03625585E+00  -5.86684249E+00  -7.10477689E+00  -7.83977342E+00  -9.77067900E+00  -7.88280445E+00  -1.18729365E+01  -1.26000947E+02  -9.71158757E+00  -6.67993325E+00  -6.11268512E+00  -1.11362021E+01  -6.05423743E+00
   1.22500000E+03   5.00000000E-01   5.00000000E-01  -5.34073636E+00  -1.29267218E+01  -2.40812808E+00  -1.32763871E+00  -2.07964788E+00  -3.30666162E+00  -1.05801513E+01  -6.75249110E+00  -5.15601254E+00  -2.63245384E-01  -1.97630090E+00  -3.32291546E-01  -1.80098163E+00  -3.74472626E+00  -3.39793877E+00  -7.00199525E+00  -4.40893434E+00  -2.36893502E+00  -1.07572491E+01  -9.79605806E+00  -9.04644999E+00  -1.11408158E+01  -8.66045217E+00  -7.67771567E+00  -1.20731019E+01  -1.25701248E+01  -3.07458592E+00  -7.07410602E+00  -2.89678560E+00  -4.25995028E+00  -7.37429086E+00  -2.90580248E+00  -3.50826034E+00  -6.07426596E+00  -6.00705635E+00  -3.83933520E+00  -6.68349045E+00  -1.09319952E+02  -1.08540471E+02  -5.84146166E+00  -8.99832581E+00  -9.31792173E+00  -4.92406972E+00  -2.99394998E+00  -9.16519096E+00  -3.51062837E+00  -5.14927639E+01  -1.01344386E+01  -8.09141239E+00  -1.96466832E+00  -3.49194976E+01  -7.15348876E+00  -9.46844041E+00  -6.55214853E+00  -7.14518159E+00  -8.25917978E+00  -1.05522885E+01  -7.95118755E+00  -1.25383701E+01  -1.18205686E+02  -1.01730798E+01  -6.71651152E+00  -6.00274055E+00  -1.08966265E+01  -6.07986019E+00
   1.57500000E+03   5.00000000E-01   5.00000000E-01  -5.00340408E+00  -1.23589235E+01  -2.35728208E+00  -1.33159536E+00  -2.17236054E+00  -3.40772242E+00  -1.02768766E+01  -6.77187529E+00  -5.16666016E+00  -2.63581903E-01  -1.98798260E+00  -3.31917389E-01  -1.84495743E+00  -3.74472605E+00  -3.39793857E+00  -7.35230875E+00  -4.40893458E+00  -2.29951090E+00  -1.02441870E+01  -9.04744726E+00  -8.55492676E+00  -1.04946540E+01  -8.82151657E+00  -7.53166617E+00  -1.26295011E+01  -1.23597135E+01  -3.44705001E+00  -7.76853659E+00  -2.85131441E+00  -4.23978565E+00  -7.27305834E+00  -3.00308952E+00  -3.36442704E+00  -5.95405944E+00  -6.05327548E+00  -3.90119917E+00  -6.69990107E+00  -1.02405440E+02  -1.01335135E+02  -5.81038165E+00  -8.51875387E+00  -8.66066330E+00  -4.36650340E+00  -2.93222808E+00  -9.08395160E+00  -3.48957424E+00  -4.80768219E+01  -9.51550061E+00  -8.03395050E+00  -1.96322299E+00  -3.28007441E+01  -7.43035358E+00  -9.91492546E+00  -7.29895548E+00  -7.24586367E+00  -8.70049809E+00  -1.13157448E+01  -8.04218291E+00  -1.32002891E+01  -1.11195174E+02  -1.06894751E+01  -6.81581169E+00  -5.88732656E+00  -1.06953047E+01  -6.13197904E+00
   1.92500000E+03   5.00000000E-01   5.00000000E-01  -4.70758753E+00  -1.18937872E+01  -2.33690891E+00  -1.33453901E+00  -2.30791173E+00  -3.53364919E+00  -9.90802777E+00  -6.80034443E+00  -5.18237189E+00  -2.63864113E-01  -2.00190835E+00  -3.31468096E-01  -1.90300258E+00  -3.74472585E+00  -3.39793837E+00  -7.69045290E+00  -4.40893560E+00  -2.24132867E+00  -9.77734025E+00  -8.38840592E+00  -8.13189861E+00  -9.93699243E+00  -9.00845025E+00  -7.39087906E+00  -1.31910520E+01  -1.21846827E+01  -3.83458254E+00  -8.46052678E+00  -2.83942527E+00  -4.23280250E+00  -7.23000969E+00  -3.15363369E+00  -3.24728811E+00  -5.84124864E+00  -6.12286702E+00  -3.99971384E+00  -6.72670201E+00  -9.61378638E+01  -9.47881115E+01  -5.79476095E+00  -8.09467963E+00  -8.07479130E+00  -3.86752900E+00  -2.87050633E+00  -9.01824174E+00  -3.47814847E+00  -4.49499440E+01  -8.96332338E+00  -7.97242232E+00  -1.96533855E+00  -3.08680388E+01  -7.73249788E+00  -1.03589400E+01  -8.05528876E+00  -7.38965581E+00  -9.14367497E+00  -1.20379762E+01  -8.13113768E+00  -1.38321277E+01  -1.04855638E+02  -1.12115741E+01  -6.93962490E+00  -5.77025730E+00  -1.05210554E+01  -6.20978757E+00
   2.27500000E+03   5.00000000E-01   5.00000000E-01  -4.44674607E+00  -1.15110587E+01  -2.32882371E+00  -1.33766642E+00  -2.49519407E+00  -3.68264932E+00  -9.45608162E+00  -6.84131779E+00  -5.20678919E+00  -2.64062661E-01  -2.01726689E+00  -3.30971841E-01  -1.97477514E+00  -3.74472565E+00  -3.39793817E+00  -8.01561766E+00  -4.40893854E+00  -2.19635609E+00  -9.34778573E+00  -7.80178961E+00  -7.76534030E+00  -9.45054005E+00  -9.20802534E+00  -7.25747521E+00  -1.37461727E+01  -1.20441144E+01  -4.22260413E+00  -9.13965224E+00  -2.86967792E+00  -4.24843622E+00  -7.25188567E+00  -3.36191979E+00  -3.15335594E+00  -5.73269432E+00  -6.21471357E+00  -4.12856238E+00  -6.76464280E+00  -9.04287159E+01  -8.88076370E+01  -5.78810743E+00  -7.71129557E+00  -7.54663209E+00  -3.41924678E+00  -2.80683508E+00  -8.96555020E+00  -3.47465705E+00  -4.20714617E+01  -8.46386052E+00  -7.90603803E+00  -1.97113214E+00  -2.90960685E+01  -8.06446779E+00  -1.08083662E+01  -8.80620560E+00  -7.56905066E+00  -9.58788553E+00  -1.27241226E+01  -8.21053411E+00  -1.44362495E+01  -9.90902235E+01  -1.17272589E+01  -7.07495903E+00  -5.65455114E+00  -1.03743735E+01  -6.31090510E+00
   2.62500000E+03   5.00000000E-01   5.00000000E-01  -4.21593372E+00  -1.12014491E+01  -2.32557782E+00  -1.34237609E+00  -2.73114319E+00  -3.85458015E+00  -8.92841327E+00  -6.89877475E+00  -5.24343725E+00  -2.64210145E-01  -2.03296314E+00  -3.30443301E-01  -2.05975207E+00  -3.74472544E+00  -3.39793796E+00  -8.33043657E+00  -4.40894587E+00  -2.16228390E+00  -8.94842168E+00  -7.28024729E+00  -7.45144152E+00  -9.02802563E+00  -9.41783724E+00  -7.13448440E+00  -1.42940177E+01  -1.19384164E+01  -4.60660927E+00  -9.80449125E+00  -2.93874339E+00  -4.28398965E+00  -7.33365240E+00  -3.62113107E+00  -3.08103585E+00  -5.62704006E+00  -6.32887852E+00  -4.28369965E+00  -6.81420970E+00  -8.52046757E+01  -8.33177392E+01  -5.78885071E+00  -7.36042208E+00  -7.07136448E+00  -3.01516835E+00  -2.73905879E+00  -8.92306815E+00  -3.47701285E+00  -3.94077187E+01  -8.01133072E+00  -7.83331766E+00  -1.98030143E+00  -2.74636619E+01  -8.42307383E+00  -1.12616885E+01  -9.54790337E+00  -7.78367956E+00  -1.00379473E+01  -1.33829541E+01  -8.27649397E+00  -1.50170627E+01  -9.38171874E+01  -1.22345627E+01  -7.21886371E+00  -5.54328769E+00  -1.02560769E+01  -6.43384977E+00
   2.97500000E+03   5.00000000E-01   5.00000000E-01  -4.01076275E+00  -1.09504401E+01  -2.32425216E+00  -1.35043608E+00  -2.99050195E+00  -4.04884360E+00  -8.38060813E+00  -6.97681982E+00  -5.29558601E+00  -2.64397589E-01  -2.04872078E+00  -3.29779486E-01  -2.16292049E+00  -3.74472522E+00  -3.39793774E+00  -8.63993334E+00  -4.40896287E+00  -2.13865414E+00  -8.57310119E+00  -6.81163261E+00  -7.18149921E+00  -8.65692438E+00  -9.64046315E+00  -7.02554159E+00  -1.48391489E+01  -1.18693203E+01  -4.98653331E+00  -1.04576888E+01  -3.02138469E+00  -4.31488354E+00  -7.44886661E+00  -3.90878337E+00  -3.02871698E+00  -5.52303818E+00  -6.46527654E+00  -4.46713856E+00  -6.87608384E+00  -8.04096171E+01  -7.82596834E+01  -5.79846741E+00  -7.03779559E+00  -6.63924697E+00  -2.65511900E+00  -2.66612168E+00  -8.88941804E+00  -3.48973089E+00  -3.69300964E+01  -7.59525139E+00  -7.75292367E+00  -1.99800658E+00  -2.59529246E+01  -8.78627852E+00  -1.16979997E+01  -1.02809627E+01  -8.03617761E+00  -1.05011151E+01  -1.40248173E+01  -8.32914707E+00  -1.55808312E+01  -8.89728398E+01  -1.27366315E+01  -7.37293143E+00  -5.43964746E+00  -1.01676947E+01  -6.58367760E+00
   3.32500000E+03   5.00000000E-01   5.00000000E-01  -3.82822625E+00  -1.07492591E+01  -2.32370320E+00  -1.36394656E+00  -3.23167926E+00  -4.26096394E+00  -7.90170610E+00  -7.07869404E+00  -5.36612814E+00  -2.64720099E-01  -2.06455315E+00  -3.28689432E-01  -2.29907018E+00  -3.74472498E+00  -3.39793750E+00  -8.95046821E+00  -4.40900036E+00  -2.12469859E+00  -8.21753516E+00  -6.38800247E+00  -6.94889862E+00  -8.32952086E+00  -9.87871024E+00  -6.93389544E+00  -1.53856354E+01  -1.18376495E+01  -5.36288866E+00  -1.11010734E+01  -3.07636883E+00  -4.30067434E+00  -7.55440517E+00  -4.19693312E+00  -2.99138338E+00  -5.41624181E+00  -6.61924478E+00  -4.68788964E+00  -6.94996841E+00  -7.60076831E+01  -7.35961677E+01  -5.82136437E+00  -6.74387223E+00  -6.24366652E+00  -2.35047641E+00  -2.58759510E+00  -8.86302921E+00  -3.52779001E+00  -3.46151149E+01  -7.20747408E+00  -7.66268105E+00  -2.03925329E+00  -2.45486058E+01  -9.11806109E+00  -1.20810733E+01  -1.10021688E+01  -8.32854079E+00  -1.09825751E+01  -1.46563750E+01  -8.37117636E+00  -1.61336934E+01  -8.45136519E+01  -1.32366825E+01  -7.53944115E+00  -5.34681998E+00  -1.01101664E+01  -6.77614588E+00
