 TITLE = "Total Concentrations" 
VARIABLES = "X"          "Y"              "Z"            "H+"             "Al+++"          "CO2(aq)"        "Mg++"           "Ca++"           "Fe++"           "Fe+++"          "Ba++"           "Sr++"           "Cl-"            "F-"             "K+"             "HS-"            "Na+"            "SO4--"          "O2(aq)"         "B(OH)3(aq)"     "HPO4--"         "NO3-"           "H4SiO4(aq)"     "HNO3(aq)"       "Al(OH)2+"       "AlO2-"          "AlOH++"         "BaHCO3+"        "BaCl+"          "BaCO3(aq)"      "BaOH+"          "HCO3-"          "CO3--"          "CaCl+"          "CaCl2(aq)"      "CaOH+"          "CaSO4(aq)"      "FeCl+"          "FeCl2(aq)"      "FeOH+"          "FeSO4(aq)"      "OH-"            "S2O3--"         "H2S(aq)"        "H2PO4-"         "H3PO4(aq)"      "HAlO2(aq)"      "HSO4-"          "KCl(aq)"        "KOH(aq)"        "KSO4-"          "NH3(aq)"        "NaAlO2(aq)"     "NaOH(aq)"       "NaSO4-"         "H2(aq)"         "CaHPO4(aq)"     "CaPO4-"         "FeCO3(aq)"      "FeH2PO4+"       "FeHPO4(aq)"     "FePO4-"         "KHPO4-"         "PO4---"         "Sr(CO3)(aq)"    "SrHCO3+"        "SrCl+"          "SrOH+"          "SrSO4(aq)"      "AlH3SiO4++"     "Si2O2(OH)5-"    "Si2O3(OH)4--"   "Si3O5(OH)5---"  "Si3O6(OH)3---"  "Si4O12H4----"   "Si4O6(OH)6--"   "Si4O7(OH)6----" "Si4O8(OH)4----" "Si6O15------"   "SiF6--"        
 ZONE I=         200 , J=           1 , K=           1  F=POINT
   8.75000000E+00   5.00000000E-01   5.00000000E-01  -7.82767309E+00  -1.74949354E+01  -3.95306399E+00  -1.29410532E+00  -2.04419691E+00  -4.43435194E+00  -2.18283955E+01  -6.71261175E+00  -5.10353004E+00  -2.62115559E-01  -4.16749363E+00  -1.95202743E+00  -1.00571825E+01  -3.35545104E-01  -1.83620608E+00  -7.74473461E+00  -3.39794256E+00  -5.87553354E+00  -4.40893793E+00  -3.38596095E+00  -1.41122652E+01  -1.46683211E+01  -1.21081592E+01  -1.56329835E+01  -8.92568543E+00  -8.30746898E+00  -1.01523693E+01  -1.40430448E+01  -2.33784288E+00  -4.45239609E+00  -3.28612067E+00  -4.11695177E+00  -8.42920063E+00  -3.01330157E+00  -5.74610762E+00  -7.83013273E+00  -7.21703984E+00  -5.32574670E+00  -6.72240104E+00  -1.50345693E+02  -1.08765337E+01  -7.08711330E+00  -1.31982757E+01  -1.32783442E+01  -8.61618565E+00  -3.20738004E+00  -9.70692129E+00  -3.68521186E+00  -6.47104782E+01  -1.37173870E+01  -8.14411135E+00  -1.91232551E+00  -4.61561899E+01  -6.64572178E+00  -7.51387792E+00  -5.01919045E+00  -9.42088268E+00  -8.03492606E+00  -7.88538973E+00  -8.17553883E+00  -9.58117319E+00  -8.46850110E+00  -7.23190352E+00  -6.36339393E+00  -1.21497326E+01  -6.20354860E+00  -1.68824313E+01  -7.38657878E+00  -1.03969383E+01  -1.53312061E+01  -1.53314464E+01  -2.08193741E+01  -1.24985886E+01  -2.07110036E+01  -2.07112694E+01  -3.02563600E+01  -3.32601472E+01
   2.62500000E+01   5.00000000E-01   5.00000000E-01  -7.58044426E+00  -1.60755853E+01  -3.72971249E+00  -1.29673236E+00  -2.03613329E+00  -4.09933770E+00  -2.11505879E+01  -6.71275619E+00  -5.10390072E+00  -2.62118609E-01  -4.16749120E+00  -1.95227811E+00  -1.00886519E+01  -3.35344884E-01  -1.83175371E+00  -7.74473681E+00  -3.39794013E+00  -5.89252165E+00  -4.40893551E+00  -3.21333068E+00  -1.38524717E+01  -1.36344352E+01  -1.14928407E+01  -1.44136616E+01  -8.91874654E+00  -8.30093919E+00  -1.03743145E+01  -1.41994393E+01  -2.34380862E+00  -4.68304336E+00  -3.27772854E+00  -4.12728414E+00  -8.58965442E+00  -3.00489365E+00  -5.39654364E+00  -7.49740295E+00  -7.07434678E+00  -4.98692710E+00  -6.90689019E+00  -1.48994904E+02  -1.06910449E+01  -6.86725022E+00  -1.27267308E+01  -1.24582372E+01  -8.35030623E+00  -3.20867954E+00  -9.88553152E+00  -3.68517203E+00  -6.40836018E+01  -1.30978030E+01  -8.33872996E+00  -1.91856915E+00  -4.58812757E+01  -6.65055133E+00  -7.74485643E+00  -4.92503831E+00  -8.86657660E+00  -7.72796498E+00  -7.82559635E+00  -8.17315333E+00  -9.82201262E+00  -8.68560586E+00  -7.22121266E+00  -6.36292016E+00  -1.23126949E+01  -6.19928354E+00  -1.54485631E+01  -7.26057533E+00  -1.04759902E+01  -1.54472220E+01  -1.54474701E+01  -2.09747278E+01  -1.22565071E+01  -2.08669267E+01  -2.08672042E+01  -3.04684523E+01  -3.21748751E+01
   4.37500000E+01   5.00000000E-01   5.00000000E-01  -7.45706706E+00  -1.55558396E+01  -3.62792793E+00  -1.29916214E+00  -2.02824962E+00  -3.91270805E+00  -2.08436504E+01  -6.71295131E+00  -5.10434184E+00  -2.62107960E-01  -4.16747385E+00  -1.95254147E+00  -1.01050769E+01  -3.35148423E-01  -1.82762961E+00  -7.74472409E+00  -3.39792278E+00  -5.90673634E+00  -4.40891816E+00  -3.09965192E+00  -1.37163122E+01  -1.32534535E+01  -1.12839185E+01  -1.39704178E+01  -8.91003911E+00  -8.29412727E+00  -1.04713539E+01  -1.42332161E+01  -2.34830240E+00  -4.78908543E+00  -3.26907112E+00  -4.13675539E+00  -8.62735504E+00  -2.99647443E+00  -5.19504006E+00  -7.31219419E+00  -6.95674561E+00  -4.79628764E+00  -6.96863763E+00  -1.47899994E+02  -1.06134898E+01  -6.76795232E+00  -1.24993367E+01  -1.21675375E+01  -8.20821331E+00  -3.20960568E+00  -9.94115386E+00  -3.68500247E+00  -6.35836856E+01  -1.28842616E+01  -8.40990171E+00  -1.92453490E+00  -4.56089347E+01  -6.65224788E+00  -7.84899573E+00  -4.85397067E+00  -8.58128126E+00  -7.56617869E+00  -7.78708230E+00  -8.16760888E+00  -9.93692231E+00  -8.77787448E+00  -7.20873784E+00  -6.36209898E+00  -1.23529027E+01  -6.19506111E+00  -1.48511760E+01  -7.12928426E+00  -1.04266672E+01  -1.53706375E+01  -1.53708914E+01  -2.08733357E+01  -1.20037092E+01  -2.07661001E+01  -2.07663870E+01  -3.02951786E+01  -3.16417761E+01
   6.12500000E+01   5.00000000E-01   5.00000000E-01  -7.37443321E+00  -1.52989593E+01  -3.56510280E+00  -1.30147105E+00  -2.02053969E+00  -3.78286275E+00  -2.06582734E+01  -6.71316223E+00  -5.10481630E+00  -2.62084182E-01  -4.16744223E+00  -1.95287277E+00  -1.01144690E+01  -3.34957250E-01  -1.82381534E+00  -7.74469710E+00  -3.39789117E+00  -5.91891591E+00  -4.40888654E+00  -3.02605576E+00  -1.36206895E+01  -1.30548338E+01  -1.11770380E+01  -1.37496170E+01  -8.90002050E+00  -8.28700931E+00  -1.05270281E+01  -1.42274223E+01  -2.35180146E+00  -4.85408846E+00  -3.26015685E+00  -4.14538997E+00  -8.62538573E+00  -2.98803548E+00  -5.05001045E+00  -7.18293454E+00  -6.85573359E+00  -4.66222695E+00  -6.99072190E+00  -1.46894611E+02  -1.05687963E+01  -6.70686336E+00  -1.23506406E+01  -1.20188005E+01  -8.10679560E+00  -3.21022673E+00  -9.95693306E+00  -3.68475396E+00  -6.31275793E+01  -1.27724241E+01  -8.44073363E+00  -1.93022403E+00  -4.53391269E+01  -6.65155942E+00  -7.91015700E+00  -4.79797441E+00  -8.39103363E+00  -7.45870674E+00  -7.76210127E+00  -8.15972150E+00  -1.00097369E+01  -8.82884552E+00  -7.19493643E+00  -6.36090641E+00  -1.23534053E+01  -6.19083812E+00  -1.45177222E+01  -7.03807012E+00  -1.03774340E+01  -1.52941588E+01  -1.52944169E+01  -2.07721250E+01  -1.18309313E+01  -2.06654512E+01  -2.06657451E+01  -3.01219997E+01  -3.13096345E+01
   7.87500000E+01   5.00000000E-01   5.00000000E-01  -7.30783686E+00  -1.51283577E+01  -3.51713129E+00  -1.30370334E+00  -2.01299658E+00  -3.68309770E+00  -2.05203499E+01  -6.71338003E+00  -5.10531369E+00  -2.62047853E-01  -4.16739695E+00  -1.95327632E+00  -1.01209027E+01  -3.34770412E-01  -1.82029291E+00  -7.74465644E+00  -3.39784588E+00  -5.93020694E+00  -4.40884125E+00  -2.97804871E+00  -1.35409110E+01  -1.29113860E+01  -1.10943926E+01  -1.35993749E+01  -8.88927488E+00  -8.27959122E+00  -1.05666062E+01  -1.42067327E+01  -2.35488077E+00  -4.90331108E+00  -3.25099628E+00  -4.15321769E+00  -8.60842956E+00  -2.97957731E+00  -4.93476734E+00  -7.08295435E+00  -6.76930449E+00  -4.55804942E+00  -6.99781955E+00  -1.45929221E+02  -1.05363591E+01  -6.66044144E+00  -1.22324083E+01  -1.19095344E+01  -8.02134798E+00  -3.21056383E+00  -9.95756448E+00  -3.68443150E+00  -6.26905430E+01  -1.26845005E+01  -8.45593063E+00  -1.93564022E+00  -4.50718163E+01  -6.64965077E+00  -7.95421277E+00  -4.75563350E+00  -8.24558433E+00  -7.38000320E+00  -7.74981609E+00  -8.15066875E+00  -1.00662901E+01  -8.86378640E+00  -7.18039314E+00  -6.35934896E+00  -1.23388801E+01  -6.18660870E+00  -1.42817797E+01  -6.98264103E+00  -1.03486932E+01  -1.52483940E+01  -1.52486549E+01  -2.07119007E+01  -1.17295940E+01  -2.06057846E+01  -2.06060837E+01  -3.00101546E+01  -3.10652138E+01
   9.62500000E+01   5.00000000E-01   5.00000000E-01  -7.25084924E+00  -1.50082617E+01  -3.47776247E+00  -1.30588263E+00  -2.00561347E+00  -3.60220746E+00  -2.04106013E+01  -6.71360304E+00  -5.10583104E+00  -2.61999528E-01  -4.16733854E+00  -1.95372862E+00  -1.01254679E+01  -3.34585605E-01  -1.81704494E+00  -7.74460266E+00  -3.39778748E+00  -5.94092993E+00  -4.40878285E+00  -2.94501323E+00  -1.34705621E+01  -1.28001816E+01  -1.10258846E+01  -1.34903448E+01  -8.87797212E+00  -8.27188744E+00  -1.05966680E+01  -1.41775544E+01  -2.35769290E+00  -4.94331172E+00  -3.24160089E+00  -4.16027030E+00  -8.58289417E+00  -2.97110459E+00  -4.83812273E+00  -7.00108447E+00  -6.69267492E+00  -4.47256209E+00  -6.99633080E+00  -1.44990850E+02  -1.05108657E+01  -6.62259689E+00  -1.21321353E+01  -1.18232336E+01  -7.94544406E+00  -3.21061160E+00  -9.94944056E+00  -3.68401461E+00  -6.22661174E+01  -1.26104090E+01  -8.46192032E+00  -1.94078788E+00  -4.48069689E+01  -6.64686420E+00  -7.98793456E+00  -4.72233326E+00  -8.12763634E+00  -7.31919892E+00  -7.74578791E+00  -8.14077542E+00  -1.01133099E+01  -8.88927547E+00  -7.16527860E+00  -6.35744179E+00  -1.23157368E+01  -6.18237896E+00  -1.41033405E+01  -6.94817787E+00  -1.03320418E+01  -1.52207406E+01  -1.52210031E+01  -2.06758572E+01  -1.16700624E+01  -2.05702945E+01  -2.05705973E+01  -2.99344482E+01  -3.08722570E+01
   1.13750000E+02   5.00000000E-01   5.00000000E-01  -7.20033399E+00  -1.49239643E+01  -3.44397117E+00  -1.30802891E+00  -1.99838399E+00  -3.53429286E+00  -2.03196262E+01  -6.71383075E+00  -5.10636662E+00  -2.61939726E-01  -4.16726754E+00  -1.95420420E+00  -1.01287475E+01  -3.34400395E-01  -1.81405531E+00  -7.74453629E+00  -3.39771647E+00  -5.95127042E+00  -4.40871184E+00  -2.92010758E+00  -1.34065201E+01  -1.27127736E+01  -1.09693135E+01  -1.34109533E+01  -8.86621680E+00  -8.26391316E+00  -1.06204362E+01  -1.41430038E+01  -2.36032458E+00  -4.97729119E+00  -3.23198201E+00  -4.16657880E+00  -8.55189570E+00  -2.96262298E+00  -4.75419429E+00  -6.93146091E+00  -6.62307565E+00  -4.39987879E+00  -6.98936447E+00  -1.44073110E+02  -1.04897886E+01  -6.59039702E+00  -1.20437661E+01  -1.17545822E+01  -7.87595046E+00  -3.21036215E+00  -9.93565986E+00  -3.68348155E+00  -6.18511362E+01  -1.25479646E+01  -8.46183766E+00  -1.94567186E+00  -4.45445515E+01  -6.64340678E+00  -8.01466596E+00  -4.69540685E+00  -8.02835623E+00  -7.27059616E+00  -7.74745664E+00  -8.13022834E+00  -1.01540974E+01  -8.90853426E+00  -7.14969811E+00  -6.35520080E+00  -1.22870946E+01  -6.17815692E+00  -1.39639469E+01  -6.92412062E+00  -1.03200436E+01  -1.52000458E+01  -1.52003090E+01  -2.06491225E+01  -1.16312192E+01  -2.05441089E+01  -2.05444139E+01  -2.98725826E+01  -3.07114494E+01
   1.31250000E+02   5.00000000E-01   5.00000000E-01  -7.15408319E+00  -1.48641167E+01  -3.41366085E+00  -1.31015852E+00  -1.99130218E+00  -3.47583771E+00  -2.02408082E+01  -6.71406287E+00  -5.10691892E+00  -2.61868928E-01  -4.16718441E+00  -1.95468428E+00  -1.01312315E+01  -3.34212928E-01  -1.81130885E+00  -7.74445779E+00  -3.39763334E+00  -5.96141489E+00  -4.40862871E+00  -2.89931628E+00  -1.33465899E+01  -1.26422169E+01  -1.09221250E+01  -1.33520570E+01  -8.85411397E+00  -8.25568304E+00  -1.06402064E+01  -1.41052699E+01  -2.36286363E+00  -5.00752374E+00  -3.22215065E+00  -4.17217315E+00  -8.51762257E+00  -2.95413828E+00  -4.67948192E+00  -6.87060113E+00  -6.55919206E+00  -4.33649600E+00  -6.97910187E+00  -1.43171478E+02  -1.04714343E+01  -6.56183785E+00  -1.19631017E+01  -1.16988376E+01  -7.81066245E+00  -3.20981357E+00  -9.91839948E+00  -3.68281742E+00  -6.14433618E+01  -1.24946278E+01  -8.45788951E+00  -1.95029765E+00  -4.42845317E+01  -6.63948581E+00  -8.03682216E+00  -4.67364254E+00  -7.94222232E+00  -7.23088062E+00  -7.75371703E+00  -8.11922066E+00  -1.01910265E+01  -8.92385690E+00  -7.13375736E+00  -6.35264139E+00  -1.22551450E+01  -6.17395061E+00  -1.38503991E+01  -6.90463350E+00  -1.03090585E+01  -1.51808504E+01  -1.51811137E+01  -2.06244165E+01  -1.16013956E+01  -2.05199472E+01  -2.05202534E+01  -2.98136465E+01  -3.05700128E+01
   1.48750000E+02   5.00000000E-01   5.00000000E-01  -7.11062165E+00  -1.48204709E+01  -3.38545370E+00  -1.31228294E+00  -1.98436247E+00  -3.42458812E+00  -2.01697290E+01  -6.71429928E+00  -5.10748665E+00  -2.61787572E-01  -4.16708959E+00  -1.95515678E+00  -1.01332841E+01  -3.34022020E-01  -1.80879114E+00  -7.74436759E+00  -3.39753852E+00  -5.97152203E+00  -4.40853389E+00  -2.88043479E+00  -1.32893089E+01  -1.25832018E+01  -1.08819352E+01  -1.33068805E+01  -8.84175496E+00  -8.24721136E+00  -1.06575283E+01  -1.40658093E+01  -2.36538469E+00  -5.03553852E+00  -3.21211752E+00  -4.17708228E+00  -8.48153124E+00  -2.94565643E+00  -4.61174712E+00  -6.81628359E+00  -6.50023927E+00  -4.28017219E+00  -6.96699257E+00  -1.42282894E+02  -1.04547158E+01  -6.53561969E+00  -1.18873797E+01  -1.16521601E+01  -7.74810804E+00  -3.20896997E+00  -9.89911088E+00  -3.68201411E+00  -6.10412898E+01  -1.24480300E+01  -8.45155051E+00  -1.95467137E+00  -4.40268775E+01  -6.63528013E+00  -8.05605704E+00  -4.65634461E+00  -7.86567969E+00  -7.19797218E+00  -7.76396521E+00  -8.10792334E+00  -1.02257115E+01  -8.93679181E+00  -7.11754829E+00  -6.34977848E+00  -1.22213471E+01  -6.16976803E+00  -1.37536771E+01  -6.88677002E+00  -1.02976028E+01  -1.51609304E+01  -1.51611930E+01  -2.05987724E+01  -1.15747013E+01  -2.04948429E+01  -2.04951493E+01  -2.97531973E+01  -3.04399076E+01
   1.66250000E+02   5.00000000E-01   5.00000000E-01  -7.06897524E+00  -1.47870241E+01  -3.35845830E+00  -1.31440974E+00  -1.97755961E+00  -3.37901700E+00  -2.01034734E+01  -6.71453999E+00  -5.10806866E+00  -2.61696066E-01  -4.16698348E+00  -1.95561476E+00  -1.01351651E+01  -3.33827011E-01  -1.80648854E+00  -7.74426612E+00  -3.39743241E+00  -5.98172059E+00  -4.40842778E+00  -2.86236264E+00  -1.32337146E+01  -1.25316620E+01  -1.08466028E+01  -1.32703926E+01  -8.82921667E+00  -8.23851189E+00  -1.06734366E+01  -1.40255783E+01  -2.36794857E+00  -5.06235050E+00  -3.20189298E+00  -4.18133407E+00  -8.44457771E+00  -2.93718334E+00  -4.54947755E+00  -6.76701218E+00  -6.44565826E+00  -4.22939230E+00  -6.95398597E+00  -1.41405305E+02  -1.04389419E+01  -6.51091337E+00  -1.18148085E+01  -1.16114530E+01  -7.68731636E+00  -3.20783996E+00  -9.87874985E+00  -3.68106869E+00  -6.06439170E+01  -1.24060445E+01  -8.44379453E+00  -1.95879961E+00  -4.37715576E+01  -6.63093792E+00  -8.07349256E+00  -4.64302883E+00  -7.79637088E+00  -7.17048719E+00  -7.77779257E+00  -8.09648130E+00  -1.02592360E+01  -8.94837248E+00  -7.10114835E+00  -6.34662651E+00  -1.21866596E+01  -6.16561711E+00  -1.36676108E+01  -6.86929088E+00  -1.02853993E+01  -1.51398706E+01  -1.51401324E+01  -2.05716362E+01  -1.15486600E+01  -2.04682416E+01  -2.04685475E+01  -2.96904099E+01  -3.03161995E+01
   1.83750000E+02   5.00000000E-01   5.00000000E-01  -7.02850201E+00  -1.47593980E+01  -3.33210342E+00  -1.31654373E+00  -1.97088866E+00  -3.33804354E+00  -2.00401226E+01  -6.71478508E+00  -5.10866390E+00  -2.61594787E-01  -4.16686647E+00  -1.95605468E+00  -1.01370578E+01  -3.33627590E-01  -1.80438819E+00  -7.74415374E+00  -3.39731540E+00  -5.99211397E+00  -4.40831078E+00  -2.84463215E+00  -1.31791764E+01  -1.24844914E+01  -1.08142827E+01  -1.32388544E+01  -8.81656412E+00  -8.22959789E+00  -1.06886229E+01  -1.39852015E+01  -2.37060488E+00  -5.08863201E+00  -3.19148703E+00  -4.18495537E+00  -8.40738641E+00  -2.92872493E+00  -4.49160642E+00  -6.72173575E+00  -6.39500418E+00  -4.18308716E+00  -6.94070017E+00  -1.40537325E+02  -1.04236760E+01  -6.48719594E+00  -1.17442345E+01  -1.15742473E+01  -7.62764881E+00  -3.20643489E+00  -9.85794371E+00  -3.67998171E+00  -6.02505728E+01  -1.23668409E+01  -8.43526340E+00  -1.96268927E+00  -4.35185414E+01  -6.62658123E+00  -8.08989229E+00  -4.63331335E+00  -7.73269096E+00  -7.14746244E+00  -7.79487870E+00  -8.08501645E+00  -1.02923271E+01  -8.95928893E+00  -7.08462311E+00  -6.34319935E+00  -1.21517094E+01  -6.16150560E+00  -1.35879562E+01  -6.85189038E+00  -1.02727726E+01  -1.51181586E+01  -1.51184193E+01  -2.05436572E+01  -1.15226626E+01  -2.04407925E+01  -2.04410975E+01  -2.96262630E+01  -3.01959129E+01
   2.01250000E+02   5.00000000E-01   5.00000000E-01  -6.98888524E+00  -1.47353905E+01  -3.30612367E+00  -1.31868767E+00  -1.96434493E+00  -3.30088012E+00  -1.99787333E+01  -6.71503477E+00  -5.10927151E+00  -2.61484086E-01  -4.16673891E+00  -1.95647452E+00  -1.01390539E+01  -3.33423615E-01  -1.80247803E+00  -7.74403081E+00  -3.39718784E+00  -6.00276412E+00  -4.40818321E+00  -2.82704045E+00  -1.31253882E+01  -1.24401102E+01  -1.07840065E+01  -1.32103780E+01  -8.80384321E+00  -8.22048214E+00  -1.07034345E+01  -1.39449789E+01  -2.37338464E+00  -5.11471232E+00  -3.18090927E+00  -4.18797196E+00  -8.37025706E+00  -2.92028710E+00  -4.43735952E+00  -6.67969506E+00  -6.34780029E+00  -4.14048050E+00  -6.92742888E+00  -1.39678219E+02  -1.04087145E+01  -6.46422760E+00  -1.16751119E+01  -1.15392753E+01  -7.56879209E+00  -3.20476698E+00  -9.83699632E+00  -3.67875536E+00  -5.98609119E+01  -1.23294646E+01  -8.42627373E+00  -1.96634743E+00  -4.32677987E+01  -6.62228989E+00  -8.10565224E+00  -4.62676534E+00  -7.67361148E+00  -7.12818605E+00  -7.81482921E+00  -8.07360965E+00  -1.03253453E+01  -8.96988737E+00  -7.06801894E+00  -6.33951039E+00  -1.21167988E+01  -6.15744120E+00  -1.35125863E+01  -6.83446745E+00  -1.02599265E+01  -1.50961010E+01  -1.50963606E+01  -2.05152438E+01  -1.14965092E+01  -2.04129040E+01  -2.04132077E+01  -2.95613736E+01  -3.00776351E+01
   2.18750000E+02   5.00000000E-01   5.00000000E-01  -6.94998433E+00  -1.47140413E+01  -3.28041739E+00  -1.32084323E+00  -1.95792395E+00  -3.26693414E+00  -1.99188908E+01  -6.71528935E+00  -5.10989072E+00  -2.61364292E-01  -4.16660112E+00  -1.95687307E+00  -1.01411928E+01  -3.33215012E-01  -1.80074678E+00  -7.74389765E+00  -3.39705005E+00  -6.01370562E+00  -4.40804542E+00  -2.80949444E+00  -1.30722197E+01  -1.23978281E+01  -1.07553438E+01  -1.31841412E+01  -8.79108754E+00  -8.21117693E+00  -1.07180310E+01  -1.39050346E+01  -2.37630722E+00  -5.14073359E+00  -3.17016890E+00  -4.19040854E+00  -8.33331374E+00  -2.91187565E+00  -4.38615702E+00  -6.64032462E+00  -6.30358876E+00  -4.10099072E+00  -6.91429052E+00  -1.38827609E+02  -1.03939767E+01  -6.44191668E+00  -1.16072186E+01  -1.15059830E+01  -7.51060914E+00  -3.20284862E+00  -9.81603644E+00  -3.67739267E+00  -5.94747653E+01  -1.22934987E+01  -8.41696578E+00  -1.96978121E+00  -4.30192998E+01  -6.61811546E+00  -8.12096394E+00  -4.62295869E+00  -7.61844719E+00  -7.11211323E+00  -7.83724063E+00  -8.06231405E+00  -1.03584488E+01  -8.98032612E+00  -7.05136991E+00  -6.33557251E+00  -1.20820542E+01  -6.15343143E+00  -1.34405509E+01  -6.81696461E+00  -1.02469328E+01  -1.50738058E+01  -1.50740644E+01  -2.04865396E+01  -1.14700868E+01  -2.03847196E+01  -2.03850219E+01  -2.94959607E+01  -2.99607651E+01
   2.36250000E+02   5.00000000E-01   5.00000000E-01  -6.91166116E+00  -1.46942562E+01  -3.25488724E+00  -1.32301179E+00  -1.95162148E+00  -3.23574404E+00  -1.98601875E+01  -6.71554908E+00  -5.11052075E+00  -2.61235713E-01  -4.16645341E+00  -1.95724995E+00  -1.01435172E+01  -3.33001764E-01  -1.79918393E+00  -7.74375457E+00  -3.39690234E+00  -6.02497546E+00  -4.40789771E+00  -2.79199864E+00  -1.30195422E+01  -1.23568160E+01  -1.07277210E+01  -1.31591852E+01  -8.77833259E+00  -8.20169385E+00  -1.07325720E+01  -1.38654909E+01  -2.37939464E+00  -5.16683892E+00  -3.15927468E+00  -4.19228869E+00  -8.29667851E+00  -2.90349621E+00  -4.33754944E+00  -6.60318863E+00  -6.26204042E+00  -4.06416682E+00  -6.90140183E+00  -1.37985121E+02  -1.03793870E+01  -6.42017578E+00  -1.15403389E+01  -1.14736750E+01  -7.45296542E+00  -3.20069237E+00  -9.79519137E+00  -3.67589757E+00  -5.90919667E+01  -1.22583825E+01  -8.40747723E+00  -1.97299772E+00  -4.27730156E+01  -6.61411103E+00  -8.13601794E+00  -4.62159801E+00  -7.56664814E+00  -7.09883204E+00  -7.86183985E+00  -8.05118500E+00  -1.03917960E+01  -8.99076332E+00  -7.03471193E+00  -6.33139788E+00  -1.20475998E+01  -6.14948341E+00  -1.33708619E+01  -6.79951742E+00  -1.02340540E+01  -1.50516674E+01  -1.50519253E+01  -2.04580701E+01  -1.14436687E+01  -2.03567646E+01  -2.03570655E+01  -2.94308160E+01  -2.98448067E+01
   2.53750000E+02   5.00000000E-01   5.00000000E-01  -6.87388106E+00  -1.46757740E+01  -3.22952973E+00  -1.32519419E+00  -1.94543349E+00  -3.20694717E+00  -1.98025265E+01  -6.71581425E+00  -5.11116089E+00  -2.61098639E-01  -4.16629606E+00  -1.95760505E+00  -1.01460355E+01  -3.32783857E-01  -1.79777970E+00  -7.74360185E+00  -3.39674499E+00  -6.03658919E+00  -4.40774036E+00  -2.77455815E+00  -1.29673301E+01  -1.23168713E+01  -1.07009849E+01  -1.31352810E+01  -8.76560434E+00  -8.19204401E+00  -1.07471042E+01  -1.38263668E+01  -2.38266001E+00  -5.19305973E+00  -3.14823498E+00  -4.19363499E+00  -8.26037038E+00  -2.89515427E+00  -4.29118563E+00  -6.56794902E+00  -6.22282156E+00  -4.02965630E+00  -6.88877685E+00  -1.37150593E+02  -1.03649381E+01  -6.39899891E+00  -1.14744412E+01  -1.14421791E+01  -7.39582991E+00  -3.19831043E+00  -9.77448541E+00  -3.67427427E+00  -5.87124534E+01  -1.22239747E+01  -8.39784206E+00  -1.97600405E+00  -4.25289173E+01  -6.61030741E+00  -8.15087897E+00  -4.62237398E+00  -7.51784475E+00  -7.08800748E+00  -7.88832721E+00  -8.04025563E+00  -1.04254213E+01  -9.00124465E+00  -7.01807136E+00  -6.32699814E+00  -1.20134566E+01  -6.14560402E+00  -1.33032626E+01  -6.78215944E+00  -1.02213473E+01  -1.50297721E+01  -1.50300297E+01  -2.04299501E+01  -1.14173238E+01  -2.03291539E+01  -2.03294535E+01  -2.93661150E+01  -2.97296760E+01
   2.71250000E+02   5.00000000E-01   5.00000000E-01  -6.83662231E+00  -1.46584325E+01  -3.20435268E+00  -1.32739114E+00  -1.93935615E+00  -3.18025137E+00  -1.97458493E+01  -6.71608515E+00  -5.11181043E+00  -2.60953341E-01  -4.16612934E+00  -1.95793855E+00  -1.01487517E+01  -3.32561275E-01  -1.79652494E+00  -7.74343976E+00  -3.39657827E+00  -6.04855774E+00  -4.40757364E+00  -2.75718461E+00  -1.29155704E+01  -1.22778643E+01  -1.06750299E+01  -1.31122855E+01  -8.75292718E+00  -8.18223795E+00  -1.07616606E+01  -1.37876685E+01  -2.38611552E+00  -5.21941423E+00  -3.13705779E+00  -4.19446898E+00  -8.22439586E+00  -2.88685510E+00  -4.24678435E+00  -6.53433704E+00  -6.18565614E+00  -3.99717678E+00  -6.87641741E+00  -1.36323888E+02  -1.03506307E+01  -6.37838782E+00  -1.14095142E+01  -1.14113834E+01  -7.33918452E+00  -3.19571472E+00  -9.75393040E+00  -3.67252726E+00  -5.83361756E+01  -1.21901815E+01  -8.38808111E+00  -1.97880715E+00  -4.22869767E+01  -6.60672991E+00  -8.16559334E+00  -4.62503351E+00  -7.47174572E+00  -7.07936989E+00  -7.91645544E+00  -8.02955372E+00  -1.04593420E+01  -9.01180166E+00  -7.00147297E+00  -6.32238437E+00  -1.19796331E+01  -6.14179978E+00  -1.32375898E+01  -6.76492455E+00  -1.02088576E+01  -1.50081878E+01  -1.50084456E+01  -2.04022697E+01  -1.13911219E+01  -2.03019774E+01  -2.03022761E+01  -2.93019957E+01  -2.96153449E+01
   2.88750000E+02   5.00000000E-01   5.00000000E-01  -6.79985826E+00  -1.46420203E+01  -3.17935935E+00  -1.32960335E+00  -1.93338583E+00  -3.15541739E+00  -1.96900830E+01  -6.71636204E+00  -5.11246867E+00  -2.60800079E-01  -4.16595349E+00  -1.95825095E+00  -1.01516723E+01  -3.32334002E-01  -1.79541113E+00  -7.74326855E+00  -3.39640242E+00  -6.06089164E+00  -4.40739779E+00  -2.73989783E+00  -1.28642444E+01  -1.22396263E+01  -1.06497220E+01  -1.30900113E+01  -8.74032588E+00  -8.17228560E+00  -1.07762795E+01  -1.37494076E+01  -2.38977440E+00  -5.24592723E+00  -3.12575072E+00  -4.19481123E+00  -8.18876675E+00  -2.87860379E+00  -4.20411667E+00  -6.50213566E+00  -6.15032593E+00  -3.96649829E+00  -6.86433098E+00  -1.35504864E+02  -1.03364620E+01  -6.35833839E+00  -1.13455354E+01  -1.13811416E+01  -7.28300625E+00  -3.19291686E+00  -9.73354356E+00  -3.67066131E+00  -5.79630789E+01  -1.21568795E+01  -8.37821993E+00  -1.98141388E+00  -4.20471660E+01  -6.60340270E+00  -8.18021102E+00  -4.62938187E+00  -7.42810679E+00  -7.07270156E+00  -7.94603413E+00  -8.01910604E+00  -1.04935807E+01  -9.02247160E+00  -6.98494182E+00  -6.31756701E+00  -1.19461426E+01  -6.13807682E+00  -1.31736454E+01  -6.74786821E+00  -1.01966565E+01  -1.49870224E+01  -1.49872809E+01  -2.03751724E+01  -1.13651756E+01  -2.02753787E+01  -2.02756768E+01  -2.92386764E+01  -2.95017719E+01
   3.06250000E+02   5.00000000E-01   5.00000000E-01  -6.76355827E+00  -1.46262858E+01  -3.15454947E+00  -1.33183150E+00  -1.92751911E+00  -3.13224676E+00  -1.96351424E+01  -6.71664513E+00  -5.11313487E+00  -2.60639093E-01  -4.16576875E+00  -1.95854299E+00  -1.01548057E+01  -3.32102021E-01  -1.79443033E+00  -7.74308844E+00  -3.39621768E+00  -6.07360141E+00  -4.40721305E+00  -2.72272393E+00  -1.28133292E+01  -1.22019565E+01  -1.06249033E+01  -1.30682349E+01  -8.72782571E+00  -8.16219636E+00  -1.07910045E+01  -1.37116001E+01  -2.39365103E+00  -5.27262934E+00  -3.11432104E+00  -4.19468141E+00  -8.15349928E+00  -2.87040520E+00  -4.16299389E+00  -6.47116757E+00  -6.11665754E+00  -3.93743122E+00  -6.85252971E+00  -1.34693371E+02  -1.03224268E+01  -6.33884192E+00  -1.12824733E+01  -1.13512795E+01  -7.22726807E+00  -3.18992818E+00  -9.71334654E+00  -3.66868140E+00  -5.75931049E+01  -1.21239213E+01  -8.36828788E+00  -1.98383096E+00  -4.18094578E+01  -6.60034910E+00  -8.19478519E+00  -4.63526987E+00  -7.38671989E+00  -7.06782500E+00  -7.97691706E+00  -8.00893861E+00  -1.05281646E+01  -9.03329661E+00  -6.96850350E+00  -6.31255595E+00  -1.19130030E+01  -6.13444083E+00  -1.31112022E+01  -6.73106272E+00  -1.01848367E+01  -1.49664152E+01  -1.49666752E+01  -2.03488439E+01  -1.13396315E+01  -2.02495432E+01  -2.02498413E+01  -2.91764383E+01  -2.93889034E+01
   3.23750000E+02   5.00000000E-01   5.00000000E-01  -6.72769146E+00  -1.46109719E+01  -3.12992277E+00  -1.33407621E+00  -1.92175276E+00  -3.11057303E+00  -1.95809420E+01  -6.71693462E+00  -5.11380829E+00  -2.60470615E-01  -4.16557533E+00  -1.95881563E+00  -1.01581615E+01  -3.31865320E-01  -1.79357511E+00  -7.74289965E+00  -3.39602426E+00  -6.08669689E+00  -4.40701963E+00  -2.70569206E+00  -1.27628010E+01  -1.21646492E+01  -1.06004124E+01  -1.30467275E+01  -8.71545218E+00  -8.15197912E+00  -1.08058796E+01  -1.36742622E+01  -2.39776061E+00  -5.29955282E+00  -3.10277568E+00  -4.19409828E+00  -8.11861027E+00  -2.86226397E+00  -4.12325883E+00  -6.44128639E+00  -6.08450991E+00  -3.90981754E+00  -6.84102661E+00  -1.33889260E+02  -1.03085197E+01  -6.31988831E+00  -1.12202942E+01  -1.13216185E+01  -7.17194265E+00  -3.18675967E+00  -9.69336160E+00  -3.66659261E+00  -5.72261952E+01  -1.20911553E+01  -8.35831440E+00  -1.98606495E+00  -4.15738251E+01  -6.59759108E+00  -8.20936780E+00  -4.64258099E+00  -7.34740763E+00  -7.06459359E+00  -8.00898912E+00  -7.99907616E+00  -1.05631209E+01  -9.04431968E+00  -6.95218375E+00  -6.30736051E+00  -1.18802323E+01  -6.13089712E+00  -1.30500320E+01  -6.71458693E+00  -1.01734979E+01  -1.49465162E+01  -1.49467786E+01  -2.03234837E+01  -1.13146489E+01  -2.02246706E+01  -2.02249694E+01  -2.91155838E+01  -2.92766862E+01
   3.41250000E+02   5.00000000E-01   5.00000000E-01  -6.69223074E+00  -1.45958532E+01  -3.10548243E+00  -1.33633808E+00  -1.91608374E+00  -3.09025530E+00  -1.95274071E+01  -6.71723067E+00  -5.11448816E+00  -2.60294862E-01  -4.16537344E+00  -1.95907000E+00  -1.01617479E+01  -3.31623884E-01  -1.79283853E+00  -7.74270240E+00  -3.39582237E+00  -6.10018625E+00  -4.40681774E+00  -2.68883076E+00  -1.27126395E+01  -1.21275229E+01  -1.05761050E+01  -1.30252882E+01  -8.70323050E+00  -8.14164224E+00  -1.08209455E+01  -1.36374067E+01  -2.40211864E+00  -5.32672699E+00  -3.09112126E+00  -4.19307976E+00  -8.08411314E+00  -2.85418451E+00  -4.08477934E+00  -6.41237032E+00  -6.05376377E+00  -3.88352433E+00  -6.82983158E+00  -1.33092392E+02  -1.02947379E+01  -6.30146905E+00  -1.11589695E+01  -1.12920002E+01  -7.11700639E+00  -3.18342198E+00  -9.67360749E+00  -3.66440012E+00  -5.68622952E+01  -1.20584463E+01  -8.34832494E+00  -1.98812226E+00  -4.13402413E+01  -6.59514820E+00  -8.22400464E+00  -4.65122037E+00  -7.31001976E+00  -7.06288412E+00  -8.04215478E+00  -7.98954101E+00  -1.05984719E+01  -9.05558007E+00  -6.93600800E+00  -6.30198950E+00  -1.18478449E+01  -6.12745058E+00  -1.29899345E+01  -6.69851490E+00  -1.01627313E+01  -1.49274629E+01  -1.49277286E+01  -2.02992747E+01  -1.12903776E+01  -2.02009436E+01  -2.02012438E+01  -2.90563896E+01  -2.91650795E+01