 TITLE = "Total Concentrations" 
VARIABLES = "X"          "Y"              "Z"            "H+"             "Al+++"          "CO2(aq)"        "Mg++"           "Ca++"           "Fe++"           "Fe+++"          "Ba++"           "Sr++"           "Li+"            "Rb+"            "Mn++"           "Zn++"           "Cu++"           "Cu+"            "Cl-"            "F-"             "K+"             "HS-"            "Na+"            "SO4--"          "O2(aq)"         "B(OH)3(aq)"     "HPO4--"         "NO3-"           "H4SiO4(aq)"     "Ti(OH)4(aq)"    "HNO3(aq)"       "Al(OH)2+"       "AlO2-"          "AlOH++"         "BaHCO3+"        "BaCl+"          "BaCO3(aq)"      "BaOH+"          "HCO3-"          "CO3--"          "CaCl+"          "CaCl2(aq)"      "CaOH+"          "CaSO4(aq)"      "FeCl+"          "FeCl2(aq)"      "FeOH+"          "FeSO4(aq)"      "OH-"            "LiCl(aq)"       "LiOH(aq)"       "RbCl(aq)"       "RbOH(aq)"       "S2O3--"         "H2S(aq)"        "H2PO4-"         "H3PO4(aq)"      "HAlO2(aq)"      "HSO4-"          "KCl(aq)"        "KOH(aq)"        "KSO4-"          "NH3(aq)"        "NaAlO2(aq)"     "NaOH(aq)"       "NaSO4-"         "H2(aq)"         "CaHPO4(aq)"     "CaPO4-"         "FeCO3(aq)"      "FeH2PO4+"       "FeHPO4(aq)"     "FePO4-"         "KHPO4-"         "PO4---"         "Sr(CO3)(aq)"    "SrHCO3+"        "SrCl+"          "SrOH+"          "SrSO4(aq)"      "AlH3SiO4++"     "Si2O2(OH)5-"    "Si2O3(OH)4--"   "Si3O5(OH)5---"  "Si3O6(OH)3---"  "Si4O12H4----"   "Si4O6(OH)6--"   "Si4O7(OH)6----" "Si4O8(OH)4----" "Si6O15------"   "SiF6--"        
 ZONE I=         200 , J=           1 , K=           1  F=POINT
   8.75000000E+00   5.00000000E-01   5.00000000E-01  -7.81796003E+00  -1.75014151E+01  -3.94349587E+00  -1.29415859E+00  -2.04425413E+00  -4.43282602E+00  -2.17619461E+01  -6.93814340E+00  -5.10352561E+00  -4.61181000E+00  -5.85969344E+00  -5.25103683E+00  -6.41110421E+00  -8.84705562E+00  -8.91431760E+00  -2.62095107E-01  -4.16749347E+00  -1.95183886E+00  -2.49459608E+01  -3.35549868E-01  -1.83620235E+00  -7.74473459E+00  -3.39794256E+00  -5.87577081E+00  -4.40893793E+00  -3.38596035E+00  -8.67855854E+00  -1.41025551E+01  -1.46942306E+01  -1.21534952E+01  -1.56491773E+01  -9.15136333E+00  -8.53298437E+00  -1.03877631E+01  -1.42782928E+01  -2.33798546E+00  -4.46224830E+00  -3.28616076E+00  -4.11697515E+00  -8.43897335E+00  -3.01336482E+00  -5.74456456E+00  -7.82857296E+00  -7.22522941E+00  -5.32422680E+00  -6.73211347E+00  -6.81007768E+00  -1.13487123E+01  -7.72972066E+00  -1.33741779E+01  -1.50326268E+02  -2.57556015E+01  -7.07764161E+00  -1.31790933E+01  -1.33139697E+01  -8.60647273E+00  -3.20717524E+00  -9.71644913E+00  -3.68502478E+00  -6.47007721E+01  -1.37627311E+01  -8.15383200E+00  -1.91233156E+00  -4.61561929E+01  -6.64602603E+00  -7.52389264E+00  -5.02752583E+00  -9.40988787E+00  -8.03364717E+00  -7.89382130E+00  -8.17559275E+00  -9.59111665E+00  -8.47835883E+00  -7.23204533E+00  -6.36337323E+00  -1.21594445E+01  -6.20355105E+00  -1.68986225E+01  -7.39628603E+00  -1.04163557E+01  -1.53603276E+01  -1.53605680E+01  -2.08582099E+01  -1.25180007E+01  -2.07498394E+01  -2.07501052E+01  -3.03145797E+01  -3.32212916E+01
   2.62500000E+01   5.00000000E-01   5.00000000E-01  -7.59720566E+00  -1.63098286E+01  -3.74594411E+00  -1.29678695E+00  -2.03624453E+00  -4.10164130E+00  -2.11635579E+01  -7.06383792E+00  -5.10390789E+00  -4.61180795E+00  -5.85983809E+00  -4.95022811E+00  -6.15481847E+00  -8.84639567E+00  -8.91499123E+00  -2.62098399E-01  -4.16749087E+00  -1.95178706E+00  -2.59249384E+01  -3.35354712E-01  -1.83174534E+00  -7.74473676E+00  -3.39794013E+00  -5.89146142E+00  -4.40893551E+00  -3.20209089E+00  -8.67725887E+00  -1.38692384E+01  -1.38351629E+01  -1.16600460E+01  -1.46311457E+01  -9.26930092E+00  -8.65200844E+00  -1.07081128E+01  -1.45337657E+01  -2.34327451E+00  -4.66574153E+00  -3.27782569E+00  -4.12736796E+00  -8.57300877E+00  -3.00501451E+00  -5.39883315E+00  -7.49967913E+00  -7.05989349E+00  -4.98924032E+00  -6.89012766E+00  -6.81001134E+00  -1.15103369E+01  -7.71895128E+00  -1.35260074E+01  -1.49028427E+02  -2.65440976E+01  -6.88295894E+00  -1.27592053E+01  -1.26422088E+01  -8.36706639E+00  -3.20817606E+00  -9.86828526E+00  -3.68468222E+00  -6.41003760E+01  -1.32650245E+01  -8.32198361E+00  -1.91857987E+00  -4.58812813E+01  -6.64962033E+00  -7.72715927E+00  -4.91005684E+00  -8.88459407E+00  -7.72922634E+00  -7.81009156E+00  -8.17161167E+00  -9.80417833E+00  -8.66832957E+00  -7.22069248E+00  -6.36291484E+00  -1.22959467E+01  -6.19930193E+00  -1.56548038E+01  -7.22132589E+00  -1.04199739E+01  -1.53631892E+01  -1.53634373E+01  -2.08626973E+01  -1.21780038E+01  -2.07548962E+01  -2.07551737E+01  -3.03003437E+01  -3.22306755E+01
   4.37500000E+01   5.00000000E-01   5.00000000E-01  -7.47535485E+00  -1.58133782E+01  -3.64544372E+00  -1.29926826E+00  -2.02841297E+00  -3.91478984E+00  -2.08611993E+01  -7.11539745E+00  -5.10435026E+00  -4.61179321E+00  -5.85997218E+00  -4.77415516E+00  -5.99471184E+00  -8.84572180E+00  -8.91565106E+00  -2.62088021E-01  -4.16747335E+00  -1.95174299E+00  -2.55942601E+01  -3.35161133E-01  -1.82762014E+00  -7.74472401E+00  -3.39792278E+00  -5.90516432E+00  -4.40891816E+00  -3.08022864E+00  -8.67613036E+00  -1.37346054E+01  -1.34744237E+01  -1.14683138E+01  -1.42096708E+01  -9.31171573E+00  -8.69656135E+00  -1.08547481E+01  -1.46173807E+01  -2.34752599E+00  -4.77001478E+00  -3.26922077E+00  -4.13689212E+00  -8.60923522E+00  -2.99664669E+00  -5.19710816E+00  -7.31424937E+00  -6.94054423E+00  -4.79837834E+00  -6.95034869E+00  -6.80958117E+00  -1.15738336E+01  -7.70812248E+00  -1.35799575E+01  -1.47936568E+02  -2.61209658E+01  -6.78467580E+00  -1.25343524E+01  -1.23702254E+01  -8.22649892E+00  -3.20879520E+00  -9.92207391E+00  -3.68420435E+00  -6.36019865E+01  -1.30686759E+01  -8.39163196E+00  -1.92454760E+00  -4.56089404E+01  -6.65085758E+00  -7.82931279E+00  -4.83699891E+00  -8.60009180E+00  -7.56670683E+00  -7.76931781E+00  -8.16524820E+00  -9.91704956E+00  -8.75883100E+00  -7.20797675E+00  -6.36209534E+00  -1.23346296E+01  -6.19508008E+00  -1.50710020E+01  -7.07214128E+00  -1.03512309E+01  -1.52574745E+01  -1.52577284E+01  -2.07224651E+01  -1.18894187E+01  -2.06152296E+01  -2.06155164E+01  -3.00688085E+01  -3.16954975E+01
   6.12500000E+01   5.00000000E-01   5.00000000E-01  -7.38845053E+00  -1.55321577E+01  -3.57841708E+00  -1.30165325E+00  -2.02075314E+00  -3.78438170E+00  -2.06630123E+01  -7.12418502E+00  -5.10482339E+00  -4.61176633E+00  -5.86009648E+00  -4.64917357E+00  -5.87797007E+00  -8.84503465E+00  -8.91629773E+00  -2.62064593E-01  -4.16744156E+00  -1.95170652E+00  -2.53009488E+01  -3.34972911E-01  -1.82380627E+00  -7.74469700E+00  -3.39789117E+00  -5.91745726E+00  -4.40888654E+00  -2.99916026E+00  -8.67518811E+00  -1.36347114E+01  -1.32600037E+01  -1.13541738E+01  -1.39688000E+01  -9.31034236E+00  -8.69801918E+00  -1.09233372E+01  -1.46244331E+01  -2.35109470E+00  -4.83935891E+00  -3.26035599E+00  -4.14557546E+00  -8.61158578E+00  -2.98825541E+00  -5.05151509E+00  -7.18442553E+00  -6.84323915E+00  -4.66375238E+00  -6.97670361E+00  -6.80880150E+00  -1.16031437E+01  -7.69723868E+00  -1.35999615E+01  -1.46922643E+02  -2.57692976E+01  -6.71942856E+00  -1.23772269E+01  -1.22099577E+01  -8.12081002E+00  -3.20904761E+00  -9.94175484E+00  -3.68358696E+00  -6.31416078E+01  -1.29495809E+01  -8.42673648E+00  -1.93023863E+00  -4.53391318E+01  -6.65032977E+00  -7.89490593E+00  -4.78477830E+00  -8.40512223E+00  -7.45878259E+00  -7.74815571E+00  -8.15710491E+00  -9.99424994E+00  -8.81413893E+00  -7.19424258E+00  -6.36090059E+00  -1.23394004E+01  -6.19085308E+00  -1.47100064E+01  -6.97025450E+00  -1.02955964E+01  -1.51713951E+01  -1.51716532E+01  -2.06084514E+01  -1.16952962E+01  -2.05017776E+01  -2.05020716E+01  -2.98764350E+01  -3.13388013E+01
   7.87500000E+01   5.00000000E-01   5.00000000E-01  -7.31713573E+00  -1.53321181E+01  -3.52589916E+00  -1.30396685E+00  -2.01325821E+00  -3.68417102E+00  -2.05109351E+01  -7.11200226E+00  -5.10531893E+00  -4.61172784E+00  -5.86021160E+00  -4.55218838E+00  -5.78602886E+00  -8.84433482E+00  -8.91693185E+00  -2.62028692E-01  -4.16739610E+00  -1.95167729E+00  -2.50255984E+01  -3.34790724E-01  -1.82028427E+00  -7.74465631E+00  -3.39784588E+00  -5.92907895E+00  -4.40884125E+00  -2.94494986E+00  -8.67441870E+00  -1.35502134E+01  -1.30965534E+01  -1.12609627E+01  -1.37938379E+01  -9.28736776E+00  -8.67819944E+00  -1.09554038E+01  -1.45960602E+01  -2.35434690E+00  -4.89347413E+00  -3.25124283E+00  -4.15344966E+00  -8.59939536E+00  -2.97984231E+00  -4.93582558E+00  -7.08399800E+00  -6.76108198E+00  -4.55912611E+00  -6.98851994E+00  -6.80768869E+00  -1.16176109E+01  -7.68630768E+00  -1.36053561E+01  -1.45947814E+02  -2.54503569E+01  -6.66861736E+00  -1.22498859E+01  -1.20854065E+01  -8.03064298E+00  -3.20895082E+00  -9.94667072E+00  -3.68283026E+00  -6.26998506E+01  -1.28510951E+01  -8.44665556E+00  -1.93565808E+00  -4.50718201E+01  -6.64879643E+00  -7.94405640E+00  -4.74688105E+00  -8.25483700E+00  -7.37996054E+00  -7.74047141E+00  -8.14794816E+00  -1.00558547E+01  -8.85396695E+00  -7.17986902E+00  -6.35934019E+00  -1.23295905E+01  -6.18661838E+00  -1.44431414E+01  -6.90713883E+00  -1.02638885E+01  -1.51211813E+01  -1.51214423E+01  -2.05422926E+01  -1.15785867E+01  -2.04361765E+01  -2.04364757E+01  -2.97557004E+01  -3.10693029E+01
   9.62500000E+01   5.00000000E-01   5.00000000E-01  -7.25578492E+00  -1.51830429E+01  -3.48238477E+00  -1.30622409E+00  -2.00592144E+00  -3.60295138E+00  -2.03880986E+01  -7.09041854E+00  -5.10583424E+00  -4.61167818E+00  -5.86031814E+00  -4.47290960E+00  -5.71016549E+00  -8.84362285E+00  -8.91755398E+00  -2.61980844E-01  -4.16733753E+00  -1.95165487E+00  -2.47625347E+01  -3.34612870E-01  -1.81703613E+00  -7.74460251E+00  -3.39778748E+00  -5.94023435E+00  -4.40878285E+00  -2.90770442E+00  -8.67380670E+00  -1.34755003E+01  -1.29650948E+01  -1.11809268E+01  -1.36601914E+01  -9.25447543E+00  -8.64868794E+00  -1.09682381E+01  -1.45494371E+01  -2.35737749E+00  -4.93805763E+00  -3.24189308E+00  -4.16054706E+00  -8.57826863E+00  -2.97141231E+00  -4.83885088E+00  -7.00179720E+00  -6.68848535E+00  -4.47330577E+00  -6.99139461E+00  -6.80625931E+00  -1.16228484E+01  -7.67533820E+00  -1.36017483E+01  -1.45000712E+02  -2.51528705E+01  -6.62684058E+00  -1.21413167E+01  -1.19832137E+01  -7.95037431E+00  -3.20852285E+00  -9.94243409E+00  -3.68193663E+00  -6.22710594E+01  -1.27654814E+01  -8.45701440E+00  -1.94081074E+00  -4.48069716E+01  -6.64648514E+00  -7.98261759E+00  -4.71783107E+00  -8.13262641E+00  -7.31925583E+00  -7.74090691E+00  -8.13801067E+00  -1.01076726E+01  -8.88403332E+00  -7.16496961E+00  -6.35742997E+00  -1.23108072E+01  -6.18238268E+00  -1.42358765E+01  -6.86862057E+00  -1.02475462E+01  -1.50939933E+01  -1.50942558E+01  -2.05068671E+01  -1.15109457E+01  -2.04013044E+01  -2.04016072E+01  -2.96809329E+01  -3.08546831E+01
   1.13750000E+02   5.00000000E-01   5.00000000E-01  -7.20151548E+00  -1.50720621E+01  -3.44506996E+00  -1.30844135E+00  -1.99873647E+00  -3.53479992E+00  -2.02858624E+01  -7.06490748E+00  -5.10636776E+00  -4.61161779E+00  -5.86041661E+00  -4.40584748E+00  -5.64557661E+00  -8.84289927E+00  -8.91816464E+00  -2.61921541E-01  -4.16726635E+00  -1.95163885E+00  -2.45088280E+01  -3.34436690E-01  -1.81404555E+00  -7.74453611E+00  -3.39771647E+00  -5.95104157E+00  -4.40871184E+00  -2.88062256E+00  -8.67333720E+00  -1.34077032E+01  -1.28585107E+01  -1.11126878E+01  -1.35578703E+01  -9.21721159E+00  -8.61497408E+00  -1.09702511E+01  -1.44929010E+01  -2.36024056E+00  -4.97602372E+00  -3.23231819E+00  -4.16689892E+00  -8.55106810E+00  -2.96297126E+00  -4.75468505E+00  -6.93193560E+00  -6.62240264E+00  -4.40038165E+00  -6.98818264E+00  -6.80452924E+00  -1.16217267E+01  -7.66433859E+00  -1.35920028E+01  -1.44075459E+02  -2.48710520E+01  -6.59135200E+00  -1.20459038E+01  -1.18991394E+01  -7.87712440E+00  -3.20778101E+00  -9.93191494E+00  -3.68090942E+00  -6.18523219E+01  -1.26913771E+01  -8.46069408E+00  -1.94570126E+00  -4.45445533E+01  -6.64353598E+00  -8.01361221E+00  -4.69465163E+00  -8.02981986E+00  -7.27087993E+00  -7.74655747E+00  -8.12743711E+00  -1.01526831E+01  -8.90727361E+00  -7.14961732E+00  -6.35518614E+00  -1.22859162E+01  -6.17815436E+00  -1.40713778E+01  -6.84396650E+00  -1.02387063E+01  -1.50780372E+01  -1.50783005E+01  -2.04864486E+01  -1.14709096E+01  -2.03814349E+01  -2.03817399E+01  -2.96285521E+01  -3.06766821E+01
   1.31250000E+02   5.00000000E-01   5.00000000E-01  -7.15214124E+00  -1.49882706E+01  -3.41186328E+00  -1.31063473E+00  -1.99169740E+00  -3.47617564E+00  -2.01976752E+01  -7.03796553E+00  -5.10691803E+00  -4.61154708E+00  -5.86050751E+00  -4.34772488E+00  -5.58933331E+00  -8.84216454E+00  -8.91876430E+00  -2.61851242E-01  -4.16718304E+00  -1.95162886E+00  -2.42622465E+01  -3.34259735E-01  -1.81129746E+00  -7.74445758E+00  -3.39763334E+00  -5.96165114E+00  -4.40862871E+00  -2.85933176E+00  -8.67299492E+00  -1.33446489E+01  -1.27702560E+01  -1.10540480E+01  -1.34781532E+01  -9.17816144E+00  -8.57956934E+00  -1.09661967E+01  -1.44311156E+01  -2.36300728E+00  -5.00960826E+00  -3.22252924E+00  -4.17253524E+00  -8.51996054E+00  -2.95452523E+00  -4.67980322E+00  -6.87090593E+00  -6.56147274E+00  -4.33682565E+00  -6.98104364E+00  -6.80251359E+00  -1.16164202E+01  -7.65331666E+00  -1.35782883E+01  -1.43167574E+02  -2.46005081E+01  -6.56013344E+00  -1.19594561E+01  -1.18288195E+01  -7.80871034E+00  -3.20674179E+00  -9.91728708E+00  -3.67975227E+00  -6.14414224E+01  -1.26265987E+01  -8.45987917E+00  -1.95033467E+00  -4.42845327E+01  -6.64012039E+00  -8.03939789E+00  -4.67606788E+00  -7.94085674E+00  -7.23145790E+00  -7.75623546E+00  -8.11640315E+00  -1.01932025E+01  -8.92594370E+00  -7.13390129E+00  -6.35262415E+00  -1.22570871E+01  -6.17394172E+00  -1.39365102E+01  -6.82660497E+00  -1.02329710E+01  -1.50667177E+01  -1.50669809E+01  -2.04722418E+01  -1.14453378E+01  -2.03677725E+01  -2.03680787E+01  -2.95853736E+01  -3.05222516E+01
   1.48750000E+02   5.00000000E-01   5.00000000E-01  -7.10609078E+00  -1.49231180E+01  -3.38128657E+00  -1.31281710E+00  -1.98479874E+00  -3.42480313E+00  -2.01188303E+01  -7.01072801E+00  -5.10748376E+00  -4.61146642E+00  -5.86059128E+00  -4.29642794E+00  -5.53951714E+00  -8.84141910E+00  -8.91935339E+00  -2.61770375E-01  -4.16708804E+00  -1.95162454E+00  -2.40211745E+01  -3.34080198E-01  -1.80877764E+00  -7.74436737E+00  -3.39753852E+00  -5.97221118E+00  -4.40853389E+00  -2.84118023E+00  -8.67276383E+00  -1.32847783E+01  -1.26949111E+01  -1.10027063E+01  -1.34140586E+01  -9.13854759E+00  -8.54362337E+00  -1.09588521E+01  -1.43667693E+01  -2.36574817E+00  -5.04043249E+00  -3.21253697E+00  -4.17748496E+00  -8.48649867E+00  -2.94608031E+00  -4.61194532E+00  -6.81646501E+00  -6.50498544E+00  -4.28037482E+00  -6.97152338E+00  -6.80022678E+00  -1.16084889E+01  -7.64227982E+00  -1.35621592E+01  -1.42273807E+02  -2.43380756E+01  -6.53177843E+00  -1.18790078E+01  -1.17684006E+01  -7.74356411E+00  -3.20542101E+00  -9.90010989E+00  -3.67846896E+00  -6.10367601E+01  -1.25688596E+01  -8.45613988E+00  -1.95471662E+00  -4.40268779E+01  -6.63640667E+00  -8.06171416E+00  -4.66145463E+00  -7.86205377E+00  -7.19887746E+00  -7.76940107E+00  -8.10508084E+00  -1.02309307E+01  -8.94168403E+00  -7.11790930E+00  -6.34975888E+00  -1.22258754E+01  -6.16975286E+00  -1.38216004E+01  -6.81279125E+00  -1.02281545E+01  -1.50567575E+01  -1.50570202E+01  -2.04598760E+01  -1.14267435E+01  -2.03559465E+01  -2.03562529E+01  -2.95448489E+01  -3.03825200E+01
   1.66250000E+02   5.00000000E-01   5.00000000E-01  -7.06231595E+00  -1.48705588E+01  -3.35237238E+00  -1.31499758E+00  -1.97803531E+00  -3.37914142E+00  -2.00461902E+01  -6.98371464E+00  -5.10806378E+00  -4.61137615E+00  -5.86066834E+00  -4.25051336E+00  -5.49480296E+00  -8.84066334E+00  -8.91993235E+00  -2.61679340E-01  -4.16698176E+00  -1.95162557E+00  -2.37845209E+01  -3.33896905E-01  -1.80647262E+00  -7.74426587E+00  -3.39743241E+00  -5.98284428E+00  -4.40842778E+00  -2.82463918E+00  -8.67262724E+00  -1.32270552E+01  -1.26285151E+01  -1.09567745E+01  -1.33605866E+01  -9.09896463E+00  -8.50766960E+00  -1.09498437E+01  -1.43014120E+01  -2.36852207E+00  -5.06958346E+00  -3.20235179E+00  -4.18177597E+00  -8.45171258E+00  -2.93764262E+00  -4.54958508E+00  -6.76710280E+00  -6.45244185E+00  -4.22950031E+00  -6.96064529E+00  -6.79768258E+00  -1.15989695E+01  -7.63123508E+00  -1.35446470E+01  -1.41391955E+02  -2.40816382E+01  -6.50537756E+00  -1.18026133E+01  -1.17149652E+01  -7.68064096E+00  -3.20383384E+00  -9.88141979E+00  -3.67706332E+00  -6.06372579E+01  -1.25162859E+01  -8.45052357E+00  -1.95885333E+00  -4.37715576E+01  -6.63253682E+00  -8.08175088E+00  -4.65038575E+00  -7.79095935E+00  -7.17173481E+00  -7.78569961E+00  -8.09361554E+00  -1.02670194E+01  -8.95560006E+00  -7.10171678E+00  -6.34660470E+00  -1.21933138E+01  -6.16559578E+00  -1.37200814E+01  -6.80050348E+00  -1.02232714E+01  -1.50466789E+01  -1.50469407E+01  -2.04473803E+01  -1.14110853E+01  -2.03439856E+01  -2.03442916E+01  -2.95040276E+01  -3.02518286E+01
   1.83750000E+02   5.00000000E-01   5.00000000E-01  -7.02014186E+00  -1.48264966E+01  -3.32451318E+00  -1.31718232E+00  -1.97140226E+00  -3.33810150E+00  -1.99777374E+01  -6.95716333E+00  -5.10865706E+00  -4.61127659E+00  -5.86073908E+00  -4.20895171E+00  -5.45423698E+00  -8.83989765E+00  -8.92050154E+00  -2.61578511E-01  -4.16686457E+00  -1.95163165E+00  -2.35515690E+01  -3.33709152E-01  -1.80436969E+00  -7.74415346E+00  -3.39731540E+00  -5.99364483E+00  -4.40831078E+00  -2.80886984E+00  -8.67256799E+00  -1.31708157E+01  -1.25683097E+01  -1.09148212E+01  -1.33143130E+01  -9.05971203E+00  -8.47195909E+00  -1.09401304E+01  -1.42359393E+01  -2.37137521E+00  -5.09776312E+00  -3.19198375E+00  -4.18543514E+00  -8.41625970E+00  -2.92921824E+00  -4.49164750E+00  -6.72175988E+00  -6.40342183E+00  -4.18312484E+00  -6.94906042E+00  -6.79489417E+00  -1.15885260E+01  -7.62018910E+00  -1.35264105E+01  -1.40520567E+02  -2.38298266E+01  -6.48036590E+00  -1.17290439E+01  -1.16664251E+01  -7.61926946E+00  -3.20199481E+00  -9.86188021E+00  -3.67553923E+00  -6.02422119E+01  -1.24674603E+01  -8.44370460E+00  -1.96275142E+00  -4.35185410E+01  -6.62862390E+00  -8.10029557E+00  -4.64250075E+00  -7.72591837E+00  -7.14904948E+00  -7.80482634E+00  -8.08212332E+00  -1.03022193E+01  -8.96841137E+00  -7.08538593E+00  -6.34317546E+00  -1.21600621E+01  -6.16147832E+00  -1.36276528E+01  -6.78872675E+00  -1.02179697E+01  -1.50359551E+01  -1.50362157E+01  -2.04340512E+01  -1.13963358E+01  -2.03311865E+01  -2.03314914E+01  -2.94618602E+01  -3.01266990E+01
   2.01250000E+02   5.00000000E-01   5.00000000E-01  -6.97914018E+00  -1.47881984E+01  -3.29733701E+00  -1.31937540E+00  -1.96489501E+00  -3.30088599E+00  -1.99121940E+01  -6.93118024E+00  -5.10926267E+00  -4.61116804E+00  -5.86080386E+00  -4.17098295E+00  -5.41710983E+00  -8.83912238E+00  -8.92106131E+00  -2.61468238E-01  -4.16673682E+00  -1.95164247E+00  -2.33218501E+01  -3.33516540E-01  -1.80245691E+00  -7.74403051E+00  -3.39718784E+00  -6.00468351E+00  -4.40818321E+00  -2.79343746E+00  -8.67256863E+00  -1.31156424E+01  -1.25124071E+01  -1.08757934E+01  -1.32729307E+01  -9.02094667E+00  -8.43661053E+00  -1.09302822E+01  -1.41708684E+01  -2.37434371E+00  -5.12541745E+00  -3.18144253E+00  -4.18848828E+00  -8.38055146E+00  -2.92081318E+00  -4.43734856E+00  -6.67966717E+00  -6.35755047E+00  -4.14046237E+00  -6.93717410E+00  -6.79187410E+00  -1.15775760E+01  -7.60914817E+00  -1.35078623E+01  -1.39658685E+02  -2.35817649E+01  -6.45640072E+00  -1.16575393E+01  -1.16213164E+01  -7.55902477E+00  -3.19991785E+00  -9.84190834E+00  -3.67390065E+00  -5.98511654E+01  -1.24213435E+01  -8.43611087E+00  -1.96641775E+00  -4.32677980E+01  -6.62475648E+00  -8.11786462E+00  -4.63747366E+00  -7.66578965E+00  -7.13010843E+00  -7.82649738E+00  -8.07069544E+00  -1.03370118E+01  -8.98058073E+00  -7.06896809E+00  -6.33948447E+00  -1.21265340E+01  -6.15740811E+00  -1.35415366E+01  -6.77700786E+00  -1.02122129E+01  -1.50245318E+01  -1.50247914E+01  -2.04198161E+01  -1.13815907E+01  -2.03174763E+01  -2.03177800E+01  -2.94182422E+01  -3.00050400E+01
   2.18750000E+02   5.00000000E-01   5.00000000E-01  -6.93904041E+00  -1.47538517E+01  -3.27062161E+00  -1.32157956E+00  -1.95850922E+00  -3.26689350E+00  -1.98487553E+01  -6.90580852E+00  -5.10987975E+00  -4.61105079E+00  -5.86086301E+00  -4.13602994E+00  -5.38287957E+00  -8.83833784E+00  -8.92161201E+00  -2.61348848E-01  -4.16659885E+00  -1.95165779E+00  -2.30950544E+01  -3.33318858E-01  -1.80072306E+00  -7.74389732E+00  -3.39705005E+00  -6.01601273E+00  -4.40804542E+00  -2.77813409E+00  -8.67261163E+00  -1.30612746E+01  -1.24595248E+01  -1.08389282E+01  -1.32348951E+01  -8.98275431E+00  -8.40167899E+00  -1.09206406E+01  -1.41064964E+01  -2.37745627E+00  -5.15282792E+00  -3.17073742E+00  -4.19096015E+00  -8.34484195E+00  -2.91243334E+00  -4.38609961E+00  -6.64025031E+00  -6.31449105E+00  -4.10092249E+00  -6.92523466E+00  -6.78863430E+00  -1.15663793E+01  -7.59811818E+00  -1.34892576E+01  -1.38805670E+02  -2.33368934E+01  -6.43327824E+00  -1.15876354E+01  -1.15786225E+01  -7.49963996E+00  -3.19761624E+00  -9.82176375E+00  -3.67215160E+00  -5.94638193E+01  -1.23771857E+01  -8.42801242E+00  -1.96985934E+00  -4.30192988E+01  -6.62100397E+00  -8.13479737E+00  -4.63500877E+00  -7.60976700E+00  -7.11437582E+00  -7.85044813E+00  -8.05940380E+00  -1.03717025E+01  -8.99240552E+00  -7.05250653E+00  -6.33554443E+00  -1.20929858E+01  -6.15339252E+00  -1.34599452E+01  -6.76518962E+00  -1.02061029E+01  -1.50125628E+01  -1.50128214E+01  -2.04048794E+01  -1.13665378E+01  -2.03030594E+01  -2.03033616E+01  -2.93734840E+01  -2.98856163E+01
   2.36250000E+02   5.00000000E-01   5.00000000E-01  -6.89967189E+00  -1.47222591E+01  -3.24423867E+00  -1.32379666E+00  -1.95224080E+00  -3.23565901E+00  -1.97869165E+01  -6.88106052E+00  -5.11050748E+00  -4.61092509E+00  -5.86091683E+00  -4.10364408E+00  -5.35112285E+00  -8.83754435E+00  -8.92215394E+00  -2.61220650E-01  -4.16645095E+00  -1.95167734E+00  -2.28709731E+01  -3.33116000E-01  -1.79915768E+00  -7.74375422E+00  -3.39690234E+00  -6.02767115E+00  -4.40789771E+00  -2.76287384E+00  -8.67267955E+00  -1.30075515E+01  -1.24087955E+01  -1.08036788E+01  -1.31991768E+01  -8.94518405E+00  -8.36718817E+00  -1.09114113E+01  -1.40429900E+01  -2.38073645E+00  -5.18017170E+00  -3.15987731E+00  -4.19287445E+00  -8.30928587E+00  -2.90408448E+00  -4.33744771E+00  -6.60307003E+00  -6.27394342E+00  -4.06405073E+00  -6.91339137E+00  -6.78518616E+00  -1.15550963E+01  -7.58710464E+00  -1.34707521E+01  -1.37961086E+02  -2.30948524E+01  -6.41088017E+00  -1.15190529E+01  -1.15376423E+01  -7.44094800E+00  -3.19510264E+00  -9.80160637E+00  -3.67029613E+00  -5.90799748E+01  -1.23344529E+01  -8.41957934E+00  -1.97308323E+00  -4.27730143E+01  -6.61742124E+00  -8.15131864E+00  -4.63484127E+00  -7.55726614E+00  -7.10143789E+00  -7.87643619E+00  -8.04830549E+00  -1.04064843E+01  -9.00407791E+00  -7.03603867E+00  -6.33136747E+00  -1.20595741E+01  -6.14943865E+00  -1.33817296E+01  -6.75325932E+00  -1.01997866E+01  -1.50002686E+01  -1.50005264E+01  -2.03895348E+01  -1.13511537E+01  -2.02882293E+01  -2.02885302E+01  -2.93280301E+01  -2.97677112E+01
   2.53750000E+02   5.00000000E-01   5.00000000E-01  -6.86092700E+00  -1.46926333E+01  -3.21811861E+00  -1.32602809E+00  -1.94608586E+00  -3.20681529E+00  -1.97263616E+01  -6.85693331E+00  -5.11114506E+00  -4.61079119E+00  -5.86096562E+00  -4.07346980E+00  -5.32150264E+00  -8.83674217E+00  -8.92268738E+00  -2.61083934E-01  -4.16629342E+00  -1.95170089E+00  -2.26494616E+01  -3.32907921E-01  -1.79775101E+00  -7.74360148E+00  -3.39674499E+00  -6.03968708E+00  -4.40774036E+00  -2.74763298E+00  -8.67275517E+00  -1.29543744E+01  -1.23596364E+01  -1.07696578E+01  -1.31650937E+01  -8.90826552E+00  -8.33314590E+00  -1.09027178E+01  -1.39804379E+01  -2.38420428E+00  -5.20756008E+00  -3.14887070E+00  -4.19425385E+00  -8.27397533E+00  -2.89577220E+00  -4.29103709E+00  -6.56778362E+00  -6.23564226E+00  -4.02948999E+00  -6.90173123E+00  -6.78154047E+00  -1.15438244E+01  -7.57611269E+00  -1.34524389E+01  -1.37124622E+02  -2.28554087E+01  -6.38914032E+00  -1.14516272E+01  -1.14978966E+01  -7.38284488E+00  -3.19238912E+00  -9.78153332E+00  -3.66833834E+00  -5.86994961E+01  -1.22927698E+01  -8.41091851E+00  -1.97609645E+00  -4.25289157E+01  -6.61405192E+00  -8.16757901E+00  -4.63673710E+00  -7.50785265E+00  -7.09096774E+00  -7.90424300E+00  -8.03744627E+00  -1.04414773E+01  -9.01572331E+00  -7.01959765E+00  -6.32696514E+00  -1.20263928E+01  -6.14555324E+00  -1.33061512E+01  -6.74126580E+00  -1.01934094E+01  -1.49878681E+01  -1.49881256E+01  -2.03740737E+01  -1.13355379E+01  -2.02732776E+01  -2.02735771E+01  -2.92823208E+01  -2.96509200E+01
   2.71250000E+02   5.00000000E-01   5.00000000E-01  -6.82273796E+00  -1.46644624E+01  -3.19222857E+00  -1.32827488E+00  -1.94004071E+00  -3.18006702E+00  -1.96668940E+01  -6.83341631E+00  -5.11179170E+00  -4.61064932E+00  -5.86100964E+00  -4.04522049E+00  -5.29374629E+00  -8.83593158E+00  -8.92321260E+00  -2.60938973E-01  -4.16612651E+00  -1.95172823E+00  -2.24304161E+01  -3.32694607E-01  -1.79649391E+00  -7.74343936E+00  -3.39657827E+00  -6.05208088E+00  -4.40757364E+00  -2.73241681E+00  -8.67282168E+00  -1.29016841E+01  -1.23116602E+01  -1.07365943E+01  -1.31321989E+01  -8.87201761E+00  -8.29955184E+00  -1.08946334E+01  -1.39188816E+01  -2.38787731E+00  -5.23506273E+00  -3.13772571E+00  -4.19512000E+00  -8.23896304E+00  -2.88750191E+00  -4.24658334E+00  -6.53411914E+00  -6.19935440E+00  -3.99695467E+00  -6.89030213E+00  -6.77770746E+00  -1.15326213E+01  -7.56514711E+00  -1.34343714E+01  -1.36296052E+02  -2.26184090E+01  -6.36802378E+00  -1.13852642E+01  -1.14590617E+01  -7.32526647E+00  -3.18948716E+00  -9.76160210E+00  -3.66628230E+00  -5.83222874E+01  -1.22518769E+01  -8.40209683E+00  -1.97890598E+00  -4.22869749E+01  -6.61093089E+00  -8.18368038E+00  -4.64049140E+00  -7.46119542E+00  -7.08270196E+00  -7.93367358E+00  -8.02686293E+00  -1.04767542E+01  -9.02742458E+00  -7.00321351E+00  -6.32234838E+00  -1.19934963E+01  -6.14174270E+00  -1.32327368E+01  -6.72927639E+00  -1.01870958E+01  -1.49755483E+01  -1.49758061E+01  -2.03587454E+01  -1.13198272E+01  -2.02584531E+01  -2.02587518E+01  -2.92367330E+01  -2.95350243E+01
   2.88750000E+02   5.00000000E-01   5.00000000E-01  -6.78506224E+00  -1.46374194E+01  -3.16655854E+00  -1.33053788E+00  -1.93410185E+00  -3.15517307E+00  -1.96083932E+01  -6.81049520E+00  -5.11244665E+00  -4.61049969E+00  -5.86104913E+00  -4.01866174E+00  -5.26763007E+00  -8.83511281E+00  -8.92372986E+00  -2.60786026E-01  -4.16595048E+00  -1.95175913E+00  -2.22137593E+01  -3.32476055E-01  -1.79537788E+00  -7.74326812E+00  -3.39640242E+00  -6.06486666E+00  -4.40739779E+00  -2.71724196E+00  -8.67286274E+00  -1.28494462E+01  -1.22646143E+01  -1.07043017E+01  -1.31002055E+01  -8.83645315E+00  -8.26640137E+00  -1.08872005E+01  -1.38583341E+01  -2.39177141E+00  -5.26272300E+00  -3.12645005E+00  -4.19549360E+00  -8.20427679E+00  -2.87927879E+00  -4.20385566E+00  -6.50185769E+00  -6.16487563E+00  -3.96621295E+00  -6.87912743E+00  -6.77369687E+00  -1.15215200E+01  -7.55421233E+00  -1.34165783E+01  -1.35475199E+02  -2.23837510E+01  -6.34751411E+00  -1.13199133E+01  -1.14209233E+01  -7.26817389E+00  -3.18640768E+00  -9.74184508E+00  -3.66413207E+00  -5.79482783E+01  -1.22115986E+01  -8.39315575E+00  -1.98151867E+00  -4.20471639E+01  -6.60808596E+00  -8.19969230E+00  -4.64592609E+00  -7.41703598E+00  -7.07642449E+00  -7.96455507E+00  -8.01658506E+00  -1.05123573E+01  -9.03923742E+00  -6.98691391E+00  -6.31752760E+00  -1.19609139E+01  -6.13801308E+00  -1.31611852E+01  -6.71735607E+00  -1.01809427E+01  -1.49634554E+01  -1.49637139E+01  -2.03437440E+01  -1.13041533E+01  -2.02439503E+01  -2.02442484E+01  -2.91915613E+01  -2.94199157E+01
   3.06250000E+02   5.00000000E-01   5.00000000E-01  -6.74787333E+00  -1.46113017E+01  -3.14111266E+00  -1.33281783E+00  -1.92826595E+00  -3.13193393E+00  -1.95507865E+01  -6.78815394E+00  -5.11310914E+00  -4.61034251E+00  -5.86108434E+00  -3.99359939E+00  -5.24296816E+00  -8.83428610E+00  -8.92423939E+00  -2.60625336E-01  -4.16576555E+00  -1.95179342E+00  -2.19994309E+01  -3.32252270E-01  -1.79439496E+00  -7.74308799E+00  -3.39621768E+00  -6.07805344E+00  -4.40721305E+00  -2.70212740E+00  -8.67286267E+00  -1.27976417E+01  -1.22183387E+01  -1.06726551E+01  -1.30689347E+01  -8.80158136E+00  -8.23368759E+00  -1.08804424E+01  -1.37987908E+01  -2.39590120E+00  -5.29056757E+00  -3.11505110E+00  -4.19539439E+00  -8.16992875E+00  -2.87110779E+00  -4.16266429E+00  -6.47082088E+00  -6.13202736E+00  -3.93707415E+00  -6.86821513E+00  -6.76951791E+00  -1.15105370E+01  -7.54331243E+00  -1.33990722E+01  -1.34661923E+02  -2.21513647E+01  -6.32760528E+00  -1.12555497E+01  -1.13833441E+01  -7.21154424E+00  -3.18316107E+00  -9.72227885E+00  -3.66189169E+00  -5.75774147E+01  -1.21718203E+01  -8.38412049E+00  -1.98394125E+00  -4.18094553E+01  -6.60553909E+00  -8.21566237E+00  -4.65288702E+00  -7.37516789E+00  -7.07195532E+00  -7.99673458E+00  -8.00663630E+00  -1.05483079E+01  -9.05120004E+00  -6.97072461E+00  -6.31251264E+00  -1.19286591E+01  -6.13437005E+00  -1.30913073E+01  -6.70555867E+00  -1.01750203E+01  -1.49516947E+01  -1.49519548E+01  -2.03292100E+01  -1.12886256E+01  -2.02299093E+01  -2.02302075E+01  -2.91470190E+01  -2.93055500E+01