 TITLE = "Total Concentrations" 
VARIABLES = "X"          "Y"              "Z"            "H+"             "Al+++"          "CO2(aq)"        "Mg++"           "Ca++"           "Fe++"           "Fe+++"          "Ba++"           "Sr++"           "Li+"            "Rb+"            "Mn++"           "Zn++"           "Cu++"           "Cu+"            "Cl-"            "F-"             "K+"             "HS-"            "Na+"            "SO4--"          "O2(aq)"         "B(OH)3(aq)"     "HPO4--"         "NO3-"           "H4SiO4(aq)"     "Ti(OH)4(aq)"    "HNO3(aq)"       "Al(OH)2+"       "AlO2-"          "AlOH++"         "BaHCO3+"        "BaCl+"          "BaCO3(aq)"      "BaOH+"          "HCO3-"          "CO3--"          "CaCl+"          "CaCl2(aq)"      "CaOH+"          "CaSO4(aq)"      "FeCl+"          "FeCl2(aq)"      "FeOH+"          "FeSO4(aq)"      "OH-"            "LiCl(aq)"       "LiOH(aq)"       "RbCl(aq)"       "RbOH(aq)"       "S2O3--"         "H2S(aq)"        "H2PO4-"         "H3PO4(aq)"      "HAlO2(aq)"      "HSO4-"          "KCl(aq)"        "KOH(aq)"        "KSO4-"          "NH3(aq)"        "NaAlO2(aq)"     "NaOH(aq)"       "NaSO4-"         "H2(aq)"         "CaHPO4(aq)"     "CaPO4-"         "FeCO3(aq)"      "FeH2PO4+"       "FeHPO4(aq)"     "FePO4-"         "KHPO4-"         "PO4---"         "Sr(CO3)(aq)"    "SrHCO3+"        "SrCl+"          "SrOH+"          "SrSO4(aq)"      "AlH3SiO4++"     "Si2O2(OH)5-"    "Si2O3(OH)4--"   "Si3O5(OH)5---"  "Si3O6(OH)3---"  "Si4O12H4----"   "Si4O6(OH)6--"   "Si4O7(OH)6----" "Si4O8(OH)4----" "Si6O15------"   "SiF6--"        
 ZONE I=         200 , J=           1 , K=           1  F=POINT
   8.75000000E+00   5.00000000E-01   5.00000000E-01  -7.82508250E+00  -1.75630054E+01  -3.95051334E+00  -1.29415600E+00  -2.04422420E+00  -4.43401700E+00  -2.17817175E+01  -6.93799763E+00  -5.10352876E+00  -4.61180999E+00  -5.85969343E+00  -5.24764357E+00  -6.41106204E+00  -8.84705562E+00  -8.91431930E+00  -2.62095138E-01  -4.16749347E+00  -1.95183879E+00  -2.49530691E+01  -3.35549486E-01  -1.83620286E+00  -7.74473460E+00  -3.39794256E+00  -5.87559144E+00  -4.40893793E+00  -3.38260854E+00  -8.67858882E+00  -1.41096781E+01  -1.47415768E+01  -1.21865964E+01  -1.57036454E+01  -9.15111280E+00  -8.53283942E+00  -1.03803906E+01  -1.42710252E+01  -2.33788001E+00  -4.45501972E+00  -3.28613149E+00  -4.11694663E+00  -8.43182142E+00  -3.01333726E+00  -5.74575620E+00  -7.82976535E+00  -7.21929839E+00  -5.32542015E+00  -6.72499088E+00  -6.81007833E+00  -1.13415903E+01  -7.72972154E+00  -1.33670561E+01  -1.50340516E+02  -2.57698328E+01  -7.08458550E+00  -1.31931601E+01  -1.33541939E+01  -8.61359645E+00  -3.20717601E+00  -9.70932723E+00  -3.68502621E+00  -6.47078958E+01  -1.37958326E+01  -8.14670969E+00  -1.91233264E+00  -4.61561935E+01  -6.64581859E+00  -7.51656224E+00  -5.02148996E+00  -9.41802327E+00  -8.03466064E+00  -7.88771181E+00  -8.17541431E+00  -9.58381350E+00  -8.47113531E+00  -7.23194373E+00  -6.36337721E+00  -1.21523258E+01  -6.20355675E+00  -1.69497384E+01  -7.38245907E+00  -1.03954057E+01  -1.53289018E+01  -1.53291421E+01  -2.08163101E+01  -1.24903463E+01  -2.07079396E+01  -2.07082054E+01  -3.02517235E+01  -3.32464294E+01
   2.62500000E+01   5.00000000E-01   5.00000000E-01  -7.60125835E+00  -1.63465182E+01  -3.74987265E+00  -1.29679475E+00  -2.03618590E+00  -4.10202122E+00  -2.11741204E+01  -7.06371943E+00  -5.10390948E+00  -4.61180795E+00  -5.85983808E+00  -4.94683168E+00  -6.15477091E+00  -8.84639567E+00  -8.91499465E+00  -2.62098467E-01  -4.16749087E+00  -1.95178699E+00  -2.59287269E+01  -3.35354078E-01  -1.83174728E+00  -7.74473679E+00  -3.39794013E+00  -5.89123018E+00  -4.40893551E+00  -3.19895784E+00  -8.67730169E+00  -1.38732914E+01  -1.38637475E+01  -1.16805253E+01  -1.46637827E+01  -9.26905841E+00  -8.65189045E+00  -1.07038179E+01  -1.45295949E+01  -2.34315011E+00  -4.66156408E+00  -3.27776747E+00  -4.12731020E+00  -8.56889771E+00  -3.00495883E+00  -5.39921349E+00  -7.50005992E+00  -7.05622098E+00  -4.98962320E+00  -6.88607490E+00  -6.81001174E+00  -1.15062845E+01  -7.71895181E+00  -1.35219551E+01  -1.49036537E+02  -2.65519390E+01  -6.88678081E+00  -1.27670801E+01  -1.26667410E+01  -8.37112142E+00  -3.20817650E+00  -9.86423284E+00  -3.68468463E+00  -6.41044293E+01  -1.32855035E+01  -8.31793058E+00  -1.91858169E+00  -4.58812816E+01  -6.64933147E+00  -7.72281746E+00  -4.90626026E+00  -8.88879616E+00  -7.72937604E+00  -7.80618830E+00  -8.17138090E+00  -9.79989369E+00  -8.66415475E+00  -7.22057005E+00  -6.36291693E+00  -1.22918960E+01  -6.19930657E+00  -1.56843075E+01  -7.21100663E+00  -1.04056016E+01  -1.53416304E+01  -1.53418785E+01  -2.08339529E+01  -1.21573650E+01  -2.07261518E+01  -2.07264293E+01  -3.02572236E+01  -3.22437530E+01
   4.37500000E+01   5.00000000E-01   5.00000000E-01  -7.47830754E+00  -1.58415593E+01  -3.64827551E+00  -1.29928548E+00  -2.02832660E+00  -3.91496404E+00  -2.08684621E+01  -7.11532873E+00  -5.10435140E+00  -4.61179321E+00  -5.85997218E+00  -4.77075686E+00  -5.99466208E+00  -8.84572180E+00  -8.91565620E+00  -2.62088126E-01  -4.16747335E+00  -1.95174292E+00  -2.55969452E+01  -3.35160149E-01  -1.82762343E+00  -7.74472405E+00  -3.39792278E+00  -5.90493861E+00  -4.40891816E+00  -3.07688959E+00  -8.67618233E+00  -1.37375583E+01  -1.34966996E+01  -1.14846843E+01  -1.42348993E+01  -9.31152617E+00  -8.69649296E+00  -1.08516060E+01  -1.46143594E+01  -2.34740495E+00  -4.76694085E+00  -3.26913470E+00  -4.13680636E+00  -8.60619630E+00  -2.99656415E+00  -5.19728264E+00  -7.31442416E+00  -6.93776587E+00  -4.79855637E+00  -6.94739596E+00  -6.80958145E+00  -1.15708810E+01  -7.70812283E+00  -1.35770050E+01  -1.47942481E+02  -2.61266037E+01  -6.78740302E+00  -1.25400325E+01  -1.23895488E+01  -8.22945512E+00  -3.20879546E+00  -9.91912132E+00  -3.68420785E+00  -6.36049395E+01  -1.30850457E+01  -8.38867844E+00  -1.92455018E+00  -4.56089405E+01  -6.65054604E+00  -7.82604842E+00  -4.83409969E+00  -8.60299336E+00  -7.56665586E+00  -7.76631400E+00  -8.16502270E+00  -9.91387077E+00  -8.75575876E+00  -7.20785706E+00  -6.36209682E+00  -1.23316782E+01  -6.19508509E+00  -1.50928913E+01  -7.06251024E+00  -1.03386470E+01  -1.52385984E+01  -1.52388523E+01  -2.06972973E+01  -1.18701565E+01  -2.05900618E+01  -2.05903486E+01  -3.00310550E+01  -3.17039691E+01
   6.12500000E+01   5.00000000E-01   5.00000000E-01  -7.39110562E+00  -1.55585729E+01  -3.58094205E+00  -1.30167914E+00  -2.02063996E+00  -3.78449227E+00  -2.06693824E+01  -7.12414805E+00  -5.10482443E+00  -4.61176633E+00  -5.86009647E+00  -4.64577364E+00  -5.87791913E+00  -8.84503465E+00  -8.91630459E+00  -2.62064734E-01  -4.16744156E+00  -1.95170643E+00  -2.53033329E+01  -3.34971495E-01  -1.82381086E+00  -7.74469705E+00  -3.39789117E+00  -5.91721410E+00  -4.40888654E+00  -2.99540412E+00  -8.67524871E+00  -1.36373665E+01  -1.32811088E+01  -1.13699686E+01  -1.39925600E+01  -9.31017531E+00  -8.69798247E+00  -1.09205152E+01  -1.46217411E+01  -2.35096451E+00  -4.83657353E+00  -3.26024305E+00  -4.14546276E+00  -8.60881758E+00  -2.98814710E+00  -5.05162590E+00  -7.18453658E+00  -6.84069469E+00  -4.66386782E+00  -6.97404850E+00  -6.80880174E+00  -1.16004887E+01  -7.69723895E+00  -1.35973065E+01  -1.46927963E+02  -2.57743369E+01  -6.72184062E+00  -1.23822941E+01  -1.22284077E+01  -8.12346981E+00  -3.20904777E+00  -9.93909975E+00  -3.68359160E+00  -6.31442630E+01  -1.29653745E+01  -8.42408005E+00  -1.93024195E+00  -4.53391318E+01  -6.64997372E+00  -7.89189471E+00  -4.78210375E+00  -8.40764493E+00  -7.45865028E+00  -7.74536824E+00  -8.15686181E+00  -9.99135150E+00  -8.81135488E+00  -7.19411354E+00  -6.36090188E+00  -1.23367464E+01  -6.19085901E+00  -1.47300103E+01  -6.96008700E+00  -1.02827737E+01  -1.51521610E+01  -1.51524191E+01  -2.05828061E+01  -1.16749611E+01  -2.04761323E+01  -2.04764263E+01  -2.98379661E+01  -3.13456655E+01
   7.87500000E+01   5.00000000E-01   5.00000000E-01  -7.31959687E+00  -1.53576375E+01  -3.52822205E+00  -1.30400149E+00  -2.01311911E+00  -3.68424534E+00  -2.05167235E+01  -7.11198085E+00  -5.10531991E+00  -4.61172783E+00  -5.86021160E+00  -4.54878688E+00  -5.78597719E+00  -8.84433482E+00  -8.91694045E+00  -2.62028868E-01  -4.16739610E+00  -1.95167718E+00  -2.50277851E+01  -3.34788866E-01  -1.82029016E+00  -7.74465638E+00  -3.39784588E+00  -5.92882074E+00  -4.40884125E+00  -2.94075053E+00  -8.67448768E+00  -1.35526745E+01  -1.31171506E+01  -1.12766376E+01  -1.38168962E+01  -9.28720810E+00  -8.67817821E+00  -1.09527830E+01  -1.45935776E+01  -2.35420865E+00  -4.89087473E+00  -3.25110391E+00  -4.15331093E+00  -8.59679513E+00  -2.97970913E+00  -4.93590009E+00  -7.08407270E+00  -6.75869517E+00  -4.55920635E+00  -6.98605880E+00  -6.80768887E+00  -1.16151498E+01  -7.68630787E+00  -1.36028949E+01  -1.45952748E+02  -2.54550047E+01  -6.67082031E+00  -1.22545500E+01  -1.21035425E+01  -8.03311002E+00  -3.20895090E+00  -9.94420948E+00  -3.68283606E+00  -6.27023116E+01  -1.28667681E+01  -8.44419258E+00  -1.93566213E+00  -4.50718200E+01  -6.64839914E+00  -7.94119798E+00  -4.74435600E+00  -8.25711427E+00  -7.37977669E+00  -7.73782641E+00  -8.14768985E+00  -1.00531354E+01  -8.85136856E+00  -7.17973176E+00  -6.35934136E+00  -1.23271304E+01  -6.18662528E+00  -1.44620004E+01  -6.89627903E+00  -1.02505675E+01  -1.51011999E+01  -1.51014608E+01  -2.05156507E+01  -1.15568670E+01  -2.04095346E+01  -2.04098338E+01  -2.97157375E+01  -3.10749482E+01
   9.62500000E+01   5.00000000E-01   5.00000000E-01  -7.25802442E+00  -1.52073284E+01  -3.48448370E+00  -1.30626749E+00  -2.00575726E+00  -3.60299782E+00  -2.03932222E+01  -7.09040382E+00  -5.10583514E+00  -4.61167818E+00  -5.86031814E+00  -4.46950657E+00  -5.71011331E+00  -8.84362285E+00  -8.91756432E+00  -2.61981056E-01  -4.16733753E+00  -1.95165474E+00  -2.47644964E+01  -3.34610645E-01  -1.81704330E+00  -7.74460259E+00  -3.39778748E+00  -5.93997310E+00  -4.40878285E+00  -2.90313951E+00  -8.67388372E+00  -1.34777397E+01  -1.29849012E+01  -1.11962541E+01  -1.36822373E+01  -9.25432009E+00  -8.64867332E+00  -1.09658432E+01  -1.45471828E+01  -2.35723697E+00  -4.93567769E+00  -3.24172903E+00  -4.16038313E+00  -8.57586489E+00  -2.97125506E+00  -4.83889745E+00  -7.00184389E+00  -6.68629222E+00  -4.47335914E+00  -6.98915512E+00  -6.80625944E+00  -1.16206088E+01  -7.67533830E+00  -1.35995087E+01  -1.45005205E+02  -2.51570716E+01  -6.62881873E+00  -1.21455343E+01  -1.20007805E+01  -7.95262090E+00  -3.20852284E+00  -9.94019438E+00  -3.68194355E+00  -6.22732986E+01  -1.27808065E+01  -8.45477260E+00  -1.94081557E+00  -4.48069715E+01  -6.64605947E+00  -7.97995248E+00  -4.71549735E+00  -8.13465093E+00  -7.31904078E+00  -7.73845242E+00  -8.13774917E+00  -1.01051720E+01  -8.88165405E+00  -7.16482990E+00  -6.35743099E+00  -1.23085685E+01  -6.18239050E+00  -1.42533575E+01  -6.85725136E+00  -1.02339376E+01  -1.50735804E+01  -1.50738430E+01  -2.04796498E+01  -1.14882073E+01  -2.03740871E+01  -2.03743899E+01  -2.96401078E+01  -3.08590762E+01
   1.13750000E+02   5.00000000E-01   5.00000000E-01  -7.20354606E+00  -1.50950520E+01  -3.44696050E+00  -1.30849318E+00  -1.99854801E+00  -3.53482628E+00  -2.02903593E+01  -7.06489524E+00  -5.10636858E+00  -4.61161779E+00  -5.86041661E+00  -4.40244293E+00  -5.64552406E+00  -8.84289927E+00  -8.91817673E+00  -2.61921789E-01  -4.16726635E+00  -1.95163871E+00  -2.45105773E+01  -3.34434211E-01  -1.81405397E+00  -7.74453620E+00  -3.39771647E+00  -5.95078343E+00  -4.40871184E+00  -2.87579929E+00  -8.67342189E+00  -1.34097336E+01  -1.28774392E+01  -1.11275551E+01  -1.35788295E+01  -9.21705925E+00  -8.61496189E+00  -1.09680681E+01  -1.44908580E+01  -2.36010064E+00  -4.97385339E+00  -3.23212982E+00  -4.16671060E+00  -8.54884894E+00  -2.96279073E+00  -4.75471149E+00  -6.93196210E+00  -6.62039829E+00  -4.40041593E+00  -6.98615209E+00  -6.80452933E+00  -1.16196960E+01  -7.66433861E+00  -1.35899721E+01  -1.44079537E+02  -2.48748318E+01  -6.59312423E+00  -1.20497065E+01  -1.19160372E+01  -7.87916320E+00  -3.20778090E+00  -9.92988405E+00  -3.68091743E+00  -6.18543520E+01  -1.27062418E+01  -8.45866088E+00  -1.94570694E+00  -4.45445531E+01  -6.64308889E+00  -8.01113468E+00  -4.69250720E+00  -8.03161831E+00  -7.27064766E+00  -7.74429474E+00  -8.12717857E+00  -1.01503947E+01  -8.90510359E+00  -7.14947803E+00  -6.35518700E+00  -1.22838863E+01  -6.17816306E+00  -1.40875138E+01  -6.83228961E+00  -1.02249990E+01  -1.50574765E+01  -1.50577397E+01  -2.04590339E+01  -1.14475559E+01  -2.03540202E+01  -2.03543252E+01  -2.95874318E+01  -3.06799812E+01
   1.31250000E+02   5.00000000E-01   5.00000000E-01  -7.15400440E+00  -1.50101485E+01  -3.41358682E+00  -1.31069453E+00  -1.99148544E+00  -3.47618906E+00  -2.02016700E+01  -7.03795388E+00  -5.10691878E+00  -4.61154708E+00  -5.86050751E+00  -4.34431887E+00  -5.58928047E+00  -8.84216454E+00  -8.91877814E+00  -2.61851526E-01  -4.16718304E+00  -1.95162870E+00  -2.42638249E+01  -3.34257108E-01  -1.81130707E+00  -7.74445769E+00  -3.39763334E+00  -5.96139614E+00  -4.40862871E+00  -2.85434699E+00  -8.67308695E+00  -1.33465118E+01  -1.27884072E+01  -1.10684730E+01  -1.34981678E+01  -9.17801007E+00  -8.57955767E+00  -1.09641820E+01  -1.44292405E+01  -2.36286783E+00  -5.00760589E+00  -3.22231732E+00  -4.17232333E+00  -8.51788524E+00  -2.95432216E+00  -4.67981668E+00  -6.87091940E+00  -6.55962281E+00  -4.33684796E+00  -6.97918052E+00  -6.80251364E+00  -1.16145569E+01  -7.65331662E+00  -1.35764249E+01  -1.43171319E+02  -2.46039496E+01  -6.56174131E+00  -1.19629269E+01  -1.18451074E+01  -7.81058283E+00  -3.20674161E+00  -9.91542352E+00  -3.67976134E+00  -6.14432849E+01  -1.26410208E+01  -8.45801318E+00  -1.95034129E+00  -4.42845325E+01  -6.63965272E+00  -8.03706724E+00  -4.67407826E+00  -7.94247781E+00  -7.23121561E+00  -7.75413019E+00  -8.11614762E+00  -1.01910848E+01  -8.92394135E+00  -7.13376231E+00  -6.35262488E+00  -1.22552245E+01  -6.17395130E+00  -1.39515402E+01  -6.81477260E+00  -1.02192756E+01  -1.50461751E+01  -1.50464383E+01  -2.04448511E+01  -1.14216732E+01  -2.03403818E+01  -2.03406880E+01  -2.95442901E+01  -3.05247196E+01
   1.48750000E+02   5.00000000E-01   5.00000000E-01  -7.10783202E+00  -1.49441361E+01  -3.38288699E+00  -1.31288443E+00  -1.98456399E+00  -3.42480928E+00  -2.01224594E+01  -7.01071609E+00  -5.10748446E+00  -4.61146642E+00  -5.86059128E+00  -4.29302053E+00  -5.53946408E+00  -8.84141910E+00  -8.91936900E+00  -2.61770695E-01  -4.16708804E+00  -1.95162436E+00  -2.40226275E+01  -3.34077505E-01  -1.80878840E+00  -7.74436748E+00  -3.39753852E+00  -5.97195628E+00  -4.40853389E+00  -2.83610668E+00  -8.67286291E+00  -1.32865193E+01  -1.27124464E+01  -1.10167591E+01  -1.34333354E+01  -9.13839473E+00  -8.54361138E+00  -1.09569577E+01  -1.43650158E+01  -2.36560757E+00  -5.03855096E+00  -3.21230224E+00  -4.17725021E+00  -8.48452246E+00  -2.94585544E+00  -4.61195149E+00  -6.81647116E+00  -6.50325013E+00  -4.28039085E+00  -6.96978219E+00  -6.80022681E+00  -1.16067474E+01  -7.64227973E+00  -1.35604176E+01  -1.42277310E+02  -2.43412697E+01  -6.53326439E+00  -1.18822348E+01  -1.17841945E+01  -7.74531575E+00  -3.20542077E+00  -9.89836818E+00  -3.67847908E+00  -6.10385005E+01  -1.25829095E+01  -8.45439570E+00  -1.95472424E+00  -4.40268776E+01  -6.63591613E+00  -8.05948261E+00  -4.65957843E+00  -7.86354563E+00  -7.19862782E+00  -7.76741043E+00  -8.10482529E+00  -1.02289352E+01  -8.93980230E+00  -7.11776906E+00  -6.34975952E+00  -1.22241346E+01  -6.16976335E+00  -1.38358039E+01  -6.80090333E+00  -1.02145257E+01  -1.50363146E+01  -1.50365772E+01  -2.04326182E+01  -1.14029679E+01  -2.03286886E+01  -2.03289950E+01  -2.95039652E+01  -3.03844116E+01
   1.66250000E+02   5.00000000E-01   5.00000000E-01  -7.06397434E+00  -1.48909556E+01  -3.35388668E+00  -1.31507213E+00  -1.97777847E+00  -3.37914460E+00  -2.00495708E+01  -6.98370204E+00  -5.10806445E+00  -4.61137615E+00  -5.86066834E+00  -4.24710460E+00  -5.49474972E+00  -8.84066334E+00  -8.91994972E+00  -2.61679697E-01  -4.16698176E+00  -1.95162538E+00  -2.37858876E+01  -3.33894202E-01  -1.80648451E+00  -7.74426600E+00  -3.39743241E+00  -5.98258537E+00  -4.40842778E+00  -2.81952523E+00  -8.67273316E+00  -1.32287133E+01  -1.26455947E+01  -1.09705373E+01  -1.33793249E+01  -9.09880780E+00  -8.50765692E+00  -1.09480282E+01  -1.42997407E+01  -2.36837822E+00  -5.06778159E+00  -3.20209496E+00  -4.18151910E+00  -8.44979709E+00  -2.93739664E+00  -4.54958826E+00  -6.76710595E+00  -6.45078637E+00  -4.22951435E+00  -6.95898697E+00  -6.79768260E+00  -1.15973109E+01  -7.63123496E+00  -1.35429882E+01  -1.41395294E+02  -2.40846630E+01  -6.50677661E+00  -1.18056705E+01  -1.17303862E+01  -7.68231083E+00  -3.20383356E+00  -9.87976085E+00  -3.67707446E+00  -6.06389153E+01  -1.25300457E+01  -8.44886218E+00  -1.95886199E+00  -4.37715572E+01  -6.63202004E+00  -8.07957598E+00  -4.64858609E+00  -7.79236128E+00  -7.17147805E+00  -7.78378473E+00  -8.09335589E+00  -1.02651028E+01  -8.95379781E+00  -7.10157322E+00  -6.34660529E+00  -1.21916557E+01  -6.16560722E+00  -1.37337060E+01  -6.78861767E+00  -1.02097275E+01  -1.50263636E+01  -1.50266253E+01  -2.04202924E+01  -1.13873140E+01  -2.03168977E+01  -2.03172037E+01  -2.94633994E+01  -3.02533485E+01
   1.83750000E+02   5.00000000E-01   5.00000000E-01  -7.02174782E+00  -1.48464711E+01  -3.32596963E+00  -1.31726389E+00  -1.97112400E+00  -3.33810493E+00  -1.99809608E+01  -6.95714987E+00  -5.10865774E+00  -4.61127659E+00  -5.86073908E+00  -4.20554168E+00  -5.45418360E+00  -8.83989765E+00  -8.92052068E+00  -2.61578904E-01  -4.16686457E+00  -1.95163143E+00  -2.35528798E+01  -3.33706470E-01  -1.80438270E+00  -7.74415361E+00  -3.39731540E+00  -5.99337775E+00  -4.40831078E+00  -2.80374444E+00  -8.67268057E+00  -1.31724214E+01  -1.25850718E+01  -1.09283714E+01  -1.33326814E+01  -9.05954891E+00  -8.47194554E+00  -1.09383610E+01  -1.42343195E+01  -2.37122598E+00  -5.09600834E+00  -3.19170549E+00  -4.18515684E+00  -8.41437519E+00  -2.92895184E+00  -4.49165093E+00  -6.72176327E+00  -6.40181902E+00  -4.18314012E+00  -6.94745453E+00  -6.79489419E+00  -1.15869198E+01  -7.62018897E+00  -1.35248041E+01  -1.40523803E+02  -2.38327430E+01  -6.48170429E+00  -1.17319880E+01  -1.16815810E+01  -7.62088796E+00  -3.20199450E+00  -9.86027365E+00  -3.67555140E+00  -6.02438168E+01  -1.24810074E+01  -8.44209563E+00  -1.96276115E+00  -4.35185406E+01  -6.62807741E+00  -8.09814342E+00  -4.64074833E+00  -7.72725987E+00  -7.14878468E+00  -7.80295589E+00  -8.08185541E+00  -1.03003471E+01  -8.96665609E+00  -7.08523694E+00  -6.34317604E+00  -1.21584564E+01  -6.16149075E+00  -1.36408960E+01  -6.77687053E+00  -1.02045078E+01  -1.50157628E+01  -1.50160235E+01  -2.04071274E+01  -1.13726236E+01  -2.03042627E+01  -2.03045677E+01  -2.94214786E+01  -3.01279977E+01
   2.01250000E+02   5.00000000E-01   5.00000000E-01  -6.98071619E+00  -1.48079073E+01  -3.29875612E+00  -1.31946388E+00  -1.96459596E+00  -3.30089215E+00  -1.99153276E+01  -6.93116583E+00  -5.10926338E+00  -4.61116804E+00  -5.86080386E+00  -4.16757172E+00  -5.41705633E+00  -8.83912238E+00  -8.92108224E+00  -2.61468668E-01  -4.16673682E+00  -1.95164224E+00  -2.33231274E+01  -3.33513895E-01  -1.80247102E+00  -7.74403066E+00  -3.39718784E+00  -6.00440442E+00  -4.40818321E+00  -2.78831588E+00  -8.67268773E+00  -1.31172180E+01  -1.25289635E+01  -1.08891977E+01  -1.32910634E+01  -9.02077519E+00  -8.43659602E+00  -1.09285343E+01  -1.41692775E+01  -2.37418709E+00  -5.12368526E+00  -3.18114348E+00  -4.18818920E+00  -8.37867607E+00  -2.92052699E+00  -4.43735474E+00  -6.67967331E+00  -6.35598031E+00  -4.14048140E+00  -6.93559816E+00  -6.79187412E+00  -1.15759997E+01  -7.60914803E+00  -1.35062858E+01  -1.39661864E+02  -2.35846178E+01  -6.45769712E+00  -1.16604114E+01  -1.16362964E+01  -7.56061440E+00  -3.19991752E+00  -9.84033166E+00  -3.67391386E+00  -5.98527402E+01  -1.24347447E+01  -8.43453185E+00  -1.96642857E+00  -4.32677975E+01  -6.62417709E+00  -8.11570955E+00  -4.63574648E+00  -7.66709186E+00  -7.12983426E+00  -7.82464752E+00  -8.07041545E+00  -1.03351576E+01  -8.97884798E+00  -7.06881172E+00  -6.33948507E+00  -1.21249583E+01  -6.15742157E+00  -1.35545479E+01  -6.76518926E+00  -1.01988186E+01  -1.50044411E+01  -1.50047006E+01  -2.03930275E+01  -1.13579538E+01  -2.02906877E+01  -2.02909914E+01  -2.93780637E+01  -3.00062228E+01
   2.18750000E+02   5.00000000E-01   5.00000000E-01  -6.94060259E+00  -1.47734142E+01  -3.27201768E+00  -1.32167487E+00  -1.95819000E+00  -3.26690439E+00  -1.98518475E+01  -6.90579312E+00  -5.10988052E+00  -4.61105079E+00  -5.86086301E+00  -4.13261759E+00  -5.38282597E+00  -8.83833784E+00  -8.92163473E+00  -2.61349316E-01  -4.16659885E+00  -1.95165754E+00  -2.30963143E+01  -3.33316255E-01  -1.80073828E+00  -7.74389749E+00  -3.39705005E+00  -6.01571824E+00  -4.40804542E+00  -2.77302277E+00  -8.67273714E+00  -1.30628364E+01  -1.24759624E+01  -1.08522414E+01  -1.32528952E+01  -8.98257260E+00  -8.40166348E+00  -1.09188963E+01  -1.41049183E+01  -2.37729046E+00  -5.15110040E+00  -3.17041821E+00  -4.19064091E+00  -8.34296020E+00  -2.91212800E+00  -4.38611052E+00  -6.64026118E+00  -6.31293941E+00  -4.10094727E+00  -6.92367256E+00  -6.78863434E+00  -1.15648168E+01  -7.59811803E+00  -1.34876949E+01  -1.38808824E+02  -2.33397151E+01  -6.43454537E+00  -1.15904644E+01  -1.15934975E+01  -7.50121683E+00  -3.19761589E+00  -9.82020085E+00  -3.67216585E+00  -5.94653802E+01  -1.23904958E+01  -8.42644725E+00  -1.96987126E+00  -4.30192983E+01  -6.62038892E+00  -8.13262048E+00  -4.63329090E+00  -7.61104464E+00  -7.11409089E+00  -7.84860136E+00  -8.05910834E+00  -1.03698468E+01  -8.99067741E+00  -7.05234099E+00  -6.33554509E+00  -1.20914239E+01  -6.15340705E+00  -1.34728343E+01  -6.75340542E+00  -1.01927570E+01  -1.49925444E+01  -1.49928030E+01  -2.03781872E+01  -1.13429697E+01  -2.02763672E+01  -2.02766695E+01  -2.93334506E+01  -2.98867540E+01
   2.36250000E+02   5.00000000E-01   5.00000000E-01  -6.90123150E+00  -1.47417638E+01  -3.24562133E+00  -1.32389881E+00  -1.95190198E+00  -3.23567628E+00  -1.97900010E+01  -6.88104409E+00  -5.11050832E+00  -4.61092509E+00  -5.86091683E+00  -4.10023069E+00  -5.35106918E+00  -8.83754434E+00  -8.92217845E+00  -2.61221156E-01  -4.16645096E+00  -1.95167707E+00  -2.28722268E+01  -3.33113438E-01  -1.79917401E+00  -7.74375440E+00  -3.39690234E+00  -6.02735832E+00  -4.40789771E+00  -2.75777396E+00  -8.67281136E+00  -1.30091107E+01  -1.24251804E+01  -1.08169444E+01  -1.32171216E+01  -8.94499046E+00  -8.36717164E+00  -1.09096577E+01  -1.40414135E+01  -2.38055983E+00  -5.17843595E+00  -3.15953852E+00  -4.19253564E+00  -8.30738707E+00  -2.90376058E+00  -4.33746501E+00  -6.60308730E+00  -6.27240071E+00  -4.06408292E+00  -6.91183184E+00  -6.78518621E+00  -1.15535363E+01  -7.58710450E+00  -1.34691920E+01  -1.37964236E+02  -2.30976654E+01  -6.41212637E+00  -1.15218584E+01  -1.15524672E+01  -7.44252338E+00  -3.19510227E+00  -9.80004599E+00  -3.67031143E+00  -5.90815331E+01  -1.23477155E+01  -8.41801675E+00  -1.97309627E+00  -4.27730138E+01  -6.61676818E+00  -8.14910633E+00  -4.63312148E+00  -7.55852919E+00  -7.10114092E+00  -7.87457997E+00  -8.04799164E+00  -1.04046129E+01  -9.00234157E+00  -7.03586236E+00  -6.33136822E+00  -1.20580148E+01  -6.14945428E+00  -1.33945749E+01  -6.74150059E+00  -1.01864687E+01  -1.49802924E+01  -1.49805502E+01  -2.03628988E+01  -1.13276366E+01  -2.02615933E+01  -2.02618942E+01  -2.92880810E+01  -2.97688501E+01
   2.53750000E+02   5.00000000E-01   5.00000000E-01  -6.86249176E+00  -1.47121447E+01  -3.21949410E+00  -1.32613708E+00  -1.94572801E+00  -3.20684037E+00  -1.97294615E+01  -6.85691584E+00  -5.11114600E+00  -4.61079119E+00  -5.86096562E+00  -4.07005545E+00  -5.32144892E+00  -8.83674217E+00  -8.92271369E+00  -2.61084479E-01  -4.16629342E+00  -1.95170060E+00  -2.26507169E+01  -3.32905395E-01  -1.79776845E+00  -7.74360167E+00  -3.39674499E+00  -6.03935337E+00  -4.40774036E+00  -2.74254284E+00  -8.67289321E+00  -1.29559387E+01  -1.23760176E+01  -1.07829095E+01  -1.31830401E+01  -8.90805857E+00  -8.33312835E+00  -1.09009456E+01  -1.39788551E+01  -2.38401535E+00  -5.20580690E+00  -3.14851289E+00  -4.19389603E+00  -8.27205234E+00  -2.89543032E+00  -4.29106222E+00  -6.56780874E+00  -6.23410220E+00  -4.02953104E+00  -6.90016655E+00  -6.78154053E+00  -1.15422592E+01  -7.57611256E+00  -1.34508736E+01  -1.37127785E+02  -2.28582283E+01  -6.39037075E+00  -1.14544220E+01  -1.15127126E+01  -7.38442649E+00  -3.19238874E+00  -9.77996776E+00  -3.66835469E+00  -5.87010594E+01  -1.23060184E+01  -8.40935079E+00  -1.97611061E+00  -4.25289152E+01  -6.61335888E+00  -8.16532159E+00  -4.63500764E+00  -7.50910774E+00  -7.09065765E+00  -7.90236852E+00  -8.03711148E+00  -1.04395798E+01  -9.01396957E+00  -7.01940911E+00  -6.32696600E+00  -1.20248285E+01  -6.14557001E+00  -1.33190078E+01  -6.72952145E+00  -1.01801008E+01  -1.49679058E+01  -1.49681633E+01  -2.03474562E+01  -1.13120496E+01  -2.02466601E+01  -2.02469597E+01  -2.92423997E+01  -2.96520893E+01
   2.71250000E+02   5.00000000E-01   5.00000000E-01  -6.82431305E+00  -1.46840267E+01  -3.19360069E+00  -1.32839074E+00  -1.93966436E+00  -3.18010123E+00  -1.96700250E+01  -6.83339780E+00  -5.11179278E+00  -4.61064932E+00  -5.86100964E+00  -4.04180526E+00  -5.29369252E+00  -8.83593158E+00  -8.92324072E+00  -2.60939557E-01  -4.16612651E+00  -1.95172791E+00  -2.24316781E+01  -3.32692109E-01  -1.79651247E+00  -7.74343957E+00  -3.39657827E+00  -6.05172409E+00  -4.40757364E+00  -2.72733338E+00  -8.67296585E+00  -1.29032588E+01  -1.23280736E+01  -1.07498575E+01  -1.31501879E+01  -8.87179593E+00  -8.29953326E+00  -1.08928361E+01  -1.39172875E+01  -2.38767471E+00  -5.23328558E+00  -3.13734942E+00  -4.19474372E+00  -8.23701121E+00  -2.88714258E+00  -4.24661762E+00  -6.53415342E+00  -6.19781313E+00  -3.99700591E+00  -6.88872713E+00  -6.77770755E+00  -1.15310459E+01  -7.56514699E+00  -1.34327958E+01  -1.36299237E+02  -2.26212457E+01  -6.36924143E+00  -1.13880566E+01  -1.14738996E+01  -7.32685951E+00  -3.18948677E+00  -9.76002617E+00  -3.66629971E+00  -5.83238610E+01  -1.22651370E+01  -8.40051880E+00  -1.97892125E+00  -4.22869743E+01  -6.61019621E+00  -8.18137101E+00  -4.63874703E+00  -7.46244684E+00  -7.08237784E+00  -7.93177477E+00  -8.02650500E+00  -1.04748235E+01  -9.02564693E+00  -7.00301141E+00  -6.32234938E+00  -1.19919218E+01  -6.14176065E+00  -1.32456427E+01  -6.71753516E+00  -1.01737800E+01  -1.49555753E+01  -1.49558330E+01  -2.03321135E+01  -1.12963452E+01  -2.02318213E+01  -2.02321199E+01  -2.91967906E+01  -2.95362416E+01
   2.88750000E+02   5.00000000E-01   5.00000000E-01  -6.78665107E+00  -1.46570694E+01  -3.16792944E+00  -1.33066067E+00  -1.93370752E+00  -3.15521763E+00  -1.96115654E+01  -6.81047566E+00  -5.11244788E+00  -4.61049969E+00  -5.86104914E+00  -4.01524570E+00  -5.26757627E+00  -8.83511281E+00  -8.92375979E+00  -2.60786650E-01  -4.16595048E+00  -1.95175880E+00  -2.22150315E+01  -3.32473576E-01  -1.79539756E+00  -7.74326834E+00  -3.39640242E+00  -6.06448485E+00  -4.40739779E+00  -2.71216175E+00  -8.67301297E+00  -1.28510346E+01  -1.22810859E+01  -1.07175956E+01  -1.31182664E+01  -8.83621544E+00  -8.26638176E+00  -1.08853735E+01  -1.38567252E+01  -2.39155385E+00  -5.26091716E+00  -3.12605581E+00  -4.19509938E+00  -8.20229321E+00  -2.87890255E+00  -4.20390030E+00  -6.50190235E+00  -6.16333093E+00  -3.96627560E+00  -6.87753868E+00  -6.77369698E+00  -1.15199307E+01  -7.55421222E+00  -1.34149888E+01  -1.35478414E+02  -2.23866116E+01  -6.34872047E+00  -1.13227082E+01  -1.14358057E+01  -7.26978178E+00  -3.18640729E+00  -9.74025536E+00  -3.66415056E+00  -5.79498656E+01  -1.22248895E+01  -8.39156397E+00  -1.98153504E+00  -4.20471633E+01  -6.60730824E+00  -8.19732614E+00  -4.64416333E+00  -7.41828644E+00  -7.07608565E+00  -7.96262780E+00  -8.01620207E+00  -1.05103878E+01  -9.03743118E+00  -6.98669697E+00  -6.31752877E+00  -1.19593258E+01  -6.13803225E+00  -1.31741663E+01  -6.70560755E+00  -1.01676059E+01  -1.49434508E+01  -1.49437093E+01  -2.03170700E+01  -1.12806567E+01  -2.02172763E+01  -2.02175744E+01  -2.91515560E+01  -2.94211912E+01
   3.06250000E+02   5.00000000E-01   5.00000000E-01  -6.74947817E+00  -1.46310608E+01  -3.14248336E+00  -1.33294758E+00  -1.92785414E+00  -3.13199000E+00  -1.95540067E+01  -6.78813335E+00  -5.11311055E+00  -4.61034251E+00  -5.86108434E+00  -3.99018262E+00  -5.24291434E+00  -8.83428610E+00  -8.92427114E+00  -2.60626001E-01  -4.16576555E+00  -1.95179306E+00  -2.20007155E+01  -3.32249801E-01  -1.79441577E+00  -7.74308822E+00  -3.39621768E+00  -6.07764491E+00  -4.40721305E+00  -2.69704696E+00  -8.67301887E+00  -1.27992461E+01  -1.22348874E+01  -1.06859940E+01  -1.30870887E+01  -8.80132640E+00  -8.23366696E+00  -1.08785822E+01  -1.37971648E+01  -2.39566744E+00  -5.28872956E+00  -3.11463940E+00  -4.19498273E+00  -8.16791167E+00  -2.87071514E+00  -4.16272047E+00  -6.47087710E+00  -6.13047816E+00  -3.93714938E+00  -6.86661038E+00  -6.76951804E+00  -1.15089318E+01  -7.54331233E+00  -1.33974667E+01  -1.34665172E+02  -2.21542536E+01  -6.32880089E+00  -1.12583498E+01  -1.13982875E+01  -7.21316923E+00  -3.18316067E+00  -9.72067308E+00  -3.66191125E+00  -5.75790179E+01  -1.21851562E+01  -8.38251270E+00  -1.98395873E+00  -4.18094547E+01  -6.60471710E+00  -8.21323597E+00  -4.65110354E+00  -7.37641911E+00  -7.07160121E+00  -7.99477605E+00  -8.00622653E+00  -1.05462957E+01  -9.04936176E+00  -6.97049165E+00  -6.31251401E+00  -1.19270551E+01  -6.13439047E+00  -1.31043812E+01  -6.69379371E+00  -1.01616510E+01  -1.49316415E+01  -1.49319016E+01  -2.03024712E+01  -1.12650961E+01  -2.02031706E+01  -2.02034687E+01  -2.91069167E+01  -2.93068893E+01