 TITLE = "Total Concentrations" 
VARIABLES = "X"          "Y"              "Z"            "H+"             "Al+++"          "CO2(aq)"        "Mg++"           "Ca++"           "Fe++"           "Fe+++"          "Ba++"           "Sr++"           "Cl-"            "F-"             "K+"             "HS-"            "Na+"            "SO4--"          "O2(aq)"         "B(OH)3(aq)"     "HPO4--"         "NO3-"           "H4SiO4(aq)"     "HNO3(aq)"       "Al(OH)2+"       "AlO2-"          "AlOH++"         "BaHCO3+"        "BaCl+"          "BaCO3(aq)"      "BaOH+"          "HCO3-"          "CO3--"          "CaCl+"          "CaCl2(aq)"      "CaOH+"          "CaSO4(aq)"      "FeCl+"          "FeCl2(aq)"      "FeOH+"          "FeSO4(aq)"      "OH-"            "S2O3--"         "H2S(aq)"        "H2PO4-"         "H3PO4(aq)"      "HAlO2(aq)"      "HSO4-"          "KCl(aq)"        "KOH(aq)"        "KSO4-"          "NH3(aq)"        "NaAlO2(aq)"     "NaOH(aq)"       "NaSO4-"         "H2(aq)"         "CaHPO4(aq)"     "CaPO4-"         "FeCO3(aq)"      "FeH2PO4+"       "FeHPO4(aq)"     "FePO4-"         "KHPO4-"         "PO4---"         "Sr(CO3)(aq)"    "SrHCO3+"        "SrCl+"          "SrOH+"          "SrSO4(aq)"      "AlH3SiO4++"     "Si2O2(OH)5-"    "Si2O3(OH)4--"   "Si3O5(OH)5---"  "Si3O6(OH)3---"  "Si4O12H4----"   "Si4O6(OH)6--"   "Si4O7(OH)6----" "Si4O8(OH)4----" "Si6O15------"   "SiF6--"        
 ZONE I=         100 , J=           1 , K=           1  F=POINT
   1.75000000E+01   5.00000000E-01   5.00000000E-01  -7.54325933E+00  -1.54468853E+01  -3.69361368E+00  -1.30487617E+00  -2.03768963E+00  -3.11324032E+00  -1.21321684E+01  -6.71255536E+00  -5.10348446E+00  -2.62137810E-01  -4.16748106E+00  -1.95177873E+00  -1.00343674E+01  -3.35185954E-01  -1.83563951E+00  -7.74480661E+00  -3.39792999E+00  -5.96478982E+00  -4.40892536E+00  -3.37679966E+00  -1.38214812E+01  -1.31343390E+01  -1.11048983E+01  -1.38456652E+01  -8.93500678E+00  -8.30398749E+00  -1.04367391E+01  -1.42816451E+01  -2.35383146E+00  -4.74155606E+00  -3.27940635E+00  -4.11956093E+00  -8.66754818E+00  -3.00799978E+00  -4.41766316E+00  -6.51005946E+00  -6.15273040E+00  -4.00411176E+00  -6.97532661E+00  -1.49350601E+02  -1.05844571E+01  -6.89706354E+00  -1.27215357E+01  -1.20119038E+01  -8.32401844E+00  -3.20757320E+00  -9.95642468E+00  -3.68635130E+00  -6.42354527E+01  -1.27116583E+01  -8.40180981E+00  -1.91674637E+00  -4.60182669E+01  -6.72614381E+00  -7.86824809E+00  -3.99211026E+00  -7.90989911E+00  -6.80830993E+00  -6.94325482E+00  -8.25459955E+00  -9.94331174E+00  -8.75034210E+00  -7.23925111E+00  -6.36284890E+00  -1.23915343E+01  -6.20251119E+00  -1.50648809E+01  -7.63876472E+00  -1.09124610E+01  -1.61033748E+01  -1.61036193E+01  -2.18490037E+01  -1.30080263E+01  -2.17409183E+01  -2.17411903E+01  -3.17915838E+01  -3.21517309E+01
   5.25000000E+01   5.00000000E-01   5.00000000E-01  -7.41634071E+00  -1.51330144E+01  -3.60988056E+00  -1.31711512E+00  -2.02347815E+00  -2.82288166E+00  -1.22281633E+01  -6.71295507E+00  -5.10429007E+00  -2.62131372E-01  -4.16743256E+00  -1.95165726E+00  -9.98732560E+00  -3.34595493E-01  -1.82878942E+00  -7.74484755E+00  -3.39788149E+00  -6.02230170E+00  -4.40887686E+00  -3.29100508E+00  -1.36689353E+01  -1.28582489E+01  -1.09332424E+01  -1.35649399E+01  -8.91757492E+00  -8.29031458E+00  -1.05109067E+01  -1.42293048E+01  -2.36285524E+00  -4.83389797E+00  -3.26360561E+00  -4.13996910E+00  -8.62461970E+00  -2.99394229E+00  -4.09751466E+00  -6.22245179E+00  -5.88054512E+00  -3.70695884E+00  -6.97898874E+00  -1.47402923E+02  -1.04692504E+01  -6.84731510E+00  -1.25353917E+01  -1.17964871E+01  -8.16100017E+00  -3.20871919E+00  -9.94711965E+00  -3.68667079E+00  -6.33551749E+01  -1.25305089E+01  -8.42406781E+00  -1.92979177E+00  -4.54734872E+01  -6.76000218E+00  -7.98720350E+00  -3.81297374E+00  -7.57100420E+00  -6.59654378E+00  -6.85824493E+00  -8.27185576E+00  -1.00824998E+01  -8.81488213E+00  -7.21419894E+00  -6.36107192E+00  -1.23519711E+01  -6.19519799E+00  -1.46174574E+01  -7.53955370E+00  -1.08574021E+01  -1.60156710E+01  -1.60159272E+01  -2.17333725E+01  -1.28292187E+01  -2.16264183E+01  -2.16267089E+01  -3.15764054E+01  -3.17064138E+01
   8.75000000E+01   5.00000000E-01   5.00000000E-01  -7.31765267E+00  -1.49740784E+01  -3.54861863E+00  -1.32853501E+00  -2.00985194E+00  -2.66715508E+00  -1.22434196E+01  -6.71337980E+00  -5.10519202E+00  -2.62075384E-01  -4.16732927E+00  -1.95156848E+00  -9.94329801E+00  -3.34017053E-01  -1.82302485E+00  -7.74483394E+00  -3.39777820E+00  -6.06234391E+00  -4.40877357E+00  -3.24468223E+00  -1.35438194E+01  -1.26845322E+01  -1.08121077E+01  -1.34121949E+01  -8.89622108E+00  -8.27540725E+00  -1.05556355E+01  -1.41533398E+01  -2.36922802E+00  -4.89811309E+00  -3.24670167E+00  -4.15699230E+00  -8.55761079E+00  -2.97958517E+00  -3.91078894E+00  -6.06620211E+00  -5.71693576E+00  -3.54350676E+00  -6.95868295E+00  -1.45543378E+02  -1.03819428E+01  -6.80636158E+00  -1.23852814E+01  -1.16565722E+01  -8.02582018E+00  -3.20843801E+00  -9.91291375E+00  -3.68631445E+00  -6.25153197E+01  -1.23985529E+01  -8.41969788E+00  -1.94160861E+00  -4.49387657E+01  -6.77492388E+00  -8.05959804E+00  -3.73769813E+00  -7.37574526E+00  -6.50021601E+00  -6.86029814E+00  -8.27022053E+00  -1.01786896E+01  -8.85025446E+00  -7.18516833E+00  -6.35780440E+00  -1.22882539E+01  -6.18772799E+00  -1.43430306E+01  -7.49365741E+00  -1.08304315E+01  -1.59699965E+01  -1.59702584E+01  -2.16739246E+01  -1.27565159E+01  -2.15680857E+01  -2.15683869E+01  -3.14448835E+01  -3.14052653E+01
   1.22500000E+02   5.00000000E-01   5.00000000E-01  -7.22458029E+00  -1.48394156E+01  -3.48878203E+00  -1.33908752E+00  -1.99676883E+00  -2.56739225E+00  -1.22453997E+01  -6.71382312E+00  -5.10617564E+00  -2.61973342E-01  -4.16717548E+00  -1.95150907E+00  -9.90545320E+00  -3.33444517E-01  -1.81817932E+00  -7.74477008E+00  -3.39762441E+00  -6.09280774E+00  -4.40861978E+00  -3.20464944E+00  -1.34236342E+01  -1.25276570E+01  -1.07009767E+01  -1.32793632E+01  -8.87245919E+00  -8.25939168E+00  -1.05949060E+01  -1.40762020E+01  -2.37431428E+00  -4.95799353E+00  -3.22880137E+00  -4.17090255E+00  -8.48898233E+00  -2.96496120E+00  -3.77895982E+00  -5.96293817E+00  -5.60579800E+00  -3.43517015E+00  -6.93679510E+00  -1.43725757E+02  -1.03033027E+01  -6.75963274E+00  -1.22341344E+01  -1.15291985E+01  -7.89585922E+00  -3.20687476E+00  -9.87631942E+00  -3.68528115E+00  -6.16930352E+01  -1.22754170E+01  -8.41132096E+00  -1.95222236E+00  -4.44138339E+01  -6.77899739E+00  -8.11613619E+00  -3.71167601E+00  -7.23087151E+00  -6.44868650E+00  -6.90139889E+00  -8.25780992E+00  -1.02622096E+01  -8.88043062E+00  -7.15368112E+00  -6.35318049E+00  -1.22228583E+01  -6.18014323E+00  -1.40999995E+01  -7.45722010E+00  -1.08102047E+01  -1.59343447E+01  -1.59346080E+01  -2.16279741E+01  -1.27022293E+01  -2.15232332E+01  -2.15235389E+01  -3.13330600E+01  -3.11252481E+01
   1.57500000E+02   5.00000000E-01   5.00000000E-01  -7.13445601E+00  -1.47138143E+01  -3.42863875E+00  -1.34879485E+00  -1.98418978E+00  -2.49830846E+00  -1.22420369E+01  -6.71428522E+00  -5.10723213E+00  -2.61828597E-01  -4.16697485E+00  -1.95147577E+00  -9.87321392E+00  -3.32875712E-01  -1.81412671E+00  -7.74465962E+00  -3.39742378E+00  -6.11814139E+00  -4.40841915E+00  -3.16703240E+00  -1.33058176E+01  -1.23776510E+01  -1.05950111E+01  -1.31538812E+01  -8.84717765E+00  -8.24239011E+00  -1.06321362E+01  -1.40004104E+01  -2.37885958E+00  -5.01677860E+00  -3.21000298E+00  -4.18195130E+00  -8.42125621E+00  -2.95012692E+00  -3.67687291E+00  -5.88764807E+00  -5.52446570E+00  -3.35676721E+00  -6.91577980E+00  -1.41943842E+02  -1.02302848E+01  -6.70905132E+00  -1.20813105E+01  -1.14070207E+01  -7.76847276E+00  -3.20416321E+00  -9.83990692E+00  -3.68359739E+00  -6.08854213E+01  -1.21563980E+01  -8.40161070E+00  -1.96168810E+00  -4.38984336E+01  -6.77685198E+00  -8.16411329E+00  -3.71310928E+00  -7.11301076E+00  -6.42124811E+00  -6.96351546E+00  -8.23927606E+00  -1.03400089E+01  -8.90881862E+00  -7.12063163E+00  -6.34732867E+00  -1.21583248E+01  -6.17251311E+00  -1.38715956E+01  -7.42505612E+00  -1.07941028E+01  -1.59047946E+01  -1.59050568E+01  -2.15902867E+01  -1.26560080E+01  -2.14866252E+01  -2.14869314E+01  -3.12331335E+01  -3.08523669E+01
   1.92500000E+02   5.00000000E-01   5.00000000E-01  -7.04704039E+00  -1.45960223E+01  -3.36865675E+00  -1.35774596E+00  -1.97207910E+00  -2.44824970E+00  -1.22343209E+01  -6.71476719E+00  -5.10835321E+00  -2.61644314E-01  -4.16673054E+00  -1.95146563E+00  -9.84574193E+00  -3.32307905E-01  -1.81077070E+00  -7.74450570E+00  -3.39717947E+00  -6.14105472E+00  -4.40817484E+00  -3.13148177E+00  -1.31902245E+01  -1.22336466E+01  -1.04936340E+01  -1.30347156E+01  -8.82103837E+00  -8.22451391E+00  -1.06680979E+01  -1.39260630E+01  -2.38339600E+00  -5.07507993E+00  -3.19039576E+00  -4.19036809E+00  -8.35453341E+00  -2.93514933E+00  -3.59299204E+00  -5.82892582E+00  -5.46147590E+00  -3.29675328E+00  -6.89567864E+00  -1.40196337E+02  -1.01619957E+01  -6.65721761E+00  -1.19292652E+01  -1.12893722E+01  -7.64346051E+00  -3.20042476E+00  -9.80382184E+00  -3.68130544E+00  -6.00920068E+01  -1.20410406E+01  -8.39080725E+00  -1.97007415E+00  -4.33923148E+01  -6.77135968E+00  -8.20663828E+00  -3.73117886E+00  -7.01309955E+00  -6.40907444E+00  -7.03806831E+00  -8.21751140E+00  -1.04148836E+01  -8.93617955E+00  -7.08668616E+00  -6.34036537E+00  -1.20947703E+01  -6.16491517E+00  -1.36561274E+01  -7.39660643E+00  -1.07817099E+01  -1.58807292E+01  -1.58809893E+01  -2.15600335E+01  -1.26167530E+01  -2.14574319E+01  -2.14577362E+01  -3.11439072E+01  -3.05858156E+01
   2.27500000E+02   5.00000000E-01   5.00000000E-01  -6.96223838E+00  -1.44855736E+01  -3.30929213E+00  -1.36606098E+00  -1.96040448E+00  -2.41082953E+00  -1.22229659E+01  -6.71527036E+00  -5.10953083E+00  -2.61423424E-01  -4.16644526E+00  -1.95147598E+00  -9.82237920E+00  -3.31737894E-01  -1.80803467E+00  -7.74431104E+00  -3.39689419E+00  -6.16324014E+00  -4.40788956E+00  -3.09783595E+00  -1.30768444E+01  -1.20952765E+01  -1.03964917E+01  -1.29214749E+01  -8.79454808E+00  -8.20586390E+00  -1.07032713E+01  -1.38531192E+01  -2.38831285E+00  -5.13323488E+00  -3.17006090E+00  -4.19636251E+00  -8.28877749E+00  -2.92009778E+00  -3.52103715E+00  -5.78061013E+00  -5.41048955E+00  -3.24884970E+00  -6.87640285E+00  -1.38482286E+02  -1.00978525E+01  -6.60584758E+00  -1.17797046E+01  -1.11759432E+01  -7.52077367E+00  -3.19576956E+00  -9.76806879E+00  -3.67845449E+00  -5.93124664E+01  -1.19290999E+01  -8.37900163E+00  -1.97745348E+00  -4.28952351E+01  -6.76435813E+00  -8.24564035E+00  -3.76003704E+00  -6.92645811E+00  -6.40757863E+00  -7.12057269E+00  -8.19437157E+00  -1.04884801E+01  -8.96298239E+00  -7.05235470E+00  -6.33239562E+00  -1.20321716E+01  -6.15742663E+00  -1.34527531E+01  -7.37154766E+00  -1.07727053E+01  -1.58616742E+01  -1.58619324E+01  -2.15365761E+01  -1.25838356E+01  -2.14350140E+01  -2.14353155E+01  -3.10644672E+01  -3.03255086E+01
   2.62500000E+02   5.00000000E-01   5.00000000E-01  -6.87990834E+00  -1.43817194E+01  -3.25084330E+00  -1.37386560E+00  -1.94913671E+00  -2.38218787E+00  -1.22088528E+01  -6.71579608E+00  -5.11075719E+00  -2.61168612E-01  -4.16612139E+00  -1.95150445E+00  -9.80263472E+00  -3.31162510E-01  -1.80585499E+00  -7.74407800E+00  -3.39657032E+00  -6.18577130E+00  -4.40756569E+00  -3.06585893E+00  -1.29656115E+01  -1.19619854E+01  -1.03031469E+01  -1.28135311E+01  -8.76810328E+00  -8.18653113E+00  -1.07380799E+01  -1.37815903E+01  -2.39390071E+00  -5.19154045E+00  -3.14907238E+00  -4.20012605E+00  -8.22400540E+00  -2.90503911E+00  -3.45724406E+00  -5.73904524E+00  -5.36774132E+00  -3.20929793E+00  -6.85792315E+00  -1.36800675E+02  -1.00373796E+01  -6.55598160E+00  -1.16336038E+01  -1.10662847E+01  -7.40031840E+00  -3.19029749E+00  -9.73270231E+00  -3.67509521E+00  -5.85464302E+01  -1.18202367E+01  -8.36632771E+00  -1.98389874E+00  -4.24069602E+01  -6.75705101E+00  -8.28246049E+00  -3.79630222E+00  -6.85025792E+00  -6.41407185E+00  -7.20848805E+00  -8.17107587E+00  -1.05618836E+01  -8.98963985E+00  -7.01803633E+00  -6.32351415E+00  -1.19705563E+01  -6.15011974E+00  -1.32603385E+01  -7.34945838E+00  -1.07667208E+01  -1.58470831E+01  -1.58473407E+01  -2.15191806E+01  -1.25564301E+01  -2.14186370E+01  -2.14189361E+01  -3.09937525E+01  -3.00710592E+01
   2.97500000E+02   5.00000000E-01   5.00000000E-01  -6.79989527E+00  -1.42836369E+01  -3.19351825E+00  -1.38127726E+00  -1.93824957E+00  -2.35984473E+00  -1.21928619E+01  -6.71634555E+00  -5.11202473E+00  -2.60882317E-01  -4.16576097E+00  -1.95154900E+00  -9.78613270E+00  -3.30578901E-01  -1.80417694E+00  -7.74380863E+00  -3.39620990E+00  -6.20932955E+00  -4.40720527E+00  -3.03530106E+00  -1.28564381E+01  -1.18331730E+01  -1.02131544E+01  -1.27101950E+01  -8.74202417E+00  -8.16659756E+00  -1.07728915E+01  -1.37115065E+01  -2.40038451E+00  -5.25025211E+00  -3.12749761E+00  -4.20183366E+00  -8.16025382E+00  -2.89003509E+00  -3.39921915E+00  -5.70193643E+00  -5.33086021E+00  -3.17571101E+00  -6.84023560E+00  -1.35150490E+02  -9.98019157E+00  -6.50824504E+00  -1.14915021E+01  -1.09599169E+01  -7.28198601E+00  -3.18409908E+00  -9.69779356E+00  -3.67127665E+00  -5.77935171E+01  -1.17140939E+01  -8.35292969E+00  -1.98947966E+00  -4.19272629E+01  -6.75023605E+00  -8.31804624E+00  -3.83791334E+00  -6.78263609E+00  -6.42684453E+00  -7.30026603E+00  -8.14843536E+00  -1.06358110E+01  -9.01650869E+00  -6.98405321E+00  -6.31380628E+00  -1.19099692E+01  -6.14305944E+00  -1.30776919E+01  -7.32990723E+00  -1.07633954E+01  -1.58364197E+01  -1.58366789E+01  -2.15071268E+01  -1.25336895E+01  -2.14075803E+01  -2.14078783E+01  -3.09307190E+01  -2.98219762E+01
   3.32500000E+02   5.00000000E-01   5.00000000E-01  -6.72205555E+00  -1.41905817E+01  -3.13748308E+00  -1.38839915E+00  -1.92771949E+00  -2.34214103E+00  -1.21757684E+01  -6.71691979E+00  -5.11332601E+00  -2.60566750E-01  -4.16536581E+00  -1.95160783E+00  -9.77257516E+00  -3.29984637E-01  -1.80295233E+00  -7.74350473E+00  -3.39581475E+00  -6.23433698E+00  -4.40681012E+00  -3.00593920E+00  -1.27492409E+01  -1.17082970E+01  -1.01261140E+01  -1.26108450E+01  -8.71657846E+00  -8.14613679E+00  -1.08080163E+01  -1.36428910E+01  -2.40794645E+00  -5.30958114E+00  -3.10539797E+00  -4.20164510E+00  -8.09755409E+00  -2.87514127E+00  -3.34538102E+00  -5.66779245E+00  -5.29828568E+00  -3.14651356E+00  -6.82333592E+00  -1.33530766E+02  -9.92598117E+00  -6.46300681E+00  -1.13536864E+01  -1.08564086E+01  -7.16567610E+00  -3.17725630E+00  -9.66340544E+00  -3.66704478E+00  -5.70533601E+01  -1.16103508E+01  -8.33893793E+00  -1.99426176E+00  -4.14559233E+01  -6.74443928E+00  -8.35306133E+00  -3.88356964E+00  -6.72229469E+00  -6.44474091E+00  -7.39490030E+00  -8.12698730E+00  -1.07107174E+01  -9.04388843E+00  -6.95067454E+00  -6.30334864E+00  -1.18504479E+01  -6.13630238E+00  -1.29037318E+01  -7.31250817E+00  -1.07624052E+01  -1.58292031E+01  -1.58294671E+01  -2.14997691E+01  -1.25148568E+01  -2.14011977E+01  -2.14014971E+01  -3.08744305E+01  -2.95778065E+01
   3.67500000E+02   5.00000000E-01   5.00000000E-01  -6.64626416E+00  -1.41019339E+01  -3.08288520E+00  -1.39531869E+00  -1.91752536E+00  -2.32793534E+00  -1.21582128E+01  -6.71751953E+00  -5.11465367E+00  -2.60223916E-01  -4.16493749E+00  -1.95167938E+00  -9.76171793E+00  -3.29377724E-01  -1.80213808E+00  -7.74316787E+00  -3.39538643E+00  -6.26103801E+00  -4.40638180E+00  -2.97758782E+00  -1.26439482E+01  -1.15869046E+01  -1.00416861E+01  -1.25149649E+01  -8.69199720E+00  -8.12521468E+00  -1.08437152E+01  -1.35757532E+01  -2.41674113E+00  -5.36970175E+00  -3.08282929E+00  -4.19970616E+00  -8.03592458E+00  -2.86040665E+00  -3.29465789E+00  -5.63562367E+00  -5.26895708E+00  -3.12063841E+00  -6.80721149E+00  -1.31940594E+02  -9.87450334E+00  -6.42046887E+00  -1.12202889E+01  -1.07554004E+01  -7.05130326E+00  -3.16984324E+00  -9.62958523E+00  -3.66244181E+00  -5.63256136E+01  -1.15087395E+01  -8.32446195E+00  -1.99830582E+00  -4.09927284E+01  -6.73999765E+00  -8.38796117E+00  -3.93243580E+00  -6.66828693E+00  -6.46693795E+00  -7.49169825E+00  -8.10707797E+00  -1.07868704E+01  -9.07202945E+00  -6.91813239E+00  -6.29220984E+00  -1.17920148E+01  -6.12989676E+00  -1.27375344E+01  -7.29693534E+00  -1.07634712E+01  -1.58250193E+01  -1.58252917E+01  -2.14965512E+01  -1.24992944E+01  -2.13989328E+01  -2.13992367E+01  -3.08240816E+01  -2.93381780E+01
   4.02500000E+02   5.00000000E-01   5.00000000E-01  -6.57241389E+00  -1.40171902E+01  -3.02986251E+00  -1.40210821E+00  -1.90764825E+00  -2.31642598E+00  -1.21407089E+01  -6.71814520E+00  -5.11600034E+00  -2.59855638E-01  -4.16447740E+00  -1.95176230E+00  -9.75335526E+00  -3.28756561E-01  -1.80169528E+00  -7.74279943E+00  -3.39492633E+00  -6.28955174E+00  -4.40592171E+00  -2.95009796E+00  -1.25405003E+01  -1.14686259E+01  -9.95958753E+00  -1.24221374E+01  -8.66848482E+00  -8.10388999E+00  -1.08802105E+01  -1.35100889E+01  -2.42690485E+00  -5.43076051E+00  -3.05984231E+00  -4.19614978E+00  -7.97537109E+00  -2.84587379E+00  -3.24631048E+00  -5.60476563E+00  -5.24213667E+00  -3.09734911E+00  -6.79184134E+00  -1.30379121E+02  -9.82555991E+00  -6.38071843E+00  -1.10913388E+01  -1.06565997E+01  -6.93879602E+00  -3.16192676E+00  -9.59636520E+00  -3.65750606E+00  -5.56099526E+01  -1.14090408E+01  -8.30959158E+00  -2.00166780E+00  -4.05374718E+01  -6.73711234E+00  -8.42304704E+00  -3.98397487E+00  -6.61989149E+00  -6.49282050E+00  -7.59015703E+00  -8.08891621E+00  -1.08644025E+01  -9.10114350E+00  -6.88663181E+00  -6.28045111E+00  -1.17346777E+01  -6.12388253E+00  -1.25783259E+01  -7.28292162E+00  -1.07663584E+01  -1.58235196E+01  -1.58238048E+01  -2.14970046E+01  -1.24864813E+01  -2.14003169E+01  -2.14006293E+01  -3.07789954E+01  -2.91027977E+01
   4.37500000E+02   5.00000000E-01   5.00000000E-01  -6.50041237E+00  -1.39359455E+01  -2.97854640E+00  -1.40882664E+00  -1.89807124E+00  -2.30704102E+00  -1.21236605E+01  -6.71879696E+00  -5.11735862E+00  -2.59463580E-01  -4.16398676E+00  -1.95185541E+00  -9.74730953E+00  -3.28119887E-01  -1.80158867E+00  -7.74240064E+00  -3.39443569E+00  -6.31990693E+00  -4.40543106E+00  -2.92335123E+00  -1.24388463E+01  -1.13531621E+01  -9.87958358E+00  -1.23320289E+01  -8.64622504E+00  -8.08221497E+00  -1.09176939E+01  -1.34458831E+01  -2.43856081E+00  -5.49288380E+00  -3.03648305E+00  -4.19109711E+00  -7.91588956E+00  -2.83157913E+00  -3.19982255E+00  -5.57477012E+00  -5.21730252E+00  -3.07613048E+00  -6.77719848E+00  -1.28845542E+02  -9.77898697E+00  -6.34376054E+00  -1.09667926E+01  -1.05597709E+01  -6.82809398E+00  -3.15356711E+00  -9.56376550E+00  -3.65227203E+00  -5.49060702E+01  -1.13110777E+01  -8.29440009E+00  -2.00439897E+00  -4.00899535E+01  -6.73588468E+00  -8.45850502E+00  -4.03784680E+00  -6.57653504E+00  -6.52190670E+00  -7.68989189E+00  -8.07260943E+00  -1.09433483E+01  -9.13141213E+00  -6.85635670E+00  -6.26812683E+00  -1.16784330E+01  -6.11829192E+00  -1.24254595E+01  -7.27024936E+00  -1.07708694E+01  -1.58244116E+01  -1.58247143E+01  -2.15007356E+01  -1.24759946E+01  -2.14049563E+01  -2.14052816E+01  -3.07386045E+01  -2.88714365E+01
   4.72500000E+02   5.00000000E-01   5.00000000E-01  -6.43017881E+00  -1.38578723E+01  -2.92906137E+00  -1.41552139E+00  -1.88877923E+00  -2.29936712E+00  -1.21073815E+01  -6.71947473E+00  -5.11872107E+00  -2.59049269E-01  -4.16346664E+00  -1.95195769E+00  -9.74342410E+00  -3.27466730E-01  -1.80178621E+00  -7.74197257E+00  -3.39391558E+00  -6.35206664E+00  -4.40491095E+00  -2.89725333E+00  -1.23389420E+01  -1.12402704E+01  -9.80147987E+00  -1.22443716E+01  -8.62538386E+00  -8.06023594E+00  -1.09563329E+01  -1.33831133E+01  -2.45182146E+00  -5.55618280E+00  -3.01279326E+00  -4.18465843E+00  -7.85746896E+00  -2.81755345E+00  -3.15483039E+00  -5.54533531E+00  -5.19408062E+00  -3.05661813E+00  -6.76325246E+00  -1.27339093E+02  -9.73464522E+00  -6.30954002E+00  -1.08465531E+01  -1.04647242E+01  -6.71914482E+00  -3.14481847E+00  -9.53179724E+00  -3.64677059E+00  -5.42136742E+01  -1.12147072E+01  -8.27894766E+00  -2.00654612E+00  -3.96499796E+01  -6.73634158E+00  -8.49443477E+00  -4.09384347E+00  -6.53774305E+00  -6.55380206E+00  -7.79059355E+00  -8.05818926E+00  -1.10236719E+01  -9.16299256E+00  -6.82747280E+00  -6.25528519E+00  -1.16232685E+01  -6.11315005E+00  -1.22783904E+01  -7.25874058E+00  -1.07768377E+01  -1.58274485E+01  -1.58277738E+01  -2.15074124E+01  -1.24674900E+01  -2.14125191E+01  -2.14128622E+01  -3.07024311E+01  -2.86439118E+01
   5.07500000E+02   5.00000000E-01   5.00000000E-01  -6.36164122E+00  -1.37827014E+01  -2.88152320E+00  -1.42223024E+00  -1.87975880E+00  -2.29310221E+00  -1.20921132E+01  -6.72017830E+00  -5.12008025E+00  -2.58614116E-01  -4.16291802E+00  -1.95206828E+00  -9.74155845E+00  -3.26796354E-01  -1.80225876E+00  -7.74151618E+00  -3.39336696E+00  -6.38594644E+00  -4.40436233E+00  -2.87172862E+00  -1.22407475E+01  -1.11297510E+01  -9.72511409E+00  -1.21589475E+01  -8.60611058E+00  -8.03799393E+00  -1.09962739E+01  -1.33217518E+01  -2.46678879E+00  -5.62075604E+00  -2.98881074E+00  -4.17693413E+00  -7.80009385E+00  -2.80382238E+00  -3.11107601E+00  -5.51625938E+00  -5.17220035E+00  -3.03855176E+00  -6.74997155E+00  -1.25859043E+02  -9.69241281E+00  -6.27795738E+00  -1.07304830E+01  -1.03713051E+01  -6.61190170E+00  -3.13572946E+00  -9.50046519E+00  -3.64102927E+00  -5.35324845E+01  -1.11198128E+01  -8.26328432E+00  -2.00815189E+00  -3.92173624E+01  -6.73845454E+00  -8.53087136E+00  -4.15184483E+00  -6.50310833E+00  -6.58817075E+00  -7.89200232E+00  -8.04563059E+00  -1.11052870E+01  -9.19602113E+00  -6.80012872E+00  -6.24196869E+00  -1.15691663E+01  -6.10847560E+00  -1.21366540E+01  -7.24824874E+00  -1.07841219E+01  -1.58324211E+01  -1.58327746E+01  -2.15167532E+01  -1.24606855E+01  -2.14227237E+01  -2.14230899E+01  -3.06700704E+01  -2.84200733E+01
   5.42500000E+02   5.00000000E-01   5.00000000E-01  -6.29473434E+00  -1.37102081E+01  -2.83603649E+00  -1.42898296E+00  -1.87099810E+00  -2.28802323E+00  -1.20780397E+01  -6.72090740E+00  -5.12142881E+00  -2.58159431E-01  -4.16234174E+00  -1.95218641E+00  -9.74158457E+00  -3.26108219E-01  -1.80297984E+00  -7.74103231E+00  -3.39279067E+00  -6.42142840E+00  -4.40378605E+00  -2.84671582E+00  -1.21442252E+01  -1.10214370E+01  -9.65034971E+00  -1.20755764E+01  -8.58853750E+00  -8.01552519E+00  -1.10376439E+01  -1.32617679E+01  -2.48355343E+00  -5.68669007E+00  -2.96456974E+00  -4.16801551E+00  -7.74374620E+00  -2.79040686E+00  -3.06837535E+00  -5.48740927E+00  -5.15146429E+00  -3.02174362E+00  -6.73732432E+00  -1.24404692E+02  -9.65218032E+00  -6.24888122E+00  -1.06184159E+01  -1.02793863E+01  -6.50632152E+00  -3.12634361E+00  -9.46976973E+00  -3.63507253E+00  -5.28622314E+01  -1.10262983E+01  -8.24745222E+00  -2.00925506E+00  -3.87919195E+01  -6.74215439E+00  -8.56780212E+00  -4.21178822E+00  -6.47227118E+00  -6.62471781E+00  -7.99389233E+00  -8.03486643E+00  -1.11880733E+01  -9.23061482E+00  -6.77445568E+00  -6.22821479E+00  -1.15161046E+01  -6.10428152E+00  -1.19998482E+01  -7.23865199E+00  -1.07926012E+01  -1.58391507E+01  -1.58395380E+01  -2.15285170E+01  -1.24553477E+01  -2.14353293E+01  -2.14357242E+01  -3.06411764E+01  -2.81997915E+01
   5.77500000E+02   5.00000000E-01   5.00000000E-01  -6.22939819E+00  -1.36402019E+01  -2.79269200E+00  -1.43580271E+00  -1.86248671E+00  -2.28396378E+00  -1.20652983E+01  -6.72166188E+00  -5.12275967E+00  -2.57686439E-01  -4.16173856E+00  -1.95231146E+00  -9.74338447E+00  -3.25401946E-01  -1.80392541E+00  -7.74052172E+00  -3.39218749E+00  -6.45837216E+00  -4.40318287E+00  -2.82216478E+00  -1.20493389E+01  -1.09151875E+01  -9.57707115E+00  -1.19941077E+01  -8.57277885E+00  -7.99286180E+00  -1.10805508E+01  -1.32031296E+01  -2.50219294E+00  -5.75405862E+00  -2.94010129E+00  -4.15798563E+00  -7.68840665E+00  -2.77732372E+00  -3.02659642E+00  -5.45869923E+00  -5.13172732E+00  -3.00605673E+00  -6.72528051E+00  -1.22975368E+02  -9.61384727E+00  -6.22215828E+00  -1.05101647E+01  -1.01888621E+01  -6.40236371E+00  -3.11669982E+00  -9.43970821E+00  -3.62892200E+00  -5.22026537E+01  -1.09340841E+01  -8.23148720E+00  -2.00989086E+00  -3.83734744E+01  -6.74734304E+00  -8.60517990E+00  -4.27364613E+00  -6.44490705E+00  -6.66317830E+00  -8.09606217E+00  -8.02579975E+00  -1.12718877E+01  -9.26687134E+00  -6.75056646E+00  -6.21405646E+00  -1.14640593E+01  -6.10057579E+00  -1.18676215E+01  -7.22984818E+00  -1.08021716E+01  -1.58474834E+01  -1.58479102E+01  -2.15424962E+01  -1.24512821E+01  -2.14501286E+01  -2.14505580E+01  -3.06154509E+01  -2.79829511E+01
   6.12500000E+02   5.00000000E-01   5.00000000E-01  -6.16557713E+00  -1.35725200E+01  -2.75156402E+00  -1.44270722E+00  -1.85421559E+00  -2.28079848E+00  -1.20539891E+01  -6.72244186E+00  -5.12406617E+00  -2.57196293E-01  -4.16110914E+00  -1.95244289E+00  -9.74684817E+00  -3.24677284E-01  -1.80507369E+00  -7.73998507E+00  -3.39155808E+00  -6.49662381E+00  -4.40255346E+00  -2.79803431E+00  -1.19560534E+01  -1.08108819E+01  -9.50518020E+00  -1.19144138E+01  -8.55892927E+00  -7.97003223E+00  -1.11250820E+01  -1.31458042E+01  -2.52276966E+00  -5.82292107E+00  -2.91543351E+00  -4.14691997E+00  -7.63405527E+00  -2.76458606E+00  -2.98564404E+00  -5.43007595E+00  -5.11288189E+00  -2.99138985E+00  -6.71381153E+00  -1.21570419E+02  -9.57731972E+00  -6.19762173E+00  -1.04055300E+01  -1.00996437E+01  -6.29998955E+00  -3.10683274E+00  -9.41027580E+00  -3.62259681E+00  -5.15534984E+01  -1.08431034E+01  -8.21541986E+00  -2.01009124E+00  -3.79618557E+01  -6.75390303E+00  -8.64293356E+00  -4.33740972E+00  -6.42071925E+00  -6.70331085E+00  -8.19832941E+00  -8.01831304E+00  -1.13565741E+01  -9.30486837E+00  -6.72855399E+00  -6.19952283E+00  -1.14130051E+01  -6.09736212E+00  -1.17396640E+01  -7.22175113E+00  -1.08127431E+01  -1.58572857E+01  -1.58577580E+01  -2.15585111E+01  -1.24483254E+01  -2.14669420E+01  -2.14674117E+01  -3.05926349E+01  -2.77694463E+01
   6.47500000E+02   5.00000000E-01   5.00000000E-01  -6.10321936E+00  -1.35070225E+01  -2.71270820E+00  -1.44970978E+00  -1.84617699E+00  -2.27843195E+00  -1.20441807E+01  -6.72324789E+00  -5.12534232E+00  -2.56690085E-01  -4.16045410E+00  -1.95258025E+00  -9.75187234E+00  -3.23934088E-01  -1.80640501E+00  -7.73942296E+00  -3.39090303E+00  -6.53602291E+00  -4.40189842E+00  -2.77429065E+00  -1.18643341E+01  -1.07084172E+01  -9.43459340E+00  -1.18363867E+01  -8.54706228E+00  -7.94706181E+00  -1.11713035E+01  -1.30897586E+01  -2.54532864E+00  -5.89332036E+00  -2.89059192E+00  -4.13488719E+00  -7.58067185E+00  -2.75220372E+00  -2.94544923E+00  -5.40150833E+00  -5.09484752E+00  -2.97766693E+00  -6.70289052E+00  -1.20189221E+02  -9.54250879E+00  -6.17509810E+00  -1.03043062E+01  -1.00116571E+01  -6.19916193E+00  -3.09677315E+00  -9.38146587E+00  -3.61611378E+00  -5.09145196E+01  -1.07533001E+01  -8.19927622E+00  -2.00988520E+00  -3.75568973E+01  -6.76170504E+00  -8.68097606E+00  -4.40307646E+00  -6.39943476E+00  -6.74489402E+00  -8.30052744E+00  -8.01227592E+00  -1.14419705E+01  -9.34466232E+00  -6.70848984E+00  -6.18463974E+00  -1.13629162E+01  -6.09464068E+00  -1.16157011E+01  -7.21428811E+00  -1.08242370E+01  -1.58684416E+01  -1.58689652E+01  -2.15764050E+01  -1.24463408E+01  -2.14856132E+01  -2.14861293E+01  -3.05725026E+01  -2.75591787E+01
   6.82500000E+02   5.00000000E-01   5.00000000E-01  -6.04227672E+00  -1.34435903E+01  -2.67615984E+00  -1.45682021E+00  -1.83836439E+00  -2.27679102E+00  -1.20359163E+01  -6.72408112E+00  -5.12658301E+00  -2.56168856E-01  -4.15977396E+00  -1.95272320E+00  -9.75835910E+00  -3.23172297E-01  -1.80790162E+00  -7.73883591E+00  -3.39022289E+00  -6.57640790E+00  -4.40121828E+00  -2.75090655E+00  -1.17741470E+01  -1.06077057E+01  -9.36524019E+00  -1.17599361E+01  -8.53722893E+00  -7.92397327E+00  -1.12192588E+01  -1.30349604E+01  -2.56989570E+00  -5.96528098E+00  -2.86559971E+00  -4.12194969E+00  -7.52823600E+00  -2.74018370E+00  -2.90596172E+00  -5.37298034E+00  -5.07756317E+00  -2.96482987E+00  -6.69249216E+00  -1.18831168E+02  -9.50932968E+00  -6.15441278E+00  -1.02062873E+01  -9.92484070E+00  -6.09984532E+00  -3.08654830E+00  -9.35327016E+00  -3.60948767E+00  -5.02854789E+01  -1.06646275E+01  -8.18307799E+00  -2.00929898E+00  -3.71584378E+01  -6.77061395E+00  -8.71921075E+00  -4.47064093E+00  -6.38080198E+00  -6.78772423E+00  -8.40250363E+00  -8.00755123E+00  -1.15279144E+01  -9.38628708E+00  -6.69042304E+00  -6.16943039E+00  -1.13137663E+01  -6.09240879E+00  -1.14954908E+01  -7.20739801E+00  -1.08365852E+01  -1.58808498E+01  -1.58814306E+01  -2.15960412E+01  -1.24452144E+01  -2.15060061E+01  -2.15065745E+01  -3.05548560E+01  -2.73520569E+01