 TITLE = "Solution pH" 
 VARIABLES = "X"          "Y"              "Z"             "pH" 
 ZONE I=         100 , J=           1 , K=           1  F=POINT
   1.75000000E+01   5.00000000E-01   5.00000000E-01   7.80555287E+00
   5.25000000E+01   5.00000000E-01   5.00000000E-01   7.68280864E+00
   8.75000000E+01   5.00000000E-01   5.00000000E-01   7.58344590E+00
   1.22500000E+02   5.00000000E-01   5.00000000E-01   7.48616636E+00
   1.57500000E+02   5.00000000E-01   5.00000000E-01   7.37339118E+00
   1.92500000E+02   5.00000000E-01   5.00000000E-01   7.27661670E+00
   2.27500000E+02   5.00000000E-01   5.00000000E-01   7.19314200E+00
   2.62500000E+02   5.00000000E-01   5.00000000E-01   7.11451391E+00
   2.97500000E+02   5.00000000E-01   5.00000000E-01   7.03881118E+00
   3.32500000E+02   5.00000000E-01   5.00000000E-01   6.96544906E+00
   3.67500000E+02   5.00000000E-01   5.00000000E-01   6.89416063E+00
   4.02500000E+02   5.00000000E-01   5.00000000E-01   6.82478872E+00
   4.37500000E+02   5.00000000E-01   5.00000000E-01   6.75722753E+00
   4.72500000E+02   5.00000000E-01   5.00000000E-01   6.69140013E+00
   5.07500000E+02   5.00000000E-01   5.00000000E-01   6.62724740E+00
   5.42500000E+02   5.00000000E-01   5.00000000E-01   6.56472167E+00
   5.77500000E+02   5.00000000E-01   5.00000000E-01   6.50378280E+00
   6.12500000E+02   5.00000000E-01   5.00000000E-01   6.44439575E+00
   6.47500000E+02   5.00000000E-01   5.00000000E-01   6.38652906E+00
   6.82500000E+02   5.00000000E-01   5.00000000E-01   6.33015392E+00
   7.17500000E+02   5.00000000E-01   5.00000000E-01   6.27524359E+00
   7.52500000E+02   5.00000000E-01   5.00000000E-01   6.22177316E+00
   7.87500000E+02   5.00000000E-01   5.00000000E-01   6.16971950E+00
   8.22500000E+02   5.00000000E-01   5.00000000E-01   6.11906126E+00
   8.57500000E+02   5.00000000E-01   5.00000000E-01   6.06977902E+00
   8.92500000E+02   5.00000000E-01   5.00000000E-01   6.02185548E+00
   9.27500000E+02   5.00000000E-01   5.00000000E-01   5.97527565E+00
   9.62500000E+02   5.00000000E-01   5.00000000E-01   5.93002714E+00
   9.97500000E+02   5.00000000E-01   5.00000000E-01   5.88610047E+00
   1.03250000E+03   5.00000000E-01   5.00000000E-01   5.84348944E+00
   1.06750000E+03   5.00000000E-01   5.00000000E-01   5.80219141E+00
   1.10250000E+03   5.00000000E-01   5.00000000E-01   5.76220736E+00
   1.13750000E+03   5.00000000E-01   5.00000000E-01   5.59149501E+00
   1.17250000E+03   5.00000000E-01   5.00000000E-01   5.60145015E+00
   1.20750000E+03   5.00000000E-01   5.00000000E-01   5.58767676E+00
   1.24250000E+03   5.00000000E-01   5.00000000E-01   5.56587239E+00
   1.27750000E+03   5.00000000E-01   5.00000000E-01   5.54051012E+00
   1.31250000E+03   5.00000000E-01   5.00000000E-01   5.51443894E+00
   1.34750000E+03   5.00000000E-01   5.00000000E-01   5.49061281E+00
   1.38250000E+03   5.00000000E-01   5.00000000E-01   5.45983062E+00
   1.41750000E+03   5.00000000E-01   5.00000000E-01   5.44471539E+00
   1.45250000E+03   5.00000000E-01   5.00000000E-01   5.42501198E+00
   1.48750000E+03   5.00000000E-01   5.00000000E-01   5.40609876E+00
   1.52250000E+03   5.00000000E-01   5.00000000E-01   5.38872571E+00
   1.55750000E+03   5.00000000E-01   5.00000000E-01   5.37470081E+00
   1.59250000E+03   5.00000000E-01   5.00000000E-01   5.37189542E+00
   1.62750000E+03   5.00000000E-01   5.00000000E-01   5.38395073E+00
   1.66250000E+03   5.00000000E-01   5.00000000E-01   5.40209790E+00
   1.69750000E+03   5.00000000E-01   5.00000000E-01   5.44195563E+00
   1.73250000E+03   5.00000000E-01   5.00000000E-01   5.51409339E+00
   1.76750000E+03   5.00000000E-01   5.00000000E-01   5.63450239E+00
   1.80250000E+03   5.00000000E-01   5.00000000E-01   5.91994374E+00
   1.83750000E+03   5.00000000E-01   5.00000000E-01   6.43082746E+00
   1.87250000E+03   5.00000000E-01   5.00000000E-01   6.79134806E+00
   1.90750000E+03   5.00000000E-01   5.00000000E-01   6.98446563E+00
   1.94250000E+03   5.00000000E-01   5.00000000E-01   7.10502002E+00
   1.97750000E+03   5.00000000E-01   5.00000000E-01   7.18313951E+00
   2.01250000E+03   5.00000000E-01   5.00000000E-01   7.23268647E+00
   2.04750000E+03   5.00000000E-01   5.00000000E-01   7.26305690E+00
   2.08250000E+03   5.00000000E-01   5.00000000E-01   7.28067286E+00
   2.11750000E+03   5.00000000E-01   5.00000000E-01   7.28977608E+00
   2.15250000E+03   5.00000000E-01   5.00000000E-01   7.29315394E+00
   2.18750000E+03   5.00000000E-01   5.00000000E-01   7.29266645E+00
   2.22250000E+03   5.00000000E-01   5.00000000E-01   7.28958408E+00
   2.25750000E+03   5.00000000E-01   5.00000000E-01   7.28479469E+00
   2.29250000E+03   5.00000000E-01   5.00000000E-01   7.27893009E+00
   2.32750000E+03   5.00000000E-01   5.00000000E-01   7.27244579E+00
   2.36250000E+03   5.00000000E-01   5.00000000E-01   7.26567313E+00
   2.39750000E+03   5.00000000E-01   5.00000000E-01   7.25885408E+00
   2.43250000E+03   5.00000000E-01   5.00000000E-01   7.25216520E+00
   2.46750000E+03   5.00000000E-01   5.00000000E-01   7.24573446E+00
   2.50250000E+03   5.00000000E-01   5.00000000E-01   7.23965332E+00
   2.53750000E+03   5.00000000E-01   5.00000000E-01   7.23398538E+00
   2.57250000E+03   5.00000000E-01   5.00000000E-01   7.22877287E+00
   2.60750000E+03   5.00000000E-01   5.00000000E-01   7.22404120E+00
   2.64250000E+03   5.00000000E-01   5.00000000E-01   7.21980228E+00
   2.67750000E+03   5.00000000E-01   5.00000000E-01   7.21605711E+00
   2.71250000E+03   5.00000000E-01   5.00000000E-01   7.21279738E+00
   2.74750000E+03   5.00000000E-01   5.00000000E-01   7.21000640E+00
   2.78250000E+03   5.00000000E-01   5.00000000E-01   7.20766072E+00
   2.81750000E+03   5.00000000E-01   5.00000000E-01   7.20573221E+00
   2.85250000E+03   5.00000000E-01   5.00000000E-01   7.20418963E+00
   2.88750000E+03   5.00000000E-01   5.00000000E-01   7.20299947E+00
   2.92250000E+03   5.00000000E-01   5.00000000E-01   7.20212638E+00
   2.95750000E+03   5.00000000E-01   5.00000000E-01   7.20153350E+00
   2.99250000E+03   5.00000000E-01   5.00000000E-01   7.20118236E+00
   3.02750000E+03   5.00000000E-01   5.00000000E-01   7.20103269E+00
   3.06250000E+03   5.00000000E-01   5.00000000E-01   7.20104214E+00
   3.09750000E+03   5.00000000E-01   5.00000000E-01   7.20116622E+00
   3.13250000E+03   5.00000000E-01   5.00000000E-01   7.20135787E+00
   3.16750000E+03   5.00000000E-01   5.00000000E-01   7.20156772E+00
   3.20250000E+03   5.00000000E-01   5.00000000E-01   7.20174409E+00
   3.23750000E+03   5.00000000E-01   5.00000000E-01   7.20183293E+00
   3.27250000E+03   5.00000000E-01   5.00000000E-01   7.20177752E+00
   3.30750000E+03   5.00000000E-01   5.00000000E-01   7.20151861E+00
   3.34250000E+03   5.00000000E-01   5.00000000E-01   7.20099460E+00
   3.37750000E+03   5.00000000E-01   5.00000000E-01   7.20014146E+00
   3.41250000E+03   5.00000000E-01   5.00000000E-01   7.19889269E+00
   3.44750000E+03   5.00000000E-01   5.00000000E-01   7.19717860E+00
   3.48250000E+03   5.00000000E-01   5.00000000E-01   7.19467340E+00
