 TITLE = "Solution pH" 
 VARIABLES = "X"          "Y"              "Z"             "pH" 
 ZONE I=         100 , J=           1 , K=           1  F=POINT
   1.75000000E+01   5.00000000E-01   5.00000000E-01   7.71841066E+00
   5.25000000E+01   5.00000000E-01   5.00000000E-01   7.60710113E+00
   8.75000000E+01   5.00000000E-01   5.00000000E-01   7.52297636E+00
   1.22500000E+02   5.00000000E-01   5.00000000E-01   7.44981205E+00
   1.57500000E+02   5.00000000E-01   5.00000000E-01   7.38248088E+00
   1.92500000E+02   5.00000000E-01   5.00000000E-01   7.31877860E+00
   2.27500000E+02   5.00000000E-01   5.00000000E-01   7.25759783E+00
   2.62500000E+02   5.00000000E-01   5.00000000E-01   7.19832574E+00
   2.97500000E+02   5.00000000E-01   5.00000000E-01   7.14059985E+00
   3.32500000E+02   5.00000000E-01   5.00000000E-01   7.08419440E+00
   3.67500000E+02   5.00000000E-01   5.00000000E-01   7.02896238E+00
   4.02500000E+02   5.00000000E-01   5.00000000E-01   6.97480374E+00
   4.37500000E+02   5.00000000E-01   5.00000000E-01   6.92164712E+00
   4.72500000E+02   5.00000000E-01   5.00000000E-01   6.86943894E+00
   5.07500000E+02   5.00000000E-01   5.00000000E-01   6.81813671E+00
   5.42500000E+02   5.00000000E-01   5.00000000E-01   6.76770478E+00
   5.77500000E+02   5.00000000E-01   5.00000000E-01   6.71811169E+00
   6.12500000E+02   5.00000000E-01   5.00000000E-01   6.66932842E+00
   6.47500000E+02   5.00000000E-01   5.00000000E-01   6.62132600E+00
   6.82500000E+02   5.00000000E-01   5.00000000E-01   6.57407399E+00
   7.17500000E+02   5.00000000E-01   5.00000000E-01   6.52754428E+00
   7.52500000E+02   5.00000000E-01   5.00000000E-01   6.48171101E+00
   7.87500000E+02   5.00000000E-01   5.00000000E-01   6.43654793E+00
   8.22500000E+02   5.00000000E-01   5.00000000E-01   6.39202843E+00
   8.57500000E+02   5.00000000E-01   5.00000000E-01   6.34812570E+00
   8.92500000E+02   5.00000000E-01   5.00000000E-01   6.30481299E+00
   9.27500000E+02   5.00000000E-01   5.00000000E-01   6.26206375E+00
   9.62500000E+02   5.00000000E-01   5.00000000E-01   6.21985198E+00
   9.97500000E+02   5.00000000E-01   5.00000000E-01   6.17815246E+00
   1.03250000E+03   5.00000000E-01   5.00000000E-01   6.13694105E+00
   1.06750000E+03   5.00000000E-01   5.00000000E-01   6.09619499E+00
   1.10250000E+03   5.00000000E-01   5.00000000E-01   6.05589317E+00
   1.13750000E+03   5.00000000E-01   5.00000000E-01   6.01601640E+00
   1.17250000E+03   5.00000000E-01   5.00000000E-01   5.97654765E+00
   1.20750000E+03   5.00000000E-01   5.00000000E-01   5.93747220E+00
   1.24250000E+03   5.00000000E-01   5.00000000E-01   5.89877779E+00
   1.27750000E+03   5.00000000E-01   5.00000000E-01   5.86045470E+00
   1.31250000E+03   5.00000000E-01   5.00000000E-01   5.82249572E+00
   1.34750000E+03   5.00000000E-01   5.00000000E-01   5.78489608E+00
   1.38250000E+03   5.00000000E-01   5.00000000E-01   5.74765333E+00
   1.41750000E+03   5.00000000E-01   5.00000000E-01   5.71076707E+00
   1.45250000E+03   5.00000000E-01   5.00000000E-01   5.67423877E+00
   1.48750000E+03   5.00000000E-01   5.00000000E-01   5.63807138E+00
   1.52250000E+03   5.00000000E-01   5.00000000E-01   5.60226901E+00
   1.55750000E+03   5.00000000E-01   5.00000000E-01   5.56683663E+00
   1.59250000E+03   5.00000000E-01   5.00000000E-01   5.53177970E+00
   1.62750000E+03   5.00000000E-01   5.00000000E-01   5.49710382E+00
   1.66250000E+03   5.00000000E-01   5.00000000E-01   5.46281451E+00
   1.69750000E+03   5.00000000E-01   5.00000000E-01   5.42891693E+00
   1.73250000E+03   5.00000000E-01   5.00000000E-01   5.39541570E+00
   1.76750000E+03   5.00000000E-01   5.00000000E-01   5.36231474E+00
   1.80250000E+03   5.00000000E-01   5.00000000E-01   5.32961717E+00
   1.83750000E+03   5.00000000E-01   5.00000000E-01   5.29732528E+00
   1.87250000E+03   5.00000000E-01   5.00000000E-01   5.26544049E+00
   1.90750000E+03   5.00000000E-01   5.00000000E-01   5.23396335E+00
   1.94250000E+03   5.00000000E-01   5.00000000E-01   5.20289361E+00
   1.97750000E+03   5.00000000E-01   5.00000000E-01   5.17223025E+00
   2.01250000E+03   5.00000000E-01   5.00000000E-01   5.14197155E+00
   2.04750000E+03   5.00000000E-01   5.00000000E-01   5.11211519E+00
   2.08250000E+03   5.00000000E-01   5.00000000E-01   5.08265829E+00
   2.11750000E+03   5.00000000E-01   5.00000000E-01   5.05359752E+00
   2.15250000E+03   5.00000000E-01   5.00000000E-01   5.02492922E+00
   2.18750000E+03   5.00000000E-01   5.00000000E-01   4.99664950E+00
   2.22250000E+03   5.00000000E-01   5.00000000E-01   4.96875443E+00
   2.25750000E+03   5.00000000E-01   5.00000000E-01   4.94124012E+00
   2.29250000E+03   5.00000000E-01   5.00000000E-01   4.91410282E+00
   2.32750000E+03   5.00000000E-01   5.00000000E-01   4.88733890E+00
   2.36250000E+03   5.00000000E-01   5.00000000E-01   4.86094490E+00
   2.39750000E+03   5.00000000E-01   5.00000000E-01   4.83491748E+00
   2.43250000E+03   5.00000000E-01   5.00000000E-01   4.80925345E+00
   2.46750000E+03   5.00000000E-01   5.00000000E-01   4.78394970E+00
   2.50250000E+03   5.00000000E-01   5.00000000E-01   4.75900320E+00
   2.53750000E+03   5.00000000E-01   5.00000000E-01   4.73441094E+00
   2.57250000E+03   5.00000000E-01   5.00000000E-01   4.71016993E+00
   2.60750000E+03   5.00000000E-01   5.00000000E-01   4.68627722E+00
   2.64250000E+03   5.00000000E-01   5.00000000E-01   4.66272986E+00
   2.67750000E+03   5.00000000E-01   5.00000000E-01   4.63952508E+00
   2.71250000E+03   5.00000000E-01   5.00000000E-01   4.61666029E+00
   2.74750000E+03   5.00000000E-01   5.00000000E-01   4.59413315E+00
   2.78250000E+03   5.00000000E-01   5.00000000E-01   4.57194152E+00
   2.81750000E+03   5.00000000E-01   5.00000000E-01   4.55008347E+00
   2.85250000E+03   5.00000000E-01   5.00000000E-01   4.52855723E+00
   2.88750000E+03   5.00000000E-01   5.00000000E-01   4.50736118E+00
   2.92250000E+03   5.00000000E-01   5.00000000E-01   4.48649382E+00
   2.95750000E+03   5.00000000E-01   5.00000000E-01   4.46595372E+00
   2.99250000E+03   5.00000000E-01   5.00000000E-01   4.44573955E+00
   3.02750000E+03   5.00000000E-01   5.00000000E-01   4.42584997E+00
   3.06250000E+03   5.00000000E-01   5.00000000E-01   4.40628370E+00
   3.09750000E+03   5.00000000E-01   5.00000000E-01   4.38703943E+00
   3.13250000E+03   5.00000000E-01   5.00000000E-01   4.36811584E+00
   3.16750000E+03   5.00000000E-01   5.00000000E-01   4.34951156E+00
   3.20250000E+03   5.00000000E-01   5.00000000E-01   4.33122519E+00
   3.23750000E+03   5.00000000E-01   5.00000000E-01   4.31325522E+00
   3.27250000E+03   5.00000000E-01   5.00000000E-01   4.29560004E+00
   3.30750000E+03   5.00000000E-01   5.00000000E-01   4.27825794E+00
   3.34250000E+03   5.00000000E-01   5.00000000E-01   4.26122701E+00
   3.37750000E+03   5.00000000E-01   5.00000000E-01   4.24450518E+00
   3.41250000E+03   5.00000000E-01   5.00000000E-01   4.22809014E+00
   3.44750000E+03   5.00000000E-01   5.00000000E-01   4.21197929E+00
   3.48250000E+03   5.00000000E-01   5.00000000E-01   4.19672849E+00
