 TITLE = "Solution pH" 
 VARIABLES = "X"          "Y"              "Z"             "pH" 
 ZONE I=          35 , J=           1 , K=           1  F=POINT
   5.00000000E+01   5.00000000E-01   5.00000000E-01   9.77760093E+00
   1.50000000E+02   5.00000000E-01   5.00000000E-01   9.68416535E+00
   2.50000000E+02   5.00000000E-01   5.00000000E-01   9.61419277E+00
   3.50000000E+02   5.00000000E-01   5.00000000E-01   9.55620481E+00
   4.50000000E+02   5.00000000E-01   5.00000000E-01   9.50101685E+00
   5.50000000E+02   5.00000000E-01   5.00000000E-01   9.44647593E+00
   6.50000000E+02   5.00000000E-01   5.00000000E-01   9.39195523E+00
   7.50000000E+02   5.00000000E-01   5.00000000E-01   9.33707049E+00
   8.50000000E+02   5.00000000E-01   5.00000000E-01   9.28158003E+00
   9.50000000E+02   5.00000000E-01   5.00000000E-01   9.22534700E+00
   1.05000000E+03   5.00000000E-01   5.00000000E-01   9.16831061E+00
   1.15000000E+03   5.00000000E-01   5.00000000E-01   9.11046466E+00
   1.25000000E+03   5.00000000E-01   5.00000000E-01   9.05184285E+00
   1.35000000E+03   5.00000000E-01   5.00000000E-01   8.99250970E+00
   1.45000000E+03   5.00000000E-01   5.00000000E-01   8.93255603E+00
   1.55000000E+03   5.00000000E-01   5.00000000E-01   8.87209764E+00
   1.65000000E+03   5.00000000E-01   5.00000000E-01   8.81127562E+00
   1.75000000E+03   5.00000000E-01   5.00000000E-01   8.75025755E+00
   1.85000000E+03   5.00000000E-01   5.00000000E-01   8.68923835E+00
   1.95000000E+03   5.00000000E-01   5.00000000E-01   8.62844054E+00
   2.05000000E+03   5.00000000E-01   5.00000000E-01   8.56811352E+00
   2.15000000E+03   5.00000000E-01   5.00000000E-01   8.50853197E+00
   2.25000000E+03   5.00000000E-01   5.00000000E-01   8.44999340E+00
   2.35000000E+03   5.00000000E-01   5.00000000E-01   8.39281522E+00
   2.45000000E+03   5.00000000E-01   5.00000000E-01   8.33733110E+00
   2.55000000E+03   5.00000000E-01   5.00000000E-01   8.28388650E+00
   2.65000000E+03   5.00000000E-01   5.00000000E-01   8.23283295E+00
   2.75000000E+03   5.00000000E-01   5.00000000E-01   8.18452037E+00
   2.85000000E+03   5.00000000E-01   5.00000000E-01   8.13928711E+00
   2.95000000E+03   5.00000000E-01   5.00000000E-01   8.09744771E+00
   3.05000000E+03   5.00000000E-01   5.00000000E-01   8.05927879E+00
   3.15000000E+03   5.00000000E-01   5.00000000E-01   8.02500479E+00
   3.25000000E+03   5.00000000E-01   5.00000000E-01   7.99478517E+00
   3.35000000E+03   5.00000000E-01   5.00000000E-01   7.96870499E+00
   3.45000000E+03   5.00000000E-01   5.00000000E-01   7.94675593E+00
