 TITLE = "Solution pH" 
 VARIABLES = "X"          "Y"              "Z"             "pH" 
 ZONE I=         100 , J=           1 , K=           1  F=POINT
   1.75000000E+01   5.00000000E-01   5.00000000E-01   7.77515469E+00
   5.25000000E+01   5.00000000E-01   5.00000000E-01   7.64601584E+00
   8.75000000E+01   5.00000000E-01   5.00000000E-01   7.56733326E+00
   1.22500000E+02   5.00000000E-01   5.00000000E-01   7.50167911E+00
   1.57500000E+02   5.00000000E-01   5.00000000E-01   7.44076229E+00
   1.92500000E+02   5.00000000E-01   5.00000000E-01   7.38209592E+00
   2.27500000E+02   5.00000000E-01   5.00000000E-01   7.32481048E+00
   2.62500000E+02   5.00000000E-01   5.00000000E-01   7.26857355E+00
   2.97500000E+02   5.00000000E-01   5.00000000E-01   7.21324561E+00
   3.32500000E+02   5.00000000E-01   5.00000000E-01   7.15875933E+00
   3.67500000E+02   5.00000000E-01   5.00000000E-01   7.10507546E+00
   4.02500000E+02   5.00000000E-01   5.00000000E-01   7.05216622E+00
   4.37500000E+02   5.00000000E-01   5.00000000E-01   7.00000920E+00
   4.72500000E+02   5.00000000E-01   5.00000000E-01   6.94858496E+00
   5.07500000E+02   5.00000000E-01   5.00000000E-01   6.89787618E+00
   5.42500000E+02   5.00000000E-01   5.00000000E-01   6.84786729E+00
   5.77500000E+02   5.00000000E-01   5.00000000E-01   6.79854420E+00
   6.12500000E+02   5.00000000E-01   5.00000000E-01   6.74989410E+00
   6.47500000E+02   5.00000000E-01   5.00000000E-01   6.70190519E+00
   6.82500000E+02   5.00000000E-01   5.00000000E-01   6.65456652E+00
   7.17500000E+02   5.00000000E-01   5.00000000E-01   6.60786770E+00
   7.52500000E+02   5.00000000E-01   5.00000000E-01   6.56179872E+00
   7.87500000E+02   5.00000000E-01   5.00000000E-01   6.51634975E+00
   8.22500000E+02   5.00000000E-01   5.00000000E-01   6.47151101E+00
   8.57500000E+02   5.00000000E-01   5.00000000E-01   6.42727271E+00
   8.92500000E+02   5.00000000E-01   5.00000000E-01   6.38362493E+00
   9.27500000E+02   5.00000000E-01   5.00000000E-01   6.34055761E+00
   9.62500000E+02   5.00000000E-01   5.00000000E-01   6.29806061E+00
   9.97500000E+02   5.00000000E-01   5.00000000E-01   6.25612372E+00
   1.03250000E+03   5.00000000E-01   5.00000000E-01   6.21473678E+00
   1.06750000E+03   5.00000000E-01   5.00000000E-01   6.17388971E+00
   1.10250000E+03   5.00000000E-01   5.00000000E-01   6.13357271E+00
   1.13750000E+03   5.00000000E-01   5.00000000E-01   6.09377627E+00
   1.17250000E+03   5.00000000E-01   5.00000000E-01   6.05449133E+00
   1.20750000E+03   5.00000000E-01   5.00000000E-01   6.01570937E+00
   1.24250000E+03   5.00000000E-01   5.00000000E-01   5.97742242E+00
   1.27750000E+03   5.00000000E-01   5.00000000E-01   5.93962319E+00
   1.31250000E+03   5.00000000E-01   5.00000000E-01   5.90230501E+00
   1.34750000E+03   5.00000000E-01   5.00000000E-01   5.86546187E+00
   1.38250000E+03   5.00000000E-01   5.00000000E-01   5.82908839E+00
   1.41750000E+03   5.00000000E-01   5.00000000E-01   5.79317971E+00
   1.45250000E+03   5.00000000E-01   5.00000000E-01   5.75773148E+00
   1.48750000E+03   5.00000000E-01   5.00000000E-01   5.72273972E+00
   1.52250000E+03   5.00000000E-01   5.00000000E-01   5.68820075E+00
   1.55750000E+03   5.00000000E-01   5.00000000E-01   5.65411110E+00
   1.59250000E+03   5.00000000E-01   5.00000000E-01   5.62046739E+00
   1.62750000E+03   5.00000000E-01   5.00000000E-01   5.58726628E+00
   1.66250000E+03   5.00000000E-01   5.00000000E-01   5.55450435E+00
   1.69750000E+03   5.00000000E-01   5.00000000E-01   5.52217808E+00
   1.73250000E+03   5.00000000E-01   5.00000000E-01   5.49028377E+00
   1.76750000E+03   5.00000000E-01   5.00000000E-01   5.45881756E+00
   1.80250000E+03   5.00000000E-01   5.00000000E-01   5.42777536E+00
   1.83750000E+03   5.00000000E-01   5.00000000E-01   5.39715289E+00
   1.87250000E+03   5.00000000E-01   5.00000000E-01   5.36694567E+00
   1.90750000E+03   5.00000000E-01   5.00000000E-01   5.33714903E+00
   1.94250000E+03   5.00000000E-01   5.00000000E-01   5.30775814E+00
   1.97750000E+03   5.00000000E-01   5.00000000E-01   5.27876805E+00
   2.01250000E+03   5.00000000E-01   5.00000000E-01   5.25017367E+00
   2.04750000E+03   5.00000000E-01   5.00000000E-01   5.22196988E+00
   2.08250000E+03   5.00000000E-01   5.00000000E-01   5.19415148E+00
   2.11750000E+03   5.00000000E-01   5.00000000E-01   5.16671330E+00
   2.15250000E+03   5.00000000E-01   5.00000000E-01   5.13965014E+00
   2.18750000E+03   5.00000000E-01   5.00000000E-01   5.11295679E+00
   2.22250000E+03   5.00000000E-01   5.00000000E-01   5.08662807E+00
   2.25750000E+03   5.00000000E-01   5.00000000E-01   5.06065883E+00
   2.29250000E+03   5.00000000E-01   5.00000000E-01   5.03504393E+00
   2.32750000E+03   5.00000000E-01   5.00000000E-01   5.00977825E+00
   2.36250000E+03   5.00000000E-01   5.00000000E-01   4.98485672E+00
   2.39750000E+03   5.00000000E-01   5.00000000E-01   4.96027428E+00
   2.43250000E+03   5.00000000E-01   5.00000000E-01   4.93602590E+00
   2.46750000E+03   5.00000000E-01   5.00000000E-01   4.91210657E+00
   2.50250000E+03   5.00000000E-01   5.00000000E-01   4.88851127E+00
   2.53750000E+03   5.00000000E-01   5.00000000E-01   4.86523502E+00
   2.57250000E+03   5.00000000E-01   5.00000000E-01   4.84227282E+00
   2.60750000E+03   5.00000000E-01   5.00000000E-01   4.81961969E+00
   2.64250000E+03   5.00000000E-01   5.00000000E-01   4.79727068E+00
   2.67750000E+03   5.00000000E-01   5.00000000E-01   4.77522087E+00
   2.71250000E+03   5.00000000E-01   5.00000000E-01   4.75346539E+00
   2.74750000E+03   5.00000000E-01   5.00000000E-01   4.73199945E+00
   2.78250000E+03   5.00000000E-01   5.00000000E-01   4.71081838E+00
   2.81750000E+03   5.00000000E-01   5.00000000E-01   4.68991762E+00
   2.85250000E+03   5.00000000E-01   5.00000000E-01   4.66929280E+00
   2.88750000E+03   5.00000000E-01   5.00000000E-01   4.64893975E+00
   2.92250000E+03   5.00000000E-01   5.00000000E-01   4.62885448E+00
   2.95750000E+03   5.00000000E-01   5.00000000E-01   4.60903327E+00
   2.99250000E+03   5.00000000E-01   5.00000000E-01   4.58947264E+00
   3.02750000E+03   5.00000000E-01   5.00000000E-01   4.57016939E+00
   3.06250000E+03   5.00000000E-01   5.00000000E-01   4.55112058E+00
   3.09750000E+03   5.00000000E-01   5.00000000E-01   4.53232357E+00
   3.13250000E+03   5.00000000E-01   5.00000000E-01   4.51377598E+00
   3.16750000E+03   5.00000000E-01   5.00000000E-01   4.49547572E+00
   3.20250000E+03   5.00000000E-01   5.00000000E-01   4.47742094E+00
   3.23750000E+03   5.00000000E-01   5.00000000E-01   4.45961011E+00
   3.27250000E+03   5.00000000E-01   5.00000000E-01   4.44204196E+00
   3.30750000E+03   5.00000000E-01   5.00000000E-01   4.42471552E+00
   3.34250000E+03   5.00000000E-01   5.00000000E-01   4.40763012E+00
   3.37750000E+03   5.00000000E-01   5.00000000E-01   4.39078529E+00
   3.41250000E+03   5.00000000E-01   5.00000000E-01   4.37418080E+00
   3.44750000E+03   5.00000000E-01   5.00000000E-01   4.35781652E+00
   3.48250000E+03   5.00000000E-01   5.00000000E-01   4.34222712E+00
