 TITLE = "Solution pH" 
 VARIABLES = "X"          "Y"              "Z"             "pH" 
 ZONE I=         100 , J=           1 , K=           1  F=POINT
   1.75000000E+01   5.00000000E-01   5.00000000E-01   7.66637903E+00
   5.25000000E+01   5.00000000E-01   5.00000000E-01   7.54015135E+00
   8.75000000E+01   5.00000000E-01   5.00000000E-01   7.44208871E+00
   1.22500000E+02   5.00000000E-01   5.00000000E-01   7.35038598E+00
   1.57500000E+02   5.00000000E-01   5.00000000E-01   7.26195146E+00
   1.92500000E+02   5.00000000E-01   5.00000000E-01   7.17614826E+00
   2.27500000E+02   5.00000000E-01   5.00000000E-01   7.09277584E+00
   2.62500000E+02   5.00000000E-01   5.00000000E-01   7.01175561E+00
   2.97500000E+02   5.00000000E-01   5.00000000E-01   6.93301940E+00
   3.32500000E+02   5.00000000E-01   5.00000000E-01   6.85654122E+00
   3.67500000E+02   5.00000000E-01   5.00000000E-01   6.78234069E+00
   4.02500000E+02   5.00000000E-01   5.00000000E-01   6.71042789E+00
   4.37500000E+02   5.00000000E-01   5.00000000E-01   6.64082090E+00
   4.72500000E+02   5.00000000E-01   5.00000000E-01   6.57354748E+00
   5.07500000E+02   5.00000000E-01   5.00000000E-01   6.50863535E+00
   5.42500000E+02   5.00000000E-01   5.00000000E-01   6.44610931E+00
   5.77500000E+02   5.00000000E-01   5.00000000E-01   6.38598775E+00
   6.12500000E+02   5.00000000E-01   5.00000000E-01   6.32827754E+00
   6.47500000E+02   5.00000000E-01   5.00000000E-01   6.27296805E+00
   6.82500000E+02   5.00000000E-01   5.00000000E-01   6.22002505E+00
   7.17500000E+02   5.00000000E-01   5.00000000E-01   6.16938542E+00
   7.52500000E+02   5.00000000E-01   5.00000000E-01   6.12095409E+00
   7.87500000E+02   5.00000000E-01   5.00000000E-01   6.07460418E+00
   8.22500000E+02   5.00000000E-01   5.00000000E-01   6.03018080E+00
   8.57500000E+02   5.00000000E-01   5.00000000E-01   5.98750837E+00
   8.92500000E+02   5.00000000E-01   5.00000000E-01   5.94640035E+00
   9.27500000E+02   5.00000000E-01   5.00000000E-01   5.90666917E+00
   9.62500000E+02   5.00000000E-01   5.00000000E-01   5.86813379E+00
   9.97500000E+02   5.00000000E-01   5.00000000E-01   5.83062299E+00
   1.03250000E+03   5.00000000E-01   5.00000000E-01   5.79397472E+00
   1.06750000E+03   5.00000000E-01   5.00000000E-01   5.75803731E+00
   1.10250000E+03   5.00000000E-01   5.00000000E-01   5.72267771E+00
   1.13750000E+03   5.00000000E-01   5.00000000E-01   5.68778681E+00
   1.17250000E+03   5.00000000E-01   5.00000000E-01   5.65327090E+00
   1.20750000E+03   5.00000000E-01   5.00000000E-01   5.61903058E+00
   1.24250000E+03   5.00000000E-01   5.00000000E-01   5.58493957E+00
   1.27750000E+03   5.00000000E-01   5.00000000E-01   5.55086336E+00
   1.31250000E+03   5.00000000E-01   5.00000000E-01   5.51670451E+00
   1.34750000E+03   5.00000000E-01   5.00000000E-01   5.48240911E+00
   1.38250000E+03   5.00000000E-01   5.00000000E-01   5.44795260E+00
   1.41750000E+03   5.00000000E-01   5.00000000E-01   5.41321002E+00
   1.45250000E+03   5.00000000E-01   5.00000000E-01   5.37771722E+00
   1.48750000E+03   5.00000000E-01   5.00000000E-01   5.34146267E+00
   1.52250000E+03   5.00000000E-01   5.00000000E-01   5.30507569E+00
   1.55750000E+03   5.00000000E-01   5.00000000E-01   5.26872693E+00
   1.59250000E+03   5.00000000E-01   5.00000000E-01   5.23164520E+00
   1.62750000E+03   5.00000000E-01   5.00000000E-01   5.19388525E+00
   1.66250000E+03   5.00000000E-01   5.00000000E-01   5.15620410E+00
   1.69750000E+03   5.00000000E-01   5.00000000E-01   5.11881149E+00
   1.73250000E+03   5.00000000E-01   5.00000000E-01   5.08165735E+00
   1.76750000E+03   5.00000000E-01   5.00000000E-01   5.04523592E+00
   1.80250000E+03   5.00000000E-01   5.00000000E-01   5.01019805E+00
   1.83750000E+03   5.00000000E-01   5.00000000E-01   4.97705285E+00
   1.87250000E+03   5.00000000E-01   5.00000000E-01   4.94606899E+00
   1.90750000E+03   5.00000000E-01   5.00000000E-01   4.91649222E+00
   1.94250000E+03   5.00000000E-01   5.00000000E-01   4.88695326E+00
   1.97750000E+03   5.00000000E-01   5.00000000E-01   4.85688810E+00
   2.01250000E+03   5.00000000E-01   5.00000000E-01   4.82696887E+00
   2.04750000E+03   5.00000000E-01   5.00000000E-01   4.79830050E+00
   2.08250000E+03   5.00000000E-01   5.00000000E-01   4.77143361E+00
   2.11750000E+03   5.00000000E-01   5.00000000E-01   4.74637186E+00
   2.15250000E+03   5.00000000E-01   5.00000000E-01   4.72292017E+00
   2.18750000E+03   5.00000000E-01   5.00000000E-01   4.70087918E+00
   2.22250000E+03   5.00000000E-01   5.00000000E-01   4.68010054E+00
   2.25750000E+03   5.00000000E-01   5.00000000E-01   4.66048640E+00
   2.29250000E+03   5.00000000E-01   5.00000000E-01   4.64197466E+00
   2.32750000E+03   5.00000000E-01   5.00000000E-01   4.62452474E+00
   2.36250000E+03   5.00000000E-01   5.00000000E-01   4.60810728E+00
   2.39750000E+03   5.00000000E-01   5.00000000E-01   4.59269759E+00
   2.43250000E+03   5.00000000E-01   5.00000000E-01   4.57827170E+00
   2.46750000E+03   5.00000000E-01   5.00000000E-01   4.56480417E+00
   2.50250000E+03   5.00000000E-01   5.00000000E-01   4.55226662E+00
   2.53750000E+03   5.00000000E-01   5.00000000E-01   4.54062677E+00
   2.57250000E+03   5.00000000E-01   5.00000000E-01   4.52984767E+00
   2.60750000E+03   5.00000000E-01   5.00000000E-01   4.51988702E+00
   2.64250000E+03   5.00000000E-01   5.00000000E-01   4.51069669E+00
   2.67750000E+03   5.00000000E-01   5.00000000E-01   4.50222252E+00
   2.71250000E+03   5.00000000E-01   5.00000000E-01   4.49440448E+00
   2.74750000E+03   5.00000000E-01   5.00000000E-01   4.48717732E+00
   2.78250000E+03   5.00000000E-01   5.00000000E-01   4.48047195E+00
   2.81750000E+03   5.00000000E-01   5.00000000E-01   4.47421778E+00
   2.85250000E+03   5.00000000E-01   5.00000000E-01   4.46834625E+00
   2.88750000E+03   5.00000000E-01   5.00000000E-01   4.46279607E+00
   2.92250000E+03   5.00000000E-01   5.00000000E-01   4.45751994E+00
   2.95750000E+03   5.00000000E-01   5.00000000E-01   4.45249297E+00
   2.99250000E+03   5.00000000E-01   5.00000000E-01   4.44772145E+00
   3.02750000E+03   5.00000000E-01   5.00000000E-01   4.44324858E+00
   3.06250000E+03   5.00000000E-01   5.00000000E-01   4.43915225E+00
   3.09750000E+03   5.00000000E-01   5.00000000E-01   4.43553161E+00
   3.13250000E+03   5.00000000E-01   5.00000000E-01   4.43248019E+00
   3.16750000E+03   5.00000000E-01   5.00000000E-01   4.43004599E+00
   3.20250000E+03   5.00000000E-01   5.00000000E-01   4.42818802E+00
   3.23750000E+03   5.00000000E-01   5.00000000E-01   4.42675074E+00
   3.27250000E+03   5.00000000E-01   5.00000000E-01   4.42547573E+00
   3.30750000E+03   5.00000000E-01   5.00000000E-01   4.42405350E+00
   3.34250000E+03   5.00000000E-01   5.00000000E-01   4.42220259E+00
   3.37750000E+03   5.00000000E-01   5.00000000E-01   4.41974509E+00
   3.41250000E+03   5.00000000E-01   5.00000000E-01   4.41664396E+00
   3.44750000E+03   5.00000000E-01   5.00000000E-01   4.41298217E+00
   3.48250000E+03   5.00000000E-01   5.00000000E-01   4.41006320E+00
