 TITLE = "Solution pH" 
 VARIABLES = "X"          "Y"              "Z"             "pH" 
 ZONE I=         200 , J=           1 , K=           1  F=POINT
   8.75000000E+00   5.00000000E-01   5.00000000E-01   7.97202307E+00
   2.62500000E+01   5.00000000E-01   5.00000000E-01   7.69282628E+00
   4.37500000E+01   5.00000000E-01   5.00000000E-01   7.56083577E+00
   6.12500000E+01   5.00000000E-01   5.00000000E-01   7.47614928E+00
   7.87500000E+01   5.00000000E-01   5.00000000E-01   7.40861976E+00
   9.62500000E+01   5.00000000E-01   5.00000000E-01   7.35083779E+00
   1.13750000E+02   5.00000000E-01   5.00000000E-01   7.29968166E+00
   1.31250000E+02   5.00000000E-01   5.00000000E-01   7.25297999E+00
   1.48750000E+02   5.00000000E-01   5.00000000E-01   7.20924002E+00
   1.66250000E+02   5.00000000E-01   5.00000000E-01   7.16744728E+00
   1.83750000E+02   5.00000000E-01   5.00000000E-01   7.12691681E+00
   2.01250000E+02   5.00000000E-01   5.00000000E-01   7.08730684E+00
   2.18750000E+02   5.00000000E-01   5.00000000E-01   7.04846489E+00
   2.36250000E+02   5.00000000E-01   5.00000000E-01   7.01023752E+00
   2.53750000E+02   5.00000000E-01   5.00000000E-01   6.97258426E+00
   2.71250000E+02   5.00000000E-01   5.00000000E-01   6.93547940E+00
   2.88750000E+02   5.00000000E-01   5.00000000E-01   6.89889157E+00
   3.06250000E+02   5.00000000E-01   5.00000000E-01   6.86278439E+00
   3.23750000E+02   5.00000000E-01   5.00000000E-01   6.82712068E+00
   3.41250000E+02   5.00000000E-01   5.00000000E-01   6.79186708E+00
   3.58750000E+02   5.00000000E-01   5.00000000E-01   6.75700104E+00
   3.76250000E+02   5.00000000E-01   5.00000000E-01   6.72250923E+00
   3.93750000E+02   5.00000000E-01   5.00000000E-01   6.68838837E+00
   4.11250000E+02   5.00000000E-01   5.00000000E-01   6.65464252E+00
   4.28750000E+02   5.00000000E-01   5.00000000E-01   6.62127979E+00
   4.46250000E+02   5.00000000E-01   5.00000000E-01   6.58831159E+00
   4.63750000E+02   5.00000000E-01   5.00000000E-01   6.55575109E+00
   4.81250000E+02   5.00000000E-01   5.00000000E-01   6.52361170E+00
   4.98750000E+02   5.00000000E-01   5.00000000E-01   6.49203537E+00
   5.16250000E+02   5.00000000E-01   5.00000000E-01   6.46091964E+00
   5.33750000E+02   5.00000000E-01   5.00000000E-01   6.43025059E+00
   5.51250000E+02   5.00000000E-01   5.00000000E-01   6.40004358E+00
   5.68750000E+02   5.00000000E-01   5.00000000E-01   6.37031037E+00
   5.86250000E+02   5.00000000E-01   5.00000000E-01   6.34105543E+00
   6.03750000E+02   5.00000000E-01   5.00000000E-01   6.31227674E+00
   6.21250000E+02   5.00000000E-01   5.00000000E-01   6.28396736E+00
   6.38750000E+02   5.00000000E-01   5.00000000E-01   6.25611738E+00
   6.56250000E+02   5.00000000E-01   5.00000000E-01   6.22871604E+00
   6.73750000E+02   5.00000000E-01   5.00000000E-01   6.20175348E+00
   6.91250000E+02   5.00000000E-01   5.00000000E-01   6.17522257E+00
   7.08750000E+02   5.00000000E-01   5.00000000E-01   6.14911937E+00
   7.26250000E+02   5.00000000E-01   5.00000000E-01   6.12344337E+00
   7.43750000E+02   5.00000000E-01   5.00000000E-01   6.09819738E+00
   7.61250000E+02   5.00000000E-01   5.00000000E-01   6.07338720E+00
   7.78750000E+02   5.00000000E-01   5.00000000E-01   6.04902109E+00
   7.96250000E+02   5.00000000E-01   5.00000000E-01   6.02510898E+00
   8.13750000E+02   5.00000000E-01   5.00000000E-01   6.00166144E+00
   8.31250000E+02   5.00000000E-01   5.00000000E-01   5.97868846E+00
   8.48750000E+02   5.00000000E-01   5.00000000E-01   5.95619817E+00
   8.66250000E+02   5.00000000E-01   5.00000000E-01   5.93419530E+00
   8.83750000E+02   5.00000000E-01   5.00000000E-01   5.91273152E+00
   9.01250000E+02   5.00000000E-01   5.00000000E-01   5.89174370E+00
   9.18750000E+02   5.00000000E-01   5.00000000E-01   5.87120315E+00
   9.36250000E+02   5.00000000E-01   5.00000000E-01   5.85109483E+00
   9.53750000E+02   5.00000000E-01   5.00000000E-01   5.83139226E+00
   9.71250000E+02   5.00000000E-01   5.00000000E-01   5.81205469E+00
   9.88750000E+02   5.00000000E-01   5.00000000E-01   5.79302885E+00
   1.00625000E+03   5.00000000E-01   5.00000000E-01   5.77425105E+00
   1.02375000E+03   5.00000000E-01   5.00000000E-01   5.75564898E+00
   1.04125000E+03   5.00000000E-01   5.00000000E-01   5.73714450E+00
   1.05875000E+03   5.00000000E-01   5.00000000E-01   5.71865581E+00
   1.07625000E+03   5.00000000E-01   5.00000000E-01   5.70010130E+00
   1.09375000E+03   5.00000000E-01   5.00000000E-01   5.68140480E+00
   1.11125000E+03   5.00000000E-01   5.00000000E-01   5.66250155E+00
   1.12875000E+03   5.00000000E-01   5.00000000E-01   5.64334382E+00
   1.14625000E+03   5.00000000E-01   5.00000000E-01   5.62390494E+00
   1.16375000E+03   5.00000000E-01   5.00000000E-01   5.60418076E+00
   1.18125000E+03   5.00000000E-01   5.00000000E-01   5.58418810E+00
   1.19875000E+03   5.00000000E-01   5.00000000E-01   5.56396066E+00
   1.21625000E+03   5.00000000E-01   5.00000000E-01   5.54354348E+00
   1.23375000E+03   5.00000000E-01   5.00000000E-01   5.52298739E+00
   1.25125000E+03   5.00000000E-01   5.00000000E-01   5.50234430E+00
   1.26875000E+03   5.00000000E-01   5.00000000E-01   5.48166388E+00
   1.28625000E+03   5.00000000E-01   5.00000000E-01   5.46099128E+00
   1.30375000E+03   5.00000000E-01   5.00000000E-01   5.44036622E+00
   1.32125000E+03   5.00000000E-01   5.00000000E-01   5.41982279E+00
   1.33875000E+03   5.00000000E-01   5.00000000E-01   5.39938965E+00
   1.35625000E+03   5.00000000E-01   5.00000000E-01   5.37909059E+00
   1.37375000E+03   5.00000000E-01   5.00000000E-01   5.35894512E+00
   1.39125000E+03   5.00000000E-01   5.00000000E-01   5.33896913E+00
   1.40875000E+03   5.00000000E-01   5.00000000E-01   5.31917524E+00
   1.42625000E+03   5.00000000E-01   5.00000000E-01   5.29957346E+00
   1.44375000E+03   5.00000000E-01   5.00000000E-01   5.28017174E+00
   1.46125000E+03   5.00000000E-01   5.00000000E-01   5.26097621E+00
   1.47875000E+03   5.00000000E-01   5.00000000E-01   5.24199158E+00
   1.49625000E+03   5.00000000E-01   5.00000000E-01   5.22322139E+00
   1.51375000E+03   5.00000000E-01   5.00000000E-01   5.20466818E+00
   1.53125000E+03   5.00000000E-01   5.00000000E-01   5.18633373E+00
   1.54875000E+03   5.00000000E-01   5.00000000E-01   5.16821919E+00
   1.56625000E+03   5.00000000E-01   5.00000000E-01   5.15032521E+00
   1.58375000E+03   5.00000000E-01   5.00000000E-01   5.13265206E+00
   1.60125000E+03   5.00000000E-01   5.00000000E-01   5.11519962E+00
   1.61875000E+03   5.00000000E-01   5.00000000E-01   5.09796752E+00
   1.63625000E+03   5.00000000E-01   5.00000000E-01   5.08095508E+00
   1.65375000E+03   5.00000000E-01   5.00000000E-01   5.06416126E+00
   1.67125000E+03   5.00000000E-01   5.00000000E-01   5.04758451E+00
   1.68875000E+03   5.00000000E-01   5.00000000E-01   5.03122245E+00
   1.70625000E+03   5.00000000E-01   5.00000000E-01   5.01507149E+00
   1.72375000E+03   5.00000000E-01   5.00000000E-01   4.99912610E+00
   1.74125000E+03   5.00000000E-01   5.00000000E-01   4.98337792E+00
   1.75875000E+03   5.00000000E-01   5.00000000E-01   4.96781458E+00
   1.77625000E+03   5.00000000E-01   5.00000000E-01   4.95241840E+00
   1.79375000E+03   5.00000000E-01   5.00000000E-01   4.93716541E+00
   1.81125000E+03   5.00000000E-01   5.00000000E-01   4.92202538E+00
   1.82875000E+03   5.00000000E-01   5.00000000E-01   4.90696411E+00
   1.84625000E+03   5.00000000E-01   5.00000000E-01   4.89194964E+00
   1.86375000E+03   5.00000000E-01   5.00000000E-01   4.87696378E+00
   1.88125000E+03   5.00000000E-01   5.00000000E-01   4.86201896E+00
   1.89875000E+03   5.00000000E-01   5.00000000E-01   4.84717738E+00
   1.91625000E+03   5.00000000E-01   5.00000000E-01   4.83256612E+00
   1.93375000E+03   5.00000000E-01   5.00000000E-01   4.81837937E+00
   1.95125000E+03   5.00000000E-01   5.00000000E-01   4.80486066E+00
   1.96875000E+03   5.00000000E-01   5.00000000E-01   4.79226220E+00
   1.98625000E+03   5.00000000E-01   5.00000000E-01   4.78078205E+00
   2.00375000E+03   5.00000000E-01   5.00000000E-01   4.77048804E+00
   2.02125000E+03   5.00000000E-01   5.00000000E-01   4.76125607E+00
   2.03875000E+03   5.00000000E-01   5.00000000E-01   4.75273962E+00
   2.05625000E+03   5.00000000E-01   5.00000000E-01   4.74444469E+00
   2.07375000E+03   5.00000000E-01   5.00000000E-01   4.73588691E+00
   2.09125000E+03   5.00000000E-01   5.00000000E-01   4.72675133E+00
   2.10875000E+03   5.00000000E-01   5.00000000E-01   4.71695267E+00
   2.12625000E+03   5.00000000E-01   5.00000000E-01   4.70658411E+00
   2.14375000E+03   5.00000000E-01   5.00000000E-01   4.69581864E+00
   2.16125000E+03   5.00000000E-01   5.00000000E-01   4.68482872E+00
   2.17875000E+03   5.00000000E-01   5.00000000E-01   4.67374823E+00
   2.19625000E+03   5.00000000E-01   5.00000000E-01   4.66266677E+00
   2.21375000E+03   5.00000000E-01   5.00000000E-01   4.65163882E+00
   2.23125000E+03   5.00000000E-01   5.00000000E-01   4.64069535E+00
   2.24875000E+03   5.00000000E-01   5.00000000E-01   4.62985282E+00
   2.26625000E+03   5.00000000E-01   5.00000000E-01   4.61911865E+00
   2.28375000E+03   5.00000000E-01   5.00000000E-01   4.60849398E+00
   2.30125000E+03   5.00000000E-01   5.00000000E-01   4.59797506E+00
   2.31875000E+03   5.00000000E-01   5.00000000E-01   4.58755482E+00
   2.33625000E+03   5.00000000E-01   5.00000000E-01   4.57722582E+00
   2.35375000E+03   5.00000000E-01   5.00000000E-01   4.56698612E+00
   2.37125000E+03   5.00000000E-01   5.00000000E-01   4.55684479E+00
   2.38875000E+03   5.00000000E-01   5.00000000E-01   4.54681970E+00
   2.40625000E+03   5.00000000E-01   5.00000000E-01   4.53692797E+00
   2.42375000E+03   5.00000000E-01   5.00000000E-01   4.52717910E+00
   2.44125000E+03   5.00000000E-01   5.00000000E-01   4.51757616E+00
   2.45875000E+03   5.00000000E-01   5.00000000E-01   4.50812051E+00
   2.47625000E+03   5.00000000E-01   5.00000000E-01   4.49881458E+00
   2.49375000E+03   5.00000000E-01   5.00000000E-01   4.48966181E+00
   2.51125000E+03   5.00000000E-01   5.00000000E-01   4.48066546E+00
   2.52875000E+03   5.00000000E-01   5.00000000E-01   4.47182796E+00
   2.54625000E+03   5.00000000E-01   5.00000000E-01   4.46315100E+00
   2.56375000E+03   5.00000000E-01   5.00000000E-01   4.45463611E+00
   2.58125000E+03   5.00000000E-01   5.00000000E-01   4.44628515E+00
   2.59875000E+03   5.00000000E-01   5.00000000E-01   4.43810049E+00
   2.61625000E+03   5.00000000E-01   5.00000000E-01   4.43008491E+00
   2.63375000E+03   5.00000000E-01   5.00000000E-01   4.42224141E+00
   2.65125000E+03   5.00000000E-01   5.00000000E-01   4.41457321E+00
   2.66875000E+03   5.00000000E-01   5.00000000E-01   4.40708375E+00
   2.68625000E+03   5.00000000E-01   5.00000000E-01   4.39977664E+00
   2.70375000E+03   5.00000000E-01   5.00000000E-01   4.39265504E+00
   2.72125000E+03   5.00000000E-01   5.00000000E-01   4.38572108E+00
   2.73875000E+03   5.00000000E-01   5.00000000E-01   4.37897741E+00
   2.75625000E+03   5.00000000E-01   5.00000000E-01   4.37243030E+00
   2.77375000E+03   5.00000000E-01   5.00000000E-01   4.36609041E+00
   2.79125000E+03   5.00000000E-01   5.00000000E-01   4.35997045E+00
   2.80875000E+03   5.00000000E-01   5.00000000E-01   4.35408234E+00
   2.82625000E+03   5.00000000E-01   5.00000000E-01   4.34843623E+00
   2.84375000E+03   5.00000000E-01   5.00000000E-01   4.34304119E+00
   2.86125000E+03   5.00000000E-01   5.00000000E-01   4.33790634E+00
   2.87875000E+03   5.00000000E-01   5.00000000E-01   4.33304183E+00
   2.89625000E+03   5.00000000E-01   5.00000000E-01   4.32845916E+00
   2.91375000E+03   5.00000000E-01   5.00000000E-01   4.32416475E+00
   2.93125000E+03   5.00000000E-01   5.00000000E-01   4.32017885E+00
   2.94875000E+03   5.00000000E-01   5.00000000E-01   4.31652182E+00
   2.96625000E+03   5.00000000E-01   5.00000000E-01   4.31321004E+00
   2.98375000E+03   5.00000000E-01   5.00000000E-01   4.31026127E+00
   3.00125000E+03   5.00000000E-01   5.00000000E-01   4.30769562E+00
   3.01875000E+03   5.00000000E-01   5.00000000E-01   4.30553592E+00
   3.03625000E+03   5.00000000E-01   5.00000000E-01   4.30380803E+00
   3.05375000E+03   5.00000000E-01   5.00000000E-01   4.30254129E+00
   3.07125000E+03   5.00000000E-01   5.00000000E-01   4.30176908E+00
   3.08875000E+03   5.00000000E-01   5.00000000E-01   4.30152951E+00
   3.10625000E+03   5.00000000E-01   5.00000000E-01   4.30186631E+00
   3.12375000E+03   5.00000000E-01   5.00000000E-01   4.30282988E+00
   3.14125000E+03   5.00000000E-01   5.00000000E-01   4.30447862E+00
   3.15875000E+03   5.00000000E-01   5.00000000E-01   4.30688063E+00
   3.17625000E+03   5.00000000E-01   5.00000000E-01   4.31011570E+00
   3.19375000E+03   5.00000000E-01   5.00000000E-01   4.31427801E+00
   3.21125000E+03   5.00000000E-01   5.00000000E-01   4.31947931E+00
   3.22875000E+03   5.00000000E-01   5.00000000E-01   4.32585313E+00
   3.24625000E+03   5.00000000E-01   5.00000000E-01   4.33355982E+00
   3.26375000E+03   5.00000000E-01   5.00000000E-01   4.34279292E+00
   3.28125000E+03   5.00000000E-01   5.00000000E-01   4.35378640E+00
   3.29875000E+03   5.00000000E-01   5.00000000E-01   4.36682228E+00
   3.31625000E+03   5.00000000E-01   5.00000000E-01   4.38223592E+00
   3.33375000E+03   5.00000000E-01   5.00000000E-01   4.40041216E+00
   3.35125000E+03   5.00000000E-01   5.00000000E-01   4.42175540E+00
   3.36875000E+03   5.00000000E-01   5.00000000E-01   4.44659504E+00
   3.38625000E+03   5.00000000E-01   5.00000000E-01   4.47495415E+00
   3.40375000E+03   5.00000000E-01   5.00000000E-01   4.50610391E+00
   3.42125000E+03   5.00000000E-01   5.00000000E-01   4.53802765E+00
   3.43875000E+03   5.00000000E-01   5.00000000E-01   4.56749439E+00
   3.45625000E+03   5.00000000E-01   5.00000000E-01   4.59150452E+00
   3.47375000E+03   5.00000000E-01   5.00000000E-01   4.60904545E+00
   3.49125000E+03   5.00000000E-01   5.00000000E-01   4.62165178E+00
