 TITLE = "Solution pH" 
 VARIABLES = "X"          "Y"              "Z"             "pH" 
 ZONE I=         200 , J=           1 , K=           1  F=POINT
   8.75000000E+00   5.00000000E-01   5.00000000E-01   7.96218578E+00
   2.62500000E+01   5.00000000E-01   5.00000000E-01   7.71891718E+00
   4.37500000E+01   5.00000000E-01   5.00000000E-01   7.58838112E+00
   6.12500000E+01   5.00000000E-01   5.00000000E-01   7.49895964E+00
   7.87500000E+01   5.00000000E-01   5.00000000E-01   7.42627712E+00
   9.62500000E+01   5.00000000E-01   5.00000000E-01   7.36349703E+00
   1.13750000E+02   5.00000000E-01   5.00000000E-01   7.30788658E+00
   1.31250000E+02   5.00000000E-01   5.00000000E-01   7.25743757E+00
   1.48750000E+02   5.00000000E-01   5.00000000E-01   7.21061193E+00
   1.66250000E+02   5.00000000E-01   5.00000000E-01   7.16632542E+00
   1.83750000E+02   5.00000000E-01   5.00000000E-01   7.12384981E+00
   2.01250000E+02   5.00000000E-01   5.00000000E-01   7.08270657E+00
   2.18750000E+02   5.00000000E-01   5.00000000E-01   7.04258400E+00
   2.36250000E+02   5.00000000E-01   5.00000000E-01   7.00327969E+00
   2.53750000E+02   5.00000000E-01   5.00000000E-01   6.96466234E+00
   2.71250000E+02   5.00000000E-01   5.00000000E-01   6.92664699E+00
   2.88750000E+02   5.00000000E-01   5.00000000E-01   6.88917895E+00
   3.06250000E+02   5.00000000E-01   5.00000000E-01   6.85222335E+00
   3.23750000E+02   5.00000000E-01   5.00000000E-01   6.81575822E+00
   3.41250000E+02   5.00000000E-01   5.00000000E-01   6.77976980E+00
   3.58750000E+02   5.00000000E-01   5.00000000E-01   6.74424923E+00
   3.76250000E+02   5.00000000E-01   5.00000000E-01   6.70919027E+00
   3.93750000E+02   5.00000000E-01   5.00000000E-01   6.67458770E+00
   4.11250000E+02   5.00000000E-01   5.00000000E-01   6.64043641E+00
   4.28750000E+02   5.00000000E-01   5.00000000E-01   6.60673109E+00
   4.46250000E+02   5.00000000E-01   5.00000000E-01   6.57346623E+00
   4.63750000E+02   5.00000000E-01   5.00000000E-01   6.54063641E+00
   4.81250000E+02   5.00000000E-01   5.00000000E-01   6.50823643E+00
   4.98750000E+02   5.00000000E-01   5.00000000E-01   6.47626130E+00
   5.16250000E+02   5.00000000E-01   5.00000000E-01   6.44470602E+00
   5.33750000E+02   5.00000000E-01   5.00000000E-01   6.41356524E+00
   5.51250000E+02   5.00000000E-01   5.00000000E-01   6.38283301E+00
   5.68750000E+02   5.00000000E-01   5.00000000E-01   6.35250267E+00
   5.86250000E+02   5.00000000E-01   5.00000000E-01   6.32256713E+00
   6.03750000E+02   5.00000000E-01   5.00000000E-01   6.29301916E+00
   6.21250000E+02   5.00000000E-01   5.00000000E-01   6.26385200E+00
   6.38750000E+02   5.00000000E-01   5.00000000E-01   6.23505965E+00
   6.56250000E+02   5.00000000E-01   5.00000000E-01   6.20663714E+00
   6.73750000E+02   5.00000000E-01   5.00000000E-01   6.17858048E+00
   6.91250000E+02   5.00000000E-01   5.00000000E-01   6.15088633E+00
   7.08750000E+02   5.00000000E-01   5.00000000E-01   6.12355172E+00
   7.26250000E+02   5.00000000E-01   5.00000000E-01   6.09657372E+00
   7.43750000E+02   5.00000000E-01   5.00000000E-01   6.06994932E+00
   7.61250000E+02   5.00000000E-01   5.00000000E-01   6.04367568E+00
   7.78750000E+02   5.00000000E-01   5.00000000E-01   6.01775055E+00
   7.96250000E+02   5.00000000E-01   5.00000000E-01   5.99217287E+00
   8.13750000E+02   5.00000000E-01   5.00000000E-01   5.96694333E+00
   8.31250000E+02   5.00000000E-01   5.00000000E-01   5.94206465E+00
   8.48750000E+02   5.00000000E-01   5.00000000E-01   5.91754156E+00
   8.66250000E+02   5.00000000E-01   5.00000000E-01   5.89338044E+00
   8.83750000E+02   5.00000000E-01   5.00000000E-01   5.86958873E+00
   9.01250000E+02   5.00000000E-01   5.00000000E-01   5.84617417E+00
   9.18750000E+02   5.00000000E-01   5.00000000E-01   5.82314415E+00
   9.36250000E+02   5.00000000E-01   5.00000000E-01   5.80050504E+00
   9.53750000E+02   5.00000000E-01   5.00000000E-01   5.77826170E+00
   9.71250000E+02   5.00000000E-01   5.00000000E-01   5.75641710E+00
   9.88750000E+02   5.00000000E-01   5.00000000E-01   5.73497207E+00
   1.00625000E+03   5.00000000E-01   5.00000000E-01   5.71392515E+00
   1.02375000E+03   5.00000000E-01   5.00000000E-01   5.69327253E+00
   1.04125000E+03   5.00000000E-01   5.00000000E-01   5.67300802E+00
   1.05875000E+03   5.00000000E-01   5.00000000E-01   5.65312310E+00
   1.07625000E+03   5.00000000E-01   5.00000000E-01   5.63360685E+00
   1.09375000E+03   5.00000000E-01   5.00000000E-01   5.61444587E+00
   1.11125000E+03   5.00000000E-01   5.00000000E-01   5.59562392E+00
   1.12875000E+03   5.00000000E-01   5.00000000E-01   5.57712139E+00
   1.14625000E+03   5.00000000E-01   5.00000000E-01   5.55891461E+00
   1.16375000E+03   5.00000000E-01   5.00000000E-01   5.54097511E+00
   1.18125000E+03   5.00000000E-01   5.00000000E-01   5.52326909E+00
   1.19875000E+03   5.00000000E-01   5.00000000E-01   5.50575726E+00
   1.21625000E+03   5.00000000E-01   5.00000000E-01   5.48839541E+00
   1.23375000E+03   5.00000000E-01   5.00000000E-01   5.47113567E+00
   1.25125000E+03   5.00000000E-01   5.00000000E-01   5.45392862E+00
   1.26875000E+03   5.00000000E-01   5.00000000E-01   5.43672605E+00
   1.28625000E+03   5.00000000E-01   5.00000000E-01   5.41948404E+00
   1.30375000E+03   5.00000000E-01   5.00000000E-01   5.40216603E+00
   1.32125000E+03   5.00000000E-01   5.00000000E-01   5.38474521E+00
   1.33875000E+03   5.00000000E-01   5.00000000E-01   5.36720574E+00
   1.35625000E+03   5.00000000E-01   5.00000000E-01   5.34954204E+00
   1.37375000E+03   5.00000000E-01   5.00000000E-01   5.33175596E+00
   1.39125000E+03   5.00000000E-01   5.00000000E-01   5.31385092E+00
   1.40875000E+03   5.00000000E-01   5.00000000E-01   5.29582299E+00
   1.42625000E+03   5.00000000E-01   5.00000000E-01   5.27765003E+00
   1.44375000E+03   5.00000000E-01   5.00000000E-01   5.25928588E+00
   1.46125000E+03   5.00000000E-01   5.00000000E-01   5.24067787E+00
   1.47875000E+03   5.00000000E-01   5.00000000E-01   5.22182870E+00
   1.49625000E+03   5.00000000E-01   5.00000000E-01   5.20287796E+00
   1.51375000E+03   5.00000000E-01   5.00000000E-01   5.18410338E+00
   1.53125000E+03   5.00000000E-01   5.00000000E-01   5.16578826E+00
   1.54875000E+03   5.00000000E-01   5.00000000E-01   5.14807362E+00
   1.56625000E+03   5.00000000E-01   5.00000000E-01   5.13093328E+00
   1.58375000E+03   5.00000000E-01   5.00000000E-01   5.11425210E+00
   1.60125000E+03   5.00000000E-01   5.00000000E-01   5.09791057E+00
   1.61875000E+03   5.00000000E-01   5.00000000E-01   5.08182651E+00
   1.63625000E+03   5.00000000E-01   5.00000000E-01   5.06595822E+00
   1.65375000E+03   5.00000000E-01   5.00000000E-01   5.05029011E+00
   1.67125000E+03   5.00000000E-01   5.00000000E-01   5.03481725E+00
   1.68875000E+03   5.00000000E-01   5.00000000E-01   5.01953649E+00
   1.70625000E+03   5.00000000E-01   5.00000000E-01   5.00444402E+00
   1.72375000E+03   5.00000000E-01   5.00000000E-01   4.98953556E+00
   1.74125000E+03   5.00000000E-01   5.00000000E-01   4.97480709E+00
   1.75875000E+03   5.00000000E-01   5.00000000E-01   4.96025646E+00
   1.77625000E+03   5.00000000E-01   5.00000000E-01   4.94588584E+00
   1.79375000E+03   5.00000000E-01   5.00000000E-01   4.93170315E+00
   1.81125000E+03   5.00000000E-01   5.00000000E-01   4.91771944E+00
   1.82875000E+03   5.00000000E-01   5.00000000E-01   4.90394283E+00
   1.84625000E+03   5.00000000E-01   5.00000000E-01   4.89037376E+00
   1.86375000E+03   5.00000000E-01   5.00000000E-01   4.87700511E+00
   1.88125000E+03   5.00000000E-01   5.00000000E-01   4.86382612E+00
   1.89875000E+03   5.00000000E-01   5.00000000E-01   4.85082657E+00
   1.91625000E+03   5.00000000E-01   5.00000000E-01   4.83799863E+00
   1.93375000E+03   5.00000000E-01   5.00000000E-01   4.82533660E+00
   1.95125000E+03   5.00000000E-01   5.00000000E-01   4.81283565E+00
   1.96875000E+03   5.00000000E-01   5.00000000E-01   4.80049085E+00
   1.98625000E+03   5.00000000E-01   5.00000000E-01   4.78829680E+00
   2.00375000E+03   5.00000000E-01   5.00000000E-01   4.77624766E+00
   2.02125000E+03   5.00000000E-01   5.00000000E-01   4.76433759E+00
   2.03875000E+03   5.00000000E-01   5.00000000E-01   4.75256158E+00
   2.05625000E+03   5.00000000E-01   5.00000000E-01   4.74091656E+00
   2.07375000E+03   5.00000000E-01   5.00000000E-01   4.72940249E+00
   2.09125000E+03   5.00000000E-01   5.00000000E-01   4.71802267E+00
   2.10875000E+03   5.00000000E-01   5.00000000E-01   4.70678266E+00
   2.12625000E+03   5.00000000E-01   5.00000000E-01   4.69568789E+00
   2.14375000E+03   5.00000000E-01   5.00000000E-01   4.68474098E+00
   2.16125000E+03   5.00000000E-01   5.00000000E-01   4.67393989E+00
   2.17875000E+03   5.00000000E-01   5.00000000E-01   4.66327795E+00
   2.19625000E+03   5.00000000E-01   5.00000000E-01   4.65274540E+00
   2.21375000E+03   5.00000000E-01   5.00000000E-01   4.64233178E+00
   2.23125000E+03   5.00000000E-01   5.00000000E-01   4.63202821E+00
   2.24875000E+03   5.00000000E-01   5.00000000E-01   4.62182892E+00
   2.26625000E+03   5.00000000E-01   5.00000000E-01   4.61173204E+00
   2.28375000E+03   5.00000000E-01   5.00000000E-01   4.60173939E+00
   2.30125000E+03   5.00000000E-01   5.00000000E-01   4.59185547E+00
   2.31875000E+03   5.00000000E-01   5.00000000E-01   4.58208562E+00
   2.33625000E+03   5.00000000E-01   5.00000000E-01   4.57243433E+00
   2.35375000E+03   5.00000000E-01   5.00000000E-01   4.56290413E+00
   2.37125000E+03   5.00000000E-01   5.00000000E-01   4.55349561E+00
   2.38875000E+03   5.00000000E-01   5.00000000E-01   4.54420833E+00
   2.40625000E+03   5.00000000E-01   5.00000000E-01   4.53504183E+00
   2.42375000E+03   5.00000000E-01   5.00000000E-01   4.52599654E+00
   2.44125000E+03   5.00000000E-01   5.00000000E-01   4.51707416E+00
   2.45875000E+03   5.00000000E-01   5.00000000E-01   4.50827762E+00
   2.47625000E+03   5.00000000E-01   5.00000000E-01   4.49961082E+00
   2.49375000E+03   5.00000000E-01   5.00000000E-01   4.49107808E+00
   2.51125000E+03   5.00000000E-01   5.00000000E-01   4.48268377E+00
   2.52875000E+03   5.00000000E-01   5.00000000E-01   4.47443210E+00
   2.54625000E+03   5.00000000E-01   5.00000000E-01   4.46632713E+00
   2.56375000E+03   5.00000000E-01   5.00000000E-01   4.45837298E+00
   2.58125000E+03   5.00000000E-01   5.00000000E-01   4.45057411E+00
   2.59875000E+03   5.00000000E-01   5.00000000E-01   4.44293554E+00
   2.61625000E+03   5.00000000E-01   5.00000000E-01   4.43546300E+00
   2.63375000E+03   5.00000000E-01   5.00000000E-01   4.42816294E+00
   2.65125000E+03   5.00000000E-01   5.00000000E-01   4.42104251E+00
   2.66875000E+03   5.00000000E-01   5.00000000E-01   4.41410945E+00
   2.68625000E+03   5.00000000E-01   5.00000000E-01   4.40737193E+00
   2.70375000E+03   5.00000000E-01   5.00000000E-01   4.40083840E+00
   2.72125000E+03   5.00000000E-01   5.00000000E-01   4.39451748E+00
   2.73875000E+03   5.00000000E-01   5.00000000E-01   4.38841792E+00
   2.75625000E+03   5.00000000E-01   5.00000000E-01   4.38254870E+00
   2.77375000E+03   5.00000000E-01   5.00000000E-01   4.37691927E+00
   2.79125000E+03   5.00000000E-01   5.00000000E-01   4.37153983E+00
   2.80875000E+03   5.00000000E-01   5.00000000E-01   4.36642172E+00
   2.82625000E+03   5.00000000E-01   5.00000000E-01   4.36157761E+00
   2.84375000E+03   5.00000000E-01   5.00000000E-01   4.35702172E+00
   2.86125000E+03   5.00000000E-01   5.00000000E-01   4.35276992E+00
   2.87875000E+03   5.00000000E-01   5.00000000E-01   4.34883972E+00
   2.89625000E+03   5.00000000E-01   5.00000000E-01   4.34525033E+00
   2.91375000E+03   5.00000000E-01   5.00000000E-01   4.34202276E+00
   2.93125000E+03   5.00000000E-01   5.00000000E-01   4.33917999E+00
   2.94875000E+03   5.00000000E-01   5.00000000E-01   4.33674727E+00
   2.96625000E+03   5.00000000E-01   5.00000000E-01   4.33475261E+00
   2.98375000E+03   5.00000000E-01   5.00000000E-01   4.33322739E+00
   3.00125000E+03   5.00000000E-01   5.00000000E-01   4.33220712E+00
   3.01875000E+03   5.00000000E-01   5.00000000E-01   4.33173232E+00
   3.03625000E+03   5.00000000E-01   5.00000000E-01   4.33184957E+00
   3.05375000E+03   5.00000000E-01   5.00000000E-01   4.33261275E+00
   3.07125000E+03   5.00000000E-01   5.00000000E-01   4.33408447E+00
   3.08875000E+03   5.00000000E-01   5.00000000E-01   4.33633794E+00
   3.10625000E+03   5.00000000E-01   5.00000000E-01   4.33945930E+00
   3.12375000E+03   5.00000000E-01   5.00000000E-01   4.34355058E+00
   3.14125000E+03   5.00000000E-01   5.00000000E-01   4.34873351E+00
   3.15875000E+03   5.00000000E-01   5.00000000E-01   4.35515438E+00
   3.17625000E+03   5.00000000E-01   5.00000000E-01   4.36299002E+00
   3.19375000E+03   5.00000000E-01   5.00000000E-01   4.37245536E+00
   3.21125000E+03   5.00000000E-01   5.00000000E-01   4.38381188E+00
   3.22875000E+03   5.00000000E-01   5.00000000E-01   4.39737614E+00
   3.24625000E+03   5.00000000E-01   5.00000000E-01   4.41352392E+00
   3.26375000E+03   5.00000000E-01   5.00000000E-01   4.43267915E+00
   3.28125000E+03   5.00000000E-01   5.00000000E-01   4.45525959E+00
   3.29875000E+03   5.00000000E-01   5.00000000E-01   4.48151910E+00
   3.31625000E+03   5.00000000E-01   5.00000000E-01   4.51118960E+00
   3.33375000E+03   5.00000000E-01   5.00000000E-01   4.54289810E+00
   3.35125000E+03   5.00000000E-01   5.00000000E-01   4.57379041E+00
   3.36875000E+03   5.00000000E-01   5.00000000E-01   4.60038460E+00
   3.38625000E+03   5.00000000E-01   5.00000000E-01   4.62060629E+00
   3.40375000E+03   5.00000000E-01   5.00000000E-01   4.63477124E+00
   3.42125000E+03   5.00000000E-01   5.00000000E-01   4.64457699E+00
   3.43875000E+03   5.00000000E-01   5.00000000E-01   4.65176294E+00
   3.45625000E+03   5.00000000E-01   5.00000000E-01   4.65755227E+00
   3.47375000E+03   5.00000000E-01   5.00000000E-01   4.66266434E+00
   3.49125000E+03   5.00000000E-01   5.00000000E-01   4.66796715E+00
