 TITLE = "Solution pH" 
 VARIABLES = "X"          "Y"              "Z"             "pH" 
 ZONE I=         200 , J=           1 , K=           1  F=POINT
   8.75000000E+00   5.00000000E-01   5.00000000E-01   7.90803382E+00
   2.62500000E+01   5.00000000E-01   5.00000000E-01   7.68867137E+00
   4.37500000E+01   5.00000000E-01   5.00000000E-01   7.56729953E+00
   6.12500000E+01   5.00000000E-01   5.00000000E-01   7.48052059E+00
   7.87500000E+01   5.00000000E-01   5.00000000E-01   7.40930221E+00
   9.62500000E+01   5.00000000E-01   5.00000000E-01   7.34807466E+00
   1.13750000E+02   5.00000000E-01   5.00000000E-01   7.29393415E+00
   1.31250000E+02   5.00000000E-01   5.00000000E-01   7.24468066E+00
   1.48750000E+02   5.00000000E-01   5.00000000E-01   7.19874087E+00
   1.66250000E+02   5.00000000E-01   5.00000000E-01   7.15506959E+00
   1.83750000E+02   5.00000000E-01   5.00000000E-01   7.11299590E+00
   2.01250000E+02   5.00000000E-01   5.00000000E-01   7.07209500E+00
   2.18750000E+02   5.00000000E-01   5.00000000E-01   7.03209919E+00
   2.36250000E+02   5.00000000E-01   5.00000000E-01   6.99283987E+00
   2.53750000E+02   5.00000000E-01   5.00000000E-01   6.95421084E+00
   2.71250000E+02   5.00000000E-01   5.00000000E-01   6.91614526E+00
   2.88750000E+02   5.00000000E-01   5.00000000E-01   6.87860117E+00
   3.06250000E+02   5.00000000E-01   5.00000000E-01   6.84155237E+00
   3.23750000E+02   5.00000000E-01   5.00000000E-01   6.80498252E+00
   3.41250000E+02   5.00000000E-01   5.00000000E-01   6.76888130E+00
   3.58750000E+02   5.00000000E-01   5.00000000E-01   6.73324177E+00
   3.76250000E+02   5.00000000E-01   5.00000000E-01   6.69805860E+00
   3.93750000E+02   5.00000000E-01   5.00000000E-01   6.66332689E+00
   4.11250000E+02   5.00000000E-01   5.00000000E-01   6.62904155E+00
   4.28750000E+02   5.00000000E-01   5.00000000E-01   6.59519710E+00
   4.46250000E+02   5.00000000E-01   5.00000000E-01   6.56178781E+00
   4.63750000E+02   5.00000000E-01   5.00000000E-01   6.52880788E+00
   4.81250000E+02   5.00000000E-01   5.00000000E-01   6.49625164E+00
   4.98750000E+02   5.00000000E-01   5.00000000E-01   6.46411347E+00
   5.16250000E+02   5.00000000E-01   5.00000000E-01   6.43238771E+00
   5.33750000E+02   5.00000000E-01   5.00000000E-01   6.40106831E+00
   5.51250000E+02   5.00000000E-01   5.00000000E-01   6.37014872E+00
   5.68750000E+02   5.00000000E-01   5.00000000E-01   6.33962184E+00
   5.86250000E+02   5.00000000E-01   5.00000000E-01   6.30948020E+00
   6.03750000E+02   5.00000000E-01   5.00000000E-01   6.27971635E+00
   6.21250000E+02   5.00000000E-01   5.00000000E-01   6.25032321E+00
   6.38750000E+02   5.00000000E-01   5.00000000E-01   6.22129443E+00
   6.56250000E+02   5.00000000E-01   5.00000000E-01   6.19262448E+00
   6.73750000E+02   5.00000000E-01   5.00000000E-01   6.16430860E+00
   6.91250000E+02   5.00000000E-01   5.00000000E-01   6.13634256E+00
   7.08750000E+02   5.00000000E-01   5.00000000E-01   6.10872239E+00
   7.26250000E+02   5.00000000E-01   5.00000000E-01   6.08144415E+00
   7.43750000E+02   5.00000000E-01   5.00000000E-01   6.05450390E+00
   7.61250000E+02   5.00000000E-01   5.00000000E-01   6.02789789E+00
   7.78750000E+02   5.00000000E-01   5.00000000E-01   6.00162300E+00
   7.96250000E+02   5.00000000E-01   5.00000000E-01   5.97567716E+00
   8.13750000E+02   5.00000000E-01   5.00000000E-01   5.95005982E+00
   8.31250000E+02   5.00000000E-01   5.00000000E-01   5.92477210E+00
   8.48750000E+02   5.00000000E-01   5.00000000E-01   5.89981673E+00
   8.66250000E+02   5.00000000E-01   5.00000000E-01   5.87519771E+00
   8.83750000E+02   5.00000000E-01   5.00000000E-01   5.85091984E+00
   9.01250000E+02   5.00000000E-01   5.00000000E-01   5.82698811E+00
   9.18750000E+02   5.00000000E-01   5.00000000E-01   5.80340726E+00
   9.36250000E+02   5.00000000E-01   5.00000000E-01   5.78018132E+00
   9.53750000E+02   5.00000000E-01   5.00000000E-01   5.75731337E+00
   9.71250000E+02   5.00000000E-01   5.00000000E-01   5.73480538E+00
   9.88750000E+02   5.00000000E-01   5.00000000E-01   5.71265817E+00
   1.00625000E+03   5.00000000E-01   5.00000000E-01   5.69087144E+00
   1.02375000E+03   5.00000000E-01   5.00000000E-01   5.66944397E+00
   1.04125000E+03   5.00000000E-01   5.00000000E-01   5.64837378E+00
   1.05875000E+03   5.00000000E-01   5.00000000E-01   5.62765841E+00
   1.07625000E+03   5.00000000E-01   5.00000000E-01   5.60729514E+00
   1.09375000E+03   5.00000000E-01   5.00000000E-01   5.58728116E+00
   1.11125000E+03   5.00000000E-01   5.00000000E-01   5.56761356E+00
   1.12875000E+03   5.00000000E-01   5.00000000E-01   5.54828911E+00
   1.14625000E+03   5.00000000E-01   5.00000000E-01   5.52930392E+00
   1.16375000E+03   5.00000000E-01   5.00000000E-01   5.51065282E+00
   1.18125000E+03   5.00000000E-01   5.00000000E-01   5.49232876E+00
   1.19875000E+03   5.00000000E-01   5.00000000E-01   5.47432212E+00
   1.21625000E+03   5.00000000E-01   5.00000000E-01   5.45661991E+00
   1.23375000E+03   5.00000000E-01   5.00000000E-01   5.43920481E+00
   1.25125000E+03   5.00000000E-01   5.00000000E-01   5.42205306E+00
   1.26875000E+03   5.00000000E-01   5.00000000E-01   5.40513015E+00
   1.28625000E+03   5.00000000E-01   5.00000000E-01   5.38838151E+00
   1.30375000E+03   5.00000000E-01   5.00000000E-01   5.37171661E+00
   1.32125000E+03   5.00000000E-01   5.00000000E-01   5.35499793E+00
   1.33875000E+03   5.00000000E-01   5.00000000E-01   5.33808085E+00
   1.35625000E+03   5.00000000E-01   5.00000000E-01   5.32093296E+00
   1.37375000E+03   5.00000000E-01   5.00000000E-01   5.30369708E+00
   1.39125000E+03   5.00000000E-01   5.00000000E-01   5.28657297E+00
   1.40875000E+03   5.00000000E-01   5.00000000E-01   5.26967636E+00
   1.42625000E+03   5.00000000E-01   5.00000000E-01   5.25301496E+00
   1.44375000E+03   5.00000000E-01   5.00000000E-01   5.23653551E+00
   1.46125000E+03   5.00000000E-01   5.00000000E-01   5.22017243E+00
   1.47875000E+03   5.00000000E-01   5.00000000E-01   5.20387474E+00
   1.49625000E+03   5.00000000E-01   5.00000000E-01   5.18761442E+00
   1.51375000E+03   5.00000000E-01   5.00000000E-01   5.17138475E+00
   1.53125000E+03   5.00000000E-01   5.00000000E-01   5.15519482E+00
   1.54875000E+03   5.00000000E-01   5.00000000E-01   5.13906329E+00
   1.56625000E+03   5.00000000E-01   5.00000000E-01   5.12301247E+00
   1.58375000E+03   5.00000000E-01   5.00000000E-01   5.10706375E+00
   1.60125000E+03   5.00000000E-01   5.00000000E-01   5.09123547E+00
   1.61875000E+03   5.00000000E-01   5.00000000E-01   5.07554376E+00
   1.63625000E+03   5.00000000E-01   5.00000000E-01   5.06000481E+00
   1.65375000E+03   5.00000000E-01   5.00000000E-01   5.04463500E+00
   1.67125000E+03   5.00000000E-01   5.00000000E-01   5.02944787E+00
   1.68875000E+03   5.00000000E-01   5.00000000E-01   5.01445103E+00
   1.70625000E+03   5.00000000E-01   5.00000000E-01   4.99964593E+00
   1.72375000E+03   5.00000000E-01   5.00000000E-01   4.98502993E+00
   1.74125000E+03   5.00000000E-01   5.00000000E-01   4.97059893E+00
   1.75875000E+03   5.00000000E-01   5.00000000E-01   4.95635010E+00
   1.77625000E+03   5.00000000E-01   5.00000000E-01   4.94228486E+00
   1.79375000E+03   5.00000000E-01   5.00000000E-01   4.92841011E+00
   1.81125000E+03   5.00000000E-01   5.00000000E-01   4.91473564E+00
   1.82875000E+03   5.00000000E-01   5.00000000E-01   4.90126848E+00
   1.84625000E+03   5.00000000E-01   5.00000000E-01   4.88800871E+00
   1.86375000E+03   5.00000000E-01   5.00000000E-01   4.87494976E+00
   1.88125000E+03   5.00000000E-01   5.00000000E-01   4.86208209E+00
   1.89875000E+03   5.00000000E-01   5.00000000E-01   4.84939693E+00
   1.91625000E+03   5.00000000E-01   5.00000000E-01   4.83688776E+00
   1.93375000E+03   5.00000000E-01   5.00000000E-01   4.82454982E+00
   1.95125000E+03   5.00000000E-01   5.00000000E-01   4.81237881E+00
   1.96875000E+03   5.00000000E-01   5.00000000E-01   4.80037005E+00
   1.98625000E+03   5.00000000E-01   5.00000000E-01   4.78851821E+00
   2.00375000E+03   5.00000000E-01   5.00000000E-01   4.77681744E+00
   2.02125000E+03   5.00000000E-01   5.00000000E-01   4.76526171E+00
   2.03875000E+03   5.00000000E-01   5.00000000E-01   4.75384551E+00
   2.05625000E+03   5.00000000E-01   5.00000000E-01   4.74256492E+00
   2.07375000E+03   5.00000000E-01   5.00000000E-01   4.73141846E+00
   2.09125000E+03   5.00000000E-01   5.00000000E-01   4.72040745E+00
   2.10875000E+03   5.00000000E-01   5.00000000E-01   4.70953509E+00
   2.12625000E+03   5.00000000E-01   5.00000000E-01   4.69880444E+00
   2.14375000E+03   5.00000000E-01   5.00000000E-01   4.68821603E+00
   2.16125000E+03   5.00000000E-01   5.00000000E-01   4.67776620E+00
   2.17875000E+03   5.00000000E-01   5.00000000E-01   4.66744681E+00
   2.19625000E+03   5.00000000E-01   5.00000000E-01   4.65724655E+00
   2.21375000E+03   5.00000000E-01   5.00000000E-01   4.64715314E+00
   2.23125000E+03   5.00000000E-01   5.00000000E-01   4.63715563E+00
   2.24875000E+03   5.00000000E-01   5.00000000E-01   4.62724626E+00
   2.26625000E+03   5.00000000E-01   5.00000000E-01   4.61742137E+00
   2.28375000E+03   5.00000000E-01   5.00000000E-01   4.60768139E+00
   2.30125000E+03   5.00000000E-01   5.00000000E-01   4.59802962E+00
   2.31875000E+03   5.00000000E-01   5.00000000E-01   4.58847032E+00
   2.33625000E+03   5.00000000E-01   5.00000000E-01   4.57900672E+00
   2.35375000E+03   5.00000000E-01   5.00000000E-01   4.56963985E+00
   2.37125000E+03   5.00000000E-01   5.00000000E-01   4.56036875E+00
   2.38875000E+03   5.00000000E-01   5.00000000E-01   4.55119156E+00
   2.40625000E+03   5.00000000E-01   5.00000000E-01   4.54210678E+00
   2.42375000E+03   5.00000000E-01   5.00000000E-01   4.53311418E+00
   2.44125000E+03   5.00000000E-01   5.00000000E-01   4.52421511E+00
   2.45875000E+03   5.00000000E-01   5.00000000E-01   4.51541244E+00
   2.47625000E+03   5.00000000E-01   5.00000000E-01   4.50671005E+00
   2.49375000E+03   5.00000000E-01   5.00000000E-01   4.49811235E+00
   2.51125000E+03   5.00000000E-01   5.00000000E-01   4.48962380E+00
   2.52875000E+03   5.00000000E-01   5.00000000E-01   4.48124867E+00
   2.54625000E+03   5.00000000E-01   5.00000000E-01   4.47299110E+00
   2.56375000E+03   5.00000000E-01   5.00000000E-01   4.46485528E+00
   2.58125000E+03   5.00000000E-01   5.00000000E-01   4.45684569E+00
   2.59875000E+03   5.00000000E-01   5.00000000E-01   4.44896730E+00
   2.61625000E+03   5.00000000E-01   5.00000000E-01   4.44122567E+00
   2.63375000E+03   5.00000000E-01   5.00000000E-01   4.43362696E+00
   2.65125000E+03   5.00000000E-01   5.00000000E-01   4.42617787E+00
   2.66875000E+03   5.00000000E-01   5.00000000E-01   4.41888553E+00
   2.68625000E+03   5.00000000E-01   5.00000000E-01   4.41175738E+00
   2.70375000E+03   5.00000000E-01   5.00000000E-01   4.40480103E+00
   2.72125000E+03   5.00000000E-01   5.00000000E-01   4.39802416E+00
   2.73875000E+03   5.00000000E-01   5.00000000E-01   4.39143443E+00
   2.75625000E+03   5.00000000E-01   5.00000000E-01   4.38503956E+00
   2.77375000E+03   5.00000000E-01   5.00000000E-01   4.37884744E+00
   2.79125000E+03   5.00000000E-01   5.00000000E-01   4.37286641E+00
   2.80875000E+03   5.00000000E-01   5.00000000E-01   4.36710549E+00
   2.82625000E+03   5.00000000E-01   5.00000000E-01   4.36157467E+00
   2.84375000E+03   5.00000000E-01   5.00000000E-01   4.35628496E+00
   2.86125000E+03   5.00000000E-01   5.00000000E-01   4.35124854E+00
   2.87875000E+03   5.00000000E-01   5.00000000E-01   4.34647870E+00
   2.89625000E+03   5.00000000E-01   5.00000000E-01   4.34198981E+00
   2.91375000E+03   5.00000000E-01   5.00000000E-01   4.33779733E+00
   2.93125000E+03   5.00000000E-01   5.00000000E-01   4.33391781E+00
   2.94875000E+03   5.00000000E-01   5.00000000E-01   4.33036909E+00
   2.96625000E+03   5.00000000E-01   5.00000000E-01   4.32717058E+00
   2.98375000E+03   5.00000000E-01   5.00000000E-01   4.32434361E+00
   3.00125000E+03   5.00000000E-01   5.00000000E-01   4.32191195E+00
   3.01875000E+03   5.00000000E-01   5.00000000E-01   4.31990235E+00
   3.03625000E+03   5.00000000E-01   5.00000000E-01   4.31834515E+00
   3.05375000E+03   5.00000000E-01   5.00000000E-01   4.31727493E+00
   3.07125000E+03   5.00000000E-01   5.00000000E-01   4.31673126E+00
   3.08875000E+03   5.00000000E-01   5.00000000E-01   4.31675956E+00
   3.10625000E+03   5.00000000E-01   5.00000000E-01   4.31741231E+00
   3.12375000E+03   5.00000000E-01   5.00000000E-01   4.31875040E+00
   3.14125000E+03   5.00000000E-01   5.00000000E-01   4.32084507E+00
   3.15875000E+03   5.00000000E-01   5.00000000E-01   4.32378026E+00
   3.17625000E+03   5.00000000E-01   5.00000000E-01   4.32765565E+00
   3.19375000E+03   5.00000000E-01   5.00000000E-01   4.33259065E+00
   3.21125000E+03   5.00000000E-01   5.00000000E-01   4.33872940E+00
   3.22875000E+03   5.00000000E-01   5.00000000E-01   4.34624723E+00
   3.24625000E+03   5.00000000E-01   5.00000000E-01   4.35535871E+00
   3.26375000E+03   5.00000000E-01   5.00000000E-01   4.36632720E+00
   3.28125000E+03   5.00000000E-01   5.00000000E-01   4.37947467E+00
   3.29875000E+03   5.00000000E-01   5.00000000E-01   4.39518856E+00
   3.31625000E+03   5.00000000E-01   5.00000000E-01   4.41391732E+00
   3.33375000E+03   5.00000000E-01   5.00000000E-01   4.43613642E+00
   3.35125000E+03   5.00000000E-01   5.00000000E-01   4.46223793E+00
   3.36875000E+03   5.00000000E-01   5.00000000E-01   4.49223776E+00
   3.38625000E+03   5.00000000E-01   5.00000000E-01   4.52517671E+00
   3.40375000E+03   5.00000000E-01   5.00000000E-01   4.55843240E+00
   3.42125000E+03   5.00000000E-01   5.00000000E-01   4.58807248E+00
   3.43875000E+03   5.00000000E-01   5.00000000E-01   4.61106353E+00
   3.45625000E+03   5.00000000E-01   5.00000000E-01   4.62712573E+00
   3.47375000E+03   5.00000000E-01   5.00000000E-01   4.63800624E+00
   3.49125000E+03   5.00000000E-01   5.00000000E-01   4.64618057E+00
