 TITLE = "Solution pH" 
 VARIABLES = "X"          "Y"              "Z"             "pH" 
 ZONE I=         200 , J=           1 , K=           1  F=POINT
   8.75000000E+00   5.00000000E-01   5.00000000E-01   7.89673390E+00
   2.62500000E+01   5.00000000E-01   5.00000000E-01   7.66343276E+00
   4.37500000E+01   5.00000000E-01   5.00000000E-01   7.54376921E+00
   6.12500000E+01   5.00000000E-01   5.00000000E-01   7.46194982E+00
   7.87500000E+01   5.00000000E-01   5.00000000E-01   7.39579156E+00
   9.62500000E+01   5.00000000E-01   5.00000000E-01   7.33923121E+00
   1.13750000E+02   5.00000000E-01   5.00000000E-01   7.28907289E+00
   1.31250000E+02   5.00000000E-01   5.00000000E-01   7.24307987E+00
   1.48750000E+02   5.00000000E-01   5.00000000E-01   7.19978799E+00
   1.66250000E+02   5.00000000E-01   5.00000000E-01   7.15824835E+00
   1.83750000E+02   5.00000000E-01   5.00000000E-01   7.11784541E+00
   2.01250000E+02   5.00000000E-01   5.00000000E-01   7.07827743E+00
   2.18750000E+02   5.00000000E-01   5.00000000E-01   7.03941016E+00
   2.36250000E+02   5.00000000E-01   5.00000000E-01   7.00111328E+00
   2.53750000E+02   5.00000000E-01   5.00000000E-01   6.96335426E+00
   2.71250000E+02   5.00000000E-01   5.00000000E-01   6.92611214E+00
   2.88750000E+02   5.00000000E-01   5.00000000E-01   6.88936155E+00
   3.06250000E+02   5.00000000E-01   5.00000000E-01   6.85307384E+00
   3.23750000E+02   5.00000000E-01   5.00000000E-01   6.81722062E+00
   3.41250000E+02   5.00000000E-01   5.00000000E-01   6.78177745E+00
   3.58750000E+02   5.00000000E-01   5.00000000E-01   6.74672911E+00
   3.76250000E+02   5.00000000E-01   5.00000000E-01   6.71206772E+00
   3.93750000E+02   5.00000000E-01   5.00000000E-01   6.67779295E+00
   4.11250000E+02   5.00000000E-01   5.00000000E-01   6.64390954E+00
   4.28750000E+02   5.00000000E-01   5.00000000E-01   6.61042440E+00
   4.46250000E+02   5.00000000E-01   5.00000000E-01   6.57734610E+00
   4.63750000E+02   5.00000000E-01   5.00000000E-01   6.54468353E+00
   4.81250000E+02   5.00000000E-01   5.00000000E-01   6.51244488E+00
   4.98750000E+02   5.00000000E-01   5.00000000E-01   6.48073916E+00
   5.16250000E+02   5.00000000E-01   5.00000000E-01   6.44947321E+00
   5.33750000E+02   5.00000000E-01   5.00000000E-01   6.41863429E+00
   5.51250000E+02   5.00000000E-01   5.00000000E-01   6.38823160E+00
   5.68750000E+02   5.00000000E-01   5.00000000E-01   6.35826915E+00
   5.86250000E+02   5.00000000E-01   5.00000000E-01   6.32874416E+00
   6.03750000E+02   5.00000000E-01   5.00000000E-01   6.29964846E+00
   6.21250000E+02   5.00000000E-01   5.00000000E-01   6.27097008E+00
   6.38750000E+02   5.00000000E-01   5.00000000E-01   6.24269491E+00
   6.56250000E+02   5.00000000E-01   5.00000000E-01   6.21480836E+00
   6.73750000E+02   5.00000000E-01   5.00000000E-01   6.18729671E+00
   6.91250000E+02   5.00000000E-01   5.00000000E-01   6.16014827E+00
   7.08750000E+02   5.00000000E-01   5.00000000E-01   6.13335363E+00
   7.26250000E+02   5.00000000E-01   5.00000000E-01   6.10690559E+00
   7.43750000E+02   5.00000000E-01   5.00000000E-01   6.08079901E+00
   7.61250000E+02   5.00000000E-01   5.00000000E-01   6.05503042E+00
   7.78750000E+02   5.00000000E-01   5.00000000E-01   6.02959767E+00
   7.96250000E+02   5.00000000E-01   5.00000000E-01   6.00449933E+00
   8.13750000E+02   5.00000000E-01   5.00000000E-01   5.97973413E+00
   8.31250000E+02   5.00000000E-01   5.00000000E-01   5.95530027E+00
   8.48750000E+02   5.00000000E-01   5.00000000E-01   5.93119495E+00
   8.66250000E+02   5.00000000E-01   5.00000000E-01   5.90741378E+00
   8.83750000E+02   5.00000000E-01   5.00000000E-01   5.88398926E+00
   9.01250000E+02   5.00000000E-01   5.00000000E-01   5.86086398E+00
   9.18750000E+02   5.00000000E-01   5.00000000E-01   5.83802053E+00
   9.36250000E+02   5.00000000E-01   5.00000000E-01   5.81545688E+00
   9.53750000E+02   5.00000000E-01   5.00000000E-01   5.79316583E+00
   9.71250000E+02   5.00000000E-01   5.00000000E-01   5.77113583E+00
   9.88750000E+02   5.00000000E-01   5.00000000E-01   5.74935437E+00
   1.00625000E+03   5.00000000E-01   5.00000000E-01   5.72781056E+00
   1.02375000E+03   5.00000000E-01   5.00000000E-01   5.70649644E+00
   1.04125000E+03   5.00000000E-01   5.00000000E-01   5.68540820E+00
   1.05875000E+03   5.00000000E-01   5.00000000E-01   5.66454552E+00
   1.07625000E+03   5.00000000E-01   5.00000000E-01   5.64391121E+00
   1.09375000E+03   5.00000000E-01   5.00000000E-01   5.62351055E+00
   1.11125000E+03   5.00000000E-01   5.00000000E-01   5.60335047E+00
   1.12875000E+03   5.00000000E-01   5.00000000E-01   5.58343842E+00
   1.14625000E+03   5.00000000E-01   5.00000000E-01   5.56378118E+00
   1.16375000E+03   5.00000000E-01   5.00000000E-01   5.54438390E+00
   1.18125000E+03   5.00000000E-01   5.00000000E-01   5.52524936E+00
   1.19875000E+03   5.00000000E-01   5.00000000E-01   5.50637743E+00
   1.21625000E+03   5.00000000E-01   5.00000000E-01   5.48776466E+00
   1.23375000E+03   5.00000000E-01   5.00000000E-01   5.46940415E+00
   1.25125000E+03   5.00000000E-01   5.00000000E-01   5.45128576E+00
   1.26875000E+03   5.00000000E-01   5.00000000E-01   5.43339651E+00
   1.28625000E+03   5.00000000E-01   5.00000000E-01   5.41572048E+00
   1.30375000E+03   5.00000000E-01   5.00000000E-01   5.39823932E+00
   1.32125000E+03   5.00000000E-01   5.00000000E-01   5.38093261E+00
   1.33875000E+03   5.00000000E-01   5.00000000E-01   5.36377810E+00
   1.35625000E+03   5.00000000E-01   5.00000000E-01   5.34675145E+00
   1.37375000E+03   5.00000000E-01   5.00000000E-01   5.32982580E+00
   1.39125000E+03   5.00000000E-01   5.00000000E-01   5.31296992E+00
   1.40875000E+03   5.00000000E-01   5.00000000E-01   5.29614295E+00
   1.42625000E+03   5.00000000E-01   5.00000000E-01   5.27929086E+00
   1.44375000E+03   5.00000000E-01   5.00000000E-01   5.26234422E+00
   1.46125000E+03   5.00000000E-01   5.00000000E-01   5.24522832E+00
   1.47875000E+03   5.00000000E-01   5.00000000E-01   5.22789997E+00
   1.49625000E+03   5.00000000E-01   5.00000000E-01   5.21040593E+00
   1.51375000E+03   5.00000000E-01   5.00000000E-01   5.19290988E+00
   1.53125000E+03   5.00000000E-01   5.00000000E-01   5.17563134E+00
   1.54875000E+03   5.00000000E-01   5.00000000E-01   5.15873639E+00
   1.56625000E+03   5.00000000E-01   5.00000000E-01   5.14228024E+00
   1.58375000E+03   5.00000000E-01   5.00000000E-01   5.12622892E+00
   1.60125000E+03   5.00000000E-01   5.00000000E-01   5.11051047E+00
   1.61875000E+03   5.00000000E-01   5.00000000E-01   5.09505432E+00
   1.63625000E+03   5.00000000E-01   5.00000000E-01   5.07980834E+00
   1.65375000E+03   5.00000000E-01   5.00000000E-01   5.06474086E+00
   1.67125000E+03   5.00000000E-01   5.00000000E-01   5.04983652E+00
   1.68875000E+03   5.00000000E-01   5.00000000E-01   5.03509081E+00
   1.70625000E+03   5.00000000E-01   5.00000000E-01   5.02050495E+00
   1.72375000E+03   5.00000000E-01   5.00000000E-01   5.00608216E+00
   1.74125000E+03   5.00000000E-01   5.00000000E-01   4.99182553E+00
   1.75875000E+03   5.00000000E-01   5.00000000E-01   4.97773722E+00
   1.77625000E+03   5.00000000E-01   5.00000000E-01   4.96381848E+00
   1.79375000E+03   5.00000000E-01   5.00000000E-01   4.95006954E+00
   1.81125000E+03   5.00000000E-01   5.00000000E-01   4.93648943E+00
   1.82875000E+03   5.00000000E-01   5.00000000E-01   4.92307582E+00
   1.84625000E+03   5.00000000E-01   5.00000000E-01   4.90982506E+00
   1.86375000E+03   5.00000000E-01   5.00000000E-01   4.89673228E+00
   1.88125000E+03   5.00000000E-01   5.00000000E-01   4.88379155E+00
   1.89875000E+03   5.00000000E-01   5.00000000E-01   4.87099615E+00
   1.91625000E+03   5.00000000E-01   5.00000000E-01   4.85833908E+00
   1.93375000E+03   5.00000000E-01   5.00000000E-01   4.84581376E+00
   1.95125000E+03   5.00000000E-01   5.00000000E-01   4.83341499E+00
   1.96875000E+03   5.00000000E-01   5.00000000E-01   4.82113983E+00
   1.98625000E+03   5.00000000E-01   5.00000000E-01   4.80898647E+00
   2.00375000E+03   5.00000000E-01   5.00000000E-01   4.79695368E+00
   2.02125000E+03   5.00000000E-01   5.00000000E-01   4.78505007E+00
   2.03875000E+03   5.00000000E-01   5.00000000E-01   4.77328063E+00
   2.05625000E+03   5.00000000E-01   5.00000000E-01   4.76164459E+00
   2.07375000E+03   5.00000000E-01   5.00000000E-01   4.75013441E+00
   2.09125000E+03   5.00000000E-01   5.00000000E-01   4.73873628E+00
   2.10875000E+03   5.00000000E-01   5.00000000E-01   4.72743471E+00
   2.12625000E+03   5.00000000E-01   5.00000000E-01   4.71621769E+00
   2.14375000E+03   5.00000000E-01   5.00000000E-01   4.70507958E+00
   2.16125000E+03   5.00000000E-01   5.00000000E-01   4.69402064E+00
   2.17875000E+03   5.00000000E-01   5.00000000E-01   4.68304411E+00
   2.19625000E+03   5.00000000E-01   5.00000000E-01   4.67215299E+00
   2.21375000E+03   5.00000000E-01   5.00000000E-01   4.66134833E+00
   2.23125000E+03   5.00000000E-01   5.00000000E-01   4.65062912E+00
   2.24875000E+03   5.00000000E-01   5.00000000E-01   4.63999332E+00
   2.26625000E+03   5.00000000E-01   5.00000000E-01   4.62943873E+00
   2.28375000E+03   5.00000000E-01   5.00000000E-01   4.61896302E+00
   2.30125000E+03   5.00000000E-01   5.00000000E-01   4.60856259E+00
   2.31875000E+03   5.00000000E-01   5.00000000E-01   4.59823116E+00
   2.33625000E+03   5.00000000E-01   5.00000000E-01   4.58796081E+00
   2.35375000E+03   5.00000000E-01   5.00000000E-01   4.57774850E+00
   2.37125000E+03   5.00000000E-01   5.00000000E-01   4.56760372E+00
   2.38875000E+03   5.00000000E-01   5.00000000E-01   4.55754704E+00
   2.40625000E+03   5.00000000E-01   5.00000000E-01   4.54759900E+00
   2.42375000E+03   5.00000000E-01   5.00000000E-01   4.53777104E+00
   2.44125000E+03   5.00000000E-01   5.00000000E-01   4.52806607E+00
   2.45875000E+03   5.00000000E-01   5.00000000E-01   4.51848387E+00
   2.47625000E+03   5.00000000E-01   5.00000000E-01   4.50902505E+00
   2.49375000E+03   5.00000000E-01   5.00000000E-01   4.49969161E+00
   2.51125000E+03   5.00000000E-01   5.00000000E-01   4.49048591E+00
   2.52875000E+03   5.00000000E-01   5.00000000E-01   4.48140997E+00
   2.54625000E+03   5.00000000E-01   5.00000000E-01   4.47246553E+00
   2.56375000E+03   5.00000000E-01   5.00000000E-01   4.46365465E+00
   2.58125000E+03   5.00000000E-01   5.00000000E-01   4.45498002E+00
   2.59875000E+03   5.00000000E-01   5.00000000E-01   4.44644489E+00
   2.61625000E+03   5.00000000E-01   5.00000000E-01   4.43805258E+00
   2.63375000E+03   5.00000000E-01   5.00000000E-01   4.42980609E+00
   2.65125000E+03   5.00000000E-01   5.00000000E-01   4.42170793E+00
   2.66875000E+03   5.00000000E-01   5.00000000E-01   4.41376034E+00
   2.68625000E+03   5.00000000E-01   5.00000000E-01   4.40596553E+00
   2.70375000E+03   5.00000000E-01   5.00000000E-01   4.39832532E+00
   2.72125000E+03   5.00000000E-01   5.00000000E-01   4.39084067E+00
   2.73875000E+03   5.00000000E-01   5.00000000E-01   4.38351304E+00
   2.75625000E+03   5.00000000E-01   5.00000000E-01   4.37634769E+00
   2.77375000E+03   5.00000000E-01   5.00000000E-01   4.36935448E+00
   2.79125000E+03   5.00000000E-01   5.00000000E-01   4.36254528E+00
   2.80875000E+03   5.00000000E-01   5.00000000E-01   4.35593083E+00
   2.82625000E+03   5.00000000E-01   5.00000000E-01   4.34951951E+00
   2.84375000E+03   5.00000000E-01   5.00000000E-01   4.34331801E+00
   2.86125000E+03   5.00000000E-01   5.00000000E-01   4.33733262E+00
   2.87875000E+03   5.00000000E-01   5.00000000E-01   4.33157014E+00
   2.89625000E+03   5.00000000E-01   5.00000000E-01   4.32603838E+00
   2.91375000E+03   5.00000000E-01   5.00000000E-01   4.32073876E+00
   2.93125000E+03   5.00000000E-01   5.00000000E-01   4.31568735E+00
   2.94875000E+03   5.00000000E-01   5.00000000E-01   4.31090006E+00
   2.96625000E+03   5.00000000E-01   5.00000000E-01   4.30638743E+00
   2.98375000E+03   5.00000000E-01   5.00000000E-01   4.30216027E+00
   3.00125000E+03   5.00000000E-01   5.00000000E-01   4.29823076E+00
   3.01875000E+03   5.00000000E-01   5.00000000E-01   4.29461266E+00
   3.03625000E+03   5.00000000E-01   5.00000000E-01   4.29132149E+00
   3.05375000E+03   5.00000000E-01   5.00000000E-01   4.28837470E+00
   3.07125000E+03   5.00000000E-01   5.00000000E-01   4.28579188E+00
   3.08875000E+03   5.00000000E-01   5.00000000E-01   4.28359511E+00
   3.10625000E+03   5.00000000E-01   5.00000000E-01   4.28180928E+00
   3.12375000E+03   5.00000000E-01   5.00000000E-01   4.28046258E+00
   3.14125000E+03   5.00000000E-01   5.00000000E-01   4.27958704E+00
   3.15875000E+03   5.00000000E-01   5.00000000E-01   4.27921919E+00
   3.17625000E+03   5.00000000E-01   5.00000000E-01   4.27940093E+00
   3.19375000E+03   5.00000000E-01   5.00000000E-01   4.28018055E+00
   3.21125000E+03   5.00000000E-01   5.00000000E-01   4.28161407E+00
   3.22875000E+03   5.00000000E-01   5.00000000E-01   4.28376688E+00
   3.24625000E+03   5.00000000E-01   5.00000000E-01   4.28671581E+00
   3.26375000E+03   5.00000000E-01   5.00000000E-01   4.29055173E+00
   3.28125000E+03   5.00000000E-01   5.00000000E-01   4.29538301E+00
   3.29875000E+03   5.00000000E-01   5.00000000E-01   4.30133979E+00
   3.31625000E+03   5.00000000E-01   5.00000000E-01   4.30857965E+00
   3.33375000E+03   5.00000000E-01   5.00000000E-01   4.31729467E+00
   3.35125000E+03   5.00000000E-01   5.00000000E-01   4.32772044E+00
   3.36875000E+03   5.00000000E-01   5.00000000E-01   4.34014630E+00
   3.38625000E+03   5.00000000E-01   5.00000000E-01   4.35492536E+00
   3.40375000E+03   5.00000000E-01   5.00000000E-01   4.37247821E+00
   3.42125000E+03   5.00000000E-01   5.00000000E-01   4.39327732E+00
   3.43875000E+03   5.00000000E-01   5.00000000E-01   4.41778635E+00
   3.45625000E+03   5.00000000E-01   5.00000000E-01   4.44630445E+00
   3.47375000E+03   5.00000000E-01   5.00000000E-01   4.47861298E+00
   3.49125000E+03   5.00000000E-01   5.00000000E-01   4.51377599E+00
