 TITLE = "Solution pH" 
 VARIABLES = "X"          "Y"              "Z"             "pH" 
 ZONE I=         100 , J=           1 , K=           1  F=POINT
   1.75000000E+01   5.00000000E-01   5.00000000E-01   7.63580998E+00
   5.25000000E+01   5.00000000E-01   5.00000000E-01   7.51008722E+00
   8.75000000E+01   5.00000000E-01   5.00000000E-01   7.41178739E+00
   1.22500000E+02   5.00000000E-01   5.00000000E-01   7.31890364E+00
   1.57500000E+02   5.00000000E-01   5.00000000E-01   7.22896267E+00
   1.92500000E+02   5.00000000E-01   5.00000000E-01   7.14175623E+00
   2.27500000E+02   5.00000000E-01   5.00000000E-01   7.05718973E+00
   2.62500000E+02   5.00000000E-01   5.00000000E-01   6.97511944E+00
   2.97500000E+02   5.00000000E-01   5.00000000E-01   6.89538769E+00
   3.32500000E+02   5.00000000E-01   5.00000000E-01   6.81784784E+00
   3.67500000E+02   5.00000000E-01   5.00000000E-01   6.74237142E+00
   4.02500000E+02   5.00000000E-01   5.00000000E-01   6.66884660E+00
   4.37500000E+02   5.00000000E-01   5.00000000E-01   6.59717575E+00
   4.72500000E+02   5.00000000E-01   5.00000000E-01   6.52727240E+00
   5.07500000E+02   5.00000000E-01   5.00000000E-01   6.45905863E+00
   5.42500000E+02   5.00000000E-01   5.00000000E-01   6.39246313E+00
   5.77500000E+02   5.00000000E-01   5.00000000E-01   6.32741997E+00
   6.12500000E+02   5.00000000E-01   5.00000000E-01   6.26386779E+00
   6.47500000E+02   5.00000000E-01   5.00000000E-01   6.20174939E+00
   6.82500000E+02   5.00000000E-01   5.00000000E-01   6.14101159E+00
   7.17500000E+02   5.00000000E-01   5.00000000E-01   6.08160528E+00
   7.52500000E+02   5.00000000E-01   5.00000000E-01   6.02348552E+00
   7.87500000E+02   5.00000000E-01   5.00000000E-01   5.96661164E+00
   8.22500000E+02   5.00000000E-01   5.00000000E-01   5.91094723E+00
   8.57500000E+02   5.00000000E-01   5.00000000E-01   5.85646005E+00
   8.92500000E+02   5.00000000E-01   5.00000000E-01   5.80312178E+00
   9.27500000E+02   5.00000000E-01   5.00000000E-01   5.75090770E+00
   9.62500000E+02   5.00000000E-01   5.00000000E-01   5.69979627E+00
   9.97500000E+02   5.00000000E-01   5.00000000E-01   5.64976859E+00
   1.03250000E+03   5.00000000E-01   5.00000000E-01   5.60080789E+00
   1.06750000E+03   5.00000000E-01   5.00000000E-01   5.55289906E+00
   1.10250000E+03   5.00000000E-01   5.00000000E-01   5.50602834E+00
   1.13750000E+03   5.00000000E-01   5.00000000E-01   5.46018313E+00
   1.17250000E+03   5.00000000E-01   5.00000000E-01   5.41535180E+00
   1.20750000E+03   5.00000000E-01   5.00000000E-01   5.37152330E+00
   1.24250000E+03   5.00000000E-01   5.00000000E-01   5.32868676E+00
   1.27750000E+03   5.00000000E-01   5.00000000E-01   5.28683160E+00
   1.31250000E+03   5.00000000E-01   5.00000000E-01   5.24594819E+00
   1.34750000E+03   5.00000000E-01   5.00000000E-01   5.20602809E+00
   1.38250000E+03   5.00000000E-01   5.00000000E-01   5.16706448E+00
   1.41750000E+03   5.00000000E-01   5.00000000E-01   5.12905016E+00
   1.45250000E+03   5.00000000E-01   5.00000000E-01   5.09197175E+00
   1.48750000E+03   5.00000000E-01   5.00000000E-01   5.05582249E+00
   1.52250000E+03   5.00000000E-01   5.00000000E-01   5.02060492E+00
   1.55750000E+03   5.00000000E-01   5.00000000E-01   4.98631484E+00
   1.59250000E+03   5.00000000E-01   5.00000000E-01   4.95293631E+00
   1.62750000E+03   5.00000000E-01   5.00000000E-01   4.92046727E+00
   1.66250000E+03   5.00000000E-01   5.00000000E-01   4.88891342E+00
   1.69750000E+03   5.00000000E-01   5.00000000E-01   4.85827346E+00
   1.73250000E+03   5.00000000E-01   5.00000000E-01   4.82854465E+00
   1.76750000E+03   5.00000000E-01   5.00000000E-01   4.79973109E+00
   1.80250000E+03   5.00000000E-01   5.00000000E-01   4.77183916E+00
   1.83750000E+03   5.00000000E-01   5.00000000E-01   4.74487510E+00
   1.87250000E+03   5.00000000E-01   5.00000000E-01   4.71884392E+00
   1.90750000E+03   5.00000000E-01   5.00000000E-01   4.69374642E+00
   1.94250000E+03   5.00000000E-01   5.00000000E-01   4.66958707E+00
   1.97750000E+03   5.00000000E-01   5.00000000E-01   4.64637924E+00
   2.01250000E+03   5.00000000E-01   5.00000000E-01   4.62414150E+00
   2.04750000E+03   5.00000000E-01   5.00000000E-01   4.60289284E+00
   2.08250000E+03   5.00000000E-01   5.00000000E-01   4.58265028E+00
   2.11750000E+03   5.00000000E-01   5.00000000E-01   4.56343045E+00
   2.15250000E+03   5.00000000E-01   5.00000000E-01   4.54525092E+00
   2.18750000E+03   5.00000000E-01   5.00000000E-01   4.52813028E+00
   2.22250000E+03   5.00000000E-01   5.00000000E-01   4.51208752E+00
   2.25750000E+03   5.00000000E-01   5.00000000E-01   4.49714113E+00
   2.29250000E+03   5.00000000E-01   5.00000000E-01   4.48330798E+00
   2.32750000E+03   5.00000000E-01   5.00000000E-01   4.47060195E+00
   2.36250000E+03   5.00000000E-01   5.00000000E-01   4.45903216E+00
   2.39750000E+03   5.00000000E-01   5.00000000E-01   4.44860099E+00
   2.43250000E+03   5.00000000E-01   5.00000000E-01   4.43930177E+00
   2.46750000E+03   5.00000000E-01   5.00000000E-01   4.43111641E+00
   2.50250000E+03   5.00000000E-01   5.00000000E-01   4.42401325E+00
   2.53750000E+03   5.00000000E-01   5.00000000E-01   4.41794551E+00
   2.57250000E+03   5.00000000E-01   5.00000000E-01   4.41285095E+00
   2.60750000E+03   5.00000000E-01   5.00000000E-01   4.40865310E+00
   2.64250000E+03   5.00000000E-01   5.00000000E-01   4.40526463E+00
   2.67750000E+03   5.00000000E-01   5.00000000E-01   4.40259237E+00
   2.71250000E+03   5.00000000E-01   5.00000000E-01   4.40054363E+00
   2.74750000E+03   5.00000000E-01   5.00000000E-01   4.39903268E+00
   2.78250000E+03   5.00000000E-01   5.00000000E-01   4.39798603E+00
   2.81750000E+03   5.00000000E-01   5.00000000E-01   4.39734588E+00
   2.85250000E+03   5.00000000E-01   5.00000000E-01   4.39707129E+00
   2.88750000E+03   5.00000000E-01   5.00000000E-01   4.39713723E+00
   2.92250000E+03   5.00000000E-01   5.00000000E-01   4.39753219E+00
   2.95750000E+03   5.00000000E-01   5.00000000E-01   4.39825497E+00
   2.99250000E+03   5.00000000E-01   5.00000000E-01   4.39931123E+00
   3.02750000E+03   5.00000000E-01   5.00000000E-01   4.40071022E+00
   3.06250000E+03   5.00000000E-01   5.00000000E-01   4.40246219E+00
   3.09750000E+03   5.00000000E-01   5.00000000E-01   4.40457659E+00
   3.13250000E+03   5.00000000E-01   5.00000000E-01   4.40706102E+00
   3.16750000E+03   5.00000000E-01   5.00000000E-01   4.40992097E+00
   3.20250000E+03   5.00000000E-01   5.00000000E-01   4.41315992E+00
   3.23750000E+03   5.00000000E-01   5.00000000E-01   4.41677986E+00
   3.27250000E+03   5.00000000E-01   5.00000000E-01   4.42078182E+00
   3.30750000E+03   5.00000000E-01   5.00000000E-01   4.42516620E+00
   3.34250000E+03   5.00000000E-01   5.00000000E-01   4.42993300E+00
   3.37750000E+03   5.00000000E-01   5.00000000E-01   4.43508177E+00
   3.41250000E+03   5.00000000E-01   5.00000000E-01   4.44061154E+00
   3.44750000E+03   5.00000000E-01   5.00000000E-01   4.44652072E+00
   3.48250000E+03   5.00000000E-01   5.00000000E-01   4.45348935E+00
