 TITLE = "Solution pH" 
 VARIABLES = "X"          "Y"              "Z"             "pH" 
 ZONE I=         200 , J=           1 , K=           1  F=POINT
   8.75000000E+00   5.00000000E-01   5.00000000E-01   7.96034170E+00
   2.62500000E+01   5.00000000E-01   5.00000000E-01   7.68909227E+00
   4.37500000E+01   5.00000000E-01   5.00000000E-01   7.55926328E+00
   6.12500000E+01   5.00000000E-01   5.00000000E-01   7.47514447E+00
   7.87500000E+01   5.00000000E-01   5.00000000E-01   7.40790845E+00
   9.62500000E+01   5.00000000E-01   5.00000000E-01   7.35039029E+00
   1.13750000E+02   5.00000000E-01   5.00000000E-01   7.29947129E+00
   1.31250000E+02   5.00000000E-01   5.00000000E-01   7.25297276E+00
   1.48750000E+02   5.00000000E-01   5.00000000E-01   7.20940494E+00
   1.66250000E+02   5.00000000E-01   5.00000000E-01   7.16776118E+00
   1.83750000E+02   5.00000000E-01   5.00000000E-01   7.12736513E+00
   2.01250000E+02   5.00000000E-01   5.00000000E-01   7.08788012E+00
   2.18750000E+02   5.00000000E-01   5.00000000E-01   7.04915684E+00
   2.36250000E+02   5.00000000E-01   5.00000000E-01   7.01104651E+00
   2.53750000E+02   5.00000000E-01   5.00000000E-01   6.97351110E+00
   2.71250000E+02   5.00000000E-01   5.00000000E-01   6.93652734E+00
   2.88750000E+02   5.00000000E-01   5.00000000E-01   6.90006644E+00
   3.06250000E+02   5.00000000E-01   5.00000000E-01   6.86409465E+00
   3.23750000E+02   5.00000000E-01   5.00000000E-01   6.82857726E+00
   3.41250000E+02   5.00000000E-01   5.00000000E-01   6.79348305E+00
   3.58750000E+02   5.00000000E-01   5.00000000E-01   6.75879104E+00
   3.76250000E+02   5.00000000E-01   5.00000000E-01   6.72448898E+00
   3.93750000E+02   5.00000000E-01   5.00000000E-01   6.69057400E+00
   4.11250000E+02   5.00000000E-01   5.00000000E-01   6.65705008E+00
   4.28750000E+02   5.00000000E-01   5.00000000E-01   6.62392477E+00
   4.46250000E+02   5.00000000E-01   5.00000000E-01   6.59120854E+00
   4.63750000E+02   5.00000000E-01   5.00000000E-01   6.55891322E+00
   4.81250000E+02   5.00000000E-01   5.00000000E-01   6.52705064E+00
   4.98750000E+02   5.00000000E-01   5.00000000E-01   6.49575489E+00
   5.16250000E+02   5.00000000E-01   5.00000000E-01   6.46492774E+00
   5.33750000E+02   5.00000000E-01   5.00000000E-01   6.43455366E+00
   5.51250000E+02   5.00000000E-01   5.00000000E-01   6.40464480E+00
   5.68750000E+02   5.00000000E-01   5.00000000E-01   6.37520992E+00
   5.86250000E+02   5.00000000E-01   5.00000000E-01   6.34625058E+00
   6.03750000E+02   5.00000000E-01   5.00000000E-01   6.31776183E+00
   6.21250000E+02   5.00000000E-01   5.00000000E-01   6.28973365E+00
   6.38750000E+02   5.00000000E-01   5.00000000E-01   6.26215278E+00
   6.56250000E+02   5.00000000E-01   5.00000000E-01   6.23500467E+00
   6.73750000E+02   5.00000000E-01   5.00000000E-01   6.20827520E+00
   6.91250000E+02   5.00000000E-01   5.00000000E-01   6.18195230E+00
   7.08750000E+02   5.00000000E-01   5.00000000E-01   6.15602648E+00
   7.26250000E+02   5.00000000E-01   5.00000000E-01   6.13049095E+00
   7.43750000E+02   5.00000000E-01   5.00000000E-01   6.10534155E+00
   7.61250000E+02   5.00000000E-01   5.00000000E-01   6.08057642E+00
   7.78750000E+02   5.00000000E-01   5.00000000E-01   6.05619551E+00
   7.96250000E+02   5.00000000E-01   5.00000000E-01   6.03219989E+00
   8.13750000E+02   5.00000000E-01   5.00000000E-01   6.00859085E+00
   8.31250000E+02   5.00000000E-01   5.00000000E-01   5.98536896E+00
   8.48750000E+02   5.00000000E-01   5.00000000E-01   5.96253311E+00
   8.66250000E+02   5.00000000E-01   5.00000000E-01   5.94007942E+00
   8.83750000E+02   5.00000000E-01   5.00000000E-01   5.91804430E+00
   9.01250000E+02   5.00000000E-01   5.00000000E-01   5.89636808E+00
   9.18750000E+02   5.00000000E-01   5.00000000E-01   5.87502208E+00
   9.36250000E+02   5.00000000E-01   5.00000000E-01   5.85399208E+00
   9.53750000E+02   5.00000000E-01   5.00000000E-01   5.83325844E+00
   9.71250000E+02   5.00000000E-01   5.00000000E-01   5.81279486E+00
   9.88750000E+02   5.00000000E-01   5.00000000E-01   5.79257105E+00
   1.00625000E+03   5.00000000E-01   5.00000000E-01   5.77255534E+00
   1.02375000E+03   5.00000000E-01   5.00000000E-01   5.75271644E+00
   1.04125000E+03   5.00000000E-01   5.00000000E-01   5.73302519E+00
   1.05875000E+03   5.00000000E-01   5.00000000E-01   5.71345444E+00
   1.07625000E+03   5.00000000E-01   5.00000000E-01   5.69397886E+00
   1.09375000E+03   5.00000000E-01   5.00000000E-01   5.67457450E+00
   1.11125000E+03   5.00000000E-01   5.00000000E-01   5.65521821E+00
   1.12875000E+03   5.00000000E-01   5.00000000E-01   5.63588695E+00
   1.14625000E+03   5.00000000E-01   5.00000000E-01   5.61655749E+00
   1.16375000E+03   5.00000000E-01   5.00000000E-01   5.59720681E+00
   1.18125000E+03   5.00000000E-01   5.00000000E-01   5.57781316E+00
   1.19875000E+03   5.00000000E-01   5.00000000E-01   5.55835766E+00
   1.21625000E+03   5.00000000E-01   5.00000000E-01   5.53882613E+00
   1.23375000E+03   5.00000000E-01   5.00000000E-01   5.51921086E+00
   1.25125000E+03   5.00000000E-01   5.00000000E-01   5.49951179E+00
   1.26875000E+03   5.00000000E-01   5.00000000E-01   5.47973692E+00
   1.28625000E+03   5.00000000E-01   5.00000000E-01   5.45990155E+00
   1.30375000E+03   5.00000000E-01   5.00000000E-01   5.44002698E+00
   1.32125000E+03   5.00000000E-01   5.00000000E-01   5.42013870E+00
   1.33875000E+03   5.00000000E-01   5.00000000E-01   5.40026442E+00
   1.35625000E+03   5.00000000E-01   5.00000000E-01   5.38043227E+00
   1.37375000E+03   5.00000000E-01   5.00000000E-01   5.36066946E+00
   1.39125000E+03   5.00000000E-01   5.00000000E-01   5.34100122E+00
   1.40875000E+03   5.00000000E-01   5.00000000E-01   5.32144992E+00
   1.42625000E+03   5.00000000E-01   5.00000000E-01   5.30203506E+00
   1.44375000E+03   5.00000000E-01   5.00000000E-01   5.28277332E+00
   1.46125000E+03   5.00000000E-01   5.00000000E-01   5.26367872E+00
   1.47875000E+03   5.00000000E-01   5.00000000E-01   5.24476286E+00
   1.49625000E+03   5.00000000E-01   5.00000000E-01   5.22603521E+00
   1.51375000E+03   5.00000000E-01   5.00000000E-01   5.20750347E+00
   1.53125000E+03   5.00000000E-01   5.00000000E-01   5.18917390E+00
   1.54875000E+03   5.00000000E-01   5.00000000E-01   5.17105154E+00
   1.56625000E+03   5.00000000E-01   5.00000000E-01   5.15314057E+00
   1.58375000E+03   5.00000000E-01   5.00000000E-01   5.13544448E+00
   1.60125000E+03   5.00000000E-01   5.00000000E-01   5.11796620E+00
   1.61875000E+03   5.00000000E-01   5.00000000E-01   5.10070826E+00
   1.63625000E+03   5.00000000E-01   5.00000000E-01   5.08367272E+00
   1.65375000E+03   5.00000000E-01   5.00000000E-01   5.06686102E+00
   1.67125000E+03   5.00000000E-01   5.00000000E-01   5.05027365E+00
   1.68875000E+03   5.00000000E-01   5.00000000E-01   5.03390970E+00
   1.70625000E+03   5.00000000E-01   5.00000000E-01   5.01776679E+00
   1.72375000E+03   5.00000000E-01   5.00000000E-01   5.00184186E+00
   1.74125000E+03   5.00000000E-01   5.00000000E-01   4.98613415E+00
   1.75875000E+03   5.00000000E-01   5.00000000E-01   4.97065147E+00
   1.77625000E+03   5.00000000E-01   5.00000000E-01   4.95541914E+00
   1.79375000E+03   5.00000000E-01   5.00000000E-01   4.94048763E+00
   1.81125000E+03   5.00000000E-01   5.00000000E-01   4.92593077E+00
   1.82875000E+03   5.00000000E-01   5.00000000E-01   4.91182801E+00
   1.84625000E+03   5.00000000E-01   5.00000000E-01   4.89823488E+00
   1.86375000E+03   5.00000000E-01   5.00000000E-01   4.88515776E+00
   1.88125000E+03   5.00000000E-01   5.00000000E-01   4.87254890E+00
   1.89875000E+03   5.00000000E-01   5.00000000E-01   4.86032377E+00
   1.91625000E+03   5.00000000E-01   5.00000000E-01   4.84838826E+00
   1.93375000E+03   5.00000000E-01   5.00000000E-01   4.83666118E+00
   1.95125000E+03   5.00000000E-01   5.00000000E-01   4.82508450E+00
   1.96875000E+03   5.00000000E-01   5.00000000E-01   4.81362137E+00
   1.98625000E+03   5.00000000E-01   5.00000000E-01   4.80224467E+00
   2.00375000E+03   5.00000000E-01   5.00000000E-01   4.79092375E+00
   2.02125000E+03   5.00000000E-01   5.00000000E-01   4.77962140E+00
   2.03875000E+03   5.00000000E-01   5.00000000E-01   4.76828543E+00
   2.05625000E+03   5.00000000E-01   5.00000000E-01   4.75686513E+00
   2.07375000E+03   5.00000000E-01   5.00000000E-01   4.74533012E+00
   2.09125000E+03   5.00000000E-01   5.00000000E-01   4.73368553E+00
   2.10875000E+03   5.00000000E-01   5.00000000E-01   4.72196833E+00
   2.12625000E+03   5.00000000E-01   5.00000000E-01   4.71023113E+00
   2.14375000E+03   5.00000000E-01   5.00000000E-01   4.69852513E+00
   2.16125000E+03   5.00000000E-01   5.00000000E-01   4.68689056E+00
   2.17875000E+03   5.00000000E-01   5.00000000E-01   4.67535476E+00
   2.19625000E+03   5.00000000E-01   5.00000000E-01   4.66393422E+00
   2.21375000E+03   5.00000000E-01   5.00000000E-01   4.65263761E+00
   2.23125000E+03   5.00000000E-01   5.00000000E-01   4.64146860E+00
   2.24875000E+03   5.00000000E-01   5.00000000E-01   4.63042805E+00
   2.26625000E+03   5.00000000E-01   5.00000000E-01   4.61951532E+00
   2.28375000E+03   5.00000000E-01   5.00000000E-01   4.60872834E+00
   2.30125000E+03   5.00000000E-01   5.00000000E-01   4.59806265E+00
   2.31875000E+03   5.00000000E-01   5.00000000E-01   4.58751020E+00
   2.33625000E+03   5.00000000E-01   5.00000000E-01   4.57706110E+00
   2.35375000E+03   5.00000000E-01   5.00000000E-01   4.56671030E+00
   2.37125000E+03   5.00000000E-01   5.00000000E-01   4.55646488E+00
   2.38875000E+03   5.00000000E-01   5.00000000E-01   4.54634254E+00
   2.40625000E+03   5.00000000E-01   5.00000000E-01   4.53636122E+00
   2.42375000E+03   5.00000000E-01   5.00000000E-01   4.52653070E+00
   2.44125000E+03   5.00000000E-01   5.00000000E-01   4.51685297E+00
   2.45875000E+03   5.00000000E-01   5.00000000E-01   4.50732737E+00
   2.47625000E+03   5.00000000E-01   5.00000000E-01   4.49795419E+00
   2.49375000E+03   5.00000000E-01   5.00000000E-01   4.48873517E+00
   2.51125000E+03   5.00000000E-01   5.00000000E-01   4.47967244E+00
   2.52875000E+03   5.00000000E-01   5.00000000E-01   4.47076767E+00
   2.54625000E+03   5.00000000E-01   5.00000000E-01   4.46202210E+00
   2.56375000E+03   5.00000000E-01   5.00000000E-01   4.45343694E+00
   2.58125000E+03   5.00000000E-01   5.00000000E-01   4.44501380E+00
   2.59875000E+03   5.00000000E-01   5.00000000E-01   4.43675480E+00
   2.61625000E+03   5.00000000E-01   5.00000000E-01   4.42866242E+00
   2.63375000E+03   5.00000000E-01   5.00000000E-01   4.42073934E+00
   2.65125000E+03   5.00000000E-01   5.00000000E-01   4.41298833E+00
   2.66875000E+03   5.00000000E-01   5.00000000E-01   4.40541235E+00
   2.68625000E+03   5.00000000E-01   5.00000000E-01   4.39801443E+00
   2.70375000E+03   5.00000000E-01   5.00000000E-01   4.39079718E+00
   2.72125000E+03   5.00000000E-01   5.00000000E-01   4.38376222E+00
   2.73875000E+03   5.00000000E-01   5.00000000E-01   4.37691171E+00
   2.75625000E+03   5.00000000E-01   5.00000000E-01   4.37025150E+00
   2.77375000E+03   5.00000000E-01   5.00000000E-01   4.36379192E+00
   2.79125000E+03   5.00000000E-01   5.00000000E-01   4.35754530E+00
   2.80875000E+03   5.00000000E-01   5.00000000E-01   4.35152315E+00
   2.82625000E+03   5.00000000E-01   5.00000000E-01   4.34573510E+00
   2.84375000E+03   5.00000000E-01   5.00000000E-01   4.34018955E+00
   2.86125000E+03   5.00000000E-01   5.00000000E-01   4.33489487E+00
   2.87875000E+03   5.00000000E-01   5.00000000E-01   4.32986033E+00
   2.89625000E+03   5.00000000E-01   5.00000000E-01   4.32509650E+00
   2.91375000E+03   5.00000000E-01   5.00000000E-01   4.32060865E+00
   2.93125000E+03   5.00000000E-01   5.00000000E-01   4.31641591E+00
   2.94875000E+03   5.00000000E-01   5.00000000E-01   4.31253744E+00
   2.96625000E+03   5.00000000E-01   5.00000000E-01   4.30898817E+00
   2.98375000E+03   5.00000000E-01   5.00000000E-01   4.30578419E+00
   3.00125000E+03   5.00000000E-01   5.00000000E-01   4.30294367E+00
   3.01875000E+03   5.00000000E-01   5.00000000E-01   4.30048724E+00
   3.03625000E+03   5.00000000E-01   5.00000000E-01   4.29843821E+00
   3.05375000E+03   5.00000000E-01   5.00000000E-01   4.29682299E+00
   3.07125000E+03   5.00000000E-01   5.00000000E-01   4.29567152E+00
   3.08875000E+03   5.00000000E-01   5.00000000E-01   4.29501788E+00
   3.10625000E+03   5.00000000E-01   5.00000000E-01   4.29490105E+00
   3.12375000E+03   5.00000000E-01   5.00000000E-01   4.29536578E+00
   3.14125000E+03   5.00000000E-01   5.00000000E-01   4.29646373E+00
   3.15875000E+03   5.00000000E-01   5.00000000E-01   4.29825487E+00
   3.17625000E+03   5.00000000E-01   5.00000000E-01   4.30080917E+00
   3.19375000E+03   5.00000000E-01   5.00000000E-01   4.30420885E+00
   3.21125000E+03   5.00000000E-01   5.00000000E-01   4.30855105E+00
   3.22875000E+03   5.00000000E-01   5.00000000E-01   4.31395137E+00
   3.24625000E+03   5.00000000E-01   5.00000000E-01   4.32054821E+00
   3.26375000E+03   5.00000000E-01   5.00000000E-01   4.32850830E+00
   3.28125000E+03   5.00000000E-01   5.00000000E-01   4.33803347E+00
   3.29875000E+03   5.00000000E-01   5.00000000E-01   4.34936857E+00
   3.31625000E+03   5.00000000E-01   5.00000000E-01   4.36280979E+00
   3.33375000E+03   5.00000000E-01   5.00000000E-01   4.37871039E+00
   3.35125000E+03   5.00000000E-01   5.00000000E-01   4.39747631E+00
   3.36875000E+03   5.00000000E-01   5.00000000E-01   4.41953181E+00
   3.38625000E+03   5.00000000E-01   5.00000000E-01   4.44521081E+00
   3.40375000E+03   5.00000000E-01   5.00000000E-01   4.47449152E+00
   3.42125000E+03   5.00000000E-01   5.00000000E-01   4.50649852E+00
   3.43875000E+03   5.00000000E-01   5.00000000E-01   4.53896246E+00
   3.45625000E+03   5.00000000E-01   5.00000000E-01   4.56846276E+00
   3.47375000E+03   5.00000000E-01   5.00000000E-01   4.59209982E+00
   3.49125000E+03   5.00000000E-01   5.00000000E-01   4.60966105E+00
