 TITLE = "Solution pH" 
 VARIABLES = "X"          "Y"              "Z"             "pH" 
 ZONE I=         100 , J=           1 , K=           1  F=POINT
   1.75000000E+01   5.00000000E-01   5.00000000E-01   7.82716364E+00
   5.25000000E+01   5.00000000E-01   5.00000000E-01   7.69218200E+00
   8.75000000E+01   5.00000000E-01   5.00000000E-01   7.59023263E+00
   1.22500000E+02   5.00000000E-01   5.00000000E-01   7.49748964E+00
   1.57500000E+02   5.00000000E-01   5.00000000E-01   7.40170014E+00
   1.92500000E+02   5.00000000E-01   5.00000000E-01   7.29237895E+00
   2.27500000E+02   5.00000000E-01   5.00000000E-01   7.19927600E+00
   2.62500000E+02   5.00000000E-01   5.00000000E-01   7.11786680E+00
   2.97500000E+02   5.00000000E-01   5.00000000E-01   7.04098361E+00
   3.32500000E+02   5.00000000E-01   5.00000000E-01   6.96688325E+00
   3.67500000E+02   5.00000000E-01   5.00000000E-01   6.89501905E+00
   4.02500000E+02   5.00000000E-01   5.00000000E-01   6.82514488E+00
   4.37500000E+02   5.00000000E-01   5.00000000E-01   6.75711895E+00
   4.72500000E+02   5.00000000E-01   5.00000000E-01   6.69084671E+00
   5.07500000E+02   5.00000000E-01   5.00000000E-01   6.62625891E+00
   5.42500000E+02   5.00000000E-01   5.00000000E-01   6.56330121E+00
   5.77500000E+02   5.00000000E-01   5.00000000E-01   6.50192850E+00
   6.12500000E+02   5.00000000E-01   5.00000000E-01   6.44210169E+00
   6.47500000E+02   5.00000000E-01   5.00000000E-01   6.38378569E+00
   6.82500000E+02   5.00000000E-01   5.00000000E-01   6.32694833E+00
   7.17500000E+02   5.00000000E-01   5.00000000E-01   6.27155959E+00
   7.52500000E+02   5.00000000E-01   5.00000000E-01   6.21759134E+00
   7.87500000E+02   5.00000000E-01   5.00000000E-01   6.16501715E+00
   8.22500000E+02   5.00000000E-01   5.00000000E-01   6.11381230E+00
   8.57500000E+02   5.00000000E-01   5.00000000E-01   6.06395381E+00
   8.92500000E+02   5.00000000E-01   5.00000000E-01   6.01542064E+00
   9.27500000E+02   5.00000000E-01   5.00000000E-01   5.96819378E+00
   9.62500000E+02   5.00000000E-01   5.00000000E-01   5.92225650E+00
   9.97500000E+02   5.00000000E-01   5.00000000E-01   5.87759454E+00
   1.03250000E+03   5.00000000E-01   5.00000000E-01   5.83419640E+00
   1.06750000E+03   5.00000000E-01   5.00000000E-01   5.79205353E+00
   1.10250000E+03   5.00000000E-01   5.00000000E-01   5.75116045E+00
   1.13750000E+03   5.00000000E-01   5.00000000E-01   5.57543210E+00
   1.17250000E+03   5.00000000E-01   5.00000000E-01   5.58688498E+00
   1.20750000E+03   5.00000000E-01   5.00000000E-01   5.57357390E+00
   1.24250000E+03   5.00000000E-01   5.00000000E-01   5.55180277E+00
   1.27750000E+03   5.00000000E-01   5.00000000E-01   5.52668384E+00
   1.31250000E+03   5.00000000E-01   5.00000000E-01   5.50059081E+00
   1.34750000E+03   5.00000000E-01   5.00000000E-01   5.47534083E+00
   1.38250000E+03   5.00000000E-01   5.00000000E-01   5.37838593E+00
   1.41750000E+03   5.00000000E-01   5.00000000E-01   5.38272249E+00
   1.45250000E+03   5.00000000E-01   5.00000000E-01   5.37565684E+00
   1.48750000E+03   5.00000000E-01   5.00000000E-01   5.36342125E+00
   1.52250000E+03   5.00000000E-01   5.00000000E-01   5.35064729E+00
   1.55750000E+03   5.00000000E-01   5.00000000E-01   5.33923221E+00
   1.59250000E+03   5.00000000E-01   5.00000000E-01   5.33067572E+00
   1.62750000E+03   5.00000000E-01   5.00000000E-01   5.33063752E+00
   1.66250000E+03   5.00000000E-01   5.00000000E-01   5.34199079E+00
   1.69750000E+03   5.00000000E-01   5.00000000E-01   5.35935021E+00
   1.73250000E+03   5.00000000E-01   5.00000000E-01   5.38596115E+00
   1.76750000E+03   5.00000000E-01   5.00000000E-01   5.44340320E+00
   1.80250000E+03   5.00000000E-01   5.00000000E-01   5.54235660E+00
   1.83750000E+03   5.00000000E-01   5.00000000E-01   5.73645211E+00
   1.87250000E+03   5.00000000E-01   5.00000000E-01   6.20183092E+00
   1.90750000E+03   5.00000000E-01   5.00000000E-01   6.65767506E+00
   1.94250000E+03   5.00000000E-01   5.00000000E-01   6.89116891E+00
   1.97750000E+03   5.00000000E-01   5.00000000E-01   7.02126159E+00
   2.01250000E+03   5.00000000E-01   5.00000000E-01   7.10188896E+00
   2.04750000E+03   5.00000000E-01   5.00000000E-01   7.15346803E+00
   2.08250000E+03   5.00000000E-01   5.00000000E-01   7.18642212E+00
   2.11750000E+03   5.00000000E-01   5.00000000E-01   7.20699311E+00
   2.15250000E+03   5.00000000E-01   5.00000000E-01   7.21915091E+00
   2.18750000E+03   5.00000000E-01   5.00000000E-01   7.22551134E+00
   2.22250000E+03   5.00000000E-01   5.00000000E-01   7.22784861E+00
   2.25750000E+03   5.00000000E-01   5.00000000E-01   7.22739598E+00
   2.29250000E+03   5.00000000E-01   5.00000000E-01   7.22502753E+00
   2.32750000E+03   5.00000000E-01   5.00000000E-01   7.22137241E+00
   2.36250000E+03   5.00000000E-01   5.00000000E-01   7.21688909E+00
   2.39750000E+03   5.00000000E-01   5.00000000E-01   7.21191492E+00
   2.43250000E+03   5.00000000E-01   5.00000000E-01   7.20669988E+00
   2.46750000E+03   5.00000000E-01   5.00000000E-01   7.20143012E+00
   2.50250000E+03   5.00000000E-01   5.00000000E-01   7.19624440E+00
   2.53750000E+03   5.00000000E-01   5.00000000E-01   7.19124590E+00
   2.57250000E+03   5.00000000E-01   5.00000000E-01   7.18651055E+00
   2.60750000E+03   5.00000000E-01   5.00000000E-01   7.18209297E+00
   2.64250000E+03   5.00000000E-01   5.00000000E-01   7.17803054E+00
   2.67750000E+03   5.00000000E-01   5.00000000E-01   7.17434655E+00
   2.71250000E+03   5.00000000E-01   5.00000000E-01   7.17105204E+00
   2.74750000E+03   5.00000000E-01   5.00000000E-01   7.16814700E+00
   2.78250000E+03   5.00000000E-01   5.00000000E-01   7.16562210E+00
   2.81750000E+03   5.00000000E-01   5.00000000E-01   7.16346101E+00
   2.85250000E+03   5.00000000E-01   5.00000000E-01   7.16164206E+00
   2.88750000E+03   5.00000000E-01   5.00000000E-01   7.16013935E+00
   2.92250000E+03   5.00000000E-01   5.00000000E-01   7.15892341E+00
   2.95750000E+03   5.00000000E-01   5.00000000E-01   7.15796170E+00
   2.99250000E+03   5.00000000E-01   5.00000000E-01   7.15721885E+00
   3.02750000E+03   5.00000000E-01   5.00000000E-01   7.15665661E+00
   3.06250000E+03   5.00000000E-01   5.00000000E-01   7.15623383E+00
   3.09750000E+03   5.00000000E-01   5.00000000E-01   7.15590660E+00
   3.13250000E+03   5.00000000E-01   5.00000000E-01   7.15562800E+00
   3.16750000E+03   5.00000000E-01   5.00000000E-01   7.15534854E+00
   3.20250000E+03   5.00000000E-01   5.00000000E-01   7.15501636E+00
   3.23750000E+03   5.00000000E-01   5.00000000E-01   7.15457721E+00
   3.27250000E+03   5.00000000E-01   5.00000000E-01   7.15397438E+00
   3.30750000E+03   5.00000000E-01   5.00000000E-01   7.15314878E+00
   3.34250000E+03   5.00000000E-01   5.00000000E-01   7.15203932E+00
   3.37750000E+03   5.00000000E-01   5.00000000E-01   7.15058281E+00
   3.41250000E+03   5.00000000E-01   5.00000000E-01   7.14871398E+00
   3.44750000E+03   5.00000000E-01   5.00000000E-01   7.14636470E+00
   3.48250000E+03   5.00000000E-01   5.00000000E-01   7.14327293E+00
