 TITLE = "Solution pH" 
 VARIABLES = "X"          "Y"              "Z"             "pH" 
 ZONE I=          10 , J=           1 , K=           1  F=POINT
   1.75000000E+02   5.00000000E-01   5.00000000E-01   6.98631647E+00
   5.25000000E+02   5.00000000E-01   5.00000000E-01   6.46665669E+00
   8.75000000E+02   5.00000000E-01   5.00000000E-01   6.02348068E+00
   1.22500000E+03   5.00000000E-01   5.00000000E-01   5.64205761E+00
   1.57500000E+03   5.00000000E-01   5.00000000E-01   5.31244594E+00
   1.92500000E+03   5.00000000E-01   5.00000000E-01   5.02606239E+00
   2.27500000E+03   5.00000000E-01   5.00000000E-01   4.76948127E+00
   2.62500000E+03   5.00000000E-01   5.00000000E-01   4.53026123E+00
   2.97500000E+03   5.00000000E-01   5.00000000E-01   4.30377003E+00
   3.32500000E+03   5.00000000E-01   5.00000000E-01   4.10378561E+00
