 TITLE = "Solution pH" 
 VARIABLES = "X"          "Y"              "Z"             "pH" 
 ZONE I=          35 , J=           1 , K=           1  F=POINT
   5.00000000E+01   5.00000000E-01   5.00000000E-01   9.74966692E+00
   1.50000000E+02   5.00000000E-01   5.00000000E-01   9.67015178E+00
   2.50000000E+02   5.00000000E-01   5.00000000E-01   9.60892964E+00
   3.50000000E+02   5.00000000E-01   5.00000000E-01   9.55240989E+00
   4.50000000E+02   5.00000000E-01   5.00000000E-01   9.49739710E+00
   5.50000000E+02   5.00000000E-01   5.00000000E-01   9.44298909E+00
   6.50000000E+02   5.00000000E-01   5.00000000E-01   9.38860416E+00
   7.50000000E+02   5.00000000E-01   5.00000000E-01   9.33385337E+00
   8.50000000E+02   5.00000000E-01   5.00000000E-01   9.27849090E+00
   9.50000000E+02   5.00000000E-01   5.00000000E-01   9.22237689E+00
   1.05000000E+03   5.00000000E-01   5.00000000E-01   9.16544853E+00
   1.15000000E+03   5.00000000E-01   5.00000000E-01   9.10769848E+00
   1.25000000E+03   5.00000000E-01   5.00000000E-01   9.04916003E+00
   1.35000000E+03   5.00000000E-01   5.00000000E-01   8.98989787E+00
   1.45000000E+03   5.00000000E-01   5.00000000E-01   8.93000345E+00
   1.55000000E+03   5.00000000E-01   5.00000000E-01   8.86959348E+00
   1.65000000E+03   5.00000000E-01   5.00000000E-01   8.80881026E+00
   1.75000000E+03   5.00000000E-01   5.00000000E-01   8.74782272E+00
   1.85000000E+03   5.00000000E-01   5.00000000E-01   8.68682731E+00
   1.95000000E+03   5.00000000E-01   5.00000000E-01   8.62604815E+00
   2.05000000E+03   5.00000000E-01   5.00000000E-01   8.56573637E+00
   2.15000000E+03   5.00000000E-01   5.00000000E-01   8.50616840E+00
   2.25000000E+03   5.00000000E-01   5.00000000E-01   8.44764359E+00
   2.35000000E+03   5.00000000E-01   5.00000000E-01   8.39048121E+00
   2.45000000E+03   5.00000000E-01   5.00000000E-01   8.33501678E+00
   2.55000000E+03   5.00000000E-01   5.00000000E-01   8.28159756E+00
   2.65000000E+03   5.00000000E-01   5.00000000E-01   8.23057671E+00
   2.75000000E+03   5.00000000E-01   5.00000000E-01   8.18230554E+00
   2.85000000E+03   5.00000000E-01   5.00000000E-01   8.13712344E+00
   2.95000000E+03   5.00000000E-01   5.00000000E-01   8.09534540E+00
   3.05000000E+03   5.00000000E-01   5.00000000E-01   8.05724792E+00
   3.15000000E+03   5.00000000E-01   5.00000000E-01   8.02305449E+00
   3.25000000E+03   5.00000000E-01   5.00000000E-01   7.99292268E+00
   3.35000000E+03   5.00000000E-01   5.00000000E-01   7.96693491E+00
   3.45000000E+03   5.00000000E-01   5.00000000E-01   7.94506574E+00
