 TITLE = "Solution pH" 
 VARIABLES = "X"          "Y"              "Z"             "pH" 
 ZONE I=         200 , J=           1 , K=           1  F=POINT
   8.75000000E+00   5.00000000E-01   5.00000000E-01   7.95472601E+00
   2.62500000E+01   5.00000000E-01   5.00000000E-01   7.71489273E+00
   4.37500000E+01   5.00000000E-01   5.00000000E-01   7.58575014E+00
   6.12500000E+01   5.00000000E-01   5.00000000E-01   7.49675450E+00
   7.87500000E+01   5.00000000E-01   5.00000000E-01   7.42427936E+00
   9.62500000E+01   5.00000000E-01   5.00000000E-01   7.36170137E+00
   1.13750000E+02   5.00000000E-01   5.00000000E-01   7.30628415E+00
   1.31250000E+02   5.00000000E-01   5.00000000E-01   7.25599731E+00
   1.48750000E+02   5.00000000E-01   5.00000000E-01   7.20929720E+00
   1.66250000E+02   5.00000000E-01   5.00000000E-01   7.16510341E+00
   1.83750000E+02   5.00000000E-01   5.00000000E-01   7.12269417E+00
   2.01250000E+02   5.00000000E-01   5.00000000E-01   7.08159726E+00
   2.18750000E+02   5.00000000E-01   5.00000000E-01   7.04150629E+00
   2.36250000E+02   5.00000000E-01   5.00000000E-01   7.00222303E+00
   2.53750000E+02   5.00000000E-01   5.00000000E-01   6.96361937E+00
   2.71250000E+02   5.00000000E-01   5.00000000E-01   6.92561271E+00
   2.88750000E+02   5.00000000E-01   5.00000000E-01   6.88815008E+00
   3.06250000E+02   5.00000000E-01   5.00000000E-01   6.85119783E+00
   3.23750000E+02   5.00000000E-01   5.00000000E-01   6.81473480E+00
   3.41250000E+02   5.00000000E-01   5.00000000E-01   6.77874773E+00
   3.58750000E+02   5.00000000E-01   5.00000000E-01   6.74322810E+00
   3.76250000E+02   5.00000000E-01   5.00000000E-01   6.70816981E+00
   3.93750000E+02   5.00000000E-01   5.00000000E-01   6.67356770E+00
   4.11250000E+02   5.00000000E-01   5.00000000E-01   6.63941669E+00
   4.28750000E+02   5.00000000E-01   5.00000000E-01   6.60571142E+00
   4.46250000E+02   5.00000000E-01   5.00000000E-01   6.57244634E+00
   4.63750000E+02   5.00000000E-01   5.00000000E-01   6.53961595E+00
   4.81250000E+02   5.00000000E-01   5.00000000E-01   6.50721493E+00
   4.98750000E+02   5.00000000E-01   5.00000000E-01   6.47523817E+00
   5.16250000E+02   5.00000000E-01   5.00000000E-01   6.44368052E+00
   5.33750000E+02   5.00000000E-01   5.00000000E-01   6.41253649E+00
   5.51250000E+02   5.00000000E-01   5.00000000E-01   6.38179997E+00
   5.68750000E+02   5.00000000E-01   5.00000000E-01   6.35146419E+00
   5.86250000E+02   5.00000000E-01   5.00000000E-01   6.32152192E+00
   6.03750000E+02   5.00000000E-01   5.00000000E-01   6.29196583E+00
   6.21250000E+02   5.00000000E-01   5.00000000E-01   6.26278903E+00
   6.38750000E+02   5.00000000E-01   5.00000000E-01   6.23398538E+00
   6.56250000E+02   5.00000000E-01   5.00000000E-01   6.20554977E+00
   6.73750000E+02   5.00000000E-01   5.00000000E-01   6.17747800E+00
   6.91250000E+02   5.00000000E-01   5.00000000E-01   6.14976652E+00
   7.08750000E+02   5.00000000E-01   5.00000000E-01   6.12241214E+00
   7.26250000E+02   5.00000000E-01   5.00000000E-01   6.09541168E+00
   7.43750000E+02   5.00000000E-01   5.00000000E-01   6.06876192E+00
   7.61250000E+02   5.00000000E-01   5.00000000E-01   6.04245979E+00
   7.78750000E+02   5.00000000E-01   5.00000000E-01   6.01650282E+00
   7.96250000E+02   5.00000000E-01   5.00000000E-01   5.99088971E+00
   8.13750000E+02   5.00000000E-01   5.00000000E-01   5.96562085E+00
   8.31250000E+02   5.00000000E-01   5.00000000E-01   5.94069862E+00
   8.48750000E+02   5.00000000E-01   5.00000000E-01   5.91612735E+00
   8.66250000E+02   5.00000000E-01   5.00000000E-01   5.89191298E+00
   8.83750000E+02   5.00000000E-01   5.00000000E-01   5.86806243E+00
   9.01250000E+02   5.00000000E-01   5.00000000E-01   5.84458294E+00
   9.18750000E+02   5.00000000E-01   5.00000000E-01   5.82148137E+00
   9.36250000E+02   5.00000000E-01   5.00000000E-01   5.79876364E+00
   9.53750000E+02   5.00000000E-01   5.00000000E-01   5.77643420E+00
   9.71250000E+02   5.00000000E-01   5.00000000E-01   5.75449574E+00
   9.88750000E+02   5.00000000E-01   5.00000000E-01   5.73294895E+00
   1.00625000E+03   5.00000000E-01   5.00000000E-01   5.71179242E+00
   1.02375000E+03   5.00000000E-01   5.00000000E-01   5.69102260E+00
   1.04125000E+03   5.00000000E-01   5.00000000E-01   5.67063383E+00
   1.05875000E+03   5.00000000E-01   5.00000000E-01   5.65061845E+00
   1.07625000E+03   5.00000000E-01   5.00000000E-01   5.63096678E+00
   1.09375000E+03   5.00000000E-01   5.00000000E-01   5.61166710E+00
   1.11125000E+03   5.00000000E-01   5.00000000E-01   5.59270534E+00
   1.12875000E+03   5.00000000E-01   5.00000000E-01   5.57406467E+00
   1.14625000E+03   5.00000000E-01   5.00000000E-01   5.55572480E+00
   1.16375000E+03   5.00000000E-01   5.00000000E-01   5.53766130E+00
   1.18125000E+03   5.00000000E-01   5.00000000E-01   5.51984500E+00
   1.19875000E+03   5.00000000E-01   5.00000000E-01   5.50224168E+00
   1.21625000E+03   5.00000000E-01   5.00000000E-01   5.48481236E+00
   1.23375000E+03   5.00000000E-01   5.00000000E-01   5.46751417E+00
   1.25125000E+03   5.00000000E-01   5.00000000E-01   5.45030189E+00
   1.26875000E+03   5.00000000E-01   5.00000000E-01   5.43313010E+00
   1.28625000E+03   5.00000000E-01   5.00000000E-01   5.41595572E+00
   1.30375000E+03   5.00000000E-01   5.00000000E-01   5.39874047E+00
   1.32125000E+03   5.00000000E-01   5.00000000E-01   5.38145292E+00
   1.33875000E+03   5.00000000E-01   5.00000000E-01   5.36406927E+00
   1.35625000E+03   5.00000000E-01   5.00000000E-01   5.34657196E+00
   1.37375000E+03   5.00000000E-01   5.00000000E-01   5.32894522E+00
   1.39125000E+03   5.00000000E-01   5.00000000E-01   5.31116672E+00
   1.40875000E+03   5.00000000E-01   5.00000000E-01   5.29319716E+00
   1.42625000E+03   5.00000000E-01   5.00000000E-01   5.27497752E+00
   1.44375000E+03   5.00000000E-01   5.00000000E-01   5.25645586E+00
   1.46125000E+03   5.00000000E-01   5.00000000E-01   5.23765644E+00
   1.47875000E+03   5.00000000E-01   5.00000000E-01   5.21874009E+00
   1.49625000E+03   5.00000000E-01   5.00000000E-01   5.19996799E+00
   1.51375000E+03   5.00000000E-01   5.00000000E-01   5.18158259E+00
   1.53125000E+03   5.00000000E-01   5.00000000E-01   5.16371339E+00
   1.54875000E+03   5.00000000E-01   5.00000000E-01   5.14636402E+00
   1.56625000E+03   5.00000000E-01   5.00000000E-01   5.12945876E+00
   1.58375000E+03   5.00000000E-01   5.00000000E-01   5.11290109E+00
   1.60125000E+03   5.00000000E-01   5.00000000E-01   5.09661244E+00
   1.61875000E+03   5.00000000E-01   5.00000000E-01   5.08054528E+00
   1.63625000E+03   5.00000000E-01   5.00000000E-01   5.06467942E+00
   1.65375000E+03   5.00000000E-01   5.00000000E-01   5.04901148E+00
   1.67125000E+03   5.00000000E-01   5.00000000E-01   5.03354387E+00
   1.68875000E+03   5.00000000E-01   5.00000000E-01   5.01827769E+00
   1.70625000E+03   5.00000000E-01   5.00000000E-01   5.00321049E+00
   1.72375000E+03   5.00000000E-01   5.00000000E-01   4.98833711E+00
   1.74125000E+03   5.00000000E-01   5.00000000E-01   4.97365154E+00
   1.75875000E+03   5.00000000E-01   5.00000000E-01   4.95914939E+00
   1.77625000E+03   5.00000000E-01   5.00000000E-01   4.94483101E+00
   1.79375000E+03   5.00000000E-01   5.00000000E-01   4.93070297E+00
   1.81125000E+03   5.00000000E-01   5.00000000E-01   4.91677551E+00
   1.82875000E+03   5.00000000E-01   5.00000000E-01   4.90305628E+00
   1.84625000E+03   5.00000000E-01   5.00000000E-01   4.88954547E+00
   1.86375000E+03   5.00000000E-01   5.00000000E-01   4.87623578E+00
   1.88125000E+03   5.00000000E-01   5.00000000E-01   4.86311633E+00
   1.89875000E+03   5.00000000E-01   5.00000000E-01   4.85017677E+00
   1.91625000E+03   5.00000000E-01   5.00000000E-01   4.83740915E+00
   1.93375000E+03   5.00000000E-01   5.00000000E-01   4.82480769E+00
   1.95125000E+03   5.00000000E-01   5.00000000E-01   4.81236745E+00
   1.96875000E+03   5.00000000E-01   5.00000000E-01   4.80008343E+00
   1.98625000E+03   5.00000000E-01   5.00000000E-01   4.78795012E+00
   2.00375000E+03   5.00000000E-01   5.00000000E-01   4.77596158E+00
   2.02125000E+03   5.00000000E-01   5.00000000E-01   4.76411182E+00
   2.03875000E+03   5.00000000E-01   5.00000000E-01   4.75239568E+00
   2.05625000E+03   5.00000000E-01   5.00000000E-01   4.74080993E+00
   2.07375000E+03   5.00000000E-01   5.00000000E-01   4.72935435E+00
   2.09125000E+03   5.00000000E-01   5.00000000E-01   4.71803204E+00
   2.10875000E+03   5.00000000E-01   5.00000000E-01   4.70684839E+00
   2.12625000E+03   5.00000000E-01   5.00000000E-01   4.69580869E+00
   2.14375000E+03   5.00000000E-01   5.00000000E-01   4.68491541E+00
   2.16125000E+03   5.00000000E-01   5.00000000E-01   4.67416642E+00
   2.17875000E+03   5.00000000E-01   5.00000000E-01   4.66355491E+00
   2.19625000E+03   5.00000000E-01   5.00000000E-01   4.65307093E+00
   2.21375000E+03   5.00000000E-01   5.00000000E-01   4.64270376E+00
   2.23125000E+03   5.00000000E-01   5.00000000E-01   4.63244419E+00
   2.24875000E+03   5.00000000E-01   5.00000000E-01   4.62228615E+00
   2.26625000E+03   5.00000000E-01   5.00000000E-01   4.61222748E+00
   2.28375000E+03   5.00000000E-01   5.00000000E-01   4.60226982E+00
   2.30125000E+03   5.00000000E-01   5.00000000E-01   4.59241753E+00
   2.31875000E+03   5.00000000E-01   5.00000000E-01   4.58267587E+00
   2.33625000E+03   5.00000000E-01   5.00000000E-01   4.57304926E+00
   2.35375000E+03   5.00000000E-01   5.00000000E-01   4.56354013E+00
   2.37125000E+03   5.00000000E-01   5.00000000E-01   4.55414896E+00
   2.38875000E+03   5.00000000E-01   5.00000000E-01   4.54487518E+00
   2.40625000E+03   5.00000000E-01   5.00000000E-01   4.53571824E+00
   2.42375000E+03   5.00000000E-01   5.00000000E-01   4.52667851E+00
   2.44125000E+03   5.00000000E-01   5.00000000E-01   4.51775762E+00
   2.45875000E+03   5.00000000E-01   5.00000000E-01   4.50895852E+00
   2.47625000E+03   5.00000000E-01   5.00000000E-01   4.50028508E+00
   2.49375000E+03   5.00000000E-01   5.00000000E-01   4.49174165E+00
   2.51125000E+03   5.00000000E-01   5.00000000E-01   4.48333262E+00
   2.52875000E+03   5.00000000E-01   5.00000000E-01   4.47506218E+00
   2.54625000E+03   5.00000000E-01   5.00000000E-01   4.46693439E+00
   2.56375000E+03   5.00000000E-01   5.00000000E-01   4.45895336E+00
   2.58125000E+03   5.00000000E-01   5.00000000E-01   4.45112351E+00
   2.59875000E+03   5.00000000E-01   5.00000000E-01   4.44344984E+00
   2.61625000E+03   5.00000000E-01   5.00000000E-01   4.43593803E+00
   2.63375000E+03   5.00000000E-01   5.00000000E-01   4.42859449E+00
   2.65125000E+03   5.00000000E-01   5.00000000E-01   4.42142629E+00
   2.66875000E+03   5.00000000E-01   5.00000000E-01   4.41444108E+00
   2.68625000E+03   5.00000000E-01   5.00000000E-01   4.40764694E+00
   2.70375000E+03   5.00000000E-01   5.00000000E-01   4.40105218E+00
   2.72125000E+03   5.00000000E-01   5.00000000E-01   4.39466529E+00
   2.73875000E+03   5.00000000E-01   5.00000000E-01   4.38849483E+00
   2.75625000E+03   5.00000000E-01   5.00000000E-01   4.38254956E+00
   2.77375000E+03   5.00000000E-01   5.00000000E-01   4.37683866E+00
   2.79125000E+03   5.00000000E-01   5.00000000E-01   4.37137201E+00
   2.80875000E+03   5.00000000E-01   5.00000000E-01   4.36616055E+00
   2.82625000E+03   5.00000000E-01   5.00000000E-01   4.36121651E+00
   2.84375000E+03   5.00000000E-01   5.00000000E-01   4.35655361E+00
   2.86125000E+03   5.00000000E-01   5.00000000E-01   4.35218711E+00
   2.87875000E+03   5.00000000E-01   5.00000000E-01   4.34813385E+00
   2.89625000E+03   5.00000000E-01   5.00000000E-01   4.34441230E+00
   2.91375000E+03   5.00000000E-01   5.00000000E-01   4.34104255E+00
   2.93125000E+03   5.00000000E-01   5.00000000E-01   4.33804657E+00
   2.94875000E+03   5.00000000E-01   5.00000000E-01   4.33544839E+00
   2.96625000E+03   5.00000000E-01   5.00000000E-01   4.33327463E+00
   2.98375000E+03   5.00000000E-01   5.00000000E-01   4.33155500E+00
   3.00125000E+03   5.00000000E-01   5.00000000E-01   4.33032308E+00
   3.01875000E+03   5.00000000E-01   5.00000000E-01   4.32961709E+00
   3.03625000E+03   5.00000000E-01   5.00000000E-01   4.32948089E+00
   3.05375000E+03   5.00000000E-01   5.00000000E-01   4.32996510E+00
   3.07125000E+03   5.00000000E-01   5.00000000E-01   4.33112843E+00
   3.08875000E+03   5.00000000E-01   5.00000000E-01   4.33303934E+00
   3.10625000E+03   5.00000000E-01   5.00000000E-01   4.33577818E+00
   3.12375000E+03   5.00000000E-01   5.00000000E-01   4.33943989E+00
   3.14125000E+03   5.00000000E-01   5.00000000E-01   4.34413747E+00
   3.15875000E+03   5.00000000E-01   5.00000000E-01   4.35000637E+00
   3.17625000E+03   5.00000000E-01   5.00000000E-01   4.35721012E+00
   3.19375000E+03   5.00000000E-01   5.00000000E-01   4.36594733E+00
   3.21125000E+03   5.00000000E-01   5.00000000E-01   4.37646006E+00
   3.22875000E+03   5.00000000E-01   5.00000000E-01   4.38904296E+00
   3.24625000E+03   5.00000000E-01   5.00000000E-01   4.40405071E+00
   3.26375000E+03   5.00000000E-01   5.00000000E-01   4.42189636E+00
   3.28125000E+03   5.00000000E-01   5.00000000E-01   4.44302164E+00
   3.29875000E+03   5.00000000E-01   5.00000000E-01   4.46779451E+00
   3.31625000E+03   5.00000000E-01   5.00000000E-01   4.49624896E+00
   3.33375000E+03   5.00000000E-01   5.00000000E-01   4.52757941E+00
   3.35125000E+03   5.00000000E-01   5.00000000E-01   4.55955402E+00
   3.36875000E+03   5.00000000E-01   5.00000000E-01   4.58869429E+00
   3.38625000E+03   5.00000000E-01   5.00000000E-01   4.61200177E+00
   3.40375000E+03   5.00000000E-01   5.00000000E-01   4.62875798E+00
   3.42125000E+03   5.00000000E-01   5.00000000E-01   4.64027724E+00
   3.43875000E+03   5.00000000E-01   5.00000000E-01   4.64843694E+00
   3.45625000E+03   5.00000000E-01   5.00000000E-01   4.65472928E+00
   3.47375000E+03   5.00000000E-01   5.00000000E-01   4.66008480E+00
   3.49125000E+03   5.00000000E-01   5.00000000E-01   4.66549106E+00
