 TITLE = "Solution pH" 
 VARIABLES = "X"          "Y"              "Z"             "pH" 
 ZONE I=         100 , J=           1 , K=           1  F=POINT
   1.75000000E+01   5.00000000E-01   5.00000000E-01   7.77569581E+00
   5.25000000E+01   5.00000000E-01   5.00000000E-01   7.64624947E+00
   8.75000000E+01   5.00000000E-01   5.00000000E-01   7.56744660E+00
   1.22500000E+02   5.00000000E-01   5.00000000E-01   7.50174981E+00
   1.57500000E+02   5.00000000E-01   5.00000000E-01   7.44083565E+00
   1.92500000E+02   5.00000000E-01   5.00000000E-01   7.38221287E+00
   2.27500000E+02   5.00000000E-01   5.00000000E-01   7.32501757E+00
   2.62500000E+02   5.00000000E-01   5.00000000E-01   7.26892796E+00
   2.97500000E+02   5.00000000E-01   5.00000000E-01   7.21381760E+00
   3.32500000E+02   5.00000000E-01   5.00000000E-01   7.15963313E+00
   3.67500000E+02   5.00000000E-01   5.00000000E-01   7.10634892E+00
   4.02500000E+02   5.00000000E-01   5.00000000E-01   7.05394966E+00
   4.37500000E+02   5.00000000E-01   5.00000000E-01   7.00242360E+00
   4.72500000E+02   5.00000000E-01   5.00000000E-01   6.95175999E+00
   5.07500000E+02   5.00000000E-01   5.00000000E-01   6.90194800E+00
   5.42500000E+02   5.00000000E-01   5.00000000E-01   6.85297642E+00
   5.77500000E+02   5.00000000E-01   5.00000000E-01   6.80483355E+00
   6.12500000E+02   5.00000000E-01   5.00000000E-01   6.75750720E+00
   6.47500000E+02   5.00000000E-01   5.00000000E-01   6.71098475E+00
   6.82500000E+02   5.00000000E-01   5.00000000E-01   6.66525315E+00
   7.17500000E+02   5.00000000E-01   5.00000000E-01   6.62029904E+00
   7.52500000E+02   5.00000000E-01   5.00000000E-01   6.57610875E+00
   7.87500000E+02   5.00000000E-01   5.00000000E-01   6.53266838E+00
   8.22500000E+02   5.00000000E-01   5.00000000E-01   6.48996384E+00
   8.57500000E+02   5.00000000E-01   5.00000000E-01   6.44798097E+00
   8.92500000E+02   5.00000000E-01   5.00000000E-01   6.40670555E+00
   9.27500000E+02   5.00000000E-01   5.00000000E-01   6.36612343E+00
   9.62500000E+02   5.00000000E-01   5.00000000E-01   6.32622060E+00
   9.97500000E+02   5.00000000E-01   5.00000000E-01   6.28698329E+00
   1.03250000E+03   5.00000000E-01   5.00000000E-01   6.24839804E+00
   1.06750000E+03   5.00000000E-01   5.00000000E-01   6.21045184E+00
   1.10250000E+03   5.00000000E-01   5.00000000E-01   6.17313221E+00
   1.13750000E+03   5.00000000E-01   5.00000000E-01   6.13642730E+00
   1.17250000E+03   5.00000000E-01   5.00000000E-01   6.10032597E+00
   1.20750000E+03   5.00000000E-01   5.00000000E-01   6.06481786E+00
   1.24250000E+03   5.00000000E-01   5.00000000E-01   6.02989341E+00
   1.27750000E+03   5.00000000E-01   5.00000000E-01   5.99554398E+00
   1.31250000E+03   5.00000000E-01   5.00000000E-01   5.96176176E+00
   1.34750000E+03   5.00000000E-01   5.00000000E-01   5.92853986E+00
   1.38250000E+03   5.00000000E-01   5.00000000E-01   5.89587223E+00
   1.41750000E+03   5.00000000E-01   5.00000000E-01   5.86375366E+00
   1.45250000E+03   5.00000000E-01   5.00000000E-01   5.83217969E+00
   1.48750000E+03   5.00000000E-01   5.00000000E-01   5.80114663E+00
   1.52250000E+03   5.00000000E-01   5.00000000E-01   5.77065139E+00
   1.55750000E+03   5.00000000E-01   5.00000000E-01   5.74069150E+00
   1.59250000E+03   5.00000000E-01   5.00000000E-01   5.71126505E+00
   1.62750000E+03   5.00000000E-01   5.00000000E-01   5.68237057E+00
   1.66250000E+03   5.00000000E-01   5.00000000E-01   5.65400706E+00
   1.69750000E+03   5.00000000E-01   5.00000000E-01   5.62617390E+00
   1.73250000E+03   5.00000000E-01   5.00000000E-01   5.59887087E+00
   1.76750000E+03   5.00000000E-01   5.00000000E-01   5.57209815E+00
   1.80250000E+03   5.00000000E-01   5.00000000E-01   5.54585629E+00
   1.83750000E+03   5.00000000E-01   5.00000000E-01   5.52014624E+00
   1.87250000E+03   5.00000000E-01   5.00000000E-01   5.49496943E+00
   1.90750000E+03   5.00000000E-01   5.00000000E-01   5.47032774E+00
   1.94250000E+03   5.00000000E-01   5.00000000E-01   5.44622365E+00
   1.97750000E+03   5.00000000E-01   5.00000000E-01   5.42266022E+00
   2.01250000E+03   5.00000000E-01   5.00000000E-01   5.39964124E+00
   2.04750000E+03   5.00000000E-01   5.00000000E-01   5.37717130E+00
   2.08250000E+03   5.00000000E-01   5.00000000E-01   5.35525587E+00
   2.11750000E+03   5.00000000E-01   5.00000000E-01   5.33390148E+00
   2.15250000E+03   5.00000000E-01   5.00000000E-01   5.31311580E+00
   2.18750000E+03   5.00000000E-01   5.00000000E-01   5.29290783E+00
   2.22250000E+03   5.00000000E-01   5.00000000E-01   5.27328809E+00
   2.25750000E+03   5.00000000E-01   5.00000000E-01   5.25426879E+00
   2.29250000E+03   5.00000000E-01   5.00000000E-01   5.23586409E+00
   2.32750000E+03   5.00000000E-01   5.00000000E-01   5.21809040E+00
   2.36250000E+03   5.00000000E-01   5.00000000E-01   5.20096666E+00
   2.39750000E+03   5.00000000E-01   5.00000000E-01   5.18451480E+00
   2.43250000E+03   5.00000000E-01   5.00000000E-01   5.16876016E+00
   2.46750000E+03   5.00000000E-01   5.00000000E-01   5.15373206E+00
   2.50250000E+03   5.00000000E-01   5.00000000E-01   5.13946454E+00
   2.53750000E+03   5.00000000E-01   5.00000000E-01   5.12599715E+00
   2.57250000E+03   5.00000000E-01   5.00000000E-01   5.11337599E+00
   2.60750000E+03   5.00000000E-01   5.00000000E-01   5.10165510E+00
   2.64250000E+03   5.00000000E-01   5.00000000E-01   5.09089799E+00
   2.67750000E+03   5.00000000E-01   5.00000000E-01   5.08117986E+00
   2.71250000E+03   5.00000000E-01   5.00000000E-01   5.07259023E+00
   2.74750000E+03   5.00000000E-01   5.00000000E-01   5.06523652E+00
   2.78250000E+03   5.00000000E-01   5.00000000E-01   5.05924873E+00
   2.81750000E+03   5.00000000E-01   5.00000000E-01   5.05478576E+00
   2.85250000E+03   5.00000000E-01   5.00000000E-01   5.05204400E+00
   2.88750000E+03   5.00000000E-01   5.00000000E-01   5.05126927E+00
   2.92250000E+03   5.00000000E-01   5.00000000E-01   5.05277388E+00
   2.95750000E+03   5.00000000E-01   5.00000000E-01   5.05696022E+00
   2.99250000E+03   5.00000000E-01   5.00000000E-01   5.06435638E+00
   3.02750000E+03   5.00000000E-01   5.00000000E-01   5.07566737E+00
   3.06250000E+03   5.00000000E-01   5.00000000E-01   5.09184884E+00
   3.09750000E+03   5.00000000E-01   5.00000000E-01   5.11420434E+00
   3.13250000E+03   5.00000000E-01   5.00000000E-01   5.14447520E+00
   3.16750000E+03   5.00000000E-01   5.00000000E-01   5.18475031E+00
   3.20250000E+03   5.00000000E-01   5.00000000E-01   5.23659408E+00
   3.23750000E+03   5.00000000E-01   5.00000000E-01   5.29848508E+00
   3.27250000E+03   5.00000000E-01   5.00000000E-01   5.36407563E+00
   3.30750000E+03   5.00000000E-01   5.00000000E-01   5.42807665E+00
   3.34250000E+03   5.00000000E-01   5.00000000E-01   5.49246046E+00
   3.37750000E+03   5.00000000E-01   5.00000000E-01   5.56229615E+00
   3.41250000E+03   5.00000000E-01   5.00000000E-01   5.63910085E+00
   3.44750000E+03   5.00000000E-01   5.00000000E-01   5.71888011E+00
   3.48250000E+03   5.00000000E-01   5.00000000E-01   5.79617126E+00
