 TITLE = "Solution pH" 
 VARIABLES = "X"          "Y"              "Z"             "pH" 
 ZONE I=          35 , J=           1 , K=           1  F=POINT
   5.00000000E+01   5.00000000E-01   5.00000000E-01   9.73433731E+00
   1.50000000E+02   5.00000000E-01   5.00000000E-01   9.66247265E+00
   2.50000000E+02   5.00000000E-01   5.00000000E-01   9.60309741E+00
   3.50000000E+02   5.00000000E-01   5.00000000E-01   9.54678440E+00
   4.50000000E+02   5.00000000E-01   5.00000000E-01   9.49195289E+00
   5.50000000E+02   5.00000000E-01   5.00000000E-01   9.43774153E+00
   6.50000000E+02   5.00000000E-01   5.00000000E-01   9.38355886E+00
   7.50000000E+02   5.00000000E-01   5.00000000E-01   9.32900794E+00
   8.50000000E+02   5.00000000E-01   5.00000000E-01   9.27383675E+00
   9.50000000E+02   5.00000000E-01   5.00000000E-01   9.21790081E+00
   1.05000000E+03   5.00000000E-01   5.00000000E-01   9.16113421E+00
   1.15000000E+03   5.00000000E-01   5.00000000E-01   9.10352788E+00
   1.25000000E+03   5.00000000E-01   5.00000000E-01   9.04511442E+00
   1.35000000E+03   5.00000000E-01   5.00000000E-01   8.98595876E+00
   1.45000000E+03   5.00000000E-01   5.00000000E-01   8.92615322E+00
   1.55000000E+03   5.00000000E-01   5.00000000E-01   8.86581592E+00
   1.65000000E+03   5.00000000E-01   5.00000000E-01   8.80509093E+00
   1.75000000E+03   5.00000000E-01   5.00000000E-01   8.74414922E+00
   1.85000000E+03   5.00000000E-01   5.00000000E-01   8.68318953E+00
   1.95000000E+03   5.00000000E-01   5.00000000E-01   8.62243842E+00
   2.05000000E+03   5.00000000E-01   5.00000000E-01   8.56214959E+00
   2.15000000E+03   5.00000000E-01   5.00000000E-01   8.50260216E+00
   2.25000000E+03   5.00000000E-01   5.00000000E-01   8.44409824E+00
   2.35000000E+03   5.00000000E-01   5.00000000E-01   8.38695992E+00
   2.45000000E+03   5.00000000E-01   5.00000000E-01   8.33152551E+00
   2.55000000E+03   5.00000000E-01   5.00000000E-01   8.27814497E+00
   2.65000000E+03   5.00000000E-01   5.00000000E-01   8.22717394E+00
   2.75000000E+03   5.00000000E-01   5.00000000E-01   8.17896583E+00
   2.85000000E+03   5.00000000E-01   5.00000000E-01   8.13386152E+00
   2.95000000E+03   5.00000000E-01   5.00000000E-01   8.09217671E+00
   3.05000000E+03   5.00000000E-01   5.00000000E-01   8.05418772E+00
   3.15000000E+03   5.00000000E-01   5.00000000E-01   8.02011685E+00
   3.25000000E+03   5.00000000E-01   5.00000000E-01   7.99011954E+00
   3.35000000E+03   5.00000000E-01   5.00000000E-01   7.96427500E+00
   3.45000000E+03   5.00000000E-01   5.00000000E-01   7.94253168E+00
