 TITLE = "Solution pH" 
 VARIABLES = "X"          "Y"              "Z"             "pH" 
 ZONE I=          10 , J=           1 , K=           1  F=POINT
   1.75000000E+02   5.00000000E-01   5.00000000E-01   7.09143477E+00
   5.25000000E+02   5.00000000E-01   5.00000000E-01   6.55829141E+00
   8.75000000E+02   5.00000000E-01   5.00000000E-01   6.10046667E+00
   1.22500000E+03   5.00000000E-01   5.00000000E-01   5.70555755E+00
   1.57500000E+03   5.00000000E-01   5.00000000E-01   5.36454816E+00
   1.92500000E+03   5.00000000E-01   5.00000000E-01   5.07369881E+00
   2.27500000E+03   5.00000000E-01   5.00000000E-01   4.83010363E+00
   2.62500000E+03   5.00000000E-01   5.00000000E-01   4.62862101E+00
   2.97500000E+03   5.00000000E-01   5.00000000E-01   4.46220893E+00
   3.32500000E+03   5.00000000E-01   5.00000000E-01   4.32412304E+00
