 TITLE = "Solution pH" 
 VARIABLES = "X"          "Y"              "Z"             "pH" 
 ZONE I=         100 , J=           1 , K=           1  F=POINT
   1.75000000E+01   5.00000000E-01   5.00000000E-01   7.83812776E+00
   5.25000000E+01   5.00000000E-01   5.00000000E-01   7.69679257E+00
   8.75000000E+01   5.00000000E-01   5.00000000E-01   7.59344711E+00
   1.22500000E+02   5.00000000E-01   5.00000000E-01   7.50075923E+00
   1.57500000E+02   5.00000000E-01   5.00000000E-01   7.41031442E+00
   1.92500000E+02   5.00000000E-01   5.00000000E-01   7.30796702E+00
   2.27500000E+02   5.00000000E-01   5.00000000E-01   7.20532121E+00
   2.62500000E+02   5.00000000E-01   5.00000000E-01   7.12027087E+00
   2.97500000E+02   5.00000000E-01   5.00000000E-01   7.04227867E+00
   3.32500000E+02   5.00000000E-01   5.00000000E-01   6.96765947E+00
   3.67500000E+02   5.00000000E-01   5.00000000E-01   6.89545314E+00
   4.02500000E+02   5.00000000E-01   5.00000000E-01   6.82530509E+00
   4.37500000E+02   5.00000000E-01   5.00000000E-01   6.75703659E+00
   4.72500000E+02   5.00000000E-01   5.00000000E-01   6.69053730E+00
   5.07500000E+02   5.00000000E-01   5.00000000E-01   6.62572993E+00
   5.42500000E+02   5.00000000E-01   5.00000000E-01   6.56255535E+00
   5.77500000E+02   5.00000000E-01   5.00000000E-01   6.50096526E+00
   6.12500000E+02   5.00000000E-01   5.00000000E-01   6.44091817E+00
   6.47500000E+02   5.00000000E-01   5.00000000E-01   6.38237703E+00
   6.82500000E+02   5.00000000E-01   5.00000000E-01   6.32530792E+00
   7.17500000E+02   5.00000000E-01   5.00000000E-01   6.26967925E+00
   7.52500000E+02   5.00000000E-01   5.00000000E-01   6.21546132E+00
   7.87500000E+02   5.00000000E-01   5.00000000E-01   6.16262617E+00
   8.22500000E+02   5.00000000E-01   5.00000000E-01   6.11114751E+00
   8.57500000E+02   5.00000000E-01   5.00000000E-01   6.06100076E+00
   8.92500000E+02   5.00000000E-01   5.00000000E-01   6.01216313E+00
   9.27500000E+02   5.00000000E-01   5.00000000E-01   5.96461382E+00
   9.62500000E+02   5.00000000E-01   5.00000000E-01   5.91833412E+00
   9.97500000E+02   5.00000000E-01   5.00000000E-01   5.87330764E+00
   1.03250000E+03   5.00000000E-01   5.00000000E-01   5.82952049E+00
   1.06750000E+03   5.00000000E-01   5.00000000E-01   5.78696146E+00
   1.10250000E+03   5.00000000E-01   5.00000000E-01   5.74562217E+00
   1.13750000E+03   5.00000000E-01   5.00000000E-01   5.56754834E+00
   1.17250000E+03   5.00000000E-01   5.00000000E-01   5.57951037E+00
   1.20750000E+03   5.00000000E-01   5.00000000E-01   5.56625518E+00
   1.24250000E+03   5.00000000E-01   5.00000000E-01   5.54432465E+00
   1.27750000E+03   5.00000000E-01   5.00000000E-01   5.51898845E+00
   1.31250000E+03   5.00000000E-01   5.00000000E-01   5.49255299E+00
   1.34750000E+03   5.00000000E-01   5.00000000E-01   5.46660394E+00
   1.38250000E+03   5.00000000E-01   5.00000000E-01   5.36349074E+00
   1.41750000E+03   5.00000000E-01   5.00000000E-01   5.35569398E+00
   1.45250000E+03   5.00000000E-01   5.00000000E-01   5.35522539E+00
   1.48750000E+03   5.00000000E-01   5.00000000E-01   5.34506623E+00
   1.52250000E+03   5.00000000E-01   5.00000000E-01   5.33265997E+00
   1.55750000E+03   5.00000000E-01   5.00000000E-01   5.32076009E+00
   1.59250000E+03   5.00000000E-01   5.00000000E-01   5.31024013E+00
   1.62750000E+03   5.00000000E-01   5.00000000E-01   5.30305465E+00
   1.66250000E+03   5.00000000E-01   5.00000000E-01   5.30619222E+00
   1.69750000E+03   5.00000000E-01   5.00000000E-01   5.31994218E+00
   1.73250000E+03   5.00000000E-01   5.00000000E-01   5.33449180E+00
   1.76750000E+03   5.00000000E-01   5.00000000E-01   5.36634904E+00
   1.80250000E+03   5.00000000E-01   5.00000000E-01   5.42653554E+00
   1.83750000E+03   5.00000000E-01   5.00000000E-01   5.52105965E+00
   1.87250000E+03   5.00000000E-01   5.00000000E-01   5.73528315E+00
   1.90750000E+03   5.00000000E-01   5.00000000E-01   6.23213000E+00
   1.94250000E+03   5.00000000E-01   5.00000000E-01   6.66568452E+00
   1.97750000E+03   5.00000000E-01   5.00000000E-01   6.87427155E+00
   2.01250000E+03   5.00000000E-01   5.00000000E-01   6.99008186E+00
   2.04750000E+03   5.00000000E-01   5.00000000E-01   7.06288205E+00
   2.08250000E+03   5.00000000E-01   5.00000000E-01   7.11042292E+00
   2.11750000E+03   5.00000000E-01   5.00000000E-01   7.14160369E+00
   2.15250000E+03   5.00000000E-01   5.00000000E-01   7.16176907E+00
   2.18750000E+03   5.00000000E-01   5.00000000E-01   7.17435936E+00
   2.22250000E+03   5.00000000E-01   5.00000000E-01   7.18167488E+00
   2.25750000E+03   5.00000000E-01   5.00000000E-01   7.18529753E+00
   2.29250000E+03   5.00000000E-01   5.00000000E-01   7.18633923E+00
   2.32750000E+03   5.00000000E-01   5.00000000E-01   7.18559503E+00
   2.36250000E+03   5.00000000E-01   5.00000000E-01   7.18364113E+00
   2.39750000E+03   5.00000000E-01   5.00000000E-01   7.18089934E+00
   2.43250000E+03   5.00000000E-01   5.00000000E-01   7.17768050E+00
   2.46750000E+03   5.00000000E-01   5.00000000E-01   7.17421453E+00
   2.50250000E+03   5.00000000E-01   5.00000000E-01   7.17067139E+00
   2.53750000E+03   5.00000000E-01   5.00000000E-01   7.16717604E+00
   2.57250000E+03   5.00000000E-01   5.00000000E-01   7.16381922E+00
   2.60750000E+03   5.00000000E-01   5.00000000E-01   7.16066518E+00
   2.64250000E+03   5.00000000E-01   5.00000000E-01   7.15775718E+00
   2.67750000E+03   5.00000000E-01   5.00000000E-01   7.15512169E+00
   2.71250000E+03   5.00000000E-01   5.00000000E-01   7.15277121E+00
   2.74750000E+03   5.00000000E-01   5.00000000E-01   7.15070603E+00
   2.78250000E+03   5.00000000E-01   5.00000000E-01   7.14891660E+00
   2.81750000E+03   5.00000000E-01   5.00000000E-01   7.14738609E+00
   2.85250000E+03   5.00000000E-01   5.00000000E-01   7.14609250E+00
   2.88750000E+03   5.00000000E-01   5.00000000E-01   7.14500986E+00
   2.92250000E+03   5.00000000E-01   5.00000000E-01   7.14410901E+00
   2.95750000E+03   5.00000000E-01   5.00000000E-01   7.14335821E+00
   2.99250000E+03   5.00000000E-01   5.00000000E-01   7.14272331E+00
   3.02750000E+03   5.00000000E-01   5.00000000E-01   7.14216775E+00
   3.06250000E+03   5.00000000E-01   5.00000000E-01   7.14165253E+00
   3.09750000E+03   5.00000000E-01   5.00000000E-01   7.14113629E+00
   3.13250000E+03   5.00000000E-01   5.00000000E-01   7.14057500E+00
   3.16750000E+03   5.00000000E-01   5.00000000E-01   7.13992251E+00
   3.20250000E+03   5.00000000E-01   5.00000000E-01   7.13913060E+00
   3.23750000E+03   5.00000000E-01   5.00000000E-01   7.13814908E+00
   3.27250000E+03   5.00000000E-01   5.00000000E-01   7.13692562E+00
   3.30750000E+03   5.00000000E-01   5.00000000E-01   7.13540590E+00
   3.34250000E+03   5.00000000E-01   5.00000000E-01   7.13353398E+00
   3.37750000E+03   5.00000000E-01   5.00000000E-01   7.13125219E+00
   3.41250000E+03   5.00000000E-01   5.00000000E-01   7.12850116E+00
   3.44750000E+03   5.00000000E-01   5.00000000E-01   7.12521902E+00
   3.48250000E+03   5.00000000E-01   5.00000000E-01   7.12118575E+00
