 TITLE = "Solution pH" 
 VARIABLES = "X"          "Y"              "Z"             "pH" 
 ZONE I=         100 , J=           1 , K=           1  F=POINT
   1.75000000E+01   5.00000000E-01   5.00000000E-01   7.71873675E+00
   5.25000000E+01   5.00000000E-01   5.00000000E-01   7.60728737E+00
   8.75000000E+01   5.00000000E-01   5.00000000E-01   7.52308987E+00
   1.22500000E+02   5.00000000E-01   5.00000000E-01   7.44986830E+00
   1.57500000E+02   5.00000000E-01   5.00000000E-01   7.38248907E+00
   1.92500000E+02   5.00000000E-01   5.00000000E-01   7.31874830E+00
   2.27500000E+02   5.00000000E-01   5.00000000E-01   7.25753847E+00
   2.62500000E+02   5.00000000E-01   5.00000000E-01   7.19824585E+00
   2.97500000E+02   5.00000000E-01   5.00000000E-01   7.14050670E+00
   3.32500000E+02   5.00000000E-01   5.00000000E-01   7.08409405E+00
   3.67500000E+02   5.00000000E-01   5.00000000E-01   7.02885976E+00
   4.02500000E+02   5.00000000E-01   5.00000000E-01   6.97470290E+00
   4.37500000E+02   5.00000000E-01   5.00000000E-01   6.92155142E+00
   4.72500000E+02   5.00000000E-01   5.00000000E-01   6.86935126E+00
   5.07500000E+02   5.00000000E-01   5.00000000E-01   6.81805961E+00
   5.42500000E+02   5.00000000E-01   5.00000000E-01   6.76764069E+00
   5.77500000E+02   5.00000000E-01   5.00000000E-01   6.71806298E+00
   6.12500000E+02   5.00000000E-01   5.00000000E-01   6.66929751E+00
   6.47500000E+02   5.00000000E-01   5.00000000E-01   6.62131626E+00
   6.82500000E+02   5.00000000E-01   5.00000000E-01   6.57408870E+00
   7.17500000E+02   5.00000000E-01   5.00000000E-01   6.52758616E+00
   7.52500000E+02   5.00000000E-01   5.00000000E-01   6.48178305E+00
   7.87500000E+02   5.00000000E-01   5.00000000E-01   6.43665339E+00
   8.22500000E+02   5.00000000E-01   5.00000000E-01   6.39217080E+00
   8.57500000E+02   5.00000000E-01   5.00000000E-01   6.34830868E+00
   8.92500000E+02   5.00000000E-01   5.00000000E-01   6.30504042E+00
   9.27500000E+02   5.00000000E-01   5.00000000E-01   6.26233961E+00
   9.62500000E+02   5.00000000E-01   5.00000000E-01   6.22018033E+00
   9.97500000E+02   5.00000000E-01   5.00000000E-01   6.17853737E+00
   1.03250000E+03   5.00000000E-01   5.00000000E-01   6.13738659E+00
   1.06750000E+03   5.00000000E-01   5.00000000E-01   6.09670517E+00
   1.10250000E+03   5.00000000E-01   5.00000000E-01   6.05647189E+00
   1.13750000E+03   5.00000000E-01   5.00000000E-01   6.01666741E+00
   1.17250000E+03   5.00000000E-01   5.00000000E-01   5.97727447E+00
   1.20750000E+03   5.00000000E-01   5.00000000E-01   5.93827810E+00
   1.24250000E+03   5.00000000E-01   5.00000000E-01   5.89966571E+00
   1.27750000E+03   5.00000000E-01   5.00000000E-01   5.86142718E+00
   1.31250000E+03   5.00000000E-01   5.00000000E-01   5.82355485E+00
   1.34750000E+03   5.00000000E-01   5.00000000E-01   5.78604345E+00
   1.38250000E+03   5.00000000E-01   5.00000000E-01   5.74888994E+00
   1.41750000E+03   5.00000000E-01   5.00000000E-01   5.71209328E+00
   1.45250000E+03   5.00000000E-01   5.00000000E-01   5.67565423E+00
   1.48750000E+03   5.00000000E-01   5.00000000E-01   5.63957498E+00
   1.52250000E+03   5.00000000E-01   5.00000000E-01   5.60385885E+00
   1.55750000E+03   5.00000000E-01   5.00000000E-01   5.56850993E+00
   1.59250000E+03   5.00000000E-01   5.00000000E-01   5.53353278E+00
   1.62750000E+03   5.00000000E-01   5.00000000E-01   5.49893211E+00
   1.66250000E+03   5.00000000E-01   5.00000000E-01   5.46471246E+00
   1.69750000E+03   5.00000000E-01   5.00000000E-01   5.43087804E+00
   1.73250000E+03   5.00000000E-01   5.00000000E-01   5.39743249E+00
   1.76750000E+03   5.00000000E-01   5.00000000E-01   5.36437874E+00
   1.80250000E+03   5.00000000E-01   5.00000000E-01   5.33171897E+00
   1.83750000E+03   5.00000000E-01   5.00000000E-01   5.29945448E+00
   1.87250000E+03   5.00000000E-01   5.00000000E-01   5.26758577E+00
   1.90750000E+03   5.00000000E-01   5.00000000E-01   5.23611246E+00
   1.94250000E+03   5.00000000E-01   5.00000000E-01   5.20503344E+00
   1.97750000E+03   5.00000000E-01   5.00000000E-01   5.17434682E+00
   2.01250000E+03   5.00000000E-01   5.00000000E-01   5.14405011E+00
   2.04750000E+03   5.00000000E-01   5.00000000E-01   5.11414022E+00
   2.08250000E+03   5.00000000E-01   5.00000000E-01   5.08461358E+00
   2.11750000E+03   5.00000000E-01   5.00000000E-01   5.05546622E+00
   2.15250000E+03   5.00000000E-01   5.00000000E-01   5.02669385E+00
   2.18750000E+03   5.00000000E-01   5.00000000E-01   4.99829193E+00
   2.22250000E+03   5.00000000E-01   5.00000000E-01   4.97025576E+00
   2.25750000E+03   5.00000000E-01   5.00000000E-01   4.94258050E+00
   2.29250000E+03   5.00000000E-01   5.00000000E-01   4.91526131E+00
   2.32750000E+03   5.00000000E-01   5.00000000E-01   4.88829332E+00
   2.36250000E+03   5.00000000E-01   5.00000000E-01   4.86167171E+00
   2.39750000E+03   5.00000000E-01   5.00000000E-01   4.83539176E+00
   2.43250000E+03   5.00000000E-01   5.00000000E-01   4.80944888E+00
   2.46750000E+03   5.00000000E-01   5.00000000E-01   4.78383863E+00
   2.50250000E+03   5.00000000E-01   5.00000000E-01   4.75855673E+00
   2.53750000E+03   5.00000000E-01   5.00000000E-01   4.73359914E+00
   2.57250000E+03   5.00000000E-01   5.00000000E-01   4.70896201E+00
   2.60750000E+03   5.00000000E-01   5.00000000E-01   4.68464173E+00
   2.64250000E+03   5.00000000E-01   5.00000000E-01   4.66063492E+00
   2.67750000E+03   5.00000000E-01   5.00000000E-01   4.63693848E+00
   2.71250000E+03   5.00000000E-01   5.00000000E-01   4.61354954E+00
   2.74750000E+03   5.00000000E-01   5.00000000E-01   4.59046549E+00
   2.78250000E+03   5.00000000E-01   5.00000000E-01   4.56768397E+00
   2.81750000E+03   5.00000000E-01   5.00000000E-01   4.54520288E+00
   2.85250000E+03   5.00000000E-01   5.00000000E-01   4.52302036E+00
   2.88750000E+03   5.00000000E-01   5.00000000E-01   4.50113480E+00
   2.92250000E+03   5.00000000E-01   5.00000000E-01   4.47954479E+00
   2.95750000E+03   5.00000000E-01   5.00000000E-01   4.45824915E+00
   2.99250000E+03   5.00000000E-01   5.00000000E-01   4.43724688E+00
   3.02750000E+03   5.00000000E-01   5.00000000E-01   4.41653716E+00
   3.06250000E+03   5.00000000E-01   5.00000000E-01   4.39611931E+00
   3.09750000E+03   5.00000000E-01   5.00000000E-01   4.37599278E+00
   3.13250000E+03   5.00000000E-01   5.00000000E-01   4.35615711E+00
   3.16750000E+03   5.00000000E-01   5.00000000E-01   4.33661191E+00
   3.20250000E+03   5.00000000E-01   5.00000000E-01   4.31735680E+00
   3.23750000E+03   5.00000000E-01   5.00000000E-01   4.29839139E+00
   3.27250000E+03   5.00000000E-01   5.00000000E-01   4.27971526E+00
   3.30750000E+03   5.00000000E-01   5.00000000E-01   4.26132785E+00
   3.34250000E+03   5.00000000E-01   5.00000000E-01   4.24322852E+00
   3.37750000E+03   5.00000000E-01   5.00000000E-01   4.22541639E+00
   3.41250000E+03   5.00000000E-01   5.00000000E-01   4.20789040E+00
   3.44750000E+03   5.00000000E-01   5.00000000E-01   4.19064919E+00
   3.48250000E+03   5.00000000E-01   5.00000000E-01   4.17425712E+00
