 TITLE = "Solution pH" 
 VARIABLES = "X"          "Y"              "Z"             "pH" 
 ZONE I=         100 , J=           1 , K=           1  F=POINT
   1.75000000E+01   5.00000000E-01   5.00000000E-01   7.63561100E+00
   5.25000000E+01   5.00000000E-01   5.00000000E-01   7.50922728E+00
   8.75000000E+01   5.00000000E-01   5.00000000E-01   7.41075302E+00
   1.22500000E+02   5.00000000E-01   5.00000000E-01   7.31782850E+00
   1.57500000E+02   5.00000000E-01   5.00000000E-01   7.22787003E+00
   1.92500000E+02   5.00000000E-01   5.00000000E-01   7.14065273E+00
   2.27500000E+02   5.00000000E-01   5.00000000E-01   7.05608255E+00
   2.62500000E+02   5.00000000E-01   5.00000000E-01   6.97401740E+00
   2.97500000E+02   5.00000000E-01   5.00000000E-01   6.89430168E+00
   3.32500000E+02   5.00000000E-01   5.00000000E-01   6.81679105E+00
   3.67500000E+02   5.00000000E-01   5.00000000E-01   6.74135960E+00
   4.02500000E+02   5.00000000E-01   5.00000000E-01   6.66789891E+00
   4.37500000E+02   5.00000000E-01   5.00000000E-01   6.59631513E+00
   4.72500000E+02   5.00000000E-01   5.00000000E-01   6.52652582E+00
   5.07500000E+02   5.00000000E-01   5.00000000E-01   6.45845712E+00
   5.42500000E+02   5.00000000E-01   5.00000000E-01   6.39204172E+00
   5.77500000E+02   5.00000000E-01   5.00000000E-01   6.32721739E+00
   6.12500000E+02   5.00000000E-01   5.00000000E-01   6.26392610E+00
   6.47500000E+02   5.00000000E-01   5.00000000E-01   6.20211351E+00
   6.82500000E+02   5.00000000E-01   5.00000000E-01   6.14172872E+00
   7.17500000E+02   5.00000000E-01   5.00000000E-01   6.08272431E+00
   7.52500000E+02   5.00000000E-01   5.00000000E-01   6.02505638E+00
   7.87500000E+02   5.00000000E-01   5.00000000E-01   5.96868463E+00
   8.22500000E+02   5.00000000E-01   5.00000000E-01   5.91357234E+00
   8.57500000E+02   5.00000000E-01   5.00000000E-01   5.85968635E+00
   8.92500000E+02   5.00000000E-01   5.00000000E-01   5.80699679E+00
   9.27500000E+02   5.00000000E-01   5.00000000E-01   5.75547688E+00
   9.62500000E+02   5.00000000E-01   5.00000000E-01   5.70510254E+00
   9.97500000E+02   5.00000000E-01   5.00000000E-01   5.65585198E+00
   1.03250000E+03   5.00000000E-01   5.00000000E-01   5.60770536E+00
   1.06750000E+03   5.00000000E-01   5.00000000E-01   5.56064441E+00
   1.10250000E+03   5.00000000E-01   5.00000000E-01   5.51465219E+00
   1.13750000E+03   5.00000000E-01   5.00000000E-01   5.46971295E+00
   1.17250000E+03   5.00000000E-01   5.00000000E-01   5.42581194E+00
   1.20750000E+03   5.00000000E-01   5.00000000E-01   5.38293534E+00
   1.24250000E+03   5.00000000E-01   5.00000000E-01   5.34107003E+00
   1.27750000E+03   5.00000000E-01   5.00000000E-01   5.30020369E+00
   1.31250000E+03   5.00000000E-01   5.00000000E-01   5.26032509E+00
   1.34750000E+03   5.00000000E-01   5.00000000E-01   5.22142418E+00
   1.38250000E+03   5.00000000E-01   5.00000000E-01   5.18349229E+00
   1.41750000E+03   5.00000000E-01   5.00000000E-01   5.14652145E+00
   1.45250000E+03   5.00000000E-01   5.00000000E-01   5.11050239E+00
   1.48750000E+03   5.00000000E-01   5.00000000E-01   5.07542918E+00
   1.52250000E+03   5.00000000E-01   5.00000000E-01   5.04130003E+00
   1.55750000E+03   5.00000000E-01   5.00000000E-01   5.00811166E+00
   1.59250000E+03   5.00000000E-01   5.00000000E-01   4.97585783E+00
   1.62750000E+03   5.00000000E-01   5.00000000E-01   4.94453827E+00
   1.66250000E+03   5.00000000E-01   5.00000000E-01   4.91415619E+00
   1.69750000E+03   5.00000000E-01   5.00000000E-01   4.88471338E+00
   1.73250000E+03   5.00000000E-01   5.00000000E-01   4.85621224E+00
   1.76750000E+03   5.00000000E-01   5.00000000E-01   4.82865848E+00
   1.80250000E+03   5.00000000E-01   5.00000000E-01   4.80205943E+00
   1.83750000E+03   5.00000000E-01   5.00000000E-01   4.77642321E+00
   1.87250000E+03   5.00000000E-01   5.00000000E-01   4.75175837E+00
   1.90750000E+03   5.00000000E-01   5.00000000E-01   4.72807290E+00
   1.94250000E+03   5.00000000E-01   5.00000000E-01   4.70537660E+00
   1.97750000E+03   5.00000000E-01   5.00000000E-01   4.68368233E+00
   2.01250000E+03   5.00000000E-01   5.00000000E-01   4.66300428E+00
   2.04750000E+03   5.00000000E-01   5.00000000E-01   4.64335607E+00
   2.08250000E+03   5.00000000E-01   5.00000000E-01   4.62474954E+00
   2.11750000E+03   5.00000000E-01   5.00000000E-01   4.60719471E+00
   2.15250000E+03   5.00000000E-01   5.00000000E-01   4.59069933E+00
   2.18750000E+03   5.00000000E-01   5.00000000E-01   4.57526795E+00
   2.22250000E+03   5.00000000E-01   5.00000000E-01   4.56090072E+00
   2.25750000E+03   5.00000000E-01   5.00000000E-01   4.54759202E+00
   2.29250000E+03   5.00000000E-01   5.00000000E-01   4.53532921E+00
   2.32750000E+03   5.00000000E-01   5.00000000E-01   4.52409148E+00
   2.36250000E+03   5.00000000E-01   5.00000000E-01   4.51384915E+00
   2.39750000E+03   5.00000000E-01   5.00000000E-01   4.50456347E+00
   2.43250000E+03   5.00000000E-01   5.00000000E-01   4.49618715E+00
   2.46750000E+03   5.00000000E-01   5.00000000E-01   4.48866580E+00
   2.50250000E+03   5.00000000E-01   5.00000000E-01   4.48193994E+00
   2.53750000E+03   5.00000000E-01   5.00000000E-01   4.47594740E+00
   2.57250000E+03   5.00000000E-01   5.00000000E-01   4.47062564E+00
   2.60750000E+03   5.00000000E-01   5.00000000E-01   4.46591308E+00
   2.64250000E+03   5.00000000E-01   5.00000000E-01   4.46174921E+00
   2.67750000E+03   5.00000000E-01   5.00000000E-01   4.45807306E+00
   2.71250000E+03   5.00000000E-01   5.00000000E-01   4.45482030E+00
   2.74750000E+03   5.00000000E-01   5.00000000E-01   4.45191971E+00
   2.78250000E+03   5.00000000E-01   5.00000000E-01   4.44929045E+00
   2.81750000E+03   5.00000000E-01   5.00000000E-01   4.44684181E+00
   2.85250000E+03   5.00000000E-01   5.00000000E-01   4.44447755E+00
   2.88750000E+03   5.00000000E-01   5.00000000E-01   4.44210602E+00
   2.92250000E+03   5.00000000E-01   5.00000000E-01   4.43965601E+00
   2.95750000E+03   5.00000000E-01   5.00000000E-01   4.43709529E+00
   2.99250000E+03   5.00000000E-01   5.00000000E-01   4.43444648E+00
   3.02750000E+03   5.00000000E-01   5.00000000E-01   4.43179370E+00
   3.06250000E+03   5.00000000E-01   5.00000000E-01   4.42927573E+00
   3.09750000E+03   5.00000000E-01   5.00000000E-01   4.42706621E+00
   3.13250000E+03   5.00000000E-01   5.00000000E-01   4.42534635E+00
   3.16750000E+03   5.00000000E-01   5.00000000E-01   4.42427820E+00
   3.20250000E+03   5.00000000E-01   5.00000000E-01   4.42398515E+00
   3.23750000E+03   5.00000000E-01   5.00000000E-01   4.42454267E+00
   3.27250000E+03   5.00000000E-01   5.00000000E-01   4.42597860E+00
   3.30750000E+03   5.00000000E-01   5.00000000E-01   4.42828005E+00
   3.34250000E+03   5.00000000E-01   5.00000000E-01   4.43140399E+00
   3.37750000E+03   5.00000000E-01   5.00000000E-01   4.43528877E+00
   3.41250000E+03   5.00000000E-01   5.00000000E-01   4.43986491E+00
   3.44750000E+03   5.00000000E-01   5.00000000E-01   4.44506378E+00
   3.48250000E+03   5.00000000E-01   5.00000000E-01   4.45157270E+00
