 TITLE = "Solution pH" 
 VARIABLES = "X"          "Y"              "Z"             "pH" 
 ZONE I=         100 , J=           1 , K=           1  F=POINT
   1.75000000E+01   5.00000000E-01   5.00000000E-01   7.77613875E+00
   5.25000000E+01   5.00000000E-01   5.00000000E-01   7.64642728E+00
   8.75000000E+01   5.00000000E-01   5.00000000E-01   7.56751257E+00
   1.22500000E+02   5.00000000E-01   5.00000000E-01   7.50176340E+00
   1.57500000E+02   5.00000000E-01   5.00000000E-01   7.44082088E+00
   1.92500000E+02   5.00000000E-01   5.00000000E-01   7.38218019E+00
   2.27500000E+02   5.00000000E-01   5.00000000E-01   7.32497094E+00
   2.62500000E+02   5.00000000E-01   5.00000000E-01   7.26886817E+00
   2.97500000E+02   5.00000000E-01   5.00000000E-01   7.21374400E+00
   3.32500000E+02   5.00000000E-01   5.00000000E-01   7.15954454E+00
   3.67500000E+02   5.00000000E-01   5.00000000E-01   7.10624403E+00
   4.02500000E+02   5.00000000E-01   5.00000000E-01   7.05382723E+00
   4.37500000E+02   5.00000000E-01   5.00000000E-01   7.00228251E+00
   4.72500000E+02   5.00000000E-01   5.00000000E-01   6.95159921E+00
   5.07500000E+02   5.00000000E-01   5.00000000E-01   6.90176659E+00
   5.42500000E+02   5.00000000E-01   5.00000000E-01   6.85277351E+00
   5.77500000E+02   5.00000000E-01   5.00000000E-01   6.80460831E+00
   6.12500000E+02   5.00000000E-01   5.00000000E-01   6.75725884E+00
   6.47500000E+02   5.00000000E-01   5.00000000E-01   6.71071246E+00
   6.82500000E+02   5.00000000E-01   5.00000000E-01   6.66495613E+00
   7.17500000E+02   5.00000000E-01   5.00000000E-01   6.61997647E+00
   7.52500000E+02   5.00000000E-01   5.00000000E-01   6.57575977E+00
   7.87500000E+02   5.00000000E-01   5.00000000E-01   6.53229209E+00
   8.22500000E+02   5.00000000E-01   5.00000000E-01   6.48955930E+00
   8.57500000E+02   5.00000000E-01   5.00000000E-01   6.44754716E+00
   8.92500000E+02   5.00000000E-01   5.00000000E-01   6.40624142E+00
   9.27500000E+02   5.00000000E-01   5.00000000E-01   6.36562785E+00
   9.62500000E+02   5.00000000E-01   5.00000000E-01   6.32569238E+00
   9.97500000E+02   5.00000000E-01   5.00000000E-01   6.28642114E+00
   1.03250000E+03   5.00000000E-01   5.00000000E-01   6.24780062E+00
   1.06750000E+03   5.00000000E-01   5.00000000E-01   6.20981773E+00
   1.10250000E+03   5.00000000E-01   5.00000000E-01   6.17245991E+00
   1.13750000E+03   5.00000000E-01   5.00000000E-01   6.13571524E+00
   1.17250000E+03   5.00000000E-01   5.00000000E-01   6.09957251E+00
   1.20750000E+03   5.00000000E-01   5.00000000E-01   6.06402127E+00
   1.24250000E+03   5.00000000E-01   5.00000000E-01   6.02905195E+00
   1.27750000E+03   5.00000000E-01   5.00000000E-01   5.99465581E+00
   1.31250000E+03   5.00000000E-01   5.00000000E-01   5.96082502E+00
   1.34750000E+03   5.00000000E-01   5.00000000E-01   5.92755264E+00
   1.38250000E+03   5.00000000E-01   5.00000000E-01   5.89483261E+00
   1.41750000E+03   5.00000000E-01   5.00000000E-01   5.86265966E+00
   1.45250000E+03   5.00000000E-01   5.00000000E-01   5.83102936E+00
   1.48750000E+03   5.00000000E-01   5.00000000E-01   5.79993797E+00
   1.52250000E+03   5.00000000E-01   5.00000000E-01   5.76938242E+00
   1.55750000E+03   5.00000000E-01   5.00000000E-01   5.73936026E+00
   1.59250000E+03   5.00000000E-01   5.00000000E-01   5.70986955E+00
   1.62750000E+03   5.00000000E-01   5.00000000E-01   5.68090887E+00
   1.66250000E+03   5.00000000E-01   5.00000000E-01   5.65247722E+00
   1.69750000E+03   5.00000000E-01   5.00000000E-01   5.62457403E+00
   1.73250000E+03   5.00000000E-01   5.00000000E-01   5.59719912E+00
   1.76750000E+03   5.00000000E-01   5.00000000E-01   5.57035268E+00
   1.80250000E+03   5.00000000E-01   5.00000000E-01   5.54403533E+00
   1.83750000E+03   5.00000000E-01   5.00000000E-01   5.51824809E+00
   1.87250000E+03   5.00000000E-01   5.00000000E-01   5.49299244E+00
   1.90750000E+03   5.00000000E-01   5.00000000E-01   5.46827038E+00
   1.94250000E+03   5.00000000E-01   5.00000000E-01   5.44408446E+00
   1.97750000E+03   5.00000000E-01   5.00000000E-01   5.42043788E+00
   2.01250000E+03   5.00000000E-01   5.00000000E-01   5.39733457E+00
   2.04750000E+03   5.00000000E-01   5.00000000E-01   5.37477928E+00
   2.08250000E+03   5.00000000E-01   5.00000000E-01   5.35277769E+00
   2.11750000E+03   5.00000000E-01   5.00000000E-01   5.33133656E+00
   2.15250000E+03   5.00000000E-01   5.00000000E-01   5.31046383E+00
   2.18750000E+03   5.00000000E-01   5.00000000E-01   5.29016885E+00
   2.22250000E+03   5.00000000E-01   5.00000000E-01   5.27046248E+00
   2.25750000E+03   5.00000000E-01   5.00000000E-01   5.25135739E+00
   2.29250000E+03   5.00000000E-01   5.00000000E-01   5.23286826E+00
   2.32750000E+03   5.00000000E-01   5.00000000E-01   5.21501211E+00
   2.36250000E+03   5.00000000E-01   5.00000000E-01   5.19780861E+00
   2.39750000E+03   5.00000000E-01   5.00000000E-01   5.18128053E+00
   2.43250000E+03   5.00000000E-01   5.00000000E-01   5.16545422E+00
   2.46750000E+03   5.00000000E-01   5.00000000E-01   5.15036022E+00
   2.50250000E+03   5.00000000E-01   5.00000000E-01   5.13603400E+00
   2.53750000E+03   5.00000000E-01   5.00000000E-01   5.12251682E+00
   2.57250000E+03   5.00000000E-01   5.00000000E-01   5.10985692E+00
   2.60750000E+03   5.00000000E-01   5.00000000E-01   5.09811086E+00
   2.64250000E+03   5.00000000E-01   5.00000000E-01   5.08734533E+00
   2.67750000E+03   5.00000000E-01   5.00000000E-01   5.07763941E+00
   2.71250000E+03   5.00000000E-01   5.00000000E-01   5.06908756E+00
   2.74750000E+03   5.00000000E-01   5.00000000E-01   5.06180341E+00
   2.78250000E+03   5.00000000E-01   5.00000000E-01   5.05592499E+00
   2.81750000E+03   5.00000000E-01   5.00000000E-01   5.05162168E+00
   2.85250000E+03   5.00000000E-01   5.00000000E-01   5.04910376E+00
   2.88750000E+03   5.00000000E-01   5.00000000E-01   5.04863585E+00
   2.92250000E+03   5.00000000E-01   5.00000000E-01   5.05055606E+00
   2.95750000E+03   5.00000000E-01   5.00000000E-01   5.05530338E+00
   2.99250000E+03   5.00000000E-01   5.00000000E-01   5.06345836E+00
   3.02750000E+03   5.00000000E-01   5.00000000E-01   5.07580324E+00
   3.06250000E+03   5.00000000E-01   5.00000000E-01   5.09340867E+00
   3.09750000E+03   5.00000000E-01   5.00000000E-01   5.11774748E+00
   3.13250000E+03   5.00000000E-01   5.00000000E-01   5.15078860E+00
   3.16750000E+03   5.00000000E-01   5.00000000E-01   5.19481856E+00
   3.20250000E+03   5.00000000E-01   5.00000000E-01   5.25117009E+00
   3.23750000E+03   5.00000000E-01   5.00000000E-01   5.31712194E+00
   3.27250000E+03   5.00000000E-01   5.00000000E-01   5.38557483E+00
   3.30750000E+03   5.00000000E-01   5.00000000E-01   5.45316188E+00
   3.34250000E+03   5.00000000E-01   5.00000000E-01   5.52404874E+00
   3.37750000E+03   5.00000000E-01   5.00000000E-01   5.60299831E+00
   3.41250000E+03   5.00000000E-01   5.00000000E-01   5.68879975E+00
   3.44750000E+03   5.00000000E-01   5.00000000E-01   5.77466645E+00
   3.48250000E+03   5.00000000E-01   5.00000000E-01   5.85515788E+00
