 TITLE = "Solution pH" 
 VARIABLES = "X"          "Y"              "Z"             "pH" 
 ZONE I=         100 , J=           1 , K=           1  F=POINT
   1.75000000E+01   5.00000000E-01   5.00000000E-01   7.77683162E+00
   5.25000000E+01   5.00000000E-01   5.00000000E-01   7.64672031E+00
   8.75000000E+01   5.00000000E-01   5.00000000E-01   7.56763843E+00
   1.22500000E+02   5.00000000E-01   5.00000000E-01   7.50180997E+00
   1.57500000E+02   5.00000000E-01   5.00000000E-01   7.44082312E+00
   1.92500000E+02   5.00000000E-01   5.00000000E-01   7.38215391E+00
   2.27500000E+02   5.00000000E-01   5.00000000E-01   7.32492301E+00
   2.62500000E+02   5.00000000E-01   5.00000000E-01   7.26880110E+00
   2.97500000E+02   5.00000000E-01   5.00000000E-01   7.21365825E+00
   3.32500000E+02   5.00000000E-01   5.00000000E-01   7.15943967E+00
   3.67500000E+02   5.00000000E-01   5.00000000E-01   7.10611928E+00
   4.02500000E+02   5.00000000E-01   5.00000000E-01   7.05368180E+00
   4.37500000E+02   5.00000000E-01   5.00000000E-01   7.00211562E+00
   4.72500000E+02   5.00000000E-01   5.00000000E-01   6.95141013E+00
   5.07500000E+02   5.00000000E-01   5.00000000E-01   6.90155467E+00
   5.42500000E+02   5.00000000E-01   5.00000000E-01   6.85253811E+00
   5.77500000E+02   5.00000000E-01   5.00000000E-01   6.80434884E+00
   6.12500000E+02   5.00000000E-01   5.00000000E-01   6.75697470E+00
   6.47500000E+02   5.00000000E-01   5.00000000E-01   6.71040305E+00
   6.82500000E+02   5.00000000E-01   5.00000000E-01   6.66462084E+00
   7.17500000E+02   5.00000000E-01   5.00000000E-01   6.61961462E+00
   7.52500000E+02   5.00000000E-01   5.00000000E-01   6.57537066E+00
   7.87500000E+02   5.00000000E-01   5.00000000E-01   6.53187495E+00
   8.22500000E+02   5.00000000E-01   5.00000000E-01   6.48911331E+00
   8.57500000E+02   5.00000000E-01   5.00000000E-01   6.44707142E+00
   8.92500000E+02   5.00000000E-01   5.00000000E-01   6.40573496E+00
   9.27500000E+02   5.00000000E-01   5.00000000E-01   6.36508963E+00
   9.62500000E+02   5.00000000E-01   5.00000000E-01   6.32512127E+00
   9.97500000E+02   5.00000000E-01   5.00000000E-01   6.28581592E+00
   1.03250000E+03   5.00000000E-01   5.00000000E-01   6.24715997E+00
   1.06750000E+03   5.00000000E-01   5.00000000E-01   6.20914023E+00
   1.10250000E+03   5.00000000E-01   5.00000000E-01   6.17174404E+00
   1.13750000E+03   5.00000000E-01   5.00000000E-01   6.13495940E+00
   1.17250000E+03   5.00000000E-01   5.00000000E-01   6.09877499E+00
   1.20750000E+03   5.00000000E-01   5.00000000E-01   6.06318029E+00
   1.24250000E+03   5.00000000E-01   5.00000000E-01   6.02816561E+00
   1.27750000E+03   5.00000000E-01   5.00000000E-01   5.99372215E+00
   1.31250000E+03   5.00000000E-01   5.00000000E-01   5.95984199E+00
   1.34750000E+03   5.00000000E-01   5.00000000E-01   5.92651811E+00
   1.38250000E+03   5.00000000E-01   5.00000000E-01   5.89374436E+00
   1.41750000E+03   5.00000000E-01   5.00000000E-01   5.86151542E+00
   1.45250000E+03   5.00000000E-01   5.00000000E-01   5.82982675E+00
   1.48750000E+03   5.00000000E-01   5.00000000E-01   5.79867454E+00
   1.52250000E+03   5.00000000E-01   5.00000000E-01   5.76805563E+00
   1.55750000E+03   5.00000000E-01   5.00000000E-01   5.73796746E+00
   1.59250000E+03   5.00000000E-01   5.00000000E-01   5.70840800E+00
   1.62750000E+03   5.00000000E-01   5.00000000E-01   5.67937569E+00
   1.66250000E+03   5.00000000E-01   5.00000000E-01   5.65086940E+00
   1.69750000E+03   5.00000000E-01   5.00000000E-01   5.62288840E+00
   1.73250000E+03   5.00000000E-01   5.00000000E-01   5.59543233E+00
   1.76750000E+03   5.00000000E-01   5.00000000E-01   5.56850120E+00
   1.80250000E+03   5.00000000E-01   5.00000000E-01   5.54209538E+00
   1.83750000E+03   5.00000000E-01   5.00000000E-01   5.51621564E+00
   1.87250000E+03   5.00000000E-01   5.00000000E-01   5.49086319E+00
   1.90750000E+03   5.00000000E-01   5.00000000E-01   5.46603968E+00
   1.94250000E+03   5.00000000E-01   5.00000000E-01   5.44174732E+00
   1.97750000E+03   5.00000000E-01   5.00000000E-01   5.41798890E+00
   2.01250000E+03   5.00000000E-01   5.00000000E-01   5.39476789E+00
   2.04750000E+03   5.00000000E-01   5.00000000E-01   5.37208853E+00
   2.08250000E+03   5.00000000E-01   5.00000000E-01   5.34995594E+00
   2.11750000E+03   5.00000000E-01   5.00000000E-01   5.32837622E+00
   2.15250000E+03   5.00000000E-01   5.00000000E-01   5.30735659E+00
   2.18750000E+03   5.00000000E-01   5.00000000E-01   5.28690557E+00
   2.22250000E+03   5.00000000E-01   5.00000000E-01   5.26703310E+00
   2.25750000E+03   5.00000000E-01   5.00000000E-01   5.24775078E+00
   2.29250000E+03   5.00000000E-01   5.00000000E-01   5.22907209E+00
   2.32750000E+03   5.00000000E-01   5.00000000E-01   5.21101265E+00
   2.36250000E+03   5.00000000E-01   5.00000000E-01   5.19359052E+00
   2.39750000E+03   5.00000000E-01   5.00000000E-01   5.17682663E+00
   2.43250000E+03   5.00000000E-01   5.00000000E-01   5.16074517E+00
   2.46750000E+03   5.00000000E-01   5.00000000E-01   5.14537413E+00
   2.50250000E+03   5.00000000E-01   5.00000000E-01   5.13074598E+00
   2.53750000E+03   5.00000000E-01   5.00000000E-01   5.11689847E+00
   2.57250000E+03   5.00000000E-01   5.00000000E-01   5.10387556E+00
   2.60750000E+03   5.00000000E-01   5.00000000E-01   5.09172871E+00
   2.64250000E+03   5.00000000E-01   5.00000000E-01   5.08051839E+00
   2.67750000E+03   5.00000000E-01   5.00000000E-01   5.07031602E+00
   2.71250000E+03   5.00000000E-01   5.00000000E-01   5.06120656E+00
   2.74750000E+03   5.00000000E-01   5.00000000E-01   5.05329174E+00
   2.78250000E+03   5.00000000E-01   5.00000000E-01   5.04669444E+00
   2.81750000E+03   5.00000000E-01   5.00000000E-01   5.04156450E+00
   2.85250000E+03   5.00000000E-01   5.00000000E-01   5.03808668E+00
   2.88750000E+03   5.00000000E-01   5.00000000E-01   5.03649162E+00
   2.92250000E+03   5.00000000E-01   5.00000000E-01   5.03707135E+00
   2.95750000E+03   5.00000000E-01   5.00000000E-01   5.04020162E+00
   2.99250000E+03   5.00000000E-01   5.00000000E-01   5.04637420E+00
   3.02750000E+03   5.00000000E-01   5.00000000E-01   5.05624503E+00
   3.06250000E+03   5.00000000E-01   5.00000000E-01   5.07070552E+00
   3.09750000E+03   5.00000000E-01   5.00000000E-01   5.09098363E+00
   3.13250000E+03   5.00000000E-01   5.00000000E-01   5.11876625E+00
   3.16750000E+03   5.00000000E-01   5.00000000E-01   5.15624483E+00
   3.20250000E+03   5.00000000E-01   5.00000000E-01   5.20564136E+00
   3.23750000E+03   5.00000000E-01   5.00000000E-01   5.26709334E+00
   3.27250000E+03   5.00000000E-01   5.00000000E-01   5.33542001E+00
   3.30750000E+03   5.00000000E-01   5.00000000E-01   5.40343108E+00
   3.34250000E+03   5.00000000E-01   5.00000000E-01   5.47099601E+00
   3.37750000E+03   5.00000000E-01   5.00000000E-01   5.54377173E+00
   3.41250000E+03   5.00000000E-01   5.00000000E-01   5.62486609E+00
   3.44750000E+03   5.00000000E-01   5.00000000E-01   5.71071390E+00
   3.48250000E+03   5.00000000E-01   5.00000000E-01   5.79488087E+00
