 TITLE = "Solution pH" 
 VARIABLES = "X"          "Y"              "Z"             "pH" 
 ZONE I=         200 , J=           1 , K=           1  F=POINT
   8.75000000E+00   5.00000000E-01   5.00000000E-01   7.93284761E+00
   2.62500000E+01   5.00000000E-01   5.00000000E-01   7.70266372E+00
   4.37500000E+01   5.00000000E-01   5.00000000E-01   7.57732151E+00
   6.12500000E+01   5.00000000E-01   5.00000000E-01   7.48942248E+00
   7.87500000E+01   5.00000000E-01   5.00000000E-01   7.41750330E+00
   9.62500000E+01   5.00000000E-01   5.00000000E-01   7.35550179E+00
   1.13750000E+02   5.00000000E-01   5.00000000E-01   7.30063535E+00
   1.31250000E+02   5.00000000E-01   5.00000000E-01   7.25079893E+00
   1.48750000E+02   5.00000000E-01   5.00000000E-01   7.20443261E+00
   1.66250000E+02   5.00000000E-01   5.00000000E-01   7.16046937E+00
   1.83750000E+02   5.00000000E-01   5.00000000E-01   7.11820871E+00
   2.01250000E+02   5.00000000E-01   5.00000000E-01   7.07719870E+00
   2.18750000E+02   5.00000000E-01   5.00000000E-01   7.03714971E+00
   2.36250000E+02   5.00000000E-01   5.00000000E-01   6.99787643E+00
   2.53750000E+02   5.00000000E-01   5.00000000E-01   6.95926036E+00
   2.71250000E+02   5.00000000E-01   5.00000000E-01   6.92122586E+00
   2.88750000E+02   5.00000000E-01   5.00000000E-01   6.88372487E+00
   3.06250000E+02   5.00000000E-01   5.00000000E-01   6.84672706E+00
   3.23750000E+02   5.00000000E-01   5.00000000E-01   6.81021347E+00
   3.41250000E+02   5.00000000E-01   5.00000000E-01   6.77417218E+00
   3.58750000E+02   5.00000000E-01   5.00000000E-01   6.73859543E+00
   3.76250000E+02   5.00000000E-01   5.00000000E-01   6.70347748E+00
   3.93750000E+02   5.00000000E-01   5.00000000E-01   6.66881332E+00
   4.11250000E+02   5.00000000E-01   5.00000000E-01   6.63459791E+00
   4.28750000E+02   5.00000000E-01   5.00000000E-01   6.60082583E+00
   4.46250000E+02   5.00000000E-01   5.00000000E-01   6.56749150E+00
   4.63750000E+02   5.00000000E-01   5.00000000E-01   6.53458929E+00
   4.81250000E+02   5.00000000E-01   5.00000000E-01   6.50211375E+00
   4.98750000E+02   5.00000000E-01   5.00000000E-01   6.47005956E+00
   5.16250000E+02   5.00000000E-01   5.00000000E-01   6.43842137E+00
   5.33750000E+02   5.00000000E-01   5.00000000E-01   6.40719344E+00
   5.51250000E+02   5.00000000E-01   5.00000000E-01   6.37636950E+00
   5.68750000E+02   5.00000000E-01   5.00000000E-01   6.34594264E+00
   5.86250000E+02   5.00000000E-01   5.00000000E-01   6.31590554E+00
   6.03750000E+02   5.00000000E-01   5.00000000E-01   6.28625083E+00
   6.21250000E+02   5.00000000E-01   5.00000000E-01   6.25697157E+00
   6.38750000E+02   5.00000000E-01   5.00000000E-01   6.22806156E+00
   6.56250000E+02   5.00000000E-01   5.00000000E-01   6.19951552E+00
   6.73750000E+02   5.00000000E-01   5.00000000E-01   6.17132903E+00
   6.91250000E+02   5.00000000E-01   5.00000000E-01   6.14349829E+00
   7.08750000E+02   5.00000000E-01   5.00000000E-01   6.11601978E+00
   7.26250000E+02   5.00000000E-01   5.00000000E-01   6.08889002E+00
   7.43750000E+02   5.00000000E-01   5.00000000E-01   6.06210549E+00
   7.61250000E+02   5.00000000E-01   5.00000000E-01   6.03566286E+00
   7.78750000E+02   5.00000000E-01   5.00000000E-01   6.00955939E+00
   7.96250000E+02   5.00000000E-01   5.00000000E-01   5.98379350E+00
   8.13750000E+02   5.00000000E-01   5.00000000E-01   5.95836520E+00
   8.31250000E+02   5.00000000E-01   5.00000000E-01   5.93327639E+00
   8.48750000E+02   5.00000000E-01   5.00000000E-01   5.90853077E+00
   8.66250000E+02   5.00000000E-01   5.00000000E-01   5.88413350E+00
   8.83750000E+02   5.00000000E-01   5.00000000E-01   5.86009067E+00
   9.01250000E+02   5.00000000E-01   5.00000000E-01   5.83640864E+00
   9.18750000E+02   5.00000000E-01   5.00000000E-01   5.81309346E+00
   9.36250000E+02   5.00000000E-01   5.00000000E-01   5.79015039E+00
   9.53750000E+02   5.00000000E-01   5.00000000E-01   5.76758350E+00
   9.71250000E+02   5.00000000E-01   5.00000000E-01   5.74539544E+00
   9.88750000E+02   5.00000000E-01   5.00000000E-01   5.72358732E+00
   1.00625000E+03   5.00000000E-01   5.00000000E-01   5.70215868E+00
   1.02375000E+03   5.00000000E-01   5.00000000E-01   5.68110761E+00
   1.04125000E+03   5.00000000E-01   5.00000000E-01   5.66043086E+00
   1.05875000E+03   5.00000000E-01   5.00000000E-01   5.64012400E+00
   1.07625000E+03   5.00000000E-01   5.00000000E-01   5.62018164E+00
   1.09375000E+03   5.00000000E-01   5.00000000E-01   5.60059741E+00
   1.11125000E+03   5.00000000E-01   5.00000000E-01   5.58136387E+00
   1.12875000E+03   5.00000000E-01   5.00000000E-01   5.56247215E+00
   1.14625000E+03   5.00000000E-01   5.00000000E-01   5.54391136E+00
   1.16375000E+03   5.00000000E-01   5.00000000E-01   5.52566785E+00
   1.18125000E+03   5.00000000E-01   5.00000000E-01   5.50772448E+00
   1.19875000E+03   5.00000000E-01   5.00000000E-01   5.49005987E+00
   1.21625000E+03   5.00000000E-01   5.00000000E-01   5.47264803E+00
   1.23375000E+03   5.00000000E-01   5.00000000E-01   5.45545820E+00
   1.25125000E+03   5.00000000E-01   5.00000000E-01   5.43845500E+00
   1.26875000E+03   5.00000000E-01   5.00000000E-01   5.42159879E+00
   1.28625000E+03   5.00000000E-01   5.00000000E-01   5.40484610E+00
   1.30375000E+03   5.00000000E-01   5.00000000E-01   5.38814945E+00
   1.32125000E+03   5.00000000E-01   5.00000000E-01   5.37145550E+00
   1.33875000E+03   5.00000000E-01   5.00000000E-01   5.35469988E+00
   1.35625000E+03   5.00000000E-01   5.00000000E-01   5.33779749E+00
   1.37375000E+03   5.00000000E-01   5.00000000E-01   5.32063465E+00
   1.39125000E+03   5.00000000E-01   5.00000000E-01   5.30308905E+00
   1.40875000E+03   5.00000000E-01   5.00000000E-01   5.28511248E+00
   1.42625000E+03   5.00000000E-01   5.00000000E-01   5.26682902E+00
   1.44375000E+03   5.00000000E-01   5.00000000E-01   5.24850028E+00
   1.46125000E+03   5.00000000E-01   5.00000000E-01   5.23036355E+00
   1.47875000E+03   5.00000000E-01   5.00000000E-01   5.21253392E+00
   1.49625000E+03   5.00000000E-01   5.00000000E-01   5.19502570E+00
   1.51375000E+03   5.00000000E-01   5.00000000E-01   5.17780913E+00
   1.53125000E+03   5.00000000E-01   5.00000000E-01   5.16084719E+00
   1.54875000E+03   5.00000000E-01   5.00000000E-01   5.14410897E+00
   1.56625000E+03   5.00000000E-01   5.00000000E-01   5.12757216E+00
   1.58375000E+03   5.00000000E-01   5.00000000E-01   5.11122237E+00
   1.60125000E+03   5.00000000E-01   5.00000000E-01   5.09505210E+00
   1.61875000E+03   5.00000000E-01   5.00000000E-01   5.07906044E+00
   1.63625000E+03   5.00000000E-01   5.00000000E-01   5.06325277E+00
   1.65375000E+03   5.00000000E-01   5.00000000E-01   5.04763850E+00
   1.67125000E+03   5.00000000E-01   5.00000000E-01   5.03222634E+00
   1.68875000E+03   5.00000000E-01   5.00000000E-01   5.01702008E+00
   1.70625000E+03   5.00000000E-01   5.00000000E-01   5.00201793E+00
   1.72375000E+03   5.00000000E-01   5.00000000E-01   4.98721426E+00
   1.74125000E+03   5.00000000E-01   5.00000000E-01   4.97260236E+00
   1.75875000E+03   5.00000000E-01   5.00000000E-01   4.95817726E+00
   1.77625000E+03   5.00000000E-01   5.00000000E-01   4.94393886E+00
   1.79375000E+03   5.00000000E-01   5.00000000E-01   4.92989331E+00
   1.81125000E+03   5.00000000E-01   5.00000000E-01   4.91605033E+00
   1.82875000E+03   5.00000000E-01   5.00000000E-01   4.90241715E+00
   1.84625000E+03   5.00000000E-01   5.00000000E-01   4.88899380E+00
   1.86375000E+03   5.00000000E-01   5.00000000E-01   4.87577320E+00
   1.88125000E+03   5.00000000E-01   5.00000000E-01   4.86274492E+00
   1.89875000E+03   5.00000000E-01   5.00000000E-01   4.84989905E+00
   1.91625000E+03   5.00000000E-01   5.00000000E-01   4.83722805E+00
   1.93375000E+03   5.00000000E-01   5.00000000E-01   4.82472634E+00
   1.95125000E+03   5.00000000E-01   5.00000000E-01   4.81238910E+00
   1.96875000E+03   5.00000000E-01   5.00000000E-01   4.80021133E+00
   1.98625000E+03   5.00000000E-01   5.00000000E-01   4.78818746E+00
   2.00375000E+03   5.00000000E-01   5.00000000E-01   4.77631148E+00
   2.02125000E+03   5.00000000E-01   5.00000000E-01   4.76457727E+00
   2.03875000E+03   5.00000000E-01   5.00000000E-01   4.75297946E+00
   2.05625000E+03   5.00000000E-01   5.00000000E-01   4.74151445E+00
   2.07375000E+03   5.00000000E-01   5.00000000E-01   4.73018150E+00
   2.09125000E+03   5.00000000E-01   5.00000000E-01   4.71898298E+00
   2.10875000E+03   5.00000000E-01   5.00000000E-01   4.70792333E+00
   2.12625000E+03   5.00000000E-01   5.00000000E-01   4.69700689E+00
   2.14375000E+03   5.00000000E-01   5.00000000E-01   4.68623525E+00
   2.16125000E+03   5.00000000E-01   5.00000000E-01   4.67560560E+00
   2.17875000E+03   5.00000000E-01   5.00000000E-01   4.66511058E+00
   2.19625000E+03   5.00000000E-01   5.00000000E-01   4.65473974E+00
   2.21375000E+03   5.00000000E-01   5.00000000E-01   4.64448180E+00
   2.23125000E+03   5.00000000E-01   5.00000000E-01   4.63432693E+00
   2.24875000E+03   5.00000000E-01   5.00000000E-01   4.62426841E+00
   2.26625000E+03   5.00000000E-01   5.00000000E-01   4.61430346E+00
   2.28375000E+03   5.00000000E-01   5.00000000E-01   4.60443320E+00
   2.30125000E+03   5.00000000E-01   5.00000000E-01   4.59466149E+00
   2.31875000E+03   5.00000000E-01   5.00000000E-01   4.58499316E+00
   2.33625000E+03   5.00000000E-01   5.00000000E-01   4.57543216E+00
   2.35375000E+03   5.00000000E-01   5.00000000E-01   4.56598044E+00
   2.37125000E+03   5.00000000E-01   5.00000000E-01   4.55663804E+00
   2.38875000E+03   5.00000000E-01   5.00000000E-01   4.54740401E+00
   2.40625000E+03   5.00000000E-01   5.00000000E-01   4.53827753E+00
   2.42375000E+03   5.00000000E-01   5.00000000E-01   4.52925880E+00
   2.44125000E+03   5.00000000E-01   5.00000000E-01   4.52034941E+00
   2.45875000E+03   5.00000000E-01   5.00000000E-01   4.51155228E+00
   2.47625000E+03   5.00000000E-01   5.00000000E-01   4.50287132E+00
   2.49375000E+03   5.00000000E-01   5.00000000E-01   4.49431091E+00
   2.51125000E+03   5.00000000E-01   5.00000000E-01   4.48587547E+00
   2.52875000E+03   5.00000000E-01   5.00000000E-01   4.47756923E+00
   2.54625000E+03   5.00000000E-01   5.00000000E-01   4.46939626E+00
   2.56375000E+03   5.00000000E-01   5.00000000E-01   4.46136068E+00
   2.58125000E+03   5.00000000E-01   5.00000000E-01   4.45346694E+00
   2.59875000E+03   5.00000000E-01   5.00000000E-01   4.44572002E+00
   2.61625000E+03   5.00000000E-01   5.00000000E-01   4.43812556E+00
   2.63375000E+03   5.00000000E-01   5.00000000E-01   4.43068987E+00
   2.65125000E+03   5.00000000E-01   5.00000000E-01   4.42341988E+00
   2.66875000E+03   5.00000000E-01   5.00000000E-01   4.41632306E+00
   2.68625000E+03   5.00000000E-01   5.00000000E-01   4.40940723E+00
   2.70375000E+03   5.00000000E-01   5.00000000E-01   4.40268045E+00
   2.72125000E+03   5.00000000E-01   5.00000000E-01   4.39615089E+00
   2.73875000E+03   5.00000000E-01   5.00000000E-01   4.38982678E+00
   2.75625000E+03   5.00000000E-01   5.00000000E-01   4.38371647E+00
   2.77375000E+03   5.00000000E-01   5.00000000E-01   4.37782866E+00
   2.79125000E+03   5.00000000E-01   5.00000000E-01   4.37217267E+00
   2.80875000E+03   5.00000000E-01   5.00000000E-01   4.36675871E+00
   2.82625000E+03   5.00000000E-01   5.00000000E-01   4.36159818E+00
   2.84375000E+03   5.00000000E-01   5.00000000E-01   4.35670379E+00
   2.86125000E+03   5.00000000E-01   5.00000000E-01   4.35208964E+00
   2.87875000E+03   5.00000000E-01   5.00000000E-01   4.34777124E+00
   2.89625000E+03   5.00000000E-01   5.00000000E-01   4.34376550E+00
   2.91375000E+03   5.00000000E-01   5.00000000E-01   4.34009076E+00
   2.93125000E+03   5.00000000E-01   5.00000000E-01   4.33676691E+00
   2.94875000E+03   5.00000000E-01   5.00000000E-01   4.33381562E+00
   2.96625000E+03   5.00000000E-01   5.00000000E-01   4.33126072E+00
   2.98375000E+03   5.00000000E-01   5.00000000E-01   4.32912869E+00
   3.00125000E+03   5.00000000E-01   5.00000000E-01   4.32744929E+00
   3.01875000E+03   5.00000000E-01   5.00000000E-01   4.32625628E+00
   3.03625000E+03   5.00000000E-01   5.00000000E-01   4.32558822E+00
   3.05375000E+03   5.00000000E-01   5.00000000E-01   4.32548943E+00
   3.07125000E+03   5.00000000E-01   5.00000000E-01   4.32601106E+00
   3.08875000E+03   5.00000000E-01   5.00000000E-01   4.32721243E+00
   3.10625000E+03   5.00000000E-01   5.00000000E-01   4.32916279E+00
   3.12375000E+03   5.00000000E-01   5.00000000E-01   4.33194346E+00
   3.14125000E+03   5.00000000E-01   5.00000000E-01   4.33565068E+00
   3.15875000E+03   5.00000000E-01   5.00000000E-01   4.34039916E+00
   3.17625000E+03   5.00000000E-01   5.00000000E-01   4.34632675E+00
   3.19375000E+03   5.00000000E-01   5.00000000E-01   4.35360029E+00
   3.21125000E+03   5.00000000E-01   5.00000000E-01   4.36242295E+00
   3.22875000E+03   5.00000000E-01   5.00000000E-01   4.37304318E+00
   3.24625000E+03   5.00000000E-01   5.00000000E-01   4.38576443E+00
   3.26375000E+03   5.00000000E-01   5.00000000E-01   4.40095309E+00
   3.28125000E+03   5.00000000E-01   5.00000000E-01   4.41903677E+00
   3.29875000E+03   5.00000000E-01   5.00000000E-01   4.44047234E+00
   3.31625000E+03   5.00000000E-01   5.00000000E-01   4.46563758E+00
   3.33375000E+03   5.00000000E-01   5.00000000E-01   4.49455994E+00
   3.35125000E+03   5.00000000E-01   5.00000000E-01   4.52639007E+00
   3.36875000E+03   5.00000000E-01   5.00000000E-01   4.55878929E+00
   3.38625000E+03   5.00000000E-01   5.00000000E-01   4.58814325E+00
   3.40375000E+03   5.00000000E-01   5.00000000E-01   4.61141858E+00
   3.42125000E+03   5.00000000E-01   5.00000000E-01   4.62800499E+00
   3.43875000E+03   5.00000000E-01   5.00000000E-01   4.63934631E+00
   3.45625000E+03   5.00000000E-01   5.00000000E-01   4.64738334E+00
   3.47375000E+03   5.00000000E-01   5.00000000E-01   4.65361531E+00
   3.49125000E+03   5.00000000E-01   5.00000000E-01   4.65941592E+00
