 TITLE = "Solution pH" 
 VARIABLES = "X"          "Y"              "Z"             "pH" 
 ZONE I=         100 , J=           1 , K=           1  F=POINT
   1.75000000E+01   5.00000000E-01   5.00000000E-01   7.63663231E+00
   5.25000000E+01   5.00000000E-01   5.00000000E-01   7.50966864E+00
   8.75000000E+01   5.00000000E-01   5.00000000E-01   7.41098902E+00
   1.22500000E+02   5.00000000E-01   5.00000000E-01   7.31797605E+00
   1.57500000E+02   5.00000000E-01   5.00000000E-01   7.22795961E+00
   1.92500000E+02   5.00000000E-01   5.00000000E-01   7.14069786E+00
   2.27500000E+02   5.00000000E-01   5.00000000E-01   7.05609343E+00
   2.62500000E+02   5.00000000E-01   5.00000000E-01   6.97400242E+00
   2.97500000E+02   5.00000000E-01   5.00000000E-01   6.89426767E+00
   3.32500000E+02   5.00000000E-01   5.00000000E-01   6.81674347E+00
   3.67500000E+02   5.00000000E-01   5.00000000E-01   6.74130280E+00
   4.02500000E+02   5.00000000E-01   5.00000000E-01   6.66783651E+00
   4.37500000E+02   5.00000000E-01   5.00000000E-01   6.59625037E+00
   4.72500000E+02   5.00000000E-01   5.00000000E-01   6.52646181E+00
   5.07500000E+02   5.00000000E-01   5.00000000E-01   6.45839714E+00
   5.42500000E+02   5.00000000E-01   5.00000000E-01   6.39198948E+00
   5.77500000E+02   5.00000000E-01   5.00000000E-01   6.32717731E+00
   6.12500000E+02   5.00000000E-01   5.00000000E-01   6.26390353E+00
   6.47500000E+02   5.00000000E-01   5.00000000E-01   6.20211497E+00
   6.82500000E+02   5.00000000E-01   5.00000000E-01   6.14176217E+00
   7.17500000E+02   5.00000000E-01   5.00000000E-01   6.08279933E+00
   7.52500000E+02   5.00000000E-01   5.00000000E-01   6.02518440E+00
   7.87500000E+02   5.00000000E-01   5.00000000E-01   5.96887907E+00
   8.22500000E+02   5.00000000E-01   5.00000000E-01   5.91384878E+00
   8.57500000E+02   5.00000000E-01   5.00000000E-01   5.86006259E+00
   8.92500000E+02   5.00000000E-01   5.00000000E-01   5.80749292E+00
   9.27500000E+02   5.00000000E-01   5.00000000E-01   5.75611529E+00
   9.62500000E+02   5.00000000E-01   5.00000000E-01   5.70590784E+00
   9.97500000E+02   5.00000000E-01   5.00000000E-01   5.65685096E+00
   1.03250000E+03   5.00000000E-01   5.00000000E-01   5.60892682E+00
   1.06750000E+03   5.00000000E-01   5.00000000E-01   5.56211906E+00
   1.10250000E+03   5.00000000E-01   5.00000000E-01   5.51641243E+00
   1.13750000E+03   5.00000000E-01   5.00000000E-01   5.47179265E+00
   1.17250000E+03   5.00000000E-01   5.00000000E-01   5.42824621E+00
   1.20750000E+03   5.00000000E-01   5.00000000E-01   5.38576031E+00
   1.24250000E+03   5.00000000E-01   5.00000000E-01   5.34432268E+00
   1.27750000E+03   5.00000000E-01   5.00000000E-01   5.30392169E+00
   1.31250000E+03   5.00000000E-01   5.00000000E-01   5.26454649E+00
   1.34750000E+03   5.00000000E-01   5.00000000E-01   5.22618717E+00
   1.38250000E+03   5.00000000E-01   5.00000000E-01   5.18883486E+00
   1.41750000E+03   5.00000000E-01   5.00000000E-01   5.15248144E+00
   1.45250000E+03   5.00000000E-01   5.00000000E-01   5.11711829E+00
   1.48750000E+03   5.00000000E-01   5.00000000E-01   5.08273914E+00
   1.52250000E+03   5.00000000E-01   5.00000000E-01   5.04934068E+00
   1.55750000E+03   5.00000000E-01   5.00000000E-01   5.01691916E+00
   1.59250000E+03   5.00000000E-01   5.00000000E-01   4.98546962E+00
   1.62750000E+03   5.00000000E-01   5.00000000E-01   4.95499108E+00
   1.66250000E+03   5.00000000E-01   5.00000000E-01   4.92548526E+00
   1.69750000E+03   5.00000000E-01   5.00000000E-01   4.89695363E+00
   1.73250000E+03   5.00000000E-01   5.00000000E-01   4.86939867E+00
   1.76750000E+03   5.00000000E-01   5.00000000E-01   4.84282534E+00
   1.80250000E+03   5.00000000E-01   5.00000000E-01   4.81724010E+00
   1.83750000E+03   5.00000000E-01   5.00000000E-01   4.79265028E+00
   1.87250000E+03   5.00000000E-01   5.00000000E-01   4.76906378E+00
   1.90750000E+03   5.00000000E-01   5.00000000E-01   4.74648851E+00
   1.94250000E+03   5.00000000E-01   5.00000000E-01   4.72493367E+00
   1.97750000E+03   5.00000000E-01   5.00000000E-01   4.70441009E+00
   2.01250000E+03   5.00000000E-01   5.00000000E-01   4.68492867E+00
   2.04750000E+03   5.00000000E-01   5.00000000E-01   4.66649873E+00
   2.08250000E+03   5.00000000E-01   5.00000000E-01   4.64912699E+00
   2.11750000E+03   5.00000000E-01   5.00000000E-01   4.63281691E+00
   2.15250000E+03   5.00000000E-01   5.00000000E-01   4.61756754E+00
   2.18750000E+03   5.00000000E-01   5.00000000E-01   4.60337159E+00
   2.22250000E+03   5.00000000E-01   5.00000000E-01   4.59021230E+00
   2.25750000E+03   5.00000000E-01   5.00000000E-01   4.57805824E+00
   2.29250000E+03   5.00000000E-01   5.00000000E-01   4.56685409E+00
   2.32750000E+03   5.00000000E-01   5.00000000E-01   4.55650421E+00
   2.36250000E+03   5.00000000E-01   5.00000000E-01   4.54684642E+00
   2.39750000E+03   5.00000000E-01   5.00000000E-01   4.53762123E+00
   2.43250000E+03   5.00000000E-01   5.00000000E-01   4.52847091E+00
   2.46750000E+03   5.00000000E-01   5.00000000E-01   4.51904564E+00
   2.50250000E+03   5.00000000E-01   5.00000000E-01   4.50925641E+00
   2.53750000E+03   5.00000000E-01   5.00000000E-01   4.49948812E+00
   2.57250000E+03   5.00000000E-01   5.00000000E-01   4.49046626E+00
   2.60750000E+03   5.00000000E-01   5.00000000E-01   4.48285011E+00
   2.64250000E+03   5.00000000E-01   5.00000000E-01   4.47694780E+00
   2.67750000E+03   5.00000000E-01   5.00000000E-01   4.47270567E+00
   2.71250000E+03   5.00000000E-01   5.00000000E-01   4.46984512E+00
   2.74750000E+03   5.00000000E-01   5.00000000E-01   4.46801508E+00
   2.78250000E+03   5.00000000E-01   5.00000000E-01   4.46690029E+00
   2.81750000E+03   5.00000000E-01   5.00000000E-01   4.46627148E+00
   2.85250000E+03   5.00000000E-01   5.00000000E-01   4.46598994E+00
   2.88750000E+03   5.00000000E-01   5.00000000E-01   4.46598765E+00
   2.92250000E+03   5.00000000E-01   5.00000000E-01   4.46624156E+00
   2.95750000E+03   5.00000000E-01   5.00000000E-01   4.46675271E+00
   2.99250000E+03   5.00000000E-01   5.00000000E-01   4.46753375E+00
   3.02750000E+03   5.00000000E-01   5.00000000E-01   4.46860275E+00
   3.06250000E+03   5.00000000E-01   5.00000000E-01   4.46998001E+00
   3.09750000E+03   5.00000000E-01   5.00000000E-01   4.47168575E+00
   3.13250000E+03   5.00000000E-01   5.00000000E-01   4.47373827E+00
   3.16750000E+03   5.00000000E-01   5.00000000E-01   4.47615262E+00
   3.20250000E+03   5.00000000E-01   5.00000000E-01   4.47894018E+00
   3.23750000E+03   5.00000000E-01   5.00000000E-01   4.48210884E+00
   3.27250000E+03   5.00000000E-01   5.00000000E-01   4.48566360E+00
   3.30750000E+03   5.00000000E-01   5.00000000E-01   4.48960732E+00
   3.34250000E+03   5.00000000E-01   5.00000000E-01   4.49394130E+00
   3.37750000E+03   5.00000000E-01   5.00000000E-01   4.49866562E+00
   3.41250000E+03   5.00000000E-01   5.00000000E-01   4.50377925E+00
   3.44750000E+03   5.00000000E-01   5.00000000E-01   4.50928019E+00
   3.48250000E+03   5.00000000E-01   5.00000000E-01   4.51569738E+00
