 TITLE = "Solution pH" 
 VARIABLES = "X"          "Y"              "Z"             "pH" 
 ZONE I=         100 , J=           1 , K=           1  F=POINT
   1.75000000E+01   5.00000000E-01   5.00000000E-01   7.84832864E+00
   5.25000000E+01   5.00000000E-01   5.00000000E-01   7.70112629E+00
   8.75000000E+01   5.00000000E-01   5.00000000E-01   7.59646517E+00
   1.22500000E+02   5.00000000E-01   5.00000000E-01   7.50348974E+00
   1.57500000E+02   5.00000000E-01   5.00000000E-01   7.41481668E+00
   1.92500000E+02   5.00000000E-01   5.00000000E-01   7.32222745E+00
   2.27500000E+02   5.00000000E-01   5.00000000E-01   7.21603007E+00
   2.62500000E+02   5.00000000E-01   5.00000000E-01   7.12383900E+00
   2.97500000E+02   5.00000000E-01   5.00000000E-01   7.04384888E+00
   3.32500000E+02   5.00000000E-01   5.00000000E-01   6.96851051E+00
   3.67500000E+02   5.00000000E-01   5.00000000E-01   6.89591092E+00
   4.02500000E+02   5.00000000E-01   5.00000000E-01   6.82547809E+00
   4.37500000E+02   5.00000000E-01   5.00000000E-01   6.75696959E+00
   4.72500000E+02   5.00000000E-01   5.00000000E-01   6.69025125E+00
   5.07500000E+02   5.00000000E-01   5.00000000E-01   6.62523476E+00
   5.42500000E+02   5.00000000E-01   5.00000000E-01   6.56185503E+00
   5.77500000E+02   5.00000000E-01   5.00000000E-01   6.50006003E+00
   6.12500000E+02   5.00000000E-01   5.00000000E-01   6.43980570E+00
   6.47500000E+02   5.00000000E-01   5.00000000E-01   6.38105302E+00
   6.82500000E+02   5.00000000E-01   5.00000000E-01   6.32376643E+00
   7.17500000E+02   5.00000000E-01   5.00000000E-01   6.26791283E+00
   7.52500000E+02   5.00000000E-01   5.00000000E-01   6.21346116E+00
   7.87500000E+02   5.00000000E-01   5.00000000E-01   6.16038210E+00
   8.22500000E+02   5.00000000E-01   5.00000000E-01   6.10864798E+00
   8.57500000E+02   5.00000000E-01   5.00000000E-01   6.05823280E+00
   8.92500000E+02   5.00000000E-01   5.00000000E-01   6.00911233E+00
   9.27500000E+02   5.00000000E-01   5.00000000E-01   5.96126415E+00
   9.62500000E+02   5.00000000E-01   5.00000000E-01   5.91466789E+00
   9.97500000E+02   5.00000000E-01   5.00000000E-01   5.86930531E+00
   1.03250000E+03   5.00000000E-01   5.00000000E-01   5.82516051E+00
   1.06750000E+03   5.00000000E-01   5.00000000E-01   5.78222004E+00
   1.10250000E+03   5.00000000E-01   5.00000000E-01   5.74047306E+00
   1.13750000E+03   5.00000000E-01   5.00000000E-01   5.56022110E+00
   1.17250000E+03   5.00000000E-01   5.00000000E-01   5.57263578E+00
   1.20750000E+03   5.00000000E-01   5.00000000E-01   5.55938767E+00
   1.24250000E+03   5.00000000E-01   5.00000000E-01   5.53726944E+00
   1.27750000E+03   5.00000000E-01   5.00000000E-01   5.51164899E+00
   1.31250000E+03   5.00000000E-01   5.00000000E-01   5.48481940E+00
   1.34750000E+03   5.00000000E-01   5.00000000E-01   5.45824292E+00
   1.38250000E+03   5.00000000E-01   5.00000000E-01   5.35033079E+00
   1.41750000E+03   5.00000000E-01   5.00000000E-01   5.33986585E+00
   1.45250000E+03   5.00000000E-01   5.00000000E-01   5.33598656E+00
   1.48750000E+03   5.00000000E-01   5.00000000E-01   5.32874816E+00
   1.52250000E+03   5.00000000E-01   5.00000000E-01   5.31658015E+00
   1.55750000E+03   5.00000000E-01   5.00000000E-01   5.30395915E+00
   1.59250000E+03   5.00000000E-01   5.00000000E-01   5.29225502E+00
   1.62750000E+03   5.00000000E-01   5.00000000E-01   5.28150032E+00
   1.66250000E+03   5.00000000E-01   5.00000000E-01   5.27475523E+00
   1.69750000E+03   5.00000000E-01   5.00000000E-01   5.28057374E+00
   1.73250000E+03   5.00000000E-01   5.00000000E-01   5.29344344E+00
   1.76750000E+03   5.00000000E-01   5.00000000E-01   5.30892146E+00
   1.80250000E+03   5.00000000E-01   5.00000000E-01   5.34393617E+00
   1.83750000E+03   5.00000000E-01   5.00000000E-01   5.40610815E+00
   1.87250000E+03   5.00000000E-01   5.00000000E-01   5.50762319E+00
   1.90750000E+03   5.00000000E-01   5.00000000E-01   5.75001810E+00
   1.94250000E+03   5.00000000E-01   5.00000000E-01   6.28538463E+00
   1.97750000E+03   5.00000000E-01   5.00000000E-01   6.67284938E+00
   2.01250000E+03   5.00000000E-01   5.00000000E-01   6.85417624E+00
   2.04750000E+03   5.00000000E-01   5.00000000E-01   6.95784777E+00
   2.08250000E+03   5.00000000E-01   5.00000000E-01   7.02453993E+00
   2.11750000E+03   5.00000000E-01   5.00000000E-01   7.06899766E+00
   2.15250000E+03   5.00000000E-01   5.00000000E-01   7.09883282E+00
   2.18750000E+03   5.00000000E-01   5.00000000E-01   7.11869459E+00
   2.22250000E+03   5.00000000E-01   5.00000000E-01   7.13161576E+00
   2.25750000E+03   5.00000000E-01   5.00000000E-01   7.13964857E+00
   2.29250000E+03   5.00000000E-01   5.00000000E-01   7.14421884E+00
   2.32750000E+03   5.00000000E-01   5.00000000E-01   7.14633763E+00
   2.36250000E+03   5.00000000E-01   5.00000000E-01   7.14673364E+00
   2.39750000E+03   5.00000000E-01   5.00000000E-01   7.14593889E+00
   2.43250000E+03   5.00000000E-01   5.00000000E-01   7.14434558E+00
   2.46750000E+03   5.00000000E-01   5.00000000E-01   7.14224476E+00
   2.50250000E+03   5.00000000E-01   5.00000000E-01   7.13985322E+00
   2.53750000E+03   5.00000000E-01   5.00000000E-01   7.13733236E+00
   2.57250000E+03   5.00000000E-01   5.00000000E-01   7.13480180E+00
   2.60750000E+03   5.00000000E-01   5.00000000E-01   7.13234899E+00
   2.64250000E+03   5.00000000E-01   5.00000000E-01   7.13003615E+00
   2.67750000E+03   5.00000000E-01   5.00000000E-01   7.12790551E+00
   2.71250000E+03   5.00000000E-01   5.00000000E-01   7.12598279E+00
   2.74750000E+03   5.00000000E-01   5.00000000E-01   7.12427957E+00
   2.78250000E+03   5.00000000E-01   5.00000000E-01   7.12279598E+00
   2.81750000E+03   5.00000000E-01   5.00000000E-01   7.12152369E+00
   2.85250000E+03   5.00000000E-01   5.00000000E-01   7.12044816E+00
   2.88750000E+03   5.00000000E-01   5.00000000E-01   7.11955006E+00
   2.92250000E+03   5.00000000E-01   5.00000000E-01   7.11880619E+00
   2.95750000E+03   5.00000000E-01   5.00000000E-01   7.11819012E+00
   2.99250000E+03   5.00000000E-01   5.00000000E-01   7.11767249E+00
   3.02750000E+03   5.00000000E-01   5.00000000E-01   7.11722094E+00
   3.06250000E+03   5.00000000E-01   5.00000000E-01   7.11680015E+00
   3.09750000E+03   5.00000000E-01   5.00000000E-01   7.11637185E+00
   3.13250000E+03   5.00000000E-01   5.00000000E-01   7.11589457E+00
   3.16750000E+03   5.00000000E-01   5.00000000E-01   7.11532404E+00
   3.20250000E+03   5.00000000E-01   5.00000000E-01   7.11461339E+00
   3.23750000E+03   5.00000000E-01   5.00000000E-01   7.11371315E+00
   3.27250000E+03   5.00000000E-01   5.00000000E-01   7.11257112E+00
   3.30750000E+03   5.00000000E-01   5.00000000E-01   7.11113252E+00
   3.34250000E+03   5.00000000E-01   5.00000000E-01   7.10934042E+00
   3.37750000E+03   5.00000000E-01   5.00000000E-01   7.10713570E+00
   3.41250000E+03   5.00000000E-01   5.00000000E-01   7.10445715E+00
   3.44750000E+03   5.00000000E-01   5.00000000E-01   7.10124070E+00
   3.48250000E+03   5.00000000E-01   5.00000000E-01   7.09730282E+00
