 TITLE = "Solution pH" 
 VARIABLES = "X"          "Y"              "Z"             "pH" 
 ZONE I=         100 , J=           1 , K=           1  F=POINT
   1.75000000E+01   5.00000000E-01   5.00000000E-01   7.71893052E+00
   5.25000000E+01   5.00000000E-01   5.00000000E-01   7.60736470E+00
   8.75000000E+01   5.00000000E-01   5.00000000E-01   7.52312849E+00
   1.22500000E+02   5.00000000E-01   5.00000000E-01   7.44987941E+00
   1.57500000E+02   5.00000000E-01   5.00000000E-01   7.38247436E+00
   1.92500000E+02   5.00000000E-01   5.00000000E-01   7.31871098E+00
   2.27500000E+02   5.00000000E-01   5.00000000E-01   7.25748314E+00
   2.62500000E+02   5.00000000E-01   5.00000000E-01   7.19817741E+00
   2.97500000E+02   5.00000000E-01   5.00000000E-01   7.14042971E+00
   3.32500000E+02   5.00000000E-01   5.00000000E-01   7.08401245E+00
   3.67500000E+02   5.00000000E-01   5.00000000E-01   7.02877687E+00
   4.02500000E+02   5.00000000E-01   5.00000000E-01   6.97462140E+00
   4.37500000E+02   5.00000000E-01   5.00000000E-01   6.92147348E+00
   4.72500000E+02   5.00000000E-01   5.00000000E-01   6.86927862E+00
   5.07500000E+02   5.00000000E-01   5.00000000E-01   6.81799364E+00
   5.42500000E+02   5.00000000E-01   5.00000000E-01   6.76758246E+00
   5.77500000E+02   5.00000000E-01   5.00000000E-01   6.71801335E+00
   6.12500000E+02   5.00000000E-01   5.00000000E-01   6.66925714E+00
   6.47500000E+02   5.00000000E-01   5.00000000E-01   6.62129092E+00
   6.82500000E+02   5.00000000E-01   5.00000000E-01   6.57407745E+00
   7.17500000E+02   5.00000000E-01   5.00000000E-01   6.52758449E+00
   7.52500000E+02   5.00000000E-01   5.00000000E-01   6.48179138E+00
   7.87500000E+02   5.00000000E-01   5.00000000E-01   6.43667200E+00
   8.22500000E+02   5.00000000E-01   5.00000000E-01   6.39219984E+00
   8.57500000E+02   5.00000000E-01   5.00000000E-01   6.34834822E+00
   8.92500000E+02   5.00000000E-01   5.00000000E-01   6.30509041E+00
   9.27500000E+02   5.00000000E-01   5.00000000E-01   6.26239994E+00
   9.62500000E+02   5.00000000E-01   5.00000000E-01   6.22025078E+00
   9.97500000E+02   5.00000000E-01   5.00000000E-01   6.17861768E+00
   1.03250000E+03   5.00000000E-01   5.00000000E-01   6.13747642E+00
   1.06750000E+03   5.00000000E-01   5.00000000E-01   6.09680412E+00
   1.10250000E+03   5.00000000E-01   5.00000000E-01   6.05657952E+00
   1.13750000E+03   5.00000000E-01   5.00000000E-01   6.01678320E+00
   1.17250000E+03   5.00000000E-01   5.00000000E-01   5.97739787E+00
   1.20750000E+03   5.00000000E-01   5.00000000E-01   5.93840852E+00
   1.24250000E+03   5.00000000E-01   5.00000000E-01   5.89980251E+00
   1.27750000E+03   5.00000000E-01   5.00000000E-01   5.86156972E+00
   1.31250000E+03   5.00000000E-01   5.00000000E-01   5.82370247E+00
   1.34750000E+03   5.00000000E-01   5.00000000E-01   5.78619548E+00
   1.38250000E+03   5.00000000E-01   5.00000000E-01   5.74904570E+00
   1.41750000E+03   5.00000000E-01   5.00000000E-01   5.71225212E+00
   1.45250000E+03   5.00000000E-01   5.00000000E-01   5.67581552E+00
   1.48750000E+03   5.00000000E-01   5.00000000E-01   5.63973811E+00
   1.52250000E+03   5.00000000E-01   5.00000000E-01   5.60402325E+00
   1.55750000E+03   5.00000000E-01   5.00000000E-01   5.56867510E+00
   1.59250000E+03   5.00000000E-01   5.00000000E-01   5.53369825E+00
   1.62750000E+03   5.00000000E-01   5.00000000E-01   5.49909745E+00
   1.66250000E+03   5.00000000E-01   5.00000000E-01   5.46487733E+00
   1.69750000E+03   5.00000000E-01   5.00000000E-01   5.43104213E+00
   1.73250000E+03   5.00000000E-01   5.00000000E-01   5.39759554E+00
   1.76750000E+03   5.00000000E-01   5.00000000E-01   5.36454057E+00
   1.80250000E+03   5.00000000E-01   5.00000000E-01   5.33187942E+00
   1.83750000E+03   5.00000000E-01   5.00000000E-01   5.29961346E+00
   1.87250000E+03   5.00000000E-01   5.00000000E-01   5.26774322E+00
   1.90750000E+03   5.00000000E-01   5.00000000E-01   5.23626838E+00
   1.94250000E+03   5.00000000E-01   5.00000000E-01   5.20518783E+00
   1.97750000E+03   5.00000000E-01   5.00000000E-01   5.17449974E+00
   2.01250000E+03   5.00000000E-01   5.00000000E-01   5.14420164E+00
   2.04750000E+03   5.00000000E-01   5.00000000E-01   5.11429046E+00
   2.08250000E+03   5.00000000E-01   5.00000000E-01   5.08476266E+00
   2.11750000E+03   5.00000000E-01   5.00000000E-01   5.05561427E+00
   2.15250000E+03   5.00000000E-01   5.00000000E-01   5.02684104E+00
   2.18750000E+03   5.00000000E-01   5.00000000E-01   4.99843842E+00
   2.22250000E+03   5.00000000E-01   5.00000000E-01   4.97040172E+00
   2.25750000E+03   5.00000000E-01   5.00000000E-01   4.94272615E+00
   2.29250000E+03   5.00000000E-01   5.00000000E-01   4.91540683E+00
   2.32750000E+03   5.00000000E-01   5.00000000E-01   4.88843891E+00
   2.36250000E+03   5.00000000E-01   5.00000000E-01   4.86181758E+00
   2.39750000E+03   5.00000000E-01   5.00000000E-01   4.83553814E+00
   2.43250000E+03   5.00000000E-01   5.00000000E-01   4.80959598E+00
   2.46750000E+03   5.00000000E-01   5.00000000E-01   4.78398667E+00
   2.50250000E+03   5.00000000E-01   5.00000000E-01   4.75870595E+00
   2.53750000E+03   5.00000000E-01   5.00000000E-01   4.73374977E+00
   2.57250000E+03   5.00000000E-01   5.00000000E-01   4.70911429E+00
   2.60750000E+03   5.00000000E-01   5.00000000E-01   4.68479590E+00
   2.64250000E+03   5.00000000E-01   5.00000000E-01   4.66079125E+00
   2.67750000E+03   5.00000000E-01   5.00000000E-01   4.63709721E+00
   2.71250000E+03   5.00000000E-01   5.00000000E-01   4.61371094E+00
   2.74750000E+03   5.00000000E-01   5.00000000E-01   4.59062983E+00
   2.78250000E+03   5.00000000E-01   5.00000000E-01   4.56785154E+00
   2.81750000E+03   5.00000000E-01   5.00000000E-01   4.54537397E+00
   2.85250000E+03   5.00000000E-01   5.00000000E-01   4.52319528E+00
   2.88750000E+03   5.00000000E-01   5.00000000E-01   4.50131385E+00
   2.92250000E+03   5.00000000E-01   5.00000000E-01   4.47972830E+00
   2.95750000E+03   5.00000000E-01   5.00000000E-01   4.45843746E+00
   2.99250000E+03   5.00000000E-01   5.00000000E-01   4.43744034E+00
   3.02750000E+03   5.00000000E-01   5.00000000E-01   4.41673614E+00
   3.06250000E+03   5.00000000E-01   5.00000000E-01   4.39632419E+00
   3.09750000E+03   5.00000000E-01   5.00000000E-01   4.37620397E+00
   3.13250000E+03   5.00000000E-01   5.00000000E-01   4.35637502E+00
   3.16750000E+03   5.00000000E-01   5.00000000E-01   4.33683697E+00
   3.20250000E+03   5.00000000E-01   5.00000000E-01   4.31758946E+00
   3.23750000E+03   5.00000000E-01   5.00000000E-01   4.29863212E+00
   3.27250000E+03   5.00000000E-01   5.00000000E-01   4.27996454E+00
   3.30750000E+03   5.00000000E-01   5.00000000E-01   4.26158620E+00
   3.34250000E+03   5.00000000E-01   5.00000000E-01   4.24349644E+00
   3.37750000E+03   5.00000000E-01   5.00000000E-01   4.22569443E+00
   3.41250000E+03   5.00000000E-01   5.00000000E-01   4.20817910E+00
   3.44750000E+03   5.00000000E-01   5.00000000E-01   4.19094911E+00
   3.48250000E+03   5.00000000E-01   5.00000000E-01   4.17456889E+00
