 TITLE = "Solution pH" 
 VARIABLES = "X"          "Y"              "Z"             "pH" 
 ZONE I=         100 , J=           1 , K=           1  F=POINT
   1.75000000E+01   5.00000000E-01   5.00000000E-01   7.63766759E+00
   5.25000000E+01   5.00000000E-01   5.00000000E-01   7.51023652E+00
   8.75000000E+01   5.00000000E-01   5.00000000E-01   7.41138285E+00
   1.22500000E+02   5.00000000E-01   5.00000000E-01   7.31829107E+00
   1.57500000E+02   5.00000000E-01   5.00000000E-01   7.22822266E+00
   1.92500000E+02   5.00000000E-01   5.00000000E-01   7.14092127E+00
   2.27500000E+02   5.00000000E-01   5.00000000E-01   7.05628609E+00
   2.62500000E+02   5.00000000E-01   5.00000000E-01   6.97417138E+00
   2.97500000E+02   5.00000000E-01   5.00000000E-01   6.89441846E+00
   3.32500000E+02   5.00000000E-01   5.00000000E-01   6.81688036E+00
   3.67500000E+02   5.00000000E-01   5.00000000E-01   6.74142901E+00
   4.02500000E+02   5.00000000E-01   5.00000000E-01   6.66795448E+00
   4.37500000E+02   5.00000000E-01   5.00000000E-01   6.59636192E+00
   4.72500000E+02   5.00000000E-01   5.00000000E-01   6.52656830E+00
   5.07500000E+02   5.00000000E-01   5.00000000E-01   6.45849957E+00
   5.42500000E+02   5.00000000E-01   5.00000000E-01   6.39208856E+00
   5.77500000E+02   5.00000000E-01   5.00000000E-01   6.32727355E+00
   6.12500000E+02   5.00000000E-01   5.00000000E-01   6.26399729E+00
   6.47500000E+02   5.00000000E-01   5.00000000E-01   6.20220654E+00
   6.82500000E+02   5.00000000E-01   5.00000000E-01   6.14185179E+00
   7.17500000E+02   5.00000000E-01   5.00000000E-01   6.08288730E+00
   7.52500000E+02   5.00000000E-01   5.00000000E-01   6.02527110E+00
   7.87500000E+02   5.00000000E-01   5.00000000E-01   5.96896510E+00
   8.22500000E+02   5.00000000E-01   5.00000000E-01   5.91393498E+00
   8.57500000E+02   5.00000000E-01   5.00000000E-01   5.86015018E+00
   8.92500000E+02   5.00000000E-01   5.00000000E-01   5.80758358E+00
   9.27500000E+02   5.00000000E-01   5.00000000E-01   5.75621125E+00
   9.62500000E+02   5.00000000E-01   5.00000000E-01   5.70601198E+00
   9.97500000E+02   5.00000000E-01   5.00000000E-01   5.65696693E+00
   1.03250000E+03   5.00000000E-01   5.00000000E-01   5.60905915E+00
   1.06750000E+03   5.00000000E-01   5.00000000E-01   5.56227320E+00
   1.10250000E+03   5.00000000E-01   5.00000000E-01   5.51659490E+00
   1.13750000E+03   5.00000000E-01   5.00000000E-01   5.47201111E+00
   1.17250000E+03   5.00000000E-01   5.00000000E-01   5.42850953E+00
   1.20750000E+03   5.00000000E-01   5.00000000E-01   5.38607864E+00
   1.24250000E+03   5.00000000E-01   5.00000000E-01   5.34470756E+00
   1.27750000E+03   5.00000000E-01   5.00000000E-01   5.30438611E+00
   1.31250000E+03   5.00000000E-01   5.00000000E-01   5.26510494E+00
   1.34750000E+03   5.00000000E-01   5.00000000E-01   5.22685564E+00
   1.38250000E+03   5.00000000E-01   5.00000000E-01   5.18963089E+00
   1.41750000E+03   5.00000000E-01   5.00000000E-01   5.15342418E+00
   1.45250000E+03   5.00000000E-01   5.00000000E-01   5.11822905E+00
   1.48750000E+03   5.00000000E-01   5.00000000E-01   5.08404114E+00
   1.52250000E+03   5.00000000E-01   5.00000000E-01   5.05085873E+00
   1.55750000E+03   5.00000000E-01   5.00000000E-01   5.01868044E+00
   1.59250000E+03   5.00000000E-01   5.00000000E-01   4.98750476E+00
   1.62750000E+03   5.00000000E-01   5.00000000E-01   4.95733410E+00
   1.66250000E+03   5.00000000E-01   5.00000000E-01   4.92817396E+00
   1.69750000E+03   5.00000000E-01   5.00000000E-01   4.90003130E+00
   1.73250000E+03   5.00000000E-01   5.00000000E-01   4.87291584E+00
   1.76750000E+03   5.00000000E-01   5.00000000E-01   4.84684144E+00
   1.80250000E+03   5.00000000E-01   5.00000000E-01   4.82182530E+00
   1.83750000E+03   5.00000000E-01   5.00000000E-01   4.79788728E+00
   1.87250000E+03   5.00000000E-01   5.00000000E-01   4.77504933E+00
   1.90750000E+03   5.00000000E-01   5.00000000E-01   4.75333669E+00
   1.94250000E+03   5.00000000E-01   5.00000000E-01   4.73277945E+00
   1.97750000E+03   5.00000000E-01   5.00000000E-01   4.71340924E+00
   2.01250000E+03   5.00000000E-01   5.00000000E-01   4.69525185E+00
   2.04750000E+03   5.00000000E-01   5.00000000E-01   4.67831965E+00
   2.08250000E+03   5.00000000E-01   5.00000000E-01   4.66260605E+00
   2.11750000E+03   5.00000000E-01   5.00000000E-01   4.64807719E+00
   2.15250000E+03   5.00000000E-01   5.00000000E-01   4.63465382E+00
   2.18750000E+03   5.00000000E-01   5.00000000E-01   4.62217647E+00
   2.22250000E+03   5.00000000E-01   5.00000000E-01   4.61036077E+00
   2.25750000E+03   5.00000000E-01   5.00000000E-01   4.59882405E+00
   2.29250000E+03   5.00000000E-01   5.00000000E-01   4.58735859E+00
   2.32750000E+03   5.00000000E-01   5.00000000E-01   4.57631939E+00
   2.36250000E+03   5.00000000E-01   5.00000000E-01   4.56644252E+00
   2.39750000E+03   5.00000000E-01   5.00000000E-01   4.55818831E+00
   2.43250000E+03   5.00000000E-01   5.00000000E-01   4.55152841E+00
   2.46750000E+03   5.00000000E-01   5.00000000E-01   4.54618044E+00
   2.50250000E+03   5.00000000E-01   5.00000000E-01   4.54182653E+00
   2.53750000E+03   5.00000000E-01   5.00000000E-01   4.53820950E+00
   2.57250000E+03   5.00000000E-01   5.00000000E-01   4.53515667E+00
   2.60750000E+03   5.00000000E-01   5.00000000E-01   4.53256757E+00
   2.64250000E+03   5.00000000E-01   5.00000000E-01   4.53039064E+00
   2.67750000E+03   5.00000000E-01   5.00000000E-01   4.52860302E+00
   2.71250000E+03   5.00000000E-01   5.00000000E-01   4.52719628E+00
   2.74750000E+03   5.00000000E-01   5.00000000E-01   4.52616756E+00
   2.78250000E+03   5.00000000E-01   5.00000000E-01   4.52551454E+00
   2.81750000E+03   5.00000000E-01   5.00000000E-01   4.52523323E+00
   2.85250000E+03   5.00000000E-01   5.00000000E-01   4.52531732E+00
   2.88750000E+03   5.00000000E-01   5.00000000E-01   4.52575847E+00
   2.92250000E+03   5.00000000E-01   5.00000000E-01   4.52654675E+00
   2.95750000E+03   5.00000000E-01   5.00000000E-01   4.52767129E+00
   2.99250000E+03   5.00000000E-01   5.00000000E-01   4.52912104E+00
   3.02750000E+03   5.00000000E-01   5.00000000E-01   4.53088576E+00
   3.06250000E+03   5.00000000E-01   5.00000000E-01   4.53295686E+00
   3.09750000E+03   5.00000000E-01   5.00000000E-01   4.53532799E+00
   3.13250000E+03   5.00000000E-01   5.00000000E-01   4.53799542E+00
   3.16750000E+03   5.00000000E-01   5.00000000E-01   4.54095813E+00
   3.20250000E+03   5.00000000E-01   5.00000000E-01   4.54421809E+00
   3.23750000E+03   5.00000000E-01   5.00000000E-01   4.54778092E+00
   3.27250000E+03   5.00000000E-01   5.00000000E-01   4.55165714E+00
   3.30750000E+03   5.00000000E-01   5.00000000E-01   4.55586374E+00
   3.34250000E+03   5.00000000E-01   5.00000000E-01   4.56042482E+00
   3.37750000E+03   5.00000000E-01   5.00000000E-01   4.56537003E+00
   3.41250000E+03   5.00000000E-01   5.00000000E-01   4.57073076E+00
   3.44750000E+03   5.00000000E-01   5.00000000E-01   4.57653507E+00
   3.48250000E+03   5.00000000E-01   5.00000000E-01   4.58324345E+00
