 TITLE = "Solution pH" 
 VARIABLES = "X"          "Y"              "Z"             "pH" 
 ZONE I=         200 , J=           1 , K=           1  F=POINT
   8.75000000E+00   5.00000000E-01   5.00000000E-01   7.92712703E+00
   2.62500000E+01   5.00000000E-01   5.00000000E-01   7.69951394E+00
   4.37500000E+01   5.00000000E-01   5.00000000E-01   7.57515318E+00
   6.12500000E+01   5.00000000E-01   5.00000000E-01   7.48755760E+00
   7.87500000E+01   5.00000000E-01   5.00000000E-01   7.41582020E+00
   9.62500000E+01   5.00000000E-01   5.00000000E-01   7.35400525E+00
   1.13750000E+02   5.00000000E-01   5.00000000E-01   7.29931060E+00
   1.31250000E+02   5.00000000E-01   5.00000000E-01   7.24961224E+00
   1.48750000E+02   5.00000000E-01   5.00000000E-01   7.20334785E+00
   1.66250000E+02   5.00000000E-01   5.00000000E-01   7.15945554E+00
   1.83750000E+02   5.00000000E-01   5.00000000E-01   7.11724155E+00
   2.01250000E+02   5.00000000E-01   5.00000000E-01   7.07626017E+00
   2.18750000E+02   5.00000000E-01   5.00000000E-01   7.03622677E+00
   2.36250000E+02   5.00000000E-01   5.00000000E-01   6.99695992E+00
   2.53750000E+02   5.00000000E-01   5.00000000E-01   6.95834397E+00
   2.71250000E+02   5.00000000E-01   5.00000000E-01   6.92030534E+00
   2.88750000E+02   5.00000000E-01   5.00000000E-01   6.88279739E+00
   3.06250000E+02   5.00000000E-01   5.00000000E-01   6.84579079E+00
   3.23750000E+02   5.00000000E-01   5.00000000E-01   6.80926719E+00
   3.41250000E+02   5.00000000E-01   5.00000000E-01   6.77321506E+00
   3.58750000E+02   5.00000000E-01   5.00000000E-01   6.73762683E+00
   3.76250000E+02   5.00000000E-01   5.00000000E-01   6.70249687E+00
   3.93750000E+02   5.00000000E-01   5.00000000E-01   6.66782019E+00
   4.11250000E+02   5.00000000E-01   5.00000000E-01   6.63359172E+00
   4.28750000E+02   5.00000000E-01   5.00000000E-01   6.59980607E+00
   4.46250000E+02   5.00000000E-01   5.00000000E-01   6.56645756E+00
   4.63750000E+02   5.00000000E-01   5.00000000E-01   6.53354055E+00
   4.81250000E+02   5.00000000E-01   5.00000000E-01   6.50104952E+00
   4.98750000E+02   5.00000000E-01   5.00000000E-01   6.46897908E+00
   5.16250000E+02   5.00000000E-01   5.00000000E-01   6.43732377E+00
   5.33750000E+02   5.00000000E-01   5.00000000E-01   6.40607779E+00
   5.51250000E+02   5.00000000E-01   5.00000000E-01   6.37523477E+00
   5.68750000E+02   5.00000000E-01   5.00000000E-01   6.34478776E+00
   5.86250000E+02   5.00000000E-01   5.00000000E-01   6.31472938E+00
   6.03750000E+02   5.00000000E-01   5.00000000E-01   6.28505224E+00
   6.21250000E+02   5.00000000E-01   5.00000000E-01   6.25574934E+00
   6.38750000E+02   5.00000000E-01   5.00000000E-01   6.22681442E+00
   6.56250000E+02   5.00000000E-01   5.00000000E-01   6.19824214E+00
   6.73750000E+02   5.00000000E-01   5.00000000E-01   6.17002796E+00
   6.91250000E+02   5.00000000E-01   5.00000000E-01   6.14216797E+00
   7.08750000E+02   5.00000000E-01   5.00000000E-01   6.11465851E+00
   7.26250000E+02   5.00000000E-01   5.00000000E-01   6.08749597E+00
   7.43750000E+02   5.00000000E-01   5.00000000E-01   6.06067671E+00
   7.61250000E+02   5.00000000E-01   5.00000000E-01   6.03419728E+00
   7.78750000E+02   5.00000000E-01   5.00000000E-01   6.00805481E+00
   7.96250000E+02   5.00000000E-01   5.00000000E-01   5.98224757E+00
   8.13750000E+02   5.00000000E-01   5.00000000E-01   5.95677541E+00
   8.31250000E+02   5.00000000E-01   5.00000000E-01   5.93164001E+00
   8.48750000E+02   5.00000000E-01   5.00000000E-01   5.90684479E+00
   8.66250000E+02   5.00000000E-01   5.00000000E-01   5.88239459E+00
   8.83750000E+02   5.00000000E-01   5.00000000E-01   5.85829513E+00
   9.01250000E+02   5.00000000E-01   5.00000000E-01   5.83455240E+00
   9.18750000E+02   5.00000000E-01   5.00000000E-01   5.81117210E+00
   9.36250000E+02   5.00000000E-01   5.00000000E-01   5.78815913E+00
   9.53750000E+02   5.00000000E-01   5.00000000E-01   5.76551727E+00
   9.71250000E+02   5.00000000E-01   5.00000000E-01   5.74324897E+00
   9.88750000E+02   5.00000000E-01   5.00000000E-01   5.72135522E+00
   1.00625000E+03   5.00000000E-01   5.00000000E-01   5.69983558E+00
   1.02375000E+03   5.00000000E-01   5.00000000E-01   5.67868828E+00
   1.04125000E+03   5.00000000E-01   5.00000000E-01   5.65791036E+00
   1.05875000E+03   5.00000000E-01   5.00000000E-01   5.63749792E+00
   1.07625000E+03   5.00000000E-01   5.00000000E-01   5.61744622E+00
   1.09375000E+03   5.00000000E-01   5.00000000E-01   5.59774986E+00
   1.11125000E+03   5.00000000E-01   5.00000000E-01   5.57840261E+00
   1.12875000E+03   5.00000000E-01   5.00000000E-01   5.55939714E+00
   1.14625000E+03   5.00000000E-01   5.00000000E-01   5.54072451E+00
   1.16375000E+03   5.00000000E-01   5.00000000E-01   5.52237344E+00
   1.18125000E+03   5.00000000E-01   5.00000000E-01   5.50432960E+00
   1.19875000E+03   5.00000000E-01   5.00000000E-01   5.48657494E+00
   1.21625000E+03   5.00000000E-01   5.00000000E-01   5.46908718E+00
   1.23375000E+03   5.00000000E-01   5.00000000E-01   5.45183950E+00
   1.25125000E+03   5.00000000E-01   5.00000000E-01   5.43480036E+00
   1.26875000E+03   5.00000000E-01   5.00000000E-01   5.41793332E+00
   1.28625000E+03   5.00000000E-01   5.00000000E-01   5.40119631E+00
   1.30375000E+03   5.00000000E-01   5.00000000E-01   5.38453954E+00
   1.32125000E+03   5.00000000E-01   5.00000000E-01   5.36790022E+00
   1.33875000E+03   5.00000000E-01   5.00000000E-01   5.35119247E+00
   1.35625000E+03   5.00000000E-01   5.00000000E-01   5.33429628E+00
   1.37375000E+03   5.00000000E-01   5.00000000E-01   5.31706858E+00
   1.39125000E+03   5.00000000E-01   5.00000000E-01   5.29941746E+00
   1.40875000E+03   5.00000000E-01   5.00000000E-01   5.28141325E+00
   1.42625000E+03   5.00000000E-01   5.00000000E-01   5.26329055E+00
   1.44375000E+03   5.00000000E-01   5.00000000E-01   5.24530152E+00
   1.46125000E+03   5.00000000E-01   5.00000000E-01   5.22758827E+00
   1.47875000E+03   5.00000000E-01   5.00000000E-01   5.21017427E+00
   1.49625000E+03   5.00000000E-01   5.00000000E-01   5.19302164E+00
   1.51375000E+03   5.00000000E-01   5.00000000E-01   5.17608309E+00
   1.53125000E+03   5.00000000E-01   5.00000000E-01   5.15932522E+00
   1.54875000E+03   5.00000000E-01   5.00000000E-01   5.14273124E+00
   1.56625000E+03   5.00000000E-01   5.00000000E-01   5.12629610E+00
   1.58375000E+03   5.00000000E-01   5.00000000E-01   5.11002094E+00
   1.60125000E+03   5.00000000E-01   5.00000000E-01   5.09390974E+00
   1.61875000E+03   5.00000000E-01   5.00000000E-01   5.07796875E+00
   1.63625000E+03   5.00000000E-01   5.00000000E-01   5.06220733E+00
   1.65375000E+03   5.00000000E-01   5.00000000E-01   5.04663704E+00
   1.67125000E+03   5.00000000E-01   5.00000000E-01   5.03126776E+00
   1.68875000E+03   5.00000000E-01   5.00000000E-01   5.01610397E+00
   1.70625000E+03   5.00000000E-01   5.00000000E-01   5.00114418E+00
   1.72375000E+03   5.00000000E-01   5.00000000E-01   4.98638293E+00
   1.74125000E+03   5.00000000E-01   5.00000000E-01   4.97181357E+00
   1.75875000E+03   5.00000000E-01   5.00000000E-01   4.95743115E+00
   1.77625000E+03   5.00000000E-01   5.00000000E-01   4.94323557E+00
   1.79375000E+03   5.00000000E-01   5.00000000E-01   4.92923294E+00
   1.81125000E+03   5.00000000E-01   5.00000000E-01   4.91543287E+00
   1.82875000E+03   5.00000000E-01   5.00000000E-01   4.90184254E+00
   1.84625000E+03   5.00000000E-01   5.00000000E-01   4.88846200E+00
   1.86375000E+03   5.00000000E-01   5.00000000E-01   4.87528430E+00
   1.88125000E+03   5.00000000E-01   5.00000000E-01   4.86229918E+00
   1.89875000E+03   5.00000000E-01   5.00000000E-01   4.84949690E+00
   1.91625000E+03   5.00000000E-01   5.00000000E-01   4.83687005E+00
   1.93375000E+03   5.00000000E-01   5.00000000E-01   4.82441315E+00
   1.95125000E+03   5.00000000E-01   5.00000000E-01   4.81212142E+00
   1.96875000E+03   5.00000000E-01   5.00000000E-01   4.79998985E+00
   1.98625000E+03   5.00000000E-01   5.00000000E-01   4.78801289E+00
   2.00375000E+03   5.00000000E-01   5.00000000E-01   4.77618446E+00
   2.02125000E+03   5.00000000E-01   5.00000000E-01   4.76449841E+00
   2.03875000E+03   5.00000000E-01   5.00000000E-01   4.75294923E+00
   2.05625000E+03   5.00000000E-01   5.00000000E-01   4.74153321E+00
   2.07375000E+03   5.00000000E-01   5.00000000E-01   4.73024939E+00
   2.09125000E+03   5.00000000E-01   5.00000000E-01   4.71909987E+00
   2.10875000E+03   5.00000000E-01   5.00000000E-01   4.70808885E+00
   2.12625000E+03   5.00000000E-01   5.00000000E-01   4.69722041E+00
   2.14375000E+03   5.00000000E-01   5.00000000E-01   4.68649598E+00
   2.16125000E+03   5.00000000E-01   5.00000000E-01   4.67591263E+00
   2.17875000E+03   5.00000000E-01   5.00000000E-01   4.66546287E+00
   2.19625000E+03   5.00000000E-01   5.00000000E-01   4.65513611E+00
   2.21375000E+03   5.00000000E-01   5.00000000E-01   4.64492084E+00
   2.23125000E+03   5.00000000E-01   5.00000000E-01   4.63480693E+00
   2.24875000E+03   5.00000000E-01   5.00000000E-01   4.62478735E+00
   2.26625000E+03   5.00000000E-01   5.00000000E-01   4.61485904E+00
   2.28375000E+03   5.00000000E-01   5.00000000E-01   4.60502288E+00
   2.30125000E+03   5.00000000E-01   5.00000000E-01   4.59528253E+00
   2.31875000E+03   5.00000000E-01   5.00000000E-01   4.58564269E+00
   2.33625000E+03   5.00000000E-01   5.00000000E-01   4.57610713E+00
   2.35375000E+03   5.00000000E-01   5.00000000E-01   4.56667762E+00
   2.37125000E+03   5.00000000E-01   5.00000000E-01   4.55735401E+00
   2.38875000E+03   5.00000000E-01   5.00000000E-01   4.54813516E+00
   2.40625000E+03   5.00000000E-01   5.00000000E-01   4.53902011E+00
   2.42375000E+03   5.00000000E-01   5.00000000E-01   4.53000894E+00
   2.44125000E+03   5.00000000E-01   5.00000000E-01   4.52110317E+00
   2.45875000E+03   5.00000000E-01   5.00000000E-01   4.51230568E+00
   2.47625000E+03   5.00000000E-01   5.00000000E-01   4.50362036E+00
   2.49375000E+03   5.00000000E-01   5.00000000E-01   4.49505157E+00
   2.51125000E+03   5.00000000E-01   5.00000000E-01   4.48660371E+00
   2.52875000E+03   5.00000000E-01   5.00000000E-01   4.47828101E+00
   2.54625000E+03   5.00000000E-01   5.00000000E-01   4.47008752E+00
   2.56375000E+03   5.00000000E-01   5.00000000E-01   4.46202735E+00
   2.58125000E+03   5.00000000E-01   5.00000000E-01   4.45410491E+00
   2.59875000E+03   5.00000000E-01   5.00000000E-01   4.44632516E+00
   2.61625000E+03   5.00000000E-01   5.00000000E-01   4.43869370E+00
   2.63375000E+03   5.00000000E-01   5.00000000E-01   4.43121677E+00
   2.65125000E+03   5.00000000E-01   5.00000000E-01   4.42390125E+00
   2.66875000E+03   5.00000000E-01   5.00000000E-01   4.41675451E+00
   2.68625000E+03   5.00000000E-01   5.00000000E-01   4.40978427E+00
   2.70375000E+03   5.00000000E-01   5.00000000E-01   4.40299848E+00
   2.72125000E+03   5.00000000E-01   5.00000000E-01   4.39640517E+00
   2.73875000E+03   5.00000000E-01   5.00000000E-01   4.39001242E+00
   2.75625000E+03   5.00000000E-01   5.00000000E-01   4.38382839E+00
   2.77375000E+03   5.00000000E-01   5.00000000E-01   4.37786154E+00
   2.79125000E+03   5.00000000E-01   5.00000000E-01   4.37212089E+00
   2.80875000E+03   5.00000000E-01   5.00000000E-01   4.36661632E+00
   2.82625000E+03   5.00000000E-01   5.00000000E-01   4.36135880E+00
   2.84375000E+03   5.00000000E-01   5.00000000E-01   4.35636056E+00
   2.86125000E+03   5.00000000E-01   5.00000000E-01   4.35163516E+00
   2.87875000E+03   5.00000000E-01   5.00000000E-01   4.34719748E+00
   2.89625000E+03   5.00000000E-01   5.00000000E-01   4.34306373E+00
   2.91375000E+03   5.00000000E-01   5.00000000E-01   4.33925141E+00
   2.93125000E+03   5.00000000E-01   5.00000000E-01   4.33577949E+00
   2.94875000E+03   5.00000000E-01   5.00000000E-01   4.33266856E+00
   2.96625000E+03   5.00000000E-01   5.00000000E-01   4.32994117E+00
   2.98375000E+03   5.00000000E-01   5.00000000E-01   4.32762233E+00
   3.00125000E+03   5.00000000E-01   5.00000000E-01   4.32574010E+00
   3.01875000E+03   5.00000000E-01   5.00000000E-01   4.32432621E+00
   3.03625000E+03   5.00000000E-01   5.00000000E-01   4.32341687E+00
   3.05375000E+03   5.00000000E-01   5.00000000E-01   4.32305356E+00
   3.07125000E+03   5.00000000E-01   5.00000000E-01   4.32328409E+00
   3.08875000E+03   5.00000000E-01   5.00000000E-01   4.32416373E+00
   3.10625000E+03   5.00000000E-01   5.00000000E-01   4.32575684E+00
   3.12375000E+03   5.00000000E-01   5.00000000E-01   4.32813876E+00
   3.14125000E+03   5.00000000E-01   5.00000000E-01   4.33139837E+00
   3.15875000E+03   5.00000000E-01   5.00000000E-01   4.33564133E+00
   3.17625000E+03   5.00000000E-01   5.00000000E-01   4.34099424E+00
   3.19375000E+03   5.00000000E-01   5.00000000E-01   4.34760992E+00
   3.21125000E+03   5.00000000E-01   5.00000000E-01   4.35567422E+00
   3.22875000E+03   5.00000000E-01   5.00000000E-01   4.36541437E+00
   3.24625000E+03   5.00000000E-01   5.00000000E-01   4.37710864E+00
   3.26375000E+03   5.00000000E-01   5.00000000E-01   4.39109604E+00
   3.28125000E+03   5.00000000E-01   5.00000000E-01   4.40778085E+00
   3.29875000E+03   5.00000000E-01   5.00000000E-01   4.42761897E+00
   3.31625000E+03   5.00000000E-01   5.00000000E-01   4.45105496E+00
   3.33375000E+03   5.00000000E-01   5.00000000E-01   4.47834516E+00
   3.35125000E+03   5.00000000E-01   5.00000000E-01   4.50916132E+00
   3.36875000E+03   5.00000000E-01   5.00000000E-01   4.54194521E+00
   3.38625000E+03   5.00000000E-01   5.00000000E-01   4.57353075E+00
   3.40375000E+03   5.00000000E-01   5.00000000E-01   4.60022499E+00
   3.42125000E+03   5.00000000E-01   5.00000000E-01   4.62009251E+00
   3.43875000E+03   5.00000000E-01   5.00000000E-01   4.63377919E+00
   3.45625000E+03   5.00000000E-01   5.00000000E-01   4.64320579E+00
   3.47375000E+03   5.00000000E-01   5.00000000E-01   4.65017015E+00
   3.49125000E+03   5.00000000E-01   5.00000000E-01   4.65631955E+00
