 TITLE = "Solution pH" 
 VARIABLES = "X"          "Y"              "Z"             "pH" 
 ZONE I=         100 , J=           1 , K=           1  F=POINT
   1.75000000E+01   5.00000000E-01   5.00000000E-01   7.77733748E+00
   5.25000000E+01   5.00000000E-01   5.00000000E-01   7.64690023E+00
   8.75000000E+01   5.00000000E-01   5.00000000E-01   7.56767963E+00
   1.22500000E+02   5.00000000E-01   5.00000000E-01   7.50178929E+00
   1.57500000E+02   5.00000000E-01   5.00000000E-01   7.44077277E+00
   1.92500000E+02   5.00000000E-01   5.00000000E-01   7.38208842E+00
   2.27500000E+02   5.00000000E-01   5.00000000E-01   7.32484800E+00
   2.62500000E+02   5.00000000E-01   5.00000000E-01   7.26871767E+00
   2.97500000E+02   5.00000000E-01   5.00000000E-01   7.21356536E+00
   3.32500000E+02   5.00000000E-01   5.00000000E-01   7.15933544E+00
   3.67500000E+02   5.00000000E-01   5.00000000E-01   7.10600175E+00
   4.02500000E+02   5.00000000E-01   5.00000000E-01   7.05354914E+00
   4.37500000E+02   5.00000000E-01   5.00000000E-01   7.00196622E+00
   4.72500000E+02   5.00000000E-01   5.00000000E-01   6.95124261E+00
   5.07500000E+02   5.00000000E-01   5.00000000E-01   6.90136780E+00
   5.42500000E+02   5.00000000E-01   5.00000000E-01   6.85233081E+00
   5.77500000E+02   5.00000000E-01   5.00000000E-01   6.80412012E+00
   6.12500000E+02   5.00000000E-01   5.00000000E-01   6.75672362E+00
   6.47500000E+02   5.00000000E-01   5.00000000E-01   6.71012871E+00
   6.82500000E+02   5.00000000E-01   5.00000000E-01   6.66432235E+00
   7.17500000E+02   5.00000000E-01   5.00000000E-01   6.61929108E+00
   7.52500000E+02   5.00000000E-01   5.00000000E-01   6.57502115E+00
   7.87500000E+02   5.00000000E-01   5.00000000E-01   6.53149850E+00
   8.22500000E+02   5.00000000E-01   5.00000000E-01   6.48870889E+00
   8.57500000E+02   5.00000000E-01   5.00000000E-01   6.44663796E+00
   8.92500000E+02   5.00000000E-01   5.00000000E-01   6.40527133E+00
   9.27500000E+02   5.00000000E-01   5.00000000E-01   6.36459463E+00
   9.62500000E+02   5.00000000E-01   5.00000000E-01   6.32459360E+00
   9.97500000E+02   5.00000000E-01   5.00000000E-01   6.28525419E+00
   1.03250000E+03   5.00000000E-01   5.00000000E-01   6.24656271E+00
   1.06750000E+03   5.00000000E-01   5.00000000E-01   6.20850587E+00
   1.10250000E+03   5.00000000E-01   5.00000000E-01   6.17107092E+00
   1.13750000E+03   5.00000000E-01   5.00000000E-01   6.13424575E+00
   1.17250000E+03   5.00000000E-01   5.00000000E-01   6.09801895E+00
   1.20750000E+03   5.00000000E-01   5.00000000E-01   6.06237990E+00
   1.24250000E+03   5.00000000E-01   5.00000000E-01   6.02731883E+00
   1.27750000E+03   5.00000000E-01   5.00000000E-01   5.99282683E+00
   1.31250000E+03   5.00000000E-01   5.00000000E-01   5.95889589E+00
   1.34750000E+03   5.00000000E-01   5.00000000E-01   5.92551891E+00
   1.38250000E+03   5.00000000E-01   5.00000000E-01   5.89268964E+00
   1.41750000E+03   5.00000000E-01   5.00000000E-01   5.86040266E+00
   1.45250000E+03   5.00000000E-01   5.00000000E-01   5.82865334E+00
   1.48750000E+03   5.00000000E-01   5.00000000E-01   5.79743777E+00
   1.52250000E+03   5.00000000E-01   5.00000000E-01   5.76675268E+00
   1.55750000E+03   5.00000000E-01   5.00000000E-01   5.73659539E+00
   1.59250000E+03   5.00000000E-01   5.00000000E-01   5.70696373E+00
   1.62750000E+03   5.00000000E-01   5.00000000E-01   5.67785602E+00
   1.66250000E+03   5.00000000E-01   5.00000000E-01   5.64927095E+00
   1.69750000E+03   5.00000000E-01   5.00000000E-01   5.62120762E+00
   1.73250000E+03   5.00000000E-01   5.00000000E-01   5.59366547E+00
   1.76750000E+03   5.00000000E-01   5.00000000E-01   5.56664428E+00
   1.80250000E+03   5.00000000E-01   5.00000000E-01   5.54014418E+00
   1.83750000E+03   5.00000000E-01   5.00000000E-01   5.51416565E+00
   1.87250000E+03   5.00000000E-01   5.00000000E-01   5.48870957E+00
   1.90750000E+03   5.00000000E-01   5.00000000E-01   5.46377728E+00
   1.94250000E+03   5.00000000E-01   5.00000000E-01   5.43937056E+00
   1.97750000E+03   5.00000000E-01   5.00000000E-01   5.41549178E+00
   2.01250000E+03   5.00000000E-01   5.00000000E-01   5.39214393E+00
   2.04750000E+03   5.00000000E-01   5.00000000E-01   5.36933068E+00
   2.08250000E+03   5.00000000E-01   5.00000000E-01   5.34705655E+00
   2.11750000E+03   5.00000000E-01   5.00000000E-01   5.32532695E+00
   2.15250000E+03   5.00000000E-01   5.00000000E-01   5.30414834E+00
   2.18750000E+03   5.00000000E-01   5.00000000E-01   5.28352836E+00
   2.22250000E+03   5.00000000E-01   5.00000000E-01   5.26347595E+00
   2.25750000E+03   5.00000000E-01   5.00000000E-01   5.24400161E+00
   2.29250000E+03   5.00000000E-01   5.00000000E-01   5.22511752E+00
   2.32750000E+03   5.00000000E-01   5.00000000E-01   5.20683786E+00
   2.36250000E+03   5.00000000E-01   5.00000000E-01   5.18917902E+00
   2.39750000E+03   5.00000000E-01   5.00000000E-01   5.17215996E+00
   2.43250000E+03   5.00000000E-01   5.00000000E-01   5.15580263E+00
   2.46750000E+03   5.00000000E-01   5.00000000E-01   5.14013240E+00
   2.50250000E+03   5.00000000E-01   5.00000000E-01   5.12517865E+00
   2.53750000E+03   5.00000000E-01   5.00000000E-01   5.11097546E+00
   2.57250000E+03   5.00000000E-01   5.00000000E-01   5.09756246E+00
   2.60750000E+03   5.00000000E-01   5.00000000E-01   5.08498588E+00
   2.64250000E+03   5.00000000E-01   5.00000000E-01   5.07329986E+00
   2.67750000E+03   5.00000000E-01   5.00000000E-01   5.06256814E+00
   2.71250000E+03   5.00000000E-01   5.00000000E-01   5.05286615E+00
   2.74750000E+03   5.00000000E-01   5.00000000E-01   5.04428377E+00
   2.78250000E+03   5.00000000E-01   5.00000000E-01   5.03692893E+00
   2.81750000E+03   5.00000000E-01   5.00000000E-01   5.03093235E+00
   2.85250000E+03   5.00000000E-01   5.00000000E-01   5.02645403E+00
   2.88750000E+03   5.00000000E-01   5.00000000E-01   5.02369198E+00
   2.92250000E+03   5.00000000E-01   5.00000000E-01   5.02289454E+00
   2.95750000E+03   5.00000000E-01   5.00000000E-01   5.02437784E+00
   2.99250000E+03   5.00000000E-01   5.00000000E-01   5.02855099E+00
   3.02750000E+03   5.00000000E-01   5.00000000E-01   5.03595309E+00
   3.06250000E+03   5.00000000E-01   5.00000000E-01   5.04730853E+00
   3.09750000E+03   5.00000000E-01   5.00000000E-01   5.06360889E+00
   3.13250000E+03   5.00000000E-01   5.00000000E-01   5.08622693E+00
   3.16750000E+03   5.00000000E-01   5.00000000E-01   5.11704249E+00
   3.20250000E+03   5.00000000E-01   5.00000000E-01   5.15841305E+00
   3.23750000E+03   5.00000000E-01   5.00000000E-01   5.21232254E+00
   3.27250000E+03   5.00000000E-01   5.00000000E-01   5.27744151E+00
   3.30750000E+03   5.00000000E-01   5.00000000E-01   5.34663002E+00
   3.34250000E+03   5.00000000E-01   5.00000000E-01   5.41372196E+00
   3.37750000E+03   5.00000000E-01   5.00000000E-01   5.48117410E+00
   3.41250000E+03   5.00000000E-01   5.00000000E-01   5.55492726E+00
   3.44750000E+03   5.00000000E-01   5.00000000E-01   5.63647970E+00
   3.48250000E+03   5.00000000E-01   5.00000000E-01   5.72173455E+00
