 TITLE = "Solution pH" 
 VARIABLES = "X"          "Y"              "Z"             "pH" 
 ZONE I=          10 , J=           1 , K=           1  F=POINT
   1.75000000E+02   5.00000000E-01   5.00000000E-01   7.36163006E+00
   5.25000000E+02   5.00000000E-01   5.00000000E-01   6.82524843E+00
   8.75000000E+02   5.00000000E-01   5.00000000E-01   6.35866474E+00
   1.22500000E+03   5.00000000E-01   5.00000000E-01   5.95265649E+00
   1.57500000E+03   5.00000000E-01   5.00000000E-01   5.59582785E+00
   1.92500000E+03   5.00000000E-01   5.00000000E-01   5.28163793E+00
   2.27500000E+03   5.00000000E-01   5.00000000E-01   5.00970059E+00
   2.62500000E+03   5.00000000E-01   5.00000000E-01   4.78278195E+00
   2.97500000E+03   5.00000000E-01   5.00000000E-01   4.60344185E+00
   3.32500000E+03   5.00000000E-01   5.00000000E-01   4.47153580E+00
