 TITLE = "Solution pH" 
 VARIABLES = "X"          "Y"              "Z"             "pH" 
 ZONE I=         200 , J=           1 , K=           1  F=POINT
   8.75000000E+00   5.00000000E-01   5.00000000E-01   7.92105837E+00
   2.62500000E+01   5.00000000E-01   5.00000000E-01   7.67379138E+00
   4.37500000E+01   5.00000000E-01   5.00000000E-01   7.55038924E+00
   6.12500000E+01   5.00000000E-01   5.00000000E-01   7.46774379E+00
   7.87500000E+01   5.00000000E-01   5.00000000E-01   7.40114900E+00
   9.62500000E+01   5.00000000E-01   5.00000000E-01   7.34417584E+00
   1.13750000E+02   5.00000000E-01   5.00000000E-01   7.29368766E+00
   1.31250000E+02   5.00000000E-01   5.00000000E-01   7.24747626E+00
   1.48750000E+02   5.00000000E-01   5.00000000E-01   7.20406614E+00
   1.66250000E+02   5.00000000E-01   5.00000000E-01   7.16248290E+00
   1.83750000E+02   5.00000000E-01   5.00000000E-01   7.12208429E+00
   2.01250000E+02   5.00000000E-01   5.00000000E-01   7.08255328E+00
   2.18750000E+02   5.00000000E-01   5.00000000E-01   7.04374900E+00
   2.36250000E+02   5.00000000E-01   5.00000000E-01   7.00553303E+00
   2.53750000E+02   5.00000000E-01   5.00000000E-01   6.96787043E+00
   2.71250000E+02   5.00000000E-01   5.00000000E-01   6.93073918E+00
   2.88750000E+02   5.00000000E-01   5.00000000E-01   6.89411238E+00
   3.06250000E+02   5.00000000E-01   5.00000000E-01   6.85795910E+00
   3.23750000E+02   5.00000000E-01   5.00000000E-01   6.82224822E+00
   3.41250000E+02   5.00000000E-01   5.00000000E-01   6.78695236E+00
   3.58750000E+02   5.00000000E-01   5.00000000E-01   6.75205391E+00
   3.76250000E+02   5.00000000E-01   5.00000000E-01   6.71754317E+00
   3.93750000E+02   5.00000000E-01   5.00000000E-01   6.68341886E+00
   4.11250000E+02   5.00000000E-01   5.00000000E-01   6.64968547E+00
   4.28750000E+02   5.00000000E-01   5.00000000E-01   6.61635031E+00
   4.46250000E+02   5.00000000E-01   5.00000000E-01   6.58342285E+00
   4.63750000E+02   5.00000000E-01   5.00000000E-01   6.55091332E+00
   4.81250000E+02   5.00000000E-01   5.00000000E-01   6.51883150E+00
   4.98750000E+02   5.00000000E-01   5.00000000E-01   6.48729706E+00
   5.16250000E+02   5.00000000E-01   5.00000000E-01   6.45621444E+00
   5.33750000E+02   5.00000000E-01   5.00000000E-01   6.42556966E+00
   5.51250000E+02   5.00000000E-01   5.00000000E-01   6.39537315E+00
   5.68750000E+02   5.00000000E-01   5.00000000E-01   6.36563084E+00
   5.86250000E+02   5.00000000E-01   5.00000000E-01   6.33634166E+00
   6.03750000E+02   5.00000000E-01   5.00000000E-01   6.30749863E+00
   6.21250000E+02   5.00000000E-01   5.00000000E-01   6.27909038E+00
   6.38750000E+02   5.00000000E-01   5.00000000E-01   6.25110296E+00
   6.56250000E+02   5.00000000E-01   5.00000000E-01   6.22352158E+00
   6.73750000E+02   5.00000000E-01   5.00000000E-01   6.19633212E+00
   6.91250000E+02   5.00000000E-01   5.00000000E-01   6.16952251E+00
   7.08750000E+02   5.00000000E-01   5.00000000E-01   6.14308306E+00
   7.26250000E+02   5.00000000E-01   5.00000000E-01   6.11700650E+00
   7.43750000E+02   5.00000000E-01   5.00000000E-01   6.09128777E+00
   7.61250000E+02   5.00000000E-01   5.00000000E-01   6.06592378E+00
   7.78750000E+02   5.00000000E-01   5.00000000E-01   6.04091289E+00
   7.96250000E+02   5.00000000E-01   5.00000000E-01   6.01625432E+00
   8.13750000E+02   5.00000000E-01   5.00000000E-01   5.99194744E+00
   8.31250000E+02   5.00000000E-01   5.00000000E-01   5.96799105E+00
   8.48750000E+02   5.00000000E-01   5.00000000E-01   5.94438266E+00
   8.66250000E+02   5.00000000E-01   5.00000000E-01   5.92111784E+00
   8.83750000E+02   5.00000000E-01   5.00000000E-01   5.89823077E+00
   9.01250000E+02   5.00000000E-01   5.00000000E-01   5.87566286E+00
   9.18750000E+02   5.00000000E-01   5.00000000E-01   5.85339223E+00
   9.36250000E+02   5.00000000E-01   5.00000000E-01   5.83141267E+00
   9.53750000E+02   5.00000000E-01   5.00000000E-01   5.80971323E+00
   9.71250000E+02   5.00000000E-01   5.00000000E-01   5.78827812E+00
   9.88750000E+02   5.00000000E-01   5.00000000E-01   5.76708989E+00
   1.00625000E+03   5.00000000E-01   5.00000000E-01   5.74613208E+00
   1.02375000E+03   5.00000000E-01   5.00000000E-01   5.72539078E+00
   1.04125000E+03   5.00000000E-01   5.00000000E-01   5.70485613E+00
   1.05875000E+03   5.00000000E-01   5.00000000E-01   5.68452186E+00
   1.07625000E+03   5.00000000E-01   5.00000000E-01   5.66438492E+00
   1.09375000E+03   5.00000000E-01   5.00000000E-01   5.64444485E+00
   1.11125000E+03   5.00000000E-01   5.00000000E-01   5.62470270E+00
   1.12875000E+03   5.00000000E-01   5.00000000E-01   5.60515981E+00
   1.14625000E+03   5.00000000E-01   5.00000000E-01   5.58581635E+00
   1.16375000E+03   5.00000000E-01   5.00000000E-01   5.56667018E+00
   1.18125000E+03   5.00000000E-01   5.00000000E-01   5.54771599E+00
   1.19875000E+03   5.00000000E-01   5.00000000E-01   5.52894482E+00
   1.21625000E+03   5.00000000E-01   5.00000000E-01   5.51034379E+00
   1.23375000E+03   5.00000000E-01   5.00000000E-01   5.49189647E+00
   1.25125000E+03   5.00000000E-01   5.00000000E-01   5.47358357E+00
   1.26875000E+03   5.00000000E-01   5.00000000E-01   5.45538420E+00
   1.28625000E+03   5.00000000E-01   5.00000000E-01   5.43727676E+00
   1.30375000E+03   5.00000000E-01   5.00000000E-01   5.41924042E+00
   1.32125000E+03   5.00000000E-01   5.00000000E-01   5.40125653E+00
   1.33875000E+03   5.00000000E-01   5.00000000E-01   5.38330987E+00
   1.35625000E+03   5.00000000E-01   5.00000000E-01   5.36538949E+00
   1.37375000E+03   5.00000000E-01   5.00000000E-01   5.34748947E+00
   1.39125000E+03   5.00000000E-01   5.00000000E-01   5.32960901E+00
   1.40875000E+03   5.00000000E-01   5.00000000E-01   5.31175105E+00
   1.42625000E+03   5.00000000E-01   5.00000000E-01   5.29392216E+00
   1.44375000E+03   5.00000000E-01   5.00000000E-01   5.27613134E+00
   1.46125000E+03   5.00000000E-01   5.00000000E-01   5.25838844E+00
   1.47875000E+03   5.00000000E-01   5.00000000E-01   5.24070222E+00
   1.49625000E+03   5.00000000E-01   5.00000000E-01   5.22307815E+00
   1.51375000E+03   5.00000000E-01   5.00000000E-01   5.20551606E+00
   1.53125000E+03   5.00000000E-01   5.00000000E-01   5.18800860E+00
   1.54875000E+03   5.00000000E-01   5.00000000E-01   5.17054289E+00
   1.56625000E+03   5.00000000E-01   5.00000000E-01   5.15310967E+00
   1.58375000E+03   5.00000000E-01   5.00000000E-01   5.13572417E+00
   1.60125000E+03   5.00000000E-01   5.00000000E-01   5.11845256E+00
   1.61875000E+03   5.00000000E-01   5.00000000E-01   5.10142139E+00
   1.63625000E+03   5.00000000E-01   5.00000000E-01   5.08478447E+00
   1.65375000E+03   5.00000000E-01   5.00000000E-01   5.06865933E+00
   1.67125000E+03   5.00000000E-01   5.00000000E-01   5.05308129E+00
   1.68875000E+03   5.00000000E-01   5.00000000E-01   5.03800462E+00
   1.70625000E+03   5.00000000E-01   5.00000000E-01   5.02333589E+00
   1.72375000E+03   5.00000000E-01   5.00000000E-01   5.00897193E+00
   1.74125000E+03   5.00000000E-01   5.00000000E-01   4.99482637E+00
   1.75875000E+03   5.00000000E-01   5.00000000E-01   4.98084075E+00
   1.77625000E+03   5.00000000E-01   5.00000000E-01   4.96698318E+00
   1.79375000E+03   5.00000000E-01   5.00000000E-01   4.95324077E+00
   1.81125000E+03   5.00000000E-01   5.00000000E-01   4.93961133E+00
   1.82875000E+03   5.00000000E-01   5.00000000E-01   4.92609723E+00
   1.84625000E+03   5.00000000E-01   5.00000000E-01   4.91270179E+00
   1.86375000E+03   5.00000000E-01   5.00000000E-01   4.89942739E+00
   1.88125000E+03   5.00000000E-01   5.00000000E-01   4.88627474E+00
   1.89875000E+03   5.00000000E-01   5.00000000E-01   4.87324286E+00
   1.91625000E+03   5.00000000E-01   5.00000000E-01   4.86032960E+00
   1.93375000E+03   5.00000000E-01   5.00000000E-01   4.84753254E+00
   1.95125000E+03   5.00000000E-01   5.00000000E-01   4.83485013E+00
   1.96875000E+03   5.00000000E-01   5.00000000E-01   4.82228294E+00
   1.98625000E+03   5.00000000E-01   5.00000000E-01   4.80983316E+00
   2.00375000E+03   5.00000000E-01   5.00000000E-01   4.79750439E+00
   2.02125000E+03   5.00000000E-01   5.00000000E-01   4.78530796E+00
   2.03875000E+03   5.00000000E-01   5.00000000E-01   4.77324955E+00
   2.05625000E+03   5.00000000E-01   5.00000000E-01   4.76132774E+00
   2.07375000E+03   5.00000000E-01   5.00000000E-01   4.74953135E+00
   2.09125000E+03   5.00000000E-01   5.00000000E-01   4.73784344E+00
   2.10875000E+03   5.00000000E-01   5.00000000E-01   4.72624724E+00
   2.12625000E+03   5.00000000E-01   5.00000000E-01   4.71473195E+00
   2.14375000E+03   5.00000000E-01   5.00000000E-01   4.70329522E+00
   2.16125000E+03   5.00000000E-01   5.00000000E-01   4.69194145E+00
   2.17875000E+03   5.00000000E-01   5.00000000E-01   4.68067805E+00
   2.19625000E+03   5.00000000E-01   5.00000000E-01   4.66951179E+00
   2.21375000E+03   5.00000000E-01   5.00000000E-01   4.65844693E+00
   2.23125000E+03   5.00000000E-01   5.00000000E-01   4.64748510E+00
   2.24875000E+03   5.00000000E-01   5.00000000E-01   4.63662610E+00
   2.26625000E+03   5.00000000E-01   5.00000000E-01   4.62586868E+00
   2.28375000E+03   5.00000000E-01   5.00000000E-01   4.61521034E+00
   2.30125000E+03   5.00000000E-01   5.00000000E-01   4.60464623E+00
   2.31875000E+03   5.00000000E-01   5.00000000E-01   4.59416783E+00
   2.33625000E+03   5.00000000E-01   5.00000000E-01   4.58376485E+00
   2.35375000E+03   5.00000000E-01   5.00000000E-01   4.57343252E+00
   2.37125000E+03   5.00000000E-01   5.00000000E-01   4.56317959E+00
   2.38875000E+03   5.00000000E-01   5.00000000E-01   4.55302657E+00
   2.40625000E+03   5.00000000E-01   5.00000000E-01   4.54299427E+00
   2.42375000E+03   5.00000000E-01   5.00000000E-01   4.53309446E+00
   2.44125000E+03   5.00000000E-01   5.00000000E-01   4.52333027E+00
   2.45875000E+03   5.00000000E-01   5.00000000E-01   4.51370161E+00
   2.47625000E+03   5.00000000E-01   5.00000000E-01   4.50420916E+00
   2.49375000E+03   5.00000000E-01   5.00000000E-01   4.49485499E+00
   2.51125000E+03   5.00000000E-01   5.00000000E-01   4.48564153E+00
   2.52875000E+03   5.00000000E-01   5.00000000E-01   4.47657077E+00
   2.54625000E+03   5.00000000E-01   5.00000000E-01   4.46764430E+00
   2.56375000E+03   5.00000000E-01   5.00000000E-01   4.45886381E+00
   2.58125000E+03   5.00000000E-01   5.00000000E-01   4.45023147E+00
   2.59875000E+03   5.00000000E-01   5.00000000E-01   4.44174995E+00
   2.61625000E+03   5.00000000E-01   5.00000000E-01   4.43342211E+00
   2.63375000E+03   5.00000000E-01   5.00000000E-01   4.42525066E+00
   2.65125000E+03   5.00000000E-01   5.00000000E-01   4.41723811E+00
   2.66875000E+03   5.00000000E-01   5.00000000E-01   4.40938682E+00
   2.68625000E+03   5.00000000E-01   5.00000000E-01   4.40169912E+00
   2.70375000E+03   5.00000000E-01   5.00000000E-01   4.39417691E+00
   2.72125000E+03   5.00000000E-01   5.00000000E-01   4.38682111E+00
   2.73875000E+03   5.00000000E-01   5.00000000E-01   4.37963333E+00
   2.75625000E+03   5.00000000E-01   5.00000000E-01   4.37261903E+00
   2.77375000E+03   5.00000000E-01   5.00000000E-01   4.36578835E+00
   2.79125000E+03   5.00000000E-01   5.00000000E-01   4.35915342E+00
   2.80875000E+03   5.00000000E-01   5.00000000E-01   4.35272534E+00
   2.82625000E+03   5.00000000E-01   5.00000000E-01   4.34651294E+00
   2.84375000E+03   5.00000000E-01   5.00000000E-01   4.34052350E+00
   2.86125000E+03   5.00000000E-01   5.00000000E-01   4.33476400E+00
   2.87875000E+03   5.00000000E-01   5.00000000E-01   4.32924207E+00
   2.89625000E+03   5.00000000E-01   5.00000000E-01   4.32396644E+00
   2.91375000E+03   5.00000000E-01   5.00000000E-01   4.31893984E+00
   2.93125000E+03   5.00000000E-01   5.00000000E-01   4.31417938E+00
   2.94875000E+03   5.00000000E-01   5.00000000E-01   4.30970196E+00
   2.96625000E+03   5.00000000E-01   5.00000000E-01   4.30551958E+00
   2.98375000E+03   5.00000000E-01   5.00000000E-01   4.30164480E+00
   3.00125000E+03   5.00000000E-01   5.00000000E-01   4.29809177E+00
   3.01875000E+03   5.00000000E-01   5.00000000E-01   4.29487652E+00
   3.03625000E+03   5.00000000E-01   5.00000000E-01   4.29201715E+00
   3.05375000E+03   5.00000000E-01   5.00000000E-01   4.28953400E+00
   3.07125000E+03   5.00000000E-01   5.00000000E-01   4.28745001E+00
   3.08875000E+03   5.00000000E-01   5.00000000E-01   4.28579114E+00
   3.10625000E+03   5.00000000E-01   5.00000000E-01   4.28458677E+00
   3.12375000E+03   5.00000000E-01   5.00000000E-01   4.28387036E+00
   3.14125000E+03   5.00000000E-01   5.00000000E-01   4.28368013E+00
   3.15875000E+03   5.00000000E-01   5.00000000E-01   4.28405996E+00
   3.17625000E+03   5.00000000E-01   5.00000000E-01   4.28506050E+00
   3.19375000E+03   5.00000000E-01   5.00000000E-01   4.28674054E+00
   3.21125000E+03   5.00000000E-01   5.00000000E-01   4.28916874E+00
   3.22875000E+03   5.00000000E-01   5.00000000E-01   4.29242580E+00
   3.24625000E+03   5.00000000E-01   5.00000000E-01   4.29660724E+00
   3.26375000E+03   5.00000000E-01   5.00000000E-01   4.30182690E+00
   3.28125000E+03   5.00000000E-01   5.00000000E-01   4.30822145E+00
   3.29875000E+03   5.00000000E-01   5.00000000E-01   4.31595617E+00
   3.31625000E+03   5.00000000E-01   5.00000000E-01   4.32523213E+00
   3.33375000E+03   5.00000000E-01   5.00000000E-01   4.33629509E+00
   3.35125000E+03   5.00000000E-01   5.00000000E-01   4.34944540E+00
   3.36875000E+03   5.00000000E-01   5.00000000E-01   4.36504675E+00
   3.38625000E+03   5.00000000E-01   5.00000000E-01   4.38352685E+00
   3.40375000E+03   5.00000000E-01   5.00000000E-01   4.40535166E+00
   3.42125000E+03   5.00000000E-01   5.00000000E-01   4.43093249E+00
   3.43875000E+03   5.00000000E-01   5.00000000E-01   4.46039237E+00
   3.45625000E+03   5.00000000E-01   5.00000000E-01   4.49310851E+00
   3.47375000E+03   5.00000000E-01   5.00000000E-01   4.52710679E+00
   3.49125000E+03   5.00000000E-01   5.00000000E-01   4.55943962E+00
