 TITLE = "Solution pH" 
 VARIABLES = "X"          "Y"              "Z"             "pH" 
 ZONE I=         100 , J=           1 , K=           1  F=POINT
   1.75000000E+01   5.00000000E-01   5.00000000E-01   7.71873517E+00
   5.25000000E+01   5.00000000E-01   5.00000000E-01   7.60686603E+00
   8.75000000E+01   5.00000000E-01   5.00000000E-01   7.52266899E+00
   1.22500000E+02   5.00000000E-01   5.00000000E-01   7.44952607E+00
   1.57500000E+02   5.00000000E-01   5.00000000E-01   7.38218681E+00
   1.92500000E+02   5.00000000E-01   5.00000000E-01   7.31845318E+00
   2.27500000E+02   5.00000000E-01   5.00000000E-01   7.25723666E+00
   2.62500000E+02   5.00000000E-01   5.00000000E-01   7.19793533E+00
   2.97500000E+02   5.00000000E-01   5.00000000E-01   7.14019111E+00
   3.32500000E+02   5.00000000E-01   5.00000000E-01   7.08377916E+00
   3.67500000E+02   5.00000000E-01   5.00000000E-01   7.02855175E+00
   4.02500000E+02   5.00000000E-01   5.00000000E-01   6.97440753E+00
   4.37500000E+02   5.00000000E-01   5.00000000E-01   6.92127375E+00
   4.72500000E+02   5.00000000E-01   5.00000000E-01   6.86909557E+00
   5.07500000E+02   5.00000000E-01   5.00000000E-01   6.81782945E+00
   5.42500000E+02   5.00000000E-01   5.00000000E-01   6.76743895E+00
   5.77500000E+02   5.00000000E-01   5.00000000E-01   6.71789197E+00
   6.12500000E+02   5.00000000E-01   5.00000000E-01   6.66915907E+00
   6.47500000E+02   5.00000000E-01   5.00000000E-01   6.62121224E+00
   6.82500000E+02   5.00000000E-01   5.00000000E-01   6.57402207E+00
   7.17500000E+02   5.00000000E-01   5.00000000E-01   6.52755866E+00
   7.52500000E+02   5.00000000E-01   5.00000000E-01   6.48179461E+00
   7.87500000E+02   5.00000000E-01   5.00000000E-01   6.43670377E+00
   8.22500000E+02   5.00000000E-01   5.00000000E-01   6.39225964E+00
   8.57500000E+02   5.00000000E-01   5.00000000E-01   6.34843548E+00
   8.92500000E+02   5.00000000E-01   5.00000000E-01   6.30520453E+00
   9.27500000E+02   5.00000000E-01   5.00000000E-01   6.26254022E+00
   9.62500000E+02   5.00000000E-01   5.00000000E-01   6.22041644E+00
   9.97500000E+02   5.00000000E-01   5.00000000E-01   6.17880784E+00
   1.03250000E+03   5.00000000E-01   5.00000000E-01   6.13769010E+00
   1.06750000E+03   5.00000000E-01   5.00000000E-01   6.09704023E+00
   1.10250000E+03   5.00000000E-01   5.00000000E-01   6.05683685E+00
   1.13750000E+03   5.00000000E-01   5.00000000E-01   6.01706047E+00
   1.17250000E+03   5.00000000E-01   5.00000000E-01   5.97769371E+00
   1.20750000E+03   5.00000000E-01   5.00000000E-01   5.93872144E+00
   1.24250000E+03   5.00000000E-01   5.00000000E-01   5.90013100E+00
   1.27750000E+03   5.00000000E-01   5.00000000E-01   5.86191220E+00
   1.31250000E+03   5.00000000E-01   5.00000000E-01   5.82405733E+00
   1.34750000E+03   5.00000000E-01   5.00000000E-01   5.78656109E+00
   1.38250000E+03   5.00000000E-01   5.00000000E-01   5.74942046E+00
   1.41750000E+03   5.00000000E-01   5.00000000E-01   5.71263446E+00
   1.45250000E+03   5.00000000E-01   5.00000000E-01   5.67620392E+00
   1.48750000E+03   5.00000000E-01   5.00000000E-01   5.64013114E+00
   1.52250000E+03   5.00000000E-01   5.00000000E-01   5.60441956E+00
   1.55750000E+03   5.00000000E-01   5.00000000E-01   5.56907344E+00
   1.59250000E+03   5.00000000E-01   5.00000000E-01   5.53409750E+00
   1.62750000E+03   5.00000000E-01   5.00000000E-01   5.49949663E+00
   1.66250000E+03   5.00000000E-01   5.00000000E-01   5.46527557E+00
   1.69750000E+03   5.00000000E-01   5.00000000E-01   5.43143870E+00
   1.73250000E+03   5.00000000E-01   5.00000000E-01   5.39798984E+00
   1.76750000E+03   5.00000000E-01   5.00000000E-01   5.36493213E+00
   1.80250000E+03   5.00000000E-01   5.00000000E-01   5.33226788E+00
   1.83750000E+03   5.00000000E-01   5.00000000E-01   5.29999859E+00
   1.87250000E+03   5.00000000E-01   5.00000000E-01   5.26812487E+00
   1.90750000E+03   5.00000000E-01   5.00000000E-01   5.23664651E+00
   1.94250000E+03   5.00000000E-01   5.00000000E-01   5.20556248E+00
   1.97750000E+03   5.00000000E-01   5.00000000E-01   5.17487103E+00
   2.01250000E+03   5.00000000E-01   5.00000000E-01   5.14456974E+00
   2.04750000E+03   5.00000000E-01   5.00000000E-01   5.11465561E+00
   2.08250000E+03   5.00000000E-01   5.00000000E-01   5.08512513E+00
   2.11750000E+03   5.00000000E-01   5.00000000E-01   5.05597441E+00
   2.15250000E+03   5.00000000E-01   5.00000000E-01   5.02719919E+00
   2.18750000E+03   5.00000000E-01   5.00000000E-01   4.99879498E+00
   2.22250000E+03   5.00000000E-01   5.00000000E-01   4.97075712E+00
   2.25750000E+03   5.00000000E-01   5.00000000E-01   4.94308081E+00
   2.29250000E+03   5.00000000E-01   5.00000000E-01   4.91576122E+00
   2.32750000E+03   5.00000000E-01   5.00000000E-01   4.88879350E+00
   2.36250000E+03   5.00000000E-01   5.00000000E-01   4.86217286E+00
   2.39750000E+03   5.00000000E-01   5.00000000E-01   4.83589460E+00
   2.43250000E+03   5.00000000E-01   5.00000000E-01   4.80995414E+00
   2.46750000E+03   5.00000000E-01   5.00000000E-01   4.78434705E+00
   2.50250000E+03   5.00000000E-01   5.00000000E-01   4.75906908E+00
   2.53750000E+03   5.00000000E-01   5.00000000E-01   4.73411619E+00
   2.57250000E+03   5.00000000E-01   5.00000000E-01   4.70948455E+00
   2.60750000E+03   5.00000000E-01   5.00000000E-01   4.68517058E+00
   2.64250000E+03   5.00000000E-01   5.00000000E-01   4.66117091E+00
   2.67750000E+03   5.00000000E-01   5.00000000E-01   4.63748246E+00
   2.71250000E+03   5.00000000E-01   5.00000000E-01   4.61410239E+00
   2.74750000E+03   5.00000000E-01   5.00000000E-01   4.59102811E+00
   2.78250000E+03   5.00000000E-01   5.00000000E-01   4.56825729E+00
   2.81750000E+03   5.00000000E-01   5.00000000E-01   4.54578786E+00
   2.85250000E+03   5.00000000E-01   5.00000000E-01   4.52361801E+00
   2.88750000E+03   5.00000000E-01   5.00000000E-01   4.50174613E+00
   2.92250000E+03   5.00000000E-01   5.00000000E-01   4.48017089E+00
   2.95750000E+03   5.00000000E-01   5.00000000E-01   4.45889112E+00
   2.99250000E+03   5.00000000E-01   5.00000000E-01   4.43790589E+00
   3.02750000E+03   5.00000000E-01   5.00000000E-01   4.41721441E+00
   3.06250000E+03   5.00000000E-01   5.00000000E-01   4.39681606E+00
   3.09750000E+03   5.00000000E-01   5.00000000E-01   4.37671035E+00
   3.13250000E+03   5.00000000E-01   5.00000000E-01   4.35689687E+00
   3.16750000E+03   5.00000000E-01   5.00000000E-01   4.33737527E+00
   3.20250000E+03   5.00000000E-01   5.00000000E-01   4.31814525E+00
   3.23750000E+03   5.00000000E-01   5.00000000E-01   4.29920646E+00
   3.27250000E+03   5.00000000E-01   5.00000000E-01   4.28055853E+00
   3.30750000E+03   5.00000000E-01   5.00000000E-01   4.26220099E+00
   3.34250000E+03   5.00000000E-01   5.00000000E-01   4.24413322E+00
   3.37750000E+03   5.00000000E-01   5.00000000E-01   4.22635442E+00
   3.41250000E+03   5.00000000E-01   5.00000000E-01   4.20886356E+00
   3.44750000E+03   5.00000000E-01   5.00000000E-01   4.19165934E+00
   3.48250000E+03   5.00000000E-01   5.00000000E-01   4.17530629E+00
