 TITLE = "Solution pH" 
 VARIABLES = "X"          "Y"              "Z"             "pH" 
 ZONE I=         200 , J=           1 , K=           1  F=POINT
   8.75000000E+00   5.00000000E-01   5.00000000E-01   7.92234047E+00
   2.62500000E+01   5.00000000E-01   5.00000000E-01   7.69679714E+00
   4.37500000E+01   5.00000000E-01   5.00000000E-01   7.57320559E+00
   6.12500000E+01   5.00000000E-01   5.00000000E-01   7.48582128E+00
   7.87500000E+01   5.00000000E-01   5.00000000E-01   7.41420825E+00
   9.62500000E+01   5.00000000E-01   5.00000000E-01   7.35253211E+00
   1.13750000E+02   5.00000000E-01   5.00000000E-01   7.29796946E+00
   1.31250000E+02   5.00000000E-01   5.00000000E-01   7.24837769E+00
   1.48750000E+02   5.00000000E-01   5.00000000E-01   7.20219134E+00
   1.66250000E+02   5.00000000E-01   5.00000000E-01   7.15835223E+00
   1.83750000E+02   5.00000000E-01   5.00000000E-01   7.11617197E+00
   2.01250000E+02   5.00000000E-01   5.00000000E-01   7.07520981E+00
   2.18750000E+02   5.00000000E-01   5.00000000E-01   7.03518518E+00
   2.36250000E+02   5.00000000E-01   5.00000000E-01   6.99591974E+00
   2.53750000E+02   5.00000000E-01   5.00000000E-01   6.95730011E+00
   2.71250000E+02   5.00000000E-01   5.00000000E-01   6.91925435E+00
   2.88750000E+02   5.00000000E-01   5.00000000E-01   6.88173695E+00
   3.06250000E+02   5.00000000E-01   5.00000000E-01   6.84471934E+00
   3.23750000E+02   5.00000000E-01   5.00000000E-01   6.80818367E+00
   3.41250000E+02   5.00000000E-01   5.00000000E-01   6.77211871E+00
   3.58750000E+02   5.00000000E-01   5.00000000E-01   6.73651705E+00
   3.76250000E+02   5.00000000E-01   5.00000000E-01   6.70137313E+00
   3.93750000E+02   5.00000000E-01   5.00000000E-01   6.66668200E+00
   4.11250000E+02   5.00000000E-01   5.00000000E-01   6.63243859E+00
   4.28750000E+02   5.00000000E-01   5.00000000E-01   6.59863746E+00
   4.46250000E+02   5.00000000E-01   5.00000000E-01   6.56527297E+00
   4.63750000E+02   5.00000000E-01   5.00000000E-01   6.53233941E+00
   4.81250000E+02   5.00000000E-01   5.00000000E-01   6.49983123E+00
   4.98750000E+02   5.00000000E-01   5.00000000E-01   6.46774300E+00
   5.16250000E+02   5.00000000E-01   5.00000000E-01   6.43606921E+00
   5.33750000E+02   5.00000000E-01   5.00000000E-01   6.40480400E+00
   5.51250000E+02   5.00000000E-01   5.00000000E-01   6.37394097E+00
   5.68750000E+02   5.00000000E-01   5.00000000E-01   6.34347312E+00
   5.86250000E+02   5.00000000E-01   5.00000000E-01   6.31339306E+00
   6.03750000E+02   5.00000000E-01   5.00000000E-01   6.28369339E+00
   6.21250000E+02   5.00000000E-01   5.00000000E-01   6.25436710E+00
   6.38750000E+02   5.00000000E-01   5.00000000E-01   6.22540791E+00
   6.56250000E+02   5.00000000E-01   5.00000000E-01   6.19681043E+00
   6.73750000E+02   5.00000000E-01   5.00000000E-01   6.16857009E+00
   6.91250000E+02   5.00000000E-01   5.00000000E-01   6.14068290E+00
   7.08750000E+02   5.00000000E-01   5.00000000E-01   6.11314514E+00
   7.26250000E+02   5.00000000E-01   5.00000000E-01   6.08595311E+00
   7.43750000E+02   5.00000000E-01   5.00000000E-01   6.05910312E+00
   7.61250000E+02   5.00000000E-01   5.00000000E-01   6.03259165E+00
   7.78750000E+02   5.00000000E-01   5.00000000E-01   6.00641577E+00
   7.96250000E+02   5.00000000E-01   5.00000000E-01   5.98057369E+00
   8.13750000E+02   5.00000000E-01   5.00000000E-01   5.95506516E+00
   8.31250000E+02   5.00000000E-01   5.00000000E-01   5.92989174E+00
   8.48750000E+02   5.00000000E-01   5.00000000E-01   5.90505671E+00
   8.66250000E+02   5.00000000E-01   5.00000000E-01   5.88056470E+00
   8.83750000E+02   5.00000000E-01   5.00000000E-01   5.85642125E+00
   9.01250000E+02   5.00000000E-01   5.00000000E-01   5.83263211E+00
   9.18750000E+02   5.00000000E-01   5.00000000E-01   5.80920277E+00
   9.36250000E+02   5.00000000E-01   5.00000000E-01   5.78613795E+00
   9.53750000E+02   5.00000000E-01   5.00000000E-01   5.76344130E+00
   9.71250000E+02   5.00000000E-01   5.00000000E-01   5.74111516E+00
   9.88750000E+02   5.00000000E-01   5.00000000E-01   5.71916056E+00
   1.00625000E+03   5.00000000E-01   5.00000000E-01   5.69757714E+00
   1.02375000E+03   5.00000000E-01   5.00000000E-01   5.67636334E+00
   1.04125000E+03   5.00000000E-01   5.00000000E-01   5.65551654E+00
   1.05875000E+03   5.00000000E-01   5.00000000E-01   5.63503330E+00
   1.07625000E+03   5.00000000E-01   5.00000000E-01   5.61490953E+00
   1.09375000E+03   5.00000000E-01   5.00000000E-01   5.59514064E+00
   1.11125000E+03   5.00000000E-01   5.00000000E-01   5.57572140E+00
   1.12875000E+03   5.00000000E-01   5.00000000E-01   5.55664577E+00
   1.14625000E+03   5.00000000E-01   5.00000000E-01   5.53790630E+00
   1.16375000E+03   5.00000000E-01   5.00000000E-01   5.51949353E+00
   1.18125000E+03   5.00000000E-01   5.00000000E-01   5.50139527E+00
   1.19875000E+03   5.00000000E-01   5.00000000E-01   5.48359589E+00
   1.21625000E+03   5.00000000E-01   5.00000000E-01   5.46607575E+00
   1.23375000E+03   5.00000000E-01   5.00000000E-01   5.44881082E+00
   1.25125000E+03   5.00000000E-01   5.00000000E-01   5.43177212E+00
   1.26875000E+03   5.00000000E-01   5.00000000E-01   5.41492499E+00
   1.28625000E+03   5.00000000E-01   5.00000000E-01   5.39822732E+00
   1.30375000E+03   5.00000000E-01   5.00000000E-01   5.38162523E+00
   1.32125000E+03   5.00000000E-01   5.00000000E-01   5.36504437E+00
   1.33875000E+03   5.00000000E-01   5.00000000E-01   5.34837675E+00
   1.35625000E+03   5.00000000E-01   5.00000000E-01   5.33147717E+00
   1.37375000E+03   5.00000000E-01   5.00000000E-01   5.31421084E+00
   1.39125000E+03   5.00000000E-01   5.00000000E-01   5.29656822E+00
   1.40875000E+03   5.00000000E-01   5.00000000E-01   5.27872339E+00
   1.42625000E+03   5.00000000E-01   5.00000000E-01   5.26092049E+00
   1.44375000E+03   5.00000000E-01   5.00000000E-01   5.24332535E+00
   1.46125000E+03   5.00000000E-01   5.00000000E-01   5.22598823E+00
   1.47875000E+03   5.00000000E-01   5.00000000E-01   5.20888621E+00
   1.49625000E+03   5.00000000E-01   5.00000000E-01   5.19197466E+00
   1.51375000E+03   5.00000000E-01   5.00000000E-01   5.17521752E+00
   1.53125000E+03   5.00000000E-01   5.00000000E-01   5.15859625E+00
   1.54875000E+03   5.00000000E-01   5.00000000E-01   5.14210709E+00
   1.56625000E+03   5.00000000E-01   5.00000000E-01   5.12575498E+00
   1.58375000E+03   5.00000000E-01   5.00000000E-01   5.10954813E+00
   1.60125000E+03   5.00000000E-01   5.00000000E-01   5.09349515E+00
   1.61875000E+03   5.00000000E-01   5.00000000E-01   5.07760519E+00
   1.63625000E+03   5.00000000E-01   5.00000000E-01   5.06188939E+00
   1.65375000E+03   5.00000000E-01   5.00000000E-01   5.04636043E+00
   1.67125000E+03   5.00000000E-01   5.00000000E-01   5.03102897E+00
   1.68875000E+03   5.00000000E-01   5.00000000E-01   5.01590014E+00
   1.70625000E+03   5.00000000E-01   5.00000000E-01   5.00097299E+00
   1.72375000E+03   5.00000000E-01   5.00000000E-01   4.98624263E+00
   1.74125000E+03   5.00000000E-01   5.00000000E-01   4.97170286E+00
   1.75875000E+03   5.00000000E-01   5.00000000E-01   4.95734915E+00
   1.77625000E+03   5.00000000E-01   5.00000000E-01   4.94318169E+00
   1.79375000E+03   5.00000000E-01   5.00000000E-01   4.92920671E+00
   1.81125000E+03   5.00000000E-01   5.00000000E-01   4.91543382E+00
   1.82875000E+03   5.00000000E-01   5.00000000E-01   4.90187012E+00
   1.84625000E+03   5.00000000E-01   5.00000000E-01   4.88851563E+00
   1.86375000E+03   5.00000000E-01   5.00000000E-01   4.87536348E+00
   1.88125000E+03   5.00000000E-01   5.00000000E-01   4.86240354E+00
   1.89875000E+03   5.00000000E-01   5.00000000E-01   4.84962627E+00
   1.91625000E+03   5.00000000E-01   5.00000000E-01   4.83702444E+00
   1.93375000E+03   5.00000000E-01   5.00000000E-01   4.82459267E+00
   1.95125000E+03   5.00000000E-01   5.00000000E-01   4.81232628E+00
   1.96875000E+03   5.00000000E-01   5.00000000E-01   4.80022029E+00
   1.98625000E+03   5.00000000E-01   5.00000000E-01   4.78826918E+00
   2.00375000E+03   5.00000000E-01   5.00000000E-01   4.77646691E+00
   2.02125000E+03   5.00000000E-01   5.00000000E-01   4.76480733E+00
   2.03875000E+03   5.00000000E-01   5.00000000E-01   4.75328495E+00
   2.05625000E+03   5.00000000E-01   5.00000000E-01   4.74189597E+00
   2.07375000E+03   5.00000000E-01   5.00000000E-01   4.73063932E+00
   2.09125000E+03   5.00000000E-01   5.00000000E-01   4.71951693E+00
   2.10875000E+03   5.00000000E-01   5.00000000E-01   4.70853272E+00
   2.12625000E+03   5.00000000E-01   5.00000000E-01   4.69769051E+00
   2.14375000E+03   5.00000000E-01   5.00000000E-01   4.68699150E+00
   2.16125000E+03   5.00000000E-01   5.00000000E-01   4.67643258E+00
   2.17875000E+03   5.00000000E-01   5.00000000E-01   4.66600614E+00
   2.19625000E+03   5.00000000E-01   5.00000000E-01   4.65570149E+00
   2.21375000E+03   5.00000000E-01   5.00000000E-01   4.64550703E+00
   2.23125000E+03   5.00000000E-01   5.00000000E-01   4.63541256E+00
   2.24875000E+03   5.00000000E-01   5.00000000E-01   4.62541096E+00
   2.26625000E+03   5.00000000E-01   5.00000000E-01   4.61549914E+00
   2.28375000E+03   5.00000000E-01   5.00000000E-01   4.60567788E+00
   2.30125000E+03   5.00000000E-01   5.00000000E-01   4.59595081E+00
   2.31875000E+03   5.00000000E-01   5.00000000E-01   4.58632255E+00
   2.33625000E+03   5.00000000E-01   5.00000000E-01   4.57679678E+00
   2.35375000E+03   5.00000000E-01   5.00000000E-01   4.56737515E+00
   2.37125000E+03   5.00000000E-01   5.00000000E-01   4.55805742E+00
   2.38875000E+03   5.00000000E-01   5.00000000E-01   4.54884236E+00
   2.40625000E+03   5.00000000E-01   5.00000000E-01   4.53972896E+00
   2.42375000E+03   5.00000000E-01   5.00000000E-01   4.53071731E+00
   2.44125000E+03   5.00000000E-01   5.00000000E-01   4.52180892E+00
   2.45875000E+03   5.00000000E-01   5.00000000E-01   4.51300672E+00
   2.47625000E+03   5.00000000E-01   5.00000000E-01   4.50431461E+00
   2.49375000E+03   5.00000000E-01   5.00000000E-01   4.49573697E+00
   2.51125000E+03   5.00000000E-01   5.00000000E-01   4.48727824E+00
   2.52875000E+03   5.00000000E-01   5.00000000E-01   4.47894263E+00
   2.54625000E+03   5.00000000E-01   5.00000000E-01   4.47073424E+00
   2.56375000E+03   5.00000000E-01   5.00000000E-01   4.46265717E+00
   2.58125000E+03   5.00000000E-01   5.00000000E-01   4.45471588E+00
   2.59875000E+03   5.00000000E-01   5.00000000E-01   4.44691529E+00
   2.61625000E+03   5.00000000E-01   5.00000000E-01   4.43926101E+00
   2.63375000E+03   5.00000000E-01   5.00000000E-01   4.43175926E+00
   2.65125000E+03   5.00000000E-01   5.00000000E-01   4.42441686E+00
   2.66875000E+03   5.00000000E-01   5.00000000E-01   4.41724112E+00
   2.68625000E+03   5.00000000E-01   5.00000000E-01   4.41023971E+00
   2.70375000E+03   5.00000000E-01   5.00000000E-01   4.40342049E+00
   2.72125000E+03   5.00000000E-01   5.00000000E-01   4.39679142E+00
   2.73875000E+03   5.00000000E-01   5.00000000E-01   4.39036048E+00
   2.75625000E+03   5.00000000E-01   5.00000000E-01   4.38413575E+00
   2.77375000E+03   5.00000000E-01   5.00000000E-01   4.37812558E+00
   2.79125000E+03   5.00000000E-01   5.00000000E-01   4.37233885E+00
   2.80875000E+03   5.00000000E-01   5.00000000E-01   4.36678530E+00
   2.82625000E+03   5.00000000E-01   5.00000000E-01   4.36147568E+00
   2.84375000E+03   5.00000000E-01   5.00000000E-01   4.35642201E+00
   2.86125000E+03   5.00000000E-01   5.00000000E-01   4.35163757E+00
   2.87875000E+03   5.00000000E-01   5.00000000E-01   4.34713694E+00
   2.89625000E+03   5.00000000E-01   5.00000000E-01   4.34293595E+00
   2.91375000E+03   5.00000000E-01   5.00000000E-01   4.33905174E+00
   2.93125000E+03   5.00000000E-01   5.00000000E-01   4.33550278E+00
   2.94875000E+03   5.00000000E-01   5.00000000E-01   4.33230914E+00
   2.96625000E+03   5.00000000E-01   5.00000000E-01   4.32949277E+00
   2.98375000E+03   5.00000000E-01   5.00000000E-01   4.32707796E+00
   3.00125000E+03   5.00000000E-01   5.00000000E-01   4.32509194E+00
   3.01875000E+03   5.00000000E-01   5.00000000E-01   4.32356548E+00
   3.03625000E+03   5.00000000E-01   5.00000000E-01   4.32253366E+00
   3.05375000E+03   5.00000000E-01   5.00000000E-01   4.32203661E+00
   3.07125000E+03   5.00000000E-01   5.00000000E-01   4.32212053E+00
   3.08875000E+03   5.00000000E-01   5.00000000E-01   4.32283878E+00
   3.10625000E+03   5.00000000E-01   5.00000000E-01   4.32425338E+00
   3.12375000E+03   5.00000000E-01   5.00000000E-01   4.32643684E+00
   3.14125000E+03   5.00000000E-01   5.00000000E-01   4.32947457E+00
   3.15875000E+03   5.00000000E-01   5.00000000E-01   4.33346793E+00
   3.17625000E+03   5.00000000E-01   5.00000000E-01   4.33853819E+00
   3.19375000E+03   5.00000000E-01   5.00000000E-01   4.34483159E+00
   3.21125000E+03   5.00000000E-01   5.00000000E-01   4.35252574E+00
   3.22875000E+03   5.00000000E-01   5.00000000E-01   4.36183767E+00
   3.24625000E+03   5.00000000E-01   5.00000000E-01   4.37303339E+00
   3.26375000E+03   5.00000000E-01   5.00000000E-01   4.38643783E+00
   3.28125000E+03   5.00000000E-01   5.00000000E-01   4.40244143E+00
   3.29875000E+03   5.00000000E-01   5.00000000E-01   4.42149273E+00
   3.31625000E+03   5.00000000E-01   5.00000000E-01   4.44405206E+00
   3.33375000E+03   5.00000000E-01   5.00000000E-01   4.47045236E+00
   3.35125000E+03   5.00000000E-01   5.00000000E-01   4.50056782E+00
   3.36875000E+03   5.00000000E-01   5.00000000E-01   4.53320812E+00
   3.38625000E+03   5.00000000E-01   5.00000000E-01   4.56556222E+00
   3.40375000E+03   5.00000000E-01   5.00000000E-01   4.59383245E+00
   3.42125000E+03   5.00000000E-01   5.00000000E-01   4.61545322E+00
   3.43875000E+03   5.00000000E-01   5.00000000E-01   4.63051197E+00
   3.45625000E+03   5.00000000E-01   5.00000000E-01   4.64079630E+00
   3.47375000E+03   5.00000000E-01   5.00000000E-01   4.64822652E+00
   3.49125000E+03   5.00000000E-01   5.00000000E-01   4.65460281E+00
