 TITLE = "Solution pH" 
 VARIABLES = "X"          "Y"              "Z"             "pH" 
 ZONE I=         100 , J=           1 , K=           1  F=POINT
   1.75000000E+01   5.00000000E-01   5.00000000E-01   7.71931657E+00
   5.25000000E+01   5.00000000E-01   5.00000000E-01   7.60680324E+00
   8.75000000E+01   5.00000000E-01   5.00000000E-01   7.52220836E+00
   1.22500000E+02   5.00000000E-01   5.00000000E-01   7.44904178E+00
   1.57500000E+02   5.00000000E-01   5.00000000E-01   7.38178195E+00
   1.92500000E+02   5.00000000E-01   5.00000000E-01   7.31811150E+00
   2.27500000E+02   5.00000000E-01   5.00000000E-01   7.25693357E+00
   2.62500000E+02   5.00000000E-01   5.00000000E-01   7.19765606E+00
   2.97500000E+02   5.00000000E-01   5.00000000E-01   7.13992869E+00
   3.32500000E+02   5.00000000E-01   5.00000000E-01   7.08353119E+00
   3.67500000E+02   5.00000000E-01   5.00000000E-01   7.02831816E+00
   4.02500000E+02   5.00000000E-01   5.00000000E-01   6.97418936E+00
   4.37500000E+02   5.00000000E-01   5.00000000E-01   6.92107247E+00
   4.72500000E+02   5.00000000E-01   5.00000000E-01   6.86891272E+00
   5.07500000E+02   5.00000000E-01   5.00000000E-01   6.81766650E+00
   5.42500000E+02   5.00000000E-01   5.00000000E-01   6.76729718E+00
   5.77500000E+02   5.00000000E-01   5.00000000E-01   6.71777249E+00
   6.12500000E+02   5.00000000E-01   5.00000000E-01   6.66906277E+00
   6.47500000E+02   5.00000000E-01   5.00000000E-01   6.62113983E+00
   6.82500000E+02   5.00000000E-01   5.00000000E-01   6.57397536E+00
   7.17500000E+02   5.00000000E-01   5.00000000E-01   6.52753902E+00
   7.52500000E+02   5.00000000E-01   5.00000000E-01   6.48180189E+00
   7.87500000E+02   5.00000000E-01   5.00000000E-01   6.43673775E+00
   8.22500000E+02   5.00000000E-01   5.00000000E-01   6.39232004E+00
   8.57500000E+02   5.00000000E-01   5.00000000E-01   6.34852192E+00
   8.92500000E+02   5.00000000E-01   5.00000000E-01   6.30531654E+00
   9.27500000E+02   5.00000000E-01   5.00000000E-01   6.26267722E+00
   9.62500000E+02   5.00000000E-01   5.00000000E-01   6.22057776E+00
   9.97500000E+02   5.00000000E-01   5.00000000E-01   6.17899269E+00
   1.03250000E+03   5.00000000E-01   5.00000000E-01   6.13789758E+00
   1.06750000E+03   5.00000000E-01   5.00000000E-01   6.09726933E+00
   1.10250000E+03   5.00000000E-01   5.00000000E-01   6.05708647E+00
   1.13750000E+03   5.00000000E-01   5.00000000E-01   6.01732938E+00
   1.17250000E+03   5.00000000E-01   5.00000000E-01   5.97798060E+00
   1.20750000E+03   5.00000000E-01   5.00000000E-01   5.93902493E+00
   1.24250000E+03   5.00000000E-01   5.00000000E-01   5.90044964E+00
   1.27750000E+03   5.00000000E-01   5.00000000E-01   5.86224447E+00
   1.31250000E+03   5.00000000E-01   5.00000000E-01   5.82440169E+00
   1.34750000E+03   5.00000000E-01   5.00000000E-01   5.78691600E+00
   1.38250000E+03   5.00000000E-01   5.00000000E-01   5.74978437E+00
   1.41750000E+03   5.00000000E-01   5.00000000E-01   5.71300587E+00
   1.45250000E+03   5.00000000E-01   5.00000000E-01   5.67658136E+00
   1.48750000E+03   5.00000000E-01   5.00000000E-01   5.64051322E+00
   1.52250000E+03   5.00000000E-01   5.00000000E-01   5.60480498E+00
   1.55750000E+03   5.00000000E-01   5.00000000E-01   5.56946100E+00
   1.59250000E+03   5.00000000E-01   5.00000000E-01   5.53448613E+00
   1.62750000E+03   5.00000000E-01   5.00000000E-01   5.49988535E+00
   1.66250000E+03   5.00000000E-01   5.00000000E-01   5.46566354E+00
   1.69750000E+03   5.00000000E-01   5.00000000E-01   5.43182522E+00
   1.73250000E+03   5.00000000E-01   5.00000000E-01   5.39837432E+00
   1.76750000E+03   5.00000000E-01   5.00000000E-01   5.36531409E+00
   1.80250000E+03   5.00000000E-01   5.00000000E-01   5.33264699E+00
   1.83750000E+03   5.00000000E-01   5.00000000E-01   5.30037459E+00
   1.87250000E+03   5.00000000E-01   5.00000000E-01   5.26849762E+00
   1.90750000E+03   5.00000000E-01   5.00000000E-01   5.23701595E+00
   1.94250000E+03   5.00000000E-01   5.00000000E-01   5.20592864E+00
   1.97750000E+03   5.00000000E-01   5.00000000E-01   5.17523401E+00
   2.01250000E+03   5.00000000E-01   5.00000000E-01   5.14492970E+00
   2.04750000E+03   5.00000000E-01   5.00000000E-01   5.11501276E+00
   2.08250000E+03   5.00000000E-01   5.00000000E-01   5.08547974E+00
   2.11750000E+03   5.00000000E-01   5.00000000E-01   5.05632678E+00
   2.15250000E+03   5.00000000E-01   5.00000000E-01   5.02754966E+00
   2.18750000E+03   5.00000000E-01   5.00000000E-01   4.99914392E+00
   2.22250000E+03   5.00000000E-01   5.00000000E-01   4.97110491E+00
   2.25750000E+03   5.00000000E-01   5.00000000E-01   4.94342788E+00
   2.29250000E+03   5.00000000E-01   5.00000000E-01   4.91610799E+00
   2.32750000E+03   5.00000000E-01   5.00000000E-01   4.88914042E+00
   2.36250000E+03   5.00000000E-01   5.00000000E-01   4.86252039E+00
   2.39750000E+03   5.00000000E-01   5.00000000E-01   4.83624321E+00
   2.43250000E+03   5.00000000E-01   5.00000000E-01   4.81030432E+00
   2.46750000E+03   5.00000000E-01   5.00000000E-01   4.78469928E+00
   2.50250000E+03   5.00000000E-01   5.00000000E-01   4.75942388E+00
   2.53750000E+03   5.00000000E-01   5.00000000E-01   4.73447406E+00
   2.57250000E+03   5.00000000E-01   5.00000000E-01   4.70984603E+00
   2.60750000E+03   5.00000000E-01   5.00000000E-01   4.68553619E+00
   2.64250000E+03   5.00000000E-01   5.00000000E-01   4.66154122E+00
   2.67750000E+03   5.00000000E-01   5.00000000E-01   4.63785802E+00
   2.71250000E+03   5.00000000E-01   5.00000000E-01   4.61448378E+00
   2.74750000E+03   5.00000000E-01   5.00000000E-01   4.59141593E+00
   2.78250000E+03   5.00000000E-01   5.00000000E-01   4.56865216E+00
   2.81750000E+03   5.00000000E-01   5.00000000E-01   4.54619041E+00
   2.85250000E+03   5.00000000E-01   5.00000000E-01   4.52402890E+00
   2.88750000E+03   5.00000000E-01   5.00000000E-01   4.50216605E+00
   2.92250000E+03   5.00000000E-01   5.00000000E-01   4.48060053E+00
   2.95750000E+03   5.00000000E-01   5.00000000E-01   4.45933123E+00
   2.99250000E+03   5.00000000E-01   5.00000000E-01   4.43835723E+00
   3.02750000E+03   5.00000000E-01   5.00000000E-01   4.41767778E+00
   3.06250000E+03   5.00000000E-01   5.00000000E-01   4.39729230E+00
   3.09750000E+03   5.00000000E-01   5.00000000E-01   4.37720032E+00
   3.13250000E+03   5.00000000E-01   5.00000000E-01   4.35740146E+00
   3.16750000E+03   5.00000000E-01   5.00000000E-01   4.33789543E+00
   3.20250000E+03   5.00000000E-01   5.00000000E-01   4.31868194E+00
   3.23750000E+03   5.00000000E-01   5.00000000E-01   4.29976070E+00
   3.27250000E+03   5.00000000E-01   5.00000000E-01   4.28113138E+00
   3.30750000E+03   5.00000000E-01   5.00000000E-01   4.26279352E+00
   3.34250000E+03   5.00000000E-01   5.00000000E-01   4.24474656E+00
   3.37750000E+03   5.00000000E-01   5.00000000E-01   4.22698973E+00
   3.41250000E+03   5.00000000E-01   5.00000000E-01   4.20952203E+00
   3.44750000E+03   5.00000000E-01   5.00000000E-01   4.19234218E+00
   3.48250000E+03   5.00000000E-01   5.00000000E-01   4.17601487E+00
