 TITLE = "Solution pH" 
 VARIABLES = "X"          "Y"              "Z"             "pH" 
 ZONE I=         200 , J=           1 , K=           1  F=POINT
   8.75000000E+00   5.00000000E-01   5.00000000E-01   7.91478023E+00
   2.62500000E+01   5.00000000E-01   5.00000000E-01   7.67116630E+00
   4.37500000E+01   5.00000000E-01   5.00000000E-01   7.54874673E+00
   6.12500000E+01   5.00000000E-01   5.00000000E-01   7.46631982E+00
   7.87500000E+01   5.00000000E-01   5.00000000E-01   7.39983264E+00
   9.62500000E+01   5.00000000E-01   5.00000000E-01   7.34295863E+00
   1.13750000E+02   5.00000000E-01   5.00000000E-01   7.29254963E+00
   1.31250000E+02   5.00000000E-01   5.00000000E-01   7.24639069E+00
   1.48750000E+02   5.00000000E-01   5.00000000E-01   7.20300891E+00
   1.66250000E+02   5.00000000E-01   5.00000000E-01   7.16143592E+00
   1.83750000E+02   5.00000000E-01   5.00000000E-01   7.12103590E+00
   2.01250000E+02   5.00000000E-01   5.00000000E-01   7.08149548E+00
   2.18750000E+02   5.00000000E-01   5.00000000E-01   7.04267537E+00
   2.36250000E+02   5.00000000E-01   5.00000000E-01   7.00443909E+00
   2.53750000E+02   5.00000000E-01   5.00000000E-01   6.96675226E+00
   2.71250000E+02   5.00000000E-01   5.00000000E-01   6.92959312E+00
   2.88750000E+02   5.00000000E-01   5.00000000E-01   6.89293511E+00
   3.06250000E+02   5.00000000E-01   5.00000000E-01   6.85674784E+00
   3.23750000E+02   5.00000000E-01   5.00000000E-01   6.82100085E+00
   3.41250000E+02   5.00000000E-01   5.00000000E-01   6.78566748E+00
   3.58750000E+02   5.00000000E-01   5.00000000E-01   6.75073070E+00
   3.76250000E+02   5.00000000E-01   5.00000000E-01   6.71618127E+00
   3.93750000E+02   5.00000000E-01   5.00000000E-01   6.68201816E+00
   4.11250000E+02   5.00000000E-01   5.00000000E-01   6.64824592E+00
   4.28750000E+02   5.00000000E-01   5.00000000E-01   6.61487179E+00
   4.46250000E+02   5.00000000E-01   5.00000000E-01   6.58190502E+00
   4.63750000E+02   5.00000000E-01   5.00000000E-01   6.54935554E+00
   4.81250000E+02   5.00000000E-01   5.00000000E-01   6.51723271E+00
   4.98750000E+02   5.00000000E-01   5.00000000E-01   6.48565366E+00
   5.16250000E+02   5.00000000E-01   5.00000000E-01   6.45452329E+00
   5.33750000E+02   5.00000000E-01   5.00000000E-01   6.42382792E+00
   5.51250000E+02   5.00000000E-01   5.00000000E-01   6.39357767E+00
   5.68750000E+02   5.00000000E-01   5.00000000E-01   6.36377802E+00
   5.86250000E+02   5.00000000E-01   5.00000000E-01   6.33442743E+00
   6.03750000E+02   5.00000000E-01   5.00000000E-01   6.30551861E+00
   6.21250000E+02   5.00000000E-01   5.00000000E-01   6.27704002E+00
   6.38750000E+02   5.00000000E-01   5.00000000E-01   6.24897762E+00
   6.56250000E+02   5.00000000E-01   5.00000000E-01   6.22131668E+00
   6.73750000E+02   5.00000000E-01   5.00000000E-01   6.19404315E+00
   6.91250000E+02   5.00000000E-01   5.00000000E-01   6.16714503E+00
   7.08750000E+02   5.00000000E-01   5.00000000E-01   6.14061271E+00
   7.26250000E+02   5.00000000E-01   5.00000000E-01   6.11443893E+00
   7.43750000E+02   5.00000000E-01   5.00000000E-01   6.08861862E+00
   7.61250000E+02   5.00000000E-01   5.00000000E-01   6.06314862E+00
   7.78750000E+02   5.00000000E-01   5.00000000E-01   6.03802717E+00
   7.96250000E+02   5.00000000E-01   5.00000000E-01   6.01325336E+00
   8.13750000E+02   5.00000000E-01   5.00000000E-01   5.98882644E+00
   8.31250000E+02   5.00000000E-01   5.00000000E-01   5.96474510E+00
   8.48750000E+02   5.00000000E-01   5.00000000E-01   5.94100684E+00
   8.66250000E+02   5.00000000E-01   5.00000000E-01   5.91760731E+00
   8.83750000E+02   5.00000000E-01   5.00000000E-01   5.89458051E+00
   9.01250000E+02   5.00000000E-01   5.00000000E-01   5.87186807E+00
   9.18750000E+02   5.00000000E-01   5.00000000E-01   5.84944929E+00
   9.36250000E+02   5.00000000E-01   5.00000000E-01   5.82731927E+00
   9.53750000E+02   5.00000000E-01   5.00000000E-01   5.80546823E+00
   9.71250000E+02   5.00000000E-01   5.00000000E-01   5.78388169E+00
   9.88750000E+02   5.00000000E-01   5.00000000E-01   5.76254372E+00
   1.00625000E+03   5.00000000E-01   5.00000000E-01   5.74143957E+00
   1.02375000E+03   5.00000000E-01   5.00000000E-01   5.72055716E+00
   1.04125000E+03   5.00000000E-01   5.00000000E-01   5.69988858E+00
   1.05875000E+03   5.00000000E-01   5.00000000E-01   5.67942949E+00
   1.07625000E+03   5.00000000E-01   5.00000000E-01   5.65917881E+00
   1.09375000E+03   5.00000000E-01   5.00000000E-01   5.63913807E+00
   1.11125000E+03   5.00000000E-01   5.00000000E-01   5.61931038E+00
   1.12875000E+03   5.00000000E-01   5.00000000E-01   5.59969919E+00
   1.14625000E+03   5.00000000E-01   5.00000000E-01   5.58030690E+00
   1.16375000E+03   5.00000000E-01   5.00000000E-01   5.56113374E+00
   1.18125000E+03   5.00000000E-01   5.00000000E-01   5.54217687E+00
   1.19875000E+03   5.00000000E-01   5.00000000E-01   5.52342978E+00
   1.21625000E+03   5.00000000E-01   5.00000000E-01   5.50488198E+00
   1.23375000E+03   5.00000000E-01   5.00000000E-01   5.48651910E+00
   1.25125000E+03   5.00000000E-01   5.00000000E-01   5.46832343E+00
   1.26875000E+03   5.00000000E-01   5.00000000E-01   5.45027485E+00
   1.28625000E+03   5.00000000E-01   5.00000000E-01   5.43235148E+00
   1.30375000E+03   5.00000000E-01   5.00000000E-01   5.41453096E+00
   1.32125000E+03   5.00000000E-01   5.00000000E-01   5.39679173E+00
   1.33875000E+03   5.00000000E-01   5.00000000E-01   5.37911431E+00
   1.35625000E+03   5.00000000E-01   5.00000000E-01   5.36148227E+00
   1.37375000E+03   5.00000000E-01   5.00000000E-01   5.34388325E+00
   1.39125000E+03   5.00000000E-01   5.00000000E-01   5.32630943E+00
   1.40875000E+03   5.00000000E-01   5.00000000E-01   5.30875620E+00
   1.42625000E+03   5.00000000E-01   5.00000000E-01   5.29122229E+00
   1.44375000E+03   5.00000000E-01   5.00000000E-01   5.27370842E+00
   1.46125000E+03   5.00000000E-01   5.00000000E-01   5.25621511E+00
   1.47875000E+03   5.00000000E-01   5.00000000E-01   5.23873990E+00
   1.49625000E+03   5.00000000E-01   5.00000000E-01   5.22127422E+00
   1.51375000E+03   5.00000000E-01   5.00000000E-01   5.20380200E+00
   1.53125000E+03   5.00000000E-01   5.00000000E-01   5.18630399E+00
   1.54875000E+03   5.00000000E-01   5.00000000E-01   5.16877453E+00
   1.56625000E+03   5.00000000E-01   5.00000000E-01   5.15125240E+00
   1.58375000E+03   5.00000000E-01   5.00000000E-01   5.13384854E+00
   1.60125000E+03   5.00000000E-01   5.00000000E-01   5.11673243E+00
   1.61875000E+03   5.00000000E-01   5.00000000E-01   5.10006460E+00
   1.63625000E+03   5.00000000E-01   5.00000000E-01   5.08392435E+00
   1.65375000E+03   5.00000000E-01   5.00000000E-01   5.06829327E+00
   1.67125000E+03   5.00000000E-01   5.00000000E-01   5.05309277E+00
   1.68875000E+03   5.00000000E-01   5.00000000E-01   5.03823068E+00
   1.70625000E+03   5.00000000E-01   5.00000000E-01   5.02362835E+00
   1.72375000E+03   5.00000000E-01   5.00000000E-01   5.00922846E+00
   1.74125000E+03   5.00000000E-01   5.00000000E-01   4.99499412E+00
   1.75875000E+03   5.00000000E-01   5.00000000E-01   4.98090502E+00
   1.77625000E+03   5.00000000E-01   5.00000000E-01   4.96695256E+00
   1.79375000E+03   5.00000000E-01   5.00000000E-01   4.95313498E+00
   1.81125000E+03   5.00000000E-01   5.00000000E-01   4.93945337E+00
   1.82875000E+03   5.00000000E-01   5.00000000E-01   4.92590917E+00
   1.84625000E+03   5.00000000E-01   5.00000000E-01   4.91250287E+00
   1.86375000E+03   5.00000000E-01   5.00000000E-01   4.89923352E+00
   1.88125000E+03   5.00000000E-01   5.00000000E-01   4.88609865E+00
   1.89875000E+03   5.00000000E-01   5.00000000E-01   4.87309449E+00
   1.91625000E+03   5.00000000E-01   5.00000000E-01   4.86021660E+00
   1.93375000E+03   5.00000000E-01   5.00000000E-01   4.84746068E+00
   1.95125000E+03   5.00000000E-01   5.00000000E-01   4.83482365E+00
   1.96875000E+03   5.00000000E-01   5.00000000E-01   4.82230482E+00
   1.98625000E+03   5.00000000E-01   5.00000000E-01   4.80990521E+00
   2.00375000E+03   5.00000000E-01   5.00000000E-01   4.79762722E+00
   2.02125000E+03   5.00000000E-01   5.00000000E-01   4.78548149E+00
   2.03875000E+03   5.00000000E-01   5.00000000E-01   4.77347335E+00
   2.05625000E+03   5.00000000E-01   5.00000000E-01   4.76160145E+00
   2.07375000E+03   5.00000000E-01   5.00000000E-01   4.74985523E+00
   2.09125000E+03   5.00000000E-01   5.00000000E-01   4.73821832E+00
   2.10875000E+03   5.00000000E-01   5.00000000E-01   4.72667415E+00
   2.12625000E+03   5.00000000E-01   5.00000000E-01   4.71521162E+00
   2.14375000E+03   5.00000000E-01   5.00000000E-01   4.70382765E+00
   2.16125000E+03   5.00000000E-01   5.00000000E-01   4.69252587E+00
   2.17875000E+03   5.00000000E-01   5.00000000E-01   4.68131293E+00
   2.19625000E+03   5.00000000E-01   5.00000000E-01   4.67019502E+00
   2.21375000E+03   5.00000000E-01   5.00000000E-01   4.65917593E+00
   2.23125000E+03   5.00000000E-01   5.00000000E-01   4.64825693E+00
   2.24875000E+03   5.00000000E-01   5.00000000E-01   4.63743756E+00
   2.26625000E+03   5.00000000E-01   5.00000000E-01   4.62671644E+00
   2.28375000E+03   5.00000000E-01   5.00000000E-01   4.61609106E+00
   2.30125000E+03   5.00000000E-01   5.00000000E-01   4.60555666E+00
   2.31875000E+03   5.00000000E-01   5.00000000E-01   4.59510496E+00
   2.33625000E+03   5.00000000E-01   5.00000000E-01   4.58472588E+00
   2.35375000E+03   5.00000000E-01   5.00000000E-01   4.57441487E+00
   2.37125000E+03   5.00000000E-01   5.00000000E-01   4.56418077E+00
   2.38875000E+03   5.00000000E-01   5.00000000E-01   4.55404420E+00
   2.40625000E+03   5.00000000E-01   5.00000000E-01   4.54402596E+00
   2.42375000E+03   5.00000000E-01   5.00000000E-01   4.53413786E+00
   2.44125000E+03   5.00000000E-01   5.00000000E-01   4.52438303E+00
   2.45875000E+03   5.00000000E-01   5.00000000E-01   4.51476140E+00
   2.47625000E+03   5.00000000E-01   5.00000000E-01   4.50527366E+00
   2.49375000E+03   5.00000000E-01   5.00000000E-01   4.49592185E+00
   2.51125000E+03   5.00000000E-01   5.00000000E-01   4.48670842E+00
   2.52875000E+03   5.00000000E-01   5.00000000E-01   4.47763534E+00
   2.54625000E+03   5.00000000E-01   5.00000000E-01   4.46870424E+00
   2.56375000E+03   5.00000000E-01   5.00000000E-01   4.45991683E+00
   2.58125000E+03   5.00000000E-01   5.00000000E-01   4.45127539E+00
   2.59875000E+03   5.00000000E-01   5.00000000E-01   4.44278267E+00
   2.61625000E+03   5.00000000E-01   5.00000000E-01   4.43444158E+00
   2.63375000E+03   5.00000000E-01   5.00000000E-01   4.42625487E+00
   2.65125000E+03   5.00000000E-01   5.00000000E-01   4.41822501E+00
   2.66875000E+03   5.00000000E-01   5.00000000E-01   4.41035429E+00
   2.68625000E+03   5.00000000E-01   5.00000000E-01   4.40264498E+00
   2.70375000E+03   5.00000000E-01   5.00000000E-01   4.39509891E+00
   2.72125000E+03   5.00000000E-01   5.00000000E-01   4.38771696E+00
   2.73875000E+03   5.00000000E-01   5.00000000E-01   4.38050070E+00
   2.75625000E+03   5.00000000E-01   5.00000000E-01   4.37345553E+00
   2.77375000E+03   5.00000000E-01   5.00000000E-01   4.36659154E+00
   2.79125000E+03   5.00000000E-01   5.00000000E-01   4.35992085E+00
   2.80875000E+03   5.00000000E-01   5.00000000E-01   4.35345446E+00
   2.82625000E+03   5.00000000E-01   5.00000000E-01   4.34720114E+00
   2.84375000E+03   5.00000000E-01   5.00000000E-01   4.34116804E+00
   2.86125000E+03   5.00000000E-01   5.00000000E-01   4.33536201E+00
   2.87875000E+03   5.00000000E-01   5.00000000E-01   4.32979051E+00
   2.89625000E+03   5.00000000E-01   5.00000000E-01   4.32446208E+00
   2.91375000E+03   5.00000000E-01   5.00000000E-01   4.31937919E+00
   2.93125000E+03   5.00000000E-01   5.00000000E-01   4.31455873E+00
   2.94875000E+03   5.00000000E-01   5.00000000E-01   4.31001743E+00
   2.96625000E+03   5.00000000E-01   5.00000000E-01   4.30576697E+00
   2.98375000E+03   5.00000000E-01   5.00000000E-01   4.30181955E+00
   3.00125000E+03   5.00000000E-01   5.00000000E-01   4.29818893E+00
   3.01875000E+03   5.00000000E-01   5.00000000E-01   4.29489069E+00
   3.03625000E+03   5.00000000E-01   5.00000000E-01   4.29194237E+00
   3.05375000E+03   5.00000000E-01   5.00000000E-01   4.28936375E+00
   3.07125000E+03   5.00000000E-01   5.00000000E-01   4.28717707E+00
   3.08875000E+03   5.00000000E-01   5.00000000E-01   4.28540749E+00
   3.10625000E+03   5.00000000E-01   5.00000000E-01   4.28408348E+00
   3.12375000E+03   5.00000000E-01   5.00000000E-01   4.28323742E+00
   3.14125000E+03   5.00000000E-01   5.00000000E-01   4.28290624E+00
   3.15875000E+03   5.00000000E-01   5.00000000E-01   4.28313230E+00
   3.17625000E+03   5.00000000E-01   5.00000000E-01   4.28396445E+00
   3.19375000E+03   5.00000000E-01   5.00000000E-01   4.28545929E+00
   3.21125000E+03   5.00000000E-01   5.00000000E-01   4.28768284E+00
   3.22875000E+03   5.00000000E-01   5.00000000E-01   4.29071261E+00
   3.24625000E+03   5.00000000E-01   5.00000000E-01   4.29464021E+00
   3.26375000E+03   5.00000000E-01   5.00000000E-01   4.29957468E+00
   3.28125000E+03   5.00000000E-01   5.00000000E-01   4.30564678E+00
   3.29875000E+03   5.00000000E-01   5.00000000E-01   4.31301443E+00
   3.31625000E+03   5.00000000E-01   5.00000000E-01   4.32186972E+00
   3.33375000E+03   5.00000000E-01   5.00000000E-01   4.33244740E+00
   3.35125000E+03   5.00000000E-01   5.00000000E-01   4.34503497E+00
   3.36875000E+03   5.00000000E-01   5.00000000E-01   4.35998224E+00
   3.38625000E+03   5.00000000E-01   5.00000000E-01   4.37770541E+00
   3.40375000E+03   5.00000000E-01   5.00000000E-01   4.39867054E+00
   3.42125000E+03   5.00000000E-01   5.00000000E-01   4.42332329E+00
   3.43875000E+03   5.00000000E-01   5.00000000E-01   4.45190136E+00
   3.45625000E+03   5.00000000E-01   5.00000000E-01   4.48404182E+00
   3.47375000E+03   5.00000000E-01   5.00000000E-01   4.51817349E+00
   3.49125000E+03   5.00000000E-01   5.00000000E-01   4.55162441E+00
