 TITLE = "Solution pH" 
 VARIABLES = "X"          "Y"              "Z"             "pH" 
 ZONE I=         100 , J=           1 , K=           1  F=POINT
   1.75000000E+01   5.00000000E-01   5.00000000E-01   7.77818096E+00
   5.25000000E+01   5.00000000E-01   5.00000000E-01   7.64723897E+00
   8.75000000E+01   5.00000000E-01   5.00000000E-01   7.56780509E+00
   1.22500000E+02   5.00000000E-01   5.00000000E-01   7.50181593E+00
   1.57500000E+02   5.00000000E-01   5.00000000E-01   7.44074698E+00
   1.92500000E+02   5.00000000E-01   5.00000000E-01   7.38203197E+00
   2.27500000E+02   5.00000000E-01   5.00000000E-01   7.32477079E+00
   2.62500000E+02   5.00000000E-01   5.00000000E-01   7.26862361E+00
   2.97500000E+02   5.00000000E-01   5.00000000E-01   7.21345537E+00
   3.32500000E+02   5.00000000E-01   5.00000000E-01   7.15920910E+00
   3.67500000E+02   5.00000000E-01   5.00000000E-01   7.10585816E+00
   4.02500000E+02   5.00000000E-01   5.00000000E-01   7.05338733E+00
   4.37500000E+02   5.00000000E-01   5.00000000E-01   7.00178535E+00
   4.72500000E+02   5.00000000E-01   5.00000000E-01   6.95104192E+00
   5.07500000E+02   5.00000000E-01   5.00000000E-01   6.90114667E+00
   5.42500000E+02   5.00000000E-01   5.00000000E-01   6.85208870E+00
   5.77500000E+02   5.00000000E-01   5.00000000E-01   6.80385655E+00
   6.12500000E+02   5.00000000E-01   5.00000000E-01   6.75643816E+00
   6.47500000E+02   5.00000000E-01   5.00000000E-01   6.70982093E+00
   6.82500000E+02   5.00000000E-01   5.00000000E-01   6.66399181E+00
   7.17500000E+02   5.00000000E-01   5.00000000E-01   6.61893732E+00
   7.52500000E+02   5.00000000E-01   5.00000000E-01   6.57464365E+00
   7.87500000E+02   5.00000000E-01   5.00000000E-01   6.53109671E+00
   8.22500000E+02   5.00000000E-01   5.00000000E-01   6.48828215E+00
   8.57500000E+02   5.00000000E-01   5.00000000E-01   6.44618563E+00
   8.92500000E+02   5.00000000E-01   5.00000000E-01   6.40479267E+00
   9.27500000E+02   5.00000000E-01   5.00000000E-01   6.36408880E+00
   9.62500000E+02   5.00000000E-01   5.00000000E-01   6.32405966E+00
   9.97500000E+02   5.00000000E-01   5.00000000E-01   6.28469112E+00
   1.03250000E+03   5.00000000E-01   5.00000000E-01   6.24596937E+00
   1.06750000E+03   5.00000000E-01   5.00000000E-01   6.20788103E+00
   1.10250000E+03   5.00000000E-01   5.00000000E-01   6.17041326E+00
   1.13750000E+03   5.00000000E-01   5.00000000E-01   6.13355384E+00
   1.17250000E+03   5.00000000E-01   5.00000000E-01   6.09729129E+00
   1.20750000E+03   5.00000000E-01   5.00000000E-01   6.06161488E+00
   1.24250000E+03   5.00000000E-01   5.00000000E-01   6.02651477E+00
   1.27750000E+03   5.00000000E-01   5.00000000E-01   5.99198197E+00
   1.31250000E+03   5.00000000E-01   5.00000000E-01   5.95800842E+00
   1.34750000E+03   5.00000000E-01   5.00000000E-01   5.92458692E+00
   1.38250000E+03   5.00000000E-01   5.00000000E-01   5.89171117E+00
   1.41750000E+03   5.00000000E-01   5.00000000E-01   5.85937570E+00
   1.45250000E+03   5.00000000E-01   5.00000000E-01   5.82757581E+00
   1.48750000E+03   5.00000000E-01   5.00000000E-01   5.79630752E+00
   1.52250000E+03   5.00000000E-01   5.00000000E-01   5.76556750E+00
   1.55750000E+03   5.00000000E-01   5.00000000E-01   5.73535299E+00
   1.59250000E+03   5.00000000E-01   5.00000000E-01   5.70566176E+00
   1.62750000E+03   5.00000000E-01   5.00000000E-01   5.67649202E+00
   1.66250000E+03   5.00000000E-01   5.00000000E-01   5.64784236E+00
   1.69750000E+03   5.00000000E-01   5.00000000E-01   5.61971176E+00
   1.73250000E+03   5.00000000E-01   5.00000000E-01   5.59209953E+00
   1.76750000E+03   5.00000000E-01   5.00000000E-01   5.56500527E+00
   1.80250000E+03   5.00000000E-01   5.00000000E-01   5.53842895E+00
   1.83750000E+03   5.00000000E-01   5.00000000E-01   5.51237086E+00
   1.87250000E+03   5.00000000E-01   5.00000000E-01   5.48683163E+00
   1.90750000E+03   5.00000000E-01   5.00000000E-01   5.46181234E+00
   1.94250000E+03   5.00000000E-01   5.00000000E-01   5.43731449E+00
   1.97750000E+03   5.00000000E-01   5.00000000E-01   5.41334012E+00
   2.01250000E+03   5.00000000E-01   5.00000000E-01   5.38989185E+00
   2.04750000E+03   5.00000000E-01   5.00000000E-01   5.36697296E+00
   2.08250000E+03   5.00000000E-01   5.00000000E-01   5.34458749E+00
   2.11750000E+03   5.00000000E-01   5.00000000E-01   5.32274035E+00
   2.15250000E+03   5.00000000E-01   5.00000000E-01   5.30143741E+00
   2.18750000E+03   5.00000000E-01   5.00000000E-01   5.28068566E+00
   2.22250000E+03   5.00000000E-01   5.00000000E-01   5.26049332E+00
   2.25750000E+03   5.00000000E-01   5.00000000E-01   5.24087005E+00
   2.29250000E+03   5.00000000E-01   5.00000000E-01   5.22182709E+00
   2.32750000E+03   5.00000000E-01   5.00000000E-01   5.20337753E+00
   2.36250000E+03   5.00000000E-01   5.00000000E-01   5.18553653E+00
   2.39750000E+03   5.00000000E-01   5.00000000E-01   5.16832164E+00
   2.43250000E+03   5.00000000E-01   5.00000000E-01   5.15175315E+00
   2.46750000E+03   5.00000000E-01   5.00000000E-01   5.13585451E+00
   2.50250000E+03   5.00000000E-01   5.00000000E-01   5.12065288E+00
   2.53750000E+03   5.00000000E-01   5.00000000E-01   5.10617969E+00
   2.57250000E+03   5.00000000E-01   5.00000000E-01   5.09247144E+00
   2.60750000E+03   5.00000000E-01   5.00000000E-01   5.07957064E+00
   2.64250000E+03   5.00000000E-01   5.00000000E-01   5.06752693E+00
   2.67750000E+03   5.00000000E-01   5.00000000E-01   5.05639858E+00
   2.71250000E+03   5.00000000E-01   5.00000000E-01   5.04625433E+00
   2.74750000E+03   5.00000000E-01   5.00000000E-01   5.03717580E+00
   2.78250000E+03   5.00000000E-01   5.00000000E-01   5.02926051E+00
   2.81750000E+03   5.00000000E-01   5.00000000E-01   5.02262606E+00
   2.85250000E+03   5.00000000E-01   5.00000000E-01   5.01741552E+00
   2.88750000E+03   5.00000000E-01   5.00000000E-01   5.01380483E+00
   2.92250000E+03   5.00000000E-01   5.00000000E-01   5.01201309E+00
   2.95750000E+03   5.00000000E-01   5.00000000E-01   5.01231691E+00
   2.99250000E+03   5.00000000E-01   5.00000000E-01   5.01507110E+00
   3.02750000E+03   5.00000000E-01   5.00000000E-01   5.02073874E+00
   3.06250000E+03   5.00000000E-01   5.00000000E-01   5.02993571E+00
   3.09750000E+03   5.00000000E-01   5.00000000E-01   5.04349795E+00
   3.13250000E+03   5.00000000E-01   5.00000000E-01   5.06257911E+00
   3.16750000E+03   5.00000000E-01   5.00000000E-01   5.08878040E+00
   3.20250000E+03   5.00000000E-01   5.00000000E-01   5.12425339E+00
   3.23750000E+03   5.00000000E-01   5.00000000E-01   5.17144203E+00
   3.27250000E+03   5.00000000E-01   5.00000000E-01   5.23138931E+00
   3.30750000E+03   5.00000000E-01   5.00000000E-01   5.29995236E+00
   3.34250000E+03   5.00000000E-01   5.00000000E-01   5.36865642E+00
   3.37750000E+03   5.00000000E-01   5.00000000E-01   5.43485660E+00
   3.41250000E+03   5.00000000E-01   5.00000000E-01   5.50382352E+00
   3.44750000E+03   5.00000000E-01   5.00000000E-01   5.58035750E+00
   3.48250000E+03   5.00000000E-01   5.00000000E-01   5.66381783E+00
