 TITLE = "Solution pH" 
 VARIABLES = "X"          "Y"              "Z"             "pH" 
 ZONE I=          10 , J=           1 , K=           1  F=POINT
   1.75000000E+02   5.00000000E-01   5.00000000E-01   7.49057663E+00
   5.25000000E+02   5.00000000E-01   5.00000000E-01   6.96130801E+00
   8.75000000E+02   5.00000000E-01   5.00000000E-01   6.49895587E+00
   1.22500000E+03   5.00000000E-01   5.00000000E-01   6.09759909E+00
   1.57500000E+03   5.00000000E-01   5.00000000E-01   5.74559169E+00
   1.92500000E+03   5.00000000E-01   5.00000000E-01   5.43384880E+00
   2.27500000E+03   5.00000000E-01   5.00000000E-01   5.15977852E+00
   2.62500000E+03   5.00000000E-01   5.00000000E-01   4.92535857E+00
   2.97500000E+03   5.00000000E-01   5.00000000E-01   4.73473757E+00
   3.32500000E+03   5.00000000E-01   5.00000000E-01   4.59147720E+00
