 TITLE = "Solution pH" 
 VARIABLES = "X"          "Y"              "Z"             "pH" 
 ZONE I=         100 , J=           1 , K=           1  F=POINT
   1.75000000E+01   5.00000000E-01   5.00000000E-01   7.63892347E+00
   5.25000000E+01   5.00000000E-01   5.00000000E-01   7.51097108E+00
   8.75000000E+01   5.00000000E-01   5.00000000E-01   7.41191762E+00
   1.22500000E+02   5.00000000E-01   5.00000000E-01   7.31873307E+00
   1.57500000E+02   5.00000000E-01   5.00000000E-01   7.22860331E+00
   1.92500000E+02   5.00000000E-01   5.00000000E-01   7.14125541E+00
   2.27500000E+02   5.00000000E-01   5.00000000E-01   7.05658433E+00
   2.62500000E+02   5.00000000E-01   5.00000000E-01   6.97444199E+00
   2.97500000E+02   5.00000000E-01   5.00000000E-01   6.89466783E+00
   3.32500000E+02   5.00000000E-01   5.00000000E-01   6.81711334E+00
   3.67500000E+02   5.00000000E-01   5.00000000E-01   6.74164924E+00
   4.02500000E+02   5.00000000E-01   5.00000000E-01   6.66816467E+00
   4.37500000E+02   5.00000000E-01   5.00000000E-01   6.59656409E+00
   4.72500000E+02   5.00000000E-01   5.00000000E-01   6.52676391E+00
   5.07500000E+02   5.00000000E-01   5.00000000E-01   6.45868964E+00
   5.42500000E+02   5.00000000E-01   5.00000000E-01   6.39227380E+00
   5.77500000E+02   5.00000000E-01   5.00000000E-01   6.32745437E+00
   6.12500000E+02   5.00000000E-01   5.00000000E-01   6.26417389E+00
   6.47500000E+02   5.00000000E-01   5.00000000E-01   6.20237891E+00
   6.82500000E+02   5.00000000E-01   5.00000000E-01   6.14201981E+00
   7.17500000E+02   5.00000000E-01   5.00000000E-01   6.08305069E+00
   7.52500000E+02   5.00000000E-01   5.00000000E-01   6.02542953E+00
   7.87500000E+02   5.00000000E-01   5.00000000E-01   5.96911813E+00
   8.22500000E+02   5.00000000E-01   5.00000000E-01   5.91408219E+00
   8.57500000E+02   5.00000000E-01   5.00000000E-01   5.86029110E+00
   8.92500000E+02   5.00000000E-01   5.00000000E-01   5.80771781E+00
   9.27500000E+02   5.00000000E-01   5.00000000E-01   5.75633842E+00
   9.62500000E+02   5.00000000E-01   5.00000000E-01   5.70613181E+00
   9.97500000E+02   5.00000000E-01   5.00000000E-01   5.65707924E+00
   1.03250000E+03   5.00000000E-01   5.00000000E-01   5.60916387E+00
   1.06750000E+03   5.00000000E-01   5.00000000E-01   5.56237044E+00
   1.10250000E+03   5.00000000E-01   5.00000000E-01   5.51668494E+00
   1.13750000E+03   5.00000000E-01   5.00000000E-01   5.47209441E+00
   1.17250000E+03   5.00000000E-01   5.00000000E-01   5.42858678E+00
   1.20750000E+03   5.00000000E-01   5.00000000E-01   5.38615076E+00
   1.24250000E+03   5.00000000E-01   5.00000000E-01   5.34477578E+00
   1.27750000E+03   5.00000000E-01   5.00000000E-01   5.30445203E+00
   1.31250000E+03   5.00000000E-01   5.00000000E-01   5.26517058E+00
   1.34750000E+03   5.00000000E-01   5.00000000E-01   5.22692354E+00
   1.38250000E+03   5.00000000E-01   5.00000000E-01   5.18970422E+00
   1.41750000E+03   5.00000000E-01   5.00000000E-01   5.15350718E+00
   1.45250000E+03   5.00000000E-01   5.00000000E-01   5.11832779E+00
   1.48750000E+03   5.00000000E-01   5.00000000E-01   5.08416429E+00
   1.52250000E+03   5.00000000E-01   5.00000000E-01   5.05101887E+00
   1.55750000E+03   5.00000000E-01   5.00000000E-01   5.01889704E+00
   1.59250000E+03   5.00000000E-01   5.00000000E-01   4.98780943E+00
   1.62750000E+03   5.00000000E-01   5.00000000E-01   4.95777767E+00
   1.66250000E+03   5.00000000E-01   5.00000000E-01   4.92883685E+00
   1.69750000E+03   5.00000000E-01   5.00000000E-01   4.90103872E+00
   1.73250000E+03   5.00000000E-01   5.00000000E-01   4.87445698E+00
   1.76750000E+03   5.00000000E-01   5.00000000E-01   4.84918526E+00
   1.80250000E+03   5.00000000E-01   5.00000000E-01   4.82532201E+00
   1.83750000E+03   5.00000000E-01   5.00000000E-01   4.80294271E+00
   1.87250000E+03   5.00000000E-01   5.00000000E-01   4.78207019E+00
   1.90750000E+03   5.00000000E-01   5.00000000E-01   4.76267106E+00
   1.94250000E+03   5.00000000E-01   5.00000000E-01   4.74466029E+00
   1.97750000E+03   5.00000000E-01   5.00000000E-01   4.72789862E+00
   2.01250000E+03   5.00000000E-01   5.00000000E-01   4.71220278E+00
   2.04750000E+03   5.00000000E-01   5.00000000E-01   4.69735968E+00
   2.08250000E+03   5.00000000E-01   5.00000000E-01   4.68311134E+00
   2.11750000E+03   5.00000000E-01   5.00000000E-01   4.66912575E+00
   2.15250000E+03   5.00000000E-01   5.00000000E-01   4.65515729E+00
   2.18750000E+03   5.00000000E-01   5.00000000E-01   4.64145656E+00
   2.22250000E+03   5.00000000E-01   5.00000000E-01   4.62869275E+00
   2.25750000E+03   5.00000000E-01   5.00000000E-01   4.61731429E+00
   2.29250000E+03   5.00000000E-01   5.00000000E-01   4.60735477E+00
   2.32750000E+03   5.00000000E-01   5.00000000E-01   4.59864587E+00
   2.36250000E+03   5.00000000E-01   5.00000000E-01   4.59100442E+00
   2.39750000E+03   5.00000000E-01   5.00000000E-01   4.58430191E+00
   2.43250000E+03   5.00000000E-01   5.00000000E-01   4.57845945E+00
   2.46750000E+03   5.00000000E-01   5.00000000E-01   4.57342395E+00
   2.50250000E+03   5.00000000E-01   5.00000000E-01   4.56915039E+00
   2.53750000E+03   5.00000000E-01   5.00000000E-01   4.56559453E+00
   2.57250000E+03   5.00000000E-01   5.00000000E-01   4.56271295E+00
   2.60750000E+03   5.00000000E-01   5.00000000E-01   4.56046601E+00
   2.64250000E+03   5.00000000E-01   5.00000000E-01   4.55882056E+00
   2.67750000E+03   5.00000000E-01   5.00000000E-01   4.55775106E+00
   2.71250000E+03   5.00000000E-01   5.00000000E-01   4.55723842E+00
   2.74750000E+03   5.00000000E-01   5.00000000E-01   4.55726742E+00
   2.78250000E+03   5.00000000E-01   5.00000000E-01   4.55782446E+00
   2.81750000E+03   5.00000000E-01   5.00000000E-01   4.55889646E+00
   2.85250000E+03   5.00000000E-01   5.00000000E-01   4.56047065E+00
   2.88750000E+03   5.00000000E-01   5.00000000E-01   4.56253458E+00
   2.92250000E+03   5.00000000E-01   5.00000000E-01   4.56507586E+00
   2.95750000E+03   5.00000000E-01   5.00000000E-01   4.56808177E+00
   2.99250000E+03   5.00000000E-01   5.00000000E-01   4.57153896E+00
   3.02750000E+03   5.00000000E-01   5.00000000E-01   4.57543330E+00
   3.06250000E+03   5.00000000E-01   5.00000000E-01   4.57974981E+00
   3.09750000E+03   5.00000000E-01   5.00000000E-01   4.58447243E+00
   3.13250000E+03   5.00000000E-01   5.00000000E-01   4.58958355E+00
   3.16750000E+03   5.00000000E-01   5.00000000E-01   4.59506351E+00
   3.20250000E+03   5.00000000E-01   5.00000000E-01   4.60089006E+00
   3.23750000E+03   5.00000000E-01   5.00000000E-01   4.60703841E+00
   3.27250000E+03   5.00000000E-01   5.00000000E-01   4.61348230E+00
   3.30750000E+03   5.00000000E-01   5.00000000E-01   4.62019693E+00
   3.34250000E+03   5.00000000E-01   5.00000000E-01   4.62716378E+00
   3.37750000E+03   5.00000000E-01   5.00000000E-01   4.63437707E+00
   3.41250000E+03   5.00000000E-01   5.00000000E-01   4.64185026E+00
   3.44750000E+03   5.00000000E-01   5.00000000E-01   4.64962017E+00
   3.48250000E+03   5.00000000E-01   5.00000000E-01   4.65799577E+00
