 TITLE = "Solution pH" 
 VARIABLES = "X"          "Y"              "Z"             "pH" 
 ZONE I=         100 , J=           1 , K=           1  F=POINT
   1.75000000E+01   5.00000000E-01   5.00000000E-01   7.86681955E+00
   5.25000000E+01   5.00000000E-01   5.00000000E-01   7.70922269E+00
   8.75000000E+01   5.00000000E-01   5.00000000E-01   7.60208455E+00
   1.22500000E+02   5.00000000E-01   5.00000000E-01   7.50833765E+00
   1.57500000E+02   5.00000000E-01   5.00000000E-01   7.42006056E+00
   1.92500000E+02   5.00000000E-01   5.00000000E-01   7.33430654E+00
   2.27500000E+02   5.00000000E-01   5.00000000E-01   7.24485828E+00
   2.62500000E+02   5.00000000E-01   5.00000000E-01   7.14112856E+00
   2.97500000E+02   5.00000000E-01   5.00000000E-01   7.04941894E+00
   3.32500000E+02   5.00000000E-01   5.00000000E-01   6.97081029E+00
   3.67500000E+02   5.00000000E-01   5.00000000E-01   6.89701450E+00
   4.02500000E+02   5.00000000E-01   5.00000000E-01   6.82591102E+00
   4.37500000E+02   5.00000000E-01   5.00000000E-01   6.75690471E+00
   4.72500000E+02   5.00000000E-01   5.00000000E-01   6.68975851E+00
   5.07500000E+02   5.00000000E-01   5.00000000E-01   6.62434574E+00
   5.42500000E+02   5.00000000E-01   5.00000000E-01   6.56058354E+00
   5.77500000E+02   5.00000000E-01   5.00000000E-01   6.49841020E+00
   6.12500000E+02   5.00000000E-01   5.00000000E-01   6.43777552E+00
   6.47500000E+02   5.00000000E-01   5.00000000E-01   6.37863619E+00
   6.82500000E+02   5.00000000E-01   5.00000000E-01   6.32095325E+00
   7.17500000E+02   5.00000000E-01   5.00000000E-01   6.26469079E+00
   7.52500000E+02   5.00000000E-01   5.00000000E-01   6.20981517E+00
   7.87500000E+02   5.00000000E-01   5.00000000E-01   6.15629468E+00
   8.22500000E+02   5.00000000E-01   5.00000000E-01   6.10409928E+00
   8.57500000E+02   5.00000000E-01   5.00000000E-01   6.05320062E+00
   8.92500000E+02   5.00000000E-01   5.00000000E-01   6.00357201E+00
   9.27500000E+02   5.00000000E-01   5.00000000E-01   5.95518850E+00
   9.62500000E+02   5.00000000E-01   5.00000000E-01   5.90802699E+00
   9.97500000E+02   5.00000000E-01   5.00000000E-01   5.86206633E+00
   1.03250000E+03   5.00000000E-01   5.00000000E-01   5.81728745E+00
   1.06750000E+03   5.00000000E-01   5.00000000E-01   5.77367344E+00
   1.10250000E+03   5.00000000E-01   5.00000000E-01   5.73120964E+00
   1.13750000E+03   5.00000000E-01   5.00000000E-01   5.54683211E+00
   1.17250000E+03   5.00000000E-01   5.00000000E-01   5.56028635E+00
   1.20750000E+03   5.00000000E-01   5.00000000E-01   5.54698685E+00
   1.24250000E+03   5.00000000E-01   5.00000000E-01   5.52449238E+00
   1.27750000E+03   5.00000000E-01   5.00000000E-01   5.49827986E+00
   1.31250000E+03   5.00000000E-01   5.00000000E-01   5.47067586E+00
   1.34750000E+03   5.00000000E-01   5.00000000E-01   5.44303473E+00
   1.38250000E+03   5.00000000E-01   5.00000000E-01   5.32757650E+00
   1.41750000E+03   5.00000000E-01   5.00000000E-01   5.31385862E+00
   1.45250000E+03   5.00000000E-01   5.00000000E-01   5.29937675E+00
   1.48750000E+03   5.00000000E-01   5.00000000E-01   5.29053883E+00
   1.52250000E+03   5.00000000E-01   5.00000000E-01   5.28331800E+00
   1.55750000E+03   5.00000000E-01   5.00000000E-01   5.27105265E+00
   1.59250000E+03   5.00000000E-01   5.00000000E-01   5.25822543E+00
   1.62750000E+03   5.00000000E-01   5.00000000E-01   5.24624674E+00
   1.66250000E+03   5.00000000E-01   5.00000000E-01   5.23526181E+00
   1.69750000E+03   5.00000000E-01   5.00000000E-01   5.22665140E+00
   1.73250000E+03   5.00000000E-01   5.00000000E-01   5.22389680E+00
   1.76750000E+03   5.00000000E-01   5.00000000E-01   5.23238032E+00
   1.80250000E+03   5.00000000E-01   5.00000000E-01   5.24406085E+00
   1.83750000E+03   5.00000000E-01   5.00000000E-01   5.26463625E+00
   1.87250000E+03   5.00000000E-01   5.00000000E-01   5.30918402E+00
   1.90750000E+03   5.00000000E-01   5.00000000E-01   5.38329907E+00
   1.94250000E+03   5.00000000E-01   5.00000000E-01   5.50658553E+00
   1.97750000E+03   5.00000000E-01   5.00000000E-01   5.83692375E+00
   2.01250000E+03   5.00000000E-01   5.00000000E-01   6.40175990E+00
   2.04750000E+03   5.00000000E-01   5.00000000E-01   6.67529788E+00
   2.08250000E+03   5.00000000E-01   5.00000000E-01   6.81033974E+00
   2.11750000E+03   5.00000000E-01   5.00000000E-01   6.89384656E+00
   2.15250000E+03   5.00000000E-01   5.00000000E-01   6.95005967E+00
   2.18750000E+03   5.00000000E-01   5.00000000E-01   6.98896395E+00
   2.22250000E+03   5.00000000E-01   5.00000000E-01   7.01616110E+00
   2.25750000E+03   5.00000000E-01   5.00000000E-01   7.03519991E+00
   2.29250000E+03   5.00000000E-01   5.00000000E-01   7.04844848E+00
   2.32750000E+03   5.00000000E-01   5.00000000E-01   7.05753819E+00
   2.36250000E+03   5.00000000E-01   5.00000000E-01   7.06361975E+00
   2.39750000E+03   5.00000000E-01   5.00000000E-01   7.06752013E+00
   2.43250000E+03   5.00000000E-01   5.00000000E-01   7.06984243E+00
   2.46750000E+03   5.00000000E-01   5.00000000E-01   7.07103162E+00
   2.50250000E+03   5.00000000E-01   5.00000000E-01   7.07141869E+00
   2.53750000E+03   5.00000000E-01   5.00000000E-01   7.07125122E+00
   2.57250000E+03   5.00000000E-01   5.00000000E-01   7.07071476E+00
   2.60750000E+03   5.00000000E-01   5.00000000E-01   7.06994791E+00
   2.64250000E+03   5.00000000E-01   5.00000000E-01   7.06905310E+00
   2.67750000E+03   5.00000000E-01   5.00000000E-01   7.06810451E+00
   2.71250000E+03   5.00000000E-01   5.00000000E-01   7.06715357E+00
   2.74750000E+03   5.00000000E-01   5.00000000E-01   7.06623279E+00
   2.78250000E+03   5.00000000E-01   5.00000000E-01   7.06535951E+00
   2.81750000E+03   5.00000000E-01   5.00000000E-01   7.06453974E+00
   2.85250000E+03   5.00000000E-01   5.00000000E-01   7.06377104E+00
   2.88750000E+03   5.00000000E-01   5.00000000E-01   7.06304448E+00
   2.92250000E+03   5.00000000E-01   5.00000000E-01   7.06234592E+00
   2.95750000E+03   5.00000000E-01   5.00000000E-01   7.06165696E+00
   2.99250000E+03   5.00000000E-01   5.00000000E-01   7.06095548E+00
   3.02750000E+03   5.00000000E-01   5.00000000E-01   7.06021572E+00
   3.06250000E+03   5.00000000E-01   5.00000000E-01   7.05940839E+00
   3.09750000E+03   5.00000000E-01   5.00000000E-01   7.05850089E+00
   3.13250000E+03   5.00000000E-01   5.00000000E-01   7.05745703E+00
   3.16750000E+03   5.00000000E-01   5.00000000E-01   7.05623763E+00
   3.20250000E+03   5.00000000E-01   5.00000000E-01   7.05480075E+00
   3.23750000E+03   5.00000000E-01   5.00000000E-01   7.05310182E+00
   3.27250000E+03   5.00000000E-01   5.00000000E-01   7.05109356E+00
   3.30750000E+03   5.00000000E-01   5.00000000E-01   7.04872625E+00
   3.34250000E+03   5.00000000E-01   5.00000000E-01   7.04594828E+00
   3.37750000E+03   5.00000000E-01   5.00000000E-01   7.04270620E+00
   3.41250000E+03   5.00000000E-01   5.00000000E-01   7.03894502E+00
   3.44750000E+03   5.00000000E-01   5.00000000E-01   7.03460742E+00
   3.48250000E+03   5.00000000E-01   5.00000000E-01   7.02963513E+00
