 TITLE = "Solution pH" 
 VARIABLES = "X"          "Y"              "Z"             "pH" 
 ZONE I=         200 , J=           1 , K=           1  F=POINT
   8.75000000E+00   5.00000000E-01   5.00000000E-01   7.90979403E+00
   2.62500000E+01   5.00000000E-01   5.00000000E-01   7.66906582E+00
   4.37500000E+01   5.00000000E-01   5.00000000E-01   7.54742115E+00
   6.12500000E+01   5.00000000E-01   5.00000000E-01   7.46516720E+00
   7.87500000E+01   5.00000000E-01   5.00000000E-01   7.39876916E+00
   9.62500000E+01   5.00000000E-01   5.00000000E-01   7.34197821E+00
   1.13750000E+02   5.00000000E-01   5.00000000E-01   7.29163542E+00
   1.31250000E+02   5.00000000E-01   5.00000000E-01   7.24552032E+00
   1.48750000E+02   5.00000000E-01   5.00000000E-01   7.20216229E+00
   1.66250000E+02   5.00000000E-01   5.00000000E-01   7.16059809E+00
   1.83750000E+02   5.00000000E-01   5.00000000E-01   7.12019722E+00
   2.01250000E+02   5.00000000E-01   5.00000000E-01   7.08064939E+00
   2.18750000E+02   5.00000000E-01   5.00000000E-01   7.04181662E+00
   2.36250000E+02   5.00000000E-01   5.00000000E-01   7.00356407E+00
   2.53750000E+02   5.00000000E-01   5.00000000E-01   6.96585783E+00
   2.71250000E+02   5.00000000E-01   5.00000000E-01   6.92867636E+00
   2.88750000E+02   5.00000000E-01   5.00000000E-01   6.89199339E+00
   3.06250000E+02   5.00000000E-01   5.00000000E-01   6.85577898E+00
   3.23750000E+02   5.00000000E-01   5.00000000E-01   6.82000323E+00
   3.41250000E+02   5.00000000E-01   5.00000000E-01   6.78464005E+00
   3.58750000E+02   5.00000000E-01   5.00000000E-01   6.74967289E+00
   3.76250000E+02   5.00000000E-01   5.00000000E-01   6.71509287E+00
   3.93750000E+02   5.00000000E-01   5.00000000E-01   6.68089915E+00
   4.11250000E+02   5.00000000E-01   5.00000000E-01   6.64709635E+00
   4.28750000E+02   5.00000000E-01   5.00000000E-01   6.61369161E+00
   4.46250000E+02   5.00000000E-01   5.00000000E-01   6.58069399E+00
   4.63750000E+02   5.00000000E-01   5.00000000E-01   6.54811315E+00
   4.81250000E+02   5.00000000E-01   5.00000000E-01   6.51595815E+00
   4.98750000E+02   5.00000000E-01   5.00000000E-01   6.48434392E+00
   5.16250000E+02   5.00000000E-01   5.00000000E-01   6.45317585E+00
   5.33750000E+02   5.00000000E-01   5.00000000E-01   6.42244051E+00
   5.51250000E+02   5.00000000E-01   5.00000000E-01   6.39214775E+00
   5.68750000E+02   5.00000000E-01   5.00000000E-01   6.36230264E+00
   5.86250000E+02   5.00000000E-01   5.00000000E-01   6.33290331E+00
   6.03750000E+02   5.00000000E-01   5.00000000E-01   6.30394220E+00
   6.21250000E+02   5.00000000E-01   5.00000000E-01   6.27540764E+00
   6.38750000E+02   5.00000000E-01   5.00000000E-01   6.24728555E+00
   6.56250000E+02   5.00000000E-01   5.00000000E-01   6.21956121E+00
   6.73750000E+02   5.00000000E-01   5.00000000E-01   6.19222064E+00
   6.91250000E+02   5.00000000E-01   5.00000000E-01   6.16525194E+00
   7.08750000E+02   5.00000000E-01   5.00000000E-01   6.13864552E+00
   7.26250000E+02   5.00000000E-01   5.00000000E-01   6.11239413E+00
   7.43750000E+02   5.00000000E-01   5.00000000E-01   6.08649269E+00
   7.61250000E+02   5.00000000E-01   5.00000000E-01   6.06093794E+00
   7.78750000E+02   5.00000000E-01   5.00000000E-01   6.03572802E+00
   7.96250000E+02   5.00000000E-01   5.00000000E-01   6.01086188E+00
   8.13750000E+02   5.00000000E-01   5.00000000E-01   5.98633864E+00
   8.31250000E+02   5.00000000E-01   5.00000000E-01   5.96215686E+00
   8.48750000E+02   5.00000000E-01   5.00000000E-01   5.93831398E+00
   8.66250000E+02   5.00000000E-01   5.00000000E-01   5.91480566E+00
   8.83750000E+02   5.00000000E-01   5.00000000E-01   5.89166558E+00
   9.01250000E+02   5.00000000E-01   5.00000000E-01   5.86883560E+00
   9.18750000E+02   5.00000000E-01   5.00000000E-01   5.84629597E+00
   9.36250000E+02   5.00000000E-01   5.00000000E-01   5.82404265E+00
   9.53750000E+02   5.00000000E-01   5.00000000E-01   5.80206672E+00
   9.71250000E+02   5.00000000E-01   5.00000000E-01   5.78035462E+00
   9.88750000E+02   5.00000000E-01   5.00000000E-01   5.75889150E+00
   1.00625000E+03   5.00000000E-01   5.00000000E-01   5.73766384E+00
   1.02375000E+03   5.00000000E-01   5.00000000E-01   5.71666089E+00
   1.04125000E+03   5.00000000E-01   5.00000000E-01   5.69587609E+00
   1.05875000E+03   5.00000000E-01   5.00000000E-01   5.67530647E+00
   1.07625000E+03   5.00000000E-01   5.00000000E-01   5.65495230E+00
   1.09375000E+03   5.00000000E-01   5.00000000E-01   5.63481646E+00
   1.11125000E+03   5.00000000E-01   5.00000000E-01   5.61490345E+00
   1.12875000E+03   5.00000000E-01   5.00000000E-01   5.59521818E+00
   1.14625000E+03   5.00000000E-01   5.00000000E-01   5.57576466E+00
   1.16375000E+03   5.00000000E-01   5.00000000E-01   5.55654483E+00
   1.18125000E+03   5.00000000E-01   5.00000000E-01   5.53755776E+00
   1.19875000E+03   5.00000000E-01   5.00000000E-01   5.51879900E+00
   1.21625000E+03   5.00000000E-01   5.00000000E-01   5.50026021E+00
   1.23375000E+03   5.00000000E-01   5.00000000E-01   5.48192915E+00
   1.25125000E+03   5.00000000E-01   5.00000000E-01   5.46379008E+00
   1.26875000E+03   5.00000000E-01   5.00000000E-01   5.44582448E+00
   1.28625000E+03   5.00000000E-01   5.00000000E-01   5.42801149E+00
   1.30375000E+03   5.00000000E-01   5.00000000E-01   5.41032892E+00
   1.32125000E+03   5.00000000E-01   5.00000000E-01   5.39275440E+00
   1.33875000E+03   5.00000000E-01   5.00000000E-01   5.37526642E+00
   1.35625000E+03   5.00000000E-01   5.00000000E-01   5.35784530E+00
   1.37375000E+03   5.00000000E-01   5.00000000E-01   5.34047417E+00
   1.39125000E+03   5.00000000E-01   5.00000000E-01   5.32313950E+00
   1.40875000E+03   5.00000000E-01   5.00000000E-01   5.30582953E+00
   1.42625000E+03   5.00000000E-01   5.00000000E-01   5.28853433E+00
   1.44375000E+03   5.00000000E-01   5.00000000E-01   5.27124385E+00
   1.46125000E+03   5.00000000E-01   5.00000000E-01   5.25394502E+00
   1.47875000E+03   5.00000000E-01   5.00000000E-01   5.23661834E+00
   1.49625000E+03   5.00000000E-01   5.00000000E-01   5.21923681E+00
   1.51375000E+03   5.00000000E-01   5.00000000E-01   5.20177259E+00
   1.53125000E+03   5.00000000E-01   5.00000000E-01   5.18421976E+00
   1.54875000E+03   5.00000000E-01   5.00000000E-01   5.16663160E+00
   1.56625000E+03   5.00000000E-01   5.00000000E-01   5.14914502E+00
   1.58375000E+03   5.00000000E-01   5.00000000E-01   5.13194976E+00
   1.60125000E+03   5.00000000E-01   5.00000000E-01   5.11520558E+00
   1.61875000E+03   5.00000000E-01   5.00000000E-01   5.09897584E+00
   1.63625000E+03   5.00000000E-01   5.00000000E-01   5.08322698E+00
   1.65375000E+03   5.00000000E-01   5.00000000E-01   5.06787465E+00
   1.67125000E+03   5.00000000E-01   5.00000000E-01   5.05283045E+00
   1.68875000E+03   5.00000000E-01   5.00000000E-01   5.03802599E+00
   1.70625000E+03   5.00000000E-01   5.00000000E-01   5.02341669E+00
   1.72375000E+03   5.00000000E-01   5.00000000E-01   5.00897642E+00
   1.74125000E+03   5.00000000E-01   5.00000000E-01   4.99469148E+00
   1.75875000E+03   5.00000000E-01   5.00000000E-01   4.98055604E+00
   1.77625000E+03   5.00000000E-01   5.00000000E-01   4.96656891E+00
   1.79375000E+03   5.00000000E-01   5.00000000E-01   4.95273095E+00
   1.81125000E+03   5.00000000E-01   5.00000000E-01   4.93904315E+00
   1.82875000E+03   5.00000000E-01   5.00000000E-01   4.92550552E+00
   1.84625000E+03   5.00000000E-01   5.00000000E-01   4.91211664E+00
   1.86375000E+03   5.00000000E-01   5.00000000E-01   4.89887364E+00
   1.88125000E+03   5.00000000E-01   5.00000000E-01   4.88577228E+00
   1.89875000E+03   5.00000000E-01   5.00000000E-01   4.87280730E+00
   1.91625000E+03   5.00000000E-01   5.00000000E-01   4.85997300E+00
   1.93375000E+03   5.00000000E-01   5.00000000E-01   4.84726402E+00
   1.95125000E+03   5.00000000E-01   5.00000000E-01   4.83467641E+00
   1.96875000E+03   5.00000000E-01   5.00000000E-01   4.82220867E+00
   1.98625000E+03   5.00000000E-01   5.00000000E-01   4.80986094E+00
   2.00375000E+03   5.00000000E-01   5.00000000E-01   4.79763471E+00
   2.02125000E+03   5.00000000E-01   5.00000000E-01   4.78554001E+00
   2.03875000E+03   5.00000000E-01   5.00000000E-01   4.77358198E+00
   2.05625000E+03   5.00000000E-01   5.00000000E-01   4.76175934E+00
   2.07375000E+03   5.00000000E-01   5.00000000E-01   4.75006218E+00
   2.09125000E+03   5.00000000E-01   5.00000000E-01   4.73847473E+00
   2.10875000E+03   5.00000000E-01   5.00000000E-01   4.72698070E+00
   2.12625000E+03   5.00000000E-01   5.00000000E-01   4.71556878E+00
   2.14375000E+03   5.00000000E-01   5.00000000E-01   4.70423534E+00
   2.16125000E+03   5.00000000E-01   5.00000000E-01   4.69298328E+00
   2.17875000E+03   5.00000000E-01   5.00000000E-01   4.68181856E+00
   2.19625000E+03   5.00000000E-01   5.00000000E-01   4.67074677E+00
   2.21375000E+03   5.00000000E-01   5.00000000E-01   4.65977123E+00
   2.23125000E+03   5.00000000E-01   5.00000000E-01   4.64889279E+00
   2.24875000E+03   5.00000000E-01   5.00000000E-01   4.63811077E+00
   2.26625000E+03   5.00000000E-01   5.00000000E-01   4.62742362E+00
   2.28375000E+03   5.00000000E-01   5.00000000E-01   4.61682887E+00
   2.30125000E+03   5.00000000E-01   5.00000000E-01   4.60632192E+00
   2.31875000E+03   5.00000000E-01   5.00000000E-01   4.59589478E+00
   2.33625000E+03   5.00000000E-01   5.00000000E-01   4.58553770E+00
   2.35375000E+03   5.00000000E-01   5.00000000E-01   4.57524635E+00
   2.37125000E+03   5.00000000E-01   5.00000000E-01   4.56502972E+00
   2.38875000E+03   5.00000000E-01   5.00000000E-01   4.55490845E+00
   2.40625000E+03   5.00000000E-01   5.00000000E-01   4.54490335E+00
   2.42375000E+03   5.00000000E-01   5.00000000E-01   4.53502623E+00
   2.44125000E+03   5.00000000E-01   5.00000000E-01   4.52528018E+00
   2.45875000E+03   5.00000000E-01   5.00000000E-01   4.51566516E+00
   2.47625000E+03   5.00000000E-01   5.00000000E-01   4.50618183E+00
   2.49375000E+03   5.00000000E-01   5.00000000E-01   4.49683226E+00
   2.51125000E+03   5.00000000E-01   5.00000000E-01   4.48761885E+00
   2.52875000E+03   5.00000000E-01   5.00000000E-01   4.47854359E+00
   2.54625000E+03   5.00000000E-01   5.00000000E-01   4.46960812E+00
   2.56375000E+03   5.00000000E-01   5.00000000E-01   4.46081422E+00
   2.58125000E+03   5.00000000E-01   5.00000000E-01   4.45216424E+00
   2.59875000E+03   5.00000000E-01   5.00000000E-01   4.44366101E+00
   2.61625000E+03   5.00000000E-01   5.00000000E-01   4.43530752E+00
   2.63375000E+03   5.00000000E-01   5.00000000E-01   4.42710655E+00
   2.65125000E+03   5.00000000E-01   5.00000000E-01   4.41906054E+00
   2.66875000E+03   5.00000000E-01   5.00000000E-01   4.41117175E+00
   2.68625000E+03   5.00000000E-01   5.00000000E-01   4.40344238E+00
   2.70375000E+03   5.00000000E-01   5.00000000E-01   4.39587423E+00
   2.72125000E+03   5.00000000E-01   5.00000000E-01   4.38846817E+00
   2.73875000E+03   5.00000000E-01   5.00000000E-01   4.38122569E+00
   2.75625000E+03   5.00000000E-01   5.00000000E-01   4.37415217E+00
   2.77375000E+03   5.00000000E-01   5.00000000E-01   4.36725765E+00
   2.79125000E+03   5.00000000E-01   5.00000000E-01   4.36055419E+00
   2.80875000E+03   5.00000000E-01   5.00000000E-01   4.35405274E+00
   2.82625000E+03   5.00000000E-01   5.00000000E-01   4.34776197E+00
   2.84375000E+03   5.00000000E-01   5.00000000E-01   4.34168893E+00
   2.86125000E+03   5.00000000E-01   5.00000000E-01   4.33584032E+00
   2.87875000E+03   5.00000000E-01   5.00000000E-01   4.33022346E+00
   2.89625000E+03   5.00000000E-01   5.00000000E-01   4.32484671E+00
   2.91375000E+03   5.00000000E-01   5.00000000E-01   4.31971227E+00
   2.93125000E+03   5.00000000E-01   5.00000000E-01   4.31483684E+00
   2.94875000E+03   5.00000000E-01   5.00000000E-01   4.31023695E+00
   2.96625000E+03   5.00000000E-01   5.00000000E-01   4.30592402E+00
   2.98375000E+03   5.00000000E-01   5.00000000E-01   4.30190990E+00
   3.00125000E+03   5.00000000E-01   5.00000000E-01   4.29820798E+00
   3.01875000E+03   5.00000000E-01   5.00000000E-01   4.29483339E+00
   3.03625000E+03   5.00000000E-01   5.00000000E-01   4.29180319E+00
   3.05375000E+03   5.00000000E-01   5.00000000E-01   4.28913659E+00
   3.07125000E+03   5.00000000E-01   5.00000000E-01   4.28685520E+00
   3.08875000E+03   5.00000000E-01   5.00000000E-01   4.28498343E+00
   3.10625000E+03   5.00000000E-01   5.00000000E-01   4.28354889E+00
   3.12375000E+03   5.00000000E-01   5.00000000E-01   4.28258295E+00
   3.14125000E+03   5.00000000E-01   5.00000000E-01   4.28212134E+00
   3.15875000E+03   5.00000000E-01   5.00000000E-01   4.28220503E+00
   3.17625000E+03   5.00000000E-01   5.00000000E-01   4.28288115E+00
   3.19375000E+03   5.00000000E-01   5.00000000E-01   4.28420430E+00
   3.21125000E+03   5.00000000E-01   5.00000000E-01   4.28623805E+00
   3.22875000E+03   5.00000000E-01   5.00000000E-01   4.28905697E+00
   3.24625000E+03   5.00000000E-01   5.00000000E-01   4.29274904E+00
   3.26375000E+03   5.00000000E-01   5.00000000E-01   4.29741887E+00
   3.28125000E+03   5.00000000E-01   5.00000000E-01   4.30319174E+00
   3.29875000E+03   5.00000000E-01   5.00000000E-01   4.31021879E+00
   3.31625000E+03   5.00000000E-01   5.00000000E-01   4.31868372E+00
   3.33375000E+03   5.00000000E-01   5.00000000E-01   4.32881103E+00
   3.35125000E+03   5.00000000E-01   5.00000000E-01   4.34087591E+00
   3.36875000E+03   5.00000000E-01   5.00000000E-01   4.35521451E+00
   3.38625000E+03   5.00000000E-01   5.00000000E-01   4.37223017E+00
   3.40375000E+03   5.00000000E-01   5.00000000E-01   4.39238404E+00
   3.42125000E+03   5.00000000E-01   5.00000000E-01   4.41614239E+00
   3.43875000E+03   5.00000000E-01   5.00000000E-01   4.44382750E+00
   3.45625000E+03   5.00000000E-01   5.00000000E-01   4.47528761E+00
   3.47375000E+03   5.00000000E-01   5.00000000E-01   4.50932267E+00
   3.49125000E+03   5.00000000E-01   5.00000000E-01   4.54360971E+00
