 TITLE = "Solution pH" 
 VARIABLES = "X"          "Y"              "Z"             "pH" 
 ZONE I=         100 , J=           1 , K=           1  F=POINT
   1.75000000E+01   5.00000000E-01   5.00000000E-01   7.87530151E+00
   5.25000000E+01   5.00000000E-01   5.00000000E-01   7.71311342E+00
   8.75000000E+01   5.00000000E-01   5.00000000E-01   7.60477401E+00
   1.22500000E+02   5.00000000E-01   5.00000000E-01   7.51062305E+00
   1.57500000E+02   5.00000000E-01   5.00000000E-01   7.42221283E+00
   1.92500000E+02   5.00000000E-01   5.00000000E-01   7.33691512E+00
   2.27500000E+02   5.00000000E-01   5.00000000E-01   7.25206143E+00
   2.62500000E+02   5.00000000E-01   5.00000000E-01   7.15688686E+00
   2.97500000E+02   5.00000000E-01   5.00000000E-01   7.05590141E+00
   3.32500000E+02   5.00000000E-01   5.00000000E-01   6.97280939E+00
   3.67500000E+02   5.00000000E-01   5.00000000E-01   6.89781197E+00
   4.02500000E+02   5.00000000E-01   5.00000000E-01   6.82623047E+00
   4.37500000E+02   5.00000000E-01   5.00000000E-01   6.75693779E+00
   4.72500000E+02   5.00000000E-01   5.00000000E-01   6.68957046E+00
   5.07500000E+02   5.00000000E-01   5.00000000E-01   6.62396328E+00
   5.42500000E+02   5.00000000E-01   5.00000000E-01   6.56001854E+00
   5.77500000E+02   5.00000000E-01   5.00000000E-01   6.49766745E+00
   6.12500000E+02   5.00000000E-01   5.00000000E-01   6.43685587E+00
   6.47500000E+02   5.00000000E-01   5.00000000E-01   6.37753793E+00
   6.82500000E+02   5.00000000E-01   5.00000000E-01   6.31967287E+00
   7.17500000E+02   5.00000000E-01   5.00000000E-01   6.26322332E+00
   7.52500000E+02   5.00000000E-01   5.00000000E-01   6.20815441E+00
   7.87500000E+02   5.00000000E-01   5.00000000E-01   6.15443331E+00
   8.22500000E+02   5.00000000E-01   5.00000000E-01   6.10202895E+00
   8.57500000E+02   5.00000000E-01   5.00000000E-01   6.05091193E+00
   8.92500000E+02   5.00000000E-01   5.00000000E-01   6.00105452E+00
   9.27500000E+02   5.00000000E-01   5.00000000E-01   5.95243072E+00
   9.62500000E+02   5.00000000E-01   5.00000000E-01   5.90501632E+00
   9.97500000E+02   5.00000000E-01   5.00000000E-01   5.85878899E+00
   1.03250000E+03   5.00000000E-01   5.00000000E-01   5.81372839E+00
   1.06750000E+03   5.00000000E-01   5.00000000E-01   5.76981626E+00
   1.10250000E+03   5.00000000E-01   5.00000000E-01   5.72703645E+00
   1.13750000E+03   5.00000000E-01   5.00000000E-01   5.54050579E+00
   1.17250000E+03   5.00000000E-01   5.00000000E-01   5.55477195E+00
   1.20750000E+03   5.00000000E-01   5.00000000E-01   5.54142044E+00
   1.24250000E+03   5.00000000E-01   5.00000000E-01   5.51874835E+00
   1.27750000E+03   5.00000000E-01   5.00000000E-01   5.49225971E+00
   1.31250000E+03   5.00000000E-01   5.00000000E-01   5.46430555E+00
   1.34750000E+03   5.00000000E-01   5.00000000E-01   5.43621378E+00
   1.38250000E+03   5.00000000E-01   5.00000000E-01   5.31757148E+00
   1.41750000E+03   5.00000000E-01   5.00000000E-01   5.30256881E+00
   1.45250000E+03   5.00000000E-01   5.00000000E-01   5.28678912E+00
   1.48750000E+03   5.00000000E-01   5.00000000E-01   5.27263077E+00
   1.52250000E+03   5.00000000E-01   5.00000000E-01   5.26798226E+00
   1.55750000E+03   5.00000000E-01   5.00000000E-01   5.25612759E+00
   1.59250000E+03   5.00000000E-01   5.00000000E-01   5.24273506E+00
   1.62750000E+03   5.00000000E-01   5.00000000E-01   5.22991191E+00
   1.66250000E+03   5.00000000E-01   5.00000000E-01   5.21830346E+00
   1.69750000E+03   5.00000000E-01   5.00000000E-01   5.20834562E+00
   1.73250000E+03   5.00000000E-01   5.00000000E-01   5.19943567E+00
   1.76750000E+03   5.00000000E-01   5.00000000E-01   5.20002860E+00
   1.80250000E+03   5.00000000E-01   5.00000000E-01   5.21039258E+00
   1.83750000E+03   5.00000000E-01   5.00000000E-01   5.22181604E+00
   1.87250000E+03   5.00000000E-01   5.00000000E-01   5.24861989E+00
   1.90750000E+03   5.00000000E-01   5.00000000E-01   5.29845753E+00
   1.94250000E+03   5.00000000E-01   5.00000000E-01   5.37764931E+00
   1.97750000E+03   5.00000000E-01   5.00000000E-01   5.52177346E+00
   2.01250000E+03   5.00000000E-01   5.00000000E-01   5.91456652E+00
   2.04750000E+03   5.00000000E-01   5.00000000E-01   6.44520337E+00
   2.08250000E+03   5.00000000E-01   5.00000000E-01   6.67117565E+00
   2.11750000E+03   5.00000000E-01   5.00000000E-01   6.78872137E+00
   2.15250000E+03   5.00000000E-01   5.00000000E-01   6.86391226E+00
   2.18750000E+03   5.00000000E-01   5.00000000E-01   6.91550453E+00
   2.22250000E+03   5.00000000E-01   5.00000000E-01   6.95179813E+00
   2.25750000E+03   5.00000000E-01   5.00000000E-01   6.97761814E+00
   2.29250000E+03   5.00000000E-01   5.00000000E-01   6.99606954E+00
   2.32750000E+03   5.00000000E-01   5.00000000E-01   7.00924433E+00
   2.36250000E+03   5.00000000E-01   5.00000000E-01   7.01859462E+00
   2.39750000E+03   5.00000000E-01   5.00000000E-01   7.02515139E+00
   2.43250000E+03   5.00000000E-01   5.00000000E-01   7.02965976E+00
   2.46750000E+03   5.00000000E-01   5.00000000E-01   7.03266596E+00
   2.50250000E+03   5.00000000E-01   5.00000000E-01   7.03457469E+00
   2.53750000E+03   5.00000000E-01   5.00000000E-01   7.03568814E+00
   2.57250000E+03   5.00000000E-01   5.00000000E-01   7.03623301E+00
   2.60750000E+03   5.00000000E-01   5.00000000E-01   7.03637937E+00
   2.64250000E+03   5.00000000E-01   5.00000000E-01   7.03625398E+00
   2.67750000E+03   5.00000000E-01   5.00000000E-01   7.03595006E+00
   2.71250000E+03   5.00000000E-01   5.00000000E-01   7.03553405E+00
   2.74750000E+03   5.00000000E-01   5.00000000E-01   7.03505036E+00
   2.78250000E+03   5.00000000E-01   5.00000000E-01   7.03452580E+00
   2.81750000E+03   5.00000000E-01   5.00000000E-01   7.03397391E+00
   2.85250000E+03   5.00000000E-01   5.00000000E-01   7.03339832E+00
   2.88750000E+03   5.00000000E-01   5.00000000E-01   7.03279497E+00
   2.92250000E+03   5.00000000E-01   5.00000000E-01   7.03215366E+00
   2.95750000E+03   5.00000000E-01   5.00000000E-01   7.03145926E+00
   2.99250000E+03   5.00000000E-01   5.00000000E-01   7.03069232E+00
   3.02750000E+03   5.00000000E-01   5.00000000E-01   7.02982939E+00
   3.06250000E+03   5.00000000E-01   5.00000000E-01   7.02884313E+00
   3.09750000E+03   5.00000000E-01   5.00000000E-01   7.02770274E+00
   3.13250000E+03   5.00000000E-01   5.00000000E-01   7.02637365E+00
   3.16750000E+03   5.00000000E-01   5.00000000E-01   7.02481827E+00
   3.20250000E+03   5.00000000E-01   5.00000000E-01   7.02299629E+00
   3.23750000E+03   5.00000000E-01   5.00000000E-01   7.02086488E+00
   3.27250000E+03   5.00000000E-01   5.00000000E-01   7.01837868E+00
   3.30750000E+03   5.00000000E-01   5.00000000E-01   7.01549014E+00
   3.34250000E+03   5.00000000E-01   5.00000000E-01   7.01215018E+00
   3.37750000E+03   5.00000000E-01   5.00000000E-01   7.00830832E+00
   3.41250000E+03   5.00000000E-01   5.00000000E-01   7.00391307E+00
   3.44750000E+03   5.00000000E-01   5.00000000E-01   6.99891121E+00
   3.48250000E+03   5.00000000E-01   5.00000000E-01   6.99332048E+00
