 TITLE = "Solution pH" 
 VARIABLES = "X"          "Y"              "Z"             "pH" 
 ZONE I=         100 , J=           1 , K=           1  F=POINT
   1.75000000E+01   5.00000000E-01   5.00000000E-01   7.72533492E+00
   5.25000000E+01   5.00000000E-01   5.00000000E-01   7.61109432E+00
   8.75000000E+01   5.00000000E-01   5.00000000E-01   7.52470346E+00
   1.22500000E+02   5.00000000E-01   5.00000000E-01   7.44979573E+00
   1.57500000E+02   5.00000000E-01   5.00000000E-01   7.38114034E+00
   1.92500000E+02   5.00000000E-01   5.00000000E-01   7.31645055E+00
   2.27500000E+02   5.00000000E-01   5.00000000E-01   7.25455400E+00
   2.62500000E+02   5.00000000E-01   5.00000000E-01   7.19478555E+00
   2.97500000E+02   5.00000000E-01   5.00000000E-01   7.13673994E+00
   3.32500000E+02   5.00000000E-01   5.00000000E-01   7.08012466E+00
   3.67500000E+02   5.00000000E-01   5.00000000E-01   7.02503265E+00
   4.02500000E+02   5.00000000E-01   5.00000000E-01   6.97137450E+00
   4.37500000E+02   5.00000000E-01   5.00000000E-01   6.91872438E+00
   4.72500000E+02   5.00000000E-01   5.00000000E-01   6.86697559E+00
   5.07500000E+02   5.00000000E-01   5.00000000E-01   6.81609227E+00
   5.42500000E+02   5.00000000E-01   5.00000000E-01   6.76605027E+00
   5.77500000E+02   5.00000000E-01   5.00000000E-01   6.71682736E+00
   6.12500000E+02   5.00000000E-01   5.00000000E-01   6.66840107E+00
   6.47500000E+02   5.00000000E-01   5.00000000E-01   6.62074816E+00
   6.82500000E+02   5.00000000E-01   5.00000000E-01   6.57384455E+00
   7.17500000E+02   5.00000000E-01   5.00000000E-01   6.52766527E+00
   7.52500000E+02   5.00000000E-01   5.00000000E-01   6.48220917E+00
   7.87500000E+02   5.00000000E-01   5.00000000E-01   6.43744002E+00
   8.22500000E+02   5.00000000E-01   5.00000000E-01   6.39325792E+00
   8.57500000E+02   5.00000000E-01   5.00000000E-01   6.34969054E+00
   8.92500000E+02   5.00000000E-01   5.00000000E-01   6.30671123E+00
   9.27500000E+02   5.00000000E-01   5.00000000E-01   6.26429278E+00
   9.62500000E+02   5.00000000E-01   5.00000000E-01   6.22240830E+00
   9.97500000E+02   5.00000000E-01   5.00000000E-01   6.18103158E+00
   1.03250000E+03   5.00000000E-01   5.00000000E-01   6.14013738E+00
   1.06750000E+03   5.00000000E-01   5.00000000E-01   6.09970174E+00
   1.10250000E+03   5.00000000E-01   5.00000000E-01   6.05970234E+00
   1.13750000E+03   5.00000000E-01   5.00000000E-01   6.02011874E+00
   1.17250000E+03   5.00000000E-01   5.00000000E-01   5.98093268E+00
   1.20750000E+03   5.00000000E-01   5.00000000E-01   5.94212826E+00
   1.24250000E+03   5.00000000E-01   5.00000000E-01   5.90369211E+00
   1.27750000E+03   5.00000000E-01   5.00000000E-01   5.86561350E+00
   1.31250000E+03   5.00000000E-01   5.00000000E-01   5.82788436E+00
   1.34750000E+03   5.00000000E-01   5.00000000E-01   5.79049920E+00
   1.38250000E+03   5.00000000E-01   5.00000000E-01   5.75345500E+00
   1.41750000E+03   5.00000000E-01   5.00000000E-01   5.71675101E+00
   1.45250000E+03   5.00000000E-01   5.00000000E-01   5.68038845E+00
   1.48750000E+03   5.00000000E-01   5.00000000E-01   5.64437023E+00
   1.52250000E+03   5.00000000E-01   5.00000000E-01   5.60870058E+00
   1.55750000E+03   5.00000000E-01   5.00000000E-01   5.57338466E+00
   1.59250000E+03   5.00000000E-01   5.00000000E-01   5.53842823E+00
   1.62750000E+03   5.00000000E-01   5.00000000E-01   5.50383729E+00
   1.66250000E+03   5.00000000E-01   5.00000000E-01   5.46961775E+00
   1.69750000E+03   5.00000000E-01   5.00000000E-01   5.43577519E+00
   1.73250000E+03   5.00000000E-01   5.00000000E-01   5.40231461E+00
   1.76750000E+03   5.00000000E-01   5.00000000E-01   5.36924028E+00
   1.80250000E+03   5.00000000E-01   5.00000000E-01   5.33655563E+00
   1.83750000E+03   5.00000000E-01   5.00000000E-01   5.30426316E+00
   1.87250000E+03   5.00000000E-01   5.00000000E-01   5.27236446E+00
   1.90750000E+03   5.00000000E-01   5.00000000E-01   5.24086016E+00
   1.94250000E+03   5.00000000E-01   5.00000000E-01   5.20975003E+00
   1.97750000E+03   5.00000000E-01   5.00000000E-01   5.17903301E+00
   2.01250000E+03   5.00000000E-01   5.00000000E-01   5.14870728E+00
   2.04750000E+03   5.00000000E-01   5.00000000E-01   5.11877038E+00
   2.08250000E+03   5.00000000E-01   5.00000000E-01   5.08921927E+00
   2.11750000E+03   5.00000000E-01   5.00000000E-01   5.06005044E+00
   2.15250000E+03   5.00000000E-01   5.00000000E-01   5.03125997E+00
   2.18750000E+03   5.00000000E-01   5.00000000E-01   5.00284367E+00
   2.22250000E+03   5.00000000E-01   5.00000000E-01   4.97479711E+00
   2.25750000E+03   5.00000000E-01   5.00000000E-01   4.94711569E+00
   2.29250000E+03   5.00000000E-01   5.00000000E-01   4.91979475E+00
   2.32750000E+03   5.00000000E-01   5.00000000E-01   4.89282960E+00
   2.36250000E+03   5.00000000E-01   5.00000000E-01   4.86621556E+00
   2.39750000E+03   5.00000000E-01   5.00000000E-01   4.83994806E+00
   2.43250000E+03   5.00000000E-01   5.00000000E-01   4.81402260E+00
   2.46750000E+03   5.00000000E-01   5.00000000E-01   4.78843485E+00
   2.50250000E+03   5.00000000E-01   5.00000000E-01   4.76318065E+00
   2.53750000E+03   5.00000000E-01   5.00000000E-01   4.73825605E+00
   2.57250000E+03   5.00000000E-01   5.00000000E-01   4.71365732E+00
   2.60750000E+03   5.00000000E-01   5.00000000E-01   4.68938094E+00
   2.64250000E+03   5.00000000E-01   5.00000000E-01   4.66542369E+00
   2.67750000E+03   5.00000000E-01   5.00000000E-01   4.64178258E+00
   2.71250000E+03   5.00000000E-01   5.00000000E-01   4.61845489E+00
   2.74750000E+03   5.00000000E-01   5.00000000E-01   4.59543817E+00
   2.78250000E+03   5.00000000E-01   5.00000000E-01   4.57273024E+00
   2.81750000E+03   5.00000000E-01   5.00000000E-01   4.55032920E+00
   2.85250000E+03   5.00000000E-01   5.00000000E-01   4.52823340E+00
   2.88750000E+03   5.00000000E-01   5.00000000E-01   4.50644145E+00
   2.92250000E+03   5.00000000E-01   5.00000000E-01   4.48495220E+00
   2.95750000E+03   5.00000000E-01   5.00000000E-01   4.46376473E+00
   2.99250000E+03   5.00000000E-01   5.00000000E-01   4.44287831E+00
   3.02750000E+03   5.00000000E-01   5.00000000E-01   4.42229244E+00
   3.06250000E+03   5.00000000E-01   5.00000000E-01   4.40200675E+00
   3.09750000E+03   5.00000000E-01   5.00000000E-01   4.38202101E+00
   3.13250000E+03   5.00000000E-01   5.00000000E-01   4.36233508E+00
   3.16750000E+03   5.00000000E-01   5.00000000E-01   4.34294893E+00
   3.20250000E+03   5.00000000E-01   5.00000000E-01   4.32386255E+00
   3.23750000E+03   5.00000000E-01   5.00000000E-01   4.30507590E+00
   3.27250000E+03   5.00000000E-01   5.00000000E-01   4.28658892E+00
   3.30750000E+03   5.00000000E-01   5.00000000E-01   4.26840143E+00
   3.34250000E+03   5.00000000E-01   5.00000000E-01   4.25051313E+00
   3.37750000E+03   5.00000000E-01   5.00000000E-01   4.23292350E+00
   3.41250000E+03   5.00000000E-01   5.00000000E-01   4.21563180E+00
   3.44750000E+03   5.00000000E-01   5.00000000E-01   4.19863699E+00
   3.48250000E+03   5.00000000E-01   5.00000000E-01   4.18250530E+00
