 TITLE = "Solution pH" 
 VARIABLES = "X"          "Y"              "Z"             "pH" 
 ZONE I=         100 , J=           1 , K=           1  F=POINT
   1.75000000E+01   5.00000000E-01   5.00000000E-01   7.64166618E+00
   5.25000000E+01   5.00000000E-01   5.00000000E-01   7.51263442E+00
   8.75000000E+01   5.00000000E-01   5.00000000E-01   7.41315834E+00
   1.22500000E+02   5.00000000E-01   5.00000000E-01   7.31977632E+00
   1.57500000E+02   5.00000000E-01   5.00000000E-01   7.22951648E+00
   1.92500000E+02   5.00000000E-01   5.00000000E-01   7.14207012E+00
   2.27500000E+02   5.00000000E-01   5.00000000E-01   7.05732282E+00
   2.62500000E+02   5.00000000E-01   5.00000000E-01   6.97512143E+00
   2.97500000E+02   5.00000000E-01   5.00000000E-01   6.89530147E+00
   3.32500000E+02   5.00000000E-01   5.00000000E-01   6.81771122E+00
   3.67500000E+02   5.00000000E-01   5.00000000E-01   6.74221893E+00
   4.02500000E+02   5.00000000E-01   5.00000000E-01   6.66871183E+00
   4.37500000E+02   5.00000000E-01   5.00000000E-01   6.59709292E+00
   4.72500000E+02   5.00000000E-01   5.00000000E-01   6.52727749E+00
   5.07500000E+02   5.00000000E-01   5.00000000E-01   6.45919016E+00
   5.42500000E+02   5.00000000E-01   5.00000000E-01   6.39276275E+00
   5.77500000E+02   5.00000000E-01   5.00000000E-01   6.32793267E+00
   6.12500000E+02   5.00000000E-01   5.00000000E-01   6.26464198E+00
   6.47500000E+02   5.00000000E-01   5.00000000E-01   6.20283685E+00
   6.82500000E+02   5.00000000E-01   5.00000000E-01   6.14246730E+00
   7.17500000E+02   5.00000000E-01   5.00000000E-01   6.08348720E+00
   7.52500000E+02   5.00000000E-01   5.00000000E-01   6.02585429E+00
   7.87500000E+02   5.00000000E-01   5.00000000E-01   5.96953023E+00
   8.22500000E+02   5.00000000E-01   5.00000000E-01   5.91448060E+00
   8.57500000E+02   5.00000000E-01   5.00000000E-01   5.86067476E+00
   8.92500000E+02   5.00000000E-01   5.00000000E-01   5.80808562E+00
   9.27500000E+02   5.00000000E-01   5.00000000E-01   5.75668933E+00
   9.62500000E+02   5.00000000E-01   5.00000000E-01   5.70646483E+00
   9.97500000E+02   5.00000000E-01   5.00000000E-01   5.65739346E+00
   1.03250000E+03   5.00000000E-01   5.00000000E-01   5.60945849E+00
   1.06750000E+03   5.00000000E-01   5.00000000E-01   5.56264477E+00
   1.10250000E+03   5.00000000E-01   5.00000000E-01   5.51693840E+00
   1.13750000E+03   5.00000000E-01   5.00000000E-01   5.47232656E+00
   1.17250000E+03   5.00000000E-01   5.00000000E-01   5.42879727E+00
   1.20750000E+03   5.00000000E-01   5.00000000E-01   5.38633943E+00
   1.24250000E+03   5.00000000E-01   5.00000000E-01   5.34494275E+00
   1.27750000E+03   5.00000000E-01   5.00000000E-01   5.30459797E+00
   1.31250000E+03   5.00000000E-01   5.00000000E-01   5.26529740E+00
   1.34750000E+03   5.00000000E-01   5.00000000E-01   5.22703613E+00
   1.38250000E+03   5.00000000E-01   5.00000000E-01   5.18981466E+00
   1.41750000E+03   5.00000000E-01   5.00000000E-01   5.15364487E+00
   1.45250000E+03   5.00000000E-01   5.00000000E-01   5.11856333E+00
   1.48750000E+03   5.00000000E-01   5.00000000E-01   5.08466102E+00
   1.52250000E+03   5.00000000E-01   5.00000000E-01   5.05212979E+00
   1.55750000E+03   5.00000000E-01   5.00000000E-01   5.02130402E+00
   1.59250000E+03   5.00000000E-01   5.00000000E-01   4.99261856E+00
   1.62750000E+03   5.00000000E-01   5.00000000E-01   4.96632392E+00
   1.66250000E+03   5.00000000E-01   5.00000000E-01   4.94212939E+00
   1.69750000E+03   5.00000000E-01   5.00000000E-01   4.91933289E+00
   1.73250000E+03   5.00000000E-01   5.00000000E-01   4.89728860E+00
   1.76750000E+03   5.00000000E-01   5.00000000E-01   4.87564275E+00
   1.80250000E+03   5.00000000E-01   5.00000000E-01   4.85430337E+00
   1.83750000E+03   5.00000000E-01   5.00000000E-01   4.83331352E+00
   1.87250000E+03   5.00000000E-01   5.00000000E-01   4.81273115E+00
   1.90750000E+03   5.00000000E-01   5.00000000E-01   4.79252351E+00
   1.94250000E+03   5.00000000E-01   5.00000000E-01   4.77251379E+00
   1.97750000E+03   5.00000000E-01   5.00000000E-01   4.75270313E+00
   2.01250000E+03   5.00000000E-01   5.00000000E-01   4.73359640E+00
   2.04750000E+03   5.00000000E-01   5.00000000E-01   4.71569141E+00
   2.08250000E+03   5.00000000E-01   5.00000000E-01   4.69912314E+00
   2.11750000E+03   5.00000000E-01   5.00000000E-01   4.68383668E+00
   2.15250000E+03   5.00000000E-01   5.00000000E-01   4.66975509E+00
   2.18750000E+03   5.00000000E-01   5.00000000E-01   4.65682650E+00
   2.22250000E+03   5.00000000E-01   5.00000000E-01   4.64502116E+00
   2.25750000E+03   5.00000000E-01   5.00000000E-01   4.63431936E+00
   2.29250000E+03   5.00000000E-01   5.00000000E-01   4.62470132E+00
   2.32750000E+03   5.00000000E-01   5.00000000E-01   4.61614150E+00
   2.36250000E+03   5.00000000E-01   5.00000000E-01   4.60860801E+00
   2.39750000E+03   5.00000000E-01   5.00000000E-01   4.60206314E+00
   2.43250000E+03   5.00000000E-01   5.00000000E-01   4.59646379E+00
   2.46750000E+03   5.00000000E-01   5.00000000E-01   4.59176340E+00
   2.50250000E+03   5.00000000E-01   5.00000000E-01   4.58791399E+00
   2.53750000E+03   5.00000000E-01   5.00000000E-01   4.58486790E+00
   2.57250000E+03   5.00000000E-01   5.00000000E-01   4.58258034E+00
   2.60750000E+03   5.00000000E-01   5.00000000E-01   4.58101239E+00
   2.64250000E+03   5.00000000E-01   5.00000000E-01   4.58013320E+00
   2.67750000E+03   5.00000000E-01   5.00000000E-01   4.57992029E+00
   2.71250000E+03   5.00000000E-01   5.00000000E-01   4.58035813E+00
   2.74750000E+03   5.00000000E-01   5.00000000E-01   4.58143596E+00
   2.78250000E+03   5.00000000E-01   5.00000000E-01   4.58314618E+00
   2.81750000E+03   5.00000000E-01   5.00000000E-01   4.58548350E+00
   2.85250000E+03   5.00000000E-01   5.00000000E-01   4.58844460E+00
   2.88750000E+03   5.00000000E-01   5.00000000E-01   4.59202774E+00
   2.92250000E+03   5.00000000E-01   5.00000000E-01   4.59623227E+00
   2.95750000E+03   5.00000000E-01   5.00000000E-01   4.60105813E+00
   2.99250000E+03   5.00000000E-01   5.00000000E-01   4.60650564E+00
   3.02750000E+03   5.00000000E-01   5.00000000E-01   4.61257534E+00
   3.06250000E+03   5.00000000E-01   5.00000000E-01   4.61926800E+00
   3.09750000E+03   5.00000000E-01   5.00000000E-01   4.62658437E+00
   3.13250000E+03   5.00000000E-01   5.00000000E-01   4.63452481E+00
   3.16750000E+03   5.00000000E-01   5.00000000E-01   4.64308868E+00
   3.20250000E+03   5.00000000E-01   5.00000000E-01   4.65227355E+00
   3.23750000E+03   5.00000000E-01   5.00000000E-01   4.66207434E+00
   3.27250000E+03   5.00000000E-01   5.00000000E-01   4.67248237E+00
   3.30750000E+03   5.00000000E-01   5.00000000E-01   4.68348469E+00
   3.34250000E+03   5.00000000E-01   5.00000000E-01   4.69506372E+00
   3.37750000E+03   5.00000000E-01   5.00000000E-01   4.70719732E+00
   3.41250000E+03   5.00000000E-01   5.00000000E-01   4.71986050E+00
   3.44750000E+03   5.00000000E-01   5.00000000E-01   4.73303023E+00
   3.48250000E+03   5.00000000E-01   5.00000000E-01   4.74674383E+00
