 TITLE = "Solution pH" 
 VARIABLES = "X"          "Y"              "Z"             "pH" 
 ZONE I=         100 , J=           1 , K=           1  F=POINT
   1.75000000E+01   5.00000000E-01   5.00000000E-01   7.72866210E+00
   5.25000000E+01   5.00000000E-01   5.00000000E-01   7.61381994E+00
   8.75000000E+01   5.00000000E-01   5.00000000E-01   7.52697947E+00
   1.22500000E+02   5.00000000E-01   5.00000000E-01   7.45174392E+00
   1.57500000E+02   5.00000000E-01   5.00000000E-01   7.38285084E+00
   1.92500000E+02   5.00000000E-01   5.00000000E-01   7.31799027E+00
   2.27500000E+02   5.00000000E-01   5.00000000E-01   7.25597370E+00
   2.62500000E+02   5.00000000E-01   5.00000000E-01   7.19612458E+00
   2.97500000E+02   5.00000000E-01   5.00000000E-01   7.13802945E+00
   3.32500000E+02   5.00000000E-01   5.00000000E-01   7.08142151E+00
   3.67500000E+02   5.00000000E-01   5.00000000E-01   7.02612069E+00
   4.02500000E+02   5.00000000E-01   5.00000000E-01   6.97200041E+00
   4.37500000E+02   5.00000000E-01   5.00000000E-01   6.91896810E+00
   4.72500000E+02   5.00000000E-01   5.00000000E-01   6.86695327E+00
   5.07500000E+02   5.00000000E-01   5.00000000E-01   6.81589999E+00
   5.42500000E+02   5.00000000E-01   5.00000000E-01   6.76549150E+00
   5.77500000E+02   5.00000000E-01   5.00000000E-01   6.71641218E+00
   6.12500000E+02   5.00000000E-01   5.00000000E-01   6.66840299E+00
   6.47500000E+02   5.00000000E-01   5.00000000E-01   6.62113368E+00
   6.82500000E+02   5.00000000E-01   5.00000000E-01   6.57456040E+00
   7.17500000E+02   5.00000000E-01   5.00000000E-01   6.52866564E+00
   7.52500000E+02   5.00000000E-01   5.00000000E-01   6.48343322E+00
   7.87500000E+02   5.00000000E-01   5.00000000E-01   6.43884402E+00
   8.22500000E+02   5.00000000E-01   5.00000000E-01   6.39487367E+00
   8.57500000E+02   5.00000000E-01   5.00000000E-01   6.35149858E+00
   8.92500000E+02   5.00000000E-01   5.00000000E-01   6.30869545E+00
   9.27500000E+02   5.00000000E-01   5.00000000E-01   6.26644001E+00
   9.62500000E+02   5.00000000E-01   5.00000000E-01   6.22470753E+00
   9.97500000E+02   5.00000000E-01   5.00000000E-01   6.18347333E+00
   1.03250000E+03   5.00000000E-01   5.00000000E-01   6.14271323E+00
   1.06750000E+03   5.00000000E-01   5.00000000E-01   6.10240397E+00
   1.10250000E+03   5.00000000E-01   5.00000000E-01   6.06252365E+00
   1.13750000E+03   5.00000000E-01   5.00000000E-01   6.02305204E+00
   1.17250000E+03   5.00000000E-01   5.00000000E-01   5.98397092E+00
   1.20750000E+03   5.00000000E-01   5.00000000E-01   5.94526436E+00
   1.24250000E+03   5.00000000E-01   5.00000000E-01   5.90691891E+00
   1.27750000E+03   5.00000000E-01   5.00000000E-01   5.86892372E+00
   1.31250000E+03   5.00000000E-01   5.00000000E-01   5.83127061E+00
   1.34750000E+03   5.00000000E-01   5.00000000E-01   5.79395405E+00
   1.38250000E+03   5.00000000E-01   5.00000000E-01   5.75697102E+00
   1.41750000E+03   5.00000000E-01   5.00000000E-01   5.72032085E+00
   1.45250000E+03   5.00000000E-01   5.00000000E-01   5.68400493E+00
   1.48750000E+03   5.00000000E-01   5.00000000E-01   5.64802643E+00
   1.52250000E+03   5.00000000E-01   5.00000000E-01   5.61238989E+00
   1.55750000E+03   5.00000000E-01   5.00000000E-01   5.57710093E+00
   1.59250000E+03   5.00000000E-01   5.00000000E-01   5.54216576E+00
   1.62750000E+03   5.00000000E-01   5.00000000E-01   5.50759093E+00
   1.66250000E+03   5.00000000E-01   5.00000000E-01   5.47338291E+00
   1.69750000E+03   5.00000000E-01   5.00000000E-01   5.43954786E+00
   1.73250000E+03   5.00000000E-01   5.00000000E-01   5.40609138E+00
   1.76750000E+03   5.00000000E-01   5.00000000E-01   5.37301832E+00
   1.80250000E+03   5.00000000E-01   5.00000000E-01   5.34033267E+00
   1.83750000E+03   5.00000000E-01   5.00000000E-01   5.30803746E+00
   1.87250000E+03   5.00000000E-01   5.00000000E-01   5.27613475E+00
   1.90750000E+03   5.00000000E-01   5.00000000E-01   5.24462566E+00
   1.94250000E+03   5.00000000E-01   5.00000000E-01   5.21351033E+00
   1.97750000E+03   5.00000000E-01   5.00000000E-01   5.18278809E+00
   2.01250000E+03   5.00000000E-01   5.00000000E-01   5.15245743E+00
   2.04750000E+03   5.00000000E-01   5.00000000E-01   5.12251617E+00
   2.08250000E+03   5.00000000E-01   5.00000000E-01   5.09296151E+00
   2.11750000E+03   5.00000000E-01   5.00000000E-01   5.06379014E+00
   2.15250000E+03   5.00000000E-01   5.00000000E-01   5.03499834E+00
   2.18750000E+03   5.00000000E-01   5.00000000E-01   5.00658204E+00
   2.22250000E+03   5.00000000E-01   5.00000000E-01   4.97853693E+00
   2.25750000E+03   5.00000000E-01   5.00000000E-01   4.95085853E+00
   2.29250000E+03   5.00000000E-01   5.00000000E-01   4.92354224E+00
   2.32750000E+03   5.00000000E-01   5.00000000E-01   4.89658345E+00
   2.36250000E+03   5.00000000E-01   5.00000000E-01   4.86997755E+00
   2.39750000E+03   5.00000000E-01   5.00000000E-01   4.84371997E+00
   2.43250000E+03   5.00000000E-01   5.00000000E-01   4.81780627E+00
   2.46750000E+03   5.00000000E-01   5.00000000E-01   4.79223216E+00
   2.50250000E+03   5.00000000E-01   5.00000000E-01   4.76699349E+00
   2.53750000E+03   5.00000000E-01   5.00000000E-01   4.74208633E+00
   2.57250000E+03   5.00000000E-01   5.00000000E-01   4.71750697E+00
   2.60750000E+03   5.00000000E-01   5.00000000E-01   4.69325193E+00
   2.64250000E+03   5.00000000E-01   5.00000000E-01   4.66931798E+00
   2.67750000E+03   5.00000000E-01   5.00000000E-01   4.64570216E+00
   2.71250000E+03   5.00000000E-01   5.00000000E-01   4.62240178E+00
   2.74750000E+03   5.00000000E-01   5.00000000E-01   4.59941441E+00
   2.78250000E+03   5.00000000E-01   5.00000000E-01   4.57673790E+00
   2.81750000E+03   5.00000000E-01   5.00000000E-01   4.55437038E+00
   2.85250000E+03   5.00000000E-01   5.00000000E-01   4.53231024E+00
   2.88750000E+03   5.00000000E-01   5.00000000E-01   4.51055612E+00
   2.92250000E+03   5.00000000E-01   5.00000000E-01   4.48910693E+00
   2.95750000E+03   5.00000000E-01   5.00000000E-01   4.46796177E+00
   2.99250000E+03   5.00000000E-01   5.00000000E-01   4.44712000E+00
   3.02750000E+03   5.00000000E-01   5.00000000E-01   4.42658114E+00
   3.06250000E+03   5.00000000E-01   5.00000000E-01   4.40634491E+00
   3.09750000E+03   5.00000000E-01   5.00000000E-01   4.38641113E+00
   3.13250000E+03   5.00000000E-01   5.00000000E-01   4.36677976E+00
   3.16750000E+03   5.00000000E-01   5.00000000E-01   4.34745083E+00
   3.20250000E+03   5.00000000E-01   5.00000000E-01   4.32842440E+00
   3.23750000E+03   5.00000000E-01   5.00000000E-01   4.30970052E+00
   3.27250000E+03   5.00000000E-01   5.00000000E-01   4.29127920E+00
   3.30750000E+03   5.00000000E-01   5.00000000E-01   4.27316033E+00
   3.34250000E+03   5.00000000E-01   5.00000000E-01   4.25534369E+00
   3.37750000E+03   5.00000000E-01   5.00000000E-01   4.23782888E+00
   3.41250000E+03   5.00000000E-01   5.00000000E-01   4.22061523E+00
   3.44750000E+03   5.00000000E-01   5.00000000E-01   4.20370180E+00
   3.48250000E+03   5.00000000E-01   5.00000000E-01   4.18765698E+00
