 TITLE = "Solution pH" 
 VARIABLES = "X"          "Y"              "Z"             "pH" 
 ZONE I=         200 , J=           1 , K=           1  F=POINT
   8.75000000E+00   5.00000000E-01   5.00000000E-01   7.90515846E+00
   2.62500000E+01   5.00000000E-01   5.00000000E-01   7.66708468E+00
   4.37500000E+01   5.00000000E-01   5.00000000E-01   7.54615016E+00
   6.12500000E+01   5.00000000E-01   5.00000000E-01   7.46405284E+00
   7.87500000E+01   5.00000000E-01   5.00000000E-01   7.39773829E+00
   9.62500000E+01   5.00000000E-01   5.00000000E-01   7.34102662E+00
   1.13750000E+02   5.00000000E-01   5.00000000E-01   7.29074721E+00
   1.31250000E+02   5.00000000E-01   5.00000000E-01   7.24467406E+00
   1.48750000E+02   5.00000000E-01   5.00000000E-01   7.20133874E+00
   1.66250000E+02   5.00000000E-01   5.00000000E-01   7.15978291E+00
   1.83750000E+02   5.00000000E-01   5.00000000E-01   7.11938120E+00
   2.01250000E+02   5.00000000E-01   5.00000000E-01   7.07982627E+00
   2.18750000E+02   5.00000000E-01   5.00000000E-01   7.04098141E+00
   2.36250000E+02   5.00000000E-01   5.00000000E-01   7.00271334E+00
   2.53750000E+02   5.00000000E-01   5.00000000E-01   6.96498860E+00
   2.71250000E+02   5.00000000E-01   5.00000000E-01   6.92778586E+00
   2.88750000E+02   5.00000000E-01   5.00000000E-01   6.89107915E+00
   3.06250000E+02   5.00000000E-01   5.00000000E-01   6.85483898E+00
   3.23750000E+02   5.00000000E-01   5.00000000E-01   6.81903594E+00
   3.41250000E+02   5.00000000E-01   5.00000000E-01   6.78364453E+00
   3.58750000E+02   5.00000000E-01   5.00000000E-01   6.74864866E+00
   3.76250000E+02   5.00000000E-01   5.00000000E-01   6.71403979E+00
   3.93750000E+02   5.00000000E-01   5.00000000E-01   6.67981727E+00
   4.11250000E+02   5.00000000E-01   5.00000000E-01   6.64598575E+00
   4.28750000E+02   5.00000000E-01   5.00000000E-01   6.61255230E+00
   4.46250000E+02   5.00000000E-01   5.00000000E-01   6.57952581E+00
   4.63750000E+02   5.00000000E-01   5.00000000E-01   6.54691568E+00
   4.81250000E+02   5.00000000E-01   5.00000000E-01   6.51473065E+00
   4.98750000E+02   5.00000000E-01   5.00000000E-01   6.48308363E+00
   5.16250000E+02   5.00000000E-01   5.00000000E-01   6.45188046E+00
   5.33750000E+02   5.00000000E-01   5.00000000E-01   6.42110794E+00
   5.51250000E+02   5.00000000E-01   5.00000000E-01   6.39077570E+00
   5.68750000E+02   5.00000000E-01   5.00000000E-01   6.36088844E+00
   5.86250000E+02   5.00000000E-01   5.00000000E-01   6.33144394E+00
   6.03750000E+02   5.00000000E-01   5.00000000E-01   6.30243444E+00
   6.21250000E+02   5.00000000E-01   5.00000000E-01   6.27384815E+00
   6.38750000E+02   5.00000000E-01   5.00000000E-01   6.24567095E+00
   6.56250000E+02   5.00000000E-01   5.00000000E-01   6.21788818E+00
   6.73750000E+02   5.00000000E-01   5.00000000E-01   6.19048592E+00
   6.91250000E+02   5.00000000E-01   5.00000000E-01   6.16345235E+00
   7.08750000E+02   5.00000000E-01   5.00000000E-01   6.13677793E+00
   7.26250000E+02   5.00000000E-01   5.00000000E-01   6.11045544E+00
   7.43750000E+02   5.00000000E-01   5.00000000E-01   6.08447975E+00
   7.61250000E+02   5.00000000E-01   5.00000000E-01   6.05884756E+00
   7.78750000E+02   5.00000000E-01   5.00000000E-01   6.03355690E+00
   7.96250000E+02   5.00000000E-01   5.00000000E-01   6.00860660E+00
   8.13750000E+02   5.00000000E-01   5.00000000E-01   5.98399563E+00
   8.31250000E+02   5.00000000E-01   5.00000000E-01   5.95972246E+00
   8.48750000E+02   5.00000000E-01   5.00000000E-01   5.93578445E+00
   8.66250000E+02   5.00000000E-01   5.00000000E-01   5.91217725E+00
   8.83750000E+02   5.00000000E-01   5.00000000E-01   5.88893421E+00
   9.01250000E+02   5.00000000E-01   5.00000000E-01   5.86599740E+00
   9.18750000E+02   5.00000000E-01   5.00000000E-01   5.84334791E+00
   9.36250000E+02   5.00000000E-01   5.00000000E-01   5.82098250E+00
   9.53750000E+02   5.00000000E-01   5.00000000E-01   5.79889291E+00
   9.71250000E+02   5.00000000E-01   5.00000000E-01   5.77706637E+00
   9.88750000E+02   5.00000000E-01   5.00000000E-01   5.75548893E+00
   1.00625000E+03   5.00000000E-01   5.00000000E-01   5.73414810E+00
   1.02375000E+03   5.00000000E-01   5.00000000E-01   5.71303424E+00
   1.04125000E+03   5.00000000E-01   5.00000000E-01   5.69214187E+00
   1.05875000E+03   5.00000000E-01   5.00000000E-01   5.67146913E+00
   1.07625000E+03   5.00000000E-01   5.00000000E-01   5.65101736E+00
   1.09375000E+03   5.00000000E-01   5.00000000E-01   5.63079046E+00
   1.11125000E+03   5.00000000E-01   5.00000000E-01   5.61079402E+00
   1.12875000E+03   5.00000000E-01   5.00000000E-01   5.59103407E+00
   1.14625000E+03   5.00000000E-01   5.00000000E-01   5.57151583E+00
   1.16375000E+03   5.00000000E-01   5.00000000E-01   5.55224262E+00
   1.18125000E+03   5.00000000E-01   5.00000000E-01   5.53321507E+00
   1.19875000E+03   5.00000000E-01   5.00000000E-01   5.51443047E+00
   1.21625000E+03   5.00000000E-01   5.00000000E-01   5.49588239E+00
   1.23375000E+03   5.00000000E-01   5.00000000E-01   5.47756060E+00
   1.25125000E+03   5.00000000E-01   5.00000000E-01   5.45945133E+00
   1.26875000E+03   5.00000000E-01   5.00000000E-01   5.44153794E+00
   1.28625000E+03   5.00000000E-01   5.00000000E-01   5.42380105E+00
   1.30375000E+03   5.00000000E-01   5.00000000E-01   5.40621941E+00
   1.32125000E+03   5.00000000E-01   5.00000000E-01   5.38877079E+00
   1.33875000E+03   5.00000000E-01   5.00000000E-01   5.37143283E+00
   1.35625000E+03   5.00000000E-01   5.00000000E-01   5.35418372E+00
   1.37375000E+03   5.00000000E-01   5.00000000E-01   5.33700301E+00
   1.39125000E+03   5.00000000E-01   5.00000000E-01   5.31987183E+00
   1.40875000E+03   5.00000000E-01   5.00000000E-01   5.30277069E+00
   1.42625000E+03   5.00000000E-01   5.00000000E-01   5.28567884E+00
   1.44375000E+03   5.00000000E-01   5.00000000E-01   5.26857136E+00
   1.46125000E+03   5.00000000E-01   5.00000000E-01   5.25141563E+00
   1.47875000E+03   5.00000000E-01   5.00000000E-01   5.23417047E+00
   1.49625000E+03   5.00000000E-01   5.00000000E-01   5.21679517E+00
   1.51375000E+03   5.00000000E-01   5.00000000E-01   5.19927791E+00
   1.53125000E+03   5.00000000E-01   5.00000000E-01   5.18167945E+00
   1.54875000E+03   5.00000000E-01   5.00000000E-01   5.16415463E+00
   1.56625000E+03   5.00000000E-01   5.00000000E-01   5.14690677E+00
   1.58375000E+03   5.00000000E-01   5.00000000E-01   5.13009525E+00
   1.60125000E+03   5.00000000E-01   5.00000000E-01   5.11377539E+00
   1.61875000E+03   5.00000000E-01   5.00000000E-01   5.09790967E+00
   1.63625000E+03   5.00000000E-01   5.00000000E-01   5.08241656E+00
   1.65375000E+03   5.00000000E-01   5.00000000E-01   5.06721365E+00
   1.67125000E+03   5.00000000E-01   5.00000000E-01   5.05223895E+00
   1.68875000E+03   5.00000000E-01   5.00000000E-01   5.03745423E+00
   1.70625000E+03   5.00000000E-01   5.00000000E-01   5.02283934E+00
   1.72375000E+03   5.00000000E-01   5.00000000E-01   5.00838510E+00
   1.74125000E+03   5.00000000E-01   5.00000000E-01   4.99408812E+00
   1.75875000E+03   5.00000000E-01   5.00000000E-01   4.97994790E+00
   1.77625000E+03   5.00000000E-01   5.00000000E-01   4.96596525E+00
   1.79375000E+03   5.00000000E-01   5.00000000E-01   4.95214110E+00
   1.81125000E+03   5.00000000E-01   5.00000000E-01   4.93847559E+00
   1.82875000E+03   5.00000000E-01   5.00000000E-01   4.92496753E+00
   1.84625000E+03   5.00000000E-01   5.00000000E-01   4.91161431E+00
   1.86375000E+03   5.00000000E-01   5.00000000E-01   4.89841193E+00
   1.88125000E+03   5.00000000E-01   5.00000000E-01   4.88535521E+00
   1.89875000E+03   5.00000000E-01   5.00000000E-01   4.87243811E+00
   1.91625000E+03   5.00000000E-01   5.00000000E-01   4.85965425E+00
   1.93375000E+03   5.00000000E-01   5.00000000E-01   4.84699772E+00
   1.95125000E+03   5.00000000E-01   5.00000000E-01   4.83446403E+00
   1.96875000E+03   5.00000000E-01   5.00000000E-01   4.82205113E+00
   1.98625000E+03   5.00000000E-01   5.00000000E-01   4.80975850E+00
   2.00375000E+03   5.00000000E-01   5.00000000E-01   4.79758676E+00
   2.02125000E+03   5.00000000E-01   5.00000000E-01   4.78554540E+00
   2.03875000E+03   5.00000000E-01   5.00000000E-01   4.77363940E+00
   2.05625000E+03   5.00000000E-01   5.00000000E-01   4.76186760E+00
   2.07375000E+03   5.00000000E-01   5.00000000E-01   4.75022077E+00
   2.09125000E+03   5.00000000E-01   5.00000000E-01   4.73868381E+00
   2.10875000E+03   5.00000000E-01   5.00000000E-01   4.72724074E+00
   2.12625000E+03   5.00000000E-01   5.00000000E-01   4.71588015E+00
   2.14375000E+03   5.00000000E-01   5.00000000E-01   4.70459789E+00
   2.16125000E+03   5.00000000E-01   5.00000000E-01   4.69339615E+00
   2.17875000E+03   5.00000000E-01   5.00000000E-01   4.68228015E+00
   2.19625000E+03   5.00000000E-01   5.00000000E-01   4.67125482E+00
   2.21375000E+03   5.00000000E-01   5.00000000E-01   4.66032291E+00
   2.23125000E+03   5.00000000E-01   5.00000000E-01   4.64948484E+00
   2.24875000E+03   5.00000000E-01   5.00000000E-01   4.63873961E+00
   2.26625000E+03   5.00000000E-01   5.00000000E-01   4.62808555E+00
   2.28375000E+03   5.00000000E-01   5.00000000E-01   4.61752025E+00
   2.30125000E+03   5.00000000E-01   5.00000000E-01   4.60703939E+00
   2.31875000E+03   5.00000000E-01   5.00000000E-01   4.59663546E+00
   2.33625000E+03   5.00000000E-01   5.00000000E-01   4.58629920E+00
   2.35375000E+03   5.00000000E-01   5.00000000E-01   4.57602664E+00
   2.37125000E+03   5.00000000E-01   5.00000000E-01   4.56582690E+00
   2.38875000E+03   5.00000000E-01   5.00000000E-01   4.55572058E+00
   2.40625000E+03   5.00000000E-01   5.00000000E-01   4.54572841E+00
   2.42375000E+03   5.00000000E-01   5.00000000E-01   4.53586207E+00
   2.44125000E+03   5.00000000E-01   5.00000000E-01   4.52612463E+00
   2.45875000E+03   5.00000000E-01   5.00000000E-01   4.51651602E+00
   2.47625000E+03   5.00000000E-01   5.00000000E-01   4.50703689E+00
   2.49375000E+03   5.00000000E-01   5.00000000E-01   4.49768931E+00
   2.51125000E+03   5.00000000E-01   5.00000000E-01   4.48847567E+00
   2.52875000E+03   5.00000000E-01   5.00000000E-01   4.47939795E+00
   2.54625000E+03   5.00000000E-01   5.00000000E-01   4.47045783E+00
   2.56375000E+03   5.00000000E-01   5.00000000E-01   4.46165715E+00
   2.58125000E+03   5.00000000E-01   5.00000000E-01   4.45299835E+00
   2.59875000E+03   5.00000000E-01   5.00000000E-01   4.44448437E+00
   2.61625000E+03   5.00000000E-01   5.00000000E-01   4.43611827E+00
   2.63375000E+03   5.00000000E-01   5.00000000E-01   4.42790289E+00
   2.65125000E+03   5.00000000E-01   5.00000000E-01   4.41984067E+00
   2.66875000E+03   5.00000000E-01   5.00000000E-01   4.41193384E+00
   2.68625000E+03   5.00000000E-01   5.00000000E-01   4.40418459E+00
   2.70375000E+03   5.00000000E-01   5.00000000E-01   4.39659470E+00
   2.72125000E+03   5.00000000E-01   5.00000000E-01   4.38916505E+00
   2.73875000E+03   5.00000000E-01   5.00000000E-01   4.38189711E+00
   2.75625000E+03   5.00000000E-01   5.00000000E-01   4.37479623E+00
   2.77375000E+03   5.00000000E-01   5.00000000E-01   4.36787236E+00
   2.79125000E+03   5.00000000E-01   5.00000000E-01   4.36113751E+00
   2.80875000E+03   5.00000000E-01   5.00000000E-01   4.35460255E+00
   2.82625000E+03   5.00000000E-01   5.00000000E-01   4.34827606E+00
   2.84375000E+03   5.00000000E-01   5.00000000E-01   4.34216498E+00
   2.86125000E+03   5.00000000E-01   5.00000000E-01   4.33627588E+00
   2.87875000E+03   5.00000000E-01   5.00000000E-01   4.33061593E+00
   2.89625000E+03   5.00000000E-01   5.00000000E-01   4.32519332E+00
   2.91375000E+03   5.00000000E-01   5.00000000E-01   4.32001003E+00
   2.93125000E+03   5.00000000E-01   5.00000000E-01   4.31508255E+00
   2.94875000E+03   5.00000000E-01   5.00000000E-01   4.31042723E+00
   2.96625000E+03   5.00000000E-01   5.00000000E-01   4.30605522E+00
   2.98375000E+03   5.00000000E-01   5.00000000E-01   4.30197806E+00
   3.00125000E+03   5.00000000E-01   5.00000000E-01   4.29820878E+00
   3.01875000E+03   5.00000000E-01   5.00000000E-01   4.29476209E+00
   3.03625000E+03   5.00000000E-01   5.00000000E-01   4.29165461E+00
   3.05375000E+03   5.00000000E-01   5.00000000E-01   4.28890501E+00
   3.07125000E+03   5.00000000E-01   5.00000000E-01   4.28653429E+00
   3.08875000E+03   5.00000000E-01   5.00000000E-01   4.28456618E+00
   3.10625000E+03   5.00000000E-01   5.00000000E-01   4.28302747E+00
   3.12375000E+03   5.00000000E-01   5.00000000E-01   4.28194858E+00
   3.14125000E+03   5.00000000E-01   5.00000000E-01   4.28136412E+00
   3.15875000E+03   5.00000000E-01   5.00000000E-01   4.28131374E+00
   3.17625000E+03   5.00000000E-01   5.00000000E-01   4.28184300E+00
   3.19375000E+03   5.00000000E-01   5.00000000E-01   4.28300460E+00
   3.21125000E+03   5.00000000E-01   5.00000000E-01   4.28485984E+00
   3.22875000E+03   5.00000000E-01   5.00000000E-01   4.28748053E+00
   3.24625000E+03   5.00000000E-01   5.00000000E-01   4.29095127E+00
   3.26375000E+03   5.00000000E-01   5.00000000E-01   4.29537255E+00
   3.28125000E+03   5.00000000E-01   5.00000000E-01   4.30086454E+00
   3.29875000E+03   5.00000000E-01   5.00000000E-01   4.30757208E+00
   3.31625000E+03   5.00000000E-01   5.00000000E-01   4.31567098E+00
   3.33375000E+03   5.00000000E-01   5.00000000E-01   4.32537607E+00
   3.35125000E+03   5.00000000E-01   5.00000000E-01   4.33695086E+00
   3.36875000E+03   5.00000000E-01   5.00000000E-01   4.35071798E+00
   3.38625000E+03   5.00000000E-01   5.00000000E-01   4.36706717E+00
   3.40375000E+03   5.00000000E-01   5.00000000E-01   4.38645100E+00
   3.42125000E+03   5.00000000E-01   5.00000000E-01   4.40934608E+00
   3.43875000E+03   5.00000000E-01   5.00000000E-01   4.43613549E+00
   3.45625000E+03   5.00000000E-01   5.00000000E-01   4.46683593E+00
   3.47375000E+03   5.00000000E-01   5.00000000E-01   4.50057730E+00
   3.49125000E+03   5.00000000E-01   5.00000000E-01   4.53542353E+00
