 TITLE = "Solution pH" 
 VARIABLES = "X"          "Y"              "Z"             "pH" 
 ZONE I=         200 , J=           1 , K=           1  F=POINT
   8.75000000E+00   5.00000000E-01   5.00000000E-01   7.91481179E+00
   2.62500000E+01   5.00000000E-01   5.00000000E-01   7.69252779E+00
   4.37500000E+01   5.00000000E-01   5.00000000E-01   7.57012164E+00
   6.12500000E+01   5.00000000E-01   5.00000000E-01   7.48306327E+00
   7.87500000E+01   5.00000000E-01   5.00000000E-01   7.41165555E+00
   9.62500000E+01   5.00000000E-01   5.00000000E-01   7.35021054E+00
   1.13750000E+02   5.00000000E-01   5.00000000E-01   7.29586581E+00
   1.31250000E+02   5.00000000E-01   5.00000000E-01   7.24644905E+00
   1.48750000E+02   5.00000000E-01   5.00000000E-01   7.20039046E+00
   1.66250000E+02   5.00000000E-01   5.00000000E-01   7.15663840E+00
   1.83750000E+02   5.00000000E-01   5.00000000E-01   7.11451344E+00
   2.01250000E+02   5.00000000E-01   5.00000000E-01   7.07358304E+00
   2.18750000E+02   5.00000000E-01   5.00000000E-01   7.03357328E+00
   2.36250000E+02   5.00000000E-01   5.00000000E-01   6.99431085E+00
   2.53750000E+02   5.00000000E-01   5.00000000E-01   6.95568610E+00
   2.71250000E+02   5.00000000E-01   5.00000000E-01   6.91762974E+00
   2.88750000E+02   5.00000000E-01   5.00000000E-01   6.88009810E+00
   3.06250000E+02   5.00000000E-01   5.00000000E-01   6.84306384E+00
   3.23750000E+02   5.00000000E-01   5.00000000E-01   6.80650991E+00
   3.41250000E+02   5.00000000E-01   5.00000000E-01   6.77042554E+00
   3.58750000E+02   5.00000000E-01   5.00000000E-01   6.73480358E+00
   3.76250000E+02   5.00000000E-01   5.00000000E-01   6.69963859E+00
   3.93750000E+02   5.00000000E-01   5.00000000E-01   6.66492564E+00
   4.11250000E+02   5.00000000E-01   5.00000000E-01   6.63065966E+00
   4.28750000E+02   5.00000000E-01   5.00000000E-01   6.59683518E+00
   4.46250000E+02   5.00000000E-01   5.00000000E-01   6.56344651E+00
   4.63750000E+02   5.00000000E-01   5.00000000E-01   6.53048791E+00
   4.81250000E+02   5.00000000E-01   5.00000000E-01   6.49795375E+00
   4.98750000E+02   5.00000000E-01   5.00000000E-01   6.46583851E+00
   5.16250000E+02   5.00000000E-01   5.00000000E-01   6.43413660E+00
   5.33750000E+02   5.00000000E-01   5.00000000E-01   6.40284206E+00
   5.51250000E+02   5.00000000E-01   5.00000000E-01   6.37194842E+00
   5.68750000E+02   5.00000000E-01   5.00000000E-01   6.34144862E+00
   5.86250000E+02   5.00000000E-01   5.00000000E-01   6.31133524E+00
   6.03750000E+02   5.00000000E-01   5.00000000E-01   6.28160084E+00
   6.21250000E+02   5.00000000E-01   5.00000000E-01   6.25223839E+00
   6.38750000E+02   5.00000000E-01   5.00000000E-01   6.22324157E+00
   6.56250000E+02   5.00000000E-01   5.00000000E-01   6.19460493E+00
   6.73750000E+02   5.00000000E-01   5.00000000E-01   6.16632380E+00
   6.91250000E+02   5.00000000E-01   5.00000000E-01   6.13839406E+00
   7.08750000E+02   5.00000000E-01   5.00000000E-01   6.11081188E+00
   7.26250000E+02   5.00000000E-01   5.00000000E-01   6.08357344E+00
   7.43750000E+02   5.00000000E-01   5.00000000E-01   6.05667491E+00
   7.61250000E+02   5.00000000E-01   5.00000000E-01   6.03011268E+00
   7.78750000E+02   5.00000000E-01   5.00000000E-01   6.00388370E+00
   7.96250000E+02   5.00000000E-01   5.00000000E-01   5.97798607E+00
   8.13750000E+02   5.00000000E-01   5.00000000E-01   5.95241937E+00
   8.31250000E+02   5.00000000E-01   5.00000000E-01   5.92718495E+00
   8.48750000E+02   5.00000000E-01   5.00000000E-01   5.90228581E+00
   8.66250000E+02   5.00000000E-01   5.00000000E-01   5.87772627E+00
   8.83750000E+02   5.00000000E-01   5.00000000E-01   5.85351149E+00
   9.01250000E+02   5.00000000E-01   5.00000000E-01   5.82964685E+00
   9.18750000E+02   5.00000000E-01   5.00000000E-01   5.80613744E+00
   9.36250000E+02   5.00000000E-01   5.00000000E-01   5.78298766E+00
   9.53750000E+02   5.00000000E-01   5.00000000E-01   5.76020086E+00
   9.71250000E+02   5.00000000E-01   5.00000000E-01   5.73777924E+00
   9.88750000E+02   5.00000000E-01   5.00000000E-01   5.71572372E+00
   1.00625000E+03   5.00000000E-01   5.00000000E-01   5.69403402E+00
   1.02375000E+03   5.00000000E-01   5.00000000E-01   5.67270882E+00
   1.04125000E+03   5.00000000E-01   5.00000000E-01   5.65174588E+00
   1.05875000E+03   5.00000000E-01   5.00000000E-01   5.63114235E+00
   1.07625000E+03   5.00000000E-01   5.00000000E-01   5.61089497E+00
   1.09375000E+03   5.00000000E-01   5.00000000E-01   5.59100019E+00
   1.11125000E+03   5.00000000E-01   5.00000000E-01   5.57145415E+00
   1.12875000E+03   5.00000000E-01   5.00000000E-01   5.55225245E+00
   1.14625000E+03   5.00000000E-01   5.00000000E-01   5.53338972E+00
   1.16375000E+03   5.00000000E-01   5.00000000E-01   5.51485899E+00
   1.18125000E+03   5.00000000E-01   5.00000000E-01   5.49665102E+00
   1.19875000E+03   5.00000000E-01   5.00000000E-01   5.47875365E+00
   1.21625000E+03   5.00000000E-01   5.00000000E-01   5.46115111E+00
   1.23375000E+03   5.00000000E-01   5.00000000E-01   5.44382334E+00
   1.25125000E+03   5.00000000E-01   5.00000000E-01   5.42674498E+00
   1.26875000E+03   5.00000000E-01   5.00000000E-01   5.40988316E+00
   1.28625000E+03   5.00000000E-01   5.00000000E-01   5.39319295E+00
   1.30375000E+03   5.00000000E-01   5.00000000E-01   5.37660775E+00
   1.32125000E+03   5.00000000E-01   5.00000000E-01   5.36002428E+00
   1.33875000E+03   5.00000000E-01   5.00000000E-01   5.34329575E+00
   1.35625000E+03   5.00000000E-01   5.00000000E-01   5.32627869E+00
   1.37375000E+03   5.00000000E-01   5.00000000E-01   5.30895227E+00
   1.39125000E+03   5.00000000E-01   5.00000000E-01   5.29147519E+00
   1.40875000E+03   5.00000000E-01   5.00000000E-01   5.27406601E+00
   1.42625000E+03   5.00000000E-01   5.00000000E-01   5.25686076E+00
   1.44375000E+03   5.00000000E-01   5.00000000E-01   5.23988576E+00
   1.46125000E+03   5.00000000E-01   5.00000000E-01   5.22310299E+00
   1.47875000E+03   5.00000000E-01   5.00000000E-01   5.20645909E+00
   1.49625000E+03   5.00000000E-01   5.00000000E-01   5.18991324E+00
   1.51375000E+03   5.00000000E-01   5.00000000E-01   5.17344562E+00
   1.53125000E+03   5.00000000E-01   5.00000000E-01   5.15705508E+00
   1.54875000E+03   5.00000000E-01   5.00000000E-01   5.14075263E+00
   1.56625000E+03   5.00000000E-01   5.00000000E-01   5.12455482E+00
   1.58375000E+03   5.00000000E-01   5.00000000E-01   5.10847850E+00
   1.60125000E+03   5.00000000E-01   5.00000000E-01   5.09253841E+00
   1.61875000E+03   5.00000000E-01   5.00000000E-01   5.07674790E+00
   1.63625000E+03   5.00000000E-01   5.00000000E-01   5.06112093E+00
   1.65375000E+03   5.00000000E-01   5.00000000E-01   5.04567216E+00
   1.67125000E+03   5.00000000E-01   5.00000000E-01   5.03041371E+00
   1.68875000E+03   5.00000000E-01   5.00000000E-01   5.01535192E+00
   1.70625000E+03   5.00000000E-01   5.00000000E-01   5.00048700E+00
   1.72375000E+03   5.00000000E-01   5.00000000E-01   4.98581510E+00
   1.74125000E+03   5.00000000E-01   5.00000000E-01   4.97133100E+00
   1.75875000E+03   5.00000000E-01   5.00000000E-01   4.95703099E+00
   1.77625000E+03   5.00000000E-01   5.00000000E-01   4.94291582E+00
   1.79375000E+03   5.00000000E-01   5.00000000E-01   4.92899201E+00
   1.81125000E+03   5.00000000E-01   5.00000000E-01   4.91526921E+00
   1.82875000E+03   5.00000000E-01   5.00000000E-01   4.90175446E+00
   1.84625000E+03   5.00000000E-01   5.00000000E-01   4.88844777E+00
   1.86375000E+03   5.00000000E-01   5.00000000E-01   4.87534241E+00
   1.88125000E+03   5.00000000E-01   5.00000000E-01   4.86242855E+00
   1.89875000E+03   5.00000000E-01   5.00000000E-01   4.84969701E+00
   1.91625000E+03   5.00000000E-01   5.00000000E-01   4.83714089E+00
   1.93375000E+03   5.00000000E-01   5.00000000E-01   4.82475510E+00
   1.95125000E+03   5.00000000E-01   5.00000000E-01   4.81253511E+00
   1.96875000E+03   5.00000000E-01   5.00000000E-01   4.80047607E+00
   1.98625000E+03   5.00000000E-01   5.00000000E-01   4.78857254E+00
   2.00375000E+03   5.00000000E-01   5.00000000E-01   4.77681855E+00
   2.02125000E+03   5.00000000E-01   5.00000000E-01   4.76520801E+00
   2.03875000E+03   5.00000000E-01   5.00000000E-01   4.75373540E+00
   2.05625000E+03   5.00000000E-01   5.00000000E-01   4.74239685E+00
   2.07375000E+03   5.00000000E-01   5.00000000E-01   4.73119108E+00
   2.09125000E+03   5.00000000E-01   5.00000000E-01   4.72011970E+00
   2.10875000E+03   5.00000000E-01   5.00000000E-01   4.70918622E+00
   2.12625000E+03   5.00000000E-01   5.00000000E-01   4.69839404E+00
   2.14375000E+03   5.00000000E-01   5.00000000E-01   4.68774400E+00
   2.16125000E+03   5.00000000E-01   5.00000000E-01   4.67723269E+00
   2.17875000E+03   5.00000000E-01   5.00000000E-01   4.66685229E+00
   2.19625000E+03   5.00000000E-01   5.00000000E-01   4.65659188E+00
   2.21375000E+03   5.00000000E-01   5.00000000E-01   4.64643961E+00
   2.23125000E+03   5.00000000E-01   5.00000000E-01   4.63638506E+00
   2.24875000E+03   5.00000000E-01   5.00000000E-01   4.62642088E+00
   2.26625000E+03   5.00000000E-01   5.00000000E-01   4.61654378E+00
   2.28375000E+03   5.00000000E-01   5.00000000E-01   4.60675444E+00
   2.30125000E+03   5.00000000E-01   5.00000000E-01   4.59705638E+00
   2.31875000E+03   5.00000000E-01   5.00000000E-01   4.58745405E+00
   2.33625000E+03   5.00000000E-01   5.00000000E-01   4.57795095E+00
   2.35375000E+03   5.00000000E-01   5.00000000E-01   4.56854851E+00
   2.37125000E+03   5.00000000E-01   5.00000000E-01   4.55924620E+00
   2.38875000E+03   5.00000000E-01   5.00000000E-01   4.55004260E+00
   2.40625000E+03   5.00000000E-01   5.00000000E-01   4.54093654E+00
   2.42375000E+03   5.00000000E-01   5.00000000E-01   4.53192802E+00
   2.44125000E+03   5.00000000E-01   5.00000000E-01   4.52301858E+00
   2.45875000E+03   5.00000000E-01   5.00000000E-01   4.51421111E+00
   2.47625000E+03   5.00000000E-01   5.00000000E-01   4.50550957E+00
   2.49375000E+03   5.00000000E-01   5.00000000E-01   4.49691835E+00
   2.51125000E+03   5.00000000E-01   5.00000000E-01   4.48844192E+00
   2.52875000E+03   5.00000000E-01   5.00000000E-01   4.48008454E+00
   2.54625000E+03   5.00000000E-01   5.00000000E-01   4.47185031E+00
   2.56375000E+03   5.00000000E-01   5.00000000E-01   4.46374339E+00
   2.58125000E+03   5.00000000E-01   5.00000000E-01   4.45576824E+00
   2.59875000E+03   5.00000000E-01   5.00000000E-01   4.44792982E+00
   2.61625000E+03   5.00000000E-01   5.00000000E-01   4.44023369E+00
   2.63375000E+03   5.00000000E-01   5.00000000E-01   4.43268606E+00
   2.65125000E+03   5.00000000E-01   5.00000000E-01   4.42529367E+00
   2.66875000E+03   5.00000000E-01   5.00000000E-01   4.41806374E+00
   2.68625000E+03   5.00000000E-01   5.00000000E-01   4.41100382E+00
   2.70375000E+03   5.00000000E-01   5.00000000E-01   4.40412165E+00
   2.72125000E+03   5.00000000E-01   5.00000000E-01   4.39742504E+00
   2.73875000E+03   5.00000000E-01   5.00000000E-01   4.39092184E+00
   2.75625000E+03   5.00000000E-01   5.00000000E-01   4.38461995E+00
   2.77375000E+03   5.00000000E-01   5.00000000E-01   4.37852752E+00
   2.79125000E+03   5.00000000E-01   5.00000000E-01   4.37265320E+00
   2.80875000E+03   5.00000000E-01   5.00000000E-01   4.36700640E+00
   2.82625000E+03   5.00000000E-01   5.00000000E-01   4.36159754E+00
   2.84375000E+03   5.00000000E-01   5.00000000E-01   4.35643817E+00
   2.86125000E+03   5.00000000E-01   5.00000000E-01   4.35154108E+00
   2.87875000E+03   5.00000000E-01   5.00000000E-01   4.34692027E+00
   2.89625000E+03   5.00000000E-01   5.00000000E-01   4.34259091E+00
   2.91375000E+03   5.00000000E-01   5.00000000E-01   4.33856937E+00
   2.93125000E+03   5.00000000E-01   5.00000000E-01   4.33487327E+00
   2.94875000E+03   5.00000000E-01   5.00000000E-01   4.33152168E+00
   2.96625000E+03   5.00000000E-01   5.00000000E-01   4.32853538E+00
   2.98375000E+03   5.00000000E-01   5.00000000E-01   4.32593736E+00
   3.00125000E+03   5.00000000E-01   5.00000000E-01   4.32375327E+00
   3.01875000E+03   5.00000000E-01   5.00000000E-01   4.32201210E+00
   3.03625000E+03   5.00000000E-01   5.00000000E-01   4.32074676E+00
   3.05375000E+03   5.00000000E-01   5.00000000E-01   4.31999491E+00
   3.07125000E+03   5.00000000E-01   5.00000000E-01   4.31979972E+00
   3.08875000E+03   5.00000000E-01   5.00000000E-01   4.32021100E+00
   3.10625000E+03   5.00000000E-01   5.00000000E-01   4.32128640E+00
   3.12375000E+03   5.00000000E-01   5.00000000E-01   4.32309318E+00
   3.14125000E+03   5.00000000E-01   5.00000000E-01   4.32571031E+00
   3.15875000E+03   5.00000000E-01   5.00000000E-01   4.32923121E+00
   3.17625000E+03   5.00000000E-01   5.00000000E-01   4.33376732E+00
   3.19375000E+03   5.00000000E-01   5.00000000E-01   4.33945263E+00
   3.21125000E+03   5.00000000E-01   5.00000000E-01   4.34644950E+00
   3.22875000E+03   5.00000000E-01   5.00000000E-01   4.35495601E+00
   3.24625000E+03   5.00000000E-01   5.00000000E-01   4.36521496E+00
   3.26375000E+03   5.00000000E-01   5.00000000E-01   4.37752395E+00
   3.28125000E+03   5.00000000E-01   5.00000000E-01   4.39224429E+00
   3.29875000E+03   5.00000000E-01   5.00000000E-01   4.40980210E+00
   3.31625000E+03   5.00000000E-01   5.00000000E-01   4.43066576E+00
   3.33375000E+03   5.00000000E-01   5.00000000E-01   4.45526413E+00
   3.35125000E+03   5.00000000E-01   5.00000000E-01   4.48376826E+00
   3.36875000E+03   5.00000000E-01   5.00000000E-01   4.51561411E+00
   3.38625000E+03   5.00000000E-01   5.00000000E-01   4.54880528E+00
   3.40375000E+03   5.00000000E-01   5.00000000E-01   4.57977076E+00
   3.42125000E+03   5.00000000E-01   5.00000000E-01   4.60496777E+00
   3.43875000E+03   5.00000000E-01   5.00000000E-01   4.62315191E+00
   3.45625000E+03   5.00000000E-01   5.00000000E-01   4.63552933E+00
   3.47375000E+03   5.00000000E-01   5.00000000E-01   4.64414457E+00
   3.49125000E+03   5.00000000E-01   5.00000000E-01   4.65111631E+00
