 TITLE = "Solution pH" 
 VARIABLES = "X"          "Y"              "Z"             "pH" 
 ZONE I=         100 , J=           1 , K=           1  F=POINT
   1.75000000E+01   5.00000000E-01   5.00000000E-01   7.64439627E+00
   5.25000000E+01   5.00000000E-01   5.00000000E-01   7.51431030E+00
   8.75000000E+01   5.00000000E-01   5.00000000E-01   7.41441458E+00
   1.22500000E+02   5.00000000E-01   5.00000000E-01   7.32083673E+00
   1.57500000E+02   5.00000000E-01   5.00000000E-01   7.23044899E+00
   1.92500000E+02   5.00000000E-01   5.00000000E-01   7.14290621E+00
   2.27500000E+02   5.00000000E-01   5.00000000E-01   7.05808424E+00
   2.62500000E+02   5.00000000E-01   5.00000000E-01   6.97582484E+00
   2.97500000E+02   5.00000000E-01   5.00000000E-01   6.89595961E+00
   3.32500000E+02   5.00000000E-01   5.00000000E-01   6.81833377E+00
   3.67500000E+02   5.00000000E-01   5.00000000E-01   6.74281315E+00
   4.02500000E+02   5.00000000E-01   5.00000000E-01   6.66928317E+00
   4.37500000E+02   5.00000000E-01   5.00000000E-01   6.59764543E+00
   4.72500000E+02   5.00000000E-01   5.00000000E-01   6.52781413E+00
   5.07500000E+02   5.00000000E-01   5.00000000E-01   6.45971308E+00
   5.42500000E+02   5.00000000E-01   5.00000000E-01   6.39327341E+00
   5.77500000E+02   5.00000000E-01   5.00000000E-01   6.32843198E+00
   6.12500000E+02   5.00000000E-01   5.00000000E-01   6.26513041E+00
   6.47500000E+02   5.00000000E-01   5.00000000E-01   6.20331448E+00
   6.82500000E+02   5.00000000E-01   5.00000000E-01   6.14293392E+00
   7.17500000E+02   5.00000000E-01   5.00000000E-01   6.08394231E+00
   7.52500000E+02   5.00000000E-01   5.00000000E-01   6.02629720E+00
   7.87500000E+02   5.00000000E-01   5.00000000E-01   5.96996009E+00
   8.22500000E+02   5.00000000E-01   5.00000000E-01   5.91489645E+00
   8.57500000E+02   5.00000000E-01   5.00000000E-01   5.86107558E+00
   8.92500000E+02   5.00000000E-01   5.00000000E-01   5.80847038E+00
   9.27500000E+02   5.00000000E-01   5.00000000E-01   5.75705700E+00
   9.62500000E+02   5.00000000E-01   5.00000000E-01   5.70681444E+00
   9.97500000E+02   5.00000000E-01   5.00000000E-01   5.65772410E+00
   1.03250000E+03   5.00000000E-01   5.00000000E-01   5.60976934E+00
   1.06750000E+03   5.00000000E-01   5.00000000E-01   5.56293511E+00
   1.10250000E+03   5.00000000E-01   5.00000000E-01   5.51720760E+00
   1.13750000E+03   5.00000000E-01   5.00000000E-01   5.47257409E+00
   1.17250000E+03   5.00000000E-01   5.00000000E-01   5.42902279E+00
   1.20750000E+03   5.00000000E-01   5.00000000E-01   5.38654295E+00
   1.24250000E+03   5.00000000E-01   5.00000000E-01   5.34512533E+00
   1.27750000E+03   5.00000000E-01   5.00000000E-01   5.30476396E+00
   1.31250000E+03   5.00000000E-01   5.00000000E-01   5.26546157E+00
   1.34750000E+03   5.00000000E-01   5.00000000E-01   5.22724622E+00
   1.38250000E+03   5.00000000E-01   5.00000000E-01   5.19021930E+00
   1.41750000E+03   5.00000000E-01   5.00000000E-01   5.15467527E+00
   1.45250000E+03   5.00000000E-01   5.00000000E-01   5.12128912E+00
   1.48750000E+03   5.00000000E-01   5.00000000E-01   5.09095963E+00
   1.52250000E+03   5.00000000E-01   5.00000000E-01   5.06369212E+00
   1.55750000E+03   5.00000000E-01   5.00000000E-01   5.03814549E+00
   1.59250000E+03   5.00000000E-01   5.00000000E-01   5.01302312E+00
   1.62750000E+03   5.00000000E-01   5.00000000E-01   4.98783515E+00
   1.66250000E+03   5.00000000E-01   5.00000000E-01   4.96263506E+00
   1.69750000E+03   5.00000000E-01   5.00000000E-01   4.93765549E+00
   1.73250000E+03   5.00000000E-01   5.00000000E-01   4.91310056E+00
   1.76750000E+03   5.00000000E-01   5.00000000E-01   4.88905229E+00
   1.80250000E+03   5.00000000E-01   5.00000000E-01   4.86540587E+00
   1.83750000E+03   5.00000000E-01   5.00000000E-01   4.84194228E+00
   1.87250000E+03   5.00000000E-01   5.00000000E-01   4.81884837E+00
   1.90750000E+03   5.00000000E-01   5.00000000E-01   4.79670351E+00
   1.94250000E+03   5.00000000E-01   5.00000000E-01   4.77582438E+00
   1.97750000E+03   5.00000000E-01   5.00000000E-01   4.75622161E+00
   2.01250000E+03   5.00000000E-01   5.00000000E-01   4.73782227E+00
   2.04750000E+03   5.00000000E-01   5.00000000E-01   4.72057156E+00
   2.08250000E+03   5.00000000E-01   5.00000000E-01   4.70444403E+00
   2.11750000E+03   5.00000000E-01   5.00000000E-01   4.68943118E+00
   2.15250000E+03   5.00000000E-01   5.00000000E-01   4.67553124E+00
   2.18750000E+03   5.00000000E-01   5.00000000E-01   4.66274351E+00
   2.22250000E+03   5.00000000E-01   5.00000000E-01   4.65106468E+00
   2.25750000E+03   5.00000000E-01   5.00000000E-01   4.64048686E+00
   2.29250000E+03   5.00000000E-01   5.00000000E-01   4.63099545E+00
   2.32750000E+03   5.00000000E-01   5.00000000E-01   4.62256786E+00
   2.36250000E+03   5.00000000E-01   5.00000000E-01   4.61517370E+00
   2.39750000E+03   5.00000000E-01   5.00000000E-01   4.60877534E+00
   2.43250000E+03   5.00000000E-01   5.00000000E-01   4.60332944E+00
   2.46750000E+03   5.00000000E-01   5.00000000E-01   4.59878959E+00
   2.50250000E+03   5.00000000E-01   5.00000000E-01   4.59510864E+00
   2.53750000E+03   5.00000000E-01   5.00000000E-01   4.59224069E+00
   2.57250000E+03   5.00000000E-01   5.00000000E-01   4.59014361E+00
   2.60750000E+03   5.00000000E-01   5.00000000E-01   4.58878177E+00
   2.64250000E+03   5.00000000E-01   5.00000000E-01   4.58812764E+00
   2.67750000E+03   5.00000000E-01   5.00000000E-01   4.58816176E+00
   2.71250000E+03   5.00000000E-01   5.00000000E-01   4.58887121E+00
   2.74750000E+03   5.00000000E-01   5.00000000E-01   4.59024775E+00
   2.78250000E+03   5.00000000E-01   5.00000000E-01   4.59228648E+00
   2.81750000E+03   5.00000000E-01   5.00000000E-01   4.59498523E+00
   2.85250000E+03   5.00000000E-01   5.00000000E-01   4.59834413E+00
   2.88750000E+03   5.00000000E-01   5.00000000E-01   4.60236526E+00
   2.92250000E+03   5.00000000E-01   5.00000000E-01   4.60705211E+00
   2.95750000E+03   5.00000000E-01   5.00000000E-01   4.61240923E+00
   2.99250000E+03   5.00000000E-01   5.00000000E-01   4.61844204E+00
   3.02750000E+03   5.00000000E-01   5.00000000E-01   4.62515686E+00
   3.06250000E+03   5.00000000E-01   5.00000000E-01   4.63256098E+00
   3.09750000E+03   5.00000000E-01   5.00000000E-01   4.64066265E+00
   3.13250000E+03   5.00000000E-01   5.00000000E-01   4.64947085E+00
   3.16750000E+03   5.00000000E-01   5.00000000E-01   4.65899497E+00
   3.20250000E+03   5.00000000E-01   5.00000000E-01   4.66924433E+00
   3.23750000E+03   5.00000000E-01   5.00000000E-01   4.68022757E+00
   3.27250000E+03   5.00000000E-01   5.00000000E-01   4.69195189E+00
   3.30750000E+03   5.00000000E-01   5.00000000E-01   4.70442222E+00
   3.34250000E+03   5.00000000E-01   5.00000000E-01   4.71764014E+00
   3.37750000E+03   5.00000000E-01   5.00000000E-01   4.73160262E+00
   3.41250000E+03   5.00000000E-01   5.00000000E-01   4.74630069E+00
   3.44750000E+03   5.00000000E-01   5.00000000E-01   4.76171910E+00
   3.48250000E+03   5.00000000E-01   5.00000000E-01   4.77787216E+00
