 TITLE = "Solution pH" 
 VARIABLES = "X"          "Y"              "Z"             "pH" 
 ZONE I=         200 , J=           1 , K=           1  F=POINT
   8.75000000E+00   5.00000000E-01   5.00000000E-01   7.91134508E+00
   2.62500000E+01   5.00000000E-01   5.00000000E-01   7.69055233E+00
   4.37500000E+01   5.00000000E-01   5.00000000E-01   7.56867657E+00
   6.12500000E+01   5.00000000E-01   5.00000000E-01   7.48176071E+00
   7.87500000E+01   5.00000000E-01   5.00000000E-01   7.41044756E+00
   9.62500000E+01   5.00000000E-01   5.00000000E-01   7.34911129E+00
   1.13750000E+02   5.00000000E-01   5.00000000E-01   7.29486900E+00
   1.31250000E+02   5.00000000E-01   5.00000000E-01   7.24553422E+00
   1.48750000E+02   5.00000000E-01   5.00000000E-01   7.19953524E+00
   1.66250000E+02   5.00000000E-01   5.00000000E-01   7.15582362E+00
   1.83750000E+02   5.00000000E-01   5.00000000E-01   7.11372419E+00
   2.01250000E+02   5.00000000E-01   5.00000000E-01   7.07280831E+00
   2.18750000E+02   5.00000000E-01   5.00000000E-01   7.03280519E+00
   2.36250000E+02   5.00000000E-01   5.00000000E-01   6.99354390E+00
   2.53750000E+02   5.00000000E-01   5.00000000E-01   6.95491654E+00
   2.71250000E+02   5.00000000E-01   5.00000000E-01   6.91685503E+00
   2.88750000E+02   5.00000000E-01   5.00000000E-01   6.87931659E+00
   3.06250000E+02   5.00000000E-01   5.00000000E-01   6.84227443E+00
   3.23750000E+02   5.00000000E-01   5.00000000E-01   6.80571188E+00
   3.41250000E+02   5.00000000E-01   5.00000000E-01   6.76961839E+00
   3.58750000E+02   5.00000000E-01   5.00000000E-01   6.73398691E+00
   3.76250000E+02   5.00000000E-01   5.00000000E-01   6.69881205E+00
   3.93750000E+02   5.00000000E-01   5.00000000E-01   6.66408891E+00
   4.11250000E+02   5.00000000E-01   5.00000000E-01   6.62981239E+00
   4.28750000E+02   5.00000000E-01   5.00000000E-01   6.59597704E+00
   4.46250000E+02   5.00000000E-01   5.00000000E-01   6.56257713E+00
   4.63750000E+02   5.00000000E-01   5.00000000E-01   6.52960689E+00
   4.81250000E+02   5.00000000E-01   5.00000000E-01   6.49706068E+00
   4.98750000E+02   5.00000000E-01   5.00000000E-01   6.46493292E+00
   5.16250000E+02   5.00000000E-01   5.00000000E-01   6.43321799E+00
   5.33750000E+02   5.00000000E-01   5.00000000E-01   6.40190989E+00
   5.51250000E+02   5.00000000E-01   5.00000000E-01   6.37100209E+00
   5.68750000E+02   5.00000000E-01   5.00000000E-01   6.34048753E+00
   5.86250000E+02   5.00000000E-01   5.00000000E-01   6.31035876E+00
   6.03750000E+02   5.00000000E-01   5.00000000E-01   6.28060834E+00
   6.21250000E+02   5.00000000E-01   5.00000000E-01   6.25122922E+00
   6.38750000E+02   5.00000000E-01   5.00000000E-01   6.22221506E+00
   6.56250000E+02   5.00000000E-01   5.00000000E-01   6.19356037E+00
   6.73750000E+02   5.00000000E-01   5.00000000E-01   6.16526044E+00
   6.91250000E+02   5.00000000E-01   5.00000000E-01   6.13731112E+00
   7.08750000E+02   5.00000000E-01   5.00000000E-01   6.10970848E+00
   7.26250000E+02   5.00000000E-01   5.00000000E-01   6.08244867E+00
   7.43750000E+02   5.00000000E-01   5.00000000E-01   6.05552780E+00
   7.61250000E+02   5.00000000E-01   5.00000000E-01   6.02894219E+00
   7.78750000E+02   5.00000000E-01   5.00000000E-01   6.00268877E+00
   7.96250000E+02   5.00000000E-01   5.00000000E-01   5.97676556E+00
   8.13750000E+02   5.00000000E-01   5.00000000E-01   5.95117208E+00
   8.31250000E+02   5.00000000E-01   5.00000000E-01   5.92590956E+00
   8.48750000E+02   5.00000000E-01   5.00000000E-01   5.90098090E+00
   8.66250000E+02   5.00000000E-01   5.00000000E-01   5.87639025E+00
   8.83750000E+02   5.00000000E-01   5.00000000E-01   5.85214259E+00
   9.01250000E+02   5.00000000E-01   5.00000000E-01   5.82824313E+00
   9.18750000E+02   5.00000000E-01   5.00000000E-01   5.80469679E+00
   9.36250000E+02   5.00000000E-01   5.00000000E-01   5.78150779E+00
   9.53750000E+02   5.00000000E-01   5.00000000E-01   5.75867936E+00
   9.71250000E+02   5.00000000E-01   5.00000000E-01   5.73621359E+00
   9.88750000E+02   5.00000000E-01   5.00000000E-01   5.71411137E+00
   1.00625000E+03   5.00000000E-01   5.00000000E-01   5.69237244E+00
   1.02375000E+03   5.00000000E-01   5.00000000E-01   5.67099553E+00
   1.04125000E+03   5.00000000E-01   5.00000000E-01   5.64997858E+00
   1.05875000E+03   5.00000000E-01   5.00000000E-01   5.62931897E+00
   1.07625000E+03   5.00000000E-01   5.00000000E-01   5.60901373E+00
   1.09375000E+03   5.00000000E-01   5.00000000E-01   5.58905976E+00
   1.11125000E+03   5.00000000E-01   5.00000000E-01   5.56945371E+00
   1.12875000E+03   5.00000000E-01   5.00000000E-01   5.55019185E+00
   1.14625000E+03   5.00000000E-01   5.00000000E-01   5.53126964E+00
   1.16375000E+03   5.00000000E-01   5.00000000E-01   5.51268110E+00
   1.18125000E+03   5.00000000E-01   5.00000000E-01   5.49441820E+00
   1.19875000E+03   5.00000000E-01   5.00000000E-01   5.47647016E+00
   1.21625000E+03   5.00000000E-01   5.00000000E-01   5.45882278E+00
   1.23375000E+03   5.00000000E-01   5.00000000E-01   5.44145756E+00
   1.25125000E+03   5.00000000E-01   5.00000000E-01   5.42435025E+00
   1.26875000E+03   5.00000000E-01   5.00000000E-01   5.40746778E+00
   1.28625000E+03   5.00000000E-01   5.00000000E-01   5.39076162E+00
   1.30375000E+03   5.00000000E-01   5.00000000E-01   5.37415496E+00
   1.32125000E+03   5.00000000E-01   5.00000000E-01   5.35752703E+00
   1.33875000E+03   5.00000000E-01   5.00000000E-01   5.34072295E+00
   1.35625000E+03   5.00000000E-01   5.00000000E-01   5.32364017E+00
   1.37375000E+03   5.00000000E-01   5.00000000E-01   5.30634391E+00
   1.39125000E+03   5.00000000E-01   5.00000000E-01   5.28903452E+00
   1.40875000E+03   5.00000000E-01   5.00000000E-01   5.27188902E+00
   1.42625000E+03   5.00000000E-01   5.00000000E-01   5.25497468E+00
   1.44375000E+03   5.00000000E-01   5.00000000E-01   5.23827013E+00
   1.46125000E+03   5.00000000E-01   5.00000000E-01   5.22171839E+00
   1.47875000E+03   5.00000000E-01   5.00000000E-01   5.20526529E+00
   1.49625000E+03   5.00000000E-01   5.00000000E-01   5.18887630E+00
   1.51375000E+03   5.00000000E-01   5.00000000E-01   5.17253877E+00
   1.53125000E+03   5.00000000E-01   5.00000000E-01   5.15625741E+00
   1.54875000E+03   5.00000000E-01   5.00000000E-01   5.14004768E+00
   1.56625000E+03   5.00000000E-01   5.00000000E-01   5.12392951E+00
   1.58375000E+03   5.00000000E-01   5.00000000E-01   5.10792236E+00
   1.60125000E+03   5.00000000E-01   5.00000000E-01   5.09204298E+00
   1.61875000E+03   5.00000000E-01   5.00000000E-01   5.07630625E+00
   1.63625000E+03   5.00000000E-01   5.00000000E-01   5.06072731E+00
   1.65375000E+03   5.00000000E-01   5.00000000E-01   5.04532172E+00
   1.67125000E+03   5.00000000E-01   5.00000000E-01   5.03010233E+00
   1.68875000E+03   5.00000000E-01   5.00000000E-01   5.01507611E+00
   1.70625000E+03   5.00000000E-01   5.00000000E-01   5.00024389E+00
   1.72375000E+03   5.00000000E-01   5.00000000E-01   4.98560243E+00
   1.74125000E+03   5.00000000E-01   5.00000000E-01   4.97114708E+00
   1.75875000E+03   5.00000000E-01   5.00000000E-01   4.95687457E+00
   1.77625000E+03   5.00000000E-01   5.00000000E-01   4.94278599E+00
   1.79375000E+03   5.00000000E-01   5.00000000E-01   4.92888805E+00
   1.81125000E+03   5.00000000E-01   5.00000000E-01   4.91519043E+00
   1.82875000E+03   5.00000000E-01   5.00000000E-01   4.90170015E+00
   1.84625000E+03   5.00000000E-01   5.00000000E-01   4.88841721E+00
   1.86375000E+03   5.00000000E-01   5.00000000E-01   4.87533495E+00
   1.88125000E+03   5.00000000E-01   5.00000000E-01   4.86244369E+00
   1.89875000E+03   5.00000000E-01   5.00000000E-01   4.84973443E+00
   1.91625000E+03   5.00000000E-01   5.00000000E-01   4.83720049E+00
   1.93375000E+03   5.00000000E-01   5.00000000E-01   4.82483691E+00
   1.95125000E+03   5.00000000E-01   5.00000000E-01   4.81263928E+00
   1.96875000E+03   5.00000000E-01   5.00000000E-01   4.80060283E+00
   1.98625000E+03   5.00000000E-01   5.00000000E-01   4.78872217E+00
   2.00375000E+03   5.00000000E-01   5.00000000E-01   4.77699139E+00
   2.02125000E+03   5.00000000E-01   5.00000000E-01   4.76540443E+00
   2.03875000E+03   5.00000000E-01   5.00000000E-01   4.75395580E+00
   2.05625000E+03   5.00000000E-01   5.00000000E-01   4.74264159E+00
   2.07375000E+03   5.00000000E-01   5.00000000E-01   4.73146044E+00
   2.09125000E+03   5.00000000E-01   5.00000000E-01   4.72041380E+00
   2.10875000E+03   5.00000000E-01   5.00000000E-01   4.70950501E+00
   2.12625000E+03   5.00000000E-01   5.00000000E-01   4.69873726E+00
   2.14375000E+03   5.00000000E-01   5.00000000E-01   4.68811123E+00
   2.16125000E+03   5.00000000E-01   5.00000000E-01   4.67762337E+00
   2.17875000E+03   5.00000000E-01   5.00000000E-01   4.66726574E+00
   2.19625000E+03   5.00000000E-01   5.00000000E-01   4.65702728E+00
   2.21375000E+03   5.00000000E-01   5.00000000E-01   4.64689602E+00
   2.23125000E+03   5.00000000E-01   5.00000000E-01   4.63686139E+00
   2.24875000E+03   5.00000000E-01   5.00000000E-01   4.62691595E+00
   2.26625000E+03   5.00000000E-01   5.00000000E-01   4.61705633E+00
   2.28375000E+03   5.00000000E-01   5.00000000E-01   4.60728314E+00
   2.30125000E+03   5.00000000E-01   5.00000000E-01   4.59759986E+00
   2.31875000E+03   5.00000000E-01   5.00000000E-01   4.58801091E+00
   2.33625000E+03   5.00000000E-01   5.00000000E-01   4.57851969E+00
   2.35375000E+03   5.00000000E-01   5.00000000E-01   4.56912748E+00
   2.37125000E+03   5.00000000E-01   5.00000000E-01   4.55983361E+00
   2.38875000E+03   5.00000000E-01   5.00000000E-01   4.55063652E+00
   2.40625000E+03   5.00000000E-01   5.00000000E-01   4.54153495E+00
   2.42375000E+03   5.00000000E-01   5.00000000E-01   4.53252886E+00
   2.44125000E+03   5.00000000E-01   5.00000000E-01   4.52361973E+00
   2.45875000E+03   5.00000000E-01   5.00000000E-01   4.51481050E+00
   2.47625000E+03   5.00000000E-01   5.00000000E-01   4.50610511E+00
   2.49375000E+03   5.00000000E-01   5.00000000E-01   4.49750797E+00
   2.51125000E+03   5.00000000E-01   5.00000000E-01   4.48902356E+00
   2.52875000E+03   5.00000000E-01   5.00000000E-01   4.48065615E+00
   2.54625000E+03   5.00000000E-01   5.00000000E-01   4.47240987E+00
   2.56375000E+03   5.00000000E-01   5.00000000E-01   4.46428890E+00
   2.58125000E+03   5.00000000E-01   5.00000000E-01   4.45629771E+00
   2.59875000E+03   5.00000000E-01   5.00000000E-01   4.44844127E+00
   2.61625000E+03   5.00000000E-01   5.00000000E-01   4.44072515E+00
   2.63375000E+03   5.00000000E-01   5.00000000E-01   4.43315551E+00
   2.65125000E+03   5.00000000E-01   5.00000000E-01   4.42573909E+00
   2.66875000E+03   5.00000000E-01   5.00000000E-01   4.41848305E+00
   2.68625000E+03   5.00000000E-01   5.00000000E-01   4.41139489E+00
   2.70375000E+03   5.00000000E-01   5.00000000E-01   4.40448229E+00
   2.72125000E+03   5.00000000E-01   5.00000000E-01   4.39775301E+00
   2.73875000E+03   5.00000000E-01   5.00000000E-01   4.39121480E+00
   2.75625000E+03   5.00000000E-01   5.00000000E-01   4.38487551E+00
   2.77375000E+03   5.00000000E-01   5.00000000E-01   4.37874318E+00
   2.79125000E+03   5.00000000E-01   5.00000000E-01   4.37282636E+00
   2.80875000E+03   5.00000000E-01   5.00000000E-01   4.36713430E+00
   2.82625000E+03   5.00000000E-01   5.00000000E-01   4.36167725E+00
   2.84375000E+03   5.00000000E-01   5.00000000E-01   4.35646657E+00
   2.86125000E+03   5.00000000E-01   5.00000000E-01   4.35151480E+00
   2.87875000E+03   5.00000000E-01   5.00000000E-01   4.34683567E+00
   2.89625000E+03   5.00000000E-01   5.00000000E-01   4.34244404E+00
   2.91375000E+03   5.00000000E-01   5.00000000E-01   4.33835590E+00
   2.93125000E+03   5.00000000E-01   5.00000000E-01   4.33458849E+00
   2.94875000E+03   5.00000000E-01   5.00000000E-01   4.33116037E+00
   2.96625000E+03   5.00000000E-01   5.00000000E-01   4.32809182E+00
   2.98375000E+03   5.00000000E-01   5.00000000E-01   4.32540518E+00
   3.00125000E+03   5.00000000E-01   5.00000000E-01   4.32312537E+00
   3.01875000E+03   5.00000000E-01   5.00000000E-01   4.32128052E+00
   3.03625000E+03   5.00000000E-01   5.00000000E-01   4.31990257E+00
   3.05375000E+03   5.00000000E-01   5.00000000E-01   4.31902797E+00
   3.07125000E+03   5.00000000E-01   5.00000000E-01   4.31869851E+00
   3.08875000E+03   5.00000000E-01   5.00000000E-01   4.31896230E+00
   3.10625000E+03   5.00000000E-01   5.00000000E-01   4.31987500E+00
   3.12375000E+03   5.00000000E-01   5.00000000E-01   4.32150141E+00
   3.14125000E+03   5.00000000E-01   5.00000000E-01   4.32391749E+00
   3.15875000E+03   5.00000000E-01   5.00000000E-01   4.32721299E+00
   3.17625000E+03   5.00000000E-01   5.00000000E-01   4.33149480E+00
   3.19375000E+03   5.00000000E-01   5.00000000E-01   4.33689125E+00
   3.21125000E+03   5.00000000E-01   5.00000000E-01   4.34355762E+00
   3.22875000E+03   5.00000000E-01   5.00000000E-01   4.35168318E+00
   3.24625000E+03   5.00000000E-01   5.00000000E-01   4.36149983E+00
   3.26375000E+03   5.00000000E-01   5.00000000E-01   4.37329204E+00
   3.28125000E+03   5.00000000E-01   5.00000000E-01   4.38740637E+00
   3.29875000E+03   5.00000000E-01   5.00000000E-01   4.40425522E+00
   3.31625000E+03   5.00000000E-01   5.00000000E-01   4.42430252E+00
   3.33375000E+03   5.00000000E-01   5.00000000E-01   4.44800307E+00
   3.35125000E+03   5.00000000E-01   5.00000000E-01   4.47562997E+00
   3.36875000E+03   5.00000000E-01   5.00000000E-01   4.50686887E+00
   3.38625000E+03   5.00000000E-01   5.00000000E-01   4.54013112E+00
   3.40375000E+03   5.00000000E-01   5.00000000E-01   4.57213702E+00
   3.42125000E+03   5.00000000E-01   5.00000000E-01   4.59906430E+00
   3.43875000E+03   5.00000000E-01   5.00000000E-01   4.61896763E+00
   3.45625000E+03   5.00000000E-01   5.00000000E-01   4.63259109E+00
   3.47375000E+03   5.00000000E-01   5.00000000E-01   4.64194588E+00
   3.49125000E+03   5.00000000E-01   5.00000000E-01   4.64930132E+00
