 TITLE = "Porosity" 
 VARIABLES = "X"          "Y"              "Z"          "Porosity" 
 ZONE I=         100 , J=           1 , K=           1  F=POINT
   1.75000000E+01   5.00000000E-01   5.00000000E-01   6.89999994E-02
   5.25000000E+01   5.00000000E-01   5.00000000E-01   6.89999994E-02
   8.75000000E+01   5.00000000E-01   5.00000000E-01   6.89999994E-02
   1.22500000E+02   5.00000000E-01   5.00000000E-01   6.89999994E-02
   1.57500000E+02   5.00000000E-01   5.00000000E-01   6.89999994E-02
   1.92500000E+02   5.00000000E-01   5.00000000E-01   6.89999994E-02
   2.27500000E+02   5.00000000E-01   5.00000000E-01   6.89999994E-02
   2.62500000E+02   5.00000000E-01   5.00000000E-01   6.89999994E-02
   2.97500000E+02   5.00000000E-01   5.00000000E-01   6.89999994E-02
   3.32500000E+02   5.00000000E-01   5.00000000E-01   6.89999994E-02
   3.67500000E+02   5.00000000E-01   5.00000000E-01   6.89999994E-02
   4.02500000E+02   5.00000000E-01   5.00000000E-01   6.89999994E-02
   4.37500000E+02   5.00000000E-01   5.00000000E-01   6.89999994E-02
   4.72500000E+02   5.00000000E-01   5.00000000E-01   6.89999994E-02
   5.07500000E+02   5.00000000E-01   5.00000000E-01   6.89999994E-02
   5.42500000E+02   5.00000000E-01   5.00000000E-01   6.89999994E-02
   5.77500000E+02   5.00000000E-01   5.00000000E-01   6.89999994E-02
   6.12500000E+02   5.00000000E-01   5.00000000E-01   6.89999994E-02
   6.47500000E+02   5.00000000E-01   5.00000000E-01   6.89999994E-02
   6.82500000E+02   5.00000000E-01   5.00000000E-01   6.89999994E-02
   7.17500000E+02   5.00000000E-01   5.00000000E-01   6.89999994E-02
   7.52500000E+02   5.00000000E-01   5.00000000E-01   6.89999994E-02
   7.87500000E+02   5.00000000E-01   5.00000000E-01   6.89999994E-02
   8.22500000E+02   5.00000000E-01   5.00000000E-01   6.89999994E-02
   8.57500000E+02   5.00000000E-01   5.00000000E-01   6.89999994E-02
   8.92500000E+02   5.00000000E-01   5.00000000E-01   6.89999994E-02
   9.27500000E+02   5.00000000E-01   5.00000000E-01   6.89999994E-02
   9.62500000E+02   5.00000000E-01   5.00000000E-01   6.89999994E-02
   9.97500000E+02   5.00000000E-01   5.00000000E-01   6.89999994E-02
   1.03250000E+03   5.00000000E-01   5.00000000E-01   6.89999994E-02
   1.06750000E+03   5.00000000E-01   5.00000000E-01   6.89999994E-02
   1.10250000E+03   5.00000000E-01   5.00000000E-01   6.89999994E-02
   1.13750000E+03   5.00000000E-01   5.00000000E-01   6.89999994E-02
   1.17250000E+03   5.00000000E-01   5.00000000E-01   6.89999994E-02
   1.20750000E+03   5.00000000E-01   5.00000000E-01   6.89999994E-02
   1.24250000E+03   5.00000000E-01   5.00000000E-01   6.89999994E-02
   1.27750000E+03   5.00000000E-01   5.00000000E-01   6.89999994E-02
   1.31250000E+03   5.00000000E-01   5.00000000E-01   6.89999994E-02
   1.34750000E+03   5.00000000E-01   5.00000000E-01   6.89999994E-02
   1.38250000E+03   5.00000000E-01   5.00000000E-01   6.89999994E-02
   1.41750000E+03   5.00000000E-01   5.00000000E-01   6.89999994E-02
   1.45250000E+03   5.00000000E-01   5.00000000E-01   6.89999994E-02
   1.48750000E+03   5.00000000E-01   5.00000000E-01   6.89999994E-02
   1.52250000E+03   5.00000000E-01   5.00000000E-01   6.89999994E-02
   1.55750000E+03   5.00000000E-01   5.00000000E-01   6.89999994E-02
   1.59250000E+03   5.00000000E-01   5.00000000E-01   6.89999994E-02
   1.62750000E+03   5.00000000E-01   5.00000000E-01   6.89999994E-02
   1.66250000E+03   5.00000000E-01   5.00000000E-01   6.89999994E-02
   1.69750000E+03   5.00000000E-01   5.00000000E-01   6.89999994E-02
   1.73250000E+03   5.00000000E-01   5.00000000E-01   6.89999994E-02
   1.76750000E+03   5.00000000E-01   5.00000000E-01   6.89999994E-02
   1.80250000E+03   5.00000000E-01   5.00000000E-01   6.89999994E-02
   1.83750000E+03   5.00000000E-01   5.00000000E-01   6.89999994E-02
   1.87250000E+03   5.00000000E-01   5.00000000E-01   6.89999994E-02
   1.90750000E+03   5.00000000E-01   5.00000000E-01   6.89999994E-02
   1.94250000E+03   5.00000000E-01   5.00000000E-01   6.89999994E-02
   1.97750000E+03   5.00000000E-01   5.00000000E-01   6.89999994E-02
   2.01250000E+03   5.00000000E-01   5.00000000E-01   6.89999994E-02
   2.04750000E+03   5.00000000E-01   5.00000000E-01   6.89999994E-02
   2.08250000E+03   5.00000000E-01   5.00000000E-01   6.89999994E-02
   2.11750000E+03   5.00000000E-01   5.00000000E-01   6.89999994E-02
   2.15250000E+03   5.00000000E-01   5.00000000E-01   6.89999994E-02
   2.18750000E+03   5.00000000E-01   5.00000000E-01   6.89999994E-02
   2.22250000E+03   5.00000000E-01   5.00000000E-01   6.89999994E-02
   2.25750000E+03   5.00000000E-01   5.00000000E-01   6.89999994E-02
   2.29250000E+03   5.00000000E-01   5.00000000E-01   6.89999994E-02
   2.32750000E+03   5.00000000E-01   5.00000000E-01   6.89999994E-02
   2.36250000E+03   5.00000000E-01   5.00000000E-01   6.89999994E-02
   2.39750000E+03   5.00000000E-01   5.00000000E-01   6.89999994E-02
   2.43250000E+03   5.00000000E-01   5.00000000E-01   6.89999994E-02
   2.46750000E+03   5.00000000E-01   5.00000000E-01   6.89999994E-02
   2.50250000E+03   5.00000000E-01   5.00000000E-01   6.89999994E-02
   2.53750000E+03   5.00000000E-01   5.00000000E-01   6.89999994E-02
   2.57250000E+03   5.00000000E-01   5.00000000E-01   6.89999994E-02
   2.60750000E+03   5.00000000E-01   5.00000000E-01   6.89999994E-02
   2.64250000E+03   5.00000000E-01   5.00000000E-01   6.89999994E-02
   2.67750000E+03   5.00000000E-01   5.00000000E-01   6.89999994E-02
   2.71250000E+03   5.00000000E-01   5.00000000E-01   6.89999994E-02
   2.74750000E+03   5.00000000E-01   5.00000000E-01   6.89999994E-02
   2.78250000E+03   5.00000000E-01   5.00000000E-01   6.89999994E-02
   2.81750000E+03   5.00000000E-01   5.00000000E-01   6.89999994E-02
   2.85250000E+03   5.00000000E-01   5.00000000E-01   6.89999994E-02
   2.88750000E+03   5.00000000E-01   5.00000000E-01   6.89999994E-02
   2.92250000E+03   5.00000000E-01   5.00000000E-01   6.89999994E-02
   2.95750000E+03   5.00000000E-01   5.00000000E-01   6.89999994E-02
   2.99250000E+03   5.00000000E-01   5.00000000E-01   6.89999994E-02
   3.02750000E+03   5.00000000E-01   5.00000000E-01   6.89999994E-02
   3.06250000E+03   5.00000000E-01   5.00000000E-01   6.89999994E-02
   3.09750000E+03   5.00000000E-01   5.00000000E-01   6.89999994E-02
   3.13250000E+03   5.00000000E-01   5.00000000E-01   6.89999994E-02
   3.16750000E+03   5.00000000E-01   5.00000000E-01   6.89999994E-02
   3.20250000E+03   5.00000000E-01   5.00000000E-01   6.89999994E-02
   3.23750000E+03   5.00000000E-01   5.00000000E-01   6.89999994E-02
   3.27250000E+03   5.00000000E-01   5.00000000E-01   6.89999994E-02
   3.30750000E+03   5.00000000E-01   5.00000000E-01   6.89999994E-02
   3.34250000E+03   5.00000000E-01   5.00000000E-01   6.89999994E-02
   3.37750000E+03   5.00000000E-01   5.00000000E-01   6.89999994E-02
   3.41250000E+03   5.00000000E-01   5.00000000E-01   6.89999994E-02
   3.44750000E+03   5.00000000E-01   5.00000000E-01   6.89999994E-02
   3.48250000E+03   5.00000000E-01   5.00000000E-01   6.89999994E-02
