 TITLE = "Porosity" 
 VARIABLES = "X"          "Y"              "Z"          "Porosity" 
 ZONE I=         200 , J=           1 , K=           1  F=POINT
   8.75000000E+00   5.00000000E-01   5.00000000E-01   9.90099000E-01
   2.62500000E+01   5.00000000E-01   5.00000000E-01   9.87636191E-01
   4.37500000E+01   5.00000000E-01   5.00000000E-01   9.85173382E-01
   6.12500000E+01   5.00000000E-01   5.00000000E-01   9.82710573E-01
   7.87500000E+01   5.00000000E-01   5.00000000E-01   9.80247764E-01
   9.62500000E+01   5.00000000E-01   5.00000000E-01   9.77784955E-01
   1.13750000E+02   5.00000000E-01   5.00000000E-01   9.75322146E-01
   1.31250000E+02   5.00000000E-01   5.00000000E-01   9.72859337E-01
   1.48750000E+02   5.00000000E-01   5.00000000E-01   9.70396528E-01
   1.66250000E+02   5.00000000E-01   5.00000000E-01   9.67933719E-01
   1.83750000E+02   5.00000000E-01   5.00000000E-01   9.65470910E-01
   2.01250000E+02   5.00000000E-01   5.00000000E-01   9.63008101E-01
   2.18750000E+02   5.00000000E-01   5.00000000E-01   9.60545291E-01
   2.36250000E+02   5.00000000E-01   5.00000000E-01   9.58082482E-01
   2.53750000E+02   5.00000000E-01   5.00000000E-01   9.55619673E-01
   2.71250000E+02   5.00000000E-01   5.00000000E-01   9.53156864E-01
   2.88750000E+02   5.00000000E-01   5.00000000E-01   9.50694055E-01
   3.06250000E+02   5.00000000E-01   5.00000000E-01   9.48231246E-01
   3.23750000E+02   5.00000000E-01   5.00000000E-01   9.45768437E-01
   3.41250000E+02   5.00000000E-01   5.00000000E-01   9.43305628E-01
   3.58750000E+02   5.00000000E-01   5.00000000E-01   9.40842819E-01
   3.76250000E+02   5.00000000E-01   5.00000000E-01   9.38380010E-01
   3.93750000E+02   5.00000000E-01   5.00000000E-01   9.35917201E-01
   4.11250000E+02   5.00000000E-01   5.00000000E-01   9.33454392E-01
   4.28750000E+02   5.00000000E-01   5.00000000E-01   9.30991583E-01
   4.46250000E+02   5.00000000E-01   5.00000000E-01   9.28528774E-01
   4.63750000E+02   5.00000000E-01   5.00000000E-01   9.26065965E-01
   4.81250000E+02   5.00000000E-01   5.00000000E-01   9.23603156E-01
   4.98750000E+02   5.00000000E-01   5.00000000E-01   9.21140347E-01
   5.16250000E+02   5.00000000E-01   5.00000000E-01   9.18677538E-01
   5.33750000E+02   5.00000000E-01   5.00000000E-01   9.16214729E-01
   5.51250000E+02   5.00000000E-01   5.00000000E-01   9.13751920E-01
   5.68750000E+02   5.00000000E-01   5.00000000E-01   9.11289111E-01
   5.86250000E+02   5.00000000E-01   5.00000000E-01   9.08826302E-01
   6.03750000E+02   5.00000000E-01   5.00000000E-01   9.06363492E-01
   6.21250000E+02   5.00000000E-01   5.00000000E-01   9.03900683E-01
   6.38750000E+02   5.00000000E-01   5.00000000E-01   9.01437874E-01
   6.56250000E+02   5.00000000E-01   5.00000000E-01   8.98975065E-01
   6.73750000E+02   5.00000000E-01   5.00000000E-01   8.96512256E-01
   6.91250000E+02   5.00000000E-01   5.00000000E-01   8.94049447E-01
   7.08750000E+02   5.00000000E-01   5.00000000E-01   8.91586638E-01
   7.26250000E+02   5.00000000E-01   5.00000000E-01   8.89123829E-01
   7.43750000E+02   5.00000000E-01   5.00000000E-01   8.86661020E-01
   7.61250000E+02   5.00000000E-01   5.00000000E-01   8.84198211E-01
   7.78750000E+02   5.00000000E-01   5.00000000E-01   8.81735402E-01
   7.96250000E+02   5.00000000E-01   5.00000000E-01   8.79272593E-01
   8.13750000E+02   5.00000000E-01   5.00000000E-01   8.76809784E-01
   8.31250000E+02   5.00000000E-01   5.00000000E-01   8.74346975E-01
   8.48750000E+02   5.00000000E-01   5.00000000E-01   8.71884166E-01
   8.66250000E+02   5.00000000E-01   5.00000000E-01   8.69421357E-01
   8.83750000E+02   5.00000000E-01   5.00000000E-01   8.66958548E-01
   9.01250000E+02   5.00000000E-01   5.00000000E-01   8.64495739E-01
   9.18750000E+02   5.00000000E-01   5.00000000E-01   8.62032930E-01
   9.36250000E+02   5.00000000E-01   5.00000000E-01   8.59570121E-01
   9.53750000E+02   5.00000000E-01   5.00000000E-01   8.57107312E-01
   9.71250000E+02   5.00000000E-01   5.00000000E-01   8.54644503E-01
   9.88750000E+02   5.00000000E-01   5.00000000E-01   8.52181693E-01
   1.00625000E+03   5.00000000E-01   5.00000000E-01   8.49718884E-01
   1.02375000E+03   5.00000000E-01   5.00000000E-01   8.47256075E-01
   1.04125000E+03   5.00000000E-01   5.00000000E-01   8.44793266E-01
   1.05875000E+03   5.00000000E-01   5.00000000E-01   8.42330457E-01
   1.07625000E+03   5.00000000E-01   5.00000000E-01   8.39867648E-01
   1.09375000E+03   5.00000000E-01   5.00000000E-01   8.37404839E-01
   1.11125000E+03   5.00000000E-01   5.00000000E-01   8.34942030E-01
   1.12875000E+03   5.00000000E-01   5.00000000E-01   8.32479221E-01
   1.14625000E+03   5.00000000E-01   5.00000000E-01   8.30016412E-01
   1.16375000E+03   5.00000000E-01   5.00000000E-01   8.27553603E-01
   1.18125000E+03   5.00000000E-01   5.00000000E-01   8.25090794E-01
   1.19875000E+03   5.00000000E-01   5.00000000E-01   8.22627985E-01
   1.21625000E+03   5.00000000E-01   5.00000000E-01   8.20165176E-01
   1.23375000E+03   5.00000000E-01   5.00000000E-01   8.17702367E-01
   1.25125000E+03   5.00000000E-01   5.00000000E-01   8.15239558E-01
   1.26875000E+03   5.00000000E-01   5.00000000E-01   8.12776749E-01
   1.28625000E+03   5.00000000E-01   5.00000000E-01   8.10313940E-01
   1.30375000E+03   5.00000000E-01   5.00000000E-01   8.07851131E-01
   1.32125000E+03   5.00000000E-01   5.00000000E-01   8.05388322E-01
   1.33875000E+03   5.00000000E-01   5.00000000E-01   8.02925513E-01
   1.35625000E+03   5.00000000E-01   5.00000000E-01   8.00462704E-01
   1.37375000E+03   5.00000000E-01   5.00000000E-01   7.97999894E-01
   1.39125000E+03   5.00000000E-01   5.00000000E-01   7.95537085E-01
   1.40875000E+03   5.00000000E-01   5.00000000E-01   7.93074276E-01
   1.42625000E+03   5.00000000E-01   5.00000000E-01   7.90611467E-01
   1.44375000E+03   5.00000000E-01   5.00000000E-01   7.88148658E-01
   1.46125000E+03   5.00000000E-01   5.00000000E-01   7.85685849E-01
   1.47875000E+03   5.00000000E-01   5.00000000E-01   7.83223040E-01
   1.49625000E+03   5.00000000E-01   5.00000000E-01   7.80760231E-01
   1.51375000E+03   5.00000000E-01   5.00000000E-01   7.78297422E-01
   1.53125000E+03   5.00000000E-01   5.00000000E-01   7.75834613E-01
   1.54875000E+03   5.00000000E-01   5.00000000E-01   7.73371804E-01
   1.56625000E+03   5.00000000E-01   5.00000000E-01   7.70908995E-01
   1.58375000E+03   5.00000000E-01   5.00000000E-01   7.68446186E-01
   1.60125000E+03   5.00000000E-01   5.00000000E-01   7.65983377E-01
   1.61875000E+03   5.00000000E-01   5.00000000E-01   7.63520568E-01
   1.63625000E+03   5.00000000E-01   5.00000000E-01   7.61057759E-01
   1.65375000E+03   5.00000000E-01   5.00000000E-01   7.58594950E-01
   1.67125000E+03   5.00000000E-01   5.00000000E-01   7.56132141E-01
   1.68875000E+03   5.00000000E-01   5.00000000E-01   7.53669332E-01
   1.70625000E+03   5.00000000E-01   5.00000000E-01   7.51206523E-01
   1.72375000E+03   5.00000000E-01   5.00000000E-01   7.48743714E-01
   1.74125000E+03   5.00000000E-01   5.00000000E-01   7.46280905E-01
   1.75875000E+03   5.00000000E-01   5.00000000E-01   7.43818095E-01
   1.77625000E+03   5.00000000E-01   5.00000000E-01   7.41355286E-01
   1.79375000E+03   5.00000000E-01   5.00000000E-01   7.38892477E-01
   1.81125000E+03   5.00000000E-01   5.00000000E-01   7.36429668E-01
   1.82875000E+03   5.00000000E-01   5.00000000E-01   7.33966859E-01
   1.84625000E+03   5.00000000E-01   5.00000000E-01   7.31504050E-01
   1.86375000E+03   5.00000000E-01   5.00000000E-01   7.29041241E-01
   1.88125000E+03   5.00000000E-01   5.00000000E-01   7.26578432E-01
   1.89875000E+03   5.00000000E-01   5.00000000E-01   7.24115623E-01
   1.91625000E+03   5.00000000E-01   5.00000000E-01   7.21652814E-01
   1.93375000E+03   5.00000000E-01   5.00000000E-01   7.19190005E-01
   1.95125000E+03   5.00000000E-01   5.00000000E-01   7.16727196E-01
   1.96875000E+03   5.00000000E-01   5.00000000E-01   7.14264387E-01
   1.98625000E+03   5.00000000E-01   5.00000000E-01   7.11801578E-01
   2.00375000E+03   5.00000000E-01   5.00000000E-01   7.09338769E-01
   2.02125000E+03   5.00000000E-01   5.00000000E-01   7.06875960E-01
   2.03875000E+03   5.00000000E-01   5.00000000E-01   7.04413151E-01
   2.05625000E+03   5.00000000E-01   5.00000000E-01   7.01950342E-01
   2.07375000E+03   5.00000000E-01   5.00000000E-01   6.99487533E-01
   2.09125000E+03   5.00000000E-01   5.00000000E-01   6.97024724E-01
   2.10875000E+03   5.00000000E-01   5.00000000E-01   6.94561915E-01
   2.12625000E+03   5.00000000E-01   5.00000000E-01   6.92099106E-01
   2.14375000E+03   5.00000000E-01   5.00000000E-01   6.89636296E-01
   2.16125000E+03   5.00000000E-01   5.00000000E-01   6.87173487E-01
   2.17875000E+03   5.00000000E-01   5.00000000E-01   6.84710678E-01
   2.19625000E+03   5.00000000E-01   5.00000000E-01   6.82247869E-01
   2.21375000E+03   5.00000000E-01   5.00000000E-01   6.79785060E-01
   2.23125000E+03   5.00000000E-01   5.00000000E-01   6.77322251E-01
   2.24875000E+03   5.00000000E-01   5.00000000E-01   6.74859442E-01
   2.26625000E+03   5.00000000E-01   5.00000000E-01   6.72396633E-01
   2.28375000E+03   5.00000000E-01   5.00000000E-01   6.69933824E-01
   2.30125000E+03   5.00000000E-01   5.00000000E-01   6.67471015E-01
   2.31875000E+03   5.00000000E-01   5.00000000E-01   6.65008206E-01
   2.33625000E+03   5.00000000E-01   5.00000000E-01   6.62545397E-01
   2.35375000E+03   5.00000000E-01   5.00000000E-01   6.60082588E-01
   2.37125000E+03   5.00000000E-01   5.00000000E-01   6.57619779E-01
   2.38875000E+03   5.00000000E-01   5.00000000E-01   6.55156970E-01
   2.40625000E+03   5.00000000E-01   5.00000000E-01   6.52694161E-01
   2.42375000E+03   5.00000000E-01   5.00000000E-01   6.50231352E-01
   2.44125000E+03   5.00000000E-01   5.00000000E-01   6.47768543E-01
   2.45875000E+03   5.00000000E-01   5.00000000E-01   6.45305734E-01
   2.47625000E+03   5.00000000E-01   5.00000000E-01   6.42842925E-01
   2.49375000E+03   5.00000000E-01   5.00000000E-01   6.40380116E-01
   2.51125000E+03   5.00000000E-01   5.00000000E-01   6.37917307E-01
   2.52875000E+03   5.00000000E-01   5.00000000E-01   6.35454497E-01
   2.54625000E+03   5.00000000E-01   5.00000000E-01   6.32991688E-01
   2.56375000E+03   5.00000000E-01   5.00000000E-01   6.30528879E-01
   2.58125000E+03   5.00000000E-01   5.00000000E-01   6.28066070E-01
   2.59875000E+03   5.00000000E-01   5.00000000E-01   6.25603261E-01
   2.61625000E+03   5.00000000E-01   5.00000000E-01   6.23140452E-01
   2.63375000E+03   5.00000000E-01   5.00000000E-01   6.20677643E-01
   2.65125000E+03   5.00000000E-01   5.00000000E-01   6.18214834E-01
   2.66875000E+03   5.00000000E-01   5.00000000E-01   6.15752025E-01
   2.68625000E+03   5.00000000E-01   5.00000000E-01   6.13289216E-01
   2.70375000E+03   5.00000000E-01   5.00000000E-01   6.10826407E-01
   2.72125000E+03   5.00000000E-01   5.00000000E-01   6.08363598E-01
   2.73875000E+03   5.00000000E-01   5.00000000E-01   6.05900789E-01
   2.75625000E+03   5.00000000E-01   5.00000000E-01   6.03437980E-01
   2.77375000E+03   5.00000000E-01   5.00000000E-01   6.00975171E-01
   2.79125000E+03   5.00000000E-01   5.00000000E-01   5.98512362E-01
   2.80875000E+03   5.00000000E-01   5.00000000E-01   5.96049553E-01
   2.82625000E+03   5.00000000E-01   5.00000000E-01   5.93586744E-01
   2.84375000E+03   5.00000000E-01   5.00000000E-01   5.91123935E-01
   2.86125000E+03   5.00000000E-01   5.00000000E-01   5.88661126E-01
   2.87875000E+03   5.00000000E-01   5.00000000E-01   5.86198317E-01
   2.89625000E+03   5.00000000E-01   5.00000000E-01   5.83735508E-01
   2.91375000E+03   5.00000000E-01   5.00000000E-01   5.81272698E-01
   2.93125000E+03   5.00000000E-01   5.00000000E-01   5.78809889E-01
   2.94875000E+03   5.00000000E-01   5.00000000E-01   5.76347080E-01
   2.96625000E+03   5.00000000E-01   5.00000000E-01   5.73884271E-01
   2.98375000E+03   5.00000000E-01   5.00000000E-01   5.71421462E-01
   3.00125000E+03   5.00000000E-01   5.00000000E-01   5.68958653E-01
   3.01875000E+03   5.00000000E-01   5.00000000E-01   5.66495844E-01
   3.03625000E+03   5.00000000E-01   5.00000000E-01   5.64033035E-01
   3.05375000E+03   5.00000000E-01   5.00000000E-01   5.61570226E-01
   3.07125000E+03   5.00000000E-01   5.00000000E-01   5.59107417E-01
   3.08875000E+03   5.00000000E-01   5.00000000E-01   5.56644608E-01
   3.10625000E+03   5.00000000E-01   5.00000000E-01   5.54181799E-01
   3.12375000E+03   5.00000000E-01   5.00000000E-01   5.51718990E-01
   3.14125000E+03   5.00000000E-01   5.00000000E-01   5.49256181E-01
   3.15875000E+03   5.00000000E-01   5.00000000E-01   5.46793372E-01
   3.17625000E+03   5.00000000E-01   5.00000000E-01   5.44330563E-01
   3.19375000E+03   5.00000000E-01   5.00000000E-01   5.41867754E-01
   3.21125000E+03   5.00000000E-01   5.00000000E-01   5.39404945E-01
   3.22875000E+03   5.00000000E-01   5.00000000E-01   5.36942136E-01
   3.24625000E+03   5.00000000E-01   5.00000000E-01   5.34479327E-01
   3.26375000E+03   5.00000000E-01   5.00000000E-01   5.32016518E-01
   3.28125000E+03   5.00000000E-01   5.00000000E-01   5.29553709E-01
   3.29875000E+03   5.00000000E-01   5.00000000E-01   5.27090899E-01
   3.31625000E+03   5.00000000E-01   5.00000000E-01   5.24628090E-01
   3.33375000E+03   5.00000000E-01   5.00000000E-01   5.22165281E-01
   3.35125000E+03   5.00000000E-01   5.00000000E-01   5.19702472E-01
   3.36875000E+03   5.00000000E-01   5.00000000E-01   5.17239663E-01
   3.38625000E+03   5.00000000E-01   5.00000000E-01   5.14776854E-01
   3.40375000E+03   5.00000000E-01   5.00000000E-01   5.12314045E-01
   3.42125000E+03   5.00000000E-01   5.00000000E-01   5.09851236E-01
   3.43875000E+03   5.00000000E-01   5.00000000E-01   5.07388427E-01
   3.45625000E+03   5.00000000E-01   5.00000000E-01   5.04925618E-01
   3.47375000E+03   5.00000000E-01   5.00000000E-01   5.02462809E-01
   3.49125000E+03   5.00000000E-01   5.00000000E-01   5.00000000E-01
