 TITLE = "Porosity" 
 VARIABLES = "X"          "Y"              "Z"          "Porosity" 
 ZONE I=         100 , J=           1 , K=           1  F=POINT
   1.75000000E+01   5.00000000E-01   5.00000000E-01   9.90099000E-01
   5.25000000E+01   5.00000000E-01   5.00000000E-01   9.85148505E-01
   8.75000000E+01   5.00000000E-01   5.00000000E-01   9.80198010E-01
   1.22500000E+02   5.00000000E-01   5.00000000E-01   9.75247515E-01
   1.57500000E+02   5.00000000E-01   5.00000000E-01   9.70297020E-01
   1.92500000E+02   5.00000000E-01   5.00000000E-01   9.65346525E-01
   2.27500000E+02   5.00000000E-01   5.00000000E-01   9.60396030E-01
   2.62500000E+02   5.00000000E-01   5.00000000E-01   9.55445535E-01
   2.97500000E+02   5.00000000E-01   5.00000000E-01   9.50495040E-01
   3.32500000E+02   5.00000000E-01   5.00000000E-01   9.45544545E-01
   3.67500000E+02   5.00000000E-01   5.00000000E-01   9.40594051E-01
   4.02500000E+02   5.00000000E-01   5.00000000E-01   9.35643556E-01
   4.37500000E+02   5.00000000E-01   5.00000000E-01   9.30693061E-01
   4.72500000E+02   5.00000000E-01   5.00000000E-01   9.25742566E-01
   5.07500000E+02   5.00000000E-01   5.00000000E-01   9.20792071E-01
   5.42500000E+02   5.00000000E-01   5.00000000E-01   9.15841576E-01
   5.77500000E+02   5.00000000E-01   5.00000000E-01   9.10891081E-01
   6.12500000E+02   5.00000000E-01   5.00000000E-01   9.05940586E-01
   6.47500000E+02   5.00000000E-01   5.00000000E-01   9.00990091E-01
   6.82500000E+02   5.00000000E-01   5.00000000E-01   8.96039596E-01
   7.17500000E+02   5.00000000E-01   5.00000000E-01   8.91089101E-01
   7.52500000E+02   5.00000000E-01   5.00000000E-01   8.86138606E-01
   7.87500000E+02   5.00000000E-01   5.00000000E-01   8.81188111E-01
   8.22500000E+02   5.00000000E-01   5.00000000E-01   8.76237616E-01
   8.57500000E+02   5.00000000E-01   5.00000000E-01   8.71287121E-01
   8.92500000E+02   5.00000000E-01   5.00000000E-01   8.66336626E-01
   9.27500000E+02   5.00000000E-01   5.00000000E-01   8.61386131E-01
   9.62500000E+02   5.00000000E-01   5.00000000E-01   8.56435636E-01
   9.97500000E+02   5.00000000E-01   5.00000000E-01   8.51485141E-01
   1.03250000E+03   5.00000000E-01   5.00000000E-01   8.46534646E-01
   1.06750000E+03   5.00000000E-01   5.00000000E-01   8.41584152E-01
   1.10250000E+03   5.00000000E-01   5.00000000E-01   8.36633657E-01
   1.13750000E+03   5.00000000E-01   5.00000000E-01   8.31683162E-01
   1.17250000E+03   5.00000000E-01   5.00000000E-01   8.26732667E-01
   1.20750000E+03   5.00000000E-01   5.00000000E-01   8.21782172E-01
   1.24250000E+03   5.00000000E-01   5.00000000E-01   8.16831677E-01
   1.27750000E+03   5.00000000E-01   5.00000000E-01   8.11881182E-01
   1.31250000E+03   5.00000000E-01   5.00000000E-01   8.06930687E-01
   1.34750000E+03   5.00000000E-01   5.00000000E-01   8.01980192E-01
   1.38250000E+03   5.00000000E-01   5.00000000E-01   7.97029697E-01
   1.41750000E+03   5.00000000E-01   5.00000000E-01   7.92079202E-01
   1.45250000E+03   5.00000000E-01   5.00000000E-01   7.87128707E-01
   1.48750000E+03   5.00000000E-01   5.00000000E-01   7.82178212E-01
   1.52250000E+03   5.00000000E-01   5.00000000E-01   7.77227717E-01
   1.55750000E+03   5.00000000E-01   5.00000000E-01   7.72277222E-01
   1.59250000E+03   5.00000000E-01   5.00000000E-01   7.67326727E-01
   1.62750000E+03   5.00000000E-01   5.00000000E-01   7.62376232E-01
   1.66250000E+03   5.00000000E-01   5.00000000E-01   7.57425737E-01
   1.69750000E+03   5.00000000E-01   5.00000000E-01   7.52475242E-01
   1.73250000E+03   5.00000000E-01   5.00000000E-01   7.47524747E-01
   1.76750000E+03   5.00000000E-01   5.00000000E-01   7.42574253E-01
   1.80250000E+03   5.00000000E-01   5.00000000E-01   7.37623758E-01
   1.83750000E+03   5.00000000E-01   5.00000000E-01   7.32673263E-01
   1.87250000E+03   5.00000000E-01   5.00000000E-01   7.27722768E-01
   1.90750000E+03   5.00000000E-01   5.00000000E-01   7.22772273E-01
   1.94250000E+03   5.00000000E-01   5.00000000E-01   7.17821778E-01
   1.97750000E+03   5.00000000E-01   5.00000000E-01   7.12871283E-01
   2.01250000E+03   5.00000000E-01   5.00000000E-01   7.07920788E-01
   2.04750000E+03   5.00000000E-01   5.00000000E-01   7.02970293E-01
   2.08250000E+03   5.00000000E-01   5.00000000E-01   6.98019798E-01
   2.11750000E+03   5.00000000E-01   5.00000000E-01   6.93069303E-01
   2.15250000E+03   5.00000000E-01   5.00000000E-01   6.88118808E-01
   2.18750000E+03   5.00000000E-01   5.00000000E-01   6.83168313E-01
   2.22250000E+03   5.00000000E-01   5.00000000E-01   6.78217818E-01
   2.25750000E+03   5.00000000E-01   5.00000000E-01   6.73267323E-01
   2.29250000E+03   5.00000000E-01   5.00000000E-01   6.68316828E-01
   2.32750000E+03   5.00000000E-01   5.00000000E-01   6.63366333E-01
   2.36250000E+03   5.00000000E-01   5.00000000E-01   6.58415838E-01
   2.39750000E+03   5.00000000E-01   5.00000000E-01   6.53465343E-01
   2.43250000E+03   5.00000000E-01   5.00000000E-01   6.48514848E-01
   2.46750000E+03   5.00000000E-01   5.00000000E-01   6.43564354E-01
   2.50250000E+03   5.00000000E-01   5.00000000E-01   6.38613859E-01
   2.53750000E+03   5.00000000E-01   5.00000000E-01   6.33663364E-01
   2.57250000E+03   5.00000000E-01   5.00000000E-01   6.28712869E-01
   2.60750000E+03   5.00000000E-01   5.00000000E-01   6.23762374E-01
   2.64250000E+03   5.00000000E-01   5.00000000E-01   6.18811879E-01
   2.67750000E+03   5.00000000E-01   5.00000000E-01   6.13861384E-01
   2.71250000E+03   5.00000000E-01   5.00000000E-01   6.08910889E-01
   2.74750000E+03   5.00000000E-01   5.00000000E-01   6.03960394E-01
   2.78250000E+03   5.00000000E-01   5.00000000E-01   5.99009899E-01
   2.81750000E+03   5.00000000E-01   5.00000000E-01   5.94059404E-01
   2.85250000E+03   5.00000000E-01   5.00000000E-01   5.89108909E-01
   2.88750000E+03   5.00000000E-01   5.00000000E-01   5.84158414E-01
   2.92250000E+03   5.00000000E-01   5.00000000E-01   5.79207919E-01
   2.95750000E+03   5.00000000E-01   5.00000000E-01   5.74257424E-01
   2.99250000E+03   5.00000000E-01   5.00000000E-01   5.69306929E-01
   3.02750000E+03   5.00000000E-01   5.00000000E-01   5.64356434E-01
   3.06250000E+03   5.00000000E-01   5.00000000E-01   5.59405939E-01
   3.09750000E+03   5.00000000E-01   5.00000000E-01   5.54455444E-01
   3.13250000E+03   5.00000000E-01   5.00000000E-01   5.49504949E-01
   3.16750000E+03   5.00000000E-01   5.00000000E-01   5.44554455E-01
   3.20250000E+03   5.00000000E-01   5.00000000E-01   5.39603960E-01
   3.23750000E+03   5.00000000E-01   5.00000000E-01   5.34653465E-01
   3.27250000E+03   5.00000000E-01   5.00000000E-01   5.29702970E-01
   3.30750000E+03   5.00000000E-01   5.00000000E-01   5.24752475E-01
   3.34250000E+03   5.00000000E-01   5.00000000E-01   5.19801980E-01
   3.37750000E+03   5.00000000E-01   5.00000000E-01   5.14851485E-01
   3.41250000E+03   5.00000000E-01   5.00000000E-01   5.09900990E-01
   3.44750000E+03   5.00000000E-01   5.00000000E-01   5.04950495E-01
   3.48250000E+03   5.00000000E-01   5.00000000E-01   5.00000000E-01
