 TITLE = "Porosity" 
 VARIABLES = "X"          "Y"              "Z"          "Porosity" 
 ZONE I=          10 , J=           1 , K=           1  F=POINT
   1.75000000E+02   5.00000000E-01   5.00000000E-01   8.12999987E-02
   5.25000000E+02   5.00000000E-01   5.00000000E-01   8.12999987E-02
   8.75000000E+02   5.00000000E-01   5.00000000E-01   8.12999987E-02
   1.22500000E+03   5.00000000E-01   5.00000000E-01   8.12999987E-02
   1.57500000E+03   5.00000000E-01   5.00000000E-01   8.12999987E-02
   1.92500000E+03   5.00000000E-01   5.00000000E-01   8.12999987E-02
   2.27500000E+03   5.00000000E-01   5.00000000E-01   8.12999987E-02
   2.62500000E+03   5.00000000E-01   5.00000000E-01   8.12999987E-02
   2.97500000E+03   5.00000000E-01   5.00000000E-01   8.12999987E-02
   3.32500000E+03   5.00000000E-01   5.00000000E-01   8.12999987E-02
