 TITLE = "Mineral Rate (mol/m^3/sec)" 
VARIABLES = "X"          "Y"              "Z"            "Forsterite"     "Enstatite(alph" "Anorthite"      "Ferropargasite" "Anhydrite"      "Clinochlore"    "Albite(low)"    "Fayalite"       "Epidote"        "Kaolinite"      "Muscovite(orde" "Sudoite"        "Saponite(Mg)"   "Scolecite"      "Pyrite"         "Quartz(alpha)" 
 ZONE I=         100 , J=           1 , K=           1  F=POINT
   1.75000000E+01   5.00000000E-01   5.00000000E-01  -9.99770702E-09  -9.99188814E-10  -9.98522765E-10  -9.99413840E-10  -2.10268205E-06   2.05269325E-08  -6.33250634E-08  -9.97539889E-09   4.98300778E-17  -9.70165423E-10   1.33322715E-08   0.00000000E+00   1.32521371E-08  -7.63111867E-09   0.00000000E+00   2.37504677E-10
   5.25000000E+01   5.00000000E-01   5.00000000E-01  -9.99770703E-09  -9.99163517E-10  -9.98522760E-10  -9.99413840E-10  -2.12953158E-05   8.86723847E-09  -4.65800113E-08  -9.97483574E-09   3.07598214E-17  -9.65484011E-10   1.54488129E-08   0.00000000E+00   1.37650175E-08  -7.62737661E-09   0.00000000E+00   3.12106837E-10
   8.75000000E+01   5.00000000E-01   5.00000000E-01  -9.99770703E-09  -9.99125492E-10  -9.98522756E-10  -9.99413840E-10  -9.02298347E-06   5.57938780E-09  -3.88532581E-08  -9.97405417E-09   5.80655524E-19  -9.63521048E-10   1.46990421E-08   0.00000000E+00   1.69724747E-08  -7.62547840E-09   0.00000000E+00   3.47186767E-10
   1.22500000E+02   5.00000000E-01   5.00000000E-01  -9.99770702E-09  -9.99083554E-10  -9.98522754E-10  -9.99413840E-10  -1.61275242E-06   4.31842487E-09  -3.49336944E-08  -9.97302749E-09  -2.01183070E-18  -9.61762227E-10   1.40775685E-08   0.00000000E+00   1.83312041E-08  -7.62483073E-09   0.00000000E+00   3.62503664E-10
   1.57500000E+02   5.00000000E-01   5.00000000E-01  -9.99770701E-09  -9.99039258E-10  -9.98522752E-10  -9.99413840E-10   4.25954525E-07   3.73561356E-09  -3.28999403E-08  -9.97177663E-09  -2.75775846E-18  -9.59859118E-10   1.37018909E-08   0.00000000E+00   1.90796035E-08  -7.62451171E-09   0.00000000E+00   3.67696524E-10
   1.92500000E+02   5.00000000E-01   5.00000000E-01  -9.99770699E-09  -9.98993015E-10  -9.98522749E-10  -9.99413840E-10   9.07564568E-07   3.45006236E-09  -3.19160508E-08  -9.97032640E-09  -3.14130942E-18  -9.57751536E-10   1.35024929E-08   0.00000000E+00   1.96110123E-08  -7.62425590E-09   0.00000000E+00   3.67257793E-10
   2.27500000E+02   5.00000000E-01   5.00000000E-01  -9.99770698E-09  -9.98944948E-10  -9.98522745E-10  -9.99413840E-10   1.02460333E-06   3.31967433E-09  -3.15657055E-08  -9.96869834E-09  -3.47213811E-18  -9.55430903E-10   1.34203208E-08   0.00000000E+00   2.00574923E-08  -7.62400528E-09   0.00000000E+00   3.63497196E-10
   2.62500000E+02   5.00000000E-01   5.00000000E-01  -9.99770696E-09  -9.98895084E-10  -9.98522741E-10  -9.99413840E-10   1.05587862E-06   3.28027337E-09  -3.16192246E-08  -9.96691169E-09  -3.84176244E-18  -9.52897725E-10   1.34158395E-08   0.00000000E+00   2.04698086E-08  -7.62375034E-09   0.00000000E+00   3.57716708E-10
   2.97500000E+02   5.00000000E-01   5.00000000E-01  -9.99770694E-09  -9.98843415E-10  -9.98522736E-10  -9.99413840E-10   1.06529438E-06   3.29900772E-09  -3.19411810E-08  -9.96498421E-09  -4.27831989E-18  -9.50152823E-10   1.34632574E-08   0.00000000E+00   2.08704750E-08  -7.62349217E-09   0.00000000E+00   3.50693685E-10
   3.32500000E+02   5.00000000E-01   5.00000000E-01  -9.99770691E-09  -9.98789917E-10  -9.98522729E-10  -9.99413840E-10   1.06738528E-06   3.35758953E-09  -3.24479075E-08  -9.96293229E-09  -4.79161596E-18  -9.47195578E-10   1.35456347E-08   0.00000000E+00   2.12704687E-08  -7.62323357E-09   0.00000000E+00   3.42909653E-10
   3.67500000E+02   5.00000000E-01   5.00000000E-01  -9.99770689E-09  -9.98734559E-10  -9.98522722E-10  -9.99413840E-10   1.06555965E-06   3.44523259E-09  -3.30857855E-08  -9.96077106E-09  -5.38904028E-18  -9.44023895E-10   1.36516666E-08   0.00000000E+00   2.16752878E-08  -7.62297718E-09   0.00000000E+00   3.34670899E-10
   4.02500000E+02   5.00000000E-01   5.00000000E-01  -9.99770686E-09  -9.98677303E-10  -9.98522713E-10  -9.99413840E-10   1.06076237E-06   3.55530290E-09  -3.38192940E-08  -9.95851435E-09  -6.07499822E-18  -9.40634539E-10   1.37736507E-08   0.00000000E+00   2.20874371E-08  -7.62272513E-09   0.00000000E+00   3.26176671E-10
   4.37500000E+02   5.00000000E-01   5.00000000E-01  -9.99770682E-09  -9.98618112E-10  -9.98522703E-10  -9.99413840E-10   1.05339933E-06   3.68357918E-09  -3.46240765E-08  -9.95617476E-09  -6.85673733E-18  -9.37023515E-10   1.39062075E-08   0.00000000E+00   2.25075654E-08  -7.62247917E-09   0.00000000E+00   3.17559508E-10
   4.72500000E+02   5.00000000E-01   5.00000000E-01  -9.99770678E-09  -9.98556944E-10  -9.98522691E-10  -9.99413840E-10   1.04375524E-06   3.82728216E-09  -3.54827654E-08  -9.95376378E-09  -7.74349464E-18  -9.33186372E-10   1.40454705E-08   0.00000000E+00   2.29350374E-08  -7.62224073E-09   0.00000000E+00   3.08909798E-10
   5.07500000E+02   5.00000000E-01   5.00000000E-01  -9.99770673E-09  -9.98493757E-10  -9.98522677E-10  -9.99413840E-10   1.03208149E-06   3.98449987E-09  -3.63823991E-08  -9.95129197E-09  -8.74607042E-18  -9.29118433E-10   1.41885731E-08   0.00000000E+00   2.33682505E-08  -7.62201097E-09   0.00000000E+00   3.00291024E-10
   5.42500000E+02   5.00000000E-01   5.00000000E-01  -9.99770668E-09  -9.98428510E-10  -9.98522661E-10  -9.99413840E-10   1.01861326E-06   4.15382957E-09  -3.73127929E-08  -9.94876917E-09  -9.87611756E-18  -9.24814953E-10   1.43333225E-08   0.00000000E+00   2.38048274E-08  -7.62179087E-09   0.00000000E+00   2.91749376E-10
   5.77500000E+02   5.00000000E-01   5.00000000E-01  -9.99770663E-09  -9.98361159E-10  -9.98522642E-10  -9.99413840E-10   1.00357214E-06   4.33414423E-09  -3.82655014E-08  -9.94620467E-09  -1.11481311E-17  -9.20271198E-10   1.44779943E-08   0.00000000E+00   2.42417498E-08  -7.62158123E-09   0.00000000E+00   2.83319852E-10
   6.12500000E+02   5.00000000E-01   5.00000000E-01  -9.99770656E-09  -9.98291661E-10  -9.98522620E-10  -9.99413840E-10   9.87166161E-07   4.52443410E-09  -3.92331555E-08  -9.94360749E-09  -1.25803010E-17  -9.15482473E-10   1.46212055E-08   0.00000000E+00   2.46754635E-08  -7.62138274E-09   0.00000000E+00   2.75030151E-10
   6.47500000E+02   5.00000000E-01   5.00000000E-01  -9.99770649E-09  -9.98219975E-10  -9.98522594E-10  -9.99413840E-10   9.69589409E-07   4.72369547E-09  -4.02090439E-08  -9.94098654E-09  -1.41926646E-17  -9.10444085E-10   1.47618381E-08   0.00000000E+00   2.51019730E-08  -7.62119594E-09   0.00000000E+00   2.66903148E-10
   6.82500000E+02   5.00000000E-01   5.00000000E-01  -9.99770641E-09  -9.98146031E-10  -9.98522565E-10  -9.99413840E-10   9.51021889E-07   4.92892022E-09  -4.11929510E-08  -9.93835068E-09  -1.60498811E-17  -9.05175220E-10   1.48917631E-08   7.86027760E-12   2.55177209E-08  -7.62102349E-09   0.00000000E+00   2.58967403E-10
   7.17500000E+02   5.00000000E-01   5.00000000E-01  -9.99770632E-09  -9.98069790E-10  -9.98522531E-10  -9.99413840E-10   9.31629715E-07   5.13863994E-09  -4.21763659E-08  -9.93570987E-09  -1.81536560E-17  -8.99672148E-10   1.50111705E-08   2.23489186E-11   2.59191155E-08  -7.62086685E-09   0.00000000E+00   2.51243267E-10
   7.52500000E+02   5.00000000E-01   5.00000000E-01  -9.99770622E-09  -9.97991230E-10  -9.98522493E-10  -9.99413840E-10   9.11565274E-07   5.35236940E-09  -4.31487492E-08  -9.93307453E-09  -2.05135105E-17  -8.93916263E-10   1.51240733E-08   3.84844355E-11   2.63010860E-08  -7.62072354E-09   0.00000000E+00   2.43742704E-10
   7.87500000E+02   5.00000000E-01   5.00000000E-01  -9.99770611E-09  -9.97910310E-10  -9.98522449E-10  -9.99413840E-10   8.90967609E-07   5.56854730E-09  -4.41047820E-08  -9.93045506E-09  -2.31874248E-17  -8.87903148E-10   1.52301690E-08   5.63907834E-11   2.66583571E-08  -7.62059360E-09   0.00000000E+00   2.36477745E-10
   8.22500000E+02   5.00000000E-01   5.00000000E-01  -9.99770598E-09  -9.97826993E-10  -9.98522399E-10  -9.99413840E-10   8.69963024E-07   5.78538333E-09  -4.50392532E-08  -9.92786254E-09  -2.62240712E-17  -8.81627916E-10   1.53292845E-08   7.61895348E-11   2.69862005E-08  -7.62047694E-09   0.00000000E+00   2.29459630E-10
   8.57500000E+02   5.00000000E-01   5.00000000E-01  -9.99770584E-09  -9.97741243E-10  -9.98522342E-10  -9.99413840E-10   8.48665674E-07   6.00087881E-09  -4.59470864E-08  -9.92530878E-09  -2.96792273E-17  -8.75084858E-10   1.54214165E-08   9.79983046E-11   2.72800546E-08  -7.62037337E-09   0.00000000E+00   2.22698645E-10
   8.92500000E+02   5.00000000E-01   5.00000000E-01  -9.99770569E-09  -9.97653024E-10  -9.98522278E-10  -9.99413840E-10   8.27178233E-07   6.21285296E-09  -4.68234143E-08  -9.92280630E-09  -3.36182630E-17  -8.68267228E-10   1.55067295E-08   1.21928889E-10   2.75356223E-08  -7.62028259E-09   0.00000000E+00   2.16203949E-10
   9.27500000E+02   5.00000000E-01   5.00000000E-01  -9.99770552E-09  -9.97562304E-10  -9.98522206E-10  -9.99413840E-10   8.05592590E-07   6.41898191E-09  -4.76636567E-08  -9.92036832E-09  -3.81184131E-17  -8.61167058E-10   1.55855473E-08   1.48085507E-10   2.77489701E-08  -7.62020419E-09   0.00000000E+00   2.09983394E-10
   9.62500000E+02   5.00000000E-01   5.00000000E-01  -9.99770533E-09  -9.97469051E-10  -9.98522124E-10  -9.99413840E-10   7.83990569E-07   6.61684988E-09  -4.84635981E-08  -9.91800856E-09  -4.32672899E-17  -8.53775011E-10   1.56583358E-08   1.76563214E-10   2.79166222E-08  -7.62013768E-09   0.00000000E+00   2.04043357E-10
   9.97500000E+02   5.00000000E-01   5.00000000E-01  -9.99770513E-09  -9.97373238E-10  -9.98522033E-10  -9.99413840E-10   7.62444650E-07   6.80401122E-09  -4.92194628E-08  -9.91574118E-09  -4.91694841E-17  -8.46080310E-10   1.57256789E-08   2.07446549E-10   2.80356480E-08  -7.62008249E-09   0.00000000E+00   1.98388574E-10
   1.03250000E+03   5.00000000E-01   5.00000000E-01  -9.99770490E-09  -9.97274835E-10  -9.98521931E-10  -9.99413840E-10   7.41018678E-07   6.97806120E-09  -4.99279838E-08  -9.91358048E-09  -5.59446511E-17  -8.38070729E-10   1.57882462E-08   2.40808466E-10   2.81037402E-08  -7.62003803E-09   0.00000000E+00   1.93022015E-10
   1.06750000E+03   5.00000000E-01   5.00000000E-01  -9.99770465E-09  -9.97173816E-10  -9.98521817E-10  -9.99413840E-10   7.19768555E-07   7.13671230E-09  -5.05864649E-08  -9.91154068E-09  -6.37331941E-17  -8.29732690E-10   1.58467569E-08   2.76709565E-10   2.81192834E-08  -7.62000367E-09   0.00000000E+00   1.87944764E-10
   1.10250000E+03   5.00000000E-01   5.00000000E-01  -9.99770438E-09  -9.97070154E-10  -9.98521690E-10  -9.99413840E-10   6.98742908E-07   7.27787253E-09  -5.11928329E-08  -9.90963565E-09  -7.26964774E-17  -8.21051443E-10   1.59019389E-08   3.15197653E-10   2.80814095E-08  -7.61997881E-09   0.00000000E+00   1.83155944E-10
   1.13750000E+03   5.00000000E-01   5.00000000E-01  -9.99770408E-09  -9.96963825E-10  -9.98521549E-10  -9.99413840E-10   6.77983725E-07   7.39972100E-09  -5.17456789E-08  -9.90787856E-09  -8.30210895E-17  -8.12011351E-10   1.59544880E-08   3.56307644E-10   2.79900397E-08  -7.61996286E-09   0.00000000E+00   1.78652674E-10
   1.17250000E+03   5.00000000E-01   5.00000000E-01  -9.99770376E-09  -9.96854800E-10  -9.98521393E-10  -9.99413840E-10   6.57526956E-07   7.50077662E-09  -5.22442871E-08  -9.90628159E-09  -9.49234606E-17  -8.02596255E-10   1.60050289E-08   4.00061802E-10   2.78459105E-08  -7.61995531E-09   0.00000000E+00   1.74430050E-10
   1.20750000E+03   5.00000000E-01   5.00000000E-01  -9.99770341E-09  -9.96743052E-10  -9.98521221E-10  -9.99413840E-10   6.37403078E-07   7.57995506E-09  -5.26886488E-08  -9.90485562E-09  -1.08651857E-16  -7.92789913E-10   1.60540799E-08   4.46470338E-10   2.76505806E-08  -7.61995571E-09   0.00000000E+00   1.70481182E-10
   1.24250000E+03   5.00000000E-01   5.00000000E-01  -9.99770303E-09  -9.96628551E-10  -9.98521031E-10  -9.99413840E-10   6.17637623E-07   7.63661037E-09  -5.30794617E-08  -9.90360995E-09  -1.24491417E-16  -7.82576485E-10   1.61020263E-08   4.95532382E-10   2.74064185E-08  -7.61996370E-09   0.00000000E+00   1.66797260E-10
   1.27750000E+03   5.00000000E-01   5.00000000E-01  -9.99770263E-09  -9.96511264E-10  -9.98520822E-10  -9.99413840E-10   5.98251672E-07   7.67055792E-09  -5.34181129E-08  -9.90255209E-09  -1.42770270E-16  -7.71941033E-10   1.61491013E-08   5.47237353E-10   2.71165668E-08  -7.61997904E-09   0.00000000E+00   1.63367664E-10
   1.31250000E+03   5.00000000E-01   5.00000000E-01  -9.99770219E-09  -9.96391157E-10  -9.98520592E-10  -9.99413840E-10   5.79262303E-07   7.68207709E-09  -5.37066452E-08  -9.90168752E-09  -1.63862375E-16  -7.60870014E-10   1.61953778E-08   6.01566716E-10   2.67848837E-08  -7.62000157E-09   0.00000000E+00   1.60180118E-10
   1.34750000E+03   5.00000000E-01   5.00000000E-01  -9.99770171E-09  -9.96268189E-10  -9.98520341E-10  -9.99413840E-10   5.60683008E-07   7.67189323E-09  -5.39477072E-08  -9.90101969E-09  -1.88195123E-16  -7.49351720E-10   1.62407708E-08   6.58496135E-10   2.64158595E-08  -7.62003124E-09   0.00000000E+00   1.57220885E-10
   1.38250000E+03   5.00000000E-01   5.00000000E-01  -9.99770121E-09  -9.96142318E-10  -9.98520067E-10  -9.99413840E-10   5.42524080E-07   7.64114017E-09  -5.41444874E-08  -9.90054986E-09  -2.16255449E-16  -7.37376648E-10   1.62850491E-08   7.17997981E-10   2.60145121E-08  -7.62006808E-09   0.00000000E+00   1.54474995E-10
   1.41750000E+03   5.00000000E-01   5.00000000E-01  -9.99770067E-09  -9.96013498E-10  -9.98519769E-10  -9.99413840E-10   5.24792960E-07   7.59130593E-09  -5.43006357E-08  -9.90027723E-09  -2.48594876E-16  -7.24937772E-10   1.63278558E-08   7.80044104E-10   2.55862619E-08  -7.62011219E-09   0.00000000E+00   1.51926506E-10
   1.45250000E+03   5.00000000E-01   5.00000000E-01  -9.99770010E-09  -9.95881676E-10  -9.98519444E-10  -9.99413840E-10   5.07494557E-07   7.52416553E-09  -5.44201727E-08  -9.90019903E-09  -2.85840102E-16  -7.12030703E-10   1.63687350E-08   8.44608752E-10   2.51367928E-08  -7.62016373E-09   0.00000000E+00   1.49558789E-10
   1.48750000E+03   5.00000000E-01   5.00000000E-01  -9.99769949E-09  -9.95746798E-10  -9.98519092E-10  -9.99413840E-10   4.90631547E-07   7.44170564E-09  -5.45073923E-08  -9.90031065E-09  -3.28700605E-16  -6.98653742E-10   1.64071624E-08   9.11671489E-10   2.46719050E-08  -7.62022288E-09   0.00000000E+00   1.47354824E-10
   1.52250000E+03   5.00000000E-01   5.00000000E-01  -9.99769885E-09  -9.95608806E-10  -9.98518711E-10  -9.99413840E-10   4.74204634E-07   7.34604613E-09  -5.45667595E-08  -9.90060586E-09  -3.77978372E-16  -6.84807818E-10   1.64425766E-08   9.81219917E-10   2.41973673E-08  -7.62028983E-09   0.00000000E+00   1.45297505E-10
   1.55750000E+03   5.00000000E-01   5.00000000E-01  -9.99769818E-09  -9.95467636E-10  -9.98518299E-10  -9.99413840E-10   4.58212802E-07   7.23936328E-09  -5.46028097E-08  -9.90107707E-09  -4.34579417E-16  -6.70496338E-10   1.64744091E-08   1.05325203E-09   2.37187761E-08  -7.62036477E-09   0.00000000E+00   1.43369921E-10
   1.59250000E+03   5.00000000E-01   5.00000000E-01  -9.99769747E-09  -9.95323225E-10  -9.98517855E-10  -9.99413840E-10   4.42653537E-07   7.12381913E-09  -5.46200512E-08  -9.90171556E-09  -4.99527062E-16  -6.55724965E-10   1.65021113E-08   1.12777804E-09   2.32414292E-08  -7.62044785E-09   0.00000000E+00   1.41555634E-10
   1.62750000E+03   5.00000000E-01   5.00000000E-01  -9.99769674E-09  -9.95175504E-10  -9.98517377E-10  -9.99413840E-10   4.27523035E-07   7.00150007E-09  -5.46228771E-08  -9.90251173E-09  -5.73976789E-16  -6.40501352E-10   1.65251754E-08   1.20482157E-09   2.27702202E-08  -7.62053917E-09   0.00000000E+00   1.39838917E-10
   1.66250000E+03   5.00000000E-01   5.00000000E-01  -9.99769597E-09  -9.95024405E-10  -9.98516864E-10  -9.99413840E-10   4.12816391E-07   6.87436698E-09  -5.46154875E-08  -9.90345535E-09  -6.59233295E-16  -6.24834853E-10   1.65431509E-08   1.28442008E-09   2.23095571E-08  -7.62063879E-09   0.00000000E+00   1.38204955E-10
   1.69750000E+03   5.00000000E-01   5.00000000E-01  -9.99769516E-09  -9.94869856E-10  -9.98516314E-10  -9.99413840E-10   3.98527772E-07   6.74421782E-09  -5.46018251E-08  -9.90453574E-09  -7.56770454E-16  -6.08736240E-10   1.65556540E-08   1.36662466E-09   2.18633082E-08  -7.62074669E-09   0.00000000E+00   1.36640004E-10
   1.73250000E+03   5.00000000E-01   5.00000000E-01  -9.99769432E-09  -9.94711786E-10  -9.98515725E-10  -9.99413840E-10   3.84650573E-07   6.61266268E-09  -5.45855260E-08  -9.90574199E-09  -8.68254695E-16  -5.92217437E-10   1.65623720E-08   1.45149906E-09   2.14347744E-08  -7.62086282E-09   0.00000000E+00   1.35131508E-10
   1.76750000E+03   5.00000000E-01   5.00000000E-01  -9.99769343E-09  -9.94550120E-10  -9.98515096E-10  -9.99413840E-10   3.71177558E-07   6.48111039E-09  -5.45698842E-08  -9.90706312E-09  -9.95569589E-16  -5.75291293E-10   1.65630626E-08   1.53911823E-09   2.10266867E-08  -7.62098702E-09   0.00000000E+00   1.33668172E-10
   1.80250000E+03   5.00000000E-01   5.00000000E-01  -9.99769249E-09  -9.94384785E-10  -9.98514425E-10  -9.99413840E-10   3.58100994E-07   6.35076510E-09  -5.45578317E-08  -9.90848817E-09  -1.14084632E-15  -5.57971398E-10   1.65575499E-08   1.62956631E-09   2.06412254E-08  -7.62111910E-09   0.00000000E+00   1.32239982E-10
   1.83750000E+03   5.00000000E-01   5.00000000E-01  -9.99769149E-09  -9.94215707E-10  -9.98513711E-10  -9.99413840E-10   3.45412759E-07   6.22263103E-09  -5.45519301E-08  -9.91000633E-09  -1.30649775E-15  -5.40271941E-10   1.65457172E-08   1.72293436E-09   2.02800562E-08  -7.62125880E-09   0.00000000E+00   1.30838206E-10
   1.87250000E+03   5.00000000E-01   5.00000000E-01  -9.99769042E-09  -9.94042812E-10  -9.98512951E-10  -9.99413840E-10   3.33104448E-07   6.09752348E-09  -5.45543748E-08  -9.91160699E-09  -1.49525587E-15  -5.22207621E-10   1.65274987E-08   1.81931794E-09   1.99443800E-08  -7.62140582E-09   0.00000000E+00   1.29455349E-10
   1.90750000E+03   5.00000000E-01   5.00000000E-01  -9.99768928E-09  -9.93866024E-10  -9.98512145E-10  -9.99413840E-10   3.21167461E-07   5.97608410E-09  -5.45670073E-08  -9.91327982E-09  -1.71021436E-15  -5.03793591E-10   1.65028704E-08   1.91881455E-09   1.96349899E-08  -7.62155981E-09   0.00000000E+00   1.28085088E-10
   1.94250000E+03   5.00000000E-01   5.00000000E-01  -9.99768805E-09  -9.93685269E-10  -9.98511291E-10  -9.99413840E-10   3.09593083E-07   5.85879886E-09  -5.45913360E-08  -9.91501479E-09  -1.95487736E-15  -4.85045441E-10   1.64718410E-08   2.02152119E-09   1.93523337E-08  -7.62172037E-09   0.00000000E+00   1.26722190E-10
   1.97750000E+03   5.00000000E-01   5.00000000E-01  -9.99768672E-09  -9.93500471E-10  -9.98510387E-10  -9.99413840E-10   2.98372547E-07   5.74601732E-09  -5.46285611E-08  -9.91680219E-09  -2.23321490E-15  -4.65979209E-10   1.64344434E-08   2.12753206E-09   1.90965764E-08  -7.62188709E-09   0.00000000E+00   1.25362413E-10
   2.01250000E+03   5.00000000E-01   5.00000000E-01  -9.99768529E-09  -9.93311555E-10  -9.98509433E-10  -9.99413840E-10   2.87497097E-07   5.63797193E-09  -5.46796037E-08  -9.91863268E-09  -2.54972371E-15  -4.46611407E-10   1.63907277E-08   2.23693641E-09   1.88676609E-08  -7.62205953E-09   0.00000000E+00   1.24002404E-10
   2.04750000E+03   5.00000000E-01   5.00000000E-01  -9.99768374E-09  -9.93118445E-10  -9.98508427E-10  -9.99413840E-10   2.76958031E-07   5.53479680E-09  -5.47451362E-08  -9.92049727E-09  -2.90949309E-15  -4.26959068E-10   1.63407549E-08   2.34981665E-09   1.86653653E-08  -7.62223724E-09   0.00000000E+00   1.22639589E-10
   2.08250000E+03   5.00000000E-01   5.00000000E-01  -9.99768206E-09  -9.92921064E-10  -9.98507367E-10  -9.99413840E-10   2.66746742E-07   5.43654511E-09  -5.48256135E-08  -9.92238734E-09  -3.31828450E-15  -4.07039799E-10   1.62845916E-08   2.46624678E-09   1.84893549E-08  -7.62241973E-09   0.00000000E+00   1.21272069E-10
   2.11750000E+03   5.00000000E-01   5.00000000E-01  -9.99768025E-09  -9.92719335E-10  -9.98506253E-10  -9.99413840E-10   2.56854750E-07   5.34320507E-09  -5.49213042E-08  -9.92429468E-09  -3.78261405E-15  -3.86871837E-10   1.62223068E-08   2.58629099E-09   1.83392277E-08  -7.62260654E-09   0.00000000E+00   1.19898519E-10
   2.15250000E+03   5.00000000E-01   5.00000000E-01  -9.99767829E-09  -9.92513180E-10  -9.98505084E-10  -9.99413840E-10   2.47273727E-07   5.25471406E-09  -5.50323187E-08  -9.92621144E-09  -4.30984602E-15  -3.66474167E-10   1.61539686E-08   2.71000260E-09   1.82145554E-08  -7.62279719E-09   0.00000000E+00   1.18518090E-10
   2.18750000E+03   5.00000000E-01   5.00000000E-01  -9.99767616E-09  -9.92302522E-10  -9.98503859E-10  -9.99413840E-10   2.37995513E-07   5.17097099E-09  -5.51586379E-08  -9.92813021E-09  -4.90829918E-15  -3.45866434E-10   1.60796431E-08   2.83742317E-09   1.81149163E-08  -7.62299122E-09   0.00000000E+00   1.17130319E-10
   2.22250000E+03   5.00000000E-01   5.00000000E-01  -9.99767386E-09  -9.92087279E-10  -9.98502577E-10  -9.99413840E-10   2.29012135E-07   5.09184695E-09  -5.53001376E-08  -9.93004398E-09  -5.58735783E-15  -3.25069051E-10   1.59993926E-08   2.96858193E-09   1.80399246E-08  -7.62318811E-09   0.00000000E+00   1.15735052E-10
   2.25750000E+03   5.00000000E-01   5.00000000E-01  -9.99767137E-09  -9.91867372E-10  -9.98501238E-10  -9.99413840E-10   2.20315807E-07   5.01719430E-09  -5.54566126E-08  -9.93194617E-09  -6.35759968E-15  -3.04103306E-10   1.59132758E-08   3.10349541E-09   1.79892530E-08  -7.62338739E-09   0.00000000E+00   1.14332369E-10
   2.29250000E+03   5.00000000E-01   5.00000000E-01  -9.99766869E-09  -9.91642719E-10  -9.98499841E-10  -9.99413840E-10   2.11898942E-07   4.94685410E-09  -5.56277959E-08  -9.93383064E-09  -7.23093254E-15  -2.82991372E-10   1.58213474E-08   3.24216718E-09   1.79626513E-08  -7.62358860E-09   0.00000000E+00   1.12922523E-10
   2.32750000E+03   5.00000000E-01   5.00000000E-01  -9.99766579E-09  -9.91413236E-10  -9.98498386E-10  -9.99413840E-10   2.03754148E-07   4.88066242E-09  -5.58133774E-08  -9.93569171E-09  -8.22074140E-15  -2.61756354E-10   1.57236589E-08   3.38458785E-09   1.79599604E-08  -7.62379128E-09   0.00000000E+00   1.11505884E-10
   2.36250000E+03   5.00000000E-01   5.00000000E-01  -9.99766267E-09  -9.91178838E-10  -9.98496874E-10  -9.99413840E-10   1.95874228E-07   4.81845534E-09  -5.60130188E-08  -9.93752414E-09  -9.34205168E-15  -2.40422322E-10   1.56202584E-08   3.53073514E-09   1.79811233E-08  -7.62399500E-09   0.00000000E+00   1.10082890E-10
   2.39750000E+03   5.00000000E-01   5.00000000E-01  -9.99765932E-09  -9.90939439E-10  -9.98495303E-10  -9.99413840E-10   1.88252176E-07   4.76007301E-09  -5.62263673E-08  -9.93932317E-09  -1.06117001E-14  -2.19014333E-10   1.55111916E-08   3.68057409E-09   1.80261920E-08  -7.62419931E-09   0.00000000E+00   1.08654011E-10
   2.43250000E+03   5.00000000E-01   5.00000000E-01  -9.99765573E-09  -9.90694951E-10  -9.98493676E-10  -9.99413840E-10   1.80881167E-07   4.70536289E-09  -5.64530666E-08  -9.94108448E-09  -1.20485185E-14  -1.97558450E-10   1.53965026E-08   3.83405743E-09   1.80953326E-08  -7.62440381E-09   0.00000000E+00   1.07219714E-10
   2.46750000E+03   5.00000000E-01   5.00000000E-01  -9.99765189E-09  -9.90445285E-10  -9.98491990E-10  -9.99413840E-10   1.73754554E-07   4.65418220E-09  -5.66927664E-08  -9.94280423E-09  -1.36735271E-14  -1.76081788E-10   1.52762342E-08   3.99112598E-09   1.81888269E-08  -7.62460810E-09   0.00000000E+00   1.05780434E-10
   2.50250000E+03   5.00000000E-01   5.00000000E-01  -9.99764780E-09  -9.90190346E-10  -9.98490249E-10  -9.99413840E-10   1.66865857E-07   4.60639980E-09  -5.69451299E-08  -9.94447906E-09  -1.55101354E-14  -1.54612530E-10   1.51504289E-08   4.15170910E-09   1.83070728E-08  -7.62481178E-09   0.00000000E+00   1.04336554E-10
   2.53750000E+03   5.00000000E-01   5.00000000E-01  -9.99764346E-09  -9.89930043E-10  -9.98488451E-10  -9.99413840E-10   1.60208749E-07   4.56189760E-09  -5.72098396E-08  -9.94610605E-09  -1.75843490E-14  -1.33179947E-10   1.50191293E-08   4.31572525E-09   1.84505821E-08  -7.62501449E-09   0.00000000E+00   1.02888390E-10
   2.57250000E+03   5.00000000E-01   5.00000000E-01  -9.99763886E-09  -9.89664277E-10  -9.98486598E-10  -9.99413840E-10   1.53777054E-07   4.52057149E-09  -5.74866017E-08  -9.94768272E-09  -1.99249795E-14  -1.11814416E-10   1.48823785E-08   4.48308253E-09   1.86199761E-08  -7.62521588E-09   0.00000000E+00   1.01436174E-10
   2.60750000E+03   5.00000000E-01   5.00000000E-01  -9.99763401E-09  -9.89392951E-10  -9.98484691E-10  -9.99413840E-10   1.47564728E-07   4.48233197E-09  -5.77751494E-08  -9.94920703E-09  -2.25638485E-14  -9.05474254E-11   1.47402212E-08   4.65367927E-09   1.88159804E-08  -7.62541562E-09   0.00000000E+00   9.99800499E-11
   2.64250000E+03   5.00000000E-01   5.00000000E-01  -9.99762890E-09  -9.89115962E-10  -9.98482730E-10  -9.99413840E-10   1.41565855E-07   4.44710453E-09  -5.80752450E-08  -9.95067739E-09  -2.55359885E-14  -6.94115907E-11   1.45927035E-08   4.82740461E-09   1.90394168E-08  -7.62561339E-09   0.00000000E+00   9.85200633E-11
   2.67750000E+03   5.00000000E-01   5.00000000E-01  -9.99762353E-09  -9.88833206E-10  -9.98480717E-10  -9.99413840E-10   1.35774635E-07   4.41482972E-09  -5.83866800E-08  -9.95209257E-09  -2.88798230E-14  -4.84406532E-11   1.44398739E-08   5.00413909E-09   1.92911936E-08  -7.62580889E-09   0.00000000E+00   9.70561626E-11
   2.71250000E+03   5.00000000E-01   5.00000000E-01  -9.99761789E-09  -9.88544575E-10  -9.98478653E-10  -9.99413840E-10   1.30185371E-07   4.38546311E-09  -5.87092757E-08  -9.95345174E-09  -3.26373271E-14  -2.76694593E-11   1.42817835E-08   5.18375520E-09   1.95722945E-08  -7.62600187E-09   0.00000000E+00   9.55881972E-11
   2.74750000E+03   5.00000000E-01   5.00000000E-01  -9.99761144E-09  -9.88249961E-10  -9.98476538E-10  -9.99413840E-10   1.24792467E-07   4.35897507E-09  -5.90428813E-08  -9.95475444E-09  -3.68541512E-14  -7.13395417E-12   1.41184869E-08   5.36611794E-09   1.98837642E-08  -7.62619204E-09   0.00000000E+00   9.41159207E-11
   2.78250000E+03   5.00000000E-01   5.00000000E-01  -9.99760450E-09  -9.87949248E-10  -9.98474375E-10  -9.99413840E-10   1.19590413E-07   4.33535072E-09  -5.93873710E-08  -9.95600054E-09  -4.15796731E-14   1.31234171E-11   1.39500443E-08   5.55108623E-09   2.02266924E-08  -7.62637917E-09   0.00000000E+00   9.26389956E-11
   2.81750000E+03   5.00000000E-01   5.00000000E-01  -9.99759707E-09  -9.87642321E-10  -9.98472164E-10  -9.99413840E-10   1.14573781E-07   4.31458926E-09  -5.97426416E-08  -9.95719020E-09  -4.68670453E-14   3.30576834E-11   1.37765210E-08   5.73851283E-09   2.06021955E-08  -7.62656305E-09   0.00000000E+00   9.11569995E-11
   2.85250000E+03   5.00000000E-01   5.00000000E-01  -9.99758909E-09  -9.87329059E-10  -9.98469906E-10  -9.99413840E-10   1.09737219E-07   4.29670281E-09  -6.01086122E-08  -9.95832390E-09  -5.27731769E-14   5.26313704E-11   1.35979850E-08   5.92824314E-09   2.10113994E-08  -7.62674347E-09   0.00000000E+00   8.96694341E-11
   2.88750000E+03   5.00000000E-01   5.00000000E-01  -9.99758053E-09  -9.87009339E-10  -9.98467603E-10  -9.99413840E-10   1.05075443E-07   4.28171637E-09  -6.04852164E-08  -9.95940232E-09  -5.93585001E-14   7.18053756E-11   1.34145107E-08   6.12011697E-09   2.14554143E-08  -7.62692026E-09   0.00000000E+00   8.81757350E-11
   2.92250000E+03   5.00000000E-01   5.00000000E-01  -9.99757134E-09  -9.86683033E-10  -9.98465254E-10  -9.99413840E-10   1.00583232E-07   4.26966703E-09  -6.08723982E-08  -9.96042642E-09  -6.66867406E-14   9.05399419E-11   1.32261800E-08   6.31396887E-09   2.19353088E-08  -7.62709326E-09   0.00000000E+00   8.66752835E-11
   2.95750000E+03   5.00000000E-01   5.00000000E-01  -9.99756146E-09  -9.86350011E-10  -9.98462862E-10  -9.99413840E-10   9.62554280E-08   4.26060320E-09  -6.12701055E-08  -9.96139732E-09  -7.48245205E-14   1.08794804E-10   1.30330836E-08   6.50962838E-09   2.24520829E-08  -7.62726232E-09   0.00000000E+00   8.51674202E-11
   2.99250000E+03   5.00000000E-01   5.00000000E-01  -9.99755084E-09  -9.86010136E-10  -9.98460427E-10  -9.99413840E-10   9.20869265E-08   4.25458377E-09  -6.16782841E-08  -9.96231633E-09  -8.38408086E-14   1.26529365E-10   1.28353220E-08   6.70692043E-09   2.30066365E-08  -7.62742731E-09   0.00000000E+00   8.36514595E-11
   3.02750000E+03   5.00000000E-01   5.00000000E-01  -9.99753942E-09  -9.85663271E-10  -9.98457949E-10  -9.99413840E-10   8.80726783E-08   4.25167714E-09  -6.20968704E-08  -9.96318492E-09  -9.38062056E-14   1.43702915E-10   1.26330071E-08   6.90566557E-09   2.35997381E-08  -7.62758813E-09   0.00000000E+00   8.21267059E-11
   3.06250000E+03   5.00000000E-01   5.00000000E-01  -9.99752716E-09  -9.85309273E-10  -9.98455429E-10  -9.99413840E-10   8.42076858E-08   4.25196025E-09  -6.25257847E-08  -9.96400468E-09  -1.04792043E-13   1.60274876E-10   1.24262641E-08   7.10568030E-09   2.42319895E-08  -7.62774470E-09   0.00000000E+00   8.05924711E-11
   3.09750000E+03   5.00000000E-01   5.00000000E-01  -9.99751398E-09  -9.84947996E-10  -9.98452866E-10  -9.99413840E-10   8.04870015E-08   4.25551741E-09  -6.29649230E-08  -9.96477728E-09  -1.16869284E-13   1.76205096E-10   1.22152325E-08   7.30677741E-09   2.49037904E-08  -7.62789692E-09   0.00000000E+00   7.90480925E-11
   3.13250000E+03   5.00000000E-01   5.00000000E-01  -9.99749982E-09  -9.84579289E-10  -9.98450261E-10  -9.99413840E-10   7.69057273E-08   4.26243915E-09  -6.34141492E-08  -9.96550450E-09  -1.30107212E-13   1.91454175E-10   1.20000682E-08   7.50876622E-09   2.56153015E-08  -7.62804475E-09   0.00000000E+00   7.74929527E-11
   3.16750000E+03   5.00000000E-01   5.00000000E-01  -9.99748461E-09  -9.84203000E-10  -9.98447612E-10  -9.99413840E-10   7.34590130E-08   4.27282087E-09  -6.38732872E-08  -9.96618815E-09  -1.44571927E-13   2.05983833E-10   1.17809453E-08   7.71145304E-09   2.63664078E-08  -7.62818814E-09   0.00000000E+00   7.59264989E-11