 TITLE = "Mineral Rate (mol/m^3/sec)" 
VARIABLES = "X"          "Y"              "Z"            "Forsterite"     "Fayalite"       "Brucite"        "Lizardite"      "Chrysotile"     "Hematite"       "Magnetite(am)"  "Saponite(Ca)"   "Saponite(K)"    "Saponite(Mg)"   "Saponite(Na)"   "Beidellite(Ca)" "Beidellite(K)"  "Beidellite(Mg)" "Beidellite(Na)" "Enstatite(alph" "Ferrosilite(al" "Anorthite"      "Albite(low)"    "Clinochlore"    "Sudoite"        "Montmor(MgCa)"  "Montmor(MgK)"   "Montmor(MgMg)"  "Montmor(MgNa)"  "Kaolinite"      "Tremolite"      "Pargasite"      "Anhydrite"      "Epidote"        "Scolecite"      "Pyrite"         "FeS(am)"        "Quartz(alpha)" 
 ZONE I=         200 , J=           1 , K=           1  F=POINT
   8.75000000E+00   5.00000000E-01   5.00000000E-01  -1.30988825E-07  -4.78660389E-08   0.00000000E+00   0.00000000E+00   0.00000000E+00   1.41514717E-08   0.00000000E+00   9.21691487E-19   3.08135936E-08   7.81422449E-17   2.78611757E-09  -3.65049307E-17  -3.81047157E-18  -3.73549183E-17  -3.70472377E-17  -2.00055183E-10  -1.71524619E-10  -1.15566365E-07  -2.85796636E-08   2.21836933E-07  -3.84798919E-15  -8.06534335E-18  -8.24073646E-18  -8.24708784E-18  -8.17070943E-18  -3.42543276E-11  -4.50259213E-08  -4.61026415E-08   0.00000000E+00  -2.83029431E-08  -1.92815444E-16  -6.92651083E-16  -6.81196488E-16   9.57892774E-18
   2.62500000E+01   5.00000000E-01   5.00000000E-01  -1.30988832E-07  -4.78635623E-08   0.00000000E+00   0.00000000E+00   0.00000000E+00   1.41514716E-08   0.00000000E+00   1.43454247E-19   4.59433434E-08   2.99566649E-17   4.63255113E-09  -3.65013551E-17  -3.80544842E-18  -3.73381782E-17  -3.70039297E-17  -2.00266260E-10  -1.70363181E-10  -1.15566365E-07  -1.96024338E-08   2.14513699E-07  -3.05688129E-15  -8.02494277E-18  -7.27726914E-18  -8.07198889E-18  -7.47801277E-18  -3.42304774E-11  -4.50485244E-08  -4.61026415E-08   0.00000000E+00  -2.83029431E-08  -1.92811741E-16  -6.92651083E-16  -6.81193534E-16   1.46403540E-17
   4.37500000E+01   5.00000000E-01   5.00000000E-01  -1.30988833E-07  -4.78430958E-08   0.00000000E+00   0.00000000E+00   0.00000000E+00   1.41514715E-08   0.00000000E+00   1.00219475E-19   4.70541897E-08   2.76942058E-17   5.52198491E-09  -3.64755894E-17  -3.77103883E-18  -3.72177076E-17  -3.67006258E-17  -2.00292297E-10  -1.68386761E-10  -1.15566365E-07  -1.62827507E-09   2.05196480E-07  -2.04948032E-15  -7.84862751E-18  -3.31164155E-18  -7.30839383E-18  -4.55031949E-18  -3.41392156E-11  -4.50589743E-08  -4.61026415E-08   0.00000000E+00  -2.83029431E-08  -1.92799653E-16  -6.92651083E-16  -6.81190488E-16   1.87360412E-17
   6.12500000E+01   5.00000000E-01   5.00000000E-01  -1.30988833E-07  -4.78124982E-08   0.00000000E+00   0.00000000E+00   0.00000000E+00   1.41514715E-08   0.00000000E+00   1.17510153E-19   5.63370972E-08   2.97064241E-17   7.76055392E-09  -3.64195882E-17  -3.70077266E-18  -3.69562459E-17  -3.60637209E-17  -2.00290750E-10  -1.66181974E-10  -1.15566365E-07   1.82414157E-08   1.93360459E-07  -1.16585782E-15  -7.54724588E-18   3.00750811E-18  -6.00385164E-18   2.68021486E-19  -3.40084731E-11  -4.50673034E-08  -4.61026415E-08   0.00000000E+00  -2.83029430E-08  -1.92782988E-16  -6.92651083E-16  -6.81187626E-16   2.15007411E-17
   7.87500000E+01   5.00000000E-01   5.00000000E-01  -1.30988833E-07  -4.77757618E-08   0.00000000E+00   0.00000000E+00   0.00000000E+00   1.41514715E-08   0.00000000E+00   1.25109755E-19   6.61001758E-08   3.13278540E-17   1.07619041E-08  -3.63400412E-17  -3.60774737E-18  -3.65853994E-17  -3.51928805E-17  -2.00285558E-10  -1.64061525E-10  -1.15566365E-07   3.55610374E-08   1.82594371E-07  -6.65481929E-16  -7.18954040E-18   9.92400223E-18  -4.45599000E-18   5.74596313E-18  -3.38632764E-11  -4.50813001E-08  -4.61026415E-08   0.00000000E+00  -2.83029429E-08  -1.92765003E-16  -6.92651083E-16  -6.81185208E-16   2.30879363E-17
   9.62500000E+01   5.00000000E-01   5.00000000E-01  -1.30988833E-07  -4.77320065E-08   0.00000000E+00   0.00000000E+00   0.00000000E+00   1.41514714E-08   0.00000000E+00   1.28018590E-19   7.22739606E-08   3.28112194E-17   1.39872242E-08  -3.62544613E-17  -3.51583403E-18  -3.61870835E-17  -3.42977125E-17  -2.00277879E-10  -1.62000466E-10  -1.15566365E-07   4.79727131E-08   1.74837549E-07  -4.40353121E-16  -6.85626201E-18   1.57248466E-17  -3.01425502E-18   1.05775963E-17  -3.37313709E-11  -4.50988701E-08  -4.61026415E-08   0.00000000E+00  -2.83029429E-08  -1.92748957E-16  -6.92651083E-16  -6.81183112E-16   2.38710174E-17
   1.13750000E+02   5.00000000E-01   5.00000000E-01  -1.30988833E-07  -4.76793626E-08   0.00000000E+00   0.00000000E+00   0.00000000E+00   1.41514714E-08   0.00000000E+00   1.34067353E-19   7.46530954E-08   3.46402057E-17   1.72050763E-08  -3.61794790E-17  -3.44402150E-18  -3.58388138E-17  -3.35590941E-17  -2.00267136E-10  -1.59925836E-10  -1.15566365E-07   5.54084932E-08   1.70196056E-07  -3.41016068E-16  -6.59372239E-18   1.96371360E-17  -1.87918694E-18   1.40970754E-17  -3.36320645E-11  -4.51178560E-08  -4.61026415E-08   0.00000000E+00  -2.83029428E-08  -1.92736725E-16  -6.92651083E-16  -6.81181265E-16   2.41875283E-17
   1.31250000E+02   5.00000000E-01   5.00000000E-01  -1.30988833E-07  -4.76164619E-08   0.00000000E+00   0.00000000E+00   0.00000000E+00   1.41514714E-08   0.00000000E+00   1.45963649E-19   7.42799646E-08   3.70243944E-17   2.03821623E-08  -3.61215857E-17  -3.39715613E-18  -3.55706674E-17  -3.30349373E-17  -2.00253395E-10  -1.57796786E-10  -1.15566364E-07   5.90917056E-08   1.67891733E-07  -2.95037051E-16  -6.40498231E-18   2.18183496E-17  -1.06416573E-18   1.63428873E-17  -3.35681162E-11  -4.51369724E-08  -4.61026415E-08   0.00000000E+00  -2.83029428E-08  -1.92728319E-16  -6.92651083E-16  -6.81179666E-16   2.42643482E-17
   1.48750000E+02   5.00000000E-01   5.00000000E-01  -1.30988832E-07  -4.75423796E-08   0.00000000E+00   0.00000000E+00   0.00000000E+00   1.41514714E-08   0.00000000E+00   1.64092999E-19   7.21720933E-08   4.00556126E-17   2.35568703E-08  -3.60797409E-17  -3.37133260E-18  -3.53776015E-17  -3.27004389E-17  -2.00236953E-10  -1.55596064E-10  -1.15566364E-07   6.03633294E-08   1.67079858E-07  -2.72796318E-16  -6.27342986E-18   2.27621666E-17  -4.97311992E-19   1.76399582E-17  -3.35332046E-11  -4.51555575E-08  -4.61026415E-08   0.00000000E+00  -2.83029427E-08  -1.92722904E-16  -6.92651083E-16  -6.81178325E-16   2.42328540E-17
   1.66250000E+02   5.00000000E-01   5.00000000E-01  -1.30988832E-07  -4.74566712E-08   0.00000000E+00   0.00000000E+00   0.00000000E+00   1.41514713E-08   0.00000000E+00   1.87695076E-19   6.90915399E-08   4.37388488E-17   2.67707637E-08  -3.60496391E-17  -3.35986036E-18  -3.52394205E-17  -3.25000013E-17  -2.00218219E-10  -1.53325308E-10  -1.15566364E-07   6.02583428E-08   1.67110335E-07  -2.61726555E-16  -6.17910232E-18   2.29518963E-17  -9.21266594E-20   1.83353498E-17  -3.35182129E-11  -4.51732418E-08  -4.61026415E-08   0.00000000E+00  -2.83029427E-08  -1.92719481E-16  -6.92651083E-16  -6.81177252E-16   2.41596584E-17
   1.83750000E+02   5.00000000E-01   5.00000000E-01  -1.30988832E-07  -4.73594135E-08   0.00000000E+00   0.00000000E+00   0.00000000E+00   1.41514713E-08   0.00000000E+00   2.15432533E-19   6.55425869E-08   4.80012989E-17   3.00444586E-08  -3.60264776E-17  -3.35651064E-18  -3.51336842E-17  -3.23778522E-17  -2.00197658E-10  -1.51000440E-10  -1.15566364E-07   5.94631036E-08   1.67553369E-07  -2.56135122E-16  -6.10530887E-18   2.27479984E-17   2.23770966E-19   1.87017194E-17  -3.35146594E-11  -4.51897972E-08  -4.61026415E-08   0.00000000E+00  -2.83029426E-08  -1.92717188E-16  -6.92651083E-16  -6.81176448E-16   2.40730583E-17
   2.01250000E+02   5.00000000E-01   5.00000000E-01  -1.30988832E-07  -4.72505182E-08   0.00000000E+00   0.00000000E+00   0.00000000E+00   1.41514713E-08   0.00000000E+00   2.46680463E-19   6.17473068E-08   5.28355396E-17   3.33642192E-08  -3.60074846E-17  -3.35781391E-18  -3.50474522E-17  -3.23024008E-17  -2.00175483E-10  -1.48630077E-10  -1.15566364E-07   5.83242903E-08   1.68201239E-07  -2.53291476E-16  -6.04300435E-18   2.23387720E-17   4.89620699E-19   1.88843071E-17  -3.35178479E-11  -4.52053685E-08  -4.61026415E-08   0.00000000E+00  -2.83029426E-08  -1.92715560E-16  -6.92651083E-16  -6.81175897E-16   2.39852206E-17
   2.18750000E+02   5.00000000E-01   5.00000000E-01  -1.30988831E-07  -4.71296217E-08   0.00000000E+00   0.00000000E+00   0.00000000E+00   1.41514713E-08   0.00000000E+00   2.81356540E-19   5.78183618E-08   5.82954111E-17   3.67010575E-08  -3.59914120E-17  -3.36213509E-18  -3.49748904E-17  -3.22589659E-17  -2.00151729E-10  -1.46215399E-10  -1.15566364E-07   5.70008157E-08   1.68960682E-07  -2.51844078E-16  -5.98808425E-18   2.18111679E-17   7.23232524E-19   1.89501406E-17  -3.35255743E-11  -4.52204554E-08  -4.61026415E-08   0.00000000E+00  -2.83029425E-08  -1.92714387E-16  -6.92651083E-16  -6.81175572E-16   2.39016280E-17
   2.36250000E+02   5.00000000E-01   5.00000000E-01  -1.30988831E-07  -4.69968215E-08   0.00000000E+00   0.00000000E+00   0.00000000E+00   1.41514712E-08   0.00000000E+00   3.18866521E-19   5.38799527E-08   6.43409931E-17   4.00452939E-08  -3.59767509E-17  -3.36784770E-18  -3.49089772E-17  -3.22317091E-17  -2.00126554E-10  -1.43767759E-10  -1.15566364E-07   5.56143129E-08   1.69751982E-07  -2.51109605E-16  -5.93651283E-18   2.12381896E-17   9.42111940E-19   1.89595492E-17  -3.35354793E-11  -4.52355349E-08  -4.61026415E-08   0.00000000E+00  -2.83029425E-08  -1.92713442E-16  -6.92651083E-16  -6.81175455E-16   2.38219216E-17
   2.53750000E+02   5.00000000E-01   5.00000000E-01  -1.30988830E-07  -4.68517656E-08   0.00000000E+00   0.00000000E+00   0.00000000E+00   1.41514712E-08   0.00000000E+00   3.59225796E-19   4.99653162E-08   7.09805633E-17   4.33512195E-08  -3.59632117E-17  -3.37454518E-18  -3.48483576E-17  -3.22170150E-17  -2.00099935E-10  -1.41288322E-10  -1.15566364E-07   5.41949234E-08   1.70562125E-07  -2.50741230E-16  -5.88750192E-18   2.06377660E-17   1.14968258E-18   1.89264952E-17  -3.35469547E-11  -4.52510386E-08  -4.61026415E-08   0.00000000E+00  -2.83029424E-08  -1.92712678E-16  -6.92651083E-16  -6.81175517E-16   2.37457396E-17
   2.71250000E+02   5.00000000E-01   5.00000000E-01  -1.30988830E-07  -4.66940807E-08   0.00000000E+00   0.00000000E+00   0.00000000E+00   1.41514712E-08   0.00000000E+00   4.02480038E-19   4.61182336E-08   7.82095797E-17   4.65833775E-08  -3.59506466E-17  -3.38198528E-18  -3.47923383E-17  -3.22127974E-17  -2.00071838E-10  -1.38778007E-10  -1.15566364E-07   5.27574338E-08   1.71382345E-07  -2.50561752E-16  -5.84070382E-18   2.00194886E-17   1.34745390E-18   1.88582874E-17  -3.35596170E-11  -4.52671414E-08  -4.61026415E-08   0.00000000E+00  -2.83029424E-08  -1.92712065E-16  -6.92651083E-16  -6.81175735E-16   2.36723471E-17
   2.88750000E+02   5.00000000E-01   5.00000000E-01  -1.30988829E-07  -4.65235533E-08   0.00000000E+00   0.00000000E+00   0.00000000E+00   1.41514712E-08   0.00000000E+00   4.48557843E-19   4.23815071E-08   8.59980252E-17   4.97136094E-08  -3.59388183E-17  -3.38988938E-18  -3.47398131E-17  -3.22163617E-17  -2.00042256E-10  -1.36240242E-10  -1.15566364E-07   5.13161631E-08   1.72203065E-07  -2.50480172E-16  -5.79561752E-18   1.93934806E-17   1.53759547E-18   1.87634665E-17  -3.35730187E-11  -4.52836735E-08  -4.61026415E-08   0.00000000E+00  -2.83029423E-08  -1.92711568E-16  -6.92651083E-16  -6.81176088E-16   2.36005424E-17
   3.06250000E+02   5.00000000E-01   5.00000000E-01  -1.30988828E-07  -4.63401969E-08   0.00000000E+00   0.00000000E+00   0.00000000E+00   1.41514711E-08   0.00000000E+00   4.97262354E-19   3.87915797E-08   9.43006450E-17   5.27189165E-08  -3.59274090E-17  -3.39795872E-18  -3.46893086E-17  -3.22245561E-17  -2.00011213E-10  -1.33681117E-10  -1.15566364E-07   4.98850252E-08   1.73015110E-07  -2.50449461E-16  -5.75159968E-18   1.87700539E-17   1.72288965E-18   1.86515218E-17  -3.35866771E-11  -4.53001923E-08  -4.61026415E-08   0.00000000E+00  -2.83029423E-08  -1.92711141E-16  -6.92651083E-16  -6.81176559E-16   2.35287800E-17
   3.23750000E+02   5.00000000E-01   5.00000000E-01  -1.30988828E-07  -4.61442602E-08   0.00000000E+00   0.00000000E+00   0.00000000E+00   1.41514711E-08   0.00000000E+00   5.48301137E-19   3.53771764E-08   1.03070775E-16   5.55801711E-08  -3.59160733E-17  -3.40591757E-18  -3.46392292E-17  -3.22342594E-17  -1.99978755E-10  -1.31108729E-10  -1.15566364E-07   4.84758007E-08   1.73811005E-07  -2.50445335E-16  -5.70797686E-18   1.81582782E-17   1.90624582E-18   1.85314713E-17  -3.36001428E-11  -4.53161588E-08  -4.61026415E-08   0.00000000E+00  -2.83029422E-08  -1.92710741E-16  -6.92651083E-16  -6.81177133E-16   2.34553657E-17
   3.41250000E+02   5.00000000E-01   5.00000000E-01  -1.30988827E-07  -4.59361792E-08   0.00000000E+00   0.00000000E+00   0.00000000E+00   1.41514711E-08   0.00000000E+00   6.01337154E-19   3.21589092E-08   1.12271871E-16   5.82809797E-08  -3.59044986E-17  -3.41355187E-18  -3.45881350E-17  -3.22428669E-17  -1.99944938E-10  -1.28532075E-10  -1.15566364E-07   4.70965698E-08   1.74586013E-07  -2.50455084E-16  -5.66417251E-18   1.75647266E-17   2.09015093E-18   1.84104612E-17  -3.36130614E-11  -4.53310981E-08  -4.61026415E-08   0.00000000E+00  -2.83029421E-08  -1.92710329E-16  -6.92651083E-16  -6.81177798E-16   2.33786721E-17
   3.58750000E+02   5.00000000E-01   5.00000000E-01  -1.30988826E-07  -4.57164259E-08   0.00000000E+00   0.00000000E+00   0.00000000E+00   1.41514710E-08   0.00000000E+00   6.56089864E-19   2.91486369E-08   1.21891378E-16   6.08045992E-08  -3.58924994E-17  -3.42076089E-18  -3.45351761E-17  -3.22489858E-17  -1.99909799E-10  -1.25958991E-10  -1.15566363E-07   4.57492370E-08   1.75339989E-07  -2.50472200E-16  -5.61991297E-18   1.69917170E-17   2.27578088E-18   1.82916939E-17  -3.36252534E-11  -4.53447007E-08  -4.61026415E-08   0.00000000E+00  -2.83029421E-08  -1.92709887E-16  -6.92651083E-16  -6.81178540E-16   2.32974154E-17
   3.76250000E+02   5.00000000E-01   5.00000000E-01  -1.30988825E-07  -4.54854482E-08   0.00000000E+00   0.00000000E+00   0.00000000E+00   1.41514710E-08   0.00000000E+00   7.12354973E-19   2.63522406E-08   1.31940777E-16   6.31370815E-08  -3.58800003E-17  -3.42752814E-18  -3.44800125E-17  -3.22521864E-17  -1.99873354E-10  -1.23395726E-10  -1.15566363E-07   4.44317244E-08   1.76075303E-07  -2.50493391E-16  -5.57517084E-18   1.64386423E-17   2.46324655E-18   1.81754476E-17  -3.36366733E-11  -4.53568324E-08  -4.61026415E-08   0.00000000E+00  -2.83029420E-08  -1.92709408E-16  -6.92651083E-16  -6.81179347E-16   2.32107237E-17
   3.93750000E+02   5.00000000E-01   5.00000000E-01  -1.30988823E-07  -4.52435608E-08   0.00000000E+00   0.00000000E+00   0.00000000E+00   1.41514709E-08   0.00000000E+00   7.70050933E-19   2.37699087E-08   1.42458976E-16   6.52658894E-08  -3.58670529E-17  -3.43391709E-18  -3.44228906E-17  -3.22530350E-17  -1.99835587E-10  -1.20846062E-10  -1.15566363E-07   4.31383938E-08   1.76796810E-07  -2.50517175E-16  -5.53019313E-18   1.59022457E-17   2.65147462E-18   1.80590971E-17  -3.36474029E-11  -4.53675119E-08  -4.61026415E-08   0.00000000E+00  -2.83029419E-08  -1.92708900E-16  -6.92651083E-16  -6.81180208E-16   2.31181988E-17
   4.11250000E+02   5.00000000E-01   5.00000000E-01  -1.30988822E-07  -4.49909071E-08   0.00000000E+00   0.00000000E+00   0.00000000E+00   1.41514709E-08   0.00000000E+00   8.29218785E-19   2.13977949E-08   1.53509375E-16   6.71817707E-08  -3.58538060E-17  -3.44003946E-18  -3.43645005E-17  -3.22527695E-17  -1.99796450E-10  -1.18311388E-10  -1.15566363E-07   4.18619772E-08   1.77510306E-07  -2.50543057E-16  -5.48541976E-18   1.53778927E-17   2.83856123E-18   1.79382632E-17  -3.36576041E-11  -4.53768704E-08  -4.61026415E-08   0.00000000E+00  -2.83029418E-08  -1.92708384E-16  -6.92651083E-16  -6.81181110E-16   2.30198702E-17
   4.28750000E+02   5.00000000E-01   5.00000000E-01  -1.30988821E-07  -4.47274654E-08   0.00000000E+00   0.00000000E+00   0.00000000E+00   1.41514709E-08   0.00000000E+00   8.90000515E-19   1.92290713E-08   1.65174135E-16   6.88797698E-08  -3.58404641E-17  -3.44602374E-18  -3.43057880E-17  -3.22529368E-17  -1.99755868E-10  -1.15791207E-10  -1.15566363E-07   4.05953390E-08   1.78221304E-07  -2.50571024E-16  -5.44138323E-18   1.48607624E-17   3.02220629E-18   1.78080151E-17  -3.36674705E-11  -4.53851141E-08  -4.61026415E-08   0.00000000E+00  -2.83029417E-08  -1.92707883E-16  -6.92651083E-16  -6.81182043E-16   2.29160960E-17
   4.46250000E+02   5.00000000E-01   5.00000000E-01  -1.30988819E-07  -4.44530177E-08   0.00000000E+00   0.00000000E+00   0.00000000E+00   1.41514708E-08   0.00000000E+00   9.52642588E-19   1.72543000E-08   1.77552139E-16   7.03576401E-08  -3.58272820E-17  -3.45200789E-18  -3.42479255E-17  -3.22553165E-17  -1.99713740E-10  -1.13283165E-10  -1.15566363E-07   3.93316769E-08   1.78935133E-07  -2.50601359E-16  -5.39869375E-18   1.43460603E-17   3.19977901E-18   1.76630903E-17  -3.36772152E-11  -4.53924990E-08  -4.61026415E-08   0.00000000E+00  -2.83029416E-08  -1.92707425E-16  -6.92651083E-16  -6.81182999E-16   2.28074990E-17
   4.63750000E+02   5.00000000E-01   5.00000000E-01  -1.30988817E-07  -4.41671569E-08   0.00000000E+00   0.00000000E+00   0.00000000E+00   1.41514707E-08   0.00000000E+00   1.01748212E-18   1.54623593E-08   1.90754411E-16   7.16161015E-08  -3.58145437E-17  -3.45812591E-18  -3.41922153E-17  -3.22617495E-17  -1.99669941E-10  -1.10783423E-10  -1.15566362E-07   3.80650972E-08   1.79656457E-07  -2.50634472E-16  -5.35799127E-18   1.38294578E-17   3.36852533E-18   1.74984035E-17  -3.36870494E-11  -4.53993124E-08  -4.61026415E-08   0.00000000E+00  -2.83029415E-08  -1.92707038E-16  -6.92651083E-16  -6.81183968E-16   2.26948843E-17
   4.81250000E+02   5.00000000E-01   5.00000000E-01  -1.30988815E-07  -4.38693104E-08   0.00000000E+00   0.00000000E+00   0.00000000E+00   1.41514707E-08   0.00000000E+00   1.08492823E-18   1.38411216E-08   2.04898453E-16   7.26586486E-08  -3.58025405E-17  -3.46449646E-18  -3.41399890E-17  -3.22739794E-17  -1.99624328E-10  -1.08287126E-10  -1.15566362E-07   3.67910324E-08   1.80388982E-07  -2.50670782E-16  -5.31989869E-18   1.33074273E-17   3.52577045E-18   1.73094825E-17  -3.36971646E-11  -4.54058552E-08  -4.61026415E-08   0.00000000E+00  -2.83029414E-08  -1.92706751E-16  -6.92651083E-16  -6.81184944E-16   2.25791608E-17
   4.98750000E+02   5.00000000E-01   5.00000000E-01  -1.30988813E-07  -4.35540223E-08   0.00000000E+00   0.00000000E+00   0.00000000E+00   1.41514706E-08   0.00000000E+00   1.15774348E-18   1.23648345E-08   2.20531665E-16   7.33609362E-08  -3.57935365E-17  -3.47215993E-18  -3.41015975E-17  -3.23067636E-17  -1.99576125E-10  -1.05747092E-10  -1.15566362E-07   3.54506038E-08   1.81186918E-07  -2.50716757E-16  -5.28953369E-18   1.27427903E-17   3.64952641E-18   1.70510921E-17  -3.37091268E-11  -4.54124280E-08  -4.61026415E-08   0.00000000E+00  -2.83029412E-08  -1.92706801E-16  -6.92651083E-16  -6.81185908E-16   2.24639127E-17
   5.16250000E+02   5.00000000E-01   5.00000000E-01  -1.30988810E-07  -4.32240704E-08   0.00000000E+00   0.00000000E+00   0.00000000E+00   1.41514706E-08   0.00000000E+00   1.23471202E-18   1.10491431E-08   2.37515447E-16   7.39266523E-08  -3.57859937E-17  -3.48026541E-18  -3.40699788E-17  -3.23488502E-17  -1.99525637E-10  -1.03191043E-10  -1.15566362E-07   3.40997765E-08   1.81986090E-07  -2.50766425E-16  -5.26311852E-18   1.21690950E-17   3.75605787E-18   1.67615479E-17  -3.37217122E-11  -4.54194058E-08  -4.61026415E-08   0.00000000E+00  -2.83029411E-08  -1.92707011E-16  -6.92651083E-16  -6.81186867E-16   2.23485347E-17
   5.33750000E+02   5.00000000E-01   5.00000000E-01  -1.30988807E-07  -4.28793280E-08   0.00000000E+00   0.00000000E+00   0.00000000E+00   1.41514705E-08   0.00000000E+00   1.31600711E-18   9.87038621E-09   2.55884348E-16   7.43189603E-08  -3.57797869E-17  -3.48869703E-18  -3.40445452E-17  -3.23988827E-17  -1.99472782E-10  -1.00620399E-10  -1.15566361E-07   3.27471059E-08   1.82792202E-07  -2.50819040E-16  -5.24028064E-18   1.15912819E-17   3.84699126E-18   1.64462651E-17  -3.37347630E-11  -4.54270097E-08  -4.61026415E-08   0.00000000E+00  -2.83029410E-08  -1.92707361E-16  -6.92651083E-16  -6.81187818E-16   2.22333440E-17
   5.51250000E+02   5.00000000E-01   5.00000000E-01  -1.30988804E-07  -4.25185140E-08   0.00000000E+00   0.00000000E+00   0.00000000E+00   1.41514704E-08   0.00000000E+00   1.40233767E-18   8.81269078E-09   2.75753088E-16   7.45245632E-08  -3.57752277E-17  -3.49753939E-18  -3.40267026E-17  -3.24583440E-17  -1.99417336E-10  -9.80273732E-11  -1.15566361E-07   3.13882198E-08   1.83612253E-07  -2.50875076E-16  -5.22167966E-18   1.10066351E-17   3.91952313E-18   1.61013847E-17  -3.37484159E-11  -4.54353847E-08  -4.61026415E-08   0.00000000E+00  -2.83029408E-08  -1.92707880E-16  -6.92651083E-16  -6.81188756E-16   2.21190571E-17
   5.68750000E+02   5.00000000E-01   5.00000000E-01  -1.30988800E-07  -4.21403915E-08   0.00000000E+00   0.00000000E+00   0.00000000E+00   1.41514703E-08   0.00000000E+00   1.49441069E-18   7.86450334E-09   2.97232285E-16   7.45521651E-08  -3.57725369E-17  -3.50682645E-18  -3.40174389E-17  -3.25280370E-17  -1.99359073E-10  -9.54052182E-11  -1.15566361E-07   3.00215595E-08   1.84447494E-07  -2.50934577E-16  -5.20776244E-18   1.04142729E-17   3.97176838E-18   1.57251822E-17  -3.37627335E-11  -4.54445745E-08  -4.61026415E-08   0.00000000E+00  -2.83029407E-08  -1.92708585E-16  -6.92651083E-16  -6.81189679E-16   2.20063377E-17
   5.86250000E+02   5.00000000E-01   5.00000000E-01  -1.30988796E-07  -4.17439831E-08   0.00000000E+00   0.00000000E+00   0.00000000E+00   1.41514703E-08   0.00000000E+00   1.59285034E-18   7.01556801E-09   3.20417677E-16   7.44149900E-08  -3.57717934E-17  -3.51652834E-18  -3.40170903E-17  -3.26078316E-17  -1.99297791E-10  -9.27496654E-11  -1.15566360E-07   2.86490889E-08   1.85296452E-07  -2.50997132E-16  -5.19865424E-18   9.81554320E-18   4.00322561E-18   1.53187651E-17  -3.37776836E-11  -4.54545049E-08  -4.61026415E-08   0.00000000E+00  -2.83029405E-08  -1.92709478E-16  -6.92651083E-16  -6.81190583E-16   2.18956996E-17
   6.03750000E+02   5.00000000E-01   5.00000000E-01  -1.30988791E-07  -4.13286266E-08   0.00000000E+00   0.00000000E+00   0.00000000E+00   1.41514702E-08   0.00000000E+00   1.69818787E-18   6.25645830E-09   3.45394865E-16   7.41272869E-08  -3.57729526E-17  -3.52656887E-18  -3.40254306E-17  -3.26968629E-17  -1.99233317E-10  -9.00589839E-11  -1.15566360E-07   2.72751949E-08   1.86156138E-07  -2.51062023E-16  -5.19421153E-18   9.21332246E-18   4.01454762E-18   1.48853698E-17  -3.37931632E-11  -4.54649975E-08  -4.61026415E-08   0.00000000E+00  -2.83029404E-08  -1.92710550E-16  -6.92651083E-16  -6.81191468E-16   2.17874869E-17
   6.21250000E+02   5.00000000E-01   5.00000000E-01  -1.30988786E-07  -4.08939891E-08   0.00000000E+00   0.00000000E+00   0.00000000E+00   1.41514701E-08   0.00000000E+00   1.81086618E-18   5.57846097E-09   3.72247205E-16   7.37031182E-08  -3.57758770E-17  -3.53684438E-18  -3.40418100E-17  -3.27937736E-17  -1.99165502E-10  -8.73337487E-11  -1.15566360E-07   2.59056074E-08   1.87022804E-07  -2.51128360E-16  -5.19409353E-18   8.61131806E-18   4.00723197E-18   1.44295813E-17  -3.38090257E-11  -4.54758029E-08  -4.61026415E-08  -1.07343064E-32  -2.83029402E-08  -1.92711783E-16  -6.92651083E-16  -6.81192333E-16   2.16818850E-17
   6.38750000E+02   5.00000000E-01   5.00000000E-01  -1.30988780E-07  -4.04400388E-08   0.00000000E+00   0.00000000E+00   0.00000000E+00   1.41514700E-08   0.00000000E+00   1.93125858E-18   4.97349478E-09   4.01064337E-16   7.31553136E-08  -3.57803718E-17  -3.54724175E-18  -3.40653201E-17  -3.28969664E-17  -1.99094218E-10  -8.45763602E-11  -1.15566359E-07   2.45464218E-08   1.87892619E-07  -2.51195207E-16  -5.19784328E-18   8.01343983E-18   3.98327141E-18   1.39565628E-17  -3.38251071E-11  -4.54866450E-08  -4.61026415E-08  -2.12720639E-32  -2.83029401E-08  -1.92713153E-16  -6.92651083E-16  -6.81193178E-16   2.15789497E-17
   6.56250000E+02   5.00000000E-01   5.00000000E-01  -1.30988774E-07  -3.99669729E-08   0.00000000E+00   0.00000000E+00   0.00000000E+00   1.41514700E-08   0.00000000E+00   2.05970178E-18   4.43405749E-09   4.31950123E-16   7.24946120E-08  -3.57862222E-17  -3.55765396E-18  -3.40949666E-17  -3.30048403E-17  -1.99019347E-10  -8.17903625E-11  -1.15566359E-07   2.32032645E-08   1.88762236E-07  -2.51261693E-16  -5.20497091E-18   7.42327634E-18   3.94479624E-18   1.34713551E-17  -3.38412495E-11  -4.54972629E-08  -4.61026415E-08  -4.19682273E-32  -2.83029399E-08  -1.92714638E-16  -6.92651083E-16  -6.81194003E-16   2.14786496E-17
   6.73750000E+02   5.00000000E-01   5.00000000E-01  -1.30988766E-07  -3.94751304E-08   0.00000000E+00   0.00000000E+00   0.00000000E+00   1.41514699E-08   0.00000000E+00   2.19653181E-18   3.95321323E-09   4.65027899E-16   7.17294518E-08  -3.57932242E-17  -3.56799007E-18  -3.41298050E-17  -3.31159593E-17  -1.98940774E-10  -7.89797753E-11  -1.15566358E-07   2.18807580E-08   1.89629096E-07  -2.51327077E-16  -5.21501879E-18   6.84376957E-18   3.89379502E-18   1.29783902E-17  -3.38573167E-11  -4.55074403E-08  -4.61026415E-08  -8.23376922E-32  -2.83029397E-08  -1.92716215E-16  -6.92651083E-16  -6.81194808E-16   2.13809051E-17
   6.91250000E+02   5.00000000E-01   5.00000000E-01  -1.30988758E-07  -3.89648711E-08   0.00000000E+00   0.00000000E+00   0.00000000E+00   1.41514698E-08   0.00000000E+00   2.34213300E-18   3.52458304E-09   5.00445940E-16   7.08655234E-08  -3.58012109E-17  -3.57818243E-18  -3.41690635E-17  -3.32291876E-17  -1.98858371E-10  -7.61483172E-11  -1.15566358E-07   2.05820982E-08   1.90491713E-07  -2.51390796E-16  -5.22762229E-18   6.27698103E-18   3.83185567E-18   1.24810942E-17  -3.38732054E-11  -4.55170225E-08  -4.61026415E-08  -1.60387195E-31  -2.83029396E-08  -1.92717867E-16  -6.92651083E-16  -6.81195592E-16   2.12856297E-17
   7.08750000E+02   5.00000000E-01   5.00000000E-01  -1.30988749E-07  -3.84365125E-08   0.00000000E+00   0.00000000E+00   0.00000000E+00   1.41514697E-08   0.00000000E+00   2.49696350E-18   3.14237654E-09   5.38376872E-16   6.99068723E-08  -3.58100582E-17  -3.58818538E-18  -3.42121659E-17  -3.33436935E-17  -1.98771991E-10  -7.32990832E-11  -1.15566357E-07   1.93091368E-08   1.91349450E-07  -2.51452457E-16  -5.24252068E-18   5.72415862E-18   3.76011992E-18   1.19818961E-17  -3.38888442E-11  -4.55259193E-08  -4.61026415E-08  -5.48860242E-17  -2.83029394E-08  -1.92719582E-16  -6.92651083E-16  -6.81196355E-16   2.11927491E-17
   7.26250000E+02   5.00000000E-01   5.00000000E-01  -1.30988738E-07  -3.78902812E-08   0.00000000E+00   0.00000000E+00   0.00000000E+00   1.41514696E-08   0.00000000E+00   2.66157634E-18   2.80137773E-09   5.79014979E-16   6.88563421E-08  -3.58196838E-17  -3.59797212E-18  -3.42587272E-17  -3.34589208E-17  -1.98681466E-10  -7.04343501E-11  -1.15566357E-07   1.80625589E-08   1.92202356E-07  -2.51511808E-16  -5.25955527E-18   5.18586171E-18   3.67929257E-18   1.14823280E-17  -3.39041893E-11  -4.55341009E-08  -4.61026415E-08  -2.02768628E-16  -2.83029392E-08  -1.92721351E-16  -6.92651083E-16  -6.81197098E-16   2.11022132E-17
   7.43750000E+02   5.00000000E-01   5.00000000E-01  -1.30988727E-07  -3.73262806E-08   0.00000000E+00   0.00000000E+00   0.00000000E+00   1.41514695E-08   0.00000000E+00   2.83663599E-18   2.49692131E-09   6.22571750E-16   6.77159951E-08  -3.58300424E-17  -3.60753069E-18  -3.43085311E-17  -3.35745414E-17  -1.98586599E-10  -6.75554931E-11  -1.15566356E-07   1.68421027E-08   1.93050991E-07  -2.51568716E-16  -5.27865910E-18   4.66210977E-18   3.58968661E-18   1.09831755E-17  -3.39192194E-11  -4.55415890E-08  -4.61026415E-08  -4.30263175E-16  -2.83029390E-08  -1.92723169E-16  -6.92651083E-16  -6.81197819E-16   2.10139994E-17
   7.61250000E+02   5.00000000E-01   5.00000000E-01  -1.30988714E-07  -3.67444763E-08   0.00000000E+00   0.00000000E+00   0.00000000E+00   1.41514694E-08   0.00000000E+00   3.02292920E-18   2.22486100E-09   6.69269452E-16   6.64875411E-08  -3.58411182E-17  -3.61685963E-18  -3.43614937E-17  -3.36903968E-17  -1.98487166E-10  -6.46630157E-11  -1.15566356E-07   1.56468052E-08   1.93896238E-07  -2.51623131E-16  -5.29984002E-18   4.15254012E-18   3.49129669E-18   1.04846593E-17  -3.39339286E-11  -4.55484458E-08  -4.61026415E-08  -7.45010917E-16  -2.83029388E-08  -1.92725037E-16  -6.92651083E-16  -6.81198519E-16   2.09281104E-17
   7.78750000E+02   5.00000000E-01   5.00000000E-01  -1.30988699E-07  -3.61447051E-08   0.00000000E+00   0.00000000E+00   0.00000000E+00   1.41514693E-08   0.00000000E+00   3.22136880E-18   1.98153233E-09   7.19332551E-16   6.51727494E-08  -3.58529144E-17  -3.62596374E-18  -3.44176184E-17  -3.38064353E-17  -1.98382912E-10  -6.17566903E-11  -1.15566355E-07   1.44752566E-08   1.94739116E-07  -2.51675060E-16  -5.32315853E-18   3.65656357E-18   3.38389414E-18   9.98663355E-18  -3.39483211E-11  -4.55547612E-08  -4.61026415E-08  -1.13415019E-15  -2.83029386E-08  -1.92726952E-16  -6.92651083E-16  -6.81199197E-16   2.08445673E-17
   7.96250000E+02   5.00000000E-01   5.00000000E-01  -1.30988683E-07  -3.55267123E-08   0.00000000E+00   0.00000000E+00   0.00000000E+00   1.41514692E-08   0.00000000E+00   3.43298748E-18   1.76371331E-09   7.72976621E-16   6.37738797E-08  -3.58654421E-17  -3.63484992E-18  -3.44769431E-17  -3.39226456E-17  -1.98273556E-10  -5.88358261E-11  -1.15566355E-07   1.33258657E-08   1.95580578E-07  -2.51724539E-16  -5.34870062E-18   3.17351629E-18   3.26714327E-18   9.48879598E-18  -3.39624042E-11  -4.55606384E-08  -4.61026415E-08  -1.54127588E-15  -2.83029384E-08  -1.92728919E-16  -6.92651083E-16  -6.81199853E-16   2.07633994E-17