 TITLE = "Mineral Rate (mol/m^3/sec)" 
VARIABLES = "X"          "Y"              "Z"            "Forsterite"     "Enstatite(alph" "Anorthite"      "Ferropargasite" "Anhydrite"      "Clinochlore"    "Albite(low)"   
 ZONE I=          35 , J=           1 , K=           1  F=POINT
   5.00000000E+01   5.00000000E-01   5.00000000E-01   7.44689596E-12   5.96446363E-13  -9.99992265E-13  -9.99999979E-14  -8.33178271E-13   1.65032611E-12  -9.99999959E-13
   1.50000000E+02   5.00000000E-01   5.00000000E-01   1.42709966E-12  -2.09473256E-14  -9.99992265E-13  -9.99999979E-14  -8.10080042E-13   1.64999224E-12  -9.99999959E-13
   2.50000000E+02   5.00000000E-01   5.00000000E-01   7.41856823E-13  -7.60928017E-14  -9.99992265E-13  -9.99999979E-14  -7.82867582E-13   1.64999224E-12  -9.99999959E-13
   3.50000000E+02   5.00000000E-01   5.00000000E-01   7.36201978E-13  -8.67168151E-14  -9.99992265E-13  -9.99999979E-14  -7.50930591E-13   1.64999224E-12  -9.99999959E-13
   4.50000000E+02   5.00000000E-01   5.00000000E-01   7.42082996E-13  -9.23277174E-14  -9.99992265E-13  -9.99999979E-14  -7.13588183E-13   1.64999224E-12  -9.99999959E-13
   5.50000000E+02   5.00000000E-01   5.00000000E-01   7.45356319E-13  -9.54597399E-14  -9.99992265E-13  -9.99999979E-14  -6.70064231E-13   1.64999224E-12  -9.99999959E-13
   6.50000000E+02   5.00000000E-01   5.00000000E-01   7.47196460E-13  -9.72400529E-14  -9.99992265E-13  -9.99999979E-14  -6.19475015E-13   1.64999224E-12  -9.99999959E-13
   7.50000000E+02   5.00000000E-01   5.00000000E-01   7.48257492E-13  -9.82746246E-14  -9.99992265E-13  -9.99999979E-14  -5.60816504E-13   1.64999224E-12  -9.99999959E-13
   8.50000000E+02   5.00000000E-01   5.00000000E-01   7.48885624E-13  -9.88905386E-14  -9.99992265E-13  -9.99999979E-14  -4.92950097E-13   1.64999224E-12  -9.99999959E-13
   9.50000000E+02   5.00000000E-01   5.00000000E-01   7.49267466E-13  -9.92664914E-14  -9.99992265E-13  -9.99999979E-14  -4.14586629E-13   1.64999224E-12  -9.99999959E-13
   1.05000000E+03   5.00000000E-01   5.00000000E-01   7.49505724E-13  -9.95017895E-14  -9.99992265E-13  -9.99999979E-14  -3.24268430E-13   1.64999224E-12  -9.99999959E-13
   1.15000000E+03   5.00000000E-01   5.00000000E-01   7.49658205E-13  -9.96527202E-14  -9.99992265E-13  -9.99999979E-14  -2.20349265E-13   1.64999224E-12  -9.99999959E-13
   1.25000000E+03   5.00000000E-01   5.00000000E-01   7.49758194E-13  -9.97518682E-14  -9.99992265E-13  -9.99999979E-14  -1.00972038E-13   1.64999225E-12  -9.99999959E-13
   1.35000000E+03   5.00000000E-01   5.00000000E-01   7.49825300E-13  -9.98185090E-14  -9.99992265E-13  -9.99999979E-14   3.59556548E-14   1.64999225E-12  -9.99999959E-13
   1.45000000E+03   5.00000000E-01   5.00000000E-01   7.49871336E-13  -9.98642940E-14  -9.99992265E-13  -9.99999979E-14   1.92787701E-13   1.64999226E-12  -9.99999959E-13
   1.55000000E+03   5.00000000E-01   5.00000000E-01   7.49903567E-13  -9.98964175E-14  -9.99992265E-13  -9.99999979E-14   3.72166480E-13   1.64999229E-12  -9.99999959E-13
   1.65000000E+03   5.00000000E-01   5.00000000E-01   7.49926546E-13  -9.99194138E-14  -9.99992265E-13  -9.99999979E-14   5.77049098E-13   1.64999233E-12  -9.99999959E-13
   1.75000000E+03   5.00000000E-01   5.00000000E-01   7.49943165E-13  -9.99361983E-14  -9.99992265E-13  -9.99999979E-14   8.10730482E-13   1.64999241E-12  -9.99999959E-13
   1.85000000E+03   5.00000000E-01   5.00000000E-01   7.49955266E-13  -9.99486809E-14  -9.99992265E-13  -9.99999979E-14   1.07686003E-12   1.64999255E-12  -9.99999959E-13
   1.95000000E+03   5.00000000E-01   5.00000000E-01   7.49963994E-13  -9.99581359E-14  -9.99992265E-13  -9.99999979E-14   1.37944763E-12   1.64999281E-12  -9.99999959E-13
   2.05000000E+03   5.00000000E-01   5.00000000E-01   7.49969998E-13  -9.99654278E-14  -9.99992265E-13  -9.99999979E-14   1.72285404E-12   1.64999324E-12  -9.99999959E-13
   2.15000000E+03   5.00000000E-01   5.00000000E-01   7.49973532E-13  -9.99711524E-14  -9.99992265E-13  -9.99999979E-14   2.11175980E-12   1.64999398E-12  -9.99999959E-13
   2.25000000E+03   5.00000000E-01   5.00000000E-01   7.49974486E-13  -9.99757264E-14  -9.99992265E-13  -9.99999979E-14   2.55110641E-12   1.64999519E-12  -9.99999959E-13
   2.35000000E+03   5.00000000E-01   5.00000000E-01   7.49972365E-13  -9.99794447E-14  -9.99992265E-13  -9.99999979E-14   3.04600340E-12   1.64999714E-12  -9.99999959E-13
   2.45000000E+03   5.00000000E-01   5.00000000E-01   7.49966228E-13  -9.99825183E-14  -9.99992265E-13  -9.99999979E-14   3.60159532E-12   1.65000022E-12  -9.99999959E-13
   2.55000000E+03   5.00000000E-01   5.00000000E-01   7.49954581E-13  -9.99850991E-14  -9.99992265E-13  -9.99999979E-14   4.22288451E-12   1.65000496E-12  -9.99999959E-13
   2.65000000E+03   5.00000000E-01   5.00000000E-01   7.49935235E-13  -9.99872969E-14  -9.99992265E-13  -9.99999979E-14   4.91450828E-12   1.65001214E-12  -9.99999959E-13
   2.75000000E+03   5.00000000E-01   5.00000000E-01   7.49905136E-13  -9.99891908E-14  -9.99992265E-13  -9.99999979E-14   5.68047436E-12   1.65002281E-12  -9.99999959E-13
   2.85000000E+03   5.00000000E-01   5.00000000E-01   7.49860198E-13  -9.99908373E-14  -9.99992265E-13  -9.99999979E-14   6.52386546E-12   1.65003834E-12  -9.99999959E-13
   2.95000000E+03   5.00000000E-01   5.00000000E-01   7.49795248E-13  -9.99922765E-14  -9.99992265E-13  -9.99999979E-14   7.44653179E-12   1.65006047E-12  -9.99999959E-13
   3.05000000E+03   5.00000000E-01   5.00000000E-01   7.49705800E-13  -9.99935363E-14  -9.99992265E-13  -9.99999979E-14   8.44879927E-12   1.65009071E-12  -9.99999959E-13
   3.15000000E+03   5.00000000E-01   5.00000000E-01   7.49614158E-13  -9.99946363E-14  -9.99992265E-13  -9.99999979E-14   9.52922719E-12   1.65012162E-12  -9.99999959E-13
   3.25000000E+03   5.00000000E-01   5.00000000E-01   7.49784519E-13  -9.99955896E-14  -9.99992265E-13  -9.99999979E-14   1.06844520E-11   1.65006515E-12  -9.99999959E-13
   3.35000000E+03   5.00000000E-01   5.00000000E-01   7.51645425E-13  -9.99964026E-14  -9.99992265E-13  -9.99999979E-14   1.19091497E-11   1.64944512E-12  -9.99999959E-13
   3.45000000E+03   5.00000000E-01   5.00000000E-01   7.59457077E-13  -9.99970743E-14  -9.99992265E-13  -9.99999979E-14   1.31944531E-11   1.64684146E-12  -9.99999959E-13
