 TITLE = "Mineral Rate (mol/m^3/sec)" 
VARIABLES = "X"          "Y"              "Z"            "Forsterite"     "Fayalite"       "Brucite"        "Lizardite"      "Chrysotile"     "Saponite(Mg)"   "Enstatite(alph" "Ferrosilite(al" "Anorthite"      "Albite(low)"    "Clinochlore"    "Sudoite"        "Montmorillonit" "Kaolinite"      "Tremolite"      "Pargasite"      "Anhydrite"      "Epidote"        "Scolecite"      "Pyrite"         "FeS(am)"        "Quartz(alpha)" 
 ZONE I=         100 , J=           1 , K=           1  F=POINT
   1.75000000E+01   5.00000000E-01   5.00000000E-01  -1.06740461E-06  -2.60973644E-07  -3.19682677E-15  -4.76067905E-18  -4.78442851E-18   0.00000000E+00  -1.98483289E-10   2.12630533E-11  -5.80275957E-07  -2.33303097E-07   7.66256572E-07  -2.33420738E-14  -2.21930497E-17  -4.04097944E-13  -2.66695821E-08  -4.60586103E-08  -1.87004719E-15  -3.29068770E-15  -2.23935965E-10  -3.48692681E-15  -4.11917591E-15   4.62905083E-17
   5.25000000E+01   5.00000000E-01   5.00000000E-01  -1.06740464E-06  -1.26118628E-07  -3.19683725E-15  -6.74230967E-18  -6.01439449E-18   0.00000000E+00  -1.98244515E-10   1.32601365E-10  -5.80275958E-07  -4.83892044E-08   6.73782818E-07  -6.74278224E-15  -1.60272201E-15  -3.92849690E-13  -8.88768571E-09  -4.60586103E-08  -1.87402222E-15   1.28686782E-15  -2.23935800E-10  -3.48692681E-15  -4.11929465E-15   6.59244668E-17
   8.75000000E+01   5.00000000E-01   5.00000000E-01  -1.06740460E-06  -5.41919004E-08  -3.19683892E-15  -6.96188284E-18  -6.15838473E-18   0.00000000E+00  -1.98008942E-10   1.80832949E-10  -5.80275959E-07   7.34008887E-08   6.12887892E-07  -6.44538001E-15  -1.31818041E-13  -4.04038401E-13   5.55245671E-09  -4.60586103E-08  -1.87824747E-15   2.00532402E-16  -2.23935801E-10  -3.48692681E-15  -4.11944501E-15   7.20154814E-17
   1.22500000E+02   5.00000000E-01   5.00000000E-01  -1.06740455E-06  -2.50147552E-08  -3.19683867E-15  -6.53156835E-18  -5.86364006E-18   0.00000000E+00  -1.97803995E-10   1.96730322E-10  -5.80275960E-07   1.24819096E-07   5.87183009E-07  -8.32636859E-15  -5.18816176E-12  -4.23348663E-13   1.21469971E-08  -4.60586103E-08  -1.88244541E-15   1.79099339E-17  -2.23935952E-10  -3.48692681E-15  -4.11958019E-15   7.27647664E-17
   1.57500000E+02   5.00000000E-01   5.00000000E-01  -1.06740448E-06  -1.44850944E-08  -3.19683783E-15  -6.00354270E-18  -5.49123578E-18   0.00000000E+00  -1.97608512E-10   2.00013291E-10  -5.80275962E-07   1.42932014E-07   5.78207019E-07  -1.24289463E-14  -1.02095784E-10  -4.48443457E-13   1.44550913E-08  -4.60586103E-08  -1.88635348E-15  -3.33019180E-17  -2.23936193E-10  -3.48692681E-15  -4.11969149E-15   7.16812756E-17
   1.92500000E+02   5.00000000E-01   5.00000000E-01  -1.06740440E-06  -1.11389443E-08  -3.19683679E-15  -5.53888055E-18  -5.15338342E-18   0.00000000E+00  -1.97412998E-10   1.98800939E-10  -5.80275964E-07   1.49240365E-07   5.76106205E-07  -2.04197821E-14  -1.37114684E-09  -4.78435377E-13   1.48470853E-08  -4.60586103E-08  -1.88966908E-15  -4.85092376E-17  -2.23936485E-10  -3.48692681E-15  -4.11977981E-15   7.00451028E-17
   2.27500000E+02   5.00000000E-01   5.00000000E-01  -1.06740431E-06  -1.22039770E-08  -3.19683613E-15  -5.20426934E-18  -4.90092018E-18   0.00000000E+00  -1.97228733E-10   1.96103538E-10  -5.80275968E-07   1.64267671E-07   5.79632878E-07  -3.51645581E-14  -1.46726632E-08  -5.12349404E-13   1.27986246E-08  -4.60586103E-08  -1.89188116E-15  -4.06944103E-17  -2.23936734E-10  -3.48692681E-15  -4.11984939E-15   6.85649236E-17
   2.62500000E+02   5.00000000E-01   5.00000000E-01  -1.06740427E-06  -2.66562169E-08  -3.19683882E-15  -5.23616853E-18  -4.91151497E-18   0.00000000E+00  -1.97158773E-10   1.92247140E-10  -5.80275973E-07   2.68050893E-07   6.03201814E-07  -6.08248605E-14  -1.05588874E-07  -5.49308363E-13  -7.50469601E-11  -4.60586103E-08  -1.89160387E-15   5.76188721E-17  -2.23936327E-10  -3.48692681E-15  -4.11990807E-15   6.87328124E-17
   2.97500000E+02   5.00000000E-01   5.00000000E-01  -1.06740428E-06  -4.40207544E-08  -3.19684426E-15  -5.51810787E-18  -5.11869169E-18   0.00000000E+00  -1.97180721E-10   1.88859598E-10  -5.80275980E-07   4.57109947E-07   6.29332779E-07  -1.03284982E-13  -2.50962805E-07  -5.88519893E-13  -1.55692581E-08  -4.60586103E-08  -1.88761411E-15   1.66239359E-16  -2.23934685E-10  -3.48692681E-15  -4.11995003E-15   6.96216735E-17
   3.32500000E+02   5.00000000E-01   5.00000000E-01  -1.06740420E-06  -3.13619472E-08  -3.19684645E-15  -5.59090483E-18  -5.18315178E-18   0.00000000E+00  -1.97009939E-10   1.94508036E-10  -5.80275989E-07   5.21835512E-07   6.22631280E-07  -1.70773262E-13  -2.81879792E-07  -6.29078740E-13  -1.69312853E-08  -4.60586103E-08  -1.87962265E-15   2.26520648E-17  -2.23933834E-10  -3.48692681E-15  -4.11996491E-15   6.91694122E-17
   3.67500000E+02   5.00000000E-01   5.00000000E-01  -1.06740407E-06  -1.89656109E-08  -3.19684733E-15  -5.61006984E-18  -5.20996545E-18   0.00000000E+00  -1.96768686E-10   1.97683823E-10  -5.80276002E-07   5.18509086E-07   6.14593334E-07  -2.74394928E-13  -2.70191334E-07  -6.70036783E-13  -1.51730157E-08  -4.60586103E-08  -1.86638296E-15  -3.03776708E-17  -2.23933616E-10  -3.48692681E-15  -4.11997624E-15   6.78669455E-17
   4.02500000E+02   5.00000000E-01   5.00000000E-01  -1.06740390E-06  -1.24942857E-08  -3.19684785E-15  -5.62446324E-18  -5.23367922E-18   0.00000000E+00  -1.96508209E-10   1.97274362E-10  -5.80276019E-07   4.94054382E-07   6.10132824E-07  -4.27890098E-13  -2.50085036E-07  -7.10993921E-13  -1.31453353E-08  -4.60586103E-08  -1.84594225E-15  -4.21704545E-17  -2.23933612E-10  -3.48692681E-15  -4.11998616E-15   6.61926307E-17
   4.37500000E+02   5.00000000E-01   5.00000000E-01  -1.06740371E-06  -9.54247038E-09  -3.19684824E-15  -5.63578620E-18  -5.25515411E-18   0.00000000E+00  -1.96236505E-10   1.94911905E-10  -5.80276041E-07   4.63103880E-07   6.07819123E-07  -6.47469496E-13  -2.28651959E-07  -7.52103114E-13  -1.12170138E-08  -4.60586103E-08  -1.81556750E-15  -4.37677199E-17  -2.23933697E-10  -3.48692681E-15  -4.11999273E-15   6.43758145E-17
   4.72500000E+02   5.00000000E-01   5.00000000E-01  -1.06740347E-06  -8.25886152E-09  -3.19684856E-15  -5.64192372E-18  -5.27256552E-18   0.00000000E+00  -1.95954759E-10   1.91632778E-10  -5.80276071E-07   4.30729574E-07   6.06578703E-07  -9.51025184E-13  -2.07654064E-07  -7.93514190E-13  -9.41933037E-09  -4.60586103E-08  -1.77147380E-15  -4.17466026E-17  -2.23933829E-10  -3.48692681E-15  -4.11999540E-15   6.25170820E-17
   5.07500000E+02   5.00000000E-01   5.00000000E-01  -1.06740320E-06  -7.72634337E-09  -3.19684884E-15  -5.64314340E-18  -5.28599426E-18   0.00000000E+00  -1.95663252E-10   1.87934118E-10  -5.80276111E-07   3.98906755E-07   6.05882311E-07  -1.36008771E-12  -1.87643582E-07  -8.35230768E-13  -7.75007825E-09  -4.60586103E-08  -1.70840463E-15  -3.78998736E-17  -2.23933992E-10  -3.48692681E-15  -4.11999450E-15   6.06614464E-17
   5.42500000E+02   5.00000000E-01   5.00000000E-01  -1.06740288E-06  -7.53217163E-09  -3.19684909E-15  -5.64102048E-18  -5.29660432E-18   0.00000000E+00  -1.95362169E-10   1.84043721E-10  -5.80276162E-07   3.68448257E-07   6.05485725E-07  -1.90155074E-12  -1.68815858E-07  -8.76849700E-13  -6.20761582E-09  -4.60586103E-08  -1.61901599E-15  -3.28944569E-17  -2.23934175E-10  -3.48692681E-15  -4.11999070E-15   5.88304659E-17
   5.77500000E+02   5.00000000E-01   5.00000000E-01  -1.06740251E-06  -7.49403551E-09  -3.19684934E-15  -5.63774853E-18  -5.30611961E-18   0.00000000E+00  -1.95051678E-10   1.80068725E-10  -5.80276229E-07   3.39677180E-07   6.05270194E-07  -2.60731039E-12  -1.51222377E-07  -9.17502881E-13  -4.79045066E-09  -4.60586103E-08  -1.49296971E-15  -2.70657446E-17  -2.23934372E-10  -3.48692681E-15  -4.11998468E-15   5.70353610E-17
   6.12500000E+02   5.00000000E-01   5.00000000E-01  -1.06740207E-06  -7.53105004E-09  -3.19684959E-15  -5.63605682E-18  -5.31677582E-18   0.00000000E+00  -1.94731932E-10   1.76062605E-10  -5.80276316E-07   3.12691538E-07   6.05169158E-07  -3.51428667E-12  -1.34841899E-07  -9.56477631E-13  -3.49547538E-09  -4.60586103E-08  -1.31558442E-15  -2.06343916E-17  -2.23934580E-10  -3.48692681E-15  -4.11997707E-15   5.52823806E-17
   6.47500000E+02   5.00000000E-01   5.00000000E-01  -1.06740157E-06  -7.60735489E-09  -3.19684985E-15  -5.63934976E-18  -5.33145369E-18   0.00000000E+00  -1.94403074E-10   1.72054041E-10  -5.80276428E-07   2.87479932E-07   6.05137817E-07  -4.66066060E-12  -1.19613482E-07  -9.93916743E-13  -2.31771347E-09  -4.60586103E-08  -1.06580361E-15  -1.37763981E-17  -2.23934802E-10  -3.48692681E-15  -4.11996839E-15   5.35751045E-17
   6.82500000E+02   5.00000000E-01   5.00000000E-01  -1.06740100E-06  -7.70761224E-09  -3.19685016E-15  -5.65188816E-18  -5.35385224E-18   0.00000000E+00  -1.94065241E-10   1.68059518E-10  -5.80276574E-07   2.63977433E-07   6.05141238E-07  -6.08655678E-12  -1.05455815E-07  -1.03057156E-12  -1.25078651E-09  -4.60586103E-08  -7.13093900E-16  -6.64858480E-18  -2.23935049E-10  -3.48692681E-15  -4.11995907E-15   5.19155170E-17
   7.17500000E+02   5.00000000E-01   5.00000000E-01  -1.06740034E-06  -7.82607545E-09  -3.19685053E-15  -5.67899464E-18  -5.38868760E-18   0.00000000E+00  -1.93718578E-10   1.64089090E-10  -5.80276762E-07   2.42094518E-07   6.05150095E-07  -7.84547447E-12  -9.22794982E-08  -1.06697213E-12  -2.87484863E-10  -4.60586103E-08  -2.12641625E-16   6.02319585E-19  -2.23935333E-10  -3.48692681E-15  -4.11994945E-15   5.03045654E-17
   7.52500000E+02   5.00000000E-01   5.00000000E-01  -1.06739958E-06  -7.96141758E-09  -3.19685099E-15  -5.72752329E-18  -5.44212205E-18   0.00000000E+00  -1.93363236E-10   1.60149221E-10  -5.80277006E-07   2.21731239E-07   6.05139399E-07  -1.00004251E-11  -7.99940448E-08  -1.10329888E-12   5.79843419E-10  -4.60586103E-08   5.02203064E-16   7.83708287E-18  -2.23935667E-10  -3.48692681E-15  -4.11993981E-15   4.87424898E-17
   7.87500000E+02   5.00000000E-01   5.00000000E-01  -1.06739872E-06  -8.11423529E-09  -3.19685161E-15  -5.80655830E-18  -5.52240283E-18   0.00000000E+00  -1.92999379E-10   1.56244262E-10  -5.80277323E-07   2.02785250E-07   6.05088410E-07  -1.26324679E-11  -6.85125977E-08  -1.13961242E-12   1.35904335E-09  -4.60586103E-08   1.53201056E-15   1.49251646E-17  -2.23936071E-10  -3.48692681E-15  -4.11993036E-15   4.72290374E-17
   8.22500000E+02   5.00000000E-01   5.00000000E-01  -1.06739775E-06  -8.28577370E-09  -3.19685243E-15  -5.92856595E-18  -5.64091140E-18   0.00000000E+00  -1.92627182E-10   1.52377298E-10  -5.80277736E-07   1.85156382E-07   6.04980860E-07  -1.58405659E-11  -5.77549480E-08  -1.17586306E-12   2.05802468E-09  -4.60586103E-08   3.03094426E-15   2.17471615E-17  -2.23936569E-10  -3.48692681E-15  -4.11992123E-15   4.57636098E-17
   8.57500000E+02   5.00000000E-01   5.00000000E-01  -1.06739665E-06  -8.47723769E-09  -3.19685353E-15  -6.11120482E-18  -5.81381315E-18   0.00000000E+00  -1.92246827E-10   1.48550640E-10  -5.80278275E-07   1.68749338E-07   6.04805115E-07  -1.97543016E-11  -4.76493214E-08  -1.21187015E-12   2.68471058E-09  -4.60586103E-08   5.23939977E-15   2.81971464E-17  -2.23937194E-10  -3.48692681E-15  -4.11991253E-15   4.43453672E-17
   8.92500000E+02   5.00000000E-01   5.00000000E-01  -1.06739541E-06  -8.68939566E-09  -3.19685503E-15  -6.38031770E-18  -6.06478091E-18   0.00000000E+00  -1.91858510E-10   1.44766144E-10  -5.80278983E-07   1.53475027E-07   6.04554100E-07  -2.45353981E-11  -3.81330860E-08  -1.24726696E-12   3.24703073E-09  -4.60586103E-08   8.53926947E-15   3.41846664E-17  -2.23937993E-10  -3.48692681E-15  -4.11990431E-15   4.29733009E-17
   9.27500000E+02   5.00000000E-01   5.00000000E-01  -1.06739403E-06  -8.92236171E-09  -3.19685705E-15  -6.77486326E-18  -6.42948220E-18   0.00000000E+00  -1.91462430E-10   1.41025394E-10  -5.80279917E-07   1.39251271E-07   6.04224987E-07  -3.04027792E-11  -2.91527293E-08  -1.28154539E-12   3.75291482E-09  -4.60586103E-08   1.35495759E-14   3.96360176E-17  -2.23939029E-10  -3.48692681E-15  -4.11989661E-15   4.16462839E-17
   9.62500000E+02   5.00000000E-01   5.00000000E-01  -1.06739250E-06  -9.17547346E-09  -3.19685977E-15  -7.35534199E-18  -6.96323725E-18   0.00000000E+00  -1.91058799E-10   1.37329813E-10  -5.80281161E-07   1.26002974E-07   6.03818617E-07  -3.76482269E-11  -2.06632275E-08  -1.31415041E-12   4.21027592E-09  -4.60586103E-08   2.12958703E-14   4.44947488E-17  -2.23940397E-10  -3.48692681E-15  -4.11988943E-15   4.03631057E-17
   9.97500000E+02   5.00000000E-01   5.00000000E-01  -1.06739082E-06  -9.44722317E-09  -3.19686343E-15  -8.21845459E-18  -7.75433261E-18   0.00000000E+00  -1.90647837E-10   1.33680720E-10  -5.80282839E-07   1.13662018E-07   6.03338737E-07  -4.66355361E-11  -1.26270324E-08  -1.34465930E-12   4.62697995E-09  -4.60586103E-08   3.35179015E-14   4.87211625E-17  -2.23942243E-10  -3.48692681E-15  -4.11988276E-15   3.91224947E-17
   1.03250000E+03   5.00000000E-01   5.00000000E-01  -1.06738900E-06  -9.73522785E-09  -3.19686832E-15  -9.52281939E-18  -8.94739020E-18   0.00000000E+00  -1.90229777E-10   1.30079346E-10  -5.80285142E-07   1.02167165E-07   6.02791120E-07  -5.78229333E-11  -5.01287224E-09  -1.37306722E-12   5.01078769E-09  -4.60586103E-08   5.32436254E-14   5.22913618E-17  -2.23944801E-10  -3.48692681E-15  -4.11987657E-15   3.79231326E-17
   1.06750000E+03   5.00000000E-01   5.00000000E-01  -1.06738704E-06  -1.00362356E-08  -3.19687481E-15  -1.15339533E-17  -1.07843382E-17   0.00000000E+00  -1.89804870E-10   1.26526827E-10  -5.80288387E-07   9.14642628E-08   6.02182701E-07  -7.18233144E-11   2.20537588E-09  -1.39962050E-12   5.36925906E-09  -4.60586103E-08   8.58914709E-14   5.51956743E-17  -2.23948466E-10  -3.48692681E-15  -4.11987081E-15   3.67636619E-17
   1.10250000E+03   5.00000000E-01   5.00000000E-01  -1.06738498E-06  -1.03461174E-08  -3.19688335E-15  -1.46999876E-17  -1.36738080E-17   0.00000000E+00  -1.89373400E-10   1.23024086E-10  -5.80293134E-07   8.15067253E-08   6.01521297E-07  -8.95190388E-11   9.04916040E-09  -1.42450793E-12   5.70929561E-09  -4.60586103E-08   1.41453633E-13   5.74369527E-17  -2.23953947E-10  -3.48692681E-15  -4.11986541E-15   3.56426662E-17
   1.13750000E+03   5.00000000E-01   5.00000000E-01  -1.06740647E-06  -4.21000462E-07  -3.19695669E-15  -1.65915037E-17  -1.54725476E-17   2.88892741E-06  -1.99498157E-10  -1.32457893E-10  -5.80297842E-07  -1.65532279E-07  -1.10927076E-06  -9.90393819E-10   1.62952974E-06  -2.12740139E-12  -4.49697337E-08  -4.60586103E-08   2.38301216E-13   7.39552108E-16  -2.23301517E-10  -3.48692681E-15  -4.11987468E-15   4.71072485E-18
   1.17250000E+03   5.00000000E-01   5.00000000E-01  -1.06740554E-06  -2.75608344E-07  -3.19695747E-15  -2.36947146E-17  -2.19877946E-17   0.00000000E+00  -1.98355271E-10  -7.00919067E-11  -5.80312410E-07  -1.28692244E-07   7.99145993E-07  -1.84117300E-10  -1.02174701E-07  -1.66637032E-12  -4.49688707E-08  -4.60586103E-08   4.14616617E-13  -2.49380374E-17  -2.23674371E-10  -3.48692681E-15  -4.11984034E-15   8.48420510E-18
   1.20750000E+03   5.00000000E-01   5.00000000E-01  -1.06740464E-06  -1.10924149E-07  -3.19696855E-15  -3.47516117E-17  -3.21653683E-17   0.00000000E+00  -1.97335393E-10  -1.69638066E-11  -5.80339255E-07  -1.03611865E-07   7.28299685E-07  -2.07055907E-10  -3.18395831E-08  -1.61227102E-12  -4.49668072E-08  -4.60586103E-08   7.49529364E-13   2.16601581E-19  -2.23800360E-10  -3.48692681E-15  -4.11982307E-15   1.10280354E-17
   1.24250000E+03   5.00000000E-01   5.00000000E-01  -1.06740387E-06   2.08306918E-09  -3.19698673E-15  -5.00537833E-17  -4.63706829E-17   0.00000000E+00  -1.96423690E-10   1.73785374E-11  -5.80429336E-07  -8.81363592E-08   6.77734495E-07  -2.73506939E-10   2.00284105E-08  -1.60525975E-12  -4.49584992E-08  -4.60586103E-08   1.41207215E-12   7.76559667E-18  -2.23952217E-10  -3.48692681E-15  -4.11981516E-15   1.27464216E-17
   1.27750000E+03   5.00000000E-01   5.00000000E-01  -1.06740309E-06   5.74917638E-08  -3.19701216E-15  -6.59204156E-17  -6.13906301E-17   0.00000000E+00  -1.95564474E-10   3.69262232E-11  -5.81394452E-07  -7.94905838E-08   6.52615340E-07  -4.41215525E-10   4.66522093E-08  -1.61290466E-12  -4.49350969E-08  -4.60586103E-08   2.77993133E-12   1.09029233E-17  -2.24936468E-10  -3.48692681E-15  -4.11980952E-15   1.39965357E-17
   1.31250000E+03   5.00000000E-01   5.00000000E-01  -1.06740214E-06   7.52774868E-08  -3.19705188E-15  -7.37549950E-17  -6.93498851E-17   0.00000000E+00  -1.94742462E-10   4.70967796E-11  -5.94722853E-07  -7.40025592E-08   6.45324931E-07  -4.98590101E-10   6.83351026E-08  -1.57855417E-12  -4.48920527E-08  -4.60586103E-08   5.73284624E-12   1.56133075E-17  -2.32245236E-10  -3.48692681E-15  -4.11980569E-15   1.49237972E-17
   1.34750000E+03   5.00000000E-01   5.00000000E-01  -1.06740091E-06   7.48115278E-08  -3.19712390E-15  -6.91037277E-17  -6.58000304E-17   0.00000000E+00  -1.93955081E-10   5.19778121E-11  -6.17923103E-07  -6.67103174E-08   6.47538040E-07  -3.19427173E-10   8.88034728E-08  -1.51110305E-12  -4.52759341E-08  -4.60586103E-08   1.23958093E-11   2.07803619E-17  -2.38376664E-10  -3.48692681E-15  -4.11980472E-15   1.55949391E-17
   1.38250000E+03   5.00000000E-01   5.00000000E-01  -1.06741969E-06  -3.46242130E-07  -3.19729689E-15  -5.68921009E-17  -5.49058030E-17   1.74814947E-06  -1.99074622E-10  -1.10521264E-10  -6.39119331E-07  -1.92731817E-07  -3.61787725E-07  -1.83163532E-09   1.05189872E-06  -1.88654212E-12  -4.63442832E-08  -4.60586103E-08   2.79869482E-11   1.64949459E-16  -2.39216774E-10  -3.48692681E-15  -4.11981147E-15   3.72748153E-18
   1.41750000E+03   5.00000000E-01   5.00000000E-01  -1.06742214E-06  -2.74445683E-07  -3.19742128E-15  -4.51711822E-17  -4.41298290E-17   3.19778947E-07  -1.98997880E-10  -9.54287892E-11  -6.58416696E-07  -1.92576350E-07   5.92675656E-07  -1.58346975E-09   2.17063182E-07  -1.77726735E-12  -4.71579662E-08  -4.60586103E-08   6.69345731E-11   2.77085619E-17  -2.39624502E-10  -3.48692681E-15  -4.11979953E-15   3.57239295E-18
   1.45250000E+03   5.00000000E-01   5.00000000E-01  -1.06742473E-06  -1.96538262E-07  -3.19757648E-15  -3.58452536E-17  -3.53823994E-17   2.67664064E-07  -1.98915572E-10  -8.18562933E-11  -6.76691077E-07  -1.89020895E-07   5.96231083E-07  -1.38787158E-09   2.42857333E-07  -1.68376168E-12  -4.79170985E-08  -4.60586103E-08   1.70414328E-10   2.00901666E-17  -2.39393141E-10  -3.48692681E-15  -4.11979133E-15   3.48089116E-18
   1.48750000E+03   5.00000000E-01   5.00000000E-01  -1.06742733E-06  -1.14222995E-07  -3.19776840E-15  -2.88328906E-17  -2.87009366E-17   2.13109783E-07  -1.98799261E-10  -6.90446913E-11  -6.94537452E-07  -1.84279921E-07   5.99151039E-07  -1.31370888E-09   2.68979342E-07  -1.60168488E-12  -4.86436459E-08  -4.60586103E-08   4.63965472E-10   1.38824506E-17  -2.38884939E-10  -3.48692681E-15  -4.11978608E-15   3.46324523E-18
   1.52250000E+03   5.00000000E-01   5.00000000E-01  -1.06742842E-06   3.29186730E-08  -3.19799274E-15  -2.35415613E-17  -2.35913181E-17   3.20684577E-09  -1.98274043E-10  -4.07849043E-11  -7.12241432E-07  -1.67764429E-07   6.79864543E-07  -2.48827149E-09   2.28939632E-07  -1.61080857E-12  -4.93475426E-08  -4.60586103E-08   1.35714974E-09   5.97331183E-18  -2.38659975E-10  -3.48692681E-15  -4.11978309E-15   4.27140564E-18
   1.55750000E+03   5.00000000E-01   5.00000000E-01  -1.06742976E-06   1.03943176E-07  -3.19828255E-15  -1.95042973E-17  -1.96476632E-17   1.66816209E-15  -1.97869269E-10  -2.65939281E-11  -7.29774553E-07  -1.55852363E-07   6.52810611E-07  -4.04563295E-09   2.79890784E-07  -1.62814601E-12  -5.00291728E-08  -4.60586104E-08   4.28074636E-09   5.39744939E-18  -2.38088262E-10  -3.48692681E-15  -4.11978477E-15   4.72342231E-18
   1.59250000E+03   5.00000000E-01   5.00000000E-01  -1.06743126E-06   1.28923383E-07  -3.19865112E-15  -1.63856520E-17  -1.65711885E-17   2.10129822E-24  -1.97545901E-10  -2.05655257E-11  -7.47141163E-07  -1.46949174E-07   6.44357302E-07  -7.76539481E-09   3.14597739E-07  -1.66584260E-12  -5.06896771E-08  -4.60586104E-08   1.46150267E-08   4.84571363E-18  -2.37341882E-10  -3.48692681E-15  -4.11978791E-15   4.95381605E-18
   1.62750000E+03   5.00000000E-01   5.00000000E-01  -1.06743303E-06   1.30368490E-07  -3.19911879E-15  -1.39541968E-17  -1.41525634E-17   7.52850429E-36  -1.97310187E-10  -1.94596790E-11  -7.64442895E-07  -1.39851386E-07   6.47470291E-07  -1.72505674E-08   3.50271331E-07  -1.71384688E-12  -5.13314620E-08  -4.60586104E-08   5.41039200E-08   4.35823167E-18  -2.36474544E-10  -3.48692681E-15  -4.11979116E-15   4.99878870E-18
   1.66250000E+03   5.00000000E-01   5.00000000E-01  -1.06743549E-06   1.17550701E-07  -3.19971302E-15  -1.20529433E-17  -1.22482224E-17   8.65067845E-49  -1.97220380E-10  -2.26587139E-11  -7.81771365E-07  -1.34613405E-07   6.59191960E-07  -3.89271444E-08   4.06102097E-07  -1.75931597E-12  -5.19545954E-08  -4.60586104E-08   2.15302055E-07   3.80629338E-18  -2.35455654E-10  -3.48692681E-15  -4.11979392E-15   4.81032940E-18
   1.69750000E+03   5.00000000E-01   5.00000000E-01  -1.06743922E-06   9.64239353E-08  -3.20046918E-15  -1.05751916E-17  -1.07596373E-17   1.50841509E-60  -1.97341562E-10  -3.00197444E-11  -7.99579505E-07  -1.31416842E-07   6.76740516E-07  -7.25697016E-08   4.85553114E-07  -1.79183527E-12  -5.25637736E-08  -4.60586104E-08   8.72514802E-07   3.03966155E-18  -2.34225657E-10  -3.48692681E-15  -4.11979588E-15   4.33671637E-18
   1.73250000E+03   5.00000000E-01   5.00000000E-01  -1.06744499E-06   6.60908558E-08  -3.20143509E-15  -9.43962785E-18  -9.61038866E-18   2.68367640E-68  -1.97749577E-10  -4.24561964E-11  -8.18000964E-07  -1.28622599E-07   7.01007374E-07  -1.22494027E-07   5.97121631E-07  -1.75404271E-12  -5.31683345E-08  -4.60586105E-08   2.94037671E-06   2.14740084E-18  -2.32328703E-10  -3.48692681E-15  -4.11979685E-15   3.52004340E-18
   1.76750000E+03   5.00000000E-01   5.00000000E-01  -1.06745017E-06   8.74122876E-08  -3.20264629E-15  -8.56766931E-18  -8.72435182E-18   9.03096747E-72  -1.98006050E-10  -4.60871363E-11  -8.38207727E-07  -1.15387352E-07   6.84793559E-07  -8.24546485E-08   5.36543974E-07  -1.65065440E-12  -5.38760248E-08  -4.60586105E-08   5.75331591E-06   1.14387414E-18  -2.30229768E-10  -3.48692681E-15  -4.11979697E-15   2.97005221E-18
   1.80250000E+03   5.00000000E-01   5.00000000E-01  -1.06745402E-06   1.49872168E-07  -3.20415862E-15  -7.88498606E-18  -8.02813182E-18   2.49054891E-74  -1.97988708E-10  -3.97144123E-11  -8.60368707E-07  -7.55426152E-08   6.40822795E-07   7.47632229E-09   3.75515255E-07  -1.53431945E-12  -5.46340403E-08  -4.60586106E-08   5.91696121E-06   6.49555274E-19  -2.27925893E-10  -3.48692681E-15  -4.11979757E-15   2.90200166E-18
   1.83750000E+03   5.00000000E-01   5.00000000E-01  -1.06745765E-06   1.99824096E-07  -3.20606596E-15  -7.32800270E-18  -7.45818034E-18   5.16032479E-77  -1.97802223E-10  -2.78418602E-11  -8.82776122E-07   5.06617448E-08   5.95973910E-07   1.21460119E-07   1.05854403E-07  -1.35288164E-12  -5.53588213E-08  -4.60586107E-08   4.02252660E-06   4.45124475E-19  -2.22529174E-10  -3.48692681E-15  -4.11979997E-15   3.37287815E-18
   1.87250000E+03   5.00000000E-01   5.00000000E-01  -1.06746112E-06   2.28363570E-07  -3.20844392E-15  -6.84944933E-18  -6.96681720E-18   6.73400008E-80  -1.97614765E-10  -1.96464693E-11  -9.04851533E-07   2.08553605E-07   5.74298493E-07   1.47525396E-07   6.30302165E-10  -1.12800062E-12  -5.60936134E-08  -4.60586108E-08   2.27320830E-06   2.13712952E-19  -2.13896604E-10  -3.48692681E-15  -4.11980229E-15   3.73355984E-18
   1.90750000E+03   5.00000000E-01   5.00000000E-01  -1.06746507E-06   2.35647539E-07  -3.21140237E-15  -6.41966097E-18  -6.52390622E-18   1.29427835E-84  -1.97566503E-10  -1.86376332E-11  -9.27383276E-07   3.68468854E-07   5.70884475E-07   1.20770752E-07   1.05556560E-12  -9.28937362E-13  -5.69220422E-08  -4.60586109E-08   1.22029070E-06   8.15695370E-20  -1.98385896E-10  -3.48692681E-15  -4.11980411E-15   3.71444825E-18
   1.94250000E+03   5.00000000E-01   5.00000000E-01  -1.06747149E-06   2.19735495E-07  -3.21509716E-15  -6.02631143E-18  -6.11701037E-18   2.41870390E-90  -1.97873215E-10  -2.67135289E-11  -9.43073627E-07   5.95769219E-07   5.77932538E-07   6.82354580E-08   2.20831683E-16  -6.10699372E-13  -5.77662762E-08  -4.60586110E-08   6.68224114E-07   2.23878116E-20  -1.48085858E-10  -3.48692681E-15  -4.11980542E-15   3.19891922E-18
   1.97750000E+03   5.00000000E-01   5.00000000E-01  -1.06747818E-06   2.02067917E-07  -3.21967350E-15  -5.66616403E-18  -5.74299775E-18  -4.44026212E-89  -1.98291353E-10  -4.08131496E-11  -9.21550482E-07   8.13358909E-07   5.83710196E-07   7.67990091E-11   1.54811191E-21  -2.77787776E-13  -5.86520270E-08  -4.60586112E-08   3.87840683E-07   2.99360412E-21   4.80658467E-12  -3.48692681E-15  -4.11980632E-15   2.29091737E-18
   2.01250000E+03   5.00000000E-01   5.00000000E-01  -1.06747393E-06   1.81106818E-07  -3.22520477E-15  -5.33981124E-18  -5.40269425E-18  -2.71412294E-89  -1.97810200E-10  -5.30170603E-11  -8.72623234E-07   7.61658662E-07   5.60644931E-07   1.53618779E-14   1.17262899E-25  -4.44964970E-13  -5.95124589E-08  -4.60586115E-08   2.43578180E-07   1.59313091E-22   1.44026393E-10  -3.48692681E-15  -4.11980994E-15   1.58959918E-18
   2.04750000E+03   5.00000000E-01   5.00000000E-01  -1.06744972E-06   3.30543511E-08  -3.23189897E-15  -5.04896040E-18  -5.09813616E-18   1.46664962E-91  -1.96665068E-10  -7.54090315E-11  -7.68809089E-07   6.77856708E-07   4.98531036E-07  -1.28265349E-14  -8.52014546E-27  -4.93635505E-13  -2.67458711E-08  -4.60586117E-08   1.63757688E-07  -6.17492602E-24   3.04228299E-10  -3.48692681E-15  -4.11981695E-15   1.02414162E-18
   2.08250000E+03   5.00000000E-01   5.00000000E-01  -1.06744108E-06   1.81327707E-09  -3.24030695E-15  -4.80267168E-18  -4.83938188E-18  -6.95499933E-95  -1.96716147E-10  -8.95823611E-11  -5.47872360E-07   4.60331019E-07   3.86035432E-07  -1.21767076E-14  -5.80392584E-27  -4.92170701E-13   7.84889607E-08  -4.60586116E-08   1.14963395E-07   4.93994082E-24   4.63381521E-10  -3.48692681E-15  -4.11981884E-15   2.87089118E-19
   2.11750000E+03   5.00000000E-01   5.00000000E-01  -1.06743430E-06   4.37040583E-10  -3.25068450E-15  -4.59862475E-18  -4.62430415E-18  -6.61625868E-96  -1.96876454E-10  -9.91251887E-11  -3.83213706E-07   2.22689456E-07   3.40203054E-07  -1.13729716E-14  -4.29512906E-27  -4.91168621E-13   1.23815417E-07  -4.60586109E-08   8.57531974E-08   2.46997041E-24   4.26102814E-10  -3.48692681E-15  -4.11981951E-15  -2.68243565E-19
   2.15250000E+03   5.00000000E-01   5.00000000E-01  -1.06742549E-06   2.16779412E-10  -3.26344945E-15  -4.43335325E-18  -4.44956032E-18  -1.30008387E-96  -1.96958239E-10  -1.06196900E-10  -2.86631363E-07   6.63023982E-08   3.21921223E-07  -1.06208030E-14  -3.34045688E-27  -4.91009461E-13   1.42001881E-07  -4.60586095E-08   6.80833512E-08  -3.70495562E-24   3.26078446E-10  -3.48692681E-15  -4.11981989E-15  -6.41926616E-19
   2.18750000E+03   5.00000000E-01   5.00000000E-01  -1.06741466E-06   1.43362762E-10  -3.27912474E-15  -4.30225799E-18  -4.31056410E-18  -5.63363954E-97  -1.96980972E-10  -1.11519652E-10  -2.28276140E-07  -2.98484831E-08   3.11746923E-07  -9.96977511E-15  -2.60836783E-27  -4.90685868E-13   1.52141043E-07  -4.60586073E-08   5.68668872E-08   1.23498521E-24   2.29541671E-10  -3.48692681E-15  -4.11982015E-15  -8.99973730E-19
   2.22250000E+03   5.00000000E-01   5.00000000E-01  -1.06740188E-06   1.10466333E-10  -3.29833742E-15  -4.19988741E-18  -4.20175462E-18  -3.97980641E-97  -1.96964892E-10  -1.15658865E-10  -1.90965167E-07  -9.08819368E-08   3.05039562E-07  -9.45417249E-15  -2.00049540E-27  -4.89261754E-13   1.58829446E-07  -4.60586040E-08   4.92474888E-08  -1.85247781E-24   1.49366432E-10  -3.48692681E-15  -4.11982033E-15  -1.08677183E-18
   2.25750000E+03   5.00000000E-01   5.00000000E-01  -1.06738707E-06   9.34799077E-11  -3.32184206E-15  -4.12075107E-18  -4.11746047E-18  -3.82227802E-97  -1.96922195E-10  -1.18985197E-10  -1.65845445E-07  -1.31465441E-07   3.00279568E-07  -9.03917009E-15  -1.50345752E-27  -4.86457218E-13   1.63576258E-07  -4.60585993E-08   4.36750168E-08   8.02740384E-24   8.50179109E-11  -3.48692681E-15  -4.11982046E-15  -1.22808874E-18
   2.29250000E+03   5.00000000E-01   5.00000000E-01  -1.06737007E-06   8.39352938E-11  -3.35054904E-15  -4.05989461E-18  -4.05252252E-18  -4.52453241E-97  -1.96860197E-10  -1.21737090E-10  -1.48172301E-07  -1.59646176E-07   2.96748646E-07  -8.64440556E-15  -1.11634283E-27  -4.82663554E-13   1.67096180E-07  -4.60585929E-08   3.93150624E-08   4.32244822E-24   3.35433346E-11  -3.48692681E-15  -4.11982057E-15  -1.33906929E-18
   2.32750000E+03   5.00000000E-01   5.00000000E-01  -1.06735069E-06   7.82645384E-11  -3.38555858E-15  -4.01314771E-18  -4.00257216E-18  -6.26966344E-97  -1.96783494E-10  -1.24070984E-10  -1.35274052E-07  -1.79954594E-07   2.94043239E-07  -8.20975582E-15  -8.25644950E-28  -4.78404922E-13   1.69791216E-07  -4.60585843E-08   3.57216496E-08  -1.04973742E-23  -7.88936457E-12  -3.48692681E-15  -4.11982065E-15  -1.42896826E-18
   2.36250000E+03   5.00000000E-01   5.00000000E-01  -1.06732867E-06   7.47702800E-11  -3.42820225E-15  -3.97717090E-18  -3.96409512E-18  -9.87575035E-97  -1.96695105E-10  -1.26092240E-10  -1.25573362E-07  -1.95050363E-07   2.91918248E-07  -7.71373186E-15  -6.10720850E-28  -4.74005497E-13   1.71905671E-07  -4.60585730E-08   3.26498780E-08  -1.79072854E-23  -4.15346942E-11  -3.48692681E-15  -4.11982072E-15  -1.50367258E-18
   2.39750000E+03   5.00000000E-01   5.00000000E-01  -1.06730374E-06   7.25720529E-11  -3.48009438E-15  -3.94936974E-18  -3.93435068E-18  -1.73623342E-96  -1.96597085E-10  -1.27873632E-10  -1.18097238E-07  -2.06562577E-07   2.90217096E-07  -7.15473909E-15  -4.52189835E-28  -4.69596861E-13   1.73595649E-07  -4.60585583E-08   2.99497176E-08   1.23498520E-24  -6.91022658E-11  -3.48692681E-15  -4.11982078E-15  -1.56706556E-18