 TITLE = "Mineral Rate (mol/m^3/sec)" 
VARIABLES = "X"          "Y"              "Z"            "Forsterite"     "Fayalite"       "Brucite"        "Lizardite"      "Chrysotile"     "Hematite"       "Magnetite(am)"  "Saponite(Ca)"   "Saponite(K)"    "Saponite(Mg)"   "Saponite(Na)"   "Beidellite(Ca)" "Beidellite(K)"  "Beidellite(Mg)" "Beidellite(Na)" "Enstatite(alph" "Ferrosilite(al" "Anorthite"      "Albite(low)"    "Clinochlore"    "Sudoite"        "Montmor(MgCa)"  "Montmor(MgK)"   "Montmor(MgMg)"  "Montmor(MgNa)"  "Kaolinite"      "Tremolite"      "Pargasite"      "Anhydrite"      "Epidote"        "Scolecite"      "Pyrite"         "FeS(am)"        "Quartz(alpha)"  "Titanite"       "Rutile"         "Barite"         "Fluorite"       "Spessartine(al" "Andradite"      "Celestite"      "Zincite"        "Chalcocyanite"  "Chalcocite(alp"
 ZONE I=         200 , J=           1 , K=           1  F=POINT
   8.75000000E+00   5.00000000E-01   5.00000000E-01  -1.31476194E-07  -4.79042721E-08  -1.25669047E-15  -1.12328904E-15  -1.05916002E-15   1.46678608E-08  -1.46565136E-16   2.27445468E-17   3.36861688E-14   1.42888282E-16   2.14050462E-08  -3.66322026E-17  -3.81183611E-18  -3.74842516E-17  -3.71769397E-17  -1.99866374E-10  -1.70044532E-10  -1.17046832E-07  -2.90886185E-08   2.31113661E-07   0.00000000E+00  -8.07205584E-18  -8.29061060E-19  -8.25581638E-18  -8.18710341E-18  -3.42627044E-11  -4.56280711E-08  -4.67482571E-08   0.00000000E+00  -2.93356441E-08  -1.98431670E-16  -7.01489862E-16  -6.87528943E-16   1.02948168E-17  -2.66507128E-14   1.73819556E-14   1.46397335E-10  -2.32493874E-14  -3.52854386E-09  -3.85413645E-14  -3.89293129E-15  -5.65796275E-10  -3.90435203E-15   1.82936821E-13
   2.62500000E+01   5.00000000E-01   5.00000000E-01  -1.31476207E-07  -4.78982560E-08  -1.25670403E-15  -1.10645410E-15  -1.04655559E-15   1.46678607E-08  -1.46579084E-16   7.23654049E-18   2.84844524E-14   6.18214725E-17   4.03065132E-08  -3.66315520E-17  -3.81092558E-18  -3.74812061E-17  -3.71690602E-17  -2.00148103E-10  -1.68388971E-10  -1.17046832E-07  -2.37101199E-08   2.25272143E-07   0.00000000E+00  -8.05737258E-18  -7.93886935E-19  -8.19218867E-18  -7.93538283E-18  -3.42577921E-11  -4.56522017E-08  -4.67482571E-08   0.00000000E+00  -2.93356441E-08  -1.98430590E-16  -7.01489862E-16  -6.87528943E-16   1.59992139E-17  -3.00249581E-14   1.94299555E-14   5.42822701E-11  -2.35825522E-14  -3.52854386E-09  -3.85413707E-14  -3.89418029E-15  -5.65841073E-10  -3.90435203E-15   1.73976374E-15
   4.37500000E+01   5.00000000E-01   5.00000000E-01  -1.31476208E-07  -4.78696515E-08  -1.25670648E-15  -1.04678536E-15  -1.00327758E-15   1.46678607E-08  -1.46588117E-16   6.09599774E-18   3.06430702E-14   5.77328680E-17   4.00105206E-08  -3.66253935E-17  -3.80272438E-18  -3.74524191E-17  -3.70965172E-17  -2.00191827E-10  -1.65893895E-10  -1.17046832E-07  -1.09933160E-08   2.18962556E-07   0.00000000E+00  -7.97724647E-18  -6.12541924E-19  -7.84530144E-18  -6.60423819E-18  -3.42340462E-11  -4.56672001E-08  -4.67482571E-08   0.00000000E+00  -2.93356441E-08  -1.98426160E-16  -7.01489862E-16  -6.87528943E-16   2.09076018E-17  -3.06196059E-14   2.13709257E-14   1.81290913E-11  -2.38876509E-14  -3.52854386E-09  -3.85413712E-14  -3.89531539E-15  -5.65844350E-10  -3.90435203E-15   1.73976374E-15
   6.12500000E+01   5.00000000E-01   5.00000000E-01  -1.31476209E-07  -4.78267433E-08  -1.25670724E-15  -1.01385593E-15  -9.79138639E-16   1.46678607E-08  -1.46595864E-16   6.51698205E-18   3.44713306E-14   6.27162019E-17   4.92665032E-08  -3.66080370E-17  -3.78091288E-18  -3.73714121E-17  -3.68985339E-17  -2.00193758E-10  -1.63070950E-10  -1.17046832E-07   5.65208194E-09   2.09112577E-07   0.00000000E+00  -7.80583674E-18  -2.49475861E-19  -7.10390555E-18  -3.85769483E-18  -3.41917540E-11  -4.56795407E-08  -4.67482571E-08   0.00000000E+00  -2.93356440E-08  -1.98418590E-16  -7.01489862E-16  -6.87528943E-16   2.45858490E-17  -3.07448252E-14   2.31871596E-14   2.86488547E-12  -2.41673768E-14  -3.52854386E-09  -3.85413714E-14  -3.89633678E-15  -5.65837470E-10  -3.90435203E-15   1.73976374E-15
   7.87500000E+01   5.00000000E-01   5.00000000E-01  -1.31476209E-07  -4.77771917E-08  -1.25670757E-15  -9.97265798E-16  -9.66984663E-16   1.46678607E-08  -1.46603703E-16   6.75893857E-18   3.78804468E-14   6.68599049E-17   6.22384575E-08  -3.65766807E-17  -3.74387678E-18  -3.72252889E-17  -3.65528411E-17  -2.00190177E-10  -1.60381732E-10  -1.17046832E-07   2.29036330E-08   1.98346371E-07   0.00000000E+00  -7.55374474E-18   2.47104596E-19  -6.01441832E-18   2.73716927E-20  -3.41344626E-11  -4.56954102E-08  -4.67482571E-08   0.00000000E+00  -2.93356440E-08  -1.98408671E-16  -7.01489862E-16  -6.87528943E-16   2.70005342E-17  -3.08186392E-14   2.48689715E-14  -4.04679209E-12  -2.44241637E-14  -3.52854386E-09  -3.85413715E-14  -3.89724973E-15  -5.65827895E-10  -3.90435203E-15   1.73976374E-15
   9.62500000E+01   5.00000000E-01   5.00000000E-01  -1.31476209E-07  -4.77219939E-08  -1.25670770E-15  -9.88572541E-16  -9.60690853E-16   1.46678607E-08  -1.46612017E-16   6.73743771E-18   4.02215376E-14   6.94851124E-17   7.41807854E-08  -3.65330879E-17  -3.69574167E-18  -3.70224607E-17  -3.60896317E-17  -2.00185267E-10  -1.57889364E-10  -1.17046832E-07   3.79601634E-08   1.88847556E-07   0.00000000E+00  -7.26082127E-18   7.78089359E-19  -4.74941085E-18   4.34771746E-18  -3.40685444E-11  -4.57157080E-08  -4.67482571E-08   0.00000000E+00  -2.93356439E-08  -1.98397678E-16  -7.01489862E-16  -6.87528943E-16   2.83834748E-17  -3.08880286E-14   2.64088807E-14  -7.44099819E-12  -2.46601923E-14  -3.52854386E-09  -3.85413715E-14  -3.89806071E-15  -5.65816667E-10  -3.90435203E-15   1.73976374E-15
   1.13750000E+02   5.00000000E-01   5.00000000E-01  -1.31476209E-07  -4.76590001E-08  -1.25670769E-15  -9.83629379E-16  -9.57197006E-16   1.46678606E-08  -1.46620890E-16   6.64447046E-18   4.14127500E-14   7.16240260E-17   8.30714964E-08  -3.64841782E-17  -3.64583861E-18  -3.67952894E-17  -3.55917334E-17  -2.00177903E-10  -1.55504298E-10  -1.17046832E-07   4.91571947E-08   1.81782008E-07   0.00000000E+00  -6.97842435E-18   1.23925287E-18  -3.53085605E-18   8.29285272E-18  -3.40043282E-11  -4.57391095E-08  -4.67482571E-08   0.00000000E+00  -2.93356439E-08  -1.98387255E-16  -7.01489862E-16  -6.87528943E-16   2.90473298E-17  -3.09417980E-14   2.78005791E-14  -9.28759024E-12  -2.48774011E-14  -3.52854386E-09  -3.85413716E-14  -3.89877607E-15  -5.65803718E-10  -3.90435203E-15   1.73976374E-15
   1.31250000E+02   5.00000000E-01   5.00000000E-01  -1.31476208E-07  -4.75863219E-08  -1.25670759E-15  -9.80605472E-16  -9.55141580E-16   1.46678606E-08  -1.46630352E-16   6.59081101E-18   4.15364444E-14   7.39141797E-17   8.88506423E-08  -3.64369847E-17  -3.60214480E-18  -3.65765322E-17  -3.51355921E-17  -2.00167563E-10  -1.53152588E-10  -1.17046832E-07   5.64051724E-08   1.77204405E-07   0.00000000E+00  -6.73835628E-18   1.57999517E-18  -2.49602607E-18   1.14166612E-17  -3.39493811E-11  -4.57639548E-08  -4.67482571E-08   0.00000000E+00  -2.93356438E-08  -1.98378422E-16  -7.01489862E-16  -6.87528943E-16   2.92636437E-17  -3.09761762E-14   2.90390431E-14  -1.04257856E-11  -2.50775112E-14  -3.52854386E-09  -3.85413716E-14  -3.89940156E-15  -5.65789174E-10  -3.90435203E-15   1.73976374E-15
   1.48750000E+02   5.00000000E-01   5.00000000E-01  -1.31476208E-07  -4.75028303E-08  -1.25670743E-15  -9.78702548E-16  -9.53929766E-16   1.46678606E-08  -1.46640436E-16   6.61605342E-18   4.07820717E-14   7.66149386E-17   9.22041550E-08  -3.63953263E-17  -3.56801981E-18  -3.63838919E-17  -3.47577701E-17  -2.00154329E-10  -1.50794324E-10  -1.17046832E-07   6.04952687E-08   1.74605984E-07   0.00000000E+00  -6.54773937E-18   1.80187327E-18  -1.67551622E-18   1.36708484E-17  -3.39063217E-11  -4.57889716E-08  -4.67482571E-08   0.00000000E+00  -2.93356438E-08  -1.98371410E-16  -7.01489862E-16  -6.87528943E-16   2.92256314E-17  -3.09939321E-14   3.01206571E-14  -1.12273561E-11  -2.52620546E-14  -3.52854386E-09  -3.85413716E-14  -3.89994245E-15  -5.65773297E-10  -3.90435203E-15   1.73976374E-15
   1.66250000E+02   5.00000000E-01   5.00000000E-01  -1.31476208E-07  -4.74079039E-08  -1.25670722E-15  -9.77547710E-16  -9.53284393E-16   1.46678606E-08  -1.46651180E-16   6.72777683E-18   3.93774495E-14   7.98066026E-17   9.39023816E-08  -3.63600458E-17  -3.54328811E-18  -3.62211987E-17  -3.44616837E-17  -2.00138470E-10  -1.48411069E-10  -1.17046832E-07   6.23805980E-08   1.73383080E-07   0.00000000E+00  -6.39985148E-18   1.93004841E-18  -1.04013183E-18   1.52080622E-17  -3.38744522E-11  -4.58133279E-08  -4.67482571E-08   0.00000000E+00  -2.93356437E-08  -1.98366002E-16  -7.01489862E-16  -6.87528943E-16   2.90555572E-17  -3.09995725E-14   3.10432325E-14  -1.18628785E-11  -2.54323975E-14  -3.52854386E-09  -3.85413716E-14  -3.90040351E-15  -5.65756356E-10  -3.90435203E-15   1.73976374E-15
   1.83750000E+02   5.00000000E-01   5.00000000E-01  -1.31476208E-07  -4.73012355E-08  -1.25670698E-15  -9.76942872E-16  -9.53058936E-16   1.46678605E-08  -1.46662614E-16   6.92081855E-18   3.75307335E-14   8.34867348E-17   9.45622038E-08  -3.63303869E-17  -3.52621913E-18  -3.60848590E-17  -3.42347014E-17  -2.00120279E-10  -1.45996652E-10  -1.17046832E-07   6.28486771E-08   1.73040148E-07   0.00000000E+00  -6.28393640E-18   1.99268096E-18  -5.43288913E-19   1.62241360E-17  -3.38517142E-11  -4.58364872E-08  -4.67482571E-08   0.00000000E+00  -2.93356437E-08  -1.98361839E-16  -7.01489862E-16  -6.87528943E-16   2.88246960E-17  -3.09974871E-14   3.18059665E-14  -1.24131259E-11  -2.55897602E-14  -3.52854386E-09  -3.85413716E-14  -3.90078909E-15  -5.65738576E-10  -3.90435203E-15   1.73976374E-15
   2.01250000E+02   5.00000000E-01   5.00000000E-01  -1.31476207E-07  -4.71827262E-08  -1.25670671E-15  -9.76768170E-16  -9.53165190E-16   1.46678605E-08  -1.46674767E-16   7.18560846E-18   3.54100679E-14   8.76151646E-17   9.46104513E-08  -3.63050698E-17  -3.51481865E-18  -3.59688704E-17  -3.40601990E-17  -2.00100016E-10  -1.43551826E-10  -1.17046832E-07   6.24558249E-08   1.73228597E-07   0.00000000E+00  -6.19005555E-18   2.01262747E-18  -1.41973509E-19   1.68873901E-17  -3.38358656E-11  -4.58580970E-08  -4.67482571E-08   0.00000000E+00  -2.93356437E-08  -1.98358577E-16  -7.01489862E-16  -6.87528943E-16   2.85718003E-17  -3.09914144E-14   3.24093672E-14  -1.29174225E-11  -2.57352348E-14  -3.52854386E-09  -3.85413716E-14  -3.90110316E-15  -5.65720134E-10  -3.90435203E-15   1.73976374E-15
   2.18750000E+02   5.00000000E-01   5.00000000E-01  -1.31476207E-07  -4.70524205E-08  -1.25670642E-15  -9.76944077E-16  -9.53544939E-16   1.46678605E-08  -1.46687661E-16   7.51180528E-18   3.31445461E-14   9.21377767E-17   9.43190588E-08  -3.62828426E-17  -3.50738165E-18  -3.58673825E-17  -3.39231810E-17  -2.00077896E-10  -1.41081047E-10  -1.17046832E-07   6.15635591E-08   1.73722799E-07   0.00000000E+00  -6.11057190E-18   2.00605455E-18   1.96853903E-19   1.73215560E-17  -3.38249811E-11  -4.58779341E-08  -4.67482571E-08   0.00000000E+00  -2.93356436E-08  -1.98355940E-16  -7.01489862E-16  -6.87528943E-16   2.83163698E-17  -3.09843448E-14   3.28551576E-14  -1.33953588E-11  -2.58698001E-14  -3.52854386E-09  -3.85413716E-14  -3.90134934E-15  -5.65701162E-10  -3.90435203E-15   1.73976374E-15
   2.36250000E+02   5.00000000E-01   5.00000000E-01  -1.31476207E-07  -4.69104610E-08  -1.25670612E-15  -9.77414731E-16  -9.54157531E-16   1.46678605E-08  -1.46701319E-16   7.88985172E-18   3.08309789E-14   9.69996167E-17   9.38519742E-08  -3.62626825E-17  -3.50262618E-18  -3.57756273E-17  -3.38119824E-17  -2.00054093E-10  -1.38590452E-10  -1.17046832E-07   6.03950160E-08   1.74384133E-07   0.00000000E+00  -6.04013326E-18   1.98357732E-18   4.96339091E-19   1.76104531E-17  -3.38175786E-11  -4.58958783E-08  -4.67482571E-08   0.00000000E+00  -2.93356436E-08  -1.98353728E-16  -7.01489862E-16  -6.87528943E-16   2.80671299E-17  -3.09785669E-14   3.31461674E-14  -1.38568564E-11  -2.59943346E-14  -3.52854386E-09  -3.85413716E-14  -3.90153091E-15  -5.65681753E-10  -3.90435203E-15   1.73976374E-15
   2.53750000E+02   5.00000000E-01   5.00000000E-01  -1.31476206E-07  -4.67570505E-08  -1.25670580E-15  -9.78139142E-16  -9.54973326E-16   1.46678604E-08  -1.46715766E-16   8.31159046E-18   2.85404865E-14   1.02152008E-16   9.33034989E-08  -3.62438283E-17  -3.49965511E-18  -3.56900621E-17  -3.37182311E-17  -2.00028736E-10  -1.36086587E-10  -1.17046832E-07   5.90827595E-08   1.75130755E-07   0.00000000E+00  -5.97519857E-18   1.95184226E-18   7.71788042E-19   1.78080196E-17  -3.38125868E-11  -4.59118973E-08  -4.67482571E-08   0.00000000E+00  -2.93356435E-08  -1.98351798E-16  -7.01489862E-16  -6.87528943E-16   2.78271002E-17  -3.09757573E-14   3.32862153E-14  -1.43069729E-11  -2.61096280E-14  -3.52854386E-09  -3.85413716E-14  -3.90165087E-15  -5.65661975E-10  -3.90435203E-15   1.73976374E-15
   2.71250000E+02   5.00000000E-01   5.00000000E-01  -1.31476205E-07  -4.65924202E-08  -1.25670547E-15  -9.79086271E-16  -9.55970048E-16   1.46678604E-08  -1.46731027E-16   8.77044882E-18   2.63237262E-14   1.07556114E-16   9.27249798E-08  -3.62257481E-17  -3.49787072E-18  -3.56082171E-17  -3.36362443E-17  -2.00001918E-10  -1.33575606E-10  -1.17046832E-07   5.77027120E-08   1.75916231E-07   0.00000000E+00  -5.91353464E-18   1.91485618E-18   1.03284718E-18   1.79475683E-17  -3.38092657E-11  -4.59260316E-08  -4.67482571E-08   0.00000000E+00  -2.93356435E-08  -1.98350060E-16  -7.01489862E-16  -6.87528943E-16   2.75964915E-17  -3.09770780E-14   3.32799870E-14  -1.47482612E-11  -2.62163918E-14  -3.52854386E-09  -3.85413715E-14  -3.90171195E-15  -5.65641869E-10  -3.90435203E-15   1.73976374E-15
   2.88750000E+02   5.00000000E-01   5.00000000E-01  -1.31476205E-07  -4.64168010E-08  -1.25670512E-15  -9.80232611E-16  -9.57131013E-16   1.46678604E-08  -1.46747135E-16   9.26142414E-18   2.42150030E-14   1.13184342E-16   9.21420456E-08  -3.62080932E-17  -3.49689183E-18  -3.55284749E-17  -3.35623614E-17  -1.99973702E-10  -1.31062805E-10  -1.17046832E-07   5.62963986E-08   1.76715570E-07   0.00000000E+00  -5.85381141E-18   1.87493974E-18   1.28525647E-18   1.80487758E-17  -3.38071239E-11  -4.59383801E-08  -4.67482571E-08   0.00000000E+00  -2.93356434E-08  -1.98348452E-16  -7.01489862E-16  -6.87528943E-16   2.73742996E-17  -3.09832692E-14   3.31329127E-14  -1.51819581E-11  -2.63152672E-14  -3.52854386E-09  -3.85413715E-14  -3.90171663E-15  -5.65621458E-10  -3.90435203E-15   1.73976374E-15
   3.06250000E+02   5.00000000E-01   5.00000000E-01  -1.31476204E-07  -4.62304006E-08  -1.25670476E-15  -9.81561409E-16  -9.58444643E-16   1.46678604E-08  -1.46764126E-16   9.78097400E-18   2.22356500E-14   1.19020378E-16   9.15653270E-08  -3.61906537E-17  -3.49648743E-18  -3.54498648E-17  -3.34943781E-17  -1.99944120E-10  -1.28552388E-10  -1.17046832E-07   5.48849619E-08   1.77516446E-07   0.00000000E+00  -5.79530766E-18   1.83336601E-18   1.53212345E-18   1.81225436E-17  -3.38058497E-11  -4.59490838E-08  -4.67482571E-08   0.00000000E+00  -2.93356433E-08  -1.98346941E-16  -7.01489862E-16  -6.87528943E-16   2.71591432E-17  -3.09947344E-14   3.28510443E-14  -1.56085975E-11  -2.64068337E-14  -3.52854386E-09  -3.85413715E-14  -3.90166716E-15  -5.65600751E-10  -3.90435203E-15   1.73976374E-15
   3.23750000E+02   5.00000000E-01   5.00000000E-01  -1.31476203E-07  -4.60333861E-08  -1.25670439E-15  -9.83062803E-16  -9.59904673E-16   1.46678603E-08  -1.46782046E-16   1.03268535E-17   2.03969096E-14   1.25058307E-16   9.09970251E-08  -3.61733228E-17  -3.49652732E-18  -3.53718943E-17  -3.34311052E-17  -1.99913181E-10  -1.26047395E-10  -1.17046831E-07   5.34778310E-08   1.78313780E-07   0.00000000E+00  -5.73770481E-18   1.79077565E-18   1.77481638E-18   1.81742727E-17  -3.38052571E-11  -4.59583110E-08  -4.67482571E-08   0.00000000E+00  -2.93356433E-08  -1.98345505E-16  -7.01489862E-16  -6.87528943E-16   2.69496748E-17  -3.10116156E-14   3.24409382E-14  -1.60283347E-11  -2.64916154E-14  -3.52854386E-09  -3.85413715E-14  -3.90156556E-15  -5.65579744E-10  -3.90435203E-15   1.73976374E-15
   3.41250000E+02   5.00000000E-01   5.00000000E-01  -1.31476202E-07  -4.58258743E-08  -1.25670400E-15  -9.84734080E-16  -9.61510480E-16   1.46678603E-08  -1.46800946E-16   1.08979154E-17   1.87024163E-14   1.31301101E-16   9.04349383E-08  -3.61560672E-17  -3.49694616E-18  -3.52944113E-17  -3.33720343E-17  -1.99880873E-10  -1.23549785E-10  -1.17046831E-07   5.20780529E-08   1.79106414E-07   0.00000000E+00  -5.68094191E-18   1.74744454E-18   2.01359152E-18   1.82060584E-17  -3.38052441E-11  -4.59662426E-08  -4.67482571E-08   0.00000000E+00  -2.93356432E-08  -1.98344137E-16  -7.01489862E-16  -6.87528943E-16   2.67447542E-17  -3.10338607E-14   3.19095427E-14  -1.64411210E-11  -2.65700869E-14  -3.52854386E-09  -3.85413714E-14  -3.90141368E-15  -5.65558426E-10  -3.90435203E-15   1.73976374E-15
   3.58750000E+02   5.00000000E-01   5.00000000E-01  -1.31476201E-07  -4.56079319E-08  -1.25670360E-15  -9.86579566E-16  -9.63267098E-16   1.46678602E-08  -1.46820883E-16   1.14938804E-17   1.71503122E-14   1.37758671E-16   8.98749494E-08  -3.61389033E-17  -3.49771719E-18  -3.52174924E-17  -3.33170802E-17  -1.99847169E-10  -1.21060613E-10  -1.17046831E-07   5.06855699E-08   1.79895054E-07   0.00000000E+00  -5.62511132E-18   1.70345674E-18   2.24804454E-18   1.82181778E-17  -3.38057615E-11  -4.59730593E-08  -4.67482571E-08   0.00000000E+00  -2.93356431E-08  -1.98342836E-16  -7.01489862E-16  -6.87528943E-16   2.65434941E-17  -3.10612833E-14   3.12640931E-14  -1.68467991E-11  -2.66426788E-14  -3.52854386E-09  -3.85413714E-14  -3.90121318E-15  -5.65536777E-10  -3.90435203E-15   1.73976374E-15
   3.76250000E+02   5.00000000E-01   5.00000000E-01  -1.31476200E-07  -4.53795843E-08  -1.25670318E-15  -9.88609994E-16  -9.65184822E-16   1.46678602E-08  -1.46841924E-16   1.21150953E-17   1.57350075E-14   1.44445771E-16   8.93125287E-08  -3.61218768E-17  -3.49883333E-18  -3.51413483E-17  -3.32663829E-17  -1.99812028E-10  -1.18580291E-10  -1.17046831E-07   4.92992090E-08   1.80681035E-07   0.00000000E+00  -5.57038213E-18   1.65881535E-18   2.47744149E-18   1.82101000E-17  -3.38067885E-11  -4.59789322E-08  -4.67482571E-08   0.00000000E+00  -2.93356430E-08  -1.98341602E-16  -7.01489862E-16  -6.87528943E-16   2.63452412E-17  -3.10936137E-14   3.05120151E-14  -1.72451563E-11  -2.67097821E-14  -3.52854386E-09  -3.85413714E-14  -3.90096555E-15  -5.65514774E-10  -3.90435203E-15   1.73976374E-15
   3.93750000E+02   5.00000000E-01   5.00000000E-01  -1.31476199E-07  -4.51408309E-08  -1.25670275E-15  -9.90841557E-16  -9.67278512E-16   1.46678602E-08  -1.46864138E-16   1.27623059E-17   1.44485900E-14   1.51380069E-16   8.87435288E-08  -3.61050462E-17  -3.50029421E-18  -3.50662492E-17  -3.32201634E-17  -1.99775404E-10  -1.16108868E-10  -1.17046831E-07   4.79178139E-08   1.81465619E-07   0.00000000E+00  -5.51694591E-18   1.61350930E-18   2.70095299E-18   1.81811397E-17  -3.38083163E-11  -4.59840154E-08  -4.67482571E-08   0.00000000E+00  -2.93356429E-08  -1.98340440E-16  -7.01489862E-16  -6.87528943E-16   2.61495319E-17  -3.11305385E-14   2.96608376E-14  -1.76359544E-11  -2.67717520E-14  -3.52854386E-09  -3.85413713E-14  -3.90067212E-15  -5.65492390E-10  -3.90435203E-15   1.73976373E-15
   4.11250000E+02   5.00000000E-01   5.00000000E-01  -1.31476198E-07  -4.48916606E-08  -1.25670230E-15  -9.93294888E-16  -9.69566850E-16   1.46678601E-08  -1.46887601E-16   1.34364859E-17   1.32818988E-14   1.58580744E-16   8.81644172E-08  -3.60884724E-17  -3.50209861E-18  -3.49924737E-17  -3.31786337E-17  -1.99737245E-10  -1.13646249E-10  -1.17046831E-07   4.65407624E-08   1.82249700E-07   0.00000000E+00  -5.46498357E-18   1.56754674E-18   2.91779706E-18   1.81308130E-17  -3.38103370E-11  -4.59884437E-08  -4.67482571E-08   0.00000000E+00  -2.93356428E-08  -1.98339353E-16  -7.01489862E-16  -6.87528943E-16   2.59560452E-17  -3.11717283E-14   2.87181141E-14  -1.80189461E-11  -2.68289122E-14  -3.52854386E-09  -3.85413713E-14  -3.90033407E-15  -5.65469600E-10  -3.90435203E-15   1.73976373E-15
   4.28750000E+02   5.00000000E-01   5.00000000E-01  -1.31476196E-07  -4.46320620E-08  -1.25670183E-15  -9.95994197E-16  -9.72071684E-16   1.46678601E-08  -1.46912392E-16   1.41387478E-17   1.22252894E-14   1.66067803E-16   8.75721060E-08  -3.60722128E-17  -3.50424179E-18  -3.49202853E-17  -3.31419601E-17  -1.99697495E-10  -1.11192321E-10  -1.17046831E-07   4.51680544E-08   1.83033787E-07   0.00000000E+00  -5.41465224E-18   1.52096331E-18   3.12729573E-18   1.80589506E-17  -3.38128402E-11  -4.59923340E-08  -4.67482571E-08  -1.52477765E-32  -2.93356427E-08  -1.98338342E-16  -7.01489862E-16  -6.87528943E-16   2.57645665E-17  -3.12168517E-14   2.76913543E-14  -1.83938850E-11  -2.68815573E-14  -3.52854386E-09  -3.85413713E-14  -3.89995245E-15  -5.65446377E-10  -3.90435203E-15   1.73976373E-15
   4.46250000E+02   5.00000000E-01   5.00000000E-01  -1.31476195E-07  -4.43620246E-08  -1.25670135E-15  -9.98966635E-16  -9.74817551E-16   1.46678600E-08  -1.46938599E-16   1.48703368E-17   1.12691353E-14   1.73862035E-16   8.69635968E-08  -3.60563221E-17  -3.50671602E-18  -3.48499321E-17  -3.31102673E-17  -1.99656096E-10  -1.08746953E-10  -1.17046831E-07   4.38001493E-08   1.83818147E-07   0.00000000E+00  -5.36608751E-18   1.47381511E-18   3.32886543E-18   1.79656432E-17  -3.38158132E-11  -4.59957877E-08  -4.67482571E-08   0.00000000E+00  -2.93356426E-08  -1.98337410E-16  -7.01489862E-16  -6.87528943E-16   2.55749648E-17  -3.12655794E-14   2.65879646E-14  -1.87605308E-11  -2.69299560E-14  -3.52854386E-09  -3.85413712E-14  -3.89952818E-15  -5.65422694E-10  -3.90435203E-15   1.73976373E-15
   4.63750000E+02   5.00000000E-01   5.00000000E-01  -1.31476193E-07  -4.40815323E-08  -1.25670084E-15  -1.00224192E-15  -9.77831405E-16   1.46678599E-08  -1.46966311E-16   1.56326764E-17   1.04041302E-14   1.81985279E-16   8.63356803E-08  -3.60408543E-17  -3.50951257E-18  -3.47816600E-17  -3.30836613E-17  -1.99612985E-10  -1.06309936E-10  -1.17046830E-07   4.24377368E-08   1.84602962E-07   0.00000000E+00  -5.31941290E-18   1.42616692E-18   3.52197637E-18   1.78511255E-17  -3.38192432E-11  -4.59988944E-08  -4.67482571E-08  -1.00665400E-18  -2.93356425E-08  -1.98336558E-16  -7.01489862E-16  -6.87528943E-16   2.53871806E-17  -3.13175838E-14   2.54151974E-14  -1.91186526E-11  -2.69743535E-14  -3.52854386E-09  -3.85413712E-14  -3.89906208E-15  -5.65398525E-10  -3.90435203E-15   1.73976373E-15
   4.81250000E+02   5.00000000E-01   5.00000000E-01  -1.31476191E-07  -4.37905563E-08  -1.25670032E-15  -1.00585226E-15  -9.81142569E-16   1.46678599E-08  -1.46995626E-16   1.64274144E-17   9.62145536E-15   1.90460578E-16   8.56848539E-08  -3.60258658E-17  -3.51262310E-18  -3.47157236E-17  -3.30622479E-17  -1.99568096E-10  -1.03880910E-10  -1.17046830E-07   4.10815781E-08   1.85388431E-07   0.00000000E+00  -5.27474751E-18   1.37808412E-18   3.70611976E-18   1.77156893E-17  -3.38231191E-11  -4.60017331E-08  -4.67482571E-08  -5.94925087E-18  -2.93356424E-08  -1.98335789E-16  -7.01489862E-16  -6.87528943E-16   2.52012182E-17  -3.13725390E-14   2.41801090E-14  -1.94680302E-11  -2.70149737E-14  -3.52854386E-09  -3.85413711E-14  -3.89855481E-15  -5.65373841E-10  -3.90435203E-15   1.73976372E-15
   4.98750000E+02   5.00000000E-01   5.00000000E-01  -1.31476189E-07  -4.34890531E-08  -1.25669978E-15  -1.00983255E-15  -9.84782947E-16   1.46678598E-08  -1.47026648E-16   1.72564282E-17   8.91287144E-15   1.99311932E-16   8.50074870E-08  -3.60114148E-17  -3.51603947E-18  -3.46523852E-17  -3.30461303E-17  -1.99521353E-10  -1.01459367E-10  -1.17046830E-07   3.97324833E-08   1.86174748E-07   0.00000000E+00  -5.23220572E-18   1.32963227E-18   3.88080928E-18   1.75596798E-17  -3.38274313E-11  -4.60043717E-08  -4.67482571E-08  -1.27641571E-17  -2.93356423E-08  -1.98335104E-16  -7.01489862E-16  -6.87528943E-16   2.50171356E-17  -3.14301237E-14   2.28895255E-14  -1.98084552E-11  -2.70520212E-14  -3.52854386E-09  -3.85413711E-14  -3.89800696E-15  -5.65348612E-10  -3.90435203E-15   1.73976371E-15
   5.16250000E+02   5.00000000E-01   5.00000000E-01  -1.31476186E-07  -4.31769738E-08  -1.25669922E-15  -1.01422092E-15  -9.88787505E-16   1.46678598E-08  -1.47059487E-16   1.81217686E-17   8.27077083E-15   2.08563597E-16   8.43001397E-08  -3.59975575E-17  -3.51975206E-18  -3.45918969E-17  -3.30353847E-17  -1.99472679E-10  -9.90447309E-11  -1.17046830E-07   3.83914020E-08   1.86962006E-07   0.00000000E+00  -5.19188777E-18   1.28088340E-18   4.04562139E-18   1.73835739E-17  -3.38321686E-11  -4.60068644E-08  -4.67482571E-08  -2.20610732E-17  -2.93356421E-08  -1.98334504E-16  -7.01489862E-16  -6.87528943E-16   2.48350306E-17  -3.14900287E-14   2.15500163E-14  -2.01397307E-11  -2.70856831E-14  -3.52854386E-09  -3.85413710E-14  -3.89741903E-15  -5.65322810E-10  -3.90435203E-15   1.73976370E-15
   5.33750000E+02   5.00000000E-01   5.00000000E-01  -1.31476183E-07  -4.28542821E-08  -1.25669864E-15  -1.01905960E-15  -9.93195026E-16   1.46678597E-08  -1.47094264E-16   1.90255587E-17   7.68821121E-15   2.18239186E-16   8.35598681E-08  -3.59843424E-17  -3.52374735E-18  -3.45344744E-17  -3.30300249E-17  -1.99421992E-10  -9.66365185E-11  -1.17046829E-07   3.70595547E-08   1.87750079E-07   0.00000000E+00  -5.15386529E-18   1.23192458E-18   4.20025745E-18   1.71880927E-17  -3.38373155E-11  -4.60092488E-08  -4.67482571E-08  -3.46377755E-17  -2.93356420E-08  -1.98333992E-16  -7.01489862E-16  -6.87528943E-16   2.46550228E-17  -3.15519655E-14   2.01678741E-14  -2.04616709E-11  -2.71161304E-14  -3.52854386E-09  -3.85413710E-14  -3.89679138E-15  -5.65296403E-10  -3.90435203E-15   1.73976368E-15
   5.51250000E+02   5.00000000E-01   5.00000000E-01  -1.31476180E-07  -4.25209779E-08  -1.25669804E-15  -1.02439603E-15  -9.98049099E-16   1.46678596E-08  -1.47131107E-16   1.99698888E-17   7.15893222E-15   2.28360964E-16   8.27843586E-08  -3.59718046E-17  -3.52800624E-18  -3.44802709E-17  -3.30299722E-17  -1.99369208E-10  -9.42344975E-11  -1.17046829E-07   3.57385107E-08   1.88538565E-07   0.00000000E+00  -5.11816876E-18   1.18286314E-18   4.34459682E-18   1.69742824E-17  -3.38428491E-11  -4.60115455E-08  -4.67482571E-08  -5.15341600E-17  -2.93356418E-08  -1.98333565E-16  -7.01489862E-16  -6.87528943E-16   2.44772379E-17  -3.16156728E-14   1.87491018E-14  -2.07741006E-11  -2.71435196E-14  -3.52854386E-09  -3.85413709E-14  -3.89612433E-15  -5.65269363E-10  -3.90435203E-15   1.73976365E-15
   5.68750000E+02   5.00000000E-01   5.00000000E-01  -1.31476177E-07  -4.21771143E-08  -1.25669742E-15  -1.03028415E-15  -1.00339925E-15   1.46678595E-08  -1.47170155E-16   2.09567566E-17   6.67735097E-15   2.38949718E-16   8.19718134E-08  -3.59599632E-17  -3.53250403E-18  -3.44293668E-17  -3.30350497E-17  -1.99314248E-10  -9.18387826E-11  -1.17046829E-07   3.44301473E-08   1.89326822E-07   0.00000000E+00  -5.08478398E-18   1.13382465E-18   4.47871171E-18   1.67435102E-17  -3.38487389E-11  -4.60137591E-08  -4.67482571E-08  -7.40990163E-17  -2.93356417E-08  -1.98333222E-16  -7.01489862E-16  -6.87528943E-16   2.43017955E-17  -3.16809183E-14   1.72994031E-14  -2.10768549E-11  -2.71679938E-14  -3.52854386E-09  -3.85413708E-14  -3.89541808E-15  -5.65241665E-10  -3.90435203E-15   1.73976360E-15
   5.86250000E+02   5.00000000E-01   5.00000000E-01  -1.31476173E-07  -4.18228015E-08  -1.25669678E-15  -1.03678569E-15  -1.00930216E-15   1.46678594E-08  -1.47211559E-16   2.19880909E-17   6.23853184E-15   2.50025372E-16   8.11206262E-08  -3.59488238E-17  -3.53721239E-18  -3.43817804E-17  -3.30450055E-17  -1.99257029E-10  -8.94498118E-11  -1.17046829E-07   3.31364820E-08   1.90114106E-07   0.00000000E+00  -5.05366097E-18   1.08494323E-18   4.60282880E-18   1.64973564E-17  -3.38549495E-11  -4.60158832E-08  -4.67482571E-08  -1.04070310E-16  -2.93356415E-08  -1.98332959E-16  -7.01489862E-16  -6.87528943E-16   2.41288061E-17  -3.17474942E-14   1.58241792E-14  -2.13697790E-11  -2.71896838E-14  -3.52854386E-09  -3.85413708E-14  -3.89467276E-15  -5.65213284E-10  -3.90435203E-15   1.73976353E-15
   6.03750000E+02   5.00000000E-01   5.00000000E-01  -1.31476169E-07  -4.14581930E-08  -1.25669612E-15  -1.04397158E-15  -1.01582288E-15   1.46678593E-08  -1.47255481E-16   2.30658615E-17   5.83813186E-15   2.61608222E-16   8.02289867E-08  -3.59383854E-17  -3.54210273E-18  -3.43374988E-17  -3.30595598E-17  -1.99197469E-10  -8.70682011E-11  -1.17046828E-07   3.18594229E-08   1.90899762E-07   0.00000000E+00  -5.02473349E-18   1.03634692E-18   4.71724526E-18   1.62374320E-17  -3.38614445E-11  -4.60179057E-08  -4.67482571E-08  -1.43667677E-16  -2.93356413E-08  -1.98332773E-16  -7.01489862E-16  -6.87528943E-16   2.39583739E-17  -3.18152098E-14   1.43285282E-14  -2.16527282E-11  -2.72087094E-14  -3.52854386E-09  -3.85413707E-14  -3.89388843E-15  -5.65184195E-10  -3.90435203E-15   1.73976342E-15
   6.21250000E+02   5.00000000E-01   5.00000000E-01  -1.31476165E-07  -4.10834579E-08  -1.25669543E-15  -1.05192333E-15  -1.02303615E-15   1.46678592E-08  -1.47302100E-16   2.41922483E-17   5.47232910E-15   2.73720382E-16   7.92945848E-08  -3.59286490E-17  -3.54714980E-18  -3.42965183E-17  -3.30784599E-17  -1.99135479E-10  -8.46945232E-11  -1.17046828E-07   3.06005209E-08   1.91683395E-07   0.00000000E+00  -4.99794324E-18   9.88143313E-19   4.82222537E-18   1.59651815E-17  -3.38681921E-11  -4.60198147E-08  -4.67482571E-08  -1.95691483E-16  -2.93356411E-08  -1.98332661E-16  -7.01489862E-16  -6.87528943E-16   2.37906056E-17  -3.18838812E-14   1.28172474E-14  -2.19255691E-11  -2.72251801E-14  -3.52854386E-09  -3.85413706E-14  -3.89306506E-15  -5.65154375E-10  -3.90435203E-15   1.73976326E-15