 TITLE = "Mineral Rate (mol/m^3/sec)" 
VARIABLES = "X"          "Y"              "Z"            "Forsterite"     "Enstatite(alph" "Anorthite"      "Ferropargasite" "Anhydrite"      "Clinochlore"    "Albite(low)"    "Fayalite"       "Epidote"        "Kaolinite"      "Muscovite(orde" "Sudoite"        "Saponite(Mg)"   "Scolecite"      "Pyrite"         "Quartz(alpha)" 
 ZONE I=         100 , J=           1 , K=           1  F=POINT
   1.75000000E+01   5.00000000E-01   5.00000000E-01  -9.99967923E-09  -9.99210895E-10  -9.99793334E-10  -9.99918014E-10  -2.70437590E-05   2.02706347E-08  -6.23640409E-08  -9.99632310E-09   8.60057980E-17  -9.81166318E-10   1.45084233E-08   0.00000000E+00   1.34601211E-08  -9.64188975E-09   0.00000000E+00   2.42354400E-10
   5.25000000E+01   5.00000000E-01   5.00000000E-01  -9.99967924E-09  -9.99184200E-10  -9.99793331E-10  -9.99918014E-10  -7.17500338E-06   9.05249748E-09  -4.58332603E-08  -9.99576011E-09  -1.14468435E-18  -9.76570533E-10   1.63862157E-08   0.00000000E+00   1.41151106E-08  -9.63851769E-09   0.00000000E+00   3.13272811E-10
   8.75000000E+01   5.00000000E-01   5.00000000E-01  -9.99967923E-09  -9.99145951E-10  -9.99793329E-10  -9.99918014E-10  -1.01805745E-06   5.82730777E-09  -3.81309853E-08  -9.99494622E-09  -2.23934648E-18  -9.74534194E-10   1.56252278E-08   0.00000000E+00   1.71300895E-08  -9.63756782E-09   0.00000000E+00   3.46306797E-10
   1.22500000E+02   5.00000000E-01   5.00000000E-01  -9.99967923E-09  -9.99104079E-10  -9.99793328E-10  -9.99918014E-10   5.40443398E-07   4.54450405E-09  -3.41296300E-08  -9.99389692E-09  -2.60584442E-18  -9.72644795E-10   1.50010808E-08   0.00000000E+00   1.84004924E-08  -9.63708018E-09   0.00000000E+00   3.61131728E-10
   1.57500000E+02   5.00000000E-01   5.00000000E-01  -9.99967921E-09  -9.99059890E-10  -9.99793325E-10  -9.99918014E-10   9.21162631E-07   3.94355823E-09  -3.20373061E-08  -9.99263090E-09  -2.83279177E-18  -9.70598139E-10   1.46197673E-08   0.00000000E+00   1.91316018E-08  -9.63666193E-09   0.00000000E+00   3.66209076E-10
   1.92500000E+02   5.00000000E-01   5.00000000E-01  -9.99967920E-09  -9.99013754E-10  -9.99793322E-10  -9.99918014E-10   1.01990135E-06   3.64905811E-09  -3.10268479E-08  -9.99116748E-09  -3.05732327E-18  -9.68336699E-10   1.44173905E-08   0.00000000E+00   1.96618745E-08  -9.63623417E-09   0.00000000E+00   3.65718625E-10
   2.27500000E+02   5.00000000E-01   5.00000000E-01  -9.99967919E-09  -9.98965789E-10  -9.99793318E-10  -9.99918014E-10   1.05038961E-06   3.51543368E-09  -3.06700875E-08  -9.98952577E-09  -3.33244541E-18  -9.65851536E-10   1.43349315E-08   0.00000000E+00   2.01089384E-08  -9.63578806E-09   0.00000000E+00   3.61925696E-10
   2.62500000E+02   5.00000000E-01   5.00000000E-01  -9.99967917E-09  -9.98916026E-10  -9.99793314E-10  -9.99918014E-10   1.06246715E-06   3.47585669E-09  -3.07277892E-08  -9.98772437E-09  -3.67421646E-18  -9.63143036E-10   1.43317176E-08   0.00000000E+00   2.05211770E-08  -9.63532909E-09   0.00000000E+00   3.56133337E-10
   2.97500000E+02   5.00000000E-01   5.00000000E-01  -9.99967915E-09  -9.98864459E-10  -9.99793308E-10  -9.99918014E-10   1.06770783E-06   3.49597262E-09  -3.10588479E-08  -9.98578103E-09  -4.09102083E-18  -9.60211916E-10   1.43810746E-08   0.00000000E+00   2.09210671E-08  -9.63486428E-09   0.00000000E+00   3.49121560E-10
   3.32500000E+02   5.00000000E-01   5.00000000E-01  -9.99967912E-09  -9.98811063E-10  -9.99793302E-10  -9.99918014E-10   1.06891299E-06   3.55668759E-09  -3.15765554E-08  -9.98371242E-09  -4.58541646E-18  -9.57057364E-10   1.44655562E-08   0.00000000E+00   2.13198692E-08  -9.63439963E-09   0.00000000E+00   3.41370999E-10
   3.67500000E+02   5.00000000E-01   5.00000000E-01  -9.99967909E-09  -9.98755809E-10  -9.99793294E-10  -9.99918014E-10   1.06690854E-06   3.64678799E-09  -3.22257760E-08  -9.98153397E-09  -5.16166661E-18  -9.53676989E-10   1.45736116E-08   0.00000000E+00   2.17233159E-08  -9.63393985E-09   0.00000000E+00   3.33184839E-10
   4.02500000E+02   5.00000000E-01   5.00000000E-01  -9.99967906E-09  -9.98698661E-10  -9.99793285E-10  -9.99918014E-10   1.06208174E-06   3.75941459E-09  -3.29703014E-08  -9.97925980E-09  -5.82431875E-18  -9.50067191E-10   1.46974427E-08   0.00000000E+00   2.21340661E-08  -9.63348866E-09   0.00000000E+00   3.24758490E-10
   4.37500000E+02   5.00000000E-01   5.00000000E-01  -9.99967903E-09  -9.98639581E-10  -9.99793274E-10  -9.99918014E-10   1.05472039E-06   3.89022881E-09  -3.37855210E-08  -9.97690274E-09  -6.58090464E-18  -9.46223567E-10   1.48316530E-08   0.00000000E+00   2.25528647E-08  -9.63304897E-09   0.00000000E+00   3.16220742E-10
   4.72500000E+02   5.00000000E-01   5.00000000E-01  -9.99967899E-09  -9.98578528E-10  -9.99793262E-10  -9.99918014E-10   1.04508471E-06   4.03639109E-09  -3.46540282E-08  -9.97447451E-09  -7.43852970E-18  -9.42141234E-10   1.49723968E-08   0.00000000E+00   2.29791366E-08  -9.63262316E-09   0.00000000E+00   3.07658675E-10
   5.07500000E+02   5.00000000E-01   5.00000000E-01  -9.99967894E-09  -9.98515462E-10  -9.99793247E-10  -9.99918014E-10   1.03342111E-06   4.19595834E-09  -3.55629192E-08  -9.97198584E-09  -8.40898895E-18  -9.37815070E-10   1.51168435E-08   0.00000000E+00   2.34113175E-08  -9.63221317E-09   0.00000000E+00   2.99133005E-10
   5.42500000E+02   5.00000000E-01   5.00000000E-01  -9.99967889E-09  -9.98450339E-10  -9.99793230E-10  -9.99918014E-10   1.01996377E-06   4.36751025E-09  -3.65021013E-08  -9.96944671E-09  -9.50294052E-18  -9.33239878E-10   1.52628398E-08   0.00000000E+00   2.38470552E-08  -9.63182060E-09   0.00000000E+00   2.90687679E-10
   5.77500000E+02   5.00000000E-01   5.00000000E-01  -9.99967883E-09  -9.98383119E-10  -9.99793210E-10  -9.99918014E-10   1.00493410E-06   4.54990732E-09  -3.74632232E-08  -9.96686652E-09  -1.07348795E-17  -9.28410473E-10   1.54086993E-08   0.00000000E+00   2.42833477E-08  -9.63144681E-09   0.00000000E+00   2.82355905E-10
   6.12500000E+02   5.00000000E-01   5.00000000E-01  -9.99967877E-09  -9.98313758E-10  -9.99793187E-10  -9.99918014E-10   9.88540077E-07   4.74212771E-09  -3.84389969E-08  -9.96425440E-09  -1.21212904E-17  -9.23321702E-10   1.55530728E-08   0.00000000E+00   2.47166519E-08  -9.63109288E-09   0.00000000E+00   2.74163974E-10
   6.47500000E+02   5.00000000E-01   5.00000000E-01  -9.99967870E-09  -9.98242206E-10  -9.99793161E-10  -9.99918014E-10   9.70975771E-07   4.94247372E-09  -3.94249099E-08  -9.96161930E-09  -1.36947162E-17  -9.17976673E-10   1.56922539E-08   2.81912234E-12   2.51432524E-08  -9.63076153E-09   0.00000000E+00   2.66137008E-10
   6.82500000E+02   5.00000000E-01   5.00000000E-01  -9.99967862E-09  -9.98168392E-10  -9.99793130E-10  -9.99918014E-10   9.52421192E-07   5.14761599E-09  -4.04203433E-08  -9.95897036E-09  -1.55122845E-17  -9.12397706E-10   1.58175818E-08   1.67440882E-11   2.55600105E-08  -9.63045905E-09   0.00000000E+00   2.58304640E-10
   7.17500000E+02   5.00000000E-01   5.00000000E-01  -9.99967853E-09  -9.98092307E-10  -9.99793095E-10  -9.99918014E-10   9.33042486E-07   5.35792668E-09  -4.14102158E-08  -9.95631800E-09  -1.75330680E-17  -9.06554897E-10   1.59368860E-08   3.22910760E-11   2.59626619E-08  -9.63017982E-09   0.00000000E+00   2.50678823E-10
   7.52500000E+02   5.00000000E-01   5.00000000E-01  -9.99967843E-09  -9.98013909E-10  -9.99793055E-10  -9.99918014E-10   9.12991969E-07   5.57203410E-09  -4.23891029E-08  -9.95367207E-09  -1.98193102E-17  -9.00443788E-10   1.60497266E-08   4.95913779E-11   2.63456315E-08  -9.62992408E-09   0.00000000E+00   2.43272214E-10
   7.87500000E+02   5.00000000E-01   5.00000000E-01  -9.99967832E-09  -9.97933160E-10  -9.99793010E-10  -9.99918014E-10   8.92408696E-07   5.78833288E-09  -4.33516614E-08  -9.95104299E-09  -2.24110859E-17  -8.94059741E-10   1.61557588E-08   6.87754683E-11   2.67041284E-08  -9.62969187E-09   0.00000000E+00   2.36096802E-10
   8.22500000E+02   5.00000000E-01   5.00000000E-01  -9.99967819E-09  -9.97850020E-10  -9.99792958E-10  -9.99918014E-10   8.71418967E-07   6.00499750E-09  -4.42926153E-08  -9.94844185E-09  -2.53537985E-17  -8.87397515E-10   1.62548024E-08   8.99715276E-11   2.70334245E-08  -9.62948308E-09   0.00000000E+00   2.29163788E-10
   8.57500000E+02   5.00000000E-01   5.00000000E-01  -9.99967805E-09  -9.97764454E-10  -9.99792899E-10  -9.99918014E-10   8.50136927E-07   6.21999679E-09  -4.52068234E-08  -9.94588045E-09  -2.87023732E-17  -8.80451042E-10   1.63468459E-08   1.13303422E-10   2.73289515E-08  -9.62929735E-09   0.00000000E+00   2.22483437E-10
   8.92500000E+02   5.00000000E-01   5.00000000E-01  -9.99967790E-09  -9.97676427E-10  -9.99792832E-10  -9.99918014E-10   8.28665241E-07   6.43112124E-09  -4.60893541E-08  -9.94337132E-09  -3.25196929E-17  -8.73213219E-10   1.64320448E-08   1.38888707E-10   2.75864025E-08  -9.62913416E-09   0.00000000E+00   2.16064904E-10
   9.27500000E+02   5.00000000E-01   5.00000000E-01  -9.99967773E-09  -9.97585907E-10  -9.99792757E-10  -9.99918014E-10   8.07095785E-07   6.63602313E-09  -4.69355649E-08  -9.94092763E-09  -3.68794398E-17  -8.65675713E-10   1.65107121E-08   1.66836729E-10   2.78018325E-08  -9.62899282E-09   0.00000000E+00   2.09916051E-10
   9.62500000E+02   5.00000000E-01   5.00000000E-01  -9.99967755E-09  -9.97492861E-10  -9.99792672E-10  -9.99918014E-10   7.85510375E-07   6.83226881E-09  -4.77411815E-08  -9.93856306E-09  -4.18682313E-17  -8.57828836E-10   1.65833010E-08   1.97246916E-10   2.79717528E-08  -9.62887247E-09   0.00000000E+00   2.04043280E-10
   9.97500000E+02   5.00000000E-01   5.00000000E-01  -9.99967734E-09  -9.97397262E-10  -9.99792577E-10  -9.99918014E-10   7.63981477E-07   7.01740190E-09  -4.85023736E-08  -9.93629169E-09  -4.75854712E-17  -8.49661462E-10   1.66503808E-08   2.30207310E-10   2.80932195E-08  -9.62877218E-09   0.00000000E+00   1.98451372E-10
   1.03250000E+03   5.00000000E-01   5.00000000E-01  -9.99967712E-09  -9.97299080E-10  -9.99792471E-10  -9.99918014E-10   7.42572924E-07   7.18901497E-09  -4.92158269E-08  -9.93412776E-09  -5.41477596E-17  -8.41161042E-10   1.67126046E-08   2.65793406E-10   2.81639128E-08  -9.62869092E-09   0.00000000E+00   1.93143348E-10
   1.06750000E+03   5.00000000E-01   5.00000000E-01  -9.99967687E-09  -9.97198288E-10  -9.99792352E-10  -9.99918014E-10   7.21340607E-07   7.34482651E-09  -4.98788053E-08  -9.93208539E-09  -6.16903128E-17  -8.32313700E-10   1.67706732E-08   3.04067322E-10   2.81822053E-08  -9.62862764E-09   0.00000000E+00   1.88120361E-10
   1.10250000E+03   5.00000000E-01   5.00000000E-01  -9.99967660E-09  -9.97094860E-10  -9.99792220E-10  -9.99918014E-10   7.00333139E-07   7.48275961E-09  -5.04892058E-08  -9.93017836E-09  -7.03687395E-17  -8.23104430E-10   1.68252945E-08   3.45077341E-10   2.81472191E-08  -9.62858131E-09   0.00000000E+00   1.83381611E-10
   1.13750000E+03   5.00000000E-01   5.00000000E-01  -9.99967631E-09  -9.96988768E-10  -9.99792074E-10  -9.99918014E-10   6.79592495E-07   7.60101748E-09  -5.10455998E-08  -9.92841974E-09  -8.03639440E-17  -8.13517389E-10   1.68771432E-08   3.88857824E-10   2.80588668E-08  -9.62855095E-09   0.00000000E+00   1.78924305E-10
   1.17250000E+03   5.00000000E-01   5.00000000E-01  -9.99967599E-09  -9.96879987E-10  -9.99791912E-10  -9.99918014E-10   6.59154609E-07   7.69815166E-09  -5.15472634E-08  -9.92682159E-09  -9.18843274E-17  -8.03536273E-10   1.69268215E-08   4.35429527E-10   2.79178782E-08  -9.62853571E-09   0.00000000E+00   1.74743639E-10
   1.20750000E+03   5.00000000E-01   5.00000000E-01  -9.99967564E-09  -9.96768486E-10  -9.99791732E-10  -9.99918014E-10   6.39049944E-07   7.77311809E-09  -5.19941912E-08  -9.92539469E-09  -1.05169274E-16  -7.93144772E-10   1.69748260E-08   4.84800319E-10   2.77258066E-08  -9.62853482E-09   0.00000000E+00   1.70832831E-10
   1.24250000E+03   5.00000000E-01   5.00000000E-01  -9.99967526E-09  -9.96654237E-10  -9.99791535E-10  -9.99918014E-10   6.19304015E-07   7.82531733E-09  -5.23870962E-08  -9.92414826E-09  -1.20494259E-16  -7.82327055E-10   1.70215200E-08   5.36966319E-10   2.74850159E-08  -9.62854770E-09   0.00000000E+00   1.67183190E-10
   1.27750000E+03   5.00000000E-01   5.00000000E-01  -9.99967486E-09  -9.96537205E-10  -9.99791317E-10  -9.99918014E-10   5.99937884E-07   7.85461582E-09  -5.27273913E-08  -9.92308969E-09  -1.38174764E-16  -7.71068286E-10   1.70671167E-08   5.91913477E-10   2.71986438E-08  -9.62857393E-09   0.00000000E+00   1.63784227E-10
   1.31250000E+03   5.00000000E-01   5.00000000E-01  -9.99967442E-09  -9.96417354E-10  -9.99791079E-10  -9.99918014E-10   5.80968608E-07   7.86134657E-09  -5.30171554E-08  -9.92222444E-09  -1.58570964E-16  -7.59355114E-10   1.71116708E-08   6.49619567E-10   2.68705425E-08  -9.62861327E-09   0.00000000E+00   1.60623812E-10
   1.34750000E+03   5.00000000E-01   5.00000000E-01  -9.99967395E-09  -9.96294646E-10  -9.99790818E-10  -9.99918014E-10   5.62409659E-07   7.84628908E-09  -5.32590814E-08  -9.92155586E-09  -1.82094475E-16  -7.47176118E-10   1.71550820E-08   7.10056608E-10   2.65051946E-08  -9.62866562E-09   0.00000000E+00   1.57688364E-10
   1.38250000E+03   5.00000000E-01   5.00000000E-01  -9.99967345E-09  -9.96169037E-10  -9.99790533E-10  -9.99918014E-10   5.44271303E-07   7.81062973E-09  -5.34564094E-08  -9.92108522E-09  -2.09211982E-16  -7.34522171E-10   1.71971071E-08   7.73193615E-10   2.61076072E-08  -9.62873104E-09   0.00000000E+00   1.54963084E-10
   1.41750000E+03   5.00000000E-01   5.00000000E-01  -9.99967292E-09  -9.96040479E-10  -9.99790223E-10  -9.99918014E-10   5.26560955E-07   7.75590561E-09  -5.36128457E-08  -9.92081170E-09  -2.40455610E-16  -7.21386712E-10   1.72373810E-08   8.38999613E-10   2.56831866E-08  -9.62880970E-09   0.00000000E+00   1.52432216E-10
   1.45250000E+03   5.00000000E-01   5.00000000E-01  -9.99967235E-09  -9.95908922E-10  -9.99789886E-10  -9.99918014E-10   5.09283495E-07   7.68393577E-09  -5.37324703E-08  -9.92073254E-09  -2.76425697E-16  -7.07765900E-10   1.72754435E-08   9.07446761E-10   2.52375991E-08  -9.62890185E-09   0.00000000E+00   1.50079329E-10
   1.48750000E+03   5.00000000E-01   5.00000000E-01  -9.99967174E-09  -9.95774311E-10  -9.99789520E-10  -9.99918014E-10   4.92441566E-07   7.59674471E-09  -5.38196373E-08  -9.92084317E-09  -3.17803652E-16  -6.93658654E-10   1.73107698E-08   9.78513408E-10   2.47766238E-08  -9.62900781E-09   0.00000000E+00   1.47887616E-10
   1.52250000E+03   5.00000000E-01   5.00000000E-01  -9.99967111E-09  -9.95636587E-10  -9.99789124E-10  -9.99918014E-10   4.76035839E-07   7.49648311E-09  -5.38788717E-08  -9.92113741E-09  -3.65358497E-16  -6.79066584E-10   1.73428013E-08   1.05218691E-09   2.43060052E-08  -9.62912788E-09   0.00000000E+00   1.45840191E-10
   1.55750000E+03   5.00000000E-01   5.00000000E-01  -9.99967044E-09  -9.95495689E-10  -9.99788695E-10  -9.99918014E-10   4.60065260E-07   7.38535088E-09  -5.39147659E-08  -9.92160776E-09  -4.19959010E-16  -6.63993837E-10   1.73709755E-08   1.12846601E-09   2.38313135E-08  -9.62926235E-09   0.00000000E+00   1.43920374E-10
   1.59250000E+03   5.00000000E-01   5.00000000E-01  -9.99966974E-09  -9.95351551E-10  -9.99788234E-10  -9.99918014E-10   4.44527278E-07   7.26552660E-09  -5.39318821E-08  -9.92224555E-09  -4.82586450E-16  -6.48446864E-10   1.73947520E-08   1.20736263E-09   2.33578187E-08  -9.62941146E-09   0.00000000E+00   1.42111962E-10
   1.62750000E+03   5.00000000E-01   5.00000000E-01  -9.99966901E-09  -9.95204106E-10  -9.99787737E-10  -9.99918014E-10   4.29418049E-07   7.13910658E-09  -5.39346620E-08  -9.92304127E-09  -5.54347201E-16  -6.32434150E-10   1.74136331E-08   1.28890295E-09   2.28903866E-08  -9.62957537E-09   0.00000000E+00   1.40399464E-10
   1.66250000E+03   5.00000000E-01   5.00000000E-01  -9.99966825E-09  -9.95053287E-10  -9.99787204E-10  -9.99918014E-10   4.14732626E-07   7.00805577E-09  -5.39273491E-08  -9.92398477E-09  -6.36491178E-16  -6.15965916E-10   1.74271792E-08   1.37312773E-09   2.24333981E-08  -9.62975414E-09   0.00000000E+00   1.38768297E-10
   1.69750000E+03   5.00000000E-01   5.00000000E-01  -9.99966745E-09  -9.94899021E-10  -9.99786631E-10  -9.99918014E-10   4.00465133E-07   6.87417124E-09  -5.39139233E-08  -9.92506547E-09  -7.30430365E-16  -5.99053834E-10   1.74350178E-08   1.46009191E-09   2.19906964E-08  -9.62994774E-09   0.00000000E+00   1.37204949E-10
   1.73250000E+03   5.00000000E-01   5.00000000E-01  -9.99966661E-09  -9.94741238E-10  -9.99786019E-10  -9.99918014E-10   3.86608919E-07   6.73905816E-09  -5.38980521E-08  -9.92627252E-09  -8.37758648E-16  -5.81710761E-10   1.74368475E-08   1.54986346E-09   2.15655597E-08  -9.63015601E-09   0.00000000E+00   1.35697084E-10
   1.76750000E+03   5.00000000E-01   5.00000000E-01  -9.99966573E-09  -9.94579865E-10  -9.99785365E-10  -9.99918014E-10   3.73156707E-07   6.60411736E-09  -5.38830548E-08  -9.92759500E-09  -9.60279516E-16  -5.63950502E-10   1.74324366E-08   1.64252174E-09   2.11606995E-08  -9.63037869E-09   0.00000000E+00   1.34233613E-10
   1.80250000E+03   5.00000000E-01   5.00000000E-01  -9.99966480E-09  -9.94414828E-10  -9.99784667E-10  -9.99918014E-10   3.60100715E-07   6.47054278E-09  -5.38718825E-08  -9.92902201E-09  -1.10003265E-15  -5.45787632E-10   1.74216189E-08   1.73815528E-09   2.07782799E-08  -9.63061541E-09   0.00000000E+00   1.32804721E-10
   1.83750000E+03   5.00000000E-01   5.00000000E-01  -9.99966381E-09  -9.94246054E-10  -9.99783924E-10  -9.99918014E-10   3.47432775E-07   6.33932701E-09  -5.38671110E-08  -9.93054278E-09  -1.25932522E-15  -5.27237345E-10   1.74042866E-08   1.83685937E-09   2.04199539E-08  -9.63086570E-09   0.00000000E+00   1.31401854E-10
   1.87250000E+03   5.00000000E-01   5.00000000E-01  -9.99966275E-09  -9.94073469E-10  -9.99783133E-10  -9.99918014E-10   3.35144436E-07   6.21127288E-09  -5.38709445E-08  -9.93214673E-09  -1.44077045E-15  -5.08315367E-10   1.73803815E-08   1.93873346E-09   2.00869128E-08  -9.63112901E-09   0.00000000E+00   1.30017682E-10
   1.90750000E+03   5.00000000E-01   5.00000000E-01  -9.99966161E-09  -9.93896999E-10  -9.99782295E-10  -9.99918014E-10   3.23227052E-07   6.08700931E-09  -5.38852292E-08  -9.93382355E-09  -1.64732680E-15  -4.89037894E-10   1.73498862E-08   2.04387848E-09   1.97799435E-08  -9.63140472E-09   0.00000000E+00   1.28646030E-10
   1.94250000E+03   5.00000000E-01   5.00000000E-01  -9.99966039E-09  -9.93716568E-10  -9.99781406E-10  -9.99918014E-10   3.11671859E-07   5.96700969E-09  -5.39114739E-08  -9.93556321E-09  -1.88234444E-15  -4.69421573E-10   1.73128152E-08   2.15239429E-09   1.94994899E-08  -9.63169214E-09   0.00000000E+00   1.27281795E-10
   1.97750000E+03   5.00000000E-01   5.00000000E-01  -9.99965907E-09  -9.93532102E-10  -9.99780465E-10  -9.99918014E-10   3.00470047E-07   5.85161136E-09  -5.39508763E-08  -9.93735600E-09  -2.14961774E-15  -4.49483509E-10   1.72692064E-08   2.26437729E-09   1.92457152E-08  -9.63199052E-09   0.00000000E+00   1.25920851E-10
   2.01250000E+03   5.00000000E-01   5.00000000E-01  -9.99965765E-09  -9.93343526E-10  -9.99779472E-10  -9.99918014E-10   2.89612813E-07   5.74103521E-09  -5.40043518E-08  -9.93919254E-09  -2.45344265E-15  -4.29241288E-10   1.72191144E-08   2.37991820E-09   1.90185623E-08  -9.63229909E-09   0.00000000E+00   1.24559941E-10
   2.04750000E+03   5.00000000E-01   5.00000000E-01  -9.99965612E-09  -9.93150764E-10  -9.99778424E-10  -9.99918014E-10   2.79091409E-07   5.63540448E-09  -5.40725650E-08  -9.94106382E-09  -2.79868245E-15  -4.08713014E-10   1.71626039E-08   2.49910019E-09   1.88178105E-08  -9.63261703E-09   0.00000000E+00   1.23196576E-10
   2.08250000E+03   5.00000000E-01   5.00000000E-01  -9.99965445E-09  -9.92953741E-10  -9.99777320E-10  -9.99918014E-10   2.68897186E-07   5.53476235E-09  -5.41559615E-08  -9.94296119E-09  -3.19083853E-15  -3.87917362E-10   1.70997455E-08   2.62199720E-09   1.86431269E-08  -9.63294350E-09   0.00000000E+00   1.21828929E-10
   2.11750000E+03   5.00000000E-01   5.00000000E-01  -9.99965266E-09  -9.92752379E-10  -9.99776160E-10  -9.99918014E-10   2.59021622E-07   5.43908785E-09  -5.42547984E-08  -9.94487637E-09  -3.63613317E-15  -3.66873623E-10   1.70306118E-08   2.74867262E-09   1.84941119E-08  -9.63327768E-09   0.00000000E+00   1.20455732E-10
   2.15250000E+03   5.00000000E-01   5.00000000E-01  -9.99965071E-09  -9.92546601E-10  -9.99774942E-10  -9.99918014E-10   2.49456346E-07   5.34830999E-09  -5.43691745E-08  -9.94680149E-09  -4.14159636E-15  -3.45601819E-10   1.69552751E-08   2.87917817E-09   1.83703390E-08  -9.63361872E-09   0.00000000E+00   1.19076181E-10
   2.18750000E+03   5.00000000E-01   5.00000000E-01  -9.99964860E-09  -9.92336329E-10  -9.99773666E-10  -9.99918014E-10   2.40193162E-07   5.26232016E-09  -5.44990578E-08  -9.94872906E-09  -4.71516678E-15  -3.24122609E-10   1.68738052E-08   3.01355312E-09   1.82713888E-08  -9.63396576E-09   0.00000000E+00   1.17689853E-10
   2.22250000E+03   5.00000000E-01   5.00000000E-01  -9.99964632E-09  -9.92121484E-10  -9.99772330E-10  -9.99918014E-10   2.31224057E-07   5.18098267E-09  -5.46443114E-08  -9.95065202E-09  -5.36579818E-15  -3.02457391E-10   1.67862690E-08   3.15182369E-09   1.81968764E-08  -9.63431794E-09   0.00000000E+00   1.16296620E-10
   2.25750000E+03   5.00000000E-01   5.00000000E-01  -9.99964385E-09  -9.91901986E-10  -9.99770934E-10  -9.99918014E-10   2.22541213E-07   5.10414381E-09  -5.48047165E-08  -9.95256374E-09  -6.10358005E-15  -2.80628401E-10   1.66927302E-08   3.29400275E-09   1.81464750E-08  -9.63467441E-09   0.00000000E+00   1.14896585E-10
   2.29250000E+03   5.00000000E-01   5.00000000E-01  -9.99964118E-09  -9.91677752E-10  -9.99769478E-10  -9.99918014E-10   2.14137010E-07   5.03163923E-09  -5.49799935E-08  -9.95445800E-09  -6.93986592E-15  -2.58658720E-10   1.65932487E-08   3.44008962E-09   1.81199341E-08  -9.63503436E-09   0.00000000E+00   1.13490014E-10
   2.32750000E+03   5.00000000E-01   5.00000000E-01  -9.99963831E-09  -9.91448701E-10  -9.99767961E-10  -9.99918014E-10   2.06004028E-07   4.96330017E-09  -5.51698193E-08  -9.95632907E-09  -7.88741751E-15  -2.36572305E-10   1.64878819E-08   3.59007012E-09   1.81170929E-08  -9.63539697E-09   0.00000000E+00   1.12077288E-10
   2.36250000E+03   5.00000000E-01   5.00000000E-01  -9.99963522E-09  -9.91214748E-10  -9.99766384E-10  -9.99918014E-10   1.98135044E-07   4.89895838E-09  -5.53738434E-08  -9.95817165E-09  -8.96055421E-15  -2.14394026E-10   1.63766843E-08   3.74391674E-09   1.81378916E-08  -9.63576145E-09   0.00000000E+00   1.10658852E-10
   2.39750000E+03   5.00000000E-01   5.00000000E-01  -9.99963189E-09  -9.90975806E-10  -9.99764746E-10  -9.99918014E-10   1.90523029E-07   4.83845018E-09  -5.55917012E-08  -9.95998091E-09  -1.01753177E-14  -1.92149679E-10   1.62597084E-08   3.90158891E-09   1.81823784E-08  -9.63612704E-09   0.00000000E+00   1.09235177E-10
   2.43250000E+03   5.00000000E-01   5.00000000E-01  -9.99962833E-09  -9.90731790E-10  -9.99763048E-10  -9.99918014E-10   1.83161141E-07   4.78161955E-09  -5.58230254E-08  -9.96175249E-09  -1.15496458E-14  -1.69865999E-10   1.61370057E-08   4.06303340E-09   1.82507140E-08  -9.63649301E-09   0.00000000E+00   1.07806729E-10
   2.46750000E+03   5.00000000E-01   5.00000000E-01  -9.99962452E-09  -9.90482608E-10  -9.99761290E-10  -9.99918014E-10   1.76042714E-07   4.72832057E-09  -5.60674553E-08  -9.96348250E-09  -1.31035547E-14  -1.47570705E-10   1.60086269E-08   4.22818485E-09   1.83431740E-08  -9.63685862E-09   0.00000000E+00   1.06373943E-10
   2.50250000E+03   5.00000000E-01   5.00000000E-01  -9.99962047E-09  -9.90228171E-10  -9.99759472E-10  -9.99918014E-10   1.69161257E-07   4.67841926E-09  -5.63246444E-08  -9.96516751E-09  -1.48593308E-14  -1.25292506E-10   1.58746225E-08   4.39696627E-09   1.84601485E-08  -9.63722320E-09   0.00000000E+00   1.04937199E-10
   2.53750000E+03   5.00000000E-01   5.00000000E-01  -9.99961617E-09  -9.89968384E-10  -9.99757595E-10  -9.99918014E-10   1.62510436E-07   4.63179484E-09  -5.65942666E-08  -9.96680457E-09  -1.68417230E-14  -1.03061117E-10   1.57350436E-08   4.56928970E-09   1.86021403E-08  -9.63758609E-09   0.00000000E+00   1.03496808E-10
   2.57250000E+03   5.00000000E-01   5.00000000E-01  -9.99961161E-09  -9.89703151E-10  -9.99755661E-10  -9.99918014E-10   1.56084067E-07   4.58834072E-09  -5.68760202E-08  -9.96839116E-09  -1.90781443E-14  -8.09072762E-11   1.55899424E-08   4.74505680E-09   1.87697609E-08  -9.63794665E-09   0.00000000E+00   1.02052999E-10
   2.60750000E+03   5.00000000E-01   5.00000000E-01  -9.99960680E-09  -9.89432375E-10  -9.99753669E-10  -9.99918014E-10   1.49876107E-07   4.54796498E-09  -5.71696315E-08  -9.96992520E-09  -2.15988624E-14  -5.88627494E-11   1.54393725E-08   4.92415952E-09   1.89637246E-08  -9.63830429E-09   0.00000000E+00   1.00605911E-10
   2.64250000E+03   5.00000000E-01   5.00000000E-01  -9.99960174E-09  -9.89155955E-10  -9.99751620E-10  -9.99918014E-10   1.43880641E-07   4.51059073E-09  -5.74748565E-08  -9.97140506E-09  -2.44371885E-14  -3.69603357E-11   1.52833891E-08   5.10648074E-09   1.91848412E-08  -9.63865846E-09   0.00000000E+00   9.91555878E-11
   2.67750000E+03   5.00000000E-01   5.00000000E-01  -9.99959643E-09  -9.88873787E-10  -9.99749517E-10  -9.99918014E-10   1.38091872E-07   4.47615613E-09  -5.77914818E-08  -9.97282949E-09  -2.76296483E-14  -1.52338679E-11   1.51220501E-08   5.29189493E-09   1.94340063E-08  -9.63900861E-09   0.00000000E+00   9.77019738E-11
   2.71250000E+03   5.00000000E-01   5.00000000E-01  -9.99959085E-09  -9.88585766E-10  -9.99747359E-10  -9.99918014E-10   1.32504114E-07   4.44461430E-09  -5.81193241E-08  -9.97419764E-09  -3.12161318E-14   6.28208397E-12   1.49554159E-08   5.48026875E-09   1.97121899E-08  -9.63935426E-09   0.00000000E+00   9.62449171E-11
   2.74750000E+03   5.00000000E-01   5.00000000E-01  -9.99958445E-09  -9.88291781E-10  -9.99745149E-10  -9.99918014E-10   1.27111779E-07   4.41593308E-09  -5.84582293E-08  -9.97550903E-09  -3.52400037E-14   2.75509361E-11   1.47835505E-08   5.67146181E-09   2.00204226E-08  -9.63969494E-09   0.00000000E+00   9.47841705E-11
   2.78250000E+03   5.00000000E-01   5.00000000E-01  -9.99957758E-09  -9.87991722E-10  -9.99742886E-10  -9.99918014E-10   1.21909373E-07   4.39009460E-09  -5.88080702E-08  -9.97676350E-09  -3.97481772E-14   4.85346377E-11   1.46065219E-08   5.86532719E-09   2.03597810E-08  -9.64003022E-09   0.00000000E+00   9.33193965E-11
   2.81750000E+03   5.00000000E-01   5.00000000E-01  -9.99957023E-09  -9.87685473E-10  -9.99740573E-10  -9.99918014E-10   1.16891484E-07   4.36709474E-09  -5.91687440E-08  -9.97796122E-09  -4.47911352E-14   6.91955309E-11   1.44244023E-08   6.06171167E-09   2.07313693E-08  -9.64035970E-09   0.00000000E+00   9.18501740E-11
   2.85250000E+03   5.00000000E-01   5.00000000E-01  -9.99956234E-09  -9.87372915E-10  -9.99738210E-10  -9.99918014E-10   1.12052777E-07   4.34694251E-09  -5.95401684E-08  -9.97910263E-09  -5.04228589E-14   8.94951174E-11   1.42372688E-08   6.26045640E-09   2.11362992E-08  -9.64068303E-09   0.00000000E+00   9.03760069E-11
   2.88750000E+03   5.00000000E-01   5.00000000E-01  -9.99955386E-09  -9.87053926E-10  -9.99735798E-10  -9.99918014E-10   1.07387988E-07   4.32965947E-09  -5.99222769E-08  -9.98018843E-09  -5.67006840E-14   1.09394149E-10   1.40452050E-08   6.46139734E-09   2.15756673E-08  -9.64099989E-09   0.00000000E+00   8.88963340E-11
   2.92250000E+03   5.00000000E-01   5.00000000E-01  -9.99954477E-09  -9.86728380E-10  -9.99733339E-10  -9.99918014E-10   1.02891919E-07   4.31527890E-09  -6.03150138E-08  -9.98121957E-09  -6.36850420E-14   1.28852744E-10   1.38483013E-08   6.66436563E-09   2.20505298E-08  -9.64130998E-09   0.00000000E+00   8.74105410E-11
   2.95750000E+03   5.00000000E-01   5.00000000E-01  -9.99953499E-09  -9.86396149E-10  -9.99730833E-10  -9.99918014E-10   9.85594317E-08   4.30384502E-09  -6.07183283E-08  -9.98219716E-09  -7.14390827E-14   1.47830530E-10   1.36466567E-08   6.86918796E-09   2.25618753E-08  -9.64161304E-09   0.00000000E+00   8.59179733E-11
   2.99250000E+03   5.00000000E-01   5.00000000E-01  -9.99952449E-09  -9.86057098E-10  -9.99728280E-10  -9.99918014E-10   9.43854471E-08   4.29541209E-09  -6.11321677E-08  -9.98312253E-09  -8.00281461E-14   1.66286820E-10   1.34403794E-08   7.07568690E-09   2.31105945E-08  -9.64190885E-09   0.00000000E+00   8.44179510E-11
   3.02750000E+03   5.00000000E-01   5.00000000E-01  -9.99951320E-09  -9.85711092E-10  -9.99725682E-10  -9.99918014E-10   9.03649395E-08   4.29004339E-09  -6.15564711E-08  -9.98399714E-09  -8.95190818E-14   1.84180828E-10   1.32295890E-08   7.28368116E-09   2.36974484E-08  -9.64219721E-09   0.00000000E+00   8.29097847E-11
   3.06250000E+03   5.00000000E-01   5.00000000E-01  -9.99950108E-09  -9.85357990E-10  -9.99723037E-10  -9.99918014E-10   8.64929353E-08   4.28781020E-09  -6.19911614E-08  -9.98482258E-09  -9.99793837E-14   2.01471911E-10   1.30144175E-08   7.49298592E-09   2.43230343E-08  -9.64247795E-09   0.00000000E+00   8.13927923E-11
   3.09750000E+03   5.00000000E-01   5.00000000E-01  -9.99948805E-09  -9.84997649E-10  -9.99720347E-10  -9.99918014E-10   8.27645109E-08   4.28879066E-09  -6.24361379E-08  -9.98560054E-09  -1.11476141E-13   2.18119862E-10   1.27950109E-08   7.70341311E-09   2.49877504E-08  -9.64275094E-09   0.00000000E+00   7.98663175E-11
   3.13250000E+03   5.00000000E-01   5.00000000E-01  -9.99947406E-09  -9.84629920E-10  -9.99717611E-10  -9.99918014E-10   7.91747917E-08   4.29306850E-09  -6.28912680E-08  -9.98633281E-09  -1.24074793E-13   2.34085231E-10   1.25715313E-08   7.91477167E-09   2.56917593E-08  -9.64301607E-09   0.00000000E+00   7.83297484E-11
   3.16750000E+03   5.00000000E-01   5.00000000E-01  -9.99945904E-09  -9.84254653E-10  -9.99714828E-10  -9.99918014E-10   7.57189502E-08   4.30073169E-09  -6.33563796E-08  -9.98702120E-09  -1.37837686E-13   2.49329692E-10   1.23441581E-08   8.12686789E-09   2.64349517E-08  -9.64327324E-09   0.00000000E+00   7.67825378E-11