 TITLE = "Mineral Rate (mol/m^3/sec)" 
VARIABLES = "X"          "Y"              "Z"            "Forsterite"     "Enstatite(alph" "Anorthite"      "Tremolite"      "Pargasite"      "Anhydrite"      "Clinochlore"    "Albite(low)"    "Fayalite"       "Epidote"        "Kaolinite"      "Muscovite(orde" "Sudoite"        "Saponite(Mg)"   "Scolecite"      "FeS(am)"        "Quartz(alpha)"  "Montmorillonit"
 ZONE I=         100 , J=           1 , K=           1  F=POINT
   1.75000000E+01   5.00000000E-01   5.00000000E-01  -9.99874360E-09  -9.97585544E-10  -9.99917401E-10  -9.77711252E-08  -9.77676276E-08  -6.33743948E-06   1.79156457E-07  -7.12196878E-08  -9.98964580E-09  -1.42266284E-16  -9.43380905E-09   0.00000000E+00   0.00000000E+00   1.79112631E-07  -9.02904990E-09   0.00000000E+00   6.94318236E-08  -9.47564144E-09
   5.25000000E+01   5.00000000E-01   5.00000000E-01  -9.99874367E-09  -9.97531454E-10  -9.99917400E-10  -9.77700085E-08  -9.77676276E-08  -5.55489517E-06   1.47950411E-07  -2.25628870E-08  -9.98809615E-09   1.33675826E-16  -9.42830357E-09   0.00000000E+00   0.00000000E+00   2.10102712E-07  -9.02855595E-09   0.00000000E+00   9.43467420E-08  -7.56410934E-09
   8.75000000E+01   5.00000000E-01   5.00000000E-01  -9.99874365E-09  -9.97382446E-10  -9.99917400E-10  -9.77684577E-08  -9.77676276E-08  -4.65771408E-06   1.31289728E-07   1.78801681E-09  -9.98565595E-09   2.90835089E-17  -9.42509124E-09   0.00000000E+00   0.00000000E+00   2.29780430E-07  -9.02810609E-09   0.00000000E+00   1.02877579E-07  -6.19500439E-09
   1.22500000E+02   5.00000000E-01   5.00000000E-01  -9.99874361E-09  -9.97234369E-10  -9.99917400E-10  -9.77670746E-08  -9.77676276E-08  -3.71460911E-06   1.24466060E-07   1.12539523E-08  -9.98237652E-09   1.14916077E-17  -9.42318576E-09   0.00000000E+00   0.00000000E+00   2.38432678E-07  -9.02775068E-09   0.00000000E+00   1.04960439E-07  -5.45096022E-09
   1.57500000E+02   5.00000000E-01   5.00000000E-01  -9.99874356E-09  -9.97087800E-10  -9.99917400E-10  -9.77660248E-08  -9.77676276E-08  -2.79330327E-06   1.21816410E-07   1.45806573E-08  -9.97831210E-09   5.03746378E-18  -9.42174603E-09   0.00000000E+00   0.00000000E+00   2.42049068E-07  -9.02745793E-09   0.00000000E+00   1.04621947E-07  -5.00544344E-09
   1.92500000E+02   5.00000000E-01   5.00000000E-01  -9.99874350E-09  -9.96939064E-10  -9.99917399E-10  -9.77653085E-08  -9.77676276E-08  -1.94691413E-06   1.20826898E-07   1.54886756E-08  -9.97350283E-09   1.68427050E-18  -9.42045844E-09   0.00000000E+00   0.00000000E+00   2.43631757E-07  -9.02720785E-09   0.00000000E+00   1.03377365E-07  -4.68627668E-09
   2.27500000E+02   5.00000000E-01   5.00000000E-01  -9.99874343E-09  -9.96786197E-10  -9.99917399E-10  -9.77648814E-08  -9.77676276E-08  -1.20811687E-06   1.20501215E-07   1.54305353E-08  -9.96797767E-09  -4.43804993E-19  -9.41920210E-09   0.00000000E+00   0.00000000E+00   2.44407163E-07  -9.02698958E-09   0.00000000E+00   1.01796454E-07  -4.41945773E-09
   2.62500000E+02   5.00000000E-01   5.00000000E-01  -9.99874336E-09  -9.96628271E-10  -9.99917398E-10  -9.77646890E-08  -9.77676276E-08  -5.90075939E-07   1.20448879E-07   1.49710930E-08  -9.96175720E-09  -2.00330419E-18  -9.41792747E-09   0.00000000E+00   0.00000000E+00   2.44860874E-07  -9.02679669E-09   0.00000000E+00   1.00097556E-07  -4.17432745E-09
   2.97500000E+02   5.00000000E-01   5.00000000E-01  -9.99874327E-09  -9.96464816E-10  -9.99917398E-10  -9.77646772E-08  -9.77676276E-08  -9.11159289E-08   1.20515043E-07   1.43331328E-08  -9.95485646E-09  -3.27645466E-18  -9.41661325E-09   0.00000000E+00   0.00000000E+00   2.45186555E-07  -9.02662475E-09   0.00000000E+00   9.83665394E-08  -3.93822621E-09
   3.32500000E+02   5.00000000E-01   5.00000000E-01  -9.99874317E-09  -9.96295552E-10  -9.99917397E-10  -9.77647966E-08  -9.77676276E-08   2.97790877E-07   1.20637148E-07   1.36063630E-08  -9.94728747E-09  -4.39911219E-18  -9.41524987E-09   0.00000000E+00   0.00000000E+00   2.45462812E-07  -9.02647018E-09   0.00000000E+00   9.66382107E-08  -3.70593856E-09
   3.67500000E+02   5.00000000E-01   5.00000000E-01  -9.99874306E-09  -9.96120277E-10  -9.99917396E-10  -9.77650061E-08  -9.77676276E-08   5.91588890E-07   1.20789541E-07   1.28276404E-08  -9.93906057E-09  -5.44233103E-18  -9.41383292E-09   0.00000000E+00   0.00000000E+00   2.45722019E-07  -9.02632989E-09   0.00000000E+00   9.49270489E-08  -3.47540182E-09
   4.02500000E+02   5.00000000E-01   5.00000000E-01  -9.99874294E-09  -9.95938822E-10  -9.99917396E-10  -9.77652735E-08  -9.77676276E-08   8.09807648E-07   1.20961669E-07   1.20124376E-08  -9.93018376E-09  -6.45599130E-18  -9.41236047E-09   0.00000000E+00   0.00000000E+00   2.45977448E-07  -9.02620145E-09   0.00000000E+00   9.32391159E-08  -3.24594424E-09
   4.37500000E+02   5.00000000E-01   5.00000000E-01  -9.99874280E-09  -9.95751033E-10  -9.99917395E-10  -9.77655753E-08  -9.77676276E-08   9.68867950E-07   1.21149124E-07   1.11676995E-08  -9.92066292E-09  -7.46737782E-18  -9.41083184E-09   0.00000000E+00   0.00000000E+00   2.46234273E-07  -9.02608286E-09   0.00000000E+00   9.15769479E-08  -3.01750252E-09
   4.72500000E+02   5.00000000E-01   5.00000000E-01  -9.99874265E-09  -9.95556758E-10  -9.99917393E-10  -9.77658944E-08  -9.77676276E-08   1.08216483E-06   1.21349973E-07   1.02970730E-08  -9.91050181E-09  -8.49340153E-18  -9.40924699E-09   0.00000000E+00   0.00000000E+00   2.46494113E-07  -9.02597250E-09   0.00000000E+00   8.99415691E-08  -2.79027823E-09
   5.07500000E+02   5.00000000E-01   5.00000000E-01  -9.99874247E-09  -9.95355850E-10  -9.99917392E-10  -9.77662194E-08  -9.77676276E-08   1.16039975E-06   1.21563215E-07   9.40308130E-09  -9.89970207E-09  -9.54443635E-18  -9.40760625E-09   0.00000000E+00   0.00000000E+00   2.46756921E-07  -9.02586902E-09   0.00000000E+00   8.83333499E-08  -2.56457804E-09
   5.42500000E+02   5.00000000E-01   5.00000000E-01  -9.99874228E-09  -9.95148165E-10  -9.99917391E-10  -9.77665430E-08  -9.77676276E-08   1.21198603E-06   1.21788123E-07   8.48804100E-09  -9.88826332E-09  -1.06238929E-17  -9.40591010E-09   0.00000000E+00   0.00000000E+00   2.47021787E-07  -9.02577131E-09   0.00000000E+00   8.67523843E-08  -2.34073330E-09
   5.77500000E+02   5.00000000E-01   5.00000000E-01  -9.99874206E-09  -9.94933559E-10  -9.99917389E-10  -9.77668606E-08  -9.77676276E-08   1.24345434E-06   1.22023951E-07   7.55444812E-09  -9.87618330E-09  -1.17334764E-17  -9.40415911E-09   0.00000000E+00   0.00000000E+00   2.47287266E-07  -9.02567844E-09   0.00000000E+00   8.51986637E-08  -2.11905508E-09
   6.12500000E+02   5.00000000E-01   5.00000000E-01  -9.99874181E-09  -9.94711894E-10  -9.99917387E-10  -9.77671684E-08  -9.77676276E-08   1.25982218E-06   1.22269814E-07   6.60513194E-09  -9.86345803E-09  -1.28729027E-17  -9.40235379E-09   0.00000000E+00   0.00000000E+00   2.47551526E-07  -9.02558961E-09   0.00000000E+00   8.36721584E-08  -1.89980622E-09
   6.47500000E+02   5.00000000E-01   5.00000000E-01  -9.99874154E-09  -9.94483035E-10  -9.99917384E-10  -9.77674636E-08  -9.77676276E-08   1.26491255E-06   1.22524636E-07   5.64330293E-09  -9.85008220E-09  -1.40377665E-17  -9.40049450E-09   0.00000000E+00   0.00000000E+00   2.47812410E-07  -9.02550415E-09   0.00000000E+00   8.21728561E-08  -1.68318210E-09
   6.82500000E+02   5.00000000E-01   5.00000000E-01  -9.99874124E-09  -9.94246853E-10  -9.99917382E-10  -9.77677443E-08  -9.77676276E-08   1.26161888E-06   1.22787132E-07   4.67254873E-09  -9.83604953E-09  -1.52228097E-17  -9.39858137E-09   0.00000000E+00   0.00000000E+00   2.48067468E-07  -9.02542144E-09   0.00000000E+00   8.07007792E-08  -1.46929696E-09
   7.17500000E+02   5.00000000E-01   5.00000000E-01  -9.99874090E-09  -9.94003226E-10  -9.99917378E-10  -9.77680095E-08  -9.77676276E-08   1.25211987E-06   1.23055818E-07   3.69680195E-09  -9.82135327E-09  -1.64193636E-17  -9.39661421E-09   0.00000000E+00   0.00000000E+00   2.48313983E-07  -9.02534092E-09   0.00000000E+00   7.92559897E-08  -1.25817420E-09
   7.52500000E+02   5.00000000E-01   5.00000000E-01  -9.99874052E-09  -9.93752038E-10  -9.99917375E-10  -9.77682590E-08  -9.77676276E-08   1.23805001E-06   1.23329019E-07   2.72029036E-09  -9.80598670E-09  -1.76189729E-17  -9.39459245E-09   0.00000000E+00   0.00000000E+00   2.48549005E-07  -9.02526207E-09   0.00000000E+00   7.78385884E-08  -1.04974032E-09
   7.87500000E+02   5.00000000E-01   5.00000000E-01  -9.99874011E-09  -9.93493183E-10  -9.99917371E-10  -9.77684932E-08  -9.77676276E-08   1.22063289E-06   1.23604895E-07   1.74747419E-09  -9.78994373E-09  -1.88090609E-17  -9.39251504E-09   0.00000000E+00   0.00000000E+00   2.48769387E-07  -9.02518436E-09   0.00000000E+00   7.64487085E-08  -8.43822278E-10
   8.22500000E+02   5.00000000E-01   5.00000000E-01  -9.99873964E-09  -9.93226562E-10  -9.99917366E-10  -9.77687126E-08  -9.77676276E-08   1.20078407E-06   1.23881468E-07   7.82973268E-10  -9.77321949E-09  -1.99765537E-17  -9.39038044E-09   0.00000000E+00   0.00000000E+00   2.48971837E-07  -9.02510730E-09   0.00000000E+00   7.50865067E-08  -6.40148527E-10
   8.57500000E+02   5.00000000E-01   5.00000000E-01  -9.99873913E-09  -9.92952087E-10  -9.99917360E-10  -9.77689180E-08  -9.77676276E-08   1.17918936E-06   1.24156657E-07  -1.68515110E-10  -9.75581094E-09  -2.11063166E-17  -9.38818651E-09   0.00000000E+00   0.00000000E+00   2.49152981E-07  -9.02503036E-09   0.00000000E+00   7.37521518E-08  -4.38353536E-10
   8.92500000E+02   5.00000000E-01   5.00000000E-01  -9.99873856E-09  -9.92669677E-10  -9.99917354E-10  -9.77691102E-08  -9.77676276E-08   1.15636392E-06   1.24428291E-07  -1.10225389E-09  -9.73771736E-09  -2.21814388E-17  -9.38593061E-09   0.00000000E+00   0.00000000E+00   2.49309456E-07  -9.02495302E-09   0.00000000E+00   7.24458078E-08  -2.37991774E-10
   9.27500000E+02   5.00000000E-01   5.00000000E-01  -9.99873794E-09  -9.92379259E-10  -9.99917347E-10  -9.77692899E-08  -9.77676276E-08   1.13269635E-06   1.24694188E-07  -2.01362371E-09  -9.71894098E-09  -2.31844409E-17  -9.38360952E-09   0.00000000E+00   0.00000000E+00   2.49437969E-07  -9.02487476E-09   0.00000000E+00   7.11676227E-08  -3.85446351E-11
   9.62500000E+02   5.00000000E-01   5.00000000E-01  -9.99873724E-09  -9.92080770E-10  -9.99917338E-10  -9.77694581E-08  -9.77676276E-08   1.10848136E-06   1.24952205E-07  -2.89824192E-09  -9.69948748E-09  -2.40962804E-17  -9.38121944E-09   0.00000000E+00   0.00000000E+00   2.49535371E-07  -9.02479502E-09   0.00000000E+00   6.99177189E-08   1.60567850E-10
   9.97500000E+02   5.00000000E-01   5.00000000E-01  -9.99873648E-09  -9.91774152E-10  -9.99917329E-10  -9.77696154E-08  -9.77676276E-08   1.08394385E-06   1.25200260E-07  -3.75200179E-09  -9.67936632E-09  -2.48967067E-17  -9.37875612E-09   0.00000000E+00   0.00000000E+00   2.49598773E-07  -9.02471326E-09   0.00000000E+00   6.86961776E-08   3.59967246E-10
   1.03250000E+03   5.00000000E-01   5.00000000E-01  -9.99873564E-09  -9.91459350E-10  -9.99917318E-10  -9.77697625E-08  -9.77676276E-08   1.05925643E-06   1.25436371E-07  -4.57116358E-09  -9.65859112E-09  -2.55664642E-17  -9.37621489E-09   0.00000000E+00   0.00000000E+00   2.49625649E-07  -9.02462891E-09   0.00000000E+00   6.75030245E-08   5.60298402E-10
   1.06750000E+03   5.00000000E-01   5.00000000E-01  -9.99873472E-09  -9.91136312E-10  -9.99917305E-10  -9.77699000E-08  -9.77676276E-08   1.03455224E-06   1.25658705E-07  -5.35243324E-09  -9.63717978E-09  -2.60867236E-17  -9.37359077E-09   0.00000000E+00   0.00000000E+00   2.49613916E-07  -9.02454141E-09   0.00000000E+00   6.63382168E-08   7.62205233E-10
   1.10250000E+03   5.00000000E-01   5.00000000E-01  -9.99873371E-09  -9.90804985E-10  -9.99917291E-10  -9.77700286E-08  -9.77676276E-08   1.00993431E-06   1.25865618E-07  -6.09303095E-09  -9.61515458E-09  -2.64382289E-17  -9.37087866E-09   0.00000000E+00   0.00000000E+00   2.49562018E-07  -9.02445020E-09   0.00000000E+00   6.52016325E-08   9.66307948E-10
   1.13750000E+03   5.00000000E-01   5.00000000E-01  -9.99873260E-09  -9.90465315E-10  -9.99917274E-10  -9.77701486E-08  -9.77676276E-08   9.85482279E-07   1.26055685E-07  -6.79074615E-09  -9.59254209E-09  -2.66042116E-17  -9.36807341E-09   0.00000000E+00   0.00000000E+00   2.49468989E-07  -9.02435472E-09   0.00000000E+00   6.40930621E-08   1.17318022E-09
   1.17250000E+03   5.00000000E-01   5.00000000E-01  -9.99873138E-09  -9.90117237E-10  -9.99917255E-10  -9.77702606E-08  -9.77676276E-08   9.61257445E-07   1.26227736E-07  -7.44397675E-09  -9.56937302E-09  -2.65684711E-17  -9.36517006E-09   0.00000000E+00   0.00000000E+00   2.49334503E-07  -9.02425444E-09   0.00000000E+00   6.30122023E-08   1.38332724E-09
   1.20750000E+03   5.00000000E-01   5.00000000E-01  -9.99873006E-09  -9.89760682E-10  -9.99917234E-10  -9.77703649E-08  -9.77676276E-08   9.37306416E-07   1.26380877E-07  -8.05175103E-09  -9.54568188E-09  -2.63183598E-17  -9.36216398E-09   0.00000000E+00   0.00000000E+00   2.49158903E-07  -9.02414883E-09   0.00000000E+00   6.19586537E-08   1.59716549E-09
   1.24250000E+03   5.00000000E-01   5.00000000E-01  -9.99872860E-09  -9.89395565E-10  -9.99917209E-10  -9.77704618E-08  -9.77676276E-08   9.13663882E-07   1.26514504E-07  -8.61373100E-09  -9.52150657E-09  -2.58428644E-17  -9.35905104E-09   0.00000000E+00   0.00000000E+00   2.48943203E-07  -9.02403737E-09   0.00000000E+00   6.09319210E-08   1.81500517E-09
   1.27750000E+03   5.00000000E-01   5.00000000E-01  -9.99872702E-09  -9.89021787E-10  -9.99917180E-10  -9.77705518E-08  -9.77676276E-08   8.90354737E-07   1.26628311E-07  -9.13019693E-09  -9.49688787E-09  -2.51342398E-17  -9.35582779E-09   0.00000000E+00   0.00000000E+00   2.48689072E-07  -9.02391957E-09   0.00000000E+00   5.99314165E-08   2.03703583E-09
   1.31250000E+03   5.00000000E-01   5.00000000E-01  -9.99872529E-09  -9.88639234E-10  -9.99917148E-10  -9.77706348E-08  -9.77676276E-08   8.67395718E-07   1.26722293E-07  -9.60201353E-09  -9.47186888E-09  -2.41874412E-17  -9.35249164E-09   0.00000000E+00   0.00000000E+00   2.48398790E-07  -9.02379496E-09   0.00000000E+00   5.89564668E-08   2.26331611E-09
   1.34750000E+03   5.00000000E-01   5.00000000E-01  -9.99872341E-09  -9.88247772E-10  -9.99917110E-10  -9.77707111E-08  -9.77676276E-08   8.44796731E-07   1.26796730E-07  -1.00305794E-08  -9.44649435E-09  -2.30006212E-17  -9.34904099E-09   0.00000000E+00   0.00000000E+00   2.48075188E-07  -9.02366308E-09   0.00000000E+00   5.80063218E-08   2.49376769E-09
   1.38250000E+03   5.00000000E-01   5.00000000E-01  -9.99872137E-09  -9.87847247E-10  -9.99917067E-10  -9.77707808E-08  -9.77676276E-08   8.22561930E-07   1.26852173E-07  -1.04177617E-08  -9.42081005E-09  -2.15758403E-17  -9.34547533E-09   0.00000000E+00   0.00000000E+00   2.47721566E-07  -9.02352350E-09   0.00000000E+00   5.70801662E-08   2.72817392E-09
   1.41750000E+03   5.00000000E-01   5.00000000E-01  -9.99871915E-09  -9.87437487E-10  -9.99917018E-10  -9.77708440E-08  -9.77676276E-08   8.00690616E-07   1.26889419E-07  -1.07658183E-08  -9.39486209E-09  -1.99187120E-17  -9.34179534E-09   0.00000000E+00   0.00000000E+00   2.47341594E-07  -9.02337579E-09   0.00000000E+00   5.61771329E-08   2.96618307E-09
   1.45250000E+03   5.00000000E-01   5.00000000E-01  -9.99871673E-09  -9.87018296E-10  -9.99916961E-10  -9.77709008E-08  -9.77676276E-08   7.79178020E-07   1.26909481E-07  -1.10773124E-08  -9.36869624E-09  -1.80371232E-17  -9.33800293E-09   0.00000000E+00   0.00000000E+00   2.46939212E-07  -9.02321952E-09   0.00000000E+00   5.52963168E-08   3.20731592E-09
   1.48750000E+03   5.00000000E-01   5.00000000E-01  -9.99871411E-09  -9.86589464E-10  -9.99916896E-10  -9.77709512E-08  -9.77676276E-08   7.58015978E-07   1.26913545E-07  -1.13550214E-08  -9.34235726E-09  -1.59431532E-17  -9.33410128E-09   0.00000000E+00   0.00000000E+00   2.46518523E-07  -9.02305428E-09   0.00000000E+00   5.44367901E-08   3.45097728E-09
   1.52250000E+03   5.00000000E-01   5.00000000E-01  -9.99871127E-09  -9.86150759E-10  -9.99916822E-10  -9.77709953E-08  -9.77676276E-08   7.37193537E-07   1.26902937E-07  -1.16018453E-08  -9.31588821E-09  -1.36524340E-17  -9.33009480E-09   0.00000000E+00   0.00000000E+00   2.46083683E-07  -9.02287962E-09   0.00000000E+00   5.35976157E-08   3.69647076E-09
   1.55750000E+03   5.00000000E-01   5.00000000E-01  -9.99870818E-09  -9.85701933E-10  -9.99916737E-10  -9.77710333E-08  -9.77676276E-08   7.16697510E-07   1.26879077E-07  -1.18207174E-08  -9.28932983E-09  -1.11837952E-17  -9.32598910E-09   0.00000000E+00   0.00000000E+00   2.45638805E-07  -9.02269511E-09   0.00000000E+00   5.27778619E-08   3.94301603E-09
   1.59250000E+03   5.00000000E-01   5.00000000E-01  -9.99870484E-09  -9.85242725E-10  -9.99916640E-10  -9.77710650E-08  -9.77676276E-08   6.96512985E-07   1.26843438E-07  -1.20145204E-08  -9.26271981E-09  -8.55755834E-18  -9.32179089E-09   0.00000000E+00   0.00000000E+00   2.45187872E-07  -9.02250027E-09   0.00000000E+00   5.19766138E-08   4.18976767E-09
   1.62750000E+03   5.00000000E-01   5.00000000E-01  -9.99870122E-09  -9.84772861E-10  -9.99916529E-10  -9.77710902E-08  -9.77676276E-08   6.76623803E-07   1.26797503E-07  -1.21860122E-08  -9.23609212E-09  -5.79880585E-18  -9.31750790E-09   0.00000000E+00   0.00000000E+00   2.44734659E-07  -9.02229457E-09   0.00000000E+00   5.11929845E-08   4.43583470E-09
   1.66250000E+03   5.00000000E-01   5.00000000E-01  -9.99869731E-09  -9.84292055E-10  -9.99916401E-10  -9.77711090E-08  -9.77676276E-08   6.57013018E-07   1.26742729E-07  -1.23377612E-08  -9.20947627E-09  -2.93510708E-18  -9.31314876E-09   0.00000000E+00   0.00000000E+00   2.44282679E-07  -9.02207747E-09   0.00000000E+00   5.04261235E-08   4.68029982E-09
   1.69750000E+03   5.00000000E-01   5.00000000E-01  -9.99869308E-09  -9.83800013E-10  -9.99916255E-10  -9.77711212E-08  -9.77676276E-08   6.37663340E-07   1.26680511E-07  -1.24720933E-08  -9.18289647E-09   4.26325641E-21  -9.30872287E-09   0.00000000E+00   0.00000000E+00   2.43835136E-07  -9.02184833E-09   0.00000000E+00   4.96752234E-08   4.92223777E-09
   1.73250000E+03   5.00000000E-01   5.00000000E-01  -9.99868850E-09  -9.83296435E-10  -9.99916087E-10  -9.77711267E-08  -9.77676276E-08   6.18557561E-07   1.26612151E-07  -1.25910517E-08  -9.15637080E-09   2.98733482E-18  -9.30424031E-09   0.00000000E+00   0.00000000E+00   2.43394907E-07  -9.02160647E-09   0.00000000E+00   4.89395247E-08   5.16073199E-09
   1.76750000E+03   5.00000000E-01   5.00000000E-01  -9.99868355E-09  -9.82781014E-10  -9.99915896E-10  -9.77711255E-08  -9.77676276E-08   5.99678985E-07   1.26538836E-07  -1.26963679E-08  -9.12991025E-09   5.98106453E-18  -9.29971166E-09   0.00000000E+00   0.00000000E+00   2.42964524E-07  -9.02135113E-09   0.00000000E+00   4.82183184E-08   5.39488914E-09
   1.80250000E+03   5.00000000E-01   5.00000000E-01  -9.99867821E-09  -9.82253439E-10  -9.99915677E-10  -9.77711171E-08  -9.77676276E-08   5.81011839E-07   1.26461617E-07  -1.27894441E-08  -9.10351769E-09   8.95020946E-18  -9.29514796E-09   0.00000000E+00   0.00000000E+00   2.42546179E-07  -9.02108144E-09   0.00000000E+00   4.75109467E-08   5.62385129E-09
   1.83750000E+03   5.00000000E-01   5.00000000E-01  -9.99867245E-09  -9.81713397E-10  -9.99915426E-10  -9.77711011E-08  -9.77676276E-08   5.62541686E-07   1.26381394E-07  -1.28713452E-08  -9.07718667E-09   1.18590293E-17  -9.29056055E-09   0.00000000E+00   0.00000000E+00   2.42141739E-07  -9.02079645E-09   0.00000000E+00   4.68168028E-08   5.84680524E-09
   1.87250000E+03   5.00000000E-01   5.00000000E-01  -9.99866624E-09  -9.81160570E-10  -9.99915138E-10  -9.77710774E-08  -9.77676276E-08   5.44255823E-07   1.26298908E-07  -1.29427997E-08  -9.05090023E-09   1.46712154E-17  -9.28596101E-09   0.00000000E+00   0.00000000E+00   2.41752764E-07  -9.02049509E-09   0.00000000E+00   4.61353288E-08   6.06298939E-09
   1.90750000E+03   5.00000000E-01   5.00000000E-01  -9.99865954E-09  -9.80594639E-10  -9.99914809E-10  -9.77710454E-08  -9.77676276E-08   5.26143668E-07   1.26214738E-07  -1.30042066E-08  -9.02462946E-09   1.73521641E-17  -9.28136110E-09   0.00000000E+00   0.00000000E+00   2.41380543E-07  -9.02017620E-09   0.00000000E+00   4.54660126E-08   6.27169797E-09
   1.94250000E+03   5.00000000E-01   5.00000000E-01  -9.99865233E-09  -9.80015278E-10  -9.99914432E-10  -9.77710044E-08  -9.77676276E-08   5.08197120E-07   1.26129294E-07  -1.30556467E-08  -8.99833200E-09   1.98672012E-17  -9.27677273E-09   0.00000000E+00   0.00000000E+00   2.41026114E-07  -9.01983845E-09   0.00000000E+00   4.48083845E-08   6.47228304E-09
   1.97750000E+03   5.00000000E-01   5.00000000E-01  -9.99864458E-09  -9.79422162E-10  -9.99913999E-10  -9.77709538E-08  -9.77676276E-08   4.90410896E-07   1.26042824E-07  -1.30968980E-08  -8.97195036E-09   2.21847074E-17  -9.27220787E-09   0.00000000E+00   0.00000000E+00   2.40690310E-07  -9.01948041E-09   0.00000000E+00   4.41620130E-08   6.66415422E-09
   2.01250000E+03   5.00000000E-01   5.00000000E-01  -9.99863624E-09  -9.78814960E-10  -9.99913504E-10  -9.77708927E-08  -9.77676276E-08   4.72782817E-07   1.25955418E-07  -1.31274523E-08  -8.94541000E-09   2.42753373E-17  -9.26767863E-09   0.00000000E+00   0.00000000E+00   2.40373787E-07  -9.01910048E-09   0.00000000E+00   4.35265000E-08   6.84677667E-09
   2.04750000E+03   5.00000000E-01   5.00000000E-01  -9.99862729E-09  -9.78193335E-10  -9.99912936E-10  -9.77708200E-08  -9.77676276E-08   4.55314046E-07   1.25867009E-07  -1.31465311E-08  -8.91861728E-09   2.61137956E-17  -9.26319719E-09   0.00000000E+00   0.00000000E+00   2.40077064E-07  -9.01869691E-09   0.00000000E+00   4.29014764E-08   7.01966770E-09
   2.08250000E+03   5.00000000E-01   5.00000000E-01  -9.99861770E-09  -9.77556943E-10  -9.99912284E-10  -9.77707344E-08  -9.77676276E-08   4.38009255E-07   1.25777383E-07  -1.31531014E-08  -8.89145700E-09   2.76786949E-17  -9.25877586E-09   0.00000000E+00   0.00000000E+00   2.39800548E-07  -9.01826776E-09   0.00000000E+00   4.22865975E-08   7.18239197E-09
   2.11750000E+03   5.00000000E-01   5.00000000E-01  -9.99860742E-09  -9.76905434E-10  -9.99911537E-10  -9.77706342E-08  -9.77676276E-08   4.20876709E-07   1.25686183E-07  -1.31458890E-08  -8.86378969E-09   2.89536217E-17  -9.25442711E-09   0.00000000E+00   0.00000000E+00   2.39544575E-07  -9.01781093E-09   0.00000000E+00   4.16815380E-08   7.33455576E-09
   2.15250000E+03   5.00000000E-01   5.00000000E-01  -9.99859643E-09  -9.76238447E-10  -9.99910678E-10  -9.77705175E-08  -9.77676276E-08   4.03928249E-07   1.25592915E-07  -1.31233881E-08  -8.83544827E-09   2.99278824E-17  -9.25016364E-09   0.00000000E+00   0.00000000E+00   2.39309432E-07  -9.01732408E-09   0.00000000E+00   4.10859879E-08   7.47580056E-09
   2.18750000E+03   5.00000000E-01   5.00000000E-01  -9.99858469E-09  -9.75555610E-10  -9.99909692E-10  -9.77703820E-08  -9.77676276E-08   3.87179184E-07   1.25496951E-07  -1.30838680E-08  -8.80623427E-09   3.05958636E-17  -9.24599843E-09   0.00000000E+00   0.00000000E+00   2.39095391E-07  -9.01680466E-09   0.00000000E+00   4.04996482E-08   7.60579604E-09
   2.22250000E+03   5.00000000E-01   5.00000000E-01  -9.99857217E-09  -9.74856536E-10  -9.99908559E-10  -9.77702249E-08  -9.77676276E-08   3.70648054E-07   1.25397536E-07  -1.30253736E-08  -8.77591305E-09   3.09580983E-17  -9.24194482E-09   0.00000000E+00   0.00000000E+00   2.38902726E-07  -9.01624985E-09   0.00000000E+00   3.99222267E-08   7.72423269E-09
   2.25750000E+03   5.00000000E-01   5.00000000E-01  -9.99855883E-09  -9.74140824E-10  -9.99907256E-10  -9.77700428E-08  -9.77676276E-08   3.54356285E-07   1.25293782E-07  -1.29457217E-08  -8.74420813E-09   3.10205550E-17  -9.23801659E-09   0.00000000E+00   0.00000000E+00   2.38731746E-07  -9.01565654E-09   0.00000000E+00   3.93534343E-08   7.83081410E-09
   2.29250000E+03   5.00000000E-01   5.00000000E-01  -9.99854463E-09  -9.73408052E-10  -9.99905756E-10  -9.77698318E-08  -9.77676276E-08   3.38327736E-07   1.25184669E-07  -1.28424902E-08  -8.71079399E-09   3.07948511E-17  -9.23422810E-09   0.00000000E+00   0.00000000E+00   2.38582811E-07  -9.01502130E-09   0.00000000E+00   3.87929812E-08   7.92524901E-09
   2.32750000E+03   5.00000000E-01   5.00000000E-01  -9.99852953E-09  -9.72657777E-10  -9.99904029E-10  -9.77695870E-08  -9.77676276E-08   3.22588145E-07   1.25069039E-07  -1.27130004E-08  -8.67528717E-09   3.02974001E-17  -9.23059439E-09   0.00000000E+00   0.00000000E+00   2.38456355E-07  -9.01434030E-09   0.00000000E+00   3.82405735E-08   8.00724307E-09
   2.36250000E+03   5.00000000E-01   5.00000000E-01  -9.99851347E-09  -9.71889531E-10  -9.99902038E-10  -9.77693028E-08  -9.77676276E-08   3.07164489E-07   1.24945587E-07  -1.25542908E-08  -8.63723484E-09   2.95490565E-17  -9.22713128E-09   0.00000000E+00   0.00000000E+00   2.38352910E-07  -9.01360928E-09   0.00000000E+00   3.76959095E-08   8.07649045E-09
   2.39750000E+03   5.00000000E-01   5.00000000E-01  -9.99849641E-09  -9.71102815E-10  -9.99899742E-10  -9.77689723E-08  -9.77676276E-08   2.92084293E-07   1.24812844E-07  -1.23630809E-08  -8.59610026E-09   2.85736945E-17  -9.22385559E-09   0.00000000E+00   0.00000000E+00   2.38273125E-07  -9.01282346E-09   0.00000000E+00   3.71586762E-08   8.13266500E-09
   2.43250000E+03   5.00000000E-01   5.00000000E-01  -9.99847826E-09  -9.70297097E-10  -9.99897091E-10  -9.77685872E-08  -9.77676276E-08   2.77374903E-07   1.24669159E-07  -1.21357234E-08  -8.55124392E-09   2.73997358E-17  -9.22078524E-09   0.00000000E+00   0.00000000E+00   2.38217794E-07  -9.01197745E-09   0.00000000E+00   3.66285458E-08   8.17541098E-09
   2.46750000E+03   5.00000000E-01   5.00000000E-01  -9.99845893E-09  -9.69471803E-10  -9.99894027E-10  -9.77681374E-08  -9.77676276E-08   2.63062772E-07   1.24512673E-07  -1.18681416E-08  -8.50189891E-09   2.60553890E-17  -9.21793948E-09   0.00000000E+00   0.00000000E+00   2.38187874E-07  -9.01106509E-09   0.00000000E+00   3.61051714E-08   8.20433322E-09
   2.50250000E+03   5.00000000E-01   5.00000000E-01  -9.99843833E-09  -9.68626314E-10  -9.99890482E-10  -9.77676105E-08  -9.77676276E-08   2.49172765E-07   1.24341280E-07  -1.15557501E-08  -8.44713847E-09   2.45714560E-17  -9.21533911E-09   0.00000000E+00   0.00000000E+00   2.38184521E-07  -9.01007935E-09   0.00000000E+00   3.55881833E-08   8.21898635E-09
   2.53750000E+03   5.00000000E-01   5.00000000E-01  -9.99841631E-09  -9.67759954E-10  -9.99886374E-10  -9.77669911E-08  -9.77676276E-08   2.35727544E-07   1.24152581E-07  -1.11933511E-08  -8.38583269E-09   2.29779928E-17  -9.21300673E-09   0.00000000E+00   0.00000000E+00   2.38209116E-07  -9.00901209E-09   0.00000000E+00   3.50771833E-08   8.21886304E-09
   2.57250000E+03   5.00000000E-01   5.00000000E-01  -9.99839272E-09  -9.66871984E-10  -9.99881607E-10  -9.77662597E-08  -9.77676276E-08   2.22747034E-07   1.23943824E-07  -1.07750033E-08  -8.31659021E-09   2.13059792E-17  -9.21096701E-09   0.00000000E+00   0.00000000E+00   2.38263305E-07  -9.00785383E-09   0.00000000E+00   3.45717399E-08   8.20338069E-09
   2.60750000E+03   5.00000000E-01   5.00000000E-01  -9.99836740E-09  -9.65961589E-10  -9.99876065E-10  -9.77653909E-08  -9.77676276E-08   2.10248002E-07   1.23711825E-07  -1.02938515E-08  -8.23767851E-09   1.95839078E-17  -9.20924708E-09   0.00000000E+00   0.00000000E+00   2.38349037E-07  -9.00659341E-09   0.00000000E+00   3.40713809E-08   8.17186640E-09
   2.64250000E+03   5.00000000E-01   5.00000000E-01  -9.99834013E-09  -9.65027861E-10  -9.99869608E-10  -9.77643515E-08  -9.77676276E-08   1.98243760E-07   1.23452860E-07  -9.74190545E-09  -8.14691375E-09   1.78390280E-17  -9.20787691E-09   0.00000000E+00   0.00000000E+00   2.38468618E-07  -9.00521751E-09   0.00000000E+00   3.35755856E-08   8.12353943E-09
   2.67750000E+03   5.00000000E-01   5.00000000E-01  -9.99831070E-09  -9.64069786E-10  -9.99862068E-10  -9.77630975E-08  -9.77676276E-08   1.86743996E-07   1.23162532E-07  -9.10974931E-09  -8.04150570E-09   1.60968483E-17  -9.20688977E-09   0.00000000E+00   0.00000000E+00   2.38624762E-07  -9.00371015E-09   0.00000000E+00   3.30837744E-08   8.05749086E-09
   2.71250000E+03   5.00000000E-01   5.00000000E-01  -9.99827887E-09  -9.63086220E-10  -9.99853238E-10  -9.77615692E-08  -9.77676276E-08   1.75754727E-07   1.22835584E-07  -8.38615490E-09  -7.91783619E-09   1.43804968E-17  -9.20632286E-09   0.00000000E+00   0.00000000E+00   2.38820652E-07  -9.00205182E-09   0.00000000E+00   3.25952965E-08   7.97265938E-09
   2.74750000E+03   5.00000000E-01   5.00000000E-01  -9.99824440E-09  -9.62075861E-10  -9.99842860E-10  -9.77596855E-08  -9.77676276E-08   1.65278368E-07   1.22465649E-07  -7.55755937E-09  -7.77113610E-09   1.27098687E-17  -9.20621794E-09   0.00000000E+00   0.00000000E+00   2.39060011E-07  -9.00021848E-09   0.00000000E+00   3.21094135E-08   7.86780274E-09
   2.78250000E+03   5.00000000E-01   5.00000000E-01  -9.99820695E-09  -9.61037217E-10  -9.99830615E-10  -9.77573332E-08  -9.77676276E-08   1.55313907E-07   1.22044911E-07  -6.60734716E-09  -7.59500455E-09   1.11033316E-17  -9.20662216E-09   0.00000000E+00   0.00000000E+00   2.39347157E-07  -8.99817998E-09   0.00000000E+00   3.16252786E-08   7.74146394E-09
   2.81750000E+03   5.00000000E-01   5.00000000E-01  -9.99816625E-09  -9.59968568E-10  -9.99816095E-10  -9.77543518E-08  -9.77676276E-08   1.45857160E-07   1.21563626E-07  -5.51484391E-09  -7.38067599E-09   9.57587787E-18  -9.20758904E-09   0.00000000E+00   0.00000000E+00   2.39687045E-07  -8.99589798E-09   0.00000000E+00   3.11419096E-08   7.59193147E-09
   2.85250000E+03   5.00000000E-01   5.00000000E-01  -9.99812193E-09  -9.58867913E-10  -9.99798775E-10  -9.77505078E-08  -9.77676276E-08   1.36901092E-07   1.21009438E-07  -4.25387487E-09  -7.11587294E-09   8.14068812E-18  -9.20917959E-09   0.00000000E+00   0.00000000E+00   2.40085243E-07  -8.99332281E-09   0.00000000E+00   3.06581524E-08   7.41719402E-09