 TITLE = "Mineral Rate (mol/m^3/sec)" 
VARIABLES = "X"          "Y"              "Z"            "Forsterite"     "Fayalite"       "Brucite"        "Lizardite"      "Chrysotile"     "Hematite"       "Magnetite(am)"  "Saponite(Ca)"   "Saponite(K)"    "Saponite(Mg)"   "Saponite(Na)"   "Beidellite(Ca)" "Beidellite(K)"  "Beidellite(Mg)" "Beidellite(Na)" "Enstatite(alph" "Ferrosilite(al" "Anorthite"      "Albite(low)"    "Clinochlore"    "Sudoite"        "Montmor(MgCa)"  "Montmor(MgK)"   "Montmor(MgMg)"  "Montmor(MgNa)"  "Kaolinite"      "Tremolite"      "Pargasite"      "Anhydrite"      "Epidote"        "Scolecite"      "Pyrite"         "FeS(am)"        "Quartz(alpha)"  "Titanite"       "Rutile"         "Barite"         "Fluorite"       "Spessartine(al" "Andradite"      "Celestite"      "Zincite"        "Chalcocyanite"  "Chalcocite(alp"
 ZONE I=         200 , J=           1 , K=           1  F=POINT
   8.75000000E+00   5.00000000E-01   5.00000000E-01  -1.31112360E-07  -4.78742037E-08  -1.23402249E-15  -1.06713533E-15  -9.93124587E-16   1.43034999E-08  -7.80394749E-17   1.27076535E-17   2.31252270E-14   8.77203935E-17   2.77039136E-08  -3.65371559E-17  -3.81082165E-18  -3.73876871E-17  -3.70801618E-17  -1.99994095E-10  -1.71038963E-10  -1.15959841E-07  -2.88534095E-08   2.27341726E-07   0.00000000E+00  -8.06724278E-18  -8.28492969E-19  -8.25024457E-18  -8.17878243E-18  -3.42565415E-11  -4.51814944E-08  -4.62752366E-08   0.00000000E+00  -2.86069223E-08  -1.94421482E-16  -6.94999665E-16  -6.82863049E-16   9.90683099E-18  -2.81523566E-14   1.74054761E-14   1.46643219E-10  -2.32512919E-14  -3.43877421E-09  -3.85412663E-14  -3.89292653E-15  -5.65581268E-10  -3.90435171E-15   1.82922420E-13
   2.62500000E+01   5.00000000E-01   5.00000000E-01  -1.31112368E-07  -4.78623237E-08  -1.23403258E-15  -1.00250916E-15  -9.47104885E-16   1.43034998E-08  -7.80468541E-17   4.37682336E-18   2.20451516E-14   4.48194973E-17   4.12421031E-08  -3.65360967E-17  -3.80933428E-18  -3.73827283E-17  -3.70673331E-17  -2.00196889E-10  -1.69210792E-10  -1.15959841E-07  -2.28203896E-08   2.22057884E-07   0.00000000E+00  -8.04800684E-18  -7.82386715E-19  -8.16688098E-18  -7.84903759E-18  -3.42487671E-11  -4.52032473E-08  -4.62752366E-08   0.00000000E+00  -2.86069223E-08  -1.94420010E-16  -6.94999665E-16  -6.82863049E-16   1.55037914E-17  -3.05981129E-14   1.94641005E-14   5.41850455E-11  -2.35862736E-14  -3.43877421E-09  -3.85412694E-14  -3.89417673E-15  -5.65611913E-10  -3.90435171E-15   1.72536255E-15
   4.37500000E+01   5.00000000E-01   5.00000000E-01  -1.31112369E-07  -4.78344586E-08  -1.23403444E-15  -9.45672790E-16  -9.05916631E-16   1.43034997E-08  -7.80516858E-17   3.99155407E-18   2.50978065E-14   4.46788737E-17   4.20174279E-08  -3.65277107E-17  -3.79813695E-18  -3.73435235E-17  -3.69685943E-17  -2.00225756E-10  -1.66753274E-10  -1.15959841E-07  -9.54243152E-09   2.15290945E-07   0.00000000E+00  -7.95502492E-18  -5.72005930E-19  -7.76427209E-18  -6.30500003E-18  -3.42169584E-11  -4.52180599E-08  -4.62752366E-08   0.00000000E+00  -2.86069223E-08  -1.94414755E-16  -6.94999665E-16  -6.82863049E-16   2.02488240E-17  -3.10154405E-14   2.14136131E-14   1.80568754E-11  -2.38930259E-14  -3.43877421E-09  -3.85412698E-14  -3.89531176E-15  -5.65611910E-10  -3.90435171E-15   1.72536255E-15
   6.12500000E+01   5.00000000E-01   5.00000000E-01  -1.31112369E-07  -4.77961971E-08  -1.23403505E-15  -9.15351993E-16  -8.83700362E-16   1.43034997E-08  -7.80558610E-17   4.37839908E-18   2.84335189E-14   4.89956170E-17   5.22178928E-08  -3.65052174E-17  -3.76980181E-18  -3.72385192E-17  -3.67121511E-17  -2.00225792E-10  -1.64121969E-10  -1.15959841E-07   7.53078626E-09   2.05071204E-07   0.00000000E+00  -7.76322424E-18  -1.65986564E-19  -6.93443775E-18  -3.23265707E-18  -3.41621417E-11  -4.52302751E-08  -4.62752366E-08   0.00000000E+00  -2.86069222E-08  -1.94406032E-16  -6.94999665E-16  -6.82863049E-16   2.37229565E-17  -3.11117069E-14   2.32384776E-14   2.82854855E-12  -2.41742752E-14  -3.43877421E-09  -3.85412699E-14  -3.89633264E-15  -5.65604490E-10  -3.90435171E-15   1.72536255E-15
   7.87500000E+01   5.00000000E-01   5.00000000E-01  -1.31112369E-07  -4.77526422E-08  -1.23403531E-15  -9.00116187E-16  -8.72542004E-16   1.43034997E-08  -7.80600955E-17   4.53098019E-18   3.10885877E-14   5.20501084E-17   6.53931575E-08  -3.64656254E-17  -3.72294007E-18  -3.70539622E-17  -3.62759428E-17  -2.00222486E-10  -1.61655294E-10  -1.15959841E-07   2.48916602E-08   1.94216774E-07   0.00000000E+00  -7.48841798E-18   3.74567553E-19  -5.74623331E-18   1.00132195E-18  -3.40888225E-11  -4.52459865E-08  -4.62752366E-08   0.00000000E+00  -2.86069222E-08  -1.94394788E-16  -6.94999665E-16  -6.82863049E-16   2.59366227E-17  -3.11800625E-14   2.49292275E-14  -4.06330644E-12  -2.44324782E-14  -3.43877421E-09  -3.85412699E-14  -3.89724498E-15  -5.65594881E-10  -3.90435171E-15   1.72536255E-15
   9.62500000E+01   5.00000000E-01   5.00000000E-01  -1.31112369E-07  -4.77036100E-08  -1.23403539E-15  -8.92105100E-16  -8.66741892E-16   1.43034997E-08  -7.80645921E-17   4.49044089E-18   3.28864022E-14   5.39898050E-17   7.69242742E-08  -3.64127449E-17  -3.66453927E-18  -3.68078344E-17  -3.57149590E-17  -2.00217701E-10  -1.59358489E-10  -1.15959841E-07   3.95469957E-08   1.84986390E-07   0.00000000E+00  -7.18096173E-18   9.29306411E-19  -4.41759013E-18   5.52992944E-18  -3.40072457E-11  -4.52660824E-08  -4.62752366E-08   0.00000000E+00  -2.86069221E-08  -1.94382747E-16  -6.94999665E-16  -6.82863049E-16   2.71573771E-17  -3.12416484E-14   2.64781743E-14  -7.44786108E-12  -2.46698274E-14  -3.43877421E-09  -3.85412700E-14  -3.89805538E-15  -5.65583597E-10  -3.90435171E-15   1.72536255E-15
   1.13750000E+02   5.00000000E-01   5.00000000E-01  -1.31112369E-07  -4.76470636E-08  -1.23403536E-15  -8.87536743E-16  -8.63510923E-16   1.43034997E-08  -7.80693965E-17   4.41472187E-18   3.38181845E-14   5.56895748E-17   8.51642996E-08  -3.63558798E-17  -3.60673716E-18  -3.65436098E-17  -3.51381688E-17  -2.00210364E-10  -1.57143227E-10  -1.15959841E-07   5.00266415E-08   1.78386886E-07   0.00000000E+00  -6.89580824E-18   1.38961724E-18  -3.18608178E-18   9.49720993E-18  -3.39308279E-11  -4.52892520E-08  -4.62752366E-08   0.00000000E+00  -2.86069221E-08  -1.94371758E-16  -6.94999665E-16  -6.82863049E-16   2.77094532E-17  -3.12860490E-14   2.78788316E-14  -9.28979005E-12  -2.48882677E-14  -3.43877421E-09  -3.85412700E-14  -3.89877016E-15  -5.65570597E-10  -3.90435171E-15   1.72536255E-15
   1.31250000E+02   5.00000000E-01   5.00000000E-01  -1.31112369E-07  -4.75814933E-08  -1.23403525E-15  -8.84740364E-16  -8.61607449E-16   1.43034996E-08  -7.80745263E-17   4.38050021E-18   3.39261660E-14   5.75895337E-17   9.03185458E-08  -3.63028849E-17  -3.55817197E-18  -3.62978606E-17  -3.46294094E-17  -2.00200198E-10  -1.54948468E-10  -1.15959841E-07   5.65262620E-08   1.74286562E-07   0.00000000E+00  -6.66085595E-18   1.71505665E-18  -2.17224200E-18   1.25258825E-17  -3.38676647E-11  -4.53138517E-08  -4.62752366E-08   0.00000000E+00  -2.86069220E-08  -1.94362740E-16  -6.94999665E-16  -6.82863049E-16   2.78587617E-17  -3.13120674E-14   2.91260724E-14  -1.04256354E-11  -2.50895256E-14  -3.43877421E-09  -3.85412700E-14  -3.89939509E-15  -5.65556075E-10  -3.90435171E-15   1.72536255E-15
   1.48750000E+02   5.00000000E-01   5.00000000E-01  -1.31112369E-07  -4.75060516E-08  -1.23403508E-15  -8.82982495E-16  -8.60485293E-16   1.43034996E-08  -7.80800000E-17   4.41215524E-18   3.33374529E-14   5.98485333E-17   9.31850401E-08  -3.62572038E-17  -3.52148888E-18  -3.60865298E-17  -3.42196848E-17  -2.00187389E-10  -1.52743509E-10  -1.15959841E-07   5.99980879E-08   1.72077630E-07   0.00000000E+00  -6.47814374E-18   1.91784746E-18  -1.38480461E-18   1.46478882E-17  -3.38195057E-11  -4.53386220E-08  -4.62752366E-08   0.00000000E+00  -2.86069220E-08  -1.94355745E-16  -6.94999665E-16  -6.82863049E-16   2.77866593E-17  -3.13234068E-14   3.02162223E-14  -1.12259211E-11  -2.52751385E-14  -3.43877421E-09  -3.85412700E-14  -3.89993540E-15  -5.65540322E-10  -3.90435171E-15   1.72536255E-15
   1.66250000E+02   5.00000000E-01   5.00000000E-01  -1.31112368E-07  -4.74202999E-08  -1.23403487E-15  -8.81917903E-16  -8.59887969E-16   1.43034996E-08  -7.80858368E-17   4.51228421E-18   3.22197153E-14   6.25043130E-17   9.45510756E-08  -3.62189875E-17  -3.49556759E-18  -3.59102221E-17  -3.39041479E-17  -2.00172231E-10  -1.50515249E-10  -1.15959841E-07   6.14366219E-08   1.71132932E-07   0.00000000E+00  -6.33773063E-18   2.02903024E-18  -7.80712838E-19   1.60634358E-17  -3.37845612E-11  -4.53627387E-08  -4.62752366E-08   0.00000000E+00  -2.86069219E-08  -1.94350421E-16  -6.94999665E-16  -6.82863049E-16   2.76038778E-17  -3.13246258E-14   3.11470573E-14  -1.18606519E-11  -2.54464781E-14  -3.43877421E-09  -3.85412700E-14  -3.90039585E-15  -5.65523608E-10  -3.90435171E-15   1.72536255E-15
   1.83750000E+02   5.00000000E-01   5.00000000E-01  -1.31112368E-07  -4.73240512E-08  -1.23403464E-15  -8.81362192E-16  -8.59679102E-16   1.43034996E-08  -7.80920540E-17   4.67517060E-18   3.07330556E-14   6.55403851E-17   9.50090865E-08  -3.61869105E-17  -3.47797887E-18  -3.57626933E-17  -3.36638018E-17  -2.00155008E-10  -1.48260411E-10  -1.15959841E-07   6.16107209E-08   1.70970286E-07   0.00000000E+00  -6.22751757E-18   2.07870910E-18  -3.07585521E-19   1.69862880E-17  -3.37599214E-11  -4.53856706E-08  -4.62752366E-08   0.00000000E+00  -2.86069219E-08  -1.94346337E-16  -6.94999665E-16  -6.82863049E-16   2.73728511E-17  -3.13198485E-14   3.19177504E-14  -1.24103366E-11  -2.56047703E-14  -3.43877421E-09  -3.85412700E-14  -3.90078081E-15  -5.65506151E-10  -3.90435171E-15   1.72536255E-15
   2.01250000E+02   5.00000000E-01   5.00000000E-01  -1.31112368E-07  -4.72172850E-08  -1.23403439E-15  -8.81203505E-16  -8.59776369E-16   1.43034995E-08  -7.80986658E-17   4.89247902E-18   2.90110981E-14   6.89165683E-17   9.49515031E-08  -3.61593324E-17  -3.46632004E-18  -3.56362641E-17  -3.34781903E-17  -2.00135966E-10  -1.45981135E-10  -1.15959841E-07   6.10400367E-08   1.71265112E-07   0.00000000E+00  -6.13732416E-18   2.08967199E-18   7.86497011E-20   1.75864082E-17  -3.37427928E-11  -4.54070687E-08  -4.62752366E-08   0.00000000E+00  -2.86069218E-08  -1.94343117E-16  -6.94999665E-16  -6.82863049E-16   2.71263503E-17  -3.13124590E-14   3.25287908E-14  -1.29141750E-11  -2.57511130E-14  -3.43877421E-09  -3.85412700E-14  -3.90109422E-15  -5.65488116E-10  -3.90435171E-15   1.72536255E-15
   2.18750000E+02   5.00000000E-01   5.00000000E-01  -1.31112368E-07  -4.71000925E-08  -1.23403412E-15  -8.81367613E-16  -8.60125406E-16   1.43034995E-08  -7.81056848E-17   5.15571672E-18   2.71594396E-14   7.25853456E-17   9.46194387E-08  -3.61348059E-17  -3.45868233E-18  -3.55241765E-17  -3.33303545E-17  -2.00115299E-10  -1.43682301E-10  -1.15959841E-07   6.00507310E-08   1.71814544E-07   0.00000000E+00  -6.05975176E-18   2.07729914E-18   4.10020395E-19   1.79826723E-17  -3.37309294E-11  -4.54267118E-08  -4.62752366E-08   0.00000000E+00  -2.86069218E-08  -1.94340476E-16  -6.94999665E-16  -6.82863049E-16   2.68801545E-17  -3.13050921E-14   3.29818852E-14  -1.33916980E-11  -2.58864902E-14  -3.43877421E-09  -3.85412700E-14  -3.90133971E-15  -5.65469624E-10  -3.90435171E-15   1.72536255E-15
   2.36250000E+02   5.00000000E-01   5.00000000E-01  -1.31112367E-07  -4.69726382E-08  -1.23403384E-15  -8.81802414E-16  -8.60688268E-16   1.43034995E-08  -7.81131234E-17   5.45725640E-18   2.52592787E-14   7.65008970E-17   9.41533609E-08  -3.61122173E-17  -3.45369859E-18  -3.54212398E-17  -3.32077854E-17  -2.00093160E-10  -1.41369862E-10  -1.15959841E-07   5.88380236E-08   1.72497793E-07   0.00000000E+00  -5.98982660E-18   2.05132321E-18   7.08053782E-19   1.82525861E-17  -3.37226783E-11  -4.54444810E-08  -4.62752366E-08   0.00000000E+00  -2.86069217E-08  -1.94338218E-16  -6.94999665E-16  -6.82863049E-16   2.66408366E-17  -3.12997150E-14   3.32798475E-14  -1.38527982E-11  -2.60117858E-14  -3.43877421E-09  -3.85412700E-14  -3.90152057E-15  -5.65450757E-10  -3.90435171E-15   1.72536255E-15
   2.53750000E+02   5.00000000E-01   5.00000000E-01  -1.31112367E-07  -4.68351277E-08  -1.23403354E-15  -8.82469744E-16  -8.61437330E-16   1.43034995E-08  -7.81209941E-17   5.79070793E-18   2.33714901E-14   8.06238886E-17   9.36311445E-08  -3.60907724E-17  -3.45044731E-18  -3.53237595E-17  -3.31018603E-17  -2.00069663E-10  -1.39049830E-10  -1.15959841E-07   5.75144416E-08   1.73245744E-07   0.00000000E+00  -5.92437554E-18   2.01764193E-18   9.86479261E-19   1.84443757E-17  -3.37168856E-11  -4.54603441E-08  -4.62752366E-08   0.00000000E+00  -2.86069217E-08  -1.94336209E-16  -6.94999665E-16  -6.82863049E-16   2.64102704E-17  -3.12977300E-14   3.34264806E-14  -1.43025192E-11  -2.61277945E-14  -3.43877421E-09  -3.85412700E-14  -3.90163979E-15  -5.65431573E-10  -3.90435171E-15   1.72536255E-15
   2.71250000E+02   5.00000000E-01   5.00000000E-01  -1.31112366E-07  -4.66877814E-08  -1.23403323E-15  -8.83340770E-16  -8.62351873E-16   1.43034994E-08  -7.81293117E-17   6.15099342E-18   2.15401237E-14   8.49236907E-17   9.30932797E-08  -3.60699366E-17  -3.44833438E-18  -3.52292534E-17  -3.30069305E-17  -2.00044887E-10  -1.36727661E-10  -1.15959841E-07   5.61423426E-08   1.74020537E-07   0.00000000E+00  -5.86147029E-18   1.97969765E-18   1.25363539E-18   1.85868465E-17  -3.37127779E-11  -4.54743416E-08  -4.62752366E-08   0.00000000E+00  -2.86069216E-08  -1.94334364E-16  -6.94999665E-16  -6.82863049E-16   2.61881316E-17  -3.13000763E-14   3.34264548E-14  -1.47434071E-11  -2.62352323E-14  -3.43877421E-09  -3.85412700E-14  -3.90170010E-15  -5.65412105E-10  -3.90435171E-15   1.72536255E-15
   2.88750000E+02   5.00000000E-01   5.00000000E-01  -1.31112366E-07  -4.65308127E-08  -1.23403291E-15  -8.84393709E-16  -8.63416417E-16   1.43034994E-08  -7.81380932E-17   6.53428857E-18   1.97953928E-14   8.93790249E-17   9.25585707E-08  -3.60493719E-17  -3.44699295E-18  -3.51361557E-17  -3.29194870E-17  -2.00018883E-10  -1.34407922E-10  -1.15959840E-07   5.47544817E-08   1.74802691E-07   0.00000000E+00  -5.80001330E-18   1.93941412E-18   1.51426354E-18   1.86963772E-17  -3.37098561E-11  -4.54865710E-08  -4.62752366E-08   0.00000000E+00  -2.86069216E-08  -1.94332631E-16  -6.94999665E-16  -6.82863049E-16   2.59732308E-17  -3.13073214E-14   3.32851849E-14  -1.51766953E-11  -2.63347449E-14  -3.43877421E-09  -3.85412700E-14  -3.90170398E-15  -5.65392371E-10  -3.90435171E-15   1.72536255E-15
   3.06250000E+02   5.00000000E-01   5.00000000E-01  -1.31112365E-07  -4.63644099E-08  -1.23403258E-15  -8.85613066E-16  -8.64620230E-16   1.43034994E-08  -7.81473592E-17   6.93790355E-18   1.81563270E-14   9.39776316E-17   9.20336037E-08  -3.60288849E-17  -3.44620875E-18  -3.50435722E-17  -3.28375098E-17  -1.99991676E-10  -1.32094156E-10  -1.15959840E-07   5.33665986E-08   1.75583251E-07   0.00000000E+00  -5.73945057E-18   1.89780010E-18   1.77075225E-18   1.87815878E-17  -3.37078133E-11  -4.54971723E-08  -4.62752366E-08   0.00000000E+00  -2.86069215E-08  -1.94330979E-16  -6.94999665E-16  -6.82863049E-16   2.57641884E-17  -3.13197420E-14   3.30087085E-14  -1.56029164E-11  -2.64269156E-14  -3.43877421E-09  -3.85412699E-14  -3.90165367E-15  -5.65372376E-10  -3.90435171E-15   1.72536255E-15
   3.23750000E+02   5.00000000E-01   5.00000000E-01  -1.31112364E-07  -4.61887246E-08  -1.23403224E-15  -8.86989708E-16  -8.65957488E-16   1.43034993E-08  -7.81571338E-17   7.36013295E-18   1.66331635E-14   9.87153069E-17   9.15183836E-08  -3.60083858E-17  -3.44586696E-18  -3.49510904E-17  -3.27599873E-17  -1.99963271E-10  -1.29788867E-10  -1.15959840E-07   5.19850011E-08   1.76359059E-07   0.00000000E+00  -5.67957695E-18   1.85532973E-18   2.02398071E-18   1.88463855E-17  -3.37064733E-11  -4.55063119E-08  -4.62752366E-08   0.00000000E+00  -2.86069214E-08  -1.94329394E-16  -6.94999665E-16  -6.82863049E-16   2.55597472E-17  -3.13373931E-14   3.26035689E-14  -1.60222251E-11  -2.65122722E-14  -3.43877421E-09  -3.85412699E-14  -3.90155121E-15  -5.65352112E-10  -3.90435171E-15   1.72536255E-15
   3.41250000E+02   5.00000000E-01   5.00000000E-01  -1.31112364E-07  -4.60038657E-08  -1.23403188E-15  -8.88521062E-16  -8.67427543E-16   1.43034993E-08  -7.81674451E-17   7.80008588E-18   1.52294787E-14   1.03594524E-16   9.10096908E-08  -3.59878570E-17  -3.44591483E-18  -3.48586330E-17  -3.26865646E-17  -1.99933658E-10  -1.27493623E-10  -1.15959840E-07   5.06111091E-08   1.77129939E-07   0.00000000E+00  -5.62040305E-18   1.81218126E-18   2.27389512E-18   1.88919529E-17  -3.37057451E-11  -4.55141690E-08  -4.62752366E-08   0.00000000E+00  -2.86069214E-08  -1.94327870E-16  -6.94999665E-16  -6.82863049E-16   2.53588893E-17  -3.13601686E-14   3.20767028E-14  -1.64345729E-11  -2.65912926E-14  -3.43877421E-09  -3.85412699E-14  -3.90139843E-15  -5.65331566E-10  -3.90435171E-15   1.72536255E-15
   3.58750000E+02   5.00000000E-01   5.00000000E-01  -1.31112363E-07  -4.58099012E-08  -1.23403151E-15  -8.90210989E-16  -8.69034914E-16   1.43034993E-08  -7.81783247E-17   8.25750203E-18   1.39440375E-14   1.08622816E-16   9.05030893E-08  -3.59673286E-17  -3.44633510E-18  -3.47663404E-17  -3.26172802E-17  -1.99902809E-10  -1.25209237E-10  -1.15959840E-07   4.92441717E-08   1.77896997E-07   0.00000000E+00  -5.56206174E-18   1.76838729E-18   2.51991386E-18   1.89180627E-17  -3.37055896E-11  -4.55209227E-08  -4.62752366E-08   0.00000000E+00  -2.86069213E-08  -1.94326407E-16  -6.94999665E-16  -6.82863049E-16   2.51608523E-17  -3.13878536E-14   3.14353366E-14  -1.68398026E-11  -2.66644103E-14  -3.43877421E-09  -3.85412699E-14  -3.90119699E-15  -5.65310720E-10  -3.90435171E-15   1.72536255E-15
   3.76250000E+02   5.00000000E-01   5.00000000E-01  -1.31112362E-07  -4.56068665E-08  -1.23403113E-15  -8.92069192E-16  -8.70788913E-16   1.43034992E-08  -7.81898078E-17   8.73256485E-18   1.27723409E-14   1.13811107E-16   8.99940948E-08  -3.59468570E-17  -3.44712729E-18  -3.46744757E-17  -3.25523685E-17  -1.99870692E-10  -1.22935998E-10  -1.15959840E-07   4.78828644E-08   1.78661634E-07   0.00000000E+00  -5.50474094E-18   1.72392845E-18   2.76121838E-18   1.89239486E-17  -3.37059939E-11  -4.55267424E-08  -4.62752366E-08   0.00000000E+00  -2.86069212E-08  -1.94325008E-16  -6.94999665E-16  -6.82863049E-16   2.49650972E-17  -3.14201669E-14   3.06868893E-14  -1.72377020E-11  -2.67320191E-14  -3.43877421E-09  -3.85412698E-14  -3.90094839E-15  -5.65289550E-10  -3.90435171E-15   1.72536254E-15
   3.93750000E+02   5.00000000E-01   5.00000000E-01  -1.31112361E-07  -4.53947777E-08  -1.23403073E-15  -8.94110333E-16  -8.72703001E-16   1.43034992E-08  -7.82019326E-17   9.22573252E-18   1.17078645E-14   1.19172255E-16   8.94787477E-08  -3.59265094E-17  -3.44829509E-18  -3.45833499E-17  -3.24921185E-17  -1.99837265E-10  -1.20673909E-10  -1.15959840E-07   4.65261556E-08   1.79425022E-07   0.00000000E+00  -5.44863704E-18   1.67878794E-18   2.99695448E-18   1.89088542E-17  -3.37069545E-11  -4.55317807E-08  -4.62752366E-08   0.00000000E+00  -2.86069211E-08  -1.94323677E-16  -6.94999665E-16  -6.82863049E-16   2.47712600E-17  -3.14567953E-14   2.98388856E-14  -1.76280335E-11  -2.67944769E-14  -3.43877421E-09  -3.85412698E-14  -3.90065394E-15  -5.65268033E-10  -3.90435171E-15   1.72536254E-15
   4.11250000E+02   5.00000000E-01   5.00000000E-01  -1.31112359E-07  -4.51736444E-08  -1.23403032E-15  -8.96353105E-16  -8.74794107E-16   1.43034991E-08  -7.82147399E-17   9.73761294E-18   1.07429954E-14   1.24720012E-16   8.89537237E-08  -3.59063528E-17  -3.44983943E-18  -3.44932723E-17  -3.24367884E-17  -1.99802484E-10  -1.18422872E-10  -1.15959840E-07   4.51736617E-08   1.80187899E-07   0.00000000E+00  -5.39392751E-18   1.63297673E-18   3.22635089E-18   1.88723153E-17  -3.37084671E-11  -4.55361714E-08  -4.62752366E-08   0.00000000E+00  -2.86069210E-08  -1.94322418E-16  -6.94999665E-16  -6.82863049E-16   2.45791051E-17  -3.14974153E-14   2.88988777E-14  -1.80105506E-11  -2.68521093E-14  -3.43877421E-09  -3.85412698E-14  -3.90031483E-15  -5.65246144E-10  -3.90435171E-15   1.72536254E-15
   4.28750000E+02   5.00000000E-01   5.00000000E-01  -1.31112358E-07  -4.49434779E-08  -1.23402990E-15  -8.98819442E-16  -8.77082025E-16   1.43034991E-08  -7.82282735E-17   1.02689006E-17   9.86969408E-15   1.30468540E-16   8.84161210E-08  -3.58864492E-17  -3.45175624E-18  -3.44045285E-17  -3.23865739E-17  -1.99766303E-10  -1.16182789E-10  -1.15959839E-07   4.38256516E-08   1.80950610E-07   0.00000000E+00  -5.34076117E-18   1.58653728E-18   3.44876135E-18   1.88142299E-17  -3.37105227E-11  -4.55400299E-08  -4.62752366E-08  -6.24194255E-33  -2.86069209E-08  -1.94321232E-16  -6.94999665E-16  -6.82863049E-16   2.43884908E-17  -3.15417046E-14   2.78743768E-14  -1.83850076E-11  -2.69052131E-14  -3.43877421E-09  -3.85412698E-14  -3.89993210E-15  -5.65223859E-10  -3.90435171E-15   1.72536254E-15
   4.46250000E+02   5.00000000E-01   5.00000000E-01  -1.31112357E-07  -4.47042922E-08  -1.23402946E-15  -9.01533949E-16  -8.79588991E-16   1.43034990E-08  -7.82425797E-17   1.08203729E-17   9.07992436E-15   1.36432379E-16   8.78631175E-08  -3.58668560E-17  -3.45403742E-18  -3.43173827E-17  -3.23416160E-17  -1.99728673E-10  -1.13953559E-10  -1.15959839E-07   4.24828586E-08   1.81713255E-07   0.00000000E+00  -5.28926174E-18   1.53953465E-18   3.66364917E-18   1.87347860E-17  -3.37131087E-11  -4.55434570E-08  -4.62752366E-08   0.00000000E+00  -2.86069208E-08  -1.94320123E-16  -6.94999665E-16  -6.82863049E-16   2.41993486E-17  -3.15893455E-14   2.67727932E-14  -1.87511653E-11  -2.69540589E-14  -3.43877421E-09  -3.85412697E-14  -3.89950668E-15  -5.65201154E-10  -3.90435171E-15   1.72536254E-15
   4.63750000E+02   5.00000000E-01   5.00000000E-01  -1.31112355E-07  -4.44560996E-08  -1.23402900E-15  -9.04523568E-16  -8.82339439E-16   1.43034990E-08  -7.82577079E-17   1.13929208E-17   8.36591037E-15   1.42626609E-16   8.72916993E-08  -3.58476294E-17  -3.45667320E-18  -3.42320912E-17  -3.23020277E-17  -1.99689544E-10  -1.11735029E-10  -1.15959839E-07   4.11462516E-08   1.82475845E-07   0.00000000E+00  -5.23953728E-18   1.49204420E-18   3.87054678E-18   1.86343421E-17  -3.37162116E-11  -4.55465415E-08  -4.62752366E-08  -4.30708465E-19  -2.86069207E-08  -1.94319090E-16  -6.94999665E-16  -6.82863049E-16   2.40116713E-17  -3.16400244E-14   2.56013857E-14  -1.91087935E-11  -2.69988935E-14  -3.43877421E-09  -3.85412697E-14  -3.89903937E-15  -5.65178005E-10  -3.90435171E-15   1.72536254E-15
   4.81250000E+02   5.00000000E-01   5.00000000E-01  -1.31112353E-07  -4.41989047E-08  -1.23402852E-15  -9.07817505E-16  -8.85359963E-16   1.43034989E-08  -7.82737105E-17   1.19875783E-17   7.72027980E-15   1.49066901E-16   8.66985952E-08  -3.58288265E-17  -3.45965361E-18  -3.41489143E-17  -3.22679137E-17  -1.99648858E-10  -1.09526938E-10  -1.15959839E-07   3.98168838E-08   1.83238394E-07   0.00000000E+00  -5.19168742E-18   1.44414351E-18   4.06902469E-18   1.85133410E-17  -3.37198190E-11  -4.55493618E-08  -4.62752366E-08  -2.60648025E-18  -2.86069206E-08  -1.94318136E-16  -6.94999665E-16  -6.82863049E-16   2.38255062E-17  -3.16934313E-14   2.43672195E-14  -1.94576734E-11  -2.70399423E-14  -3.43877421E-09  -3.85412697E-14  -3.89853084E-15  -5.65154388E-10  -3.90435171E-15   1.72536253E-15
   4.98750000E+02   5.00000000E-01   5.00000000E-01  -1.31112351E-07  -4.39327049E-08  -1.23402804E-15  -9.11447426E-16  -8.88679509E-16   1.43034988E-08  -7.82906438E-17   1.26055204E-17   7.13614355E-15   1.55769268E-16   8.60804301E-08  -3.58105051E-17  -3.46296847E-18  -3.40681149E-17  -3.22393682E-17  -1.99606557E-10  -1.07328918E-10  -1.15959839E-07   3.84958635E-08   1.84000905E-07   0.00000000E+00  -5.14580308E-18   1.39591148E-18   4.25869261E-18   1.83723024E-17  -3.37239195E-11  -4.55519852E-08  -4.62752366E-08  -5.73273897E-18  -2.86069204E-08  -1.94317262E-16  -6.94999665E-16  -6.82863049E-16   2.36409451E-17  -3.17492635E-14   2.30771317E-14  -1.97975975E-11  -2.70774115E-14  -3.43877421E-09  -3.85412696E-14  -3.89798168E-15  -5.65130277E-10  -3.90435171E-15   1.72536252E-15
   5.16250000E+02   5.00000000E-01   5.00000000E-01  -1.31112349E-07  -4.36574977E-08  -1.23402753E-15  -9.15447944E-16  -8.92329809E-16   1.43034988E-08  -7.83085677E-17   1.32480190E-17   6.60714371E-15   1.62749513E-16   8.54340039E-08  -3.57927199E-17  -3.46660563E-18  -3.39899401E-17  -3.22164508E-17  -1.99562577E-10  -1.05140573E-10  -1.15959838E-07   3.71844254E-08   1.84763289E-07   0.00000000E+00  -5.10195814E-18   1.34743356E-18   4.43923544E-18   1.82118893E-17  -3.37284994E-11  -4.55544655E-08  -4.62752366E-08  -1.01691387E-17  -2.86069203E-08  -1.94316469E-16  -6.94999665E-16  -6.82863049E-16   2.34581121E-17  -3.18072309E-14   2.17377047E-14  -2.01283700E-11  -2.71114893E-14  -3.43877421E-09  -3.85412696E-14  -3.89739236E-15  -5.65105645E-10  -3.90435171E-15   1.72536251E-15
   5.33750000E+02   5.00000000E-01   5.00000000E-01  -1.31112347E-07  -4.33732962E-08  -1.23402700E-15  -9.19857392E-16  -8.96346060E-16   1.43034987E-08  -7.83275470E-17   1.39163689E-17   6.12748440E-15   1.70022575E-16   8.47565496E-08  -3.57755165E-17  -3.47054866E-18  -3.39145943E-17  -3.21991507E-17  -1.99516851E-10  -1.02961603E-10  -1.15959838E-07   3.58840325E-08   1.85525270E-07   0.00000000E+00  -5.06019680E-18   1.29880887E-18   4.61046737E-18   1.80330034E-17  -3.37335400E-11  -4.55568403E-08  -4.62752366E-08  -1.64068944E-17  -2.86069201E-08  -1.94315757E-16  -6.94999665E-16  -6.82863049E-16   2.32771482E-17  -3.18670630E-14   2.03552464E-14  -2.04498064E-11  -2.71423479E-14  -3.43877421E-09  -3.85412696E-14  -3.89676327E-15  -5.65080470E-10  -3.90435171E-15   1.72536249E-15
   5.51250000E+02   5.00000000E-01   5.00000000E-01  -1.31112344E-07  -4.30801472E-08  -1.23402646E-15  -9.24718817E-16  -9.00767807E-16   1.43034986E-08  -7.83476511E-17   1.46118149E-17   5.69194695E-15   1.77602073E-16   8.40458345E-08  -3.57589258E-17  -3.47477521E-18  -3.38422141E-17  -3.21873584E-17  -1.99469316E-10  -1.00791930E-10  -1.15959838E-07   3.45964299E-08   1.86286344E-07   0.00000000E+00  -5.02052319E-18   1.25015405E-18   4.77237631E-18   1.78368481E-17  -3.37390144E-11  -4.55591301E-08  -4.62752366E-08  -2.51156609E-17  -2.86069200E-08  -1.94315125E-16  -6.94999665E-16  -6.82863049E-16   2.30981969E-17  -3.19285142E-14   1.89357757E-14  -2.07617327E-11  -2.71701449E-14  -3.43877421E-09  -3.85412695E-14  -3.89609470E-15  -5.65054726E-10  -3.90435171E-15   1.72536246E-15
   5.68750000E+02   5.00000000E-01   5.00000000E-01  -1.31112342E-07  -4.27781445E-08  -1.23402590E-15  -9.30081131E-16  -9.05639967E-16   1.43034985E-08  -7.83689550E-17   1.53355149E-17   5.29588502E-15   1.85500304E-16   8.33000451E-08  -3.57429619E-17  -3.47925725E-18  -3.37728584E-17  -3.21808622E-17  -1.99419906E-10  -9.86317718E-11  -1.15959837E-07   3.33235951E-08   1.87045822E-07   0.00000000E+00  -4.98289936E-18   1.20160073E-18   4.92513212E-18   1.76249140E-17  -3.37448876E-11  -4.55613398E-08  -4.62752366E-08  -3.72060140E-17  -2.86069198E-08  -1.94314569E-16  -6.94999665E-16  -6.82863049E-16   2.29213950E-17  -3.19913643E-14   1.74850142E-14  -2.10639856E-11  -2.71950243E-14  -3.43877421E-09  -3.85412695E-14  -3.89538686E-15  -5.65028393E-10  -3.90435171E-15   1.72536241E-15
   5.86250000E+02   5.00000000E-01   5.00000000E-01  -1.31112338E-07  -4.24674308E-08  -1.23402533E-15  -9.36000321E-16  -9.11013920E-16   1.43034984E-08  -7.83915398E-17   1.60885619E-17   4.93519642E-15   1.93728776E-16   8.25174981E-08  -3.57276249E-17  -3.48396322E-18  -3.37065221E-17  -3.21793745E-17  -1.99368557E-10  -9.64816105E-11  -1.15959837E-07   3.20675818E-08   1.87802954E-07   0.00000000E+00  -4.94725449E-18   1.15328593E-18   5.06904685E-18   1.73988703E-17  -3.37511194E-11  -4.55634633E-08  -4.62752366E-08  -5.39116683E-17  -2.86069196E-08  -1.94314087E-16  -6.94999665E-16  -6.82863049E-16   2.27468701E-17  -3.20554146E-14   1.60083819E-14  -2.13564117E-11  -2.72171181E-14  -3.43877421E-09  -3.85412694E-14  -3.89463988E-15  -5.65001450E-10  -3.90435171E-15   1.72536234E-15
   6.03750000E+02   5.00000000E-01   5.00000000E-01  -1.31112335E-07  -4.21481855E-08  -1.23402473E-15  -9.42540683E-16  -9.16948635E-16   1.43034983E-08  -7.84154931E-17   1.68720653E-17   4.60627377E-15   2.02299132E-16   8.16963076E-08  -3.57129080E-17  -3.48886168E-18  -3.36431692E-17  -3.21825826E-17  -1.99315206E-10  -9.43420651E-11  -1.15959836E-07   3.08302987E-08   1.88557098E-07   0.00000000E+00  -4.91350344E-18   1.10533863E-18   5.20449471E-18   1.71603936E-17  -3.37576693E-11  -4.55654891E-08  -4.62752366E-08  -7.68956384E-17  -2.86069194E-08  -1.94313674E-16  -6.94999665E-16  -6.82863049E-16   2.25747437E-17  -3.21204815E-14   1.45109961E-14  -2.16388683E-11  -2.72365467E-14  -3.43877421E-09  -3.85412694E-14  -3.89385380E-15  -5.64973879E-10  -3.90435171E-15   1.72536222E-15
   6.21250000E+02   5.00000000E-01   5.00000000E-01  -1.31112331E-07  -4.18206028E-08  -1.23402412E-15  -9.49776104E-16  -9.23511859E-16   1.43034982E-08  -7.84409101E-17   1.76872675E-17   4.30594141E-15   2.11224158E-16   8.08341528E-08  -3.56988074E-17  -3.49392504E-18  -3.35827756E-17  -3.21902070E-17  -1.99259783E-10  -9.22137101E-11  -1.15959836E-07   2.96132978E-08   1.89307860E-07   0.00000000E+00  -4.88156905E-18   1.05786677E-18   5.33181674E-18   1.69109863E-17  -3.37645018E-11  -4.55674058E-08  -4.62752366E-08  -1.08383399E-16  -2.86069192E-08  -1.94313327E-16  -6.94999665E-16  -6.82863049E-16   2.24051390E-17  -3.21863885E-14   1.29976742E-14  -2.19112237E-11  -2.72534203E-14  -3.43877421E-09  -3.85412693E-14  -3.89302860E-15  -5.64945661E-10  -3.90435171E-15   1.72536205E-15