 TITLE = "Mineral Rate (mol/m^3/sec)" 
VARIABLES = "X"          "Y"              "Z"            "Forsterite"     "Fayalite"       "Brucite"        "Lizardite"      "Chrysotile"     "Hematite"       "Magnetite(am)"  "Saponite(Ca)"   "Saponite(K)"    "Saponite(Mg)"   "Saponite(Na)"   "Beidellite(Ca)" "Beidellite(K)"  "Beidellite(Mg)" "Beidellite(Na)" "Enstatite(alph" "Ferrosilite(al" "Anorthite"      "Albite(low)"    "Clinochlore"    "Sudoite"        "Montmor(MgCa)"  "Montmor(MgK)"   "Montmor(MgMg)"  "Montmor(MgNa)"  "Kaolinite"      "Tremolite"      "Pargasite"      "Anhydrite"      "Epidote"        "Scolecite"      "Pyrite"         "FeS(am)"        "Quartz(alpha)"  "Titanite"       "Rutile"         "Barite"         "Fluorite"       "Spessartine(al" "Andradite"      "Celestite"      "Zincite"        "Chalcocyanite"  "Chalcocite(alp"
 ZONE I=         200 , J=           1 , K=           1  F=POINT
   8.75000000E+00   5.00000000E-01   5.00000000E-01  -1.30992467E-07  -4.78617003E-08  -1.22662773E-15  -1.04103620E-15  -9.66578915E-16   1.41851867E-08  -6.33068911E-17   1.08259582E-17   2.09933299E-14   7.73361724E-17   2.94108296E-08  -3.65058319E-17  -3.81048620E-18  -3.73558610E-17  -3.70482626E-17  -2.00022519E-10  -1.71265074E-10  -1.15603191E-07  -2.87839746E-08   2.26170277E-07   0.00000000E+00  -8.06565340E-18  -8.28302617E-19  -8.24840121E-18  -8.17601761E-18  -3.42545000E-11  -4.50345103E-08  -4.61201205E-08   0.00000000E+00  -2.83702961E-08  -1.93115254E-16  -6.92870132E-16  -6.81329599E-16   9.79953478E-18  -2.84884444E-14   1.74106035E-14   1.46724270E-10  -2.32519088E-14  -3.40963654E-09  -3.85412333E-14  -3.89292528E-15  -5.65507723E-10  -3.90435160E-15   1.82917692E-13
   2.62500000E+01   5.00000000E-01   5.00000000E-01  -1.30992474E-07  -4.78489841E-08  -1.22663704E-15  -9.69836405E-16  -9.15991421E-16   1.41851866E-08  -6.33128707E-17   3.75025517E-18   2.06046263E-14   4.10890522E-17   4.16127108E-08  -3.65046347E-17  -3.80880323E-18  -3.73502560E-17  -3.70337629E-17  -2.00208661E-10  -1.69412747E-10  -1.15603191E-07  -2.25869406E-08   2.21024919E-07   0.00000000E+00  -8.04510062E-18  -7.79029851E-19  -8.15932806E-18  -7.82370476E-18  -3.42457634E-11  -4.50559836E-08  -4.61201205E-08   0.00000000E+00  -2.83702961E-08  -1.93113668E-16  -6.92870132E-16  -6.81329599E-16   1.53611694E-17  -3.07380016E-14   1.94715246E-14   5.41536407E-11  -2.35874562E-14  -3.40963654E-09  -3.85412360E-14  -3.89417571E-15  -5.65535371E-10  -3.90435160E-15   1.72063480E-15
   4.37500000E+01   5.00000000E-01   5.00000000E-01  -1.30992475E-07  -4.78215926E-08  -1.22663877E-15  -9.14295816E-16  -8.75750223E-16   1.41851866E-08  -6.33167978E-17   3.48945939E-18   2.37499257E-14   4.15601113E-17   4.26719428E-08  -3.64955320E-17  -3.79663715E-18  -3.73076981E-17  -3.69265950E-17  -2.00234488E-10  -1.66978072E-10  -1.15603191E-07  -9.16419929E-09   2.14138740E-07   0.00000000E+00  -7.94845015E-18  -5.60346144E-19  -7.74081168E-18  -6.21888484E-18  -3.42113348E-11  -4.50707430E-08  -4.61201205E-08   0.00000000E+00  -2.83702960E-08  -1.93108177E-16  -6.92870132E-16  -6.81329599E-16   2.00583779E-17  -3.11186630E-14   2.14227867E-14   1.80336960E-11  -2.38947042E-14  -3.40963654E-09  -3.85412362E-14  -3.89531069E-15  -5.65534700E-10  -3.90435160E-15   1.72063480E-15
   6.12500000E+01   5.00000000E-01   5.00000000E-01  -1.30992475E-07  -4.77846617E-08  -1.22663934E-15  -8.84853876E-16  -8.54180519E-16   1.41851866E-08  -6.33201982E-17   3.85543101E-18   2.69251275E-14   4.56350464E-17   5.31160271E-08  -3.64713546E-17  -3.76615229E-18  -3.71948244E-17  -3.66509799E-17  -2.00234259E-10  -1.64403674E-10  -1.15603191E-07   8.03433292E-09   2.03816140E-07   0.00000000E+00  -7.75060038E-18  -1.41534186E-19  -6.88472334E-18  -3.04965092E-18  -3.41523256E-11  -4.50829178E-08  -4.61201205E-08   0.00000000E+00  -2.83702960E-08  -1.93099110E-16  -6.92870132E-16  -6.81329599E-16   2.34761949E-17  -3.12099305E-14   2.32493420E-14   2.81703365E-12  -2.41763902E-14  -3.40963654E-09  -3.85412363E-14  -3.89633140E-15  -5.65527204E-10  -3.90435160E-15   1.72063480E-15
   7.87500000E+01   5.00000000E-01   5.00000000E-01  -1.30992476E-07  -4.77427073E-08  -1.22663958E-15  -8.70063715E-16  -8.43349426E-16   1.41851866E-08  -6.33236490E-17   3.98644345E-18   2.93928266E-14   4.84243157E-17   6.63323553E-08  -3.64290957E-17  -3.71609344E-18  -3.69978177E-17  -3.61854576E-17  -2.00231058E-10  -1.61997535E-10  -1.15603191E-07   2.54293959E-08   1.92937836E-07   0.00000000E+00  -7.46914893E-18   4.11928222E-19  -5.66760236E-18   1.28681091E-18  -3.40737082E-11  -4.50985777E-08  -4.61201205E-08   0.00000000E+00  -2.83702959E-08  -1.93087480E-16  -6.92870132E-16  -6.81329599E-16   2.56368331E-17  -3.12771834E-14   2.49417833E-14  -4.06843354E-12  -2.44349808E-14  -3.40963654E-09  -3.85412364E-14  -3.89724356E-15  -5.65517608E-10  -3.90435160E-15   1.72063480E-15
   9.62500000E+01   5.00000000E-01   5.00000000E-01  -1.30992476E-07  -4.76953061E-08  -1.22663966E-15  -8.62280063E-16  -8.37713977E-16   1.41851866E-08  -6.33273149E-17   3.94330983E-18   3.10649206E-14   5.02103831E-17   7.77480120E-08  -3.63732893E-17  -3.65444734E-18  -3.67380427E-17  -3.55936969E-17  -2.00226295E-10  -1.59752586E-10  -1.15603191E-07   3.99791368E-08   1.83779295E-07   0.00000000E+00  -7.15755631E-18   9.73425193E-19  -4.32079589E-18   5.87511761E-18  -3.39871013E-11  -4.51186077E-08  -4.61201205E-08   0.00000000E+00  -2.83702959E-08  -1.93075151E-16  -6.92870132E-16  -6.81329599E-16   2.68167107E-17  -3.13365808E-14   2.64923942E-14  -7.44991314E-12  -2.46726756E-14  -3.40963654E-09  -3.85412364E-14  -3.89805380E-15  -5.65506321E-10  -3.90435160E-15   1.72063480E-15
   1.13750000E+02   5.00000000E-01   5.00000000E-01  -1.30992475E-07  -4.76404791E-08  -1.22663962E-15  -8.57838613E-16  -8.34572331E-16   1.41851865E-08  -6.33312332E-17   3.87310794E-18   3.19404915E-14   5.18125348E-17   8.58197037E-08  -3.63139695E-17  -3.59420671E-18  -3.64623793E-17  -3.49926285E-17  -2.00218956E-10  -1.57582213E-10  -1.15603191E-07   5.02750428E-08   1.77299432E-07   0.00000000E+00  -6.87154430E-18   1.43361700E-18  -3.08523588E-18   9.85020564E-18  -3.39068614E-11  -4.51417015E-08  -4.61201205E-08   0.00000000E+00  -2.83702958E-08  -1.93064016E-16  -6.92870132E-16  -6.81329599E-16   2.73421837E-17  -3.13783844E-14   2.78946695E-14  -9.29037813E-12  -2.48914253E-14  -3.40963654E-09  -3.85412364E-14  -3.89876844E-15  -5.65493320E-10  -3.90435160E-15   1.72063480E-15
   1.31250000E+02   5.00000000E-01   5.00000000E-01  -1.30992475E-07  -4.75768163E-08  -1.22663950E-15  -8.55119735E-16  -8.32721040E-16   1.41851865E-08  -6.33354185E-17   3.84433903E-18   3.20504093E-14   5.36230065E-17   9.08200019E-08  -3.62591903E-17  -3.54414795E-18  -3.62083236E-17  -3.44677564E-17  -2.00208831E-10  -1.55429017E-10  -1.15603191E-07   5.65898722E-08   1.73316903E-07   0.00000000E+00  -6.63774753E-18   1.75520809E-18  -2.07604228E-18   1.28564211E-17  -3.38411648E-11  -4.51662209E-08  -4.61201205E-08   0.00000000E+00  -2.83702958E-08  -1.93054957E-16  -6.92870132E-16  -6.81329599E-16   2.74769484E-17  -3.14021118E-14   2.91434766E-14  -1.04254988E-11  -2.50929615E-14  -3.40963654E-09  -3.85412365E-14  -3.89939322E-15  -5.65478820E-10  -3.90435160E-15   1.72063480E-15
   1.48750000E+02   5.00000000E-01   5.00000000E-01  -1.30992475E-07  -4.75035405E-08  -1.22663933E-15  -8.53411186E-16  -8.31629812E-16   1.41851865E-08  -6.33398860E-17   3.87801098E-18   3.15067462E-14   5.57781721E-17   9.35725693E-08  -3.62122455E-17  -3.50665963E-18  -3.59911189E-17  -3.40480233E-17  -2.00196131E-10  -1.53264706E-10  -1.15603191E-07   5.99153253E-08   1.71199953E-07   0.00000000E+00  -6.45678903E-18   1.95335481E-18  -1.29586109E-18   1.49478546E-17  -3.37914368E-11  -4.51909103E-08  -4.61201205E-08   0.00000000E+00  -2.83702957E-08  -1.93047971E-16  -6.92870132E-16  -6.81329599E-16   2.73988303E-17  -3.14116927E-14   3.02351416E-14  -1.12253954E-11  -2.52788258E-14  -3.40963654E-09  -3.85412365E-14  -3.89993338E-15  -5.65463117E-10  -3.90435160E-15   1.72063480E-15
   1.66250000E+02   5.00000000E-01   5.00000000E-01  -1.30992475E-07  -4.74202586E-08  -1.22663913E-15  -8.52377125E-16  -8.31049167E-16   1.41851865E-08  -6.33446513E-17   3.97570837E-18   3.04628217E-14   5.83067417E-17   9.48662618E-08  -3.61730670E-17  -3.48032627E-18  -3.58103474E-17  -3.37259937E-17  -2.00181155E-10  -1.51077551E-10  -1.15603191E-07   6.12536986E-08   1.70317271E-07   0.00000000E+00  -6.31790135E-18   2.06058720E-18  -6.98073460E-19   1.63368528E-17  -3.37555297E-11  -4.52149485E-08  -4.61201205E-08   0.00000000E+00  -2.83702957E-08  -1.93042670E-16  -6.92870132E-16  -6.81329599E-16   2.72153597E-17  -3.14116861E-14   3.11674418E-14  -1.18598899E-11  -2.54503936E-14  -3.40963654E-09  -3.85412365E-14  -3.90039368E-15  -5.65446482E-10  -3.90435160E-15   1.72063480E-15
   1.83750000E+02   5.00000000E-01   5.00000000E-01  -1.30992475E-07  -4.73268134E-08  -1.22663890E-15  -8.51837943E-16  -8.30846276E-16   1.41851864E-08  -6.33497281E-17   4.13169164E-18   2.90672781E-14   6.11896302E-17   9.52854846E-08  -3.61401601E-17  -3.46251208E-18  -3.56589784E-17  -3.34807934E-17  -2.00164187E-10  -1.48865014E-10  -1.15603191E-07   6.13670700E-08   1.70191388E-07   0.00000000E+00  -6.20867508E-18   2.10743540E-18  -2.28954253E-19   1.72412580E-17  -3.37302683E-11  -4.52378057E-08  -4.61201205E-08   0.00000000E+00  -2.83702957E-08  -1.93038601E-16  -6.92870132E-16  -6.81329599E-16   2.69866153E-17  -3.14061384E-14   3.19395514E-14  -1.24094074E-11  -2.56088944E-14  -3.40963654E-09  -3.85412365E-14  -3.90077848E-15  -5.65429130E-10  -3.90435160E-15   1.72063480E-15
   2.01250000E+02   5.00000000E-01   5.00000000E-01  -1.30992474E-07  -4.72232036E-08  -1.22663865E-15  -8.51684629E-16  -8.30940907E-16   1.41851864E-08  -6.33551283E-17   4.33799254E-18   2.74455008E-14   6.43871997E-17   9.52129820E-08  -3.61117820E-17  -3.45069810E-18  -3.55288544E-17  -3.32908814E-17  -2.00145464E-10  -1.46629578E-10  -1.15603191E-07   6.07646547E-08   1.70504541E-07   0.00000000E+00  -6.11889999E-18   2.11661027E-18   1.55704718E-19   1.78309987E-17  -3.37126933E-11  -4.52591343E-08  -4.61201205E-08   0.00000000E+00  -2.83702956E-08  -1.93035382E-16  -6.92870132E-16  -6.81329599E-16   2.67438298E-17  -3.13983357E-14   3.25519595E-14  -1.29131091E-11  -2.57554285E-14  -3.40963654E-09  -3.85412365E-14  -3.90109173E-15  -5.65411224E-10  -3.90435160E-15   1.72063480E-15
   2.18750000E+02   5.00000000E-01   5.00000000E-01  -1.30992474E-07  -4.71095321E-08  -1.22663839E-15  -8.51844835E-16  -8.31280069E-16   1.41851864E-08  -6.33608620E-17   4.58661079E-18   2.56974631E-14   6.78539252E-17   9.48816698E-08  -3.60864315E-17  -3.44291936E-18  -3.54129673E-17  -3.31387623E-17  -2.00125178E-10  -1.44376210E-10  -1.15603191E-07   5.97631674E-08   1.71059939E-07   0.00000000E+00  -6.04125966E-18   2.10325565E-18   4.87582837E-19   1.82234241E-17  -3.37004656E-11  -4.52787136E-08  -4.61201205E-08   0.00000000E+00  -2.83702956E-08  -1.93032728E-16  -6.92870132E-16  -6.81329599E-16   2.65018611E-17  -3.13908160E-14   3.30063712E-14  -1.33905077E-11  -2.58909826E-14  -3.40963654E-09  -3.85412365E-14  -3.90133705E-15  -5.65392880E-10  -3.90435160E-15   1.72063480E-15
   2.36250000E+02   5.00000000E-01   5.00000000E-01  -1.30992474E-07  -4.69859681E-08  -1.22663811E-15  -8.52267795E-16  -8.31826782E-16   1.41851864E-08  -6.33669391E-17   4.87041732E-18   2.39006075E-14   7.15464932E-17   9.44260024E-08  -3.60629704E-17  -3.43778603E-18  -3.53060130E-17  -3.30117056E-17  -2.00103474E-10  -1.42110795E-10  -1.15603191E-07   5.85506452E-08   1.71741377E-07   0.00000000E+00  -5.97088841E-18   2.07686215E-18   7.87745911E-19   1.84942837E-17  -3.36918836E-11  -4.52964252E-08  -4.61201205E-08   0.00000000E+00  -2.83702955E-08  -1.93030445E-16  -6.92870132E-16  -6.81329599E-16   2.62667749E-17  -3.13854599E-14   3.33055978E-14  -1.38514871E-11  -2.60164425E-14  -3.40963654E-09  -3.85412364E-14  -3.90151773E-15  -5.65374178E-10  -3.90435160E-15   1.72063480E-15
   2.53750000E+02   5.00000000E-01   5.00000000E-01  -1.30992473E-07  -4.68527178E-08  -1.22663782E-15  -8.52916335E-16  -8.32554131E-16   1.41851863E-08  -6.33733701E-17   5.18347185E-18   2.21133268E-14   7.54280556E-17   9.39197820E-08  -3.60405962E-17  -3.43437067E-18  -3.52042583E-17  -3.29010295E-17  -2.00080462E-10  -1.39839188E-10  -1.15603190E-07   5.72346153E-08   1.72482913E-07   0.00000000E+00  -5.90471177E-18   2.04313104E-18   1.06950109E-18   1.86902909E-17  -3.36857710E-11  -4.53122370E-08  -4.61201205E-08   0.00000000E+00  -2.83702955E-08  -1.93028400E-16  -6.92870132E-16  -6.81329599E-16   2.60401960E-17  -3.13835968E-14   3.34534386E-14  -1.43010867E-11  -2.61326047E-14  -3.40963654E-09  -3.85412364E-14  -3.90163676E-15  -5.65355174E-10  -3.90435160E-15   1.72063480E-15
   2.71250000E+02   5.00000000E-01   5.00000000E-01  -1.30992473E-07  -4.67099988E-08  -1.22663752E-15  -8.53762389E-16  -8.33441943E-16   1.41851863E-08  -6.33801669E-17   5.52107445E-18   2.03780581E-14   7.94701421E-17   9.34008934E-08  -3.60187738E-17  -3.43208064E-18  -3.51052189E-17  -3.28011011E-17  -2.00056217E-10  -1.37566649E-10  -1.15603190E-07   5.58741479E-08   1.73248758E-07   0.00000000E+00  -5.84088008E-18   2.00536119E-18   1.34084994E-18   1.88390961E-17  -3.36813458E-11  -4.53261892E-08  -4.61201205E-08   0.00000000E+00  -2.83702954E-08  -1.93026511E-16  -6.92870132E-16  -6.81329599E-16   2.58217022E-17  -3.13861069E-14   3.34545597E-14  -1.47418505E-11  -2.62401866E-14  -3.40963654E-09  -3.85412364E-14  -3.90169688E-15  -5.65335899E-10  -3.90435160E-15   1.72063480E-15
   2.88750000E+02   5.00000000E-01   5.00000000E-01  -1.30992472E-07  -4.65580201E-08  -1.22663721E-15  -8.54784767E-16  -8.34475152E-16   1.41851863E-08  -6.33873435E-17   5.87969859E-18   1.87240104E-14   8.36531415E-17   9.28865632E-08  -3.59971684E-17  -3.43055334E-18  -3.50073437E-17  -3.27084570E-17  -2.00030787E-10  -1.35297547E-10  -1.15603190E-07   5.44999378E-08   1.74020725E-07   0.00000000E+00  -5.77835391E-18   1.96537809E-18   1.60628431E-18   1.89562539E-17  -3.36781077E-11  -4.53383792E-08  -4.61201205E-08   0.00000000E+00  -2.83702953E-08  -1.93024728E-16  -6.92870132E-16  -6.81329599E-16   2.56100883E-17  -3.13935130E-14   3.33143712E-14  -1.51750109E-11  -2.63398353E-14  -3.40963654E-09  -3.85412364E-14  -3.90170055E-15  -5.65316369E-10  -3.90435160E-15   1.72063480E-15
   3.06250000E+02   5.00000000E-01   5.00000000E-01  -1.30992472E-07  -4.63969660E-08  -1.22663689E-15  -8.55968402E-16  -8.35643319E-16   1.41851862E-08  -6.33949167E-17   6.25687156E-18   1.71696470E-14   8.79658960E-17   9.23824867E-08  -3.59755908E-17  -3.42957927E-18  -3.49097592E-17  -3.26211301E-17  -2.00004194E-10  -1.33035247E-10  -1.15603190E-07   5.31265008E-08   1.74790614E-07   0.00000000E+00  -5.71661988E-18   1.92412666E-18   1.86801797E-18   1.90498264E-17  -3.36757517E-11  -4.53489464E-08  -4.61201205E-08   0.00000000E+00  -2.83702953E-08  -1.93023022E-16  -6.92870132E-16  -6.81329599E-16   2.54039997E-17  -3.14060593E-14   3.30389062E-14  -1.56010999E-11  -2.64321352E-14  -3.40963654E-09  -3.85412364E-14  -3.90165003E-15  -5.65296586E-10  -3.90435160E-15   1.72063480E-15
   3.23750000E+02   5.00000000E-01   5.00000000E-01  -1.30992471E-07  -4.62269849E-08  -1.22663656E-15  -8.57304411E-16  -8.36940774E-16   1.41851862E-08  -6.34029062E-17   6.65102926E-18   1.57249612E-14   9.24047327E-17   9.18882202E-08  -3.59539558E-17  -3.42904798E-18  -3.48120744E-17  -3.25381596E-17  -1.99976443E-10  -1.30782112E-10  -1.15603190E-07   5.17594713E-08   1.75555681E-07   0.00000000E+00  -5.65549960E-18   1.88204185E-18   2.12681441E-18   1.91233629E-17  -3.36741048E-11  -4.53580568E-08  -4.61201205E-08   0.00000000E+00  -2.83702952E-08  -1.93021380E-16  -6.92870132E-16  -6.81329599E-16   2.52022198E-17  -3.14237790E-14   3.26347033E-14  -1.60202721E-11  -2.65176150E-14  -3.40963654E-09  -3.85412364E-14  -3.90154735E-15  -5.65276545E-10  -3.90435160E-15   1.72063480E-15
   3.41250000E+02   5.00000000E-01   5.00000000E-01  -1.30992470E-07  -4.60481851E-08  -1.22663621E-15  -8.58790279E-16  -8.38366870E-16   1.41851862E-08  -6.34113348E-17   7.06135485E-18   1.43935223E-14   9.69721319E-17   9.14003670E-08  -3.59322501E-17  -3.42891028E-18  -3.47142317E-17  -3.24592343E-17  -1.99947523E-10  -1.28539609E-10  -1.15603190E-07   5.03999450E-08   1.76315938E-07   0.00000000E+00  -5.59502007E-18   1.83927959E-18   2.38254859E-18   1.91778308E-17  -3.36730798E-11  -4.53658890E-08  -4.61201205E-08   0.00000000E+00  -2.83702951E-08  -1.93019797E-16  -6.92870132E-16  -6.81329599E-16   2.50037747E-17  -3.14465532E-14   3.21086957E-14  -1.64324787E-11  -2.65967534E-14  -3.40963654E-09  -3.85412363E-14  -3.90139434E-15  -5.65256231E-10  -3.90435160E-15   1.72063480E-15
   3.58750000E+02   5.00000000E-01   5.00000000E-01  -1.30992469E-07  -4.58606359E-08  -1.22663585E-15  -8.60429729E-16  -8.39925972E-16   1.41851861E-08  -6.34202285E-17   7.48760667E-18   1.31742592E-14   1.01675195E-16   9.09144664E-08  -3.59105072E-17  -3.42915167E-18  -3.46163889E-17  -3.23844284E-17  -1.99917407E-10  -1.26308490E-10  -1.15603190E-07   4.90470563E-08   1.77072556E-07   0.00000000E+00  -5.53532305E-18   1.79586116E-18   2.63459953E-18   1.92128848E-17  -3.36726403E-11  -4.53726215E-08  -4.61201205E-08   0.00000000E+00  -2.83702951E-08  -1.93018272E-16  -6.92870132E-16  -6.81329599E-16   2.48079421E-17  -3.14741602E-14   3.14681058E-14  -1.68375626E-11  -2.66699849E-14  -3.40963654E-09  -3.85412363E-14  -3.90119266E-15  -5.65235626E-10  -3.90435160E-15   1.72063480E-15
   3.76250000E+02   5.00000000E-01   5.00000000E-01  -1.30992468E-07  -4.56643769E-08  -1.22663548E-15  -8.62232142E-16  -8.41627082E-16   1.41851861E-08  -6.34296160E-17   7.92994520E-18   1.20629543E-14   1.06524089E-16   9.04260815E-08  -3.58887865E-17  -3.42977361E-18  -3.45188232E-17  -3.23140047E-17  -1.99886063E-10  -1.24089014E-10  -1.15603190E-07   4.76994810E-08   1.77826927E-07   0.00000000E+00  -5.47660034E-18   1.75176255E-18   2.88213068E-18   1.92277036E-17  -3.36727762E-11  -4.53784230E-08  -4.61201205E-08   0.00000000E+00  -2.83702950E-08  -1.93016811E-16  -6.92870132E-16  -6.81329599E-16   2.46142173E-17  -3.15063173E-14   3.07203502E-14  -1.72353115E-11  -2.67377036E-14  -3.40963654E-09  -3.85412363E-14  -3.90094379E-15  -5.65214706E-10  -3.90435160E-15   1.72063480E-15
   3.93750000E+02   5.00000000E-01   5.00000000E-01  -1.30992467E-07  -4.54594299E-08  -1.22663509E-15  -8.64211700E-16  -8.43483226E-16   1.41851860E-08  -6.34395283E-17   8.38877796E-18   1.10534381E-14   1.11530699E-16   8.99313200E-08  -3.58671576E-17  -3.43078109E-18  -3.44218569E-17  -3.22482732E-17  -1.99853452E-10  -1.21881174E-10  -1.15603190E-07   4.63562401E-08   1.78580184E-07   0.00000000E+00  -5.41904914E-18   1.70696597E-18   3.12428297E-18   1.92215114E-17  -3.36734858E-11  -4.53834458E-08  -4.61201205E-08   0.00000000E+00  -2.83702949E-08  -1.93015416E-16  -6.92870132E-16  -6.81329599E-16   2.44222646E-17  -3.15427118E-14   2.98729513E-14  -1.76254878E-11  -2.68002681E-14  -3.40963654E-09  -3.85412363E-14  -3.90064907E-15  -5.65193450E-10  -3.90435160E-15   1.72063479E-15
   4.11250000E+02   5.00000000E-01   5.00000000E-01  -1.30992466E-07  -4.52458114E-08  -1.22663469E-15  -8.66386490E-16  -8.45510779E-16   1.41851860E-08  -6.34499990E-17   8.86464546E-18   1.01384922E-14   1.16707677E-16   8.94269182E-08  -3.58456891E-17  -3.43217577E-18  -3.43258082E-17  -3.21875076E-17  -1.99819531E-10  -1.19684876E-10  -1.15603189E-07   4.50170194E-08   1.79333021E-07   0.00000000E+00  -5.36284607E-18   1.66148322E-18   3.36028740E-18   1.91938441E-17  -3.36747657E-11  -4.53878231E-08  -4.61201205E-08   0.00000000E+00  -2.83702948E-08  -1.93014091E-16  -6.92870132E-16  -6.81329599E-16   2.42318714E-17  -3.15830227E-14   2.89334603E-14  -1.80078451E-11  -2.68580044E-14  -3.40963654E-09  -3.85412363E-14  -3.90030968E-15  -5.65171831E-10  -3.90435160E-15   1.72063479E-15
   4.28750000E+02   5.00000000E-01   5.00000000E-01  -1.30992465E-07  -4.50235400E-08  -1.22663428E-15  -8.68777730E-16  -8.47728893E-16   1.41851859E-08  -6.34610635E-17   9.35816424E-18   9.31048449E-15   1.22068010E-16   8.89100210E-08  -3.58244444E-17  -3.43395393E-18  -3.42309694E-17  -3.21319145E-17  -1.99784256E-10  -1.17500026E-10  -1.15603189E-07   4.36821558E-08   1.80085743E-07   0.00000000E+00  -5.30813825E-18   1.61535829E-18   3.58950365E-18   1.91446081E-17  -3.36766075E-11  -4.53916703E-08  -4.61201205E-08  -4.63511153E-33  -2.83702947E-08  -1.93012839E-16  -6.92870132E-16  -6.81329599E-16   2.40429148E-17  -3.16269310E-14   2.79093874E-14  -1.83821378E-11  -2.69112099E-14  -3.40963654E-09  -3.85412362E-14  -3.89992666E-15  -5.65149829E-10  -3.90435160E-15   1.72063479E-15
   4.46250000E+02   5.00000000E-01   5.00000000E-01  -1.30992464E-07  -4.47926375E-08  -1.22663385E-15  -8.71409225E-16  -8.50159080E-16   1.41851859E-08  -6.34727599E-17   9.87002398E-18   8.56178201E-15   1.27624985E-16   8.83778446E-08  -3.58034820E-17  -3.43610757E-18  -3.41376101E-17  -3.20816426E-17  -1.99747581E-10  -1.15326535E-10  -1.15603189E-07   4.23524457E-08   1.80838409E-07   0.00000000E+00  -5.25504712E-18   1.56865806E-18   3.81140340E-18   1.90740055E-17  -3.36789989E-11  -4.53950875E-08  -4.61201205E-08   0.00000000E+00  -2.83702946E-08  -1.93011662E-16  -6.92870132E-16  -6.81329599E-16   2.38553414E-17  -3.16741225E-14   2.68081433E-14  -1.87481266E-11  -2.69601554E-14  -3.40963654E-09  -3.85412362E-14  -3.89950093E-15  -5.65127418E-10  -3.90435160E-15   1.72063479E-15
   4.63750000E+02   5.00000000E-01   5.00000000E-01  -1.30992462E-07  -4.45531247E-08  -1.22663341E-15  -8.74307043E-16  -8.52824980E-16   1.41851858E-08  -6.34851282E-17   1.04010154E-17   7.88499617E-15   1.33392340E-16   8.78274151E-08  -3.57828587E-17  -3.43862677E-18  -3.40459906E-17  -3.20368106E-17  -1.99709456E-10  -1.13164266E-10  -1.15603189E-07   4.10289186E-08   1.81590996E-07   0.00000000E+00  -5.20367787E-18   1.52146007E-18   4.02553006E-18   1.89824135E-17  -3.36819264E-11  -4.53981634E-08  -4.61201205E-08  -3.24569182E-19  -2.83702945E-08  -1.93010560E-16  -6.92870132E-16  -6.81329599E-16   2.36691566E-17  -3.17242878E-14   2.56369874E-14  -1.91055819E-11  -2.70050882E-14  -3.40963654E-09  -3.85412362E-14  -3.89903329E-15  -5.65104577E-10  -3.90435160E-15   1.72063479E-15
   4.81250000E+02   5.00000000E-01   5.00000000E-01  -1.30992461E-07  -4.43050165E-08  -1.22663295E-15  -8.77499445E-16  -8.55752328E-16   1.41851858E-08  -6.34982114E-17   1.09520565E-17   7.27312040E-15   1.39384294E-16   8.72555075E-08  -3.57626322E-17  -3.44150135E-18  -3.39563747E-17  -3.19975264E-17  -1.99669829E-10  -1.11012984E-10  -1.15603189E-07   3.97126890E-08   1.82343478E-07   0.00000000E+00  -5.15412646E-18   1.47384438E-18   4.23146835E-18   1.88702992E-17  -3.36853773E-11  -4.54009761E-08  -4.61201205E-08  -1.97969602E-18  -2.83702943E-08  -1.93009535E-16  -6.92870132E-16  -6.81329599E-16   2.34844170E-17  -3.17771215E-14   2.44029862E-14  -1.94542846E-11  -2.70462340E-14  -3.40963654E-09  -3.85412361E-14  -3.89852441E-15  -5.65081281E-10  -3.90435160E-15   1.72063478E-15
   4.98750000E+02   5.00000000E-01   5.00000000E-01  -1.30992459E-07  -4.40483218E-08  -1.22663248E-15  -8.81017075E-16  -8.58969134E-16   1.41851857E-08  -6.35120551E-17   1.15241893E-17   6.71960672E-15   1.45615305E-16   8.66587968E-08  -3.57428607E-17  -3.44472072E-18  -3.38690272E-17  -3.19638857E-17  -1.99628643E-10  -1.08872359E-10  -1.15603188E-07   3.84049266E-08   1.83095820E-07   0.00000000E+00  -5.10647942E-18   1.42589265E-18   4.42884547E-18   1.87382120E-17  -3.36893398E-11  -4.54035927E-08  -4.61201205E-08  -4.39022806E-18  -2.83702942E-08  -1.93008589E-16  -6.92870132E-16  -6.81329599E-16   2.33012219E-17  -3.18323261E-14   2.31129788E-14  -1.97940276E-11  -2.70837990E-14  -3.40963654E-09  -3.85412361E-14  -3.89797489E-15  -5.65057506E-10  -3.90435160E-15   1.72063477E-15
   5.16250000E+02   5.00000000E-01   5.00000000E-01  -1.30992457E-07  -4.37830508E-08  -1.22663199E-15  -8.84893434E-16  -8.62506109E-16   1.41851856E-08  -6.35267084E-17   1.21185393E-17   6.21841244E-15   1.52099553E-16   8.60341284E-08  -3.57235988E-17  -3.44827222E-18  -3.37841961E-17  -3.19359476E-17  -1.99585838E-10  -1.06742038E-10  -1.15603188E-07   3.71069238E-08   1.83847896E-07   0.00000000E+00  -5.06080559E-18   1.37769315E-18   4.61736633E-18   1.85868475E-17  -3.36937998E-11  -4.54060670E-08  -4.61201205E-08  -7.85519764E-18  -2.83702941E-08  -1.93007722E-16  -6.92870132E-16  -6.81329599E-16   2.31197009E-17  -3.18896166E-14   2.17735500E-14  -2.01246154E-11  -2.71179718E-14  -3.40963654E-09  -3.85412361E-14  -3.89738518E-15  -5.65033228E-10  -3.90435160E-15   1.72063476E-15
   5.33750000E+02   5.00000000E-01   5.00000000E-01  -1.30992454E-07  -4.35092299E-08  -1.22663148E-15  -8.89165617E-16  -8.66397313E-16   1.41851856E-08  -6.35422239E-17   1.27362476E-17   5.76403031E-15   1.58850348E-16   8.53787638E-08  -3.57048918E-17  -3.45213873E-18  -3.37020849E-17  -3.19136981E-17  -1.99541351E-10  -1.04621765E-10  -1.15603188E-07   3.58201920E-08   1.84599401E-07   0.00000000E+00  -5.01714400E-18   1.32934757E-18   4.79686594E-18   1.84171390E-17  -3.36987377E-11  -4.54084364E-08  -4.61201205E-08  -1.27885514E-17  -2.83702939E-08  -1.93006935E-16  -6.92870132E-16  -6.81329599E-16   2.29399988E-17  -3.19487275E-14   2.03910105E-14  -2.04458635E-11  -2.71489249E-14  -3.40963654E-09  -3.85412360E-14  -3.89675569E-15  -5.65008422E-10  -3.90435160E-15   1.72063474E-15
   5.51250000E+02   5.00000000E-01   5.00000000E-01  -1.30992452E-07  -4.32269188E-08  -1.22663096E-15  -8.93875283E-16  -8.70681014E-16   1.41851855E-08  -6.35586583E-17   1.33784052E-17   5.35150328E-15   1.65879725E-16   8.46904747E-08  -3.56867698E-17  -3.45629715E-18  -3.36228274E-17  -3.18970224E-17  -1.99495122E-10  -1.02511500E-10  -1.15603187E-07   3.45465090E-08   1.85349815E-07   0.00000000E+00  -4.97549382E-18   1.28097459E-18   4.96735199E-18   1.82303177E-17  -3.37041255E-11  -4.54107213E-08  -4.61201205E-08  -1.97625367E-17  -2.83702937E-08  -1.93006225E-16  -6.92870132E-16  -6.81329599E-16   2.27622627E-17  -3.20094174E-14   1.89713825E-14  -2.07575983E-11  -2.71768160E-14  -3.40963654E-09  -3.85412360E-14  -3.89608669E-15  -5.64983066E-10  -3.90435160E-15   1.72063471E-15
   5.68750000E+02   5.00000000E-01   5.00000000E-01  -1.30992449E-07  -4.29362217E-08  -1.22663042E-15  -8.99069761E-16  -8.75400673E-16   1.41851854E-08  -6.35760726E-17   1.40460212E-17   4.97641969E-15   1.73198470E-16   8.39674274E-08  -3.56692458E-17  -3.46071856E-18  -3.35464789E-17  -3.18857019E-17  -1.99447089E-10  -1.00411483E-10  -1.15603187E-07   3.32878683E-08   1.86098444E-07   0.00000000E+00  -4.93581279E-18   1.23270715E-18   5.12901165E-18   1.80278942E-17  -3.37099271E-11  -4.54129268E-08  -4.61201205E-08  -2.95666994E-17  -2.83702936E-08  -1.93005590E-16  -6.92870132E-16  -6.81329599E-16   2.25866327E-17  -3.20714692E-14   1.75203913E-14  -2.10596568E-11  -2.72017894E-14  -3.40963654E-09  -3.85412360E-14  -3.89537841E-15  -5.64957141E-10  -3.90435160E-15   1.72063466E-15
   5.86250000E+02   5.00000000E-01   5.00000000E-01  -1.30992446E-07  -4.26372898E-08  -1.22662986E-15  -9.04803219E-16  -8.80605999E-16   1.41851853E-08  -6.35945328E-17   1.47400439E-17   4.63488580E-15   1.80816627E-16   8.32079048E-08  -3.56523188E-17  -3.46537053E-18  -3.34730292E-17  -3.18794414E-17  -1.99397192E-10  -9.83222015E-11  -1.15603187E-07   3.20463251E-08   1.86844542E-07   0.00000000E+00  -4.89802642E-18   1.18468300E-18   5.28217143E-18   1.78115514E-17  -3.37161010E-11  -4.54150467E-08  -4.61201205E-08  -4.32872924E-17  -2.83702934E-08  -1.93005026E-16  -6.92870132E-16  -6.81329599E-16   2.24132396E-17  -3.21346869E-14   1.60434603E-14  -2.13518860E-11  -2.72239770E-14  -3.40963654E-09  -3.85412359E-14  -3.89463095E-15  -5.64930628E-10  -3.90435160E-15   1.72063459E-15
   6.03750000E+02   5.00000000E-01   5.00000000E-01  -1.30992443E-07  -4.23303094E-08  -1.22662928E-15  -9.11137863E-16  -8.86354045E-16   1.41851852E-08  -6.36141102E-17   1.54614359E-17   4.32347803E-15   1.88744359E-16   8.24099878E-08  -3.56359808E-17  -3.47022085E-18  -3.34024376E-17  -3.18779214E-17  -1.99345371E-10  -9.62442730E-11  -1.15603186E-07   3.08237824E-08   1.87587475E-07   0.00000000E+00  -4.86204642E-18   1.13703141E-18   5.42721804E-18   1.75829742E-17  -3.37226054E-11  -4.54170697E-08  -4.61201205E-08  -6.24125502E-17  -2.83702932E-08  -1.93004530E-16  -6.92870132E-16  -6.81329599E-16   2.22422087E-17  -3.21988889E-14   1.45457111E-14  -2.16341438E-11  -2.72434995E-14  -3.40963654E-09  -3.85412359E-14  -3.89384437E-15  -5.64903509E-10  -3.90435160E-15   1.72063447E-15
   6.21250000E+02   5.00000000E-01   5.00000000E-01  -1.30992439E-07  -4.20154810E-08  -1.22662869E-15  -9.18145181E-16  -8.92710353E-16   1.41851851E-08  -6.36348823E-17   1.62112799E-17   4.03918225E-15   1.96992862E-16   8.15713401E-08  -3.56202271E-17  -3.47524129E-18  -3.33346764E-17  -3.18808570E-17  -1.99291561E-10  -9.41782678E-11  -1.15603186E-07   2.96217873E-08   1.88326856E-07   0.00000000E+00  -4.82779249E-18   1.08986046E-18   5.56450473E-18   1.73436721E-17  -3.37294039E-11  -4.54189844E-08  -4.61201205E-08  -8.89690748E-17  -2.83702930E-08  -1.93004096E-16  -6.92870132E-16  -6.81329599E-16   2.20736661E-17  -3.22639007E-14   1.30319652E-14  -2.19062988E-11  -2.72604674E-14  -3.40963654E-09  -3.85412358E-14  -3.89301864E-15  -5.64875765E-10  -3.90435160E-15   1.72063430E-15