 TITLE = "Mineral Rate (mol/m^3/sec)" 
VARIABLES = "X"          "Y"              "Z"            "Forsterite"     "Fayalite"       "Saponite(Mg)"   "Enstatite(alph" "Ferrosilite(al" "Anorthite"      "Albite(low)"    "Clinochlore"    "Sudoite"        "Montmorillonit" "Kaolinite"      "Tremolite"      "Pargasite"      "Anhydrite"      "Epidote"        "Scolecite"      "Pyrite"         "FeS(am)"        "Quartz(alpha)" 
 ZONE I=         100 , J=           1 , K=           1  F=POINT
   1.75000000E+01   5.00000000E-01   5.00000000E-01  -3.52258466E-07  -4.60758920E-07   3.80205038E-07  -2.00433681E-10  -1.44819105E-10  -1.24104040E-07  -2.06077137E-07   2.69073487E-07  -1.84598700E-14  -5.79232767E-15  -3.15773744E-08  -4.85407836E-08  -4.98293830E-08  -1.97540907E-14  -5.37691820E-16  -2.27486621E-10  -7.16074046E-15  -6.97737726E-15   9.85181202E-18
   5.25000000E+01   5.00000000E-01   5.00000000E-01  -3.52258466E-07  -4.20116437E-07   3.84652866E-07  -2.00427975E-10  -1.18674214E-10  -1.24104040E-07  -1.42410871E-07   2.36356755E-07  -9.59212600E-15  -4.98142484E-15  -3.14666975E-08  -4.85407428E-08  -4.98293830E-08  -1.96185758E-14   1.18281089E-16  -2.27473474E-10  -7.16074046E-15  -6.97572147E-15   1.11397775E-17
   8.75000000E+01   5.00000000E-01   5.00000000E-01  -3.52258465E-07  -3.66519858E-07   3.64691036E-07  -2.00416438E-10  -9.64493492E-11  -1.24104040E-07  -1.15865767E-07   2.26399992E-07  -7.69550869E-15  -4.42952471E-15  -3.13889890E-08  -4.85405954E-08  -4.98293830E-08  -1.94652778E-14   1.45829674E-17  -2.27463910E-10  -7.16074046E-15  -6.97441898E-15   1.13213873E-17
   1.22500000E+02   5.00000000E-01   5.00000000E-01  -3.52258465E-07  -3.11221264E-07   3.38506726E-07  -2.00403572E-10  -7.86458957E-11  -1.24104040E-07  -9.61999095E-08   2.20937369E-07  -7.22459606E-15  -3.87005452E-15  -3.13079736E-08  -4.85405227E-08  -4.98293830E-08  -1.92918963E-14   4.42717504E-20  -2.27453786E-10  -7.16074046E-15  -6.97354985E-15   1.13314262E-17
   1.57500000E+02   5.00000000E-01   5.00000000E-01  -3.52258464E-07  -2.61024589E-07   3.13936836E-07  -2.00389844E-10  -6.49084143E-11  -1.24104040E-07  -7.88461254E-08   2.16344885E-07  -7.09819791E-15  -3.23975347E-15  -3.12155134E-08  -4.85405273E-08  -4.98293830E-08  -1.90959393E-14  -5.89645660E-18  -2.27442192E-10  -7.16074046E-15  -6.97306589E-15   1.12821712E-17
   1.92500000E+02   5.00000000E-01   5.00000000E-01  -3.52258464E-07  -2.18456762E-07   2.92980472E-07  -2.00375230E-10  -5.45661954E-11  -1.24104040E-07  -6.40046599E-08   2.12383511E-07  -7.05918780E-15  -2.55033773E-15  -3.11123049E-08  -4.85404999E-08  -4.98293830E-08  -1.88746812E-14  -1.08859746E-17  -2.27429214E-10  -7.16074046E-15  -6.97288080E-15   1.11841149E-17
   2.27500000E+02   5.00000000E-01   5.00000000E-01  -3.52258463E-07  -1.83747183E-07   2.75883108E-07  -2.00359682E-10  -4.69322576E-11  -1.24104040E-07  -5.19446140E-08   2.09147789E-07  -7.04033640E-15  -1.82265323E-15  -3.10000702E-08  -4.85404139E-08  -4.98293830E-08  -1.86251170E-14  -1.52639722E-17  -2.27415056E-10  -7.16074046E-15  -6.97291321E-15   1.10436118E-17
   2.62500000E+02   5.00000000E-01   5.00000000E-01  -3.52258462E-07  -1.56122190E-07   2.62295924E-07  -2.00343170E-10  -4.14040952E-11  -1.24104039E-07  -4.25641884E-08   2.06647359E-07  -7.02307016E-15  -1.07284790E-15  -3.08800485E-08  -4.85403786E-08  -4.98293830E-08  -1.83439129E-14  -1.88837285E-17  -2.27399863E-10  -7.16074046E-15  -6.97309715E-15   1.08694890E-17
   2.97500000E+02   5.00000000E-01   5.00000000E-01  -3.52258460E-07  -1.34477475E-07   2.51688975E-07  -2.00325675E-10  -3.74890319E-11  -1.24104039E-07  -3.55486860E-08   2.04815600E-07  -7.00178843E-15  -3.11007777E-16  -3.07528780E-08  -4.85403887E-08  -4.98293830E-08  -1.80273679E-14  -2.17101847E-17  -2.27383705E-10  -7.16074046E-15  -6.97338222E-15   1.06705853E-17
   3.32500000E+02   5.00000000E-01   5.00000000E-01  -3.52258459E-07  -1.17692281E-07   2.43514444E-07  -2.00307186E-10  -3.47976212E-11  -1.24104038E-07  -3.05162693E-08   2.03554910E-07  -6.97418316E-15   4.57567015E-16  -3.06187461E-08  -4.85403963E-08  -4.98293830E-08  -1.76713696E-14  -2.37900280E-17  -2.27366597E-10  -7.16074046E-15  -6.97373097E-15   1.04545189E-17
   3.67500000E+02   5.00000000E-01   5.00000000E-01  -3.52258457E-07  -1.04763400E-07   2.37274976E-07  -2.00287687E-10  -3.30278475E-11  -1.24104037E-07  -2.70942659E-08   2.02763396E-07  -6.93847268E-15   1.23081719E-15  -3.04775456E-08  -4.85404392E-08  -4.98293830E-08  -1.72713382E-14  -2.51913261E-17  -2.27348521E-10  -7.16074046E-15  -6.97411613E-15   1.02274537E-17
   4.02500000E+02   5.00000000E-01   5.00000000E-01  -3.52258455E-07  -9.48546929E-08   2.32551640E-07  -2.00267165E-10  -3.19500023E-11  -1.24104036E-07  -2.49509220E-08   2.02346080E-07  -6.89284236E-15   2.00887388E-15  -3.03289577E-08  -4.85405207E-08  -4.98293830E-08  -1.68221661E-14  -2.59679540E-17  -2.27329429E-10  -7.16074046E-15  -6.97451810E-15   9.99411725E-18
   4.37500000E+02   5.00000000E-01   5.00000000E-01  -3.52258452E-07  -8.72952283E-08   2.29002297E-07  -2.00245605E-10  -3.13907269E-11  -1.24104034E-07  -2.38049323E-08   2.02220014E-07  -6.83511988E-15   2.79324246E-15  -3.01725230E-08  -4.85406279E-08  -4.98293830E-08  -1.63181451E-14  -2.61687576E-17  -2.27309260E-10  -7.16074046E-15  -6.97492295E-15   9.75808596E-18
   4.72500000E+02   5.00000000E-01   5.00000000E-01  -3.52258450E-07  -8.15601283E-08   2.26353337E-07  -2.00222989E-10  -3.12198504E-11  -1.24104032E-07  -2.34231247E-08   2.02314564E-07  -6.76258526E-15   3.58632808E-15  -3.00076808E-08  -4.85407560E-08  -4.98293830E-08  -1.57528779E-14  -2.58348225E-17  -2.27287940E-10  -7.16074046E-15  -6.97532095E-15   9.52205566E-18
   5.07500000E+02   5.00000000E-01   5.00000000E-01  -3.52258446E-07  -7.72467944E-08   2.24389317E-07  -2.00199299E-10  -3.13401493E-11  -1.24104028E-07  -2.36142148E-08   2.02570066E-07  -6.67184759E-15   4.39121137E-15  -2.98337828E-08  -4.85409006E-08  -4.98293830E-08  -1.51191716E-14  -2.49998615E-17  -2.27265387E-10  -7.16074046E-15  -6.97570539E-15   9.28804621E-18
   5.42500000E+02   5.00000000E-01   5.00000000E-01  -3.52258443E-07  -7.40507659E-08   2.22941913E-07  -2.00174517E-10  -3.16792241E-11  -1.24104024E-07  -2.42221155E-08   2.02936360E-07  -6.55866611E-15   5.21151634E-15  -2.96501006E-08  -4.85410575E-08  -4.98293830E-08  -1.44089106E-14  -2.36941957E-17  -2.27241509E-10  -7.16074046E-15  -6.97607182E-15   9.05756629E-18
   5.77500000E+02   5.00000000E-01   5.00000000E-01  -3.52258439E-07  -7.17443979E-08   2.21880507E-07  -2.00148621E-10  -3.21832843E-11  -1.24104019E-07  -2.51199447E-08   2.03371407E-07  -6.41771771E-15   6.05132469E-15  -2.94558298E-08  -4.85412230E-08  -4.98293830E-08  -1.36129052E-14  -2.19469485E-17  -2.27216209E-10  -7.16074046E-15  -6.97641739E-15   8.83173526E-18
   6.12500000E+02   5.00000000E-01   5.00000000E-01  -3.52258434E-07  -7.01590382E-08   2.21104591E-07  -2.00121593E-10  -3.28124524E-11  -1.24104012E-07  -2.62052652E-08   2.03840201E-07  -6.24230011E-15   6.91508176E-15  -2.92500962E-08  -4.85413949E-08  -4.98293830E-08  -1.27207103E-14  -1.97878685E-17  -2.27189379E-10  -7.16074046E-15  -6.97674049E-15   8.61136954E-18
   6.47500000E+02   5.00000000E-01   5.00000000E-01  -3.52258429E-07  -6.91705479E-08   2.20537847E-07  -2.00093409E-10  -3.35372332E-11  -1.24104004E-07  -2.73965584E-08   2.04314022E-07  -6.02395769E-15   7.80745801E-15  -2.90319681E-08  -4.85415718E-08  -4.98293830E-08  -1.17204087E-14  -1.72486056E-17  -2.27160909E-10  -7.16074046E-15  -6.97704035E-15   8.39704270E-18
   6.82500000E+02   5.00000000E-01   5.00000000E-01  -3.52258424E-07  -6.86877621E-08   2.20123606E-07  -2.00064048E-10  -3.43358667E-11  -1.24103992E-07  -2.86306875E-08   2.04769969E-07  -5.75201854E-15   8.73315048E-15  -2.88004785E-08  -4.85417533E-08  -4.98293830E-08  -1.05983535E-14  -1.43632974E-17  -2.27130684E-10  -7.16074046E-15  -6.97731688E-15   8.18912749E-18
   7.17500000E+02   5.00000000E-01   5.00000000E-01  -3.52258419E-07  -6.86434446E-08   2.19821354E-07  -2.00033485E-10  -3.51923485E-11  -1.24103978E-07  -2.98610262E-08   2.05190644E-07  -5.41303188E-15   9.69662422E-15  -2.85546569E-08  -4.85419392E-08  -4.98293830E-08  -9.33885938E-15  -1.11684822E-17  -2.27098590E-10  -7.16074046E-15  -6.97757046E-15   7.98782612E-18
   7.52500000E+02   5.00000000E-01   5.00000000E-01  -3.52258414E-07  -6.89873269E-08   2.19603958E-07  -2.00001696E-10  -3.60949538E-11  -1.24103959E-07  -3.10559331E-08   2.05563906E-07  -4.99009482E-15   1.07018053E-14  -2.82935707E-08  -4.85421300E-08  -4.98293830E-08  -7.92383258E-15  -7.70232588E-18  -2.27064519E-10  -7.16074046E-15  -6.97780180E-15   7.79319386E-18
   7.87500000E+02   5.00000000E-01   5.00000000E-01  -3.52258411E-07  -6.96808828E-08   2.19455377E-07  -1.99968652E-10  -3.70351380E-11  -1.24103935E-07  -3.21973013E-08   2.05882581E-07  -4.46205924E-15   1.17517461E-14  -2.80163738E-08  -4.85423260E-08  -4.98293830E-08  -6.33232713E-15  -4.00334027E-18  -2.27028373E-10  -7.16074046E-15  -6.97801190E-15   7.60515977E-18
   8.22500000E+02   5.00000000E-01   5.00000000E-01  -3.52258408E-07  -7.06935328E-08   2.19368621E-07  -1.99934324E-10  -3.80067214E-11  -1.24103905E-07  -3.32789904E-08   2.06144075E-07  -3.80261280E-15   1.28482885E-14  -2.77223570E-08  -4.85425260E-08  -4.98293830E-08  -4.54001026E-15  -1.08765145E-19  -2.26990069E-10  -7.16074046E-15  -6.97820189E-15   7.42354673E-18
   8.57500000E+02   5.00000000E-01   5.00000000E-01  -3.52258409E-07  -7.19999872E-08   2.19343849E-07  -1.99898680E-10  -3.90052759E-11  -1.24103867E-07  -3.43050442E-08   2.06349860E-07  -2.97923578E-15   1.39917521E-14  -2.74109972E-08  -4.85427276E-08  -4.98293830E-08  -2.51851700E-15   3.94695576E-18  -2.26949548E-10  -7.16074046E-15  -6.97837303E-15   7.24809250E-18
   8.92500000E+02   5.00000000E-01   5.00000000E-01  -3.52258416E-07  -7.35784603E-08   2.19386513E-07  -1.99861685E-10  -4.00276570E-11  -1.24103820E-07  -3.52876830E-08   2.06504824E-07  -1.95205309E-15   1.51806734E-14  -2.70820022E-08  -4.85429275E-08  -4.98293830E-08  -2.34668637E-16   8.13348858E-18  -2.26906773E-10  -7.16074046E-15  -6.97852664E-15   7.07847205E-18
   9.27500000E+02   5.00000000E-01   5.00000000E-01  -3.52258431E-07  -7.54095352E-08   2.19505591E-07  -1.99823300E-10  -4.10716381E-11  -1.24103760E-07  -3.62451320E-08   2.06616524E-07  -6.72631335E-16   1.64116212E-14  -2.67353456E-08  -4.85431247E-08  -4.98293830E-08   2.35047661E-15   1.24254544E-17  -2.26861740E-10  -7.16074046E-15  -6.97866407E-15   6.91432051E-18
   9.62500000E+02   5.00000000E-01   5.00000000E-01  -3.52258460E-07  -7.74755262E-08   2.19711990E-07  -1.99783486E-10  -4.21356325E-11  -1.24103685E-07  -3.71993973E-08   2.06694369E-07   9.17197198E-16   1.76791170E-14  -2.63712905E-08  -4.85433227E-08  -4.98293830E-08   5.28277950E-15   1.68027893E-17  -2.26814470E-10  -7.16074046E-15  -6.97878664E-15   6.75525501E-18
   9.97500000E+02   5.00000000E-01   5.00000000E-01  -3.52258510E-07  -7.97602624E-08   2.20017287E-07  -1.99742197E-10  -4.32185092E-11  -1.24103592E-07  -3.81741173E-08   2.06748765E-07   2.88640835E-15   1.89756930E-14  -2.59903953E-08  -4.85435297E-08  -4.98293830E-08   8.61643124E-15   2.12509255E-17  -2.26765018E-10  -7.16074046E-15  -6.97889568E-15   6.60089260E-18
   1.03250000E+03   5.00000000E-01   5.00000000E-01  -3.52258592E-07  -8.22492316E-08   2.20432921E-07  -1.99699387E-10  -4.43195100E-11  -1.24103477E-07  -3.91926223E-08   2.06790263E-07   5.31579244E-15   2.02921187E-14  -2.55934957E-08  -4.85437492E-08  -4.98293830E-08   1.24156830E-14   2.57608054E-17  -2.26713461E-10  -7.16074046E-15  -6.97899243E-15   6.45086185E-18
   1.06750000E+03   5.00000000E-01   5.00000000E-01  -3.52258720E-07  -8.49296256E-08   2.20969440E-07  -1.99655010E-10  -4.54381760E-11  -1.24103336E-07  -4.02764059E-08   2.06828895E-07   8.29892287E-15   2.16177186E-14  -2.51816734E-08  -4.85439697E-08  -4.98293830E-08   1.67569745E-14   3.03273085E-17  -2.26659898E-10  -7.16074046E-15  -6.97907809E-15   6.30481085E-18
   1.10250000E+03   5.00000000E-01   5.00000000E-01  -3.52258917E-07  -8.77896740E-08   2.21635264E-07  -1.99609017E-10  -4.65741331E-11  -1.24103162E-07  -4.14441565E-08   2.06873881E-07   1.19425694E-14   2.29406070E-14  -2.47562415E-08  -4.85441724E-08  -4.98293830E-08   2.17315642E-14   3.49459194E-17  -2.26604445E-10  -7.16074046E-15  -6.97915379E-15   6.16241820E-18
   1.13750000E+03   5.00000000E-01   5.00000000E-01  -3.52259212E-07  -9.08177704E-08   2.22435680E-07  -1.99561356E-10  -4.77268354E-11  -1.24102950E-07  -4.27111167E-08   2.06933477E-07   1.63657832E-14   2.42479010E-14  -2.43187428E-08  -4.85443525E-08  -4.98293830E-08   2.74487829E-14   3.96105277E-17  -2.26547235E-10  -7.16074046E-15  -6.97922057E-15   6.02340490E-18
   1.17250000E+03   5.00000000E-01   5.00000000E-01  -3.52259647E-07  -9.40021343E-08   2.23372825E-07  -1.99511972E-10  -4.88954485E-11  -1.24102691E-07  -4.40885746E-08   2.07014713E-07   2.16974304E-14   2.55261023E-14  -2.38709327E-08  -4.85445330E-08  -4.98293830E-08   3.40400638E-14   4.43138788E-17  -2.26488412E-10  -7.16074046E-15  -6.97927939E-15   5.88753943E-18
   1.20750000E+03   5.00000000E-01   5.00000000E-01  -3.52260269E-07  -9.73313512E-08   2.24446777E-07  -1.99460809E-10  -5.00789718E-11  -1.24102377E-07  -4.55834674E-08   2.07122938E-07   2.80734953E-14   2.67617852E-14  -2.34147140E-08  -4.85447488E-08  -4.98293830E-08   4.16639544E-14   4.90494595E-17  -2.26428126E-10  -7.16074046E-15  -6.97933114E-15   5.75463078E-18
   1.24250000E+03   5.00000000E-01   5.00000000E-01  -3.52261132E-07  -1.00795764E-07   2.25657590E-07  -1.99407812E-10  -5.12766167E-11  -1.24101998E-07  -4.71981429E-08   2.07261214E-07   3.56383245E-14   2.79426467E-14  -2.29519955E-08  -4.85449891E-08  -4.98293830E-08   5.05124104E-14   5.38138341E-17  -2.26366515E-10  -7.16074046E-15  -6.97937661E-15   5.62450724E-18
   1.27750000E+03   5.00000000E-01   5.00000000E-01  -3.52262295E-07  -1.04386489E-07   2.27004232E-07  -1.99352931E-10  -5.24876947E-11  -1.24101541E-07  -4.89312994E-08   2.07430929E-07   4.45456588E-14   2.90577027E-14  -2.24846541E-08  -4.85451850E-08  -4.98293830E-08   6.08187498E-14   5.85984643E-17  -2.26303700E-10  -7.16074046E-15  -6.97941654E-15   5.49700874E-18
   1.31250000E+03   5.00000000E-01   5.00000000E-01  -3.52263828E-07  -1.08092056E-07   2.28481021E-07  -1.99296111E-10  -5.37109064E-11  -1.24100993E-07  -5.07795247E-08   2.07633320E-07   5.49478140E-14   3.00963677E-14  -2.20146799E-08  -4.85452877E-08  -4.98293830E-08   7.28676554E-14   6.33814839E-17  -2.26239806E-10  -7.16074046E-15  -6.97945157E-15   5.37200564E-18
   1.34750000E+03   5.00000000E-01   5.00000000E-01  -3.52265795E-07  -1.11896840E-07   2.30076894E-07  -1.99237290E-10  -5.49439265E-11  -1.24100337E-07  -5.27376777E-08   2.07869896E-07   6.69734171E-14   3.10480517E-14  -2.15442908E-08  -4.85453427E-08  -4.98293830E-08   8.70076833E-14   6.81329133E-17  -2.26174970E-10  -7.16074046E-15  -6.97948228E-15   5.24941679E-18
   1.38250000E+03   5.00000000E-01   5.00000000E-01  -3.52268220E-07  -1.15779030E-07   2.31773696E-07  -1.99176384E-10  -5.61828541E-11  -1.24099556E-07  -5.47994861E-08   2.08143255E-07   8.06768992E-14   3.19013725E-14  -2.10761507E-08  -4.85455939E-08  -4.98293830E-08   1.03666661E-13   7.28137526E-17  -2.26109362E-10  -7.16074046E-15  -6.97950920E-15   5.12923369E-18
   1.41750000E+03   5.00000000E-01   5.00000000E-01  -3.52270989E-07  -1.19719060E-07   2.33558015E-07  -1.99113306E-10  -5.74239981E-11  -1.24098628E-07  -5.69541035E-08   2.08452759E-07   9.60498464E-14   3.26483507E-14  -2.06127876E-08  -4.85462665E-08  -4.98293830E-08   1.23371201E-13   7.74100956E-17  -2.26043126E-10  -7.16074046E-15  -6.97953277E-15   5.01146830E-18
   1.45250000E+03   5.00000000E-01   5.00000000E-01  -3.52273943E-07  -1.23724793E-07   2.35453607E-07  -1.99048065E-10  -5.86698227E-11  -1.24097528E-07  -5.91780145E-08   2.08782602E-07   1.13343523E-13   3.32976214E-14  -2.01542192E-08  -4.85467688E-08  -4.98293830E-08   1.46774420E-13   8.19846560E-17  -2.25976125E-10  -7.16074046E-15  -6.97955342E-15   4.89593371E-18
   1.48750000E+03   5.00000000E-01   5.00000000E-01  -3.52277114E-07  -1.27780665E-07   2.37448172E-07  -1.98980629E-10  -5.99187022E-11  -1.24096228E-07  -6.14611934E-08   2.09131174E-07   1.32738142E-13   3.38479323E-14  -1.97017864E-08  -4.85469056E-08  -4.98293830E-08   1.74689130E-13   8.64347510E-17  -2.25908362E-10  -7.16074046E-15  -6.97957151E-15   4.78247910E-18
   1.52250000E+03   5.00000000E-01   5.00000000E-01  -3.52280535E-07  -1.31834034E-07   2.39482192E-07  -1.98910840E-10  -6.11607227E-11  -1.24094696E-07  -6.38063843E-08   2.09514529E-07   1.53826026E-13   3.42799202E-14  -1.92600829E-08  -4.85474526E-08  -4.98293830E-08   2.08125334E-13   9.06163251E-17  -2.25840188E-10  -7.16074046E-15  -6.97958735E-15   4.67121724E-18
   1.55750000E+03   5.00000000E-01   5.00000000E-01  -3.52284052E-07  -1.35857161E-07   2.41539450E-07  -1.98838587E-10  -6.23901141E-11  -1.24092897E-07  -6.61969813E-08   2.09929654E-07   1.76212231E-13   3.45911200E-14  -1.88316764E-08  -4.85486901E-08  -4.98293830E-08   2.48342682E-13   9.45812990E-17  -2.25771710E-10  -7.16074046E-15  -6.97960122E-15   4.56224906E-18
   1.59250000E+03   5.00000000E-01   5.00000000E-01  -3.52287637E-07  -1.39870755E-07   2.43671890E-07  -1.98763950E-10  -6.36118761E-11  -1.24090786E-07  -6.85951502E-08   2.10345961E-07   2.00540362E-13   3.48102050E-14  -1.84137791E-08  -4.85495406E-08  -4.98293830E-08   2.96929700E-13   9.84435715E-17  -2.25702439E-10  -7.16074046E-15  -6.97961336E-15   4.45534500E-18
   1.62750000E+03   5.00000000E-01   5.00000000E-01  -3.52291351E-07  -1.43848924E-07   2.45857073E-07  -1.98686908E-10  -6.48227905E-11  -1.24088312E-07  -7.09927894E-08   2.10764106E-07   2.27010083E-13   3.49396592E-14  -1.80073314E-08  -4.85497501E-08  -4.98293830E-08   3.55894279E-13   1.02021520E-16  -2.25632304E-10  -7.16074046E-15  -6.97962401E-15   4.35034454E-18
   1.66250000E+03   5.00000000E-01   5.00000000E-01  -3.52295077E-07  -1.47737312E-07   2.48036786E-07  -1.98607320E-10  -6.60131932E-11  -1.24085422E-07  -7.33912717E-08   2.11198452E-07   2.54978481E-13   3.49664276E-14  -1.76161667E-08  -4.85496631E-08  -4.98293830E-08   4.27776887E-13   1.05199696E-16  -2.25561541E-10  -7.16074046E-15  -6.97963333E-15   4.24728831E-18
   1.69750000E+03   5.00000000E-01   5.00000000E-01  -3.52298794E-07  -1.51506503E-07   2.50198604E-07  -1.98525119E-10  -6.71777971E-11  -1.24082052E-07  -7.57729302E-08   2.11643243E-07   2.84186992E-13   3.48958684E-14  -1.72413143E-08  -4.85494337E-08  -4.98293830E-08   5.15802791E-13   1.08023685E-16  -2.25490055E-10  -7.16074046E-15  -6.97964151E-15   4.14618881E-18
   1.73250000E+03   5.00000000E-01   5.00000000E-01  -3.52302661E-07  -1.55135278E-07   2.52343388E-07  -1.98440291E-10  -6.83133716E-11  -1.24078127E-07  -7.81161085E-08   2.12086961E-07   3.14808938E-13   3.47407748E-14  -1.68823106E-08  -4.85491690E-08  -4.98293830E-08   6.24077845E-13   1.10483677E-16  -2.25417567E-10  -7.16074046E-15  -6.97964867E-15   4.04698334E-18
   1.76750000E+03   5.00000000E-01   5.00000000E-01  -3.52306660E-07  -1.58582117E-07   2.54439546E-07  -1.98352752E-10  -6.94127997E-11  -1.24073563E-07  -8.04103506E-08   2.12531177E-07   3.46406733E-13   3.45022483E-14  -1.65406648E-08  -4.85489750E-08  -4.98293830E-08   7.57844125E-13   1.12491184E-16  -2.25344010E-10  -7.16074046E-15  -6.97965495E-15   3.94966408E-18
   1.80250000E+03   5.00000000E-01   5.00000000E-01  -3.52310647E-07  -1.61799605E-07   2.56449796E-07  -1.98262382E-10  -7.04674141E-11  -1.24068266E-07  -8.26451047E-08   2.12978914E-07   3.78056437E-13   3.41794946E-14  -1.62184334E-08  -4.85489197E-08  -4.98293830E-08   9.23813416E-13   1.14007179E-16  -2.25269363E-10  -7.16074046E-15  -6.97966047E-15   3.85428337E-18
   1.83750000E+03   5.00000000E-01   5.00000000E-01  -3.52314409E-07  -1.64742501E-07   2.58344351E-07  -1.98169056E-10  -7.14687388E-11  -1.24062129E-07  -8.48052806E-08   2.13429128E-07   4.08668362E-13   3.37756561E-14  -1.59171582E-08  -4.85492019E-08  -4.98293830E-08   1.13058880E-12   1.15019781E-16  -2.25193521E-10  -7.16074046E-15  -6.97966530E-15   3.76091489E-18
   1.87250000E+03   5.00000000E-01   5.00000000E-01  -3.52317733E-07  -1.67372217E-07   2.60106655E-07  -1.98072685E-10  -7.24097031E-11  -1.24055025E-07  -8.68701187E-08   2.13874333E-07   4.37471891E-13   3.33006848E-14  -1.56370462E-08  -4.85499415E-08  -4.98293830E-08   1.38921403E-12   1.15528294E-16  -2.25116200E-10  -7.16074046E-15  -6.97966955E-15   3.66960338E-18
   1.90750000E+03   5.00000000E-01   5.00000000E-01  -3.52320666E-07  -1.69667854E-07   2.61749615E-07  -1.97973310E-10  -7.32873335E-11  -1.24046799E-07  -8.88090889E-08   2.14293808E-07   4.65249304E-13   3.27778863E-14  -1.53749993E-08  -4.85506702E-08  -4.98293830E-08   1.71393044E-12   1.15549289E-16  -2.25036677E-10  -7.16074046E-15  -6.97967329E-15   3.58027041E-18
   1.94250000E+03   5.00000000E-01   5.00000000E-01  -3.52323407E-07  -1.71601102E-07   2.63273458E-07  -1.97871010E-10  -7.40981866E-11  -1.24037267E-07  -9.05972257E-08   2.14671548E-07   4.93353076E-13   3.22271535E-14  -1.51277240E-08  -4.85509126E-08  -4.98293830E-08   2.12314858E-12   1.15035211E-16  -2.24954157E-10  -7.16074046E-15  -6.97967657E-15   3.49276861E-18
   1.97750000E+03   5.00000000E-01   5.00000000E-01  -3.52326053E-07  -1.73117326E-07   2.64638078E-07  -1.97765769E-10  -7.48341613E-11  -1.24026221E-07  -9.22222786E-08   2.15007460E-07   5.22049436E-13   3.16533368E-14  -1.48946456E-08  -4.85507219E-08  -4.98293830E-08   2.64065923E-12   1.13911361E-16  -2.24868121E-10  -7.16074046E-15  -6.97967946E-15   3.40700592E-18
   2.01250000E+03   5.00000000E-01   5.00000000E-01  -3.52328622E-07  -1.74145484E-07   2.65782505E-07  -1.97657486E-10  -7.54837475E-11  -1.24013423E-07  -9.36749179E-08   2.15308156E-07   5.50399922E-13   3.10535641E-14  -1.46769090E-08  -4.85503043E-08  -4.98293830E-08   3.29722115E-12   1.12145044E-16  -2.24778204E-10  -7.16074046E-15  -6.97968200E-15   3.32298775E-18
   2.04750000E+03   5.00000000E-01   5.00000000E-01  -3.52331113E-07  -1.74612179E-07   2.66648971E-07  -1.97546034E-10  -7.60346966E-11  -1.23998601E-07  -9.49395015E-08   2.15576232E-07   5.77026914E-13   3.04270903E-14  -1.44753855E-08  -4.85497970E-08  -4.98293830E-08   4.13261551E-12   1.09744565E-16  -2.24683936E-10  -7.16074046E-15  -6.97968424E-15   3.24078510E-18
   2.08250000E+03   5.00000000E-01   5.00000000E-01  -3.52333512E-07  -1.74448907E-07   2.67194492E-07  -1.97431324E-10  -7.64758461E-11  -1.23981425E-07  -9.59908026E-08   2.15805291E-07   6.01008293E-13   2.97801770E-14  -1.42893158E-08  -4.85492673E-08  -4.98293830E-08   5.19823952E-12   1.06735593E-16  -2.24584548E-10  -7.16074046E-15  -6.97968621E-15   3.16047861E-18
   2.11750000E+03   5.00000000E-01   5.00000000E-01  -3.52335808E-07  -1.73587119E-07   2.67381022E-07  -1.97313303E-10  -7.67966015E-11  -1.23961500E-07  -9.67980838E-08   2.15984113E-07   6.21920170E-13   2.91229386E-14  -1.41167826E-08  -4.85487470E-08  -4.98293830E-08   6.56038655E-12   1.03137502E-16  -2.24479004E-10  -7.16074046E-15  -6.97968795E-15   3.08213736E-18
   2.15250000E+03   5.00000000E-01   5.00000000E-01  -3.52337987E-07  -1.71953053E-07   2.67166773E-07  -1.97191934E-10  -7.69861647E-11  -1.23938351E-07  -9.73281498E-08   2.16100303E-07   6.39605467E-13   2.84661727E-14  -1.39553642E-08  -4.85482517E-08  -4.98293830E-08   8.30437652E-12   9.89680690E-17  -2.24366069E-10  -7.16074046E-15  -6.97968948E-15   3.00582174E-18
   2.18750000E+03   5.00000000E-01   5.00000000E-01  -3.52340043E-07  -1.69465962E-07   2.66504175E-07  -1.97067191E-10  -7.70333122E-11  -1.23911407E-07  -9.75457782E-08   2.16141054E-07   6.54062622E-13   2.78203595E-14  -1.38023577E-08  -4.85477900E-08  -4.98293830E-08   1.05396959E-11   9.42527846E-17  -2.24244307E-10  -7.16074046E-15  -6.97969084E-15   2.93159017E-18
   2.22250000E+03   5.00000000E-01   5.00000000E-01  -3.52341976E-07  -1.66038030E-07   2.65340446E-07  -1.96939055E-10  -7.69264893E-11  -1.23879978E-07  -9.74133230E-08   2.16092866E-07   6.65418291E-13   2.71955362E-14  -1.36548111E-08  -4.85473662E-08  -4.98293830E-08   1.34063139E-11   8.90290506E-17  -2.24112061E-10  -7.16074046E-15  -6.97969203E-15   2.85950313E-18
   2.25750000E+03   5.00000000E-01   5.00000000E-01  -3.52343790E-07  -1.61575059E-07   2.63618930E-07  -1.96807511E-10  -7.66540654E-11  -1.23843228E-07  -9.68904196E-08   2.15941153E-07   6.73921391E-13   2.66013024E-14  -1.35095343E-08  -4.85469814E-08  -4.98293830E-08   1.70823348E-11   8.33479155E-17  -2.23967424E-10  -7.16074046E-15  -6.97969309E-15   2.78962444E-18
   2.29250000E+03   5.00000000E-01   5.00000000E-01  -3.52345495E-07  -1.55977943E-07   2.61280948E-07  -1.96672556E-10  -7.62047310E-11  -1.23800140E-07  -9.59340630E-08   2.15669972E-07   6.79934956E-13   2.60467649E-14  -1.33631409E-08  -4.85466348E-08  -4.98293830E-08   2.17931199E-11   7.72749372E-17  -2.23808221E-10  -7.16074046E-15  -6.97969403E-15   2.72202000E-18
   2.32750000E+03   5.00000000E-01   5.00000000E-01  -3.52347104E-07  -1.49145269E-07   2.58268419E-07  -1.96534191E-10  -7.55680673E-11  -1.23749481E-07  -9.44991845E-08   2.15261924E-07   6.83920422E-13   2.55403951E-14  -1.32121384E-08  -4.85463239E-08  -4.98293830E-08   2.78219529E-11   7.08906926E-17  -2.23631997E-10  -7.16074046E-15  -6.97969486E-15   2.65675438E-18
   2.36250000E+03   5.00000000E-01   5.00000000E-01  -3.52348633E-07  -1.40977545E-07   2.54527559E-07  -1.96392420E-10  -7.47353311E-11  -1.23689751E-07  -9.25398558E-08   2.14698226E-07   6.86414853E-13   2.50897958E-14  -1.30530782E-08  -4.85460450E-08  -4.98293830E-08   3.55222254E-11   6.42904037E-17  -2.23436036E-10  -7.16074046E-15  -6.97969560E-15   2.59388535E-18
   2.39750000E+03   5.00000000E-01   5.00000000E-01  -3.52350098E-07  -1.31383580E-07   2.50013943E-07  -1.96247247E-10  -7.37004916E-11  -1.23619140E-07  -9.00112845E-08   2.13959021E-07   6.88003170E-13   2.47013790E-14  -1.28827727E-08  -4.85457936E-08  -4.98293830E-08   4.53309728E-11   5.75825524E-17  -2.23217403E-10  -7.16074046E-15  -6.97969626E-15   2.53345622E-18
   2.43250000E+03   5.00000000E-01   5.00000000E-01  -3.52351516E-07  -1.20289500E-07   2.44699091E-07  -1.96098669E-10  -7.24615276E-11  -1.23535476E-07  -8.68727697E-08   2.13023977E-07   6.89287679E-13   2.43799491E-14  -1.26985886E-08  -4.85455651E-08  -4.98293830E-08   5.77833884E-11   5.08860786E-17  -2.22973047E-10  -7.16074046E-15  -6.97969685E-15   2.47548637E-18
   2.46750000E+03   5.00000000E-01   5.00000000E-01  -3.52352903E-07  -1.07650604E-07   2.38578454E-07  -1.95946666E-10  -7.10219438E-11  -1.23436181E-07  -8.30917285E-08   2.11873275E-07   6.90856927E-13   2.41281990E-14  -1.24988147E-08  -4.85453549E-08  -4.98293830E-08   7.35276767E-11   4.43257024E-17  -2.22699959E-10  -7.16074046E-15  -6.97969737E-15   2.41996007E-18
   2.50250000E+03   5.00000000E-01   5.00000000E-01  -3.52354275E-07  -9.34657130E-08   2.31680249E-07  -1.95791188E-10  -6.93923785E-11  -1.23318245E-07  -7.86487545E-08   2.10489028E-07   6.93255620E-13   2.39461444E-14  -1.22830880E-08  -4.85451585E-08  -4.98293830E-08   9.33392742E-11   3.80259237E-17  -2.22395420E-10  -7.16074046E-15  -6.97969784E-15   2.36681486E-18
   2.53750000E+03   5.00000000E-01   5.00000000E-01  -3.52355649E-07  -7.77927355E-08   2.24073916E-07  -1.95632146E-10  -6.75920654E-11  -1.23178225E-07  -7.35433856E-08   2.08857178E-07   6.96957028E-13   2.38305565E-14  -1.20528374E-08  -4.85449720E-08  -4.98293830E-08   1.18133081E-10   3.21034162E-17  -2.22057327E-10  -7.16074046E-15  -6.97969827E-15   2.31593111E-18
   2.57250000E+03   5.00000000E-01   5.00000000E-01  -3.52357040E-07  -6.07629363E-08   2.15876291E-07  -1.95469395E-10  -6.56497944E-11  -1.23012287E-07  -6.77998641E-08   2.06969758E-07   7.02339261E-13   2.37744962E-14  -1.18116720E-08  -4.85447922E-08  -4.98293830E-08   1.48971914E-10   2.66591180E-17  -2.21684588E-10  -7.16074046E-15  -6.97969865E-15   2.26712492E-18
   2.60750000E+03   5.00000000E-01   5.00000000E-01  -3.52358466E-07  -4.25902390E-08   2.07253066E-07  -1.95302725E-10  -6.36039493E-11  -1.22816294E-07  -6.14717316E-08   2.04827256E-07   7.09666625E-13   2.37670904E-14  -1.15656090E-08  -4.85446162E-08  -4.98293830E-08   1.87068972E-10   2.17706785E-17  -2.21277553E-10  -7.16074046E-15  -6.97969900E-15   2.22014730E-18
   2.64250000E+03   5.00000000E-01   5.00000000E-01  -3.52359942E-07  -2.35713887E-08   1.98413285E-07  -1.95131860E-10  -6.15012518E-11  -1.22585950E-07  -5.46438282E-08   2.02440656E-07   7.19076898E-13   2.37936965E-14  -1.13230303E-08  -4.85444425E-08  -4.98293830E-08   2.33781689E-10   1.74869202E-17  -2.20838373E-10  -7.16074046E-15  -6.97969932E-15   2.17469167E-18
   2.67750000E+03   5.00000000E-01   5.00000000E-01  -3.52361489E-07  -4.07372908E-09   1.89595776E-07  -1.94956457E-10  -5.93940583E-11  -1.22316982E-07  -4.74303763E-08   1.99832559E-07   7.30574362E-13   2.38365573E-14  -1.10942770E-08  -4.85442703E-08  -4.98293830E-08   2.90594093E-10   1.38250188E-17  -2.20371220E-10  -7.16074046E-15  -6.97969962E-15   2.13041062E-18
   2.71250000E+03   5.00000000E-01   5.00000000E-01  -3.52363124E-07   1.54899901E-08   1.81048545E-07  -1.94776125E-10  -5.73364312E-11  -1.22005333E-07  -3.99685237E-08   1.97036871E-07   7.44027128E-13   2.38759380E-14  -1.08908730E-08  -4.85441001E-08  -4.98293830E-08   3.59084634E-10   1.07713490E-17  -2.19882253E-10  -7.16074046E-15  -6.97969990E-15   2.08694052E-18