 TITLE = "Mineral Rate (mol/m^3/sec)" 
VARIABLES = "X"          "Y"              "Z"            "Forsterite"     "Fayalite"       "Brucite"        "Lizardite"      "Chrysotile"     "Hematite"       "Magnetite(am)"  "Saponite(Ca)"   "Saponite(K)"    "Saponite(Mg)"   "Saponite(Na)"   "Beidellite(Ca)" "Beidellite(K)"  "Beidellite(Mg)" "Beidellite(Na)" "Enstatite(alph" "Ferrosilite(al" "Anorthite"      "Albite(low)"    "Clinochlore"    "Sudoite"        "Montmor(MgCa)"  "Montmor(MgK)"   "Montmor(MgMg)"  "Montmor(MgNa)"  "Kaolinite"      "Tremolite"      "Pargasite"      "Anhydrite"      "Epidote"        "Scolecite"      "Pyrite"         "FeS(am)"        "Quartz(alpha)" 
 ZONE I=         200 , J=           1 , K=           1  F=POINT
   8.75000000E+00   5.00000000E-01   5.00000000E-01  -1.30933759E-07  -4.78602868E-08   0.00000000E+00   0.00000000E+00   0.00000000E+00   1.40975584E-08   0.00000000E+00   8.40088175E-19   3.16735934E-08   7.29257948E-17   2.79844294E-09  -3.64905415E-17  -3.81031536E-18  -3.73402933E-17  -3.70325686E-17  -2.00068961E-10  -1.71634956E-10  -1.15402869E-07  -2.85381726E-08   2.21294296E-07  -3.72421108E-15  -8.06458631E-18  -8.23854422E-18  -8.24612519E-18  -8.16896939E-18  -3.42533655E-11  -4.49584988E-08  -4.60315523E-08   0.00000000E+00  -2.81951166E-08  -1.92219022E-16  -6.91674852E-16  -6.80493217E-16   9.52428741E-18
   2.62500000E+01   5.00000000E-01   5.00000000E-01  -1.30933765E-07  -4.78569177E-08   0.00000000E+00   0.00000000E+00   0.00000000E+00   1.40975583E-08   0.00000000E+00   1.26173467E-19   4.59890704E-08   2.87711222E-17   4.59749172E-09  -3.64868105E-17  -3.80507092E-18  -3.73228252E-17  -3.69873778E-17  -2.00270338E-10  -1.70434883E-10  -1.15402869E-07  -1.95040708E-08   2.14084799E-07  -2.95852692E-15  -8.02332863E-18  -7.25467081E-18  -8.06730888E-18  -7.46158313E-18  -3.42284983E-11  -4.49810113E-08  -4.60315523E-08   0.00000000E+00  -2.81951165E-08  -1.92215231E-16  -6.91674852E-16  -6.80490187E-16   1.45770098E-17
   4.37500000E+01   5.00000000E-01   5.00000000E-01  -1.30933766E-07  -4.78364961E-08   0.00000000E+00   0.00000000E+00   0.00000000E+00   1.40975582E-08   0.00000000E+00   8.78800708E-20   4.72437771E-08   2.68262820E-17   5.50573793E-09  -3.64604777E-17  -3.76988741E-18  -3.71996999E-17  -3.66774153E-17  -2.00295040E-10  -1.68459814E-10  -1.15402869E-07  -1.54852321E-09   2.04750043E-07  -1.98350987E-15  -7.84572614E-18  -3.26049840E-18  -7.29811609E-18  -4.51260966E-18  -3.41351987E-11  -4.49914449E-08  -4.60315523E-08   0.00000000E+00  -2.81951165E-08  -1.92203056E-16  -6.91674852E-16  -6.80487123E-16   1.86576807E-17
   6.12500000E+01   5.00000000E-01   5.00000000E-01  -1.30933766E-07  -4.78062849E-08   0.00000000E+00   0.00000000E+00   0.00000000E+00   1.40975582E-08   0.00000000E+00   1.05162202E-19   5.65888157E-08   2.88152205E-17   7.74597084E-09  -3.64034451E-17  -3.69829441E-18  -3.69334132E-17  -3.60288102E-17  -2.00293359E-10  -1.66271740E-10  -1.15402869E-07   1.82965891E-08   1.92915782E-07  -1.12831206E-15  -7.54281919E-18   3.09063838E-18  -5.98689665E-18   3.30363382E-19  -3.40017746E-11  -4.49997615E-08  -4.60315523E-08   0.00000000E+00  -2.81951164E-08  -1.92186295E-16  -6.91674852E-16  -6.80484268E-16   2.14064177E-17
   7.87500000E+01   5.00000000E-01   5.00000000E-01  -1.30933766E-07  -4.77700380E-08   0.00000000E+00   0.00000000E+00   0.00000000E+00   1.40975582E-08   0.00000000E+00   1.12637588E-19   6.63316429E-08   3.03966820E-17   1.07390854E-08  -3.63226185E-17  -3.60373574E-18  -3.65565825E-17  -3.51440168E-17  -2.00288168E-10  -1.64169143E-10  -1.15402869E-07   3.55732026E-08   1.82175896E-07  -6.44040830E-16  -7.18404111E-18   1.00279880E-17  -4.43425259E-18   5.82527697E-18  -3.38538068E-11  -4.50137373E-08  -4.60315523E-08   0.00000000E+00  -2.81951164E-08  -1.92168233E-16  -6.91674852E-16  -6.80481858E-16   2.29812007E-17
   9.62500000E+01   5.00000000E-01   5.00000000E-01  -1.30933766E-07  -4.77268249E-08   0.00000000E+00   0.00000000E+00   0.00000000E+00   1.40975582E-08   0.00000000E+00   1.15637791E-19   7.24561029E-08   3.18507047E-17   1.39540389E-08  -3.62359870E-17  -3.51068670E-18  -3.61533466E-17  -3.42380417E-17  -2.00280491E-10  -1.62123976E-10  -1.15402869E-07   4.79208638E-08   1.74460928E-07  -4.26167141E-16  -6.85081118E-18   1.58261044E-17  -2.99254390E-18   1.06560976E-17  -3.37198835E-11  -4.50312809E-08  -4.60315523E-08   0.00000000E+00  -2.81951163E-08  -1.92152175E-16  -6.91674852E-16  -6.80479768E-16   2.37567289E-17
   1.13750000E+02   5.00000000E-01   5.00000000E-01  -1.30933766E-07  -4.76748072E-08   0.00000000E+00   0.00000000E+00   0.00000000E+00   1.40975581E-08   0.00000000E+00   1.21738120E-19   7.47915780E-08   3.36457585E-17   1.71640340E-08  -3.61603404E-17  -3.43828348E-18  -3.58019664E-17  -3.34932803E-17  -2.00269771E-10  -1.60064403E-10  -1.15402869E-07   5.52957539E-08   1.69858380E-07  -3.30037337E-16  -6.58901495E-18   1.97223442E-17  -1.86050598E-18   1.41641798E-17  -3.36194503E-11  -4.50502383E-08  -4.60315523E-08   0.00000000E+00  -2.81951162E-08  -1.92139977E-16  -6.91674852E-16  -6.80477926E-16   2.40696188E-17
   1.31250000E+02   5.00000000E-01   5.00000000E-01  -1.30933765E-07  -4.76126536E-08   0.00000000E+00   0.00000000E+00   0.00000000E+00   1.40975581E-08   0.00000000E+00   1.33518092E-19   7.43896591E-08   3.59818094E-17   2.03374906E-08  -3.61020571E-17  -3.39119148E-18  -3.55319917E-17  -3.29661591E-17  -2.00256088E-10  -1.57950768E-10  -1.15402869E-07   5.89357580E-08   1.67581009E-07  -2.85545929E-16  -6.40108484E-18   2.18869330E-17  -1.04882428E-18   1.63977752E-17  -3.35549904E-11  -4.50693261E-08  -4.60315523E-08   0.00000000E+00  -2.81951162E-08  -1.92131615E-16  -6.91674852E-16  -6.80476332E-16   2.41452701E-17
   1.48750000E+02   5.00000000E-01   5.00000000E-01  -1.30933765E-07  -4.75394693E-08   0.00000000E+00   0.00000000E+00   0.00000000E+00   1.40975581E-08   0.00000000E+00   1.51328944E-19   7.22659668E-08   3.89461110E-17   2.35131636E-08  -3.60599461E-17  -3.36530691E-18  -3.53376797E-17  -3.26301299E-17  -2.00239744E-10  -1.55766540E-10  -1.15402869E-07   6.01832932E-08   1.66783630E-07  -2.64025836E-16  -6.27008139E-18   2.28193753E-17  -4.84207219E-19   1.76865819E-17  -3.35198919E-11  -4.50878833E-08  -4.60315523E-08   0.00000000E+00  -2.81951161E-08  -1.92126232E-16  -6.91674852E-16  -6.80474996E-16   2.41138244E-17
   1.66250000E+02   5.00000000E-01   5.00000000E-01  -1.30933765E-07  -4.74548296E-08   0.00000000E+00   0.00000000E+00   0.00000000E+00   1.40975581E-08   0.00000000E+00   1.74424140E-19   6.91774071E-08   4.25426339E-17   2.67323120E-08  -3.60296050E-17  -3.35382126E-18  -3.51983830E-17  -3.24285309E-17  -2.00221144E-10  -1.53513628E-10  -1.15402869E-07   6.00686634E-08   1.66819382E-07  -2.53314536E-16  -6.17598361E-18   2.30034913E-17  -7.98987821E-20   1.83783026E-17  -3.35048478E-11  -4.51055412E-08  -4.60315523E-08   0.00000000E+00  -2.81951161E-08  -1.92122826E-16  -6.91674852E-16  -6.80473928E-16   2.40411072E-17
   1.83750000E+02   5.00000000E-01   5.00000000E-01  -1.30933765E-07  -4.73588177E-08   0.00000000E+00   0.00000000E+00   0.00000000E+00   1.40975580E-08   0.00000000E+00   2.01504801E-19   6.56234280E-08   4.67003938E-17   3.00148867E-08  -3.60061877E-17  -3.35045599E-18  -3.50914581E-17  -3.23051374E-17  -2.00200748E-10  -1.51207864E-10  -1.15402869E-07   5.92724873E-08   1.67262248E-07  -2.47903383E-16  -6.10217205E-18   2.27980750E-17   2.36181257E-19   1.87444026E-17  -3.35012772E-11  -4.51220718E-08  -4.60315523E-08   0.00000000E+00  -2.81951161E-08  -1.92120535E-16  -6.91674852E-16  -6.80473129E-16   2.39550176E-17
   2.01250000E+02   5.00000000E-01   5.00000000E-01  -1.30933764E-07  -4.72513564E-08   0.00000000E+00   0.00000000E+00   0.00000000E+00   1.40975580E-08   0.00000000E+00   2.31961434E-19   6.18237912E-08   5.14116924E-17   3.33467948E-08  -3.59869071E-17  -3.35172628E-18  -3.50038927E-17  -3.22282159E-17  -2.00178765E-10  -1.48857866E-10  -1.15402869E-07   5.81378234E-08   1.67906759E-07  -2.45150256E-16  -6.03966522E-18   2.23900457E-17   5.03002185E-19   1.89290920E-17  -3.35044444E-11  -4.51376199E-08  -4.60315523E-08   0.00000000E+00  -2.81951160E-08  -1.92118899E-16  -6.91674852E-16  -6.80472582E-16   2.38675244E-17
   2.18750000E+02   5.00000000E-01   5.00000000E-01  -1.30933764E-07  -4.71321021E-08   0.00000000E+00   0.00000000E+00   0.00000000E+00   1.40975580E-08   0.00000000E+00   2.65707154E-19   5.78902308E-08   5.67279056E-17   3.66988672E-08  -3.59705082E-17  -3.35599275E-18  -3.49298217E-17  -3.21830379E-17  -2.00155233E-10  -1.46464973E-10  -1.15402869E-07   5.68217416E-08   1.68660753E-07  -2.43747411E-16  -5.98439053E-18   2.18655880E-17   7.38237629E-19   1.89988398E-17  -3.35121306E-11  -4.51526842E-08  -4.60315523E-08   0.00000000E+00  -2.81951160E-08  -1.92117708E-16  -6.91674852E-16  -6.80472262E-16   2.37840041E-17
   2.36250000E+02   5.00000000E-01   5.00000000E-01  -1.30933764E-07  -4.70011611E-08   0.00000000E+00   0.00000000E+00   0.00000000E+00   1.40975580E-08   0.00000000E+00   3.02161536E-19   5.39459293E-08   6.26094943E-17   4.00607876E-08  -3.59554805E-17  -3.36162933E-18  -3.48622148E-17  -3.21537659E-17  -2.00130305E-10  -1.44040468E-10  -1.15402869E-07   5.54441843E-08   1.69445634E-07  -2.43033913E-16  -5.93235607E-18   2.12968811E-17   9.59206300E-19   1.90133146E-17  -3.35219675E-11  -4.51677413E-08  -4.60315523E-08   0.00000000E+00  -2.81951159E-08  -1.92116738E-16  -6.91674852E-16  -6.80472148E-16   2.37040809E-17
   2.53750000E+02   5.00000000E-01   5.00000000E-01  -1.30933763E-07  -4.68582021E-08   0.00000000E+00   0.00000000E+00   0.00000000E+00   1.40975579E-08   0.00000000E+00   3.41333187E-19   5.00242470E-08   6.90633497E-17   4.33866082E-08  -3.59415351E-17  -3.36823286E-18  -3.47997217E-17  -3.21368119E-17  -2.00103963E-10  -1.41585628E-10  -1.15402869E-07   5.40347160E-08   1.70248696E-07  -2.42674283E-16  -5.88278713E-18   2.07015270E-17   1.16927369E-18   1.89862308E-17  -3.35333495E-11  -4.51832219E-08  -4.60315523E-08   0.00000000E+00  -2.81951159E-08  -1.92115942E-16  -6.91674852E-16  -6.80472213E-16   2.36273919E-17
   2.71250000E+02   5.00000000E-01   5.00000000E-01  -1.30933763E-07  -4.67028751E-08   0.00000000E+00   0.00000000E+00   0.00000000E+00   1.40975579E-08   0.00000000E+00   3.83258528E-19   4.61691672E-08   7.60836198E-17   4.66405465E-08  -3.59285242E-17  -3.37556329E-18  -3.47416485E-17  -3.21301049E-17  -2.00076174E-10  -1.39101499E-10  -1.15402868E-07   5.26078517E-08   1.71061329E-07  -2.42497156E-16  -5.83534075E-18   2.00889416E-17   1.36992815E-18   1.89247726E-17  -3.35458952E-11  -4.51993008E-08  -4.60315523E-08   0.00000000E+00  -2.81951158E-08  -1.92115292E-16  -6.91674852E-16  -6.80472433E-16   2.35532107E-17
   2.88750000E+02   5.00000000E-01   5.00000000E-01  -1.30933762E-07  -4.65349879E-08   0.00000000E+00   0.00000000E+00   0.00000000E+00   1.40975579E-08   0.00000000E+00   4.27860857E-19   4.24236798E-08   8.36396755E-17   4.97939885E-08  -3.59162103E-17  -3.38334412E-18  -3.46868891E-17  -3.21309669E-17  -2.00046931E-10  -1.36591578E-10  -1.15402868E-07   5.11776475E-08   1.71874132E-07  -2.42414595E-16  -5.78952275E-18   1.94690709E-17   1.56330959E-18   1.88373425E-17  -3.35591586E-11  -4.52158083E-08  -4.60315523E-08   0.00000000E+00  -2.81951158E-08  -1.92114752E-16  -6.91674852E-16  -6.80472787E-16   2.34803549E-17
   3.06250000E+02   5.00000000E-01   5.00000000E-01  -1.30933761E-07  -4.63545700E-08   0.00000000E+00   0.00000000E+00   0.00000000E+00   1.40975579E-08   0.00000000E+00   4.74943425E-19   3.88244389E-08   9.16862661E-17   5.28233867E-08  -3.59042764E-17  -3.39127910E-18  -3.46339747E-17  -3.21362689E-17  -2.00016261E-10  -1.34061937E-10  -1.15402868E-07   4.97577254E-08   1.72678130E-07  -2.42381212E-16  -5.74470053E-18   1.88520290E-17   1.75215419E-18   1.87332590E-17  -3.35726593E-11  -4.52323026E-08  -4.60315523E-08   0.00000000E+00  -2.81951157E-08  -1.92114278E-16  -6.91674852E-16  -6.80473260E-16   2.34073094E-17
   3.23750000E+02   5.00000000E-01   5.00000000E-01  -1.30933761E-07  -4.61618788E-08   0.00000000E+00   0.00000000E+00   0.00000000E+00   1.40975578E-08   0.00000000E+00   5.24219067E-19   3.54004199E-08   1.00177090E-16   5.57090185E-08  -3.58923792E-17  -3.39909532E-18  -3.45813183E-17  -3.21429181E-17  -1.99984209E-10  -1.31520576E-10  -1.15402868E-07   4.83595708E-08   1.73466054E-07  -2.42373614E-16  -5.70021423E-18   1.82466834E-17   1.93931282E-18   1.86213510E-17  -3.35859508E-11  -4.52482455E-08  -4.60315523E-08   0.00000000E+00  -2.81951156E-08  -1.92113827E-16  -6.91674852E-16  -6.80473835E-16   2.33324193E-17
   3.41250000E+02   5.00000000E-01   5.00000000E-01  -1.30933760E-07  -4.59573525E-08   0.00000000E+00   0.00000000E+00   0.00000000E+00   1.40975578E-08   0.00000000E+00   5.75359807E-19   3.21725195E-08   1.09076039E-16   5.84339089E-08  -3.58802084E-17  -3.40658165E-18  -3.45274918E-17  -3.21483418E-17  -1.99950829E-10  -1.28976329E-10  -1.15402868E-07   4.69910037E-08   1.74233347E-07  -2.42379586E-16  -5.65550196E-18   1.76594232E-17   2.12720974E-18   1.85085803E-17  -3.35986819E-11  -4.52631629E-08  -4.60315523E-08   0.00000000E+00  -2.81951156E-08  -1.92113362E-16  -6.91674852E-16  -6.80474500E-16   2.32541013E-17
   3.58750000E+02   5.00000000E-01   5.00000000E-01  -1.30933759E-07  -4.57414613E-08   0.00000000E+00   0.00000000E+00   0.00000000E+00   1.40975577E-08   0.00000000E+00   6.28094110E-19   2.91529117E-08   1.18370555E-16   6.09808424E-08  -3.58675816E-17  -3.41364032E-18  -3.44716592E-17  -3.21511807E-17  -1.99916159E-10  -1.26436852E-10  -1.15402868E-07   4.56537636E-08   1.74979970E-07  -2.42392878E-16  -5.61030241E-18   1.70924327E-17   2.31696759E-18   1.83980034E-17  -3.36106772E-11  -4.52767455E-08  -4.60315523E-08   0.00000000E+00  -2.81951155E-08  -1.92112865E-16  -6.91674852E-16  -6.80475242E-16   2.31711160E-17
   3.76250000E+02   5.00000000E-01   5.00000000E-01  -1.30933758E-07  -4.55146499E-08   0.00000000E+00   0.00000000E+00   0.00000000E+00   1.40975577E-08   0.00000000E+00   6.82225275E-19   2.63477669E-08   1.28071549E-16   6.33355234E-08  -3.58544263E-17  -3.42025747E-18  -3.44134949E-17  -3.21510366E-17  -1.99880213E-10  -1.23908219E-10  -1.15402868E-07   4.43456971E-08   1.75708341E-07  -2.42410330E-16  -5.56459748E-18   1.65450210E-17   2.50865705E-18   1.82897963E-17  -3.36218953E-11  -4.52888595E-08  -4.60315523E-08   0.00000000E+00  -2.81951154E-08  -1.92112330E-16  -6.91674852E-16  -6.80476048E-16   2.30826317E-17
   3.93750000E+02   5.00000000E-01   5.00000000E-01  -1.30933756E-07  -4.52772311E-08   0.00000000E+00   0.00000000E+00   0.00000000E+00   1.40975577E-08   0.00000000E+00   7.37675410E-19   2.37575166E-08   1.38216506E-16   6.54852309E-08  -3.58407972E-17  -3.42649886E-18  -3.43532593E-17  -3.21485049E-17  -1.99842976E-10  -1.21394077E-10  -1.15402868E-07   4.30611847E-08   1.76423297E-07  -2.42430513E-16  -5.51863938E-18   1.60138998E-17   2.70118194E-18   1.81812814E-17  -3.36324220E-11  -4.52995236E-08  -4.60315523E-08   0.00000000E+00  -2.81951153E-08  -1.92111767E-16  -6.91674852E-16  -6.80476907E-16   2.29882842E-17
   4.11250000E+02   5.00000000E-01   5.00000000E-01  -1.30933755E-07  -4.50293508E-08   0.00000000E+00   0.00000000E+00   0.00000000E+00   1.40975576E-08   0.00000000E+00   7.94484356E-19   2.13784853E-08   1.48866473E-16   6.74206794E-08  -3.58268459E-17  -3.43247812E-18  -3.42916559E-17  -3.21448484E-17  -1.99804400E-10  -1.18895729E-10  -1.15402867E-07   4.17930506E-08   1.77130564E-07  -2.42452941E-16  -5.47286915E-18   1.54944459E-17   2.89263272E-18   1.80680717E-17  -3.36424230E-11  -4.53088688E-08  -4.60315523E-08   0.00000000E+00  -2.81951152E-08  -1.92111194E-16  -6.91674852E-16  -6.80477807E-16   2.28881287E-17
   4.28750000E+02   5.00000000E-01   5.00000000E-01  -1.30933754E-07  -4.47709939E-08   0.00000000E+00   0.00000000E+00   0.00000000E+00   1.40975576E-08   0.00000000E+00   8.52788155E-19   1.92039346E-08   1.60100398E-16   6.91369973E-08  -3.58127791E-17  -3.43832513E-18  -3.42296417E-17  -3.21416344E-17  -1.99764411E-10  -1.16412643E-10  -1.15402867E-07   4.05342944E-08   1.77835560E-07  -2.42477593E-16  -5.42781720E-18   1.49818785E-17   3.08071739E-18   1.79452613E-17  -3.36520950E-11  -4.53171009E-08  -4.60315523E-08   0.00000000E+00  -2.81951151E-08  -1.92110636E-16  -6.91674852E-16  -6.80478739E-16   2.27825419E-17
   4.46250000E+02   5.00000000E-01   5.00000000E-01  -1.30933752E-07  -4.45019564E-08   0.00000000E+00   0.00000000E+00   0.00000000E+00   1.40975575E-08   0.00000000E+00   9.12821852E-19   1.72244485E-08   1.72013021E-16   7.06321263E-08  -3.57988538E-17  -3.44417894E-18  -3.41683990E-17  -3.21406591E-17  -1.99722912E-10  -1.13942491E-10  -1.15402867E-07   3.92782799E-08   1.78543495E-07  -2.42504730E-16  -5.38408860E-18   1.44714638E-17   3.26282579E-18   1.78076390E-17  -3.36616539E-11  -4.53244757E-08  -4.60315523E-08   0.00000000E+00  -2.81951150E-08  -1.92110119E-16  -6.91674852E-16  -6.80479692E-16   2.26721566E-17
   4.63750000E+02   5.00000000E-01   5.00000000E-01  -1.30933750E-07  -4.42218520E-08   0.00000000E+00   0.00000000E+00   0.00000000E+00   1.40975575E-08   0.00000000E+00   9.74905634E-19   1.54288704E-08   1.84710349E-16   7.19070483E-08  -3.57853557E-17  -3.45017426E-18  -3.41092386E-17  -3.21437765E-17  -1.99679781E-10  -1.11481517E-10  -1.15402867E-07   3.80192954E-08   1.79258905E-07  -2.42534738E-16  -5.34231577E-18   1.39589472E-17   3.43623500E-18   1.76501899E-17  -3.36713132E-11  -4.53312799E-08  -4.60315523E-08   0.00000000E+00  -2.81951149E-08  -1.92109674E-16  -6.91674852E-16  -6.80480658E-16   2.25577822E-17
   4.81250000E+02   5.00000000E-01   5.00000000E-01  -1.30933748E-07  -4.39301370E-08   0.00000000E+00   0.00000000E+00   0.00000000E+00   1.40975574E-08   0.00000000E+00   1.03942652E-18   1.38049959E-08   1.98304102E-16   7.29655598E-08  -3.57725773E-17  -3.45643015E-18  -3.40534986E-17  -3.21527393E-17  -1.99634878E-10  -1.09024994E-10  -1.15402867E-07   3.67529560E-08   1.79985369E-07  -2.42568011E-16  -5.30311219E-18   1.34408796E-17   3.59830896E-18   1.74685238E-17  -3.36812661E-11  -4.53378142E-08  -4.60315523E-08   0.00000000E+00  -2.81951148E-08  -1.92109328E-16  -6.91674852E-16  -6.80481630E-16   2.24403259E-17
   4.98750000E+02   5.00000000E-01   5.00000000E-01  -1.30933746E-07  -4.36215456E-08   0.00000000E+00   0.00000000E+00   0.00000000E+00   1.40975573E-08   0.00000000E+00   1.10901488E-18   1.23272914E-08   2.13317190E-16   7.36855254E-08  -3.57627981E-17  -3.46399473E-18  -3.40116028E-17  -3.21824100E-17  -1.99587450E-10  -1.06526980E-10  -1.15402866E-07   3.54214328E-08   1.80776169E-07  -2.42610828E-16  -5.27154137E-18   1.28804717E-17   3.72728341E-18   1.72178616E-17  -3.36930970E-11  -4.53443786E-08  -4.60315523E-08   0.00000000E+00  -2.81951147E-08  -1.92109316E-16  -6.91674852E-16  -6.80482592E-16   2.23233257E-17
   5.16250000E+02   5.00000000E-01   5.00000000E-01  -1.30933743E-07  -4.32988230E-08   0.00000000E+00   0.00000000E+00   0.00000000E+00   1.40975573E-08   0.00000000E+00   1.18248327E-18   1.10107881E-08   2.29612159E-16   7.42691132E-08  -3.57544561E-17  -3.47200435E-18  -3.39763783E-17  -3.22213711E-17  -1.99537798E-10  -1.04014858E-10  -1.15402866E-07   3.40803393E-08   1.81567659E-07  -2.42657338E-16  -5.24382437E-18   1.23112527E-17   3.83943238E-18   1.69365158E-17  -3.37055585E-11  -4.53513478E-08  -4.60315523E-08   0.00000000E+00  -2.81951145E-08  -1.92109461E-16  -6.91674852E-16  -6.80483548E-16   2.22061713E-17
   5.33750000E+02   5.00000000E-01   5.00000000E-01  -1.30933740E-07  -4.29618617E-08   0.00000000E+00   0.00000000E+00   0.00000000E+00   1.40975572E-08   0.00000000E+00   1.25998867E-18   9.83175818E-09   2.47219303E-16   7.46794239E-08  -3.57474303E-17  -3.48034490E-18  -3.39472561E-17  -3.22682943E-17  -1.99485847E-10  -1.01490020E-10  -1.15402866E-07   3.27380141E-08   1.82365672E-07  -2.42706846E-16  -5.21959962E-18   1.17380470E-17   3.93633485E-18   1.66297734E-17  -3.37184951E-11  -4.53589424E-08  -4.60315523E-08   0.00000000E+00  -2.81951144E-08  -1.92109744E-16  -6.91674852E-16  -6.80484495E-16   2.20891791E-17
   5.51250000E+02   5.00000000E-01   5.00000000E-01  -1.30933737E-07  -4.26094428E-08   0.00000000E+00   0.00000000E+00   0.00000000E+00   1.40975571E-08   0.00000000E+00   1.34219569E-18   8.77428786E-09   2.66244859E-16   7.49036531E-08  -3.57420382E-17  -3.48910360E-18  -3.39256713E-17  -3.23247033E-17  -1.99431377E-10  -9.89449182E-11  -1.15402865E-07   3.13901313E-08   1.83177112E-07  -2.42759836E-16  -5.19952405E-18   1.11581263E-17   4.01519661E-18   1.62937681E-17  -3.37320480E-11  -4.53673074E-08  -4.60315523E-08   0.00000000E+00  -2.81951143E-08  -1.92110193E-16  -6.91674852E-16  -6.80485431E-16   2.19730592E-17
   5.68750000E+02   5.00000000E-01   5.00000000E-01  -1.30933734E-07  -4.22404039E-08   0.00000000E+00   0.00000000E+00   0.00000000E+00   1.40975571E-08   0.00000000E+00   1.42976008E-18   7.82673965E-09   2.86789837E-16   7.49508609E-08  -3.57385036E-17  -3.49831517E-18  -3.39126247E-17  -3.23914166E-17  -1.99374173E-10  -9.63731061E-11  -1.15402865E-07   3.00352364E-08   1.84003129E-07  -2.42816362E-16  -5.18403555E-18   1.05706392E-17   4.07416909E-18   1.59268219E-17  -3.37462815E-11  -4.53764864E-08  -4.60315523E-08   0.00000000E+00  -2.81951141E-08  -1.92110825E-16  -6.91674852E-16  -6.80486350E-16   2.18584659E-17
   5.86250000E+02   5.00000000E-01   5.00000000E-01  -1.30933730E-07  -4.18538434E-08   0.00000000E+00   0.00000000E+00   0.00000000E+00   1.40975570E-08   0.00000000E+00   1.52325369E-18   6.97876434E-09   3.08940044E-16   7.48344519E-08  -3.57369060E-17  -3.50794964E-18  -3.39084572E-17  -3.24683077E-17  -1.99314044E-10  -9.37705941E-11  -1.15402865E-07   2.86753622E-08   1.84842204E-07  -2.42876028E-16  -5.17325103E-18   9.97695598E-18   4.11278516E-18   1.55300816E-17  -3.37611635E-11  -4.53864057E-08  -4.60315523E-08   0.00000000E+00  -2.81951140E-08  -1.92111643E-16  -6.91674852E-16  -6.80487251E-16   2.17459038E-17
   6.03750000E+02   5.00000000E-01   5.00000000E-01  -1.30933725E-07  -4.14491702E-08   0.00000000E+00   0.00000000E+00   0.00000000E+00   1.40975569E-08   0.00000000E+00   1.62315643E-18   6.22084934E-09   3.32770932E-16   7.45687308E-08  -3.57372017E-17  -3.51793043E-18  -3.39129447E-17  -3.25545116E-17  -1.99250825E-10  -9.11358742E-11  -1.15402864E-07   2.73149083E-08   1.85691345E-07  -2.42938141E-16  -5.16702176E-18   9.37995259E-18   4.13171860E-18   1.51067946E-17  -3.37765899E-11  -4.53968871E-08  -4.60315523E-08   0.00000000E+00  -2.81951138E-08  -1.92112638E-16  -6.91674852E-16  -6.80488133E-16   2.16357105E-17
   6.21250000E+02   5.00000000E-01   5.00000000E-01  -1.30933720E-07  -4.10261150E-08   0.00000000E+00   0.00000000E+00   0.00000000E+00   1.40975568E-08   0.00000000E+00   1.72986155E-18   5.54420854E-09   3.58355359E-16   7.41677296E-08  -3.57392532E-17  -3.52815346E-18  -3.39254391E-17  -3.26486704E-17  -1.99184376E-10  -8.84696764E-11  -1.15402864E-07   2.59595658E-08   1.86546843E-07  -2.43001837E-16  -5.16500545E-18   8.78331387E-18   4.13247270E-18   1.46615277E-17  -3.37924132E-11  -4.54076817E-08  -4.60315523E-08  -9.80640532E-33  -2.81951136E-08  -1.92113790E-16  -6.91674852E-16  -6.80488996E-16   2.15280674E-17
   6.38750000E+02   5.00000000E-01   5.00000000E-01  -1.30933714E-07  -4.05847004E-08   0.00000000E+00   0.00000000E+00   0.00000000E+00   1.40975567E-08   0.00000000E+00   1.84369433E-18   4.94070267E-09   3.85771887E-16   7.36441958E-08  -3.57428662E-17  -3.53850530E-18  -3.39450347E-17  -3.27491873E-17  -1.99114580E-10  -8.57744883E-11  -1.15402864E-07   2.46153545E-08   1.87404925E-07  -2.43066208E-16  -5.16674682E-18   8.19091113E-18   4.11703253E-18   1.41994028E-17  -3.38084683E-11  -4.54185142E-08  -4.60315523E-08  -1.95380863E-32  -2.81951135E-08  -1.92115078E-16  -6.91674852E-16  -6.80489838E-16   2.14230300E-17
   6.56250000E+02   5.00000000E-01   5.00000000E-01  -1.30933708E-07  -4.01251695E-08   0.00000000E+00   0.00000000E+00   0.00000000E+00   1.40975567E-08   0.00000000E+00   1.96494378E-18   4.40278587E-09   4.15112379E-16   7.30087678E-08  -3.57478272E-17  -3.54887873E-18  -3.39707416E-17  -3.28544639E-17  -1.99041326E-10  -8.30538856E-11  -1.15402863E-07   2.32878066E-08   1.88262317E-07  -2.43130405E-16  -5.17175996E-18   7.60628584E-18   4.08751088E-18   1.37254045E-17  -3.38245966E-11  -4.54291241E-08  -4.60315523E-08  -3.87648448E-32  -2.81951133E-08  -1.92116477E-16  -6.91674852E-16  -6.80490660E-16   2.13205689E-17
   6.73750000E+02   5.00000000E-01   5.00000000E-01  -1.30933701E-07  -3.96479012E-08   0.00000000E+00   0.00000000E+00   0.00000000E+00   1.40975566E-08   0.00000000E+00   2.09389689E-18   3.92349095E-09   4.46486949E-16   7.22697908E-08  -3.57539334E-17  -3.55918280E-18  -3.40016221E-17  -3.29630695E-17  -1.98964508E-10  -8.03118804E-11  -1.15402863E-07   2.19814465E-08   1.89116527E-07  -2.43193704E-16  -5.17959261E-18   7.03233101E-18   4.04587309E-18   1.32439019E-17  -3.38406612E-11  -4.54392961E-08  -4.60315523E-08  -7.65024930E-32  -2.81951131E-08  -1.92117968E-16  -6.91674852E-16  -6.80491462E-16   2.12206091E-17
   6.91250000E+02   5.00000000E-01   5.00000000E-01  -1.30933693E-07  -3.91532921E-08   0.00000000E+00   0.00000000E+00   0.00000000E+00   1.40975565E-08   0.00000000E+00   2.23088473E-18   3.49641784E-09   4.80028986E-16   7.14328957E-08  -3.57610203E-17  -3.56935008E-18  -3.40369144E-17  -3.30738769E-17  -1.98884008E-10  -7.75521690E-11  -1.15402862E-07   2.06993820E-08   1.89966129E-07  -2.43255553E-16  -5.18988602E-18   6.47106216E-18   3.99368152E-18   1.27582588E-17  -3.38565587E-11  -4.54488758E-08  -4.60315523E-08  -1.49943484E-31  -2.81951129E-08  -1.92119533E-16  -6.91674852E-16  -6.80492244E-16   2.11230695E-17
   7.08750000E+02   5.00000000E-01   5.00000000E-01  -1.30933684E-07  -3.86416970E-08   0.00000000E+00   0.00000000E+00   0.00000000E+00   1.40975564E-08   0.00000000E+00   2.37630592E-18   3.11576194E-09   5.15894335E-16   7.05021060E-08  -3.57689665E-17  -3.57933527E-18  -3.40760550E-17  -3.31860659E-17  -1.98799690E-10  -7.47778261E-11  -1.15402862E-07   1.94433939E-08   1.90810526E-07  -2.43315563E-16  -5.20238516E-18   5.92368745E-18   3.93205296E-18   1.22708467E-17  -3.38722181E-11  -4.54577738E-08  -4.60315523E-08  -5.16453351E-17  -2.81951128E-08  -1.92121159E-16  -6.91674852E-16  -6.80493004E-16   2.10278818E-17
   7.26250000E+02   5.00000000E-01   5.00000000E-01  -1.30933674E-07  -3.81133829E-08   0.00000000E+00   0.00000000E+00   0.00000000E+00   1.40975563E-08   0.00000000E+00   2.53064556E-18   2.77629763E-09   5.54258445E-16   6.94802785E-08  -3.57776932E-17  -3.58911206E-18  -3.41186745E-17  -3.32990939E-17  -1.98711396E-10  -7.19911226E-11  -1.15402861E-07   1.82141148E-08   1.91649794E-07  -2.43373484E-16  -5.21693668E-18   5.39073324E-18   3.86166882E-18   1.17831465E-17  -3.38875963E-11  -4.54659608E-08  -4.60315523E-08  -1.92098408E-16  -2.81951126E-08  -1.92122839E-16  -6.91674852E-16  -6.80493744E-16   2.09350019E-17
   7.43750000E+02   5.00000000E-01   5.00000000E-01  -1.30933663E-07  -3.75684983E-08   0.00000000E+00   0.00000000E+00   0.00000000E+00   1.40975562E-08   0.00000000E+00   2.69448988E-18   2.47335306E-09   5.95311849E-16   6.83695201E-08  -3.57871593E-17  -3.59866909E-18  -3.41645749E-17  -3.34126487E-17  -1.98618943E-10  -6.91934512E-11  -1.15402861E-07   1.70112478E-08   1.92484502E-07  -2.43429179E-16  -5.23347856E-18   4.87219194E-18   3.78282026E-18   1.12958985E-17  -3.39026725E-11  -4.54734592E-08  -4.60315523E-08  -4.10553959E-16  -2.81951124E-08  -1.92124568E-16  -6.91674852E-16  -6.80494463E-16   2.08444126E-17
   7.61250000E+02   5.00000000E-01   5.00000000E-01  -1.30933650E-07  -3.70070606E-08   0.00000000E+00   0.00000000E+00   0.00000000E+00   1.40975561E-08   0.00000000E+00   2.86853528E-18   2.20277725E-09   6.39253794E-16   6.71716085E-08  -3.57973534E-17  -3.60800559E-18  -3.42136933E-17  -3.35265898E-17  -1.98522120E-10  -6.63853601E-11  -1.15402860E-07   1.58338086E-08   1.93315536E-07  -2.43482594E-16  -5.25202342E-18   4.36767818E-18   3.69548078E-18   1.08092828E-17  -3.39174420E-11  -4.54803320E-08  -4.60315523E-08  -7.16305918E-16  -2.81951121E-08  -1.92126346E-16  -6.91674852E-16  -6.80495160E-16   2.07561210E-17
   7.78750000E+02   5.00000000E-01   5.00000000E-01  -1.30933636E-07  -3.64289655E-08   0.00000000E+00   0.00000000E+00   0.00000000E+00   1.40975560E-08   0.00000000E+00   3.05359077E-18   1.96090204E-09   6.86283872E-16   6.58883952E-08  -3.58082842E-17  -3.61712709E-18  -3.42660569E-17  -3.36408847E-17  -1.98420688E-10  -6.35666930E-11  -1.15402860E-07   1.46803749E-08   1.94143906E-07  -2.43533729E-16  -5.27263669E-18   3.87658256E-18   3.59939988E-18   1.03231140E-17  -3.39319100E-11  -4.54866701E-08  -4.60315523E-08  -1.09936695E-15  -2.81951119E-08  -1.92128172E-16  -6.91674852E-16  -6.80495835E-16   2.06701522E-17
   7.96250000E+02   5.00000000E-01   5.00000000E-01  -1.30933621E-07  -3.58340233E-08   0.00000000E+00   0.00000000E+00   0.00000000E+00   1.40975559E-08   0.00000000E+00   3.25057094E-18   1.74450226E-09   7.36591374E-16   6.45222225E-08  -3.58199684E-17  -3.62604124E-18  -3.43217292E-17  -3.37555426E-17  -1.98314386E-10  -6.07368496E-11  -1.15402859E-07   1.35493462E-08   1.94970558E-07  -2.43582611E-16  -5.29540984E-18   3.39822168E-18   3.49421767E-18   9.83704972E-18  -3.39460850E-11  -4.54925779E-08  -4.60315523E-08  -1.50740779E-15  -2.81951117E-08  -1.92130050E-16  -6.91674852E-16  -6.80496489E-16   2.05865385E-17