 TITLE = "Mineral Rate (mol/m^3/sec)" 
VARIABLES = "X"          "Y"              "Z"            "Forsterite"     "Fayalite"       "Brucite"        "Lizardite"      "Chrysotile"     "Hematite"       "Magnetite(am)"  "Saponite(Ca)"   "Saponite(K)"    "Saponite(Mg)"   "Saponite(Na)"   "Beidellite(Ca)" "Beidellite(K)"  "Beidellite(Mg)" "Beidellite(Na)" "Enstatite(alph" "Ferrosilite(al" "Anorthite"      "Albite(low)"    "Clinochlore"    "Sudoite"        "Montmor(MgCa)"  "Montmor(MgK)"   "Montmor(MgMg)"  "Montmor(MgNa)"  "Kaolinite"      "Tremolite"      "Pargasite"      "Anhydrite"      "Epidote"        "Scolecite"      "Pyrite"         "FeS(am)"        "Quartz(alpha)" 
 ZONE I=         200 , J=           1 , K=           1  F=POINT
   8.75000000E+00   5.00000000E-01   5.00000000E-01  -1.30878715E-07  -4.78543433E-08   0.00000000E+00   0.00000000E+00   0.00000000E+00   1.40438505E-08   0.00000000E+00   7.67898115E-19   3.24945608E-08   6.83078102E-17   2.80918441E-09  -3.64761579E-17  -3.81015902E-18  -3.73256736E-17  -3.70179042E-17  -2.00081581E-10  -1.71736478E-10  -1.15239605E-07  -2.84981658E-08   2.20759910E-07  -3.60441452E-15  -8.06382995E-18  -8.23636781E-18  -8.24516532E-18  -8.16724047E-18  -3.42524021E-11  -4.48911649E-08  -4.59605727E-08   0.00000000E+00  -2.80877008E-08  -1.91624445E-16  -6.90699997E-16  -6.79790657E-16   9.47181020E-18
   2.62500000E+01   5.00000000E-01   5.00000000E-01  -1.30878721E-07  -4.78502053E-08   0.00000000E+00   0.00000000E+00   0.00000000E+00   1.40438504E-08   0.00000000E+00   1.10155398E-19   4.60455975E-08   2.76719518E-17   4.56503470E-09  -3.64722745E-17  -3.80469732E-18  -3.73074916E-17  -3.69708673E-17  -2.00274176E-10  -1.70502669E-10  -1.15239605E-07  -1.94125653E-08   2.13657923E-07  -2.86333784E-15  -8.02175822E-18  -7.23311436E-18  -8.06281810E-18  -7.44590223E-18  -3.42265341E-11  -4.49135993E-08  -4.59605727E-08   0.00000000E+00  -2.80877008E-08  -1.91620571E-16  -6.90699997E-16  -6.79787559E-16   1.45152875E-17
   4.37500000E+01   5.00000000E-01   5.00000000E-01  -1.30878722E-07  -4.78298455E-08   0.00000000E+00   0.00000000E+00   0.00000000E+00   1.40438504E-08   0.00000000E+00   7.62183994E-20   4.74334901E-08   2.60058357E-17   5.49043250E-09  -3.64453874E-17  -3.76875614E-18  -3.71817719E-17  -3.66543975E-17  -2.00297664E-10  -1.68529971E-10  -1.15239605E-07  -1.47618140E-09   2.04307941E-07  -1.91966716E-15  -7.84293340E-18  -3.21181670E-18  -7.28830807E-18  -4.47670895E-18  -3.41312263E-11  -4.49240168E-08  -4.59605727E-08   0.00000000E+00  -2.80877007E-08  -1.91608315E-16  -6.90699997E-16  -6.79784479E-16   1.85810536E-17
   6.12500000E+01   5.00000000E-01   5.00000000E-01  -1.30878722E-07  -4.78000115E-08   0.00000000E+00   0.00000000E+00   0.00000000E+00   1.40438503E-08   0.00000000E+00   9.34327859E-20   5.68355671E-08   2.79684326E-17   7.73178143E-09  -3.63873380E-17  -3.69585253E-18  -3.69107275E-17  -3.59942541E-17  -2.00295868E-10  -1.66358385E-10  -1.15239605E-07   1.83449642E-08   1.92476066E-07  -1.09198065E-15  -7.53855651E-18   3.17023854E-18  -5.97065016E-18   3.90051261E-19  -3.39951332E-11  -4.49323208E-08  -4.59605727E-08   0.00000000E+00  -2.80877006E-08  -1.91591461E-16  -6.90699997E-16  -6.79781633E-16   2.13141841E-17
   7.87500000E+01   5.00000000E-01   5.00000000E-01  -1.30878722E-07  -4.77642374E-08   0.00000000E+00   0.00000000E+00   0.00000000E+00   1.40438503E-08   0.00000000E+00   1.00777515E-19   6.65570894E-08   2.95109617E-17   1.07166742E-08  -3.63052542E-17  -3.59978436E-18  -3.65280159E-17  -3.50957478E-17  -2.00290681E-10  -1.64273140E-10  -1.15239605E-07   3.55792874E-08   1.81762194E-07  -6.23295792E-16  -7.17876366E-18   1.01274329E-17  -4.41347261E-18   5.90110020E-18  -3.38444183E-11  -4.49462756E-08  -4.59605727E-08   0.00000000E+00  -2.80877006E-08  -1.91573328E-16  -6.90699997E-16  -6.79779232E-16   2.28769227E-17
   9.62500000E+01   5.00000000E-01   5.00000000E-01  -1.30878722E-07  -4.77215477E-08   0.00000000E+00   0.00000000E+00   0.00000000E+00   1.40438503E-08   0.00000000E+00   1.03857170E-19   7.26331795E-08   3.09364947E-17   1.39215017E-08  -3.62175958E-17  -3.50562460E-18  -3.61199748E-17  -3.41792217E-17  -2.00283008E-10  -1.62243395E-10  -1.15239605E-07   4.78645267E-08   1.74088087E-07  -4.12443309E-16  -6.84561276E-18   1.59224345E-17  -2.97192191E-18   1.07307286E-17  -3.37085058E-11  -4.49637929E-08  -4.59605727E-08   0.00000000E+00  -2.80877005E-08  -1.91557262E-16  -6.90699997E-16  -6.79777147E-16   2.36451625E-17
   1.13750000E+02   5.00000000E-01   5.00000000E-01  -1.30878722E-07  -4.76701346E-08   0.00000000E+00   0.00000000E+00   0.00000000E+00   1.40438502E-08   0.00000000E+00   1.09999495E-19   7.49263223E-08   3.26986786E-17   1.71238848E-08  -3.61413044E-17  -3.43264779E-18  -3.57655733E-17  -3.34285025E-17  -2.00272310E-10  -1.60198438E-10  -1.15239605E-07   5.51804359E-08   1.69523269E-07  -3.19417087E-16  -6.58456010E-18   1.98028392E-17  -1.84291534E-18   1.42275035E-17  -3.36069677E-11  -4.49827219E-08  -4.59605727E-08   0.00000000E+00  -2.80877005E-08  -1.91545099E-16  -6.90699997E-16  -6.79775310E-16   2.39545815E-17
   1.31250000E+02   5.00000000E-01   5.00000000E-01  -1.30878721E-07  -4.76087025E-08   0.00000000E+00   0.00000000E+00   0.00000000E+00   1.40438502E-08   0.00000000E+00   1.21662927E-19   7.44966549E-08   3.49883939E-17   2.02938654E-08  -3.60826435E-17  -3.38533759E-18  -3.54938275E-17  -3.28985214E-17  -2.00258685E-10  -1.58099767E-10  -1.15239605E-07   5.87788049E-08   1.67271867E-07  -2.76365039E-16  -6.39742715E-18   2.19512362E-17  -1.03451842E-18   1.64491576E-17  -3.35420086E-11  -4.50017811E-08  -4.59605727E-08   0.00000000E+00  -2.80877004E-08  -1.91536781E-16  -6.90699997E-16  -6.79773720E-16   2.40291311E-17
   1.48750000E+02   5.00000000E-01   5.00000000E-01  -1.30878721E-07  -4.75363849E-08   0.00000000E+00   0.00000000E+00   0.00000000E+00   1.40438502E-08   0.00000000E+00   1.39166593E-19   7.23577817E-08   3.78885949E-17   2.34705347E-08  -3.60402740E-17  -3.35939493E-18  -3.52983047E-17  -3.25610133E-17  -2.00242436E-10  -1.55931536E-10  -1.15239605E-07   6.00032660E-08   1.66488365E-07  -2.55542098E-16  -6.26696111E-18   2.28726862E-17  -4.72088659E-19   1.77299468E-17  -3.35067286E-11  -4.50203106E-08  -4.59605727E-08   0.00000000E+00  -2.80877004E-08  -1.91531432E-16  -6.90699997E-16  -6.79772390E-16   2.39977548E-17
   1.66250000E+02   5.00000000E-01   5.00000000E-01  -1.30878721E-07  -4.74527757E-08   0.00000000E+00   0.00000000E+00   0.00000000E+00   1.40438502E-08   0.00000000E+00   1.61777148E-19   6.92615551E-08   4.14023045E-17   2.66948511E-08  -3.60096993E-17  -3.34789631E-18  -3.51579174E-17  -3.23582802E-17  -2.00223967E-10  -1.53695913E-10  -1.15239605E-07   5.98795145E-08   1.66529091E-07  -2.45177500E-16  -6.17308859E-18   2.30514318E-17  -6.86379307E-20   1.84181365E-17  -3.34916337E-11  -4.50379420E-08  -4.59605727E-08   0.00000000E+00  -2.80877003E-08  -1.91528042E-16  -6.90699997E-16  -6.79771327E-16   2.39255179E-17
   1.83750000E+02   5.00000000E-01   5.00000000E-01  -1.30878721E-07  -4.73579645E-08   0.00000000E+00   0.00000000E+00   0.00000000E+00   1.40438501E-08   0.00000000E+00   1.88232154E-19   6.57027288E-08   4.54602718E-17   2.99861212E-08  -3.59860313E-17  -3.34451521E-18  -3.50498264E-17  -3.22336628E-17  -2.00203730E-10  -1.51408640E-10  -1.15239605E-07   5.90825925E-08   1.66971695E-07  -2.39940662E-16  -6.09926159E-18   2.28446153E-17   2.47612990E-19   1.87840058E-17  -3.34880457E-11  -4.50544479E-08  -4.59605727E-08   0.00000000E+00  -2.80877003E-08  -1.91525755E-16  -6.90699997E-16  -6.79770532E-16   2.38399373E-17
   2.01250000E+02   5.00000000E-01   5.00000000E-01  -1.30878720E-07  -4.72518843E-08   0.00000000E+00   0.00000000E+00   0.00000000E+00   1.40438501E-08   0.00000000E+00   2.17936856E-19   6.18988325E-08   5.00545585E-17   3.33299052E-08  -3.59664682E-17  -3.34575223E-18  -3.49609508E-17  -3.21552921E-17  -2.00181934E-10  -1.49078338E-10  -1.15239605E-07   5.79520572E-08   1.67612884E-07  -2.37275023E-16  -6.03656125E-18   2.24378061E-17   5.15367335E-19   1.89707552E-17  -3.34911909E-11  -4.50699727E-08  -4.59605727E-08   0.00000000E+00  -2.80877002E-08  -1.91524111E-16  -6.90699997E-16  -6.79769990E-16   2.37527925E-17
   2.18750000E+02   5.00000000E-01   5.00000000E-01  -1.30878720E-07  -4.71342101E-08   0.00000000E+00   0.00000000E+00   0.00000000E+00   1.40438501E-08   0.00000000E+00   2.50800368E-19   5.79607098E-08   5.52342437E-17   3.66968548E-08  -3.59497488E-17  -3.34996395E-18  -3.48853958E-17  -3.21083945E-17  -2.00158614E-10  -1.46706487E-10  -1.15239604E-07   5.66432020E-08   1.68361563E-07  -2.35915210E-16  -5.98094628E-18   2.19164435E-17   7.52165227E-19   1.90443090E-17  -3.34988359E-11  -4.50850146E-08  -4.59605727E-08   0.00000000E+00  -2.80877002E-08  -1.91522902E-16  -6.90699997E-16  -6.79769674E-16   2.36693589E-17
   2.36250000E+02   5.00000000E-01   5.00000000E-01  -1.30878720E-07  -4.70050567E-08   0.00000000E+00   0.00000000E+00   0.00000000E+00   1.40438501E-08   0.00000000E+00   2.86255607E-19   5.40105697E-08   6.09601928E-17   4.00760327E-08  -3.59343607E-17  -3.35552484E-18  -3.48161235E-17  -3.20771355E-17  -2.00133926E-10  -1.44304307E-10  -1.15239604E-07   5.52743414E-08   1.69140211E-07  -2.35221954E-16  -5.92846745E-18   2.13519073E-17   9.75143501E-19   1.90636937E-17  -3.35086040E-11  -4.51000492E-08  -4.59605727E-08   0.00000000E+00  -2.80877001E-08  -1.91521908E-16  -6.90699997E-16  -6.79769563E-16   2.35892459E-17
   2.53750000E+02   5.00000000E-01   5.00000000E-01  -1.30878719E-07  -4.68641117E-08   0.00000000E+00   0.00000000E+00   0.00000000E+00   1.40438500E-08   0.00000000E+00   3.24305130E-19   5.00819046E-08   6.72380430E-17   4.34212528E-08  -3.59200162E-17  -3.36203508E-18  -3.47517880E-17  -3.20579539E-17  -2.00107850E-10  -1.41873174E-10  -1.15239604E-07   5.38744888E-08   1.69936417E-07  -2.34870746E-16  -5.87836299E-18   2.07614852E-17   1.18761161E-18   1.90423857E-17  -3.35198923E-11  -4.51155067E-08  -4.59605727E-08   0.00000000E+00  -2.80877001E-08  -1.91521081E-16  -6.90699997E-16  -6.79769631E-16   2.35120904E-17
   2.71250000E+02   5.00000000E-01   5.00000000E-01  -1.30878719E-07  -4.67110473E-08   0.00000000E+00   0.00000000E+00   0.00000000E+00   1.40438500E-08   0.00000000E+00   3.64977069E-19   4.62189041E-08   7.40607781E-17   4.66964080E-08  -3.59065670E-17  -3.36925675E-18  -3.46916946E-17  -3.20487933E-17  -2.00080356E-10  -1.39414254E-10  -1.15239604E-07   5.24579001E-08   1.70741718E-07  -2.34695863E-16  -5.83029456E-18   2.01544245E-17   1.39103754E-18   1.89874488E-17  -3.35323209E-11  -4.51315617E-08  -4.59605727E-08   0.00000000E+00  -2.80877000E-08  -1.91520395E-16  -6.90699997E-16  -6.79769853E-16   2.34371748E-17
   2.88750000E+02   5.00000000E-01   5.00000000E-01  -1.30878718E-07  -4.65456908E-08   0.00000000E+00   0.00000000E+00   0.00000000E+00   1.40438500E-08   0.00000000E+00   4.08190217E-19   4.24647504E-08   8.13972748E-17   4.98724334E-08  -3.58937756E-17  -3.37691543E-18  -3.46347374E-17  -3.20469918E-17  -2.00051439E-10  -1.36931101E-10  -1.15239604E-07   5.10383799E-08   1.71546882E-07  -2.34612327E-16  -5.78377463E-18   1.95405008E-17   1.58753232E-18   1.89071524E-17  -3.35454458E-11  -4.51480447E-08  -4.59605727E-08   0.00000000E+00  -2.80877000E-08  -1.91519814E-16  -6.90699997E-16  -6.79770209E-16   2.33633361E-17
   3.06250000E+02   5.00000000E-01   5.00000000E-01  -1.30878717E-07  -4.63680861E-08   0.00000000E+00   0.00000000E+00   0.00000000E+00   1.40438500E-08   0.00000000E+00   4.53748419E-19   3.88563127E-08   8.92023721E-17   5.29252406E-08  -3.58813261E-17  -3.38471734E-18  -3.45794522E-17  -3.20494430E-17  -2.00021126E-10  -1.34429770E-10  -1.15239604E-07   4.96292699E-08   1.72343130E-07  -2.34576339E-16  -5.73818101E-18   1.89296365E-17   1.77978718E-18   1.88106493E-17  -3.35587888E-11  -4.51645145E-08  -4.59605727E-08   0.00000000E+00  -2.80876999E-08  -1.91519294E-16  -6.90699997E-16  -6.79770683E-16   2.32890887E-17
   3.23750000E+02   5.00000000E-01   5.00000000E-01  -1.30878717E-07  -4.61784987E-08   0.00000000E+00   0.00000000E+00   0.00000000E+00   1.40438499E-08   0.00000000E+00   5.01369926E-19   3.54228189E-08   9.74301902E-17   5.58345239E-08  -3.58688767E-17  -3.39239238E-18  -3.45242605E-17  -3.20530824E-17  -1.99989461E-10  -1.31918162E-10  -1.15239604E-07   4.82417723E-08   1.73123386E-07  -2.34565365E-16  -5.69286711E-18   1.83305041E-17   1.97059617E-18   1.87065853E-17  -3.35719061E-11  -4.51804339E-08  -4.59605727E-08   0.00000000E+00  -2.80876999E-08  -1.91518795E-16  -6.90699997E-16  -6.79771259E-16   2.32128159E-17
   3.41250000E+02   5.00000000E-01   5.00000000E-01  -1.30878716E-07  -4.59773677E-08   0.00000000E+00   0.00000000E+00   0.00000000E+00   1.40438499E-08   0.00000000E+00   5.50735682E-19   3.21854494E-08   1.06045102E-16   5.85827405E-08  -3.58561198E-17  -3.39973232E-18  -3.44677457E-17  -3.20553688E-17  -1.99956500E-10  -1.29404952E-10  -1.15239604E-07   4.68834589E-08   1.73883265E-07  -2.34567667E-16  -5.64728520E-18   1.77493158E-17   2.16232271E-18   1.86017442E-17  -3.35844499E-11  -4.51953292E-08  -4.59605727E-08   0.00000000E+00  -2.80876998E-08  -1.91518279E-16  -6.90699997E-16  -6.79771924E-16   2.31329770E-17
   3.58750000E+02   5.00000000E-01   5.00000000E-01  -1.30878715E-07  -4.57651617E-08   0.00000000E+00   0.00000000E+00   0.00000000E+00   1.40438499E-08   0.00000000E+00   6.01582935E-19   2.91566889E-08   1.15034603E-16   6.11522154E-08  -3.58428759E-17  -3.40664229E-18  -3.44090859E-17  -3.20549761E-17  -1.99922277E-10  -1.26897621E-10  -1.15239604E-07   4.55559128E-08   1.74622832E-07  -2.34577245E-16  -5.60118592E-18   1.71881270E-17   2.35603801E-18   1.84990418E-17  -3.35962489E-11  -4.52088918E-08  -4.59605727E-08   0.00000000E+00  -2.80876997E-08  -1.91517729E-16  -6.90699997E-16  -6.79772665E-16   2.30483750E-17
   3.76250000E+02   5.00000000E-01   5.00000000E-01  -1.30878714E-07  -4.55423213E-08   0.00000000E+00   0.00000000E+00   0.00000000E+00   1.40438498E-08   0.00000000E+00   6.53722375E-19   2.63429906E-08   1.24409118E-16   6.35283175E-08  -3.58290754E-17  -3.41311102E-18  -3.43479694E-17  -3.20515371E-17  -1.99886808E-10  -1.24402077E-10  -1.15239604E-07   4.42569107E-08   1.75344547E-07  -2.34591063E-16  -5.55456014E-18   1.66461674E-17   2.55177405E-18   1.83985566E-17  -3.36072656E-11  -4.52209882E-08  -4.59605727E-08   0.00000000E+00  -2.80876996E-08  -1.91517141E-16  -6.90699997E-16  -6.79773471E-16   2.29582172E-17
   3.93750000E+02   5.00000000E-01   5.00000000E-01  -1.30878713E-07  -4.53091575E-08   0.00000000E+00   0.00000000E+00   0.00000000E+00   1.40438498E-08   0.00000000E+00   7.07079770E-19   2.37450209E-08   1.34204840E-16   6.56981496E-08  -3.58147762E-17  -3.41920653E-18  -3.42846708E-17  -3.20456756E-17  -1.99850075E-10  -1.21921834E-10  -1.15239603E-07   4.29808537E-08   1.76053228E-07  -2.34607743E-16  -5.50766498E-18   1.61201193E-17   2.74841286E-18   1.82975610E-17  -3.36175898E-11  -4.52316368E-08  -4.59605727E-08   0.00000000E+00  -2.80876995E-08  -1.91516523E-16  -6.90699997E-16  -6.79774328E-16   2.28621716E-17
   4.11250000E+02   5.00000000E-01   5.00000000E-01  -1.30878711E-07  -4.50658176E-08   0.00000000E+00   0.00000000E+00   0.00000000E+00   1.40438497E-08   0.00000000E+00   7.61694060E-19   2.13592672E-08   1.44480658E-16   6.76523973E-08  -3.58001322E-17  -3.42504431E-18  -3.42199061E-17  -3.20386789E-17  -1.99812033E-10  -1.19458113E-10  -1.15239603E-07   4.17206563E-08   1.76754535E-07  -2.34626810E-16  -5.46094254E-18   1.56053719E-17   2.94403973E-18   1.81916619E-17  -3.36273911E-11  -4.52409687E-08  -4.59605727E-08   0.00000000E+00  -2.80876994E-08  -1.91515896E-16  -6.90699997E-16  -6.79775227E-16   2.27603181E-17
   4.28750000E+02   5.00000000E-01   5.00000000E-01  -1.30878710E-07  -4.48122929E-08   0.00000000E+00   0.00000000E+00   0.00000000E+00   1.40438497E-08   0.00000000E+00   8.17695989E-19   1.91790736E-08   1.55312559E-16   6.93862731E-08  -3.57853528E-17  -3.43075559E-18  -3.41546432E-17  -3.20321338E-17  -1.99772609E-10  -1.17010352E-10  -1.15239603E-07   4.04694491E-08   1.77453790E-07  -2.34648231E-16  -5.41492105E-18   1.50971841E-17   3.13637080E-18   1.80759783E-17  -3.36368691E-11  -4.52491891E-08  -4.59605727E-08   0.00000000E+00  -2.80876993E-08  -1.91515283E-16  -6.90699997E-16  -6.79776156E-16   2.26530501E-17
   4.46250000E+02   5.00000000E-01   5.00000000E-01  -1.30878708E-07  -4.45483915E-08   0.00000000E+00   0.00000000E+00   0.00000000E+00   1.40438496E-08   0.00000000E+00   8.75310251E-19   1.71950406E-08   1.66791480E-16   7.08979036E-08  -3.57706966E-17  -3.43648045E-18  -3.40900742E-17  -3.20278526E-17  -1.99731707E-10  -1.14576242E-10  -1.15239603E-07   3.92207561E-08   1.78156091E-07  -2.34672244E-16  -5.37020066E-18   1.45908817E-17   3.32281607E-18   1.79453493E-17  -3.36462425E-11  -4.52565537E-08  -4.59605727E-08   0.00000000E+00  -2.80876992E-08  -1.91514712E-16  -6.90699997E-16  -6.79777106E-16   2.25410106E-17
   4.63750000E+02   5.00000000E-01   5.00000000E-01  -1.30878707E-07  -4.42737466E-08   0.00000000E+00   0.00000000E+00   0.00000000E+00   1.40438496E-08   0.00000000E+00   9.34841648E-19   1.53959731E-08   1.79018825E-16   7.21885255E-08  -3.57564509E-17  -3.44235425E-18  -3.40275173E-17  -3.20277013E-17  -1.99689209E-10  -1.12152104E-10  -1.15239603E-07   3.79690395E-08   1.78865852E-07  -2.34699209E-16  -5.32740637E-18   1.40822819E-17   3.50068288E-18   1.77948287E-17  -3.36557269E-11  -4.52633487E-08  -4.59605727E-08   0.00000000E+00  -2.80876991E-08  -1.91514211E-16  -6.90699997E-16  -6.79778069E-16   2.24250123E-17
   4.81250000E+02   5.00000000E-01   5.00000000E-01  -1.30878705E-07  -4.39878411E-08   0.00000000E+00   0.00000000E+00   0.00000000E+00   1.40438495E-08   0.00000000E+00   9.96657136E-19   1.37695874E-08   1.92101033E-16   7.32622270E-08  -3.57429097E-17  -3.44849644E-18  -3.39683169E-17  -3.20334414E-17  -1.99644980E-10  -1.09733333E-10  -1.15239602E-07   3.67100887E-08   1.79586530E-07  -2.34729498E-16  -5.28714263E-18   1.35680119E-17   3.66737265E-18   1.76201056E-17  -3.36655171E-11  -4.52698742E-08  -4.59605727E-08   0.00000000E+00  -2.80876990E-08  -1.91513807E-16  -6.90699997E-16  -6.79779038E-16   2.23059605E-17
   4.98750000E+02   5.00000000E-01   5.00000000E-01  -1.30878702E-07  -4.36855868E-08   0.00000000E+00   0.00000000E+00   0.00000000E+00   1.40438494E-08   0.00000000E+00   1.06326519E-18   1.22905524E-08   2.06538379E-16   7.39989965E-08  -3.57323665E-17  -3.45596240E-18  -3.39229651E-17  -3.20600336E-17  -1.99598285E-10  -1.07275157E-10  -1.15239602E-07   3.53870826E-08   1.80370518E-07  -2.34769192E-16  -5.25441987E-18   1.30116631E-17   3.80134000E-18   1.73768474E-17  -3.36772153E-11  -4.52764301E-08  -4.59605727E-08   0.00000000E+00  -2.80876989E-08  -1.91513736E-16  -6.90699997E-16  -6.79779996E-16   2.21873490E-17
   5.16250000E+02   5.00000000E-01   5.00000000E-01  -1.30878700E-07  -4.33696962E-08   0.00000000E+00   0.00000000E+00   0.00000000E+00   1.40438494E-08   0.00000000E+00   1.13350642E-18   1.09733066E-08   2.22194789E-16   7.45995209E-08  -3.57232363E-17  -3.46387613E-18  -3.38841816E-17  -3.20959003E-17  -1.99549425E-10  -1.04804627E-10  -1.15239602E-07   3.40552840E-08   1.81154688E-07  -2.34812567E-16  -5.22545914E-18   1.24467387E-17   3.91886351E-18   1.71033542E-17  -3.36895512E-11  -4.52833904E-08  -4.59605727E-08   0.00000000E+00  -2.80876987E-08  -1.91513818E-16  -6.90699997E-16  -6.79780949E-16   2.20685626E-17
   5.33750000E+02   5.00000000E-01   5.00000000E-01  -1.30878697E-07  -4.30400783E-08   0.00000000E+00   0.00000000E+00   0.00000000E+00   1.40438493E-08   0.00000000E+00   1.20752380E-18   9.79405740E-09   2.39096861E-16   7.50268468E-08  -3.57154019E-17  -3.47212530E-18  -3.38514158E-17  -3.21397417E-17  -1.99498327E-10  -1.02323098E-10  -1.15239601E-07   3.27228219E-08   1.81944999E-07  -2.34858981E-16  -5.19990966E-18   1.18779499E-17   4.02147537E-18   1.68047879E-17  -3.37023714E-11  -4.52909755E-08  -4.59605727E-08   0.00000000E+00  -2.80876986E-08  -1.91514035E-16  -6.90699997E-16  -6.79781894E-16   2.19499178E-17
   5.51250000E+02   5.00000000E-01   5.00000000E-01  -1.30878694E-07  -4.26955707E-08   0.00000000E+00   0.00000000E+00   0.00000000E+00   1.40438492E-08   0.00000000E+00   1.28594219E-18   8.73684960E-09   2.57343260E-16   7.52686451E-08  -3.57091870E-17  -3.48079969E-18  -3.38261308E-17  -3.21931205E-17  -1.99444779E-10  -9.98232447E-11  -1.15239601E-07   3.13854147E-08   1.82748258E-07  -2.34908926E-16  -5.17842567E-18   1.13025576E-17   4.10639081E-18   1.64772763E-17  -3.37158216E-11  -4.52993302E-08  -4.59605727E-08   0.00000000E+00  -2.80876985E-08  -1.91514417E-16  -6.90699997E-16  -6.79782826E-16   2.18321179E-17
   5.68750000E+02   5.00000000E-01   5.00000000E-01  -1.30878690E-07  -4.23350792E-08   0.00000000E+00   0.00000000E+00   0.00000000E+00   1.40438492E-08   0.00000000E+00   1.36937163E-18   7.78996267E-09   2.77026468E-16   7.53343128E-08  -3.57048175E-17  -3.48993467E-18  -3.38093391E-17  -3.22568692E-17  -1.99388573E-10  -9.72988972E-11  -1.15239601E-07   3.00417066E-08   1.83565527E-07  -2.34962461E-16  -5.16143634E-18   1.07197406E-17   4.17179678E-18   1.61191875E-17  -3.37299677E-11  -4.53084981E-08  -4.59605727E-08   0.00000000E+00  -2.80876983E-08  -1.91514980E-16  -6.90699997E-16  -6.79783742E-16   2.17158088E-17
   5.86250000E+02   5.00000000E-01   5.00000000E-01  -1.30878686E-07  -4.19577706E-08   0.00000000E+00   0.00000000E+00   0.00000000E+00   1.40438491E-08   0.00000000E+00   1.45833777E-18   6.94295614E-09   2.98223555E-16   7.52374212E-08  -3.57023740E-17  -3.49950012E-18  -3.38013850E-17  -3.23308642E-17  -1.99329528E-10  -9.47463185E-11  -1.15239600E-07   2.86937943E-08   1.84395240E-07  -2.35019208E-16  -5.14905048E-18   1.01308911E-17   4.21725921E-18   1.57317061E-17  -3.37447772E-11  -4.53184057E-08  -4.59605727E-08   0.00000000E+00  -2.80876982E-08  -1.91515726E-16  -6.90699997E-16  -6.79784641E-16   2.16014866E-17
   6.03750000E+02   5.00000000E-01   5.00000000E-01  -1.30878682E-07  -4.15631173E-08   0.00000000E+00   0.00000000E+00   0.00000000E+00   1.40438490E-08   0.00000000E+00   1.55327557E-18   6.18623382E-09   3.21001116E-16   7.49923218E-08  -3.57018126E-17  -3.50941906E-18  -3.38020460E-17  -3.24142396E-17  -1.99267488E-10  -9.21641993E-11  -1.15239600E-07   2.73460865E-08   1.85234409E-07  -2.35078497E-16  -5.14111446E-18   9.53888458E-18   4.24347195E-18   1.53180902E-17  -3.37601457E-11  -4.53288752E-08  -4.59605727E-08   0.00000000E+00  -2.80876980E-08  -1.91516645E-16  -6.90699997E-16  -6.79785520E-16   2.14894826E-17
   6.21250000E+02   5.00000000E-01   5.00000000E-01  -1.30878677E-07  -4.11509059E-08   0.00000000E+00   0.00000000E+00   0.00000000E+00   1.40438489E-08   0.00000000E+00   1.65453538E-18   5.51093907E-09   3.45422920E-16   7.46130118E-08  -3.57029963E-17  -3.51958698E-18  -3.38106748E-17  -3.25056363E-17  -1.99202322E-10  -8.95534027E-11  -1.15239600E-07   2.60042353E-08   1.86079360E-07  -2.35139492E-16  -5.13728454E-18   8.94738415E-18   4.25194359E-18   1.48828891E-17  -3.37759241E-11  -4.53396583E-08  -4.59605727E-08  -8.95797121E-33  -2.80876978E-08  -1.91517719E-16  -6.90699997E-16  -6.79786380E-16   2.13799750E-17
   6.38750000E+02   5.00000000E-01   5.00000000E-01  -1.30878672E-07  -4.07212063E-08   0.00000000E+00   0.00000000E+00   0.00000000E+00   1.40438488E-08   0.00000000E+00   1.76240139E-18   4.90887669E-09   3.71557967E-16   7.41121558E-08  -3.57057310E-17  -3.52989013E-18  -3.38263678E-17  -3.26034576E-17  -1.99133919E-10  -8.69164861E-11  -1.15239599E-07   2.46741867E-08   1.86926381E-07  -2.35201314E-16  -5.13710708E-18   8.36022418E-18   4.24465172E-18   1.44311849E-17  -3.37919465E-11  -4.53504802E-08  -4.59605727E-08  -1.79438629E-32  -2.80876977E-08  -1.91518927E-16  -6.90699997E-16  -6.79787219E-16   2.12730189E-17
   6.56250000E+02   5.00000000E-01   5.00000000E-01  -1.30878665E-07  -4.02743007E-08   0.00000000E+00   0.00000000E+00   0.00000000E+00   1.40438488E-08   0.00000000E+00   1.87712220E-18   4.37245878E-09   3.99487804E-16   7.35002927E-08  -3.57098043E-17  -3.54022110E-18  -3.38481388E-17  -3.27061076E-17  -1.99062177E-10  -8.42570416E-11  -1.15239599E-07   2.33613819E-08   1.87772265E-07  -2.35263135E-16  -5.14009999E-18   7.78090123E-18   4.22369247E-18   1.39679086E-17  -3.38080534E-11  -4.53610811E-08  -4.59605727E-08  -3.58025824E-32  -2.80876975E-08  -1.91520245E-16  -6.90699997E-16  -6.79788038E-16   2.11685873E-17
   6.73750000E+02   5.00000000E-01   5.00000000E-01  -1.30878658E-07  -3.98106006E-08   0.00000000E+00   0.00000000E+00   0.00000000E+00   1.40438487E-08   0.00000000E+00   1.99894351E-18   3.89468802E-09   4.29311176E-16   7.27856771E-08  -3.57150145E-17  -3.55048893E-18  -3.38750561E-17  -3.28121603E-17  -1.98986999E-10  -8.15790624E-11  -1.15239598E-07   2.20702514E-08   1.88614589E-07  -2.35324250E-16  -5.14581606E-18   7.21226185E-18   4.19100921E-18   1.34973700E-17  -3.38241074E-11  -4.53712461E-08  -4.59605727E-08  -7.10736283E-32  -2.80876973E-08  -1.91521652E-16  -6.90699997E-16  -6.79788838E-16   2.10666097E-17
   6.91250000E+02   5.00000000E-01   5.00000000E-01  -1.30878651E-07  -3.93305333E-08   0.00000000E+00   0.00000000E+00   0.00000000E+00   1.40438486E-08   0.00000000E+00   2.12815168E-18   3.46914392E-09   4.61148677E-16   7.19738822E-08  -3.57211991E-17  -3.56062637E-18  -3.39063668E-17  -3.29204964E-17  -1.98908273E-10  -7.88862126E-11  -1.15239598E-07   2.08038199E-08   1.89451981E-07  -2.35384120E-16  -5.15390198E-18   6.65627846E-18   4.14814060E-18   1.30228741E-17  -3.38400051E-11  -4.53808215E-08  -4.59605727E-08  -1.40164599E-31  -2.80876971E-08  -1.91523131E-16  -6.90699997E-16  -6.79789616E-16   2.09670101E-17
   7.08750000E+02   5.00000000E-01   5.00000000E-01  -1.30878642E-07  -3.88344838E-08   0.00000000E+00   0.00000000E+00   0.00000000E+00   1.40438485E-08   0.00000000E+00   2.26509524E-18   3.09000809E-09   4.95141723E-16   7.10689098E-08  -3.57282393E-17  -3.57058849E-18  -3.39415193E-17  -3.30303066E-17  -1.98825873E-10  -7.61815374E-11  -1.15239597E-07   1.95638018E-08   1.90283883E-07  -2.35442360E-16  -5.16410796E-18   6.11412236E-18   4.09618060E-18   1.25467393E-17  -3.38556757E-11  -4.53897183E-08  -4.59605727E-08  -4.85903162E-17  -2.80876969E-08  -1.91524671E-16  -6.90699997E-16  -6.79790375E-16   2.08697264E-17
   7.26250000E+02   5.00000000E-01   5.00000000E-01  -1.30878632E-07  -3.83227524E-08   0.00000000E+00   0.00000000E+00   0.00000000E+00   1.40438484E-08   0.00000000E+00   2.41020211E-18   2.75204555E-09   5.31449588E-16   7.00736296E-08  -3.57360596E-17  -3.58034943E-18  -3.39801585E-17  -3.31410611E-17  -1.98739652E-10  -7.34672927E-11  -1.15239597E-07   1.83507816E-08   1.91110393E-07  -2.35498722E-16  -5.17628537E-18   5.58628986E-18   4.03578981E-18   1.20704000E-17  -3.38710766E-11  -4.53979078E-08  -4.59605727E-08  -1.81966743E-16  -2.80876967E-08  -1.91526264E-16  -6.90699997E-16  -6.79791112E-16   2.07747199E-17
   7.43750000E+02   5.00000000E-01   5.00000000E-01  -1.30878622E-07  -3.77955252E-08   0.00000000E+00   0.00000000E+00   0.00000000E+00   1.40438483E-08   0.00000000E+00   2.56399252E-18   2.45057797E-09   5.70244845E-16   6.89901905E-08  -3.57446223E-17  -3.58989839E-18  -3.40221031E-17  -3.32524624E-17  -1.98649436E-10  -7.07448789E-11  -1.15239596E-07   1.71644314E-08   1.91932092E-07  -2.35553068E-16  -5.19037646E-18   5.07274928E-18   3.96724043E-18   1.15945562E-17  -3.38861878E-11  -4.54054129E-08  -4.59605727E-08  -3.91693865E-16  -2.80876965E-08  -1.91527906E-16  -6.90699997E-16  -6.79791828E-16   2.06819784E-17
   7.61250000E+02   5.00000000E-01   5.00000000E-01  -1.30878610E-07  -3.72528636E-08   0.00000000E+00   0.00000000E+00   0.00000000E+00   1.40438482E-08   0.00000000E+00   2.72708659E-18   2.18144971E-09   6.11707069E-16   6.78204349E-08  -3.57539207E-17  -3.59923525E-18  -3.40673097E-17  -3.33643867E-17  -1.98555028E-10  -6.80148781E-11  -1.15239596E-07   1.60037493E-08   1.92749862E-07  -2.35605339E-16  -5.20639783E-18   4.57309558E-18   3.89048816E-18   1.11193521E-17  -3.39010056E-11  -4.54122972E-08  -4.59605727E-08  -6.88603011E-16  -2.80876963E-08  -1.91529596E-16  -6.90699997E-16  -6.79792522E-16   2.05915134E-17
   7.78750000E+02   5.00000000E-01   5.00000000E-01  -1.30878596E-07  -3.66947132E-08   0.00000000E+00   0.00000000E+00   0.00000000E+00   1.40438480E-08   0.00000000E+00   2.90020556E-18   1.94098901E-09   6.56014690E-16   6.65662922E-08  -3.57639680E-17  -3.60836622E-18  -3.41158271E-17  -3.34768197E-17  -1.98456205E-10  -6.52771938E-11  -1.15239595E-07   1.48673044E-08   1.93564708E-07  -2.35655530E-16  -5.22441895E-18   4.08670230E-18   3.80526449E-18   1.06445686E-17  -3.39155362E-11  -4.54186523E-08  -4.59605727E-08  -1.06546976E-15  -2.80876961E-08  -1.91531336E-16  -6.90699997E-16  -6.79793195E-16   2.05033533E-17
   7.96250000E+02   5.00000000E-01   5.00000000E-01  -1.30878581E-07  -3.61209400E-08   0.00000000E+00   0.00000000E+00   0.00000000E+00   1.40438479E-08   0.00000000E+00   3.08416433E-18   1.72596755E-09   7.03334762E-16   6.52301831E-08  -3.57747865E-17  -3.61729968E-18  -3.41677429E-17  -3.35897898E-17  -1.98352720E-10  -6.25313039E-11  -1.15239594E-07   1.37534912E-08   1.94377564E-07  -2.35703661E-16  -5.24453573E-18   3.61286969E-18   3.71118974E-18   1.01698294E-17  -3.39297893E-11  -4.54245836E-08  -4.59605727E-08  -1.47399083E-15  -2.80876959E-08  -1.91533127E-16  -6.90699997E-16  -6.79793845E-16   2.04175333E-17