 TITLE = "Mineral Rate (mol/m^3/sec)" 
VARIABLES = "X"          "Y"              "Z"            "Forsterite"     "Enstatite(alph" "Anorthite"      "Ferropargasite" "Anhydrite"      "Clinochlore"    "Albite(low)"    "Fayalite"       "Epidote"        "Kaolinite"      "Muscovite(orde"
 ZONE I=          10 , J=           1 , K=           1  F=POINT
   1.75000000E+02   5.00000000E-01   5.00000000E-01  -9.99997009E-09  -9.93746230E-10  -9.99747319E-10  -9.99992983E-10  -7.25540084E-08   1.03723267E-08  -1.57451786E-08  -9.26404124E-09  -3.64932128E-17   0.00000000E+00   0.00000000E+00
   5.25000000E+02   5.00000000E-01   5.00000000E-01  -9.99996872E-09  -9.94024842E-10  -9.99747319E-10  -9.99992983E-10  -5.77071283E-08   9.69956470E-09  -1.43996475E-08  -9.74313055E-09  -1.59385715E-16   0.00000000E+00   0.00000000E+00
   8.75000000E+02   5.00000000E-01   5.00000000E-01  -9.99996612E-09  -9.93417085E-10  -9.99747319E-10  -9.99992983E-10  -3.57834512E-08   1.07590493E-08  -1.06492177E-08  -9.88830587E-09   7.66057440E-17   0.00000000E+00  -1.95646624E-09
   1.22500000E+03   5.00000000E-01   5.00000000E-01  -9.99996277E-09  -9.92420610E-10  -9.99747319E-10  -9.99992983E-10  -7.17068987E-09   1.13889050E-08  -2.06146742E-08  -9.94663466E-09  -1.40007135E-16   0.00000000E+00   9.45466689E-10
   1.57500000E+03   5.00000000E-01   5.00000000E-01  -9.99995990E-09  -9.91723962E-10  -9.99747319E-10  -9.99992983E-10   2.38924923E-08   1.21690846E-08  -2.90474657E-08  -9.97745434E-09  -4.23722870E-16   0.00000000E+00   3.23633046E-09
   1.92500000E+03   5.00000000E-01   5.00000000E-01  -9.99995474E-09  -9.90874025E-10  -9.99747319E-10  -9.99992983E-10   4.85205737E-08   1.29997188E-08  -4.01237353E-08  -9.99053957E-09  -1.48537196E-15   0.00000000E+00   6.37482731E-09
   2.27500000E+03   5.00000000E-01   5.00000000E-01  -9.99994141E-09  -9.89927731E-10  -9.99747319E-10  -9.99992983E-10   5.74932221E-08   1.37932731E-08  -5.20669422E-08  -9.99604055E-09  -5.98183781E-15   0.00000000E+00   9.82735428E-09
   2.62500000E+03   5.00000000E-01   5.00000000E-01  -9.99990977E-09  -9.88847860E-10  -9.99747319E-10  -9.99992983E-10   4.94874423E-08   1.45253374E-08  -6.29853723E-08  -9.99828803E-09  -2.27550104E-14   2.87288750E-10   1.27884276E-08
   2.97500000E+03   5.00000000E-01   5.00000000E-01  -9.99984859E-09  -9.87670723E-10  -9.99747319E-10  -9.99992983E-10   3.33316004E-08   1.51962159E-08  -7.19937206E-08  -9.99917970E-09  -7.30111711E-14   8.04235651E-10   1.50022754E-08
   3.32500000E+03   5.00000000E-01   5.00000000E-01  -9.99974714E-09  -9.86416005E-10  -9.99747319E-10  -9.99992983E-10   1.88632704E-08   1.59207917E-08  -7.89657435E-08  -9.99951583E-09  -1.20862936E-13   1.35034871E-09   1.64859158E-08
