 TITLE = "Mineral Rate (mol/m^3/sec)" 
VARIABLES = "X"          "Y"              "Z"            "Forsterite"     "Enstatite(alph" "Anorthite"      "Tremolite"      "Pargasite"      "Anhydrite"      "Clinochlore"    "Albite(low)"    "Fayalite"       "Epidote"        "Kaolinite"      "Muscovite(orde" "Sudoite"        "Saponite(Mg)"   "Scolecite"      "FeS(am)"        "Quartz(alpha)"  "Montmorillonit"
 ZONE I=         100 , J=           1 , K=           1  F=POINT
   1.75000000E+01   5.00000000E-01   5.00000000E-01  -9.99995669E-09  -9.97595611E-10  -9.99997176E-10  -9.99220203E-08  -9.99233812E-08  -7.60417708E-06   1.82850578E-07  -7.04473126E-08  -9.99883050E-09  -1.05596312E-16  -9.97798583E-09   0.00000000E+00   0.00000000E+00   1.82710677E-07  -9.96603042E-09   0.00000000E+00   7.03630291E-08  -9.44806246E-09
   5.25000000E+01   5.00000000E-01   5.00000000E-01  -9.99995675E-09  -9.97536616E-10  -9.99997176E-10  -9.99205558E-08  -9.99233812E-08  -6.17844701E-06   1.50694382E-07  -2.03905755E-08  -9.99728895E-09   1.12848824E-16  -9.97170061E-09   0.00000000E+00   0.00000000E+00   2.14827273E-07  -9.96535117E-09   0.00000000E+00   9.53519885E-08  -7.46699994E-09
   8.75000000E+01   5.00000000E-01   5.00000000E-01  -9.99995673E-09  -9.97386384E-10  -9.99997176E-10  -9.99186685E-08  -9.99233812E-08  -4.80415879E-06   1.33879560E-07   4.14327617E-09  -9.99486207E-09   2.31776198E-17  -9.96808812E-09   0.00000000E+00   0.00000000E+00   2.34744705E-07  -9.96475580E-09   0.00000000E+00   1.03800615E-07  -6.07215138E-09
   1.22500000E+02   5.00000000E-01   5.00000000E-01  -9.99995669E-09  -9.97237681E-10  -9.99997175E-10  -9.99171139E-08  -9.99233812E-08  -3.56777868E-06   1.27070276E-07   1.35672714E-08  -9.99160298E-09   8.55621352E-18  -9.96594896E-09   0.00000000E+00   0.00000000E+00   2.43394182E-07  -9.96430630E-09   0.00000000E+00   1.05806887E-07  -5.31999863E-09
   1.57500000E+02   5.00000000E-01   5.00000000E-01  -9.99995664E-09  -9.97090474E-10  -9.99997175E-10  -9.99160333E-08  -9.99233812E-08  -2.50692536E-06   1.24448123E-07   1.68422078E-08  -9.98758086E-09   3.30857119E-18  -9.96432909E-09   0.00000000E+00   0.00000000E+00   2.46979715E-07  -9.96395011E-09   0.00000000E+00   1.05416111E-07  -4.87039772E-09
   1.92500000E+02   5.00000000E-01   5.00000000E-01  -9.99995659E-09  -9.96941041E-10  -9.99997175E-10  -9.99153682E-08  -9.99233812E-08  -1.62796725E-06   1.23474685E-07   1.77176327E-08  -9.98287201E-09   6.05382411E-19  -9.96287489E-09   0.00000000E+00   0.00000000E+00   2.48541911E-07  -9.96365362E-09   0.00000000E+00   1.04138543E-07  -4.54702303E-09
   2.27500000E+02   5.00000000E-01   5.00000000E-01  -9.99995652E-09  -9.96787443E-10  -9.99997174E-10  -9.99150307E-08  -9.99233812E-08  -9.19303784E-07   1.23154354E-07   1.76423082E-08  -9.97756465E-09  -1.11924692E-18  -9.96145014E-09   0.00000000E+00   0.00000000E+00   2.49308786E-07  -9.96339848E-09   0.00000000E+00   1.02537727E-07  -4.27480076E-09
   2.62500000E+02   5.00000000E-01   5.00000000E-01  -9.99995644E-09  -9.96628780E-10  -9.99997174E-10  -9.99149411E-08  -9.99233812E-08  -3.60490941E-07   1.23101208E-07   1.71730553E-08  -9.97176060E-09  -2.40305553E-18  -9.95999864E-09   0.00000000E+00   0.00000000E+00   2.49761519E-07  -9.96317430E-09   0.00000000E+00   1.00827817E-07  -4.02283470E-09
   2.97500000E+02   5.00000000E-01   5.00000000E-01  -9.99995636E-09  -9.96464602E-10  -9.99997173E-10  -9.99150336E-08  -9.99233812E-08   7.20062559E-08   1.23164377E-07   1.65259671E-08  -9.96557468E-09  -3.47711193E-18  -9.95849563E-09   0.00000000E+00   0.00000000E+00   2.50089760E-07  -9.96297474E-09   0.00000000E+00   9.90922190E-08  -3.77841038E-09
   3.32500000E+02   5.00000000E-01   5.00000000E-01  -9.99995626E-09  -9.96294649E-10  -9.99997173E-10  -9.99152554E-08  -9.99233812E-08   4.01326102E-07   1.23284247E-07   1.57857509E-08  -9.95913183E-09  -4.45595560E-18  -9.95692923E-09   0.00000000E+00   0.00000000E+00   2.50369327E-07  -9.96279550E-09   0.00000000E+00   9.73642914E-08  -3.53628292E-09
   3.67500000E+02   5.00000000E-01   5.00000000E-01  -9.99995615E-09  -9.96118736E-10  -9.99997172E-10  -9.99155654E-08  -9.99233812E-08   6.48028995E-07   1.23437110E-07   1.49858309E-08  -9.95256246E-09  -5.40353540E-18  -9.95529311E-09   0.00000000E+00   0.00000000E+00   2.50630920E-07  -9.96263348E-09   0.00000000E+00   9.56577361E-08  -3.29432110E-09
   4.02500000E+02   5.00000000E-01   5.00000000E-01  -9.99995603E-09  -9.95936710E-10  -9.99997171E-10  -9.99159320E-08  -9.99233812E-08   8.30124858E-07   1.23613587E-07   1.41394057E-08  -9.94599666E-09  -6.36134700E-18  -9.95358344E-09   0.00000000E+00   0.00000000E+00   2.50886967E-07  -9.96248629E-09   0.00000000E+00   9.39782745E-08  -3.05173083E-09
   4.37500000E+02   5.00000000E-01   5.00000000E-01  -9.99995589E-09  -9.95748429E-10  -9.99997170E-10  -9.99163321E-08  -9.99233812E-08   9.62446591E-07   1.23810022E-07   1.32518039E-08  -9.93955846E-09  -7.35710159E-18  -9.95179755E-09   0.00000000E+00   0.00000000E+00   2.51142290E-07  -9.96235212E-09   0.00000000E+00   9.23282742E-08  -2.80830788E-09
   4.72500000E+02   5.00000000E-01   5.00000000E-01  -9.99995573E-09  -9.95553760E-10  -9.99997169E-10  -9.99167487E-08  -9.99233812E-08   1.05687116E-06   1.24024984E-07   1.23254716E-08  -9.93336071E-09  -8.41325231E-18  -9.94993340E-09   0.00000000E+00   0.00000000E+00   2.51398399E-07  -9.96222955E-09   0.00000000E+00   9.07086307E-08  -2.56411619E-09
   5.07500000E+02   5.00000000E-01   5.00000000E-01  -9.99995556E-09  -9.95352568E-10  -9.99997168E-10  -9.99171705E-08  -9.99233812E-08   1.12269674E-06   1.24257835E-07   1.13620103E-08  -9.92750124E-09  -9.54898382E-18  -9.94798929E-09   0.00000000E+00   0.00000000E+00   2.51655234E-07  -9.96211748E-09   0.00000000E+00   8.91195586E-08  -2.31934304E-09
   5.42500000E+02   5.00000000E-01   5.00000000E-01  -9.99995536E-09  -9.95144722E-10  -9.99997166E-10  -9.99175900E-08  -9.99233812E-08   1.16706970E-06   1.24508138E-07   1.03630088E-08  -9.92206035E-09  -1.07824860E-17  -9.94596371E-09   0.00000000E+00   0.00000000E+00   2.51911849E-07  -9.96201506E-09   0.00000000E+00   8.75609394E-08  -2.07422888E-09
   5.77500000E+02   5.00000000E-01   5.00000000E-01  -9.99995515E-09  -9.94930095E-10  -9.99997165E-10  -9.99180021E-08  -9.99233812E-08   1.19540038E-06   1.24775417E-07   9.33037352E-09  -9.91709982E-09  -1.21305277E-17  -9.94385524E-09   0.00000000E+00   0.00000000E+00   2.52166672E-07  -9.96192164E-09   0.00000000E+00   8.60324837E-08  -1.82902868E-09
   6.12500000E+02   5.00000000E-01   5.00000000E-01  -9.99995490E-09  -9.94708562E-10  -9.99997163E-10  -9.99184030E-08  -9.99233812E-08   1.21173570E-06   1.25059065E-07   8.26644338E-09  -9.91266305E-09  -1.36104461E-17  -9.94166244E-09   0.00000000E+00   0.00000000E+00   2.52417582E-07  -9.96183668E-09   0.00000000E+00   8.45338138E-08  -1.58398707E-09
   6.47500000E+02   5.00000000E-01   5.00000000E-01  -9.99995463E-09  -9.94480003E-10  -9.99997160E-10  -9.99187892E-08  -9.99233812E-08   1.21907583E-06   1.25358314E-07   7.17400976E-09  -9.90877626E-09  -1.52395785E-17  -9.93938382E-09   0.00000000E+00   0.00000000E+00   2.52661927E-07  -9.96175975E-09   0.00000000E+00   8.30645101E-08  -1.33931976E-09
   6.82500000E+02   5.00000000E-01   5.00000000E-01  -9.99995433E-09  -9.94244308E-10  -9.99997158E-10  -9.99191583E-08  -9.99233812E-08   1.21963268E-06   1.25672236E-07   6.05629149E-09  -9.90545040E-09  -1.70354042E-17  -9.93701764E-09   0.00000000E+00   0.00000000E+00   2.52896518E-07  -9.96169046E-09   0.00000000E+00   8.16241386E-08  -1.09519839E-09
   7.17500000E+02   5.00000000E-01   5.00000000E-01  -9.99995400E-09  -9.94001373E-10  -9.99997155E-10  -9.99195090E-08  -9.99233812E-08   1.21503433E-06   1.25999759E-07   4.91688537E-09  -9.90268341E-09  -1.90165394E-17  -9.93456192E-09   0.00000000E+00   0.00000000E+00   2.53117635E-07  -9.96162845E-09   0.00000000E+00   8.02122679E-08  -8.51738018E-10
   7.52500000E+02   5.00000000E-01   5.00000000E-01  -9.99995363E-09  -9.93751103E-10  -9.99997152E-10  -9.99198408E-08  -9.99233812E-08   1.20648254E-06   1.26339687E-07   3.75970078E-09  -9.90046264E-09  -2.12008899E-17  -9.93201426E-09   0.00000000E+00   0.00000000E+00   2.53321038E-07  -9.96157334E-09   0.00000000E+00   7.88284800E-08  -6.08987283E-10
   7.87500000E+02   5.00000000E-01   5.00000000E-01  -9.99995322E-09  -9.93493418E-10  -9.99997148E-10  -9.99201537E-08  -9.99233812E-08   1.19487138E-06   1.26690727E-07   2.58888122E-09  -9.89876727E-09  -2.36074981E-17  -9.92937177E-09   0.00000000E+00   0.00000000E+00   2.53502001E-07  -9.96152478E-09   0.00000000E+00   7.74723739E-08  -3.66921855E-10
   8.22500000E+02   5.00000000E-01   5.00000000E-01  -9.99995276E-09  -9.93228248E-10  -9.99997144E-10  -9.99204480E-08  -9.99233812E-08   1.18087466E-06   1.27051525E-07   1.40871632E-09  -9.89757049E-09  -2.62543409E-17  -9.92663101E-09   0.00000000E+00   0.00000000E+00   2.53655369E-07  -9.96148238E-09   0.00000000E+00   7.61435660E-08  -1.25441484E-10
   8.57500000E+02   5.00000000E-01   5.00000000E-01  -9.99995226E-09  -9.92955538E-10  -9.99997139E-10  -9.99207245E-08  -9.99233812E-08   1.16500922E-06   1.27420698E-07   2.23543215E-10  -9.89684144E-09  -2.91606738E-17  -9.92378787E-09   0.00000000E+00   0.00000000E+00   2.53775633E-07  -9.96144572E-09   0.00000000E+00   7.48416858E-08   1.15628950E-10
   8.92500000E+02   5.00000000E-01   5.00000000E-01  -9.99995171E-09  -9.92675246E-10  -9.99997134E-10  -9.99209837E-08  -9.99233812E-08   1.14767993E-06   1.27796858E-07  -9.62315905E-10  -9.89654687E-09  -3.23447579E-17  -9.92083762E-09   0.00000000E+00   0.00000000E+00   2.53857054E-07  -9.96141439E-09   0.00000000E+00   7.35663658E-08   3.56527832E-10
   9.27500000E+02   5.00000000E-01   5.00000000E-01  -9.99995109E-09  -9.92387342E-10  -9.99997128E-10  -9.99212266E-08  -9.99233812E-08   1.12921118E-06   1.28178709E-07  -2.14477361E-09  -9.89665242E-09  -3.58249961E-17  -9.91777476E-09   0.00000000E+00   0.00000000E+00   2.53893726E-07  -9.96138796E-09   0.00000000E+00   7.23172392E-08   5.97557437E-10
   9.62500000E+02   5.00000000E-01   5.00000000E-01  -9.99995042E-09  -9.92091812E-10  -9.99997121E-10  -9.99214539E-08  -9.99233812E-08   1.10986869E-06   1.28565040E-07  -3.31999434E-09  -9.89712361E-09  -3.96182274E-17  -9.91459314E-09   0.00000000E+00   0.00000000E+00   2.53879760E-07  -9.96136600E-09   0.00000000E+00   7.10939251E-08   8.39062339E-10
   9.97500000E+02   5.00000000E-01   5.00000000E-01  -9.99994968E-09  -9.91788650E-10  -9.99997114E-10  -9.99216666E-08  -9.99233812E-08   1.08987430E-06   1.28954784E-07  -4.48451432E-09  -9.89792663E-09  -4.37412225E-17  -9.91128602E-09   0.00000000E+00   0.00000000E+00   2.53809424E-07  -9.96134809E-09   0.00000000E+00   6.98960155E-08   1.08140878E-09
   1.03250000E+03   5.00000000E-01   5.00000000E-01  -9.99994886E-09  -9.91477862E-10  -9.99997105E-10  -9.99218653E-08  -9.99233812E-08   1.06941613E-06   1.29347062E-07  -5.63535252E-09  -9.89902879E-09  -4.82103230E-17  -9.90784614E-09   0.00000000E+00   0.00000000E+00   2.53677293E-07  -9.96133383E-09   0.00000000E+00   6.87230631E-08   1.32496165E-09
   1.06750000E+03   5.00000000E-01   5.00000000E-01  -9.99994797E-09  -9.91159460E-10  -9.99997096E-10  -9.99220509E-08  -9.99233812E-08   1.04865542E-06   1.29741225E-07  -6.77009869E-09  -9.90039885E-09  -5.30405924E-17  -9.90426590E-09   0.00000000E+00   0.00000000E+00   2.53478399E-07  -9.96132288E-09   0.00000000E+00   6.75745695E-08   1.57005805E-09
   1.10250000E+03   5.00000000E-01   5.00000000E-01  -9.99994699E-09  -9.90833459E-10  -9.99997085E-10  -9.99222242E-08  -9.99233812E-08   1.02773125E-06   1.30136891E-07  -7.88698540E-09  -9.90200719E-09  -5.82464545E-17  -9.90053754E-09   0.00000000E+00   0.00000000E+00   2.53208376E-07  -9.96131490E-09   0.00000000E+00   6.64499762E-08   1.81697897E-09
   1.13750000E+03   5.00000000E-01   5.00000000E-01  -9.99994591E-09  -9.90499873E-10  -9.99997074E-10  -9.99223858E-08  -9.99233812E-08   1.00676388E-06   1.30533970E-07  -8.98494058E-09  -9.90382590E-09  -6.38409833E-17  -9.89665340E-09   0.00000000E+00   0.00000000E+00   2.52863593E-07  -9.96130963E-09   0.00000000E+00   6.53486571E-08   2.06592057E-09
   1.17250000E+03   5.00000000E-01   5.00000000E-01  -9.99994474E-09  -9.90158716E-10  -9.99997061E-10  -9.99225365E-08  -9.99233812E-08   9.85857161E-07   1.30932687E-07  -1.00636170E-08  -9.90582875E-09  -6.98362581E-17  -9.89260610E-09   0.00000000E+00   0.00000000E+00   2.52441254E-07  -9.96130687E-09   0.00000000E+00   6.42699146E-08   2.31696631E-09
   1.20750000E+03   5.00000000E-01   5.00000000E-01  -9.99994346E-09  -9.89809991E-10  -9.99997046E-10  -9.99226768E-08  -9.99233812E-08   9.65100427E-07   1.31333591E-07  -1.11233965E-08  -9.90799115E-09  -7.62430080E-17  -9.88838893E-09   0.00000000E+00   0.00000000E+00   2.51939481E-07  -9.96130647E-09   0.00000000E+00   6.32129789E-08   2.57006166E-09
   1.24250000E+03   5.00000000E-01   5.00000000E-01  -9.99994207E-09  -9.89453692E-10  -9.99997030E-10  -9.99228075E-08  -9.99233812E-08   9.44570017E-07   1.31737554E-07  -1.21653687E-08  -9.91029008E-09  -8.30721751E-17  -9.88399602E-09   0.00000000E+00   0.00000000E+00   2.51357356E-07  -9.96130837E-09   0.00000000E+00   6.21770110E-08   2.82499242E-09
   1.27750000E+03   5.00000000E-01   5.00000000E-01  -9.99994055E-09  -9.89089799E-10  -9.99997012E-10  -9.99229291E-08  -9.99233812E-08   9.24330591E-07   1.32145763E-07  -1.31912852E-08  -9.91270405E-09  -9.03311491E-17  -9.87942274E-09   0.00000000E+00   0.00000000E+00   2.50694926E-07  -9.96131254E-09   0.00000000E+00   6.11611089E-08   3.08136811E-09
   1.31250000E+03   5.00000000E-01   5.00000000E-01  -9.99993890E-09  -9.88718275E-10  -9.99996992E-10  -9.99230420E-08  -9.99233812E-08   9.04436298E-07   1.32559699E-07  -1.42034888E-08  -9.91521295E-09  -9.80263234E-17  -9.87466589E-09   0.00000000E+00   0.00000000E+00   2.49953177E-07  -9.96131905E-09   0.00000000E+00   6.01643172E-08   3.33861151E-09
   1.34750000E+03   5.00000000E-01   5.00000000E-01  -9.99993710E-09  -9.88339062E-10  -9.99996970E-10  -9.99231467E-08  -9.99233812E-08   8.84931848E-07   1.32981102E-07  -1.52048224E-08  -9.91779808E-09  -1.06160969E-16  -9.86972398E-09   0.00000000E+00   0.00000000E+00   2.49133964E-07  -9.96132800E-09   0.00000000E+00   5.91856400E-08   3.59595548E-09
   1.38250000E+03   5.00000000E-01   5.00000000E-01  -9.99993515E-09  -9.87952085E-10  -9.99996946E-10  -9.99232438E-08  -9.99233812E-08   8.65853509E-07   1.33411933E-07  -1.61985178E-08  -9.92044207E-09  -1.14735154E-16  -9.86459741E-09   0.00000000E+00   0.00000000E+00   2.48239918E-07  -9.96133954E-09   0.00000000E+00   5.82240563E-08   3.85244756E-09
   1.41750000E+03   5.00000000E-01   5.00000000E-01  -9.99993303E-09  -9.87557248E-10  -9.99996920E-10  -9.99233336E-08  -9.99233812E-08   8.47230032E-07   1.33854318E-07  -1.71880737E-08  -9.92312880E-09  -1.23743693E-16  -9.85928864E-09   0.00000000E+00   0.00000000E+00   2.47274331E-07  -9.96135388E-09   0.00000000E+00   5.72785372E-08   4.10696226E-09
   1.45250000E+03   5.00000000E-01   5.00000000E-01  -9.99993073E-09  -9.87154433E-10  -9.99996890E-10  -9.99234165E-08  -9.99233812E-08   8.29083521E-07   1.34310494E-07  -1.81771290E-08  -9.92584343E-09  -1.33174221E-16  -9.85380224E-09   0.00000000E+00   0.00000000E+00   2.46241020E-07  -9.96137124E-09   0.00000000E+00   5.63480626E-08   4.35822003E-09
   1.48750000E+03   5.00000000E-01   5.00000000E-01  -9.99992824E-09  -9.86743504E-10  -9.99996858E-10  -9.99234930E-08  -9.99233812E-08   8.11430231E-07   1.34782753E-07  -1.91693399E-08  -9.92857238E-09  -1.43005562E-16  -9.84814496E-09   0.00000000E+00   0.00000000E+00   2.45144177E-07  -9.96139186E-09   0.00000000E+00   5.54316381E-08   4.60481152E-09
   1.52250000E+03   5.00000000E-01   5.00000000E-01  -9.99992554E-09  -9.86324310E-10  -9.99996823E-10  -9.99235636E-08  -9.99233812E-08   7.94281319E-07   1.35273386E-07  -2.01682644E-08  -9.93130321E-09  -1.53204322E-16  -9.84232569E-09   0.00000000E+00   0.00000000E+00   2.43988224E-07  -9.96141597E-09   0.00000000E+00   5.45283084E-08   4.84522621E-09
   1.55750000E+03   5.00000000E-01   5.00000000E-01  -9.99992262E-09  -9.85896680E-10  -9.99996784E-10  -9.99236287E-08  -9.99233812E-08   7.77643515E-07   1.35784623E-07  -2.11772551E-08  -9.93402469E-09  -1.63720902E-16  -9.83635534E-09   0.00000000E+00   0.00000000E+00   2.42777677E-07  -9.96144381E-09   0.00000000E+00   5.36371718E-08   5.07788514E-09
   1.59250000E+03   5.00000000E-01   5.00000000E-01  -9.99991945E-09  -9.85460437E-10  -9.99996742E-10  -9.99236887E-08  -9.99233812E-08   7.61519746E-07   1.36318579E-07  -2.21993646E-08  -9.93672672E-09  -1.74486590E-16  -9.83024675E-09   0.00000000E+00   0.00000000E+00   2.41517023E-07  -9.96147561E-09   0.00000000E+00   5.27573919E-08   5.30117579E-09
   1.62750000E+03   5.00000000E-01   5.00000000E-01  -9.99991603E-09  -9.85015388E-10  -9.99996697E-10  -9.99237438E-08  -9.99233812E-08   7.45909693E-07   1.36877200E-07  -2.32372686E-08  -9.93940026E-09  -1.85408021E-16  -9.82401449E-09   0.00000000E+00   0.00000000E+00   2.40210630E-07  -9.96151155E-09   0.00000000E+00   5.18882071E-08   5.51348781E-09
   1.66250000E+03   5.00000000E-01   5.00000000E-01  -9.99991232E-09  -9.84561336E-10  -9.99996647E-10  -9.99237945E-08  -9.99233812E-08   7.30810292E-07   1.37462219E-07  -2.42932052E-08  -9.94203732E-09  -1.96360990E-16  -9.81767462E-09   0.00000000E+00   0.00000000E+00   2.38862669E-07  -9.96155179E-09   0.00000000E+00   5.10289388E-08   5.71324785E-09
   1.69750000E+03   5.00000000E-01   5.00000000E-01  -9.99990832E-09  -9.84098079E-10  -9.99996593E-10  -9.99238410E-08  -9.99233812E-08   7.16216183E-07   1.38075114E-07  -2.53689369E-08  -9.94463088E-09  -2.07182991E-16  -9.81124450E-09   0.00000000E+00   0.00000000E+00   2.37477068E-07  -9.96159645E-09   0.00000000E+00   5.01789955E-08   5.89895180E-09
   1.73250000E+03   5.00000000E-01   5.00000000E-01  -9.99990399E-09  -9.83625409E-10  -9.99996535E-10  -9.99238837E-08  -9.99233812E-08   7.02120108E-07   1.38717092E-07  -2.64657393E-08  -9.94717480E-09  -2.17669175E-16  -9.80474251E-09   0.00000000E+00   0.00000000E+00   2.36057476E-07  -9.96164559E-09   0.00000000E+00   4.93378727E-08   6.06919067E-09
   1.76750000E+03   5.00000000E-01   5.00000000E-01  -9.99989932E-09  -9.83143120E-10  -9.99996473E-10  -9.99239232E-08  -9.99233812E-08   6.88513259E-07   1.39389073E-07  -2.75844077E-08  -9.94966382E-09  -2.27557066E-16  -9.79818786E-09   0.00000000E+00   0.00000000E+00   2.34607239E-07  -9.96169925E-09   0.00000000E+00   4.85051497E-08   6.22267203E-09
   1.80250000E+03   5.00000000E-01   5.00000000E-01  -9.99989427E-09  -9.82651002E-10  -9.99996405E-10  -9.99239596E-08  -9.99233812E-08   6.75385586E-07   1.40091684E-07  -2.87252743E-08  -9.95209342E-09  -2.36521375E-16  -9.79160040E-09   0.00000000E+00   0.00000000E+00   2.33129410E-07  -9.96175740E-09   0.00000000E+00   4.76804857E-08   6.35823768E-09
   1.83750000E+03   5.00000000E-01   5.00000000E-01  -9.99988883E-09  -9.82148846E-10  -9.99996333E-10  -9.99239931E-08  -9.99233812E-08   6.62726057E-07   1.40825265E-07  -2.98882365E-08  -9.95445979E-09  -2.44159435E-16  -9.78500037E-09   0.00000000E+00   0.00000000E+00   2.31626758E-07  -9.96182000E-09   0.00000000E+00   4.68636153E-08   6.47487684E-09
   1.87250000E+03   5.00000000E-01   5.00000000E-01  -9.99988296E-09  -9.81636446E-10  -9.99996256E-10  -9.99240242E-08  -9.99233812E-08   6.50522892E-07   1.41589864E-07  -3.10727939E-08  -9.95675975E-09  -2.49975997E-16  -9.77840824E-09   0.00000000E+00   0.00000000E+00   2.30101802E-07  -9.96188692E-09   0.00000000E+00   4.60543422E-08   6.57173483E-09
   1.90750000E+03   5.00000000E-01   5.00000000E-01  -9.99987663E-09  -9.81113593E-10  -9.99996173E-10  -9.99240531E-08  -9.99233812E-08   6.38763757E-07   1.42385263E-07  -3.22780918E-08  -9.95899072E-09  -2.53368165E-16  -9.77184458E-09   0.00000000E+00   0.00000000E+00   2.28556835E-07  -9.96195804E-09   0.00000000E+00   4.52525319E-08   6.64811720E-09
   1.94250000E+03   5.00000000E-01   5.00000000E-01  -9.99986982E-09  -9.80580080E-10  -9.99996085E-10  -9.99240800E-08  -9.99233812E-08   6.27435935E-07   1.43210987E-07  -3.35029704E-08  -9.96115062E-09  -2.53604937E-16  -9.76532989E-09   0.00000000E+00   0.00000000E+00   2.26993964E-07  -9.96203317E-09   0.00000000E+00   4.44581042E-08   6.70348989E-09
   1.97750000E+03   5.00000000E-01   5.00000000E-01  -9.99986250E-09  -9.80035699E-10  -9.99995992E-10  -9.99241052E-08  -9.99233812E-08   6.16526467E-07   1.44066329E-07  -3.47460134E-08  -9.96323786E-09  -2.49805677E-16  -9.75888455E-09   0.00000000E+00   0.00000000E+00   2.25415136E-07  -9.96211210E-09   0.00000000E+00   4.36710251E-08   6.73747592E-09
   2.01250000E+03   5.00000000E-01   5.00000000E-01  -9.99985463E-09  -9.79480242E-10  -9.99995893E-10  -9.99241289E-08  -9.99233812E-08   6.06022268E-07   1.44950376E-07  -3.60055982E-08  -9.96525128E-09  -2.40910281E-16  -9.75252866E-09   0.00000000E+00   0.00000000E+00   2.23822175E-07  -9.96219461E-09   0.00000000E+00   4.28912990E-08   6.74984948E-09
   2.04750000E+03   5.00000000E-01   5.00000000E-01  -9.99984618E-09  -9.78913497E-10  -9.99995788E-10  -9.99241513E-08  -9.99233812E-08   5.95910232E-07   1.45862043E-07  -3.72799544E-08  -9.96719011E-09  -2.25650606E-16  -9.74628208E-09   0.00000000E+00   0.00000000E+00   2.22216790E-07  -9.96228044E-09   0.00000000E+00   4.21189575E-08   6.74052341E-09
   2.08250000E+03   5.00000000E-01   5.00000000E-01  -9.99983711E-09  -9.78335250E-10  -9.99995677E-10  -9.99241723E-08  -9.99233812E-08   5.86177309E-07   1.46800101E-07  -3.85672062E-08  -9.96905392E-09  -2.02511674E-16  -9.74016437E-09   0.00000000E+00   0.00000000E+00   2.20600603E-07  -9.96236932E-09   0.00000000E+00   4.13540527E-08   6.70953991E-09
   2.11750000E+03   5.00000000E-01   5.00000000E-01  -9.99982741E-09  -9.77745285E-10  -9.99995561E-10  -9.99241922E-08  -9.99233812E-08   5.76810572E-07   1.47763190E-07  -3.98654010E-08  -9.97084262E-09  -1.69690319E-16  -9.73419468E-09   0.00000000E+00   0.00000000E+00   2.18975182E-07  -9.96246097E-09   0.00000000E+00   4.05966543E-08   6.65706414E-09
   2.15250000E+03   5.00000000E-01   5.00000000E-01  -9.99981703E-09  -9.77143376E-10  -9.99995439E-10  -9.99242108E-08  -9.99233812E-08   5.67797267E-07   1.48749823E-07  -4.11725308E-08  -9.97255641E-09  -1.25045091E-16  -9.72839174E-09   0.00000000E+00   0.00000000E+00   2.17342085E-07  -9.96255508E-09   0.00000000E+00   3.98468476E-08   6.58337877E-09
   2.18750000E+03   5.00000000E-01   5.00000000E-01  -9.99980595E-09  -9.76529295E-10  -9.99995311E-10  -9.99242282E-08  -9.99233812E-08   5.59124859E-07   1.49758402E-07  -4.24865512E-08  -9.97419578E-09  -6.60399850E-17  -9.72277372E-09   0.00000000E+00   0.00000000E+00   2.15702888E-07  -9.96265137E-09   0.00000000E+00   3.91047325E-08   6.48887825E-09
   2.22250000E+03   5.00000000E-01   5.00000000E-01  -9.99979413E-09  -9.75902802E-10  -9.99995177E-10  -9.99242441E-08  -9.99233812E-08   5.50781061E-07   1.50787220E-07  -4.38053978E-08  -9.97576144E-09   1.03236530E-17  -9.71735818E-09   0.00000000E+00   0.00000000E+00   2.14059212E-07  -9.96274952E-09   0.00000000E+00   3.83704221E-08   6.37406268E-09
   2.25750000E+03   5.00000000E-01   5.00000000E-01  -9.99978153E-09  -9.75263648E-10  -9.99995037E-10  -9.99242585E-08  -9.99233812E-08   5.42753862E-07   1.51834476E-07  -4.51270012E-08  -9.97725436E-09   1.07583560E-16  -9.71216197E-09   0.00000000E+00   0.00000000E+00   2.12412746E-07  -9.96284923E-09   0.00000000E+00   3.76440410E-08   6.23953117E-09
   2.29250000E+03   5.00000000E-01   5.00000000E-01  -9.99976814E-09  -9.74611574E-10  -9.99994892E-10  -9.99242711E-08  -9.99233812E-08   5.35031538E-07   1.52898279E-07  -4.64492998E-08  -9.97867570E-09   2.29905126E-16  -9.70720115E-09   0.00000000E+00   0.00000000E+00   2.10765260E-07  -9.96295020E-09   0.00000000E+00   3.69257250E-08   6.08597529E-09
   2.32750000E+03   5.00000000E-01   5.00000000E-01  -9.99975390E-09  -9.73946307E-10  -9.99994742E-10  -9.99242816E-08  -9.99233812E-08   5.27602670E-07   1.53976658E-07  -4.77702495E-08  -9.98002682E-09   3.82187333E-16  -9.70249090E-09   0.00000000E+00   0.00000000E+00   2.09118620E-07  -9.96305210E-09   0.00000000E+00   3.62156197E-08   5.91417255E-09
   2.36250000E+03   5.00000000E-01   5.00000000E-01  -9.99973877E-09  -9.73267559E-10  -9.99994586E-10  -9.99242898E-08  -9.99233812E-08   5.20456142E-07   1.55067574E-07  -4.90878319E-08  -9.98130925E-09   5.70178047E-16  -9.69804538E-09   0.00000000E+00   0.00000000E+00   2.07474794E-07  -9.96315464E-09   0.00000000E+00   3.55138802E-08   5.72498024E-09
   2.39750000E+03   5.00000000E-01   5.00000000E-01  -9.99972270E-09  -9.72575031E-10  -9.99994425E-10  -9.99242955E-08  -9.99233812E-08   5.13581150E-07   1.56168917E-07  -5.04000598E-08  -9.98252466E-09   8.00614208E-16  -9.69387765E-09   0.00000000E+00   0.00000000E+00   2.05835863E-07  -9.96325753E-09   0.00000000E+00   3.48206714E-08   5.51932940E-09
   2.43250000E+03   5.00000000E-01   5.00000000E-01  -9.99970563E-09  -9.71868403E-10  -9.99994260E-10  -9.99242986E-08  -9.99233812E-08   5.06967197E-07   1.57278524E-07  -5.17049825E-08  -9.98367487E-09   1.08137422E-15  -9.68999954E-09   0.00000000E+00   0.00000000E+00   2.04204016E-07  -9.96336047E-09   0.00000000E+00   3.41361672E-08   5.29821869E-09
   2.46750000E+03   5.00000000E-01   5.00000000E-01  -9.99968747E-09  -9.71147341E-10  -9.99994090E-10  -9.99242990E-08  -9.99233812E-08   5.00604089E-07   1.58394179E-07  -5.30006900E-08  -9.98476180E-09   1.42166088E-15  -9.68642151E-09   0.00000000E+00   0.00000000E+00   2.02581554E-07  -9.96346318E-09   0.00000000E+00   3.34605507E-08   5.06270798E-09
   2.50250000E+03   5.00000000E-01   5.00000000E-01  -9.99966812E-09  -9.70411491E-10  -9.99993915E-10  -9.99242970E-08  -9.99233812E-08   4.94481933E-07   1.59513625E-07  -5.42853191E-08  -9.98578748E-09   1.83220301E-15  -9.68315254E-09   0.00000000E+00   0.00000000E+00   2.00970879E-07  -9.96356538E-09   0.00000000E+00   3.27940133E-08   4.81391102E-09
   2.53750000E+03   5.00000000E-01   5.00000000E-01  -9.99964748E-09  -9.69660482E-10  -9.99993737E-10  -9.99242930E-08  -9.99233812E-08   4.88591128E-07   1.60634579E-07  -5.55570598E-08  -9.98675401E-09   2.32549328E-15  -9.68020002E-09   0.00000000E+00   0.00000000E+00   1.99374484E-07  -9.96366681E-09   0.00000000E+00   3.21367538E-08   4.55298714E-09
   2.57250000E+03   5.00000000E-01   5.00000000E-01  -9.99962541E-09  -9.68893923E-10  -9.99993555E-10  -9.99242875E-08  -9.99233812E-08   4.82922356E-07   1.61754745E-07  -5.68141647E-08  -9.98766355E-09   2.91605122E-15  -9.67756968E-09   0.00000000E+00   0.00000000E+00   1.97794930E-07  -9.96376721E-09   0.00000000E+00   3.14889753E-08   4.28113147E-09
   2.60750000E+03   5.00000000E-01   5.00000000E-01  -9.99960175E-09  -9.68111405E-10  -9.99993371E-10  -9.99242811E-08  -9.99233812E-08   4.77466578E-07   1.62871836E-07  -5.80549602E-08  -9.98851833E-09   3.62073358E-15  -9.67526554E-09   0.00000000E+00   0.00000000E+00   1.96234820E-07  -9.96386635E-09   0.00000000E+00   3.08508831E-08   3.99956366E-09
   2.64250000E+03   5.00000000E-01   5.00000000E-01  -9.99957635E-09  -9.67312502E-10  -9.99993183E-10  -9.99242743E-08  -9.99233812E-08   4.72215021E-07   1.63983592E-07  -5.92778600E-08  -9.98932059E-09   4.45908335E-15  -9.67328989E-09   0.00000000E+00   0.00000000E+00   1.94696768E-07  -9.96396400E-09   0.00000000E+00   3.02226800E-08   3.70951514E-09
   2.67750000E+03   5.00000000E-01   5.00000000E-01  -9.99954902E-09  -9.66496769E-10  -9.99992993E-10  -9.99242676E-08  -9.99233812E-08   4.67159172E-07   1.65087814E-07  -6.04813809E-08  -9.99007260E-09   5.45373008E-15  -9.67164332E-09   0.00000000E+00   0.00000000E+00   1.93183359E-07  -9.96405996E-09   0.00000000E+00   2.96045613E-08   3.41221502E-09
   2.71250000E+03   5.00000000E-01   5.00000000E-01  -9.99951958E-09  -9.65663745E-10  -9.99992801E-10  -9.99242612E-08  -9.99233812E-08   4.62290761E-07   1.66182384E-07  -6.16641584E-08  -9.99077663E-09   6.63085367E-15  -9.67032481E-09   0.00000000E+00   0.00000000E+00   1.91697110E-07  -9.96415402E-09   0.00000000E+00   2.89967097E-08   3.10887532E-09
   2.74750000E+03   5.00000000E-01   5.00000000E-01  -9.99948785E-09  -9.64812954E-10  -9.99992607E-10  -9.99242551E-08  -9.99233812E-08   4.57601756E-07   1.67265297E-07  -6.28249631E-08  -9.99143495E-09   8.02071246E-15  -9.66933189E-09   0.00000000E+00   0.00000000E+00   1.90240426E-07  -9.96424601E-09   0.00000000E+00   2.83992890E-08   2.80067600E-09
   2.78250000E+03   5.00000000E-01   5.00000000E-01  -9.99945358E-09  -9.63943904E-10  -9.99992413E-10  -9.99242495E-08  -9.99233812E-08   4.53084346E-07   1.68334683E-07  -6.39627150E-08  -9.99204980E-09   9.65825366E-15  -9.66866077E-09   0.00000000E+00   0.00000000E+00   1.88815561E-07  -9.96433579E-09   0.00000000E+00   2.78124382E-08   2.48875077E-09
   2.81750000E+03   5.00000000E-01   5.00000000E-01  -9.99941660E-09  -9.63056092E-10  -9.99992217E-10  -9.99242443E-08  -9.99233812E-08   4.48730926E-07   1.69388835E-07  -6.50764942E-08  -9.99262341E-09   1.15838015E-14  -9.66830654E-09   0.00000000E+00   0.00000000E+00   1.87424580E-07  -9.96442322E-09   0.00000000E+00   2.72362671E-08   2.17417436E-09
   2.85250000E+03   5.00000000E-01   5.00000000E-01  -9.99937669E-09  -9.62149003E-10  -9.99992022E-10  -9.99242395E-08  -9.99233812E-08   4.44534084E-07   1.70426222E-07  -6.61655489E-08  -9.99315794E-09   1.38438619E-14  -9.66826342E-09   0.00000000E+00   0.00000000E+00   1.86069333E-07  -9.96450819E-09   0.00000000E+00   2.66708511E-08   1.85795186E-09