 TITLE = "Mineral Rate (mol/m^3/sec)" 
VARIABLES = "X"          "Y"              "Z"            "Forsterite"     "Fayalite"       "Saponite(Mg)"   "Enstatite(alph" "Ferrosilite(al" "Anorthite"      "Albite(low)"    "Clinochlore"    "Sudoite"        "Montmorillonit" "Kaolinite"      "Tremolite"      "Pargasite"      "Anhydrite"      "Epidote"        "Scolecite"      "Pyrite"         "FeS(am)"        "Quartz(alpha)" 
 ZONE I=         100 , J=           1 , K=           1  F=POINT
   1.75000000E+01   5.00000000E-01   5.00000000E-01  -3.50350960E-07  -4.57717056E-07   3.82343213E-07  -2.00434713E-10  -1.45383477E-10  -1.23247477E-07  -2.09049343E-07   2.64873180E-07  -3.22379725E-15  -3.96600974E-15  -2.76735207E-08  -4.81859362E-08  -4.94546314E-08  -1.21909709E-14  -5.78682878E-16  -2.27143271E-10  -6.68161218E-15  -6.63266121E-15   9.66701655E-18
   5.25000000E+01   5.00000000E-01   5.00000000E-01  -3.50350960E-07  -4.18687788E-07   3.86300692E-07  -2.00429326E-10  -1.19679533E-10  -1.23247477E-07  -1.47707890E-07   2.33431800E-07  -1.69410177E-15  -3.68453477E-15  -2.75924137E-08  -4.81858956E-08  -4.94546314E-08  -1.21654741E-14   1.31914007E-16  -2.27130605E-10  -6.68161218E-15  -6.63122337E-15   1.09923311E-17
   8.75000000E+01   5.00000000E-01   5.00000000E-01  -3.50350960E-07  -3.66823525E-07   3.67253888E-07  -2.00417997E-10  -9.77035081E-11  -1.23247477E-07  -1.21601632E-07   2.23558968E-07  -1.37244958E-15  -3.44000876E-15  -2.75347642E-08  -4.81857493E-08  -4.94546314E-08  -1.21350800E-14   1.80137862E-17  -2.27121320E-10  -6.68161218E-15  -6.63009836E-15   1.11919636E-17
   1.22500000E+02   5.00000000E-01   5.00000000E-01  -3.50350959E-07  -3.12747714E-07   3.41694083E-07  -2.00405283E-10  -7.99689634E-11  -1.23247477E-07  -1.02304813E-07   2.18195900E-07  -1.30334269E-15  -3.15656557E-15  -2.74749495E-08  -4.81856772E-08  -4.94546314E-08  -1.20988411E-14   1.95857295E-18  -2.27111531E-10  -6.68161218E-15  -6.62935035E-15   1.12126878E-17
   1.57500000E+02   5.00000000E-01   5.00000000E-01  -3.50350958E-07  -2.63146197E-07   3.17398115E-07  -2.00391688E-10  -6.61752563E-11  -1.23247477E-07  -8.51580601E-08   2.13684386E-07  -1.29924715E-15  -2.79362157E-15  -2.74065094E-08  -4.81856818E-08  -4.94546314E-08  -1.20556271E-14  -4.32159854E-18  -2.27100296E-10  -6.68161218E-15  -6.62893624E-15   1.11737196E-17
   1.92500000E+02   5.00000000E-01   5.00000000E-01  -3.50350958E-07  -2.20657781E-07   2.96450809E-07  -2.00377200E-10  -5.57016861E-11  -1.23247476E-07  -7.03306932E-08   2.09755008E-07  -1.31527889E-15  -2.34448412E-15  -2.73297871E-08  -4.81856546E-08  -4.94546314E-08  -1.20040867E-14  -9.54685542E-18  -2.27087676E-10  -6.68161218E-15  -6.62878037E-15   1.10862336E-17
   2.27500000E+02   5.00000000E-01   5.00000000E-01  -3.50350957E-07  -1.85677044E-07   2.79188505E-07  -2.00361776E-10  -4.78994730E-11  -1.23247476E-07  -5.81356960E-08   2.06508334E-07  -1.33970622E-15  -1.81263251E-15  -2.72460351E-08  -4.81855691E-08  -4.94546314E-08  -1.19425950E-14  -1.41624741E-17  -2.27073864E-10  -6.68161218E-15  -6.62881171E-15   1.09559793E-17
   2.62500000E+02   5.00000000E-01   5.00000000E-01  -3.50350956E-07  -1.57578646E-07   2.65337826E-07  -2.00345393E-10  -4.21925488E-11  -1.23247476E-07  -4.85269219E-08   2.03968685E-07  -1.36944832E-15  -1.20357868E-15  -2.71561748E-08  -4.81855341E-08  -4.94546314E-08  -1.18691855E-14  -1.80007141E-17  -2.27058998E-10  -6.68161218E-15  -6.62897282E-15   1.07912151E-17
   2.97500000E+02   5.00000000E-01   5.00000000E-01  -3.50350955E-07  -1.35362726E-07   2.54419045E-07  -2.00328037E-10  -3.81029983E-11  -1.23247475E-07  -4.12338924E-08   2.02082872E-07  -1.40387062E-15  -5.22004351E-16  -2.70607010E-08  -4.81855442E-08  -4.94546314E-08  -1.17814740E-14  -2.10177532E-17  -2.27043144E-10  -6.68161218E-15  -6.62921986E-15   1.06005677E-17
   3.32500000E+02   5.00000000E-01   5.00000000E-01  -3.50350953E-07  -1.17973595E-07   2.45915633E-07  -2.00309696E-10  -3.52484801E-11  -1.23247474E-07  -3.59030426E-08   2.00762073E-07  -1.44307352E-15   2.29349036E-16  -2.69597666E-08  -4.81855517E-08  -4.94546314E-08  -1.16765626E-14  -2.32534221E-17  -2.27026308E-10  -6.68161218E-15  -6.62952035E-15   1.03916448E-17
   3.67500000E+02   5.00000000E-01   5.00000000E-01  -3.50350951E-07  -1.04445452E-07   2.39348876E-07  -2.00290359E-10  -3.33299793E-11  -1.23247473E-07  -3.21775744E-08   1.99909177E-07  -1.48737614E-15   1.04990338E-15  -2.68532774E-08  -4.81855943E-08  -4.94546314E-08  -1.15509157E-14  -2.47712040E-17  -2.27008454E-10  -6.68161218E-15  -6.62985074E-15   1.01706496E-17
   4.02500000E+02   5.00000000E-01   5.00000000E-01  -3.50350949E-07  -9.39579259E-08   2.34306709E-07  -2.00270013E-10  -3.21175081E-11  -1.23247472E-07  -2.97335066E-08   1.99431996E-07  -1.53722570E-15   1.94121000E-15  -2.67409844E-08  -4.81856752E-08  -4.94546314E-08  -1.14002092E-14  -2.56319046E-17  -2.26989518E-10  -6.68161218E-15  -6.63019418E-15   9.94242784E-18
   4.37500000E+02   5.00000000E-01   5.00000000E-01  -3.50350947E-07  -8.58439162E-08   2.30448421E-07  -2.00248643E-10  -3.14360239E-11  -1.23247470E-07  -2.82918264E-08   1.99248585E-07  -1.59312202E-15   2.90684350E-15  -2.66225289E-08  -4.81857816E-08  -4.94546314E-08  -1.12191391E-14  -2.58903672E-17  -2.26969407E-10  -6.68161218E-15  -6.63053888E-15   9.71069057E-18
   4.72500000E+02   5.00000000E-01   5.00000000E-01  -3.50350944E-07  -7.95763607E-08   2.27499205E-07  -2.00226232E-10  -3.11532712E-11  -1.23247468E-07  -2.76187090E-08   1.99288307E-07  -1.65555911E-15   3.95233257E-15  -2.64974695E-08  -4.81859087E-08  -4.94546314E-08  -1.10011787E-14  -2.55957492E-17  -2.26948015E-10  -6.68161218E-15  -6.63087669E-15   9.47825294E-18
   5.07500000E+02   5.00000000E-01   5.00000000E-01  -3.50350941E-07  -7.47473461E-08   2.25240874E-07  -2.00202760E-10  -3.11698657E-11  -1.23247465E-07  -2.75208905E-08   1.99491112E-07  -1.72497140E-15   5.08521354E-15  -2.63652975E-08  -4.81860523E-08  -4.94546314E-08  -1.07382701E-14  -2.47935992E-17  -2.26925216E-10  -6.68161218E-15  -6.63120216E-15   9.24723773E-18
   5.42500000E+02   5.00000000E-01   5.00000000E-01  -3.50350938E-07  -7.10459326E-08   2.23501907E-07  -2.00178210E-10  -3.14113986E-11  -1.23247461E-07  -2.78397950E-08   1.99806302E-07  -1.80163542E-15   6.31516352E-15  -2.62254432E-08  -4.81862080E-08  -4.94546314E-08  -1.04204289E-14  -2.35289991E-17  -2.26900869E-10  -6.68161218E-15  -6.63151178E-15   9.01923808E-18
   5.77500000E+02   5.00000000E-01   5.00000000E-01  -3.50350934E-07  -6.82378317E-08   2.22148521E-07  -2.00152559E-10  -3.18223056E-11  -1.23247456E-07  -2.84460147E-08   2.00191287E-07  -1.88550410E-15   7.65417780E-15  -2.60772792E-08  -4.81863724E-08  -4.94546314E-08  -1.00352367E-14  -2.18486734E-17  -2.26874819E-10  -6.68161218E-15  -6.63180341E-15   8.79543989E-18
   6.12500000E+02   5.00000000E-01   5.00000000E-01  -3.50350929E-07  -6.61480044E-08   2.21077280E-07  -2.00125788E-10  -3.23611733E-11  -1.23247449E-07  -2.92347779E-08   2.00610585E-07  -1.97592829E-15   9.11673434E-15  -2.59201246E-08  -4.81865430E-08  -4.94546314E-08  -9.56718488E-15  -1.98025722E-17  -2.26846894E-10  -6.68161218E-15  -6.63207596E-15   8.57671053E-18
   6.47500000E+02   5.00000000E-01   5.00000000E-01  -3.50350925E-07  -6.46463126E-08   2.20209207E-07  -2.00097874E-10  -3.29971764E-11  -1.23247440E-07  -3.01224920E-08   2.01035099E-07  -2.07119151E-15   1.07198814E-14  -2.57532548E-08  -4.81867186E-08  -4.94546314E-08  -8.99682225E-15  -1.74444421E-17  -2.26816909E-10  -6.68161218E-15  -6.63232901E-15   8.36366205E-18
   6.82500000E+02   5.00000000E-01   5.00000000E-01  -3.50350920E-07  -6.36359809E-08   2.19485213E-07  -2.00068794E-10  -3.37073897E-11  -1.23247429E-07  -3.10441837E-08   2.01441635E-07  -2.16773809E-15   1.24831886E-14  -2.55759169E-08  -4.81868987E-08  -4.94546314E-08  -8.29964145E-15  -1.48315198E-17  -2.26784668E-10  -6.68161218E-15  -6.63256268E-15   8.15669620E-18
   7.17500000E+02   5.00000000E-01   5.00000000E-01  -3.50350915E-07  -6.30445016E-08   2.18862536E-07  -2.00038524E-10  -3.44747682E-11  -1.23247414E-07  -3.19515549E-08   2.01812555E-07  -2.25890095E-15   1.44285102E-14  -2.53873542E-08  -4.81870833E-08  -4.94546314E-08  -7.44461522E-15  -1.20234995E-17  -2.26749966E-10  -6.68161218E-15  -6.63277744E-15   7.95603760E-18
   7.52500000E+02   5.00000000E-01   5.00000000E-01  -3.50350910E-07  -6.28166172E-08   2.18311889E-07  -2.00007038E-10  -3.52866348E-11  -1.23247395E-07  -3.28113628E-08   2.02135484E-07  -2.33281330E-15   1.65795172E-14  -2.51868357E-08  -4.81872728E-08  -4.94546314E-08  -6.39226106E-15  -9.08063355E-18  -2.26712592E-10  -6.68161218E-15  -6.63297401E-15   7.76176017E-18
   7.87500000E+02   5.00000000E-01   5.00000000E-01  -3.50350907E-07  -6.29090437E-08   2.17815083E-07  -1.99974309E-10  -3.61335509E-11  -1.23247370E-07  -3.36038718E-08   2.02402976E-07  -2.36899033E-15   1.89609710E-14  -2.49736928E-08  -4.81874672E-08  -4.94546314E-08  -5.09206568E-15  -6.06158134E-18  -2.26672338E-10  -6.68161218E-15  -6.63315326E-15   7.57381024E-18
   8.22500000E+02   5.00000000E-01   5.00000000E-01  -3.50350905E-07  -6.32866362E-08   2.17362930E-07  -1.99940307E-10  -3.70084753E-11  -1.23247338E-07  -3.43212037E-08   2.02612083E-07  -2.33274302E-15   2.15977257E-14  -2.47473558E-08  -4.81876658E-08  -4.94546314E-08  -3.47903482E-15  -3.02096884E-18  -2.26629004E-10  -6.68161218E-15  -6.63331618E-15   7.39202876E-18
   8.57500000E+02   5.00000000E-01   5.00000000E-01  -3.50350906E-07  -6.39197168E-08   2.16953312E-07  -1.99904999E-10  -3.79061374E-11  -1.23247298E-07  -3.49654980E-08   2.02763798E-07  -2.16606049E-15   2.45134638E-14  -2.45073912E-08  -4.81878659E-08  -4.94546314E-08  -1.46903947E-15  -7.40003108E-21  -2.26582399E-10  -6.68161218E-15  -6.63346381E-15   7.21617374E-18
   8.92500000E+02   5.00000000E-01   5.00000000E-01  -3.50350913E-07  -6.47823071E-08   2.16589365E-07  -1.99868352E-10  -3.88225662E-11  -1.23247246E-07  -3.55468809E-08   2.02862382E-07  -1.77274918E-15   2.77291977E-14  -2.42535321E-08  -4.81880644E-08  -4.94546314E-08   1.04750656E-15   2.93813584E-18  -2.26532352E-10  -6.68161218E-15  -6.63359723E-15   7.04594288E-18
   9.27500000E+02   5.00000000E-01   5.00000000E-01  -3.50350929E-07  -6.58510293E-08   2.16277783E-07  -1.99830327E-10  -3.97547344E-11  -1.23247181E-07  -3.60813096E-08   2.02914596E-07  -9.94269738E-16   3.12615968E-14  -2.39857025E-08  -4.81882601E-08  -4.94546314E-08   4.21429957E-15   5.78303013E-18  -2.26478711E-10  -6.68161218E-15  -6.63371752E-15   6.88099587E-18
   9.62500000E+02   5.00000000E-01   5.00000000E-01  -3.50350958E-07  -6.71044735E-08   2.16027287E-07  -1.99790885E-10  -4.07002873E-11  -1.23247098E-07  -3.65884056E-08   2.02928892E-07   4.29414224E-16   3.51212483E-14  -2.37040310E-08  -4.81884566E-08  -4.94546314E-08   8.22107923E-15   8.50319069E-18  -2.26421348E-10  -6.68161218E-15  -6.63382571E-15   6.72097511E-18
   9.97500000E+02   5.00000000E-01   5.00000000E-01  -3.50351008E-07  -6.85228713E-08   2.15847308E-07  -1.99749982E-10  -4.16573394E-11  -1.23246995E-07  -3.70894044E-08   2.02914618E-07   2.92301231E-15   3.93110138E-14  -2.34088551E-08  -4.81886621E-08  -4.94546314E-08   1.33202165E-14   1.10823502E-17  -2.26360160E-10  -6.68161218E-15  -6.63392285E-15   6.56552343E-18
   1.03250000E+03   5.00000000E-01   5.00000000E-01  -3.50351090E-07  -7.00879514E-08   2.15746938E-07  -1.99707575E-10  -4.26243273E-11  -1.23246864E-07  -3.76053376E-08   2.02881277E-07   7.17750626E-15   4.38246905E-14  -2.31007168E-08  -4.81888801E-08  -4.94546314E-08   1.98499636E-14   1.35110216E-17  -2.26295065E-10  -6.68161218E-15  -6.63400989E-15   6.41429797E-18
   1.06750000E+03   5.00000000E-01   5.00000000E-01  -3.50351218E-07  -7.17827990E-08   2.15734090E-07  -1.99663617E-10  -4.35998883E-11  -1.23246701E-07  -3.81555617E-08   2.02837928E-07   1.43130028E-14   4.86460280E-14  -2.27803488E-08  -4.81890989E-08  -4.94546314E-08   2.82673259E-14   1.57849489E-17  -2.26226003E-10  -6.68161218E-15  -6.63408777E-15   6.26698012E-18
   1.10250000E+03   5.00000000E-01   5.00000000E-01  -3.50351414E-07  -7.35915395E-08   2.15814794E-07  -1.99618061E-10  -4.45827280E-11  -1.23246498E-07  -3.87567067E-08   2.02792751E-07   2.61376489E-14   5.37478955E-14  -2.24486538E-08  -4.81893001E-08  -4.94546314E-08   3.91949521E-14   1.79031317E-17  -2.26152929E-10  -6.68161218E-15  -6.63415736E-15   6.12328313E-18
   1.13750000E+03   5.00000000E-01   5.00000000E-01  -3.50351708E-07  -7.54989397E-08   2.15992762E-07  -1.99570857E-10  -4.55714948E-11  -1.23246247E-07  -3.94219992E-08   2.02752763E-07   4.55538725E-14   5.90917540E-14  -2.21066807E-08  -4.81894789E-08  -4.94546314E-08   5.34886276E-14   1.98662740E-17  -2.26075816E-10  -6.68161218E-15  -6.63421947E-15   5.98295696E-18
   1.17250000E+03   5.00000000E-01   5.00000000E-01  -3.50352142E-07  -7.74900863E-08   2.16269288E-07  -1.99521954E-10  -4.65646971E-11  -1.23245935E-07  -4.01608824E-08   2.02723615E-07   7.71869618E-14   6.46279063E-14  -2.17555994E-08  -4.81896581E-08  -4.94546314E-08   7.23353286E-14   2.16758702E-17  -2.25994643E-10  -6.68161218E-15  -6.63427485E-15   5.84578957E-18
   1.20750000E+03   5.00000000E-01   5.00000000E-01  -3.50352761E-07  -7.95502279E-08   2.16643415E-07  -1.99471301E-10  -4.75606819E-11  -1.23245551E-07  -4.09788726E-08   2.02709465E-07   1.28349128E-13   7.02970322E-14  -2.13966763E-08  -4.81898723E-08  -4.94546314E-08   9.73970790E-14   2.33337605E-17  -2.25909398E-10  -6.68161218E-15  -6.63432417E-15   5.71160406E-18
   1.24250000E+03   5.00000000E-01   5.00000000E-01  -3.50353620E-07  -8.16647926E-08   2.17112279E-07  -1.99418845E-10  -4.85576758E-11  -1.23245080E-07  -4.18775967E-08   2.02712915E-07   2.10525662E-13   7.60333927E-14  -2.10312494E-08  -4.81901108E-08  -4.94546314E-08   1.31024242E-13   2.48420741E-17  -2.25820063E-10  -6.68161218E-15  -6.63436808E-15   5.58025206E-18
   1.27750000E+03   5.00000000E-01   5.00000000E-01  -3.50354779E-07  -8.38188872E-08   2.17670966E-07  -1.99364535E-10  -4.95537267E-11  -1.23244502E-07  -4.28552084E-08   2.02735207E-07   3.41634240E-13   8.17668291E-14  -2.06607037E-08  -4.81903053E-08  -4.94546314E-08   1.76575159E-13   2.62015966E-17  -2.25726615E-10  -6.68161218E-15  -6.63440715E-15   5.45160941E-18
   1.31250000E+03   5.00000000E-01   5.00000000E-01  -3.50356305E-07  -8.59963056E-08   2.18312119E-07  -1.99308318E-10  -5.05465289E-11  -1.23243798E-07  -4.39070367E-08   2.02776591E-07   5.49301015E-13   8.74221453E-14  -2.02864522E-08  -4.81904072E-08  -4.94546314E-08   2.38900136E-13   2.74107327E-17  -2.25629023E-10  -6.68161218E-15  -6.63444189E-15   5.32557658E-18
   1.34750000E+03   5.00000000E-01   5.00000000E-01  -3.50358262E-07  -8.81789696E-08   2.19026133E-07  -1.99250139E-10  -5.15333241E-11  -1.23242941E-07  -4.50260261E-08   2.02836488E-07   8.75396973E-13   9.29194961E-14  -1.99099201E-08  -4.81904619E-08  -4.94546314E-08   3.25081982E-13   2.84664076E-17  -2.25527251E-10  -6.68161218E-15  -6.63447276E-15   5.20207864E-18
   1.38250000E+03   5.00000000E-01   5.00000000E-01  -3.50360675E-07  -9.03462927E-08   2.19801189E-07  -1.99189937E-10  -5.25107804E-11  -1.23241901E-07  -4.62032446E-08   2.02913721E-07   1.38160599E-12   9.81735853E-14  -1.95325409E-08  -4.81907112E-08  -4.94546314E-08   4.45580474E-13   2.93642276E-17  -2.25421259E-10  -6.68161218E-15  -6.63450020E-15   5.08106645E-18
   1.41750000E+03   5.00000000E-01   5.00000000E-01  -3.50363431E-07  -9.24768828E-08   2.20625242E-07  -1.99127653E-10  -5.34753708E-11  -1.23240643E-07  -4.74273820E-08   2.03005880E-07   2.15720979E-12   1.03107117E-13  -1.91557260E-08  -4.81913788E-08  -4.94546314E-08   6.16023015E-13   3.01031254E-17  -2.25310982E-10  -6.68161218E-15  -6.63452458E-15   4.96250343E-18
   1.45250000E+03   5.00000000E-01   5.00000000E-01  -3.50366372E-07  -9.45537560E-08   2.21490680E-07  -1.99063243E-10  -5.44245979E-11  -1.23239125E-07  -4.86829649E-08   2.03107485E-07   3.33947161E-12   1.07693590E-13  -1.87807571E-08  -4.81918775E-08  -4.94546314E-08   8.60056130E-13   3.06917068E-17  -2.25196258E-10  -6.68161218E-15  -6.63454624E-15   4.84632208E-18
   1.48750000E+03   5.00000000E-01   5.00000000E-01  -3.50369527E-07  -9.65529475E-08   2.22382511E-07  -1.98996658E-10  -5.53547811E-11  -1.23237298E-07  -4.99565362E-08   2.03215207E-07   5.12792581E-12   1.11884003E-13  -1.84089341E-08  -4.81920133E-08  -4.94546314E-08   1.21391255E-12   3.11185571E-17  -2.25076937E-10  -6.68161218E-15  -6.63456547E-15   4.73246960E-18
   1.52250000E+03   5.00000000E-01   5.00000000E-01  -3.50372933E-07  -9.84409202E-08   2.23278135E-07  -1.98927820E-10  -5.62602724E-11  -1.23235103E-07  -5.12369348E-08   2.03328121E-07   7.77797029E-12   1.15577478E-13  -1.80416385E-08  -4.81925562E-08  -4.94546314E-08   1.73378781E-12   3.13690945E-17  -2.24952938E-10  -6.68161218E-15  -6.63458256E-15   4.62094717E-18
   1.55750000E+03   5.00000000E-01   5.00000000E-01  -3.50376433E-07  -1.00188034E-07   2.24161915E-07  -1.98856662E-10  -5.71361094E-11  -1.23232474E-07  -5.25082421E-08   2.03441382E-07   1.16294662E-11   1.18727663E-13  -1.76800749E-08  -4.81937846E-08  -4.94546314E-08   2.50797457E-12   3.14518859E-17  -2.24824079E-10  -6.68161218E-15  -6.63459774E-15   4.51175312E-18
   1.59250000E+03   5.00000000E-01   5.00000000E-01  -3.50380002E-07  -1.01772845E-07   2.25027499E-07  -1.98783154E-10  -5.79792677E-11  -1.23229328E-07  -5.37492329E-08   2.03545161E-07   1.72262426E-11   1.21395963E-13  -1.73251191E-08  -4.81946290E-08  -4.94546314E-08   3.67718239E-12   3.13821830E-17  -2.24689970E-10  -6.68161218E-15  -6.63461123E-15   4.40482471E-18
   1.62750000E+03   5.00000000E-01   5.00000000E-01  -3.50383701E-07  -1.03161422E-07   2.25854814E-07  -1.98707244E-10  -5.87846669E-11  -1.23225573E-07  -5.49447871E-08   2.03634800E-07   2.52953831E-11   1.23571628E-13  -1.69778096E-08  -4.81948369E-08  -4.94546314E-08   5.46873190E-12   3.11458325E-17  -2.24550295E-10  -6.68161218E-15  -6.63462321E-15   4.30011696E-18
   1.66250000E+03   5.00000000E-01   5.00000000E-01  -3.50387411E-07  -1.04312100E-07   2.26618146E-07  -1.98628855E-10  -5.95457139E-11  -1.23221097E-07  -5.60815182E-08   2.03707237E-07   3.66957325E-11   1.25199090E-13  -1.66392335E-08  -4.81947505E-08  -4.94546314E-08   8.25488799E-12   3.07378835E-17  -2.24404774E-10  -6.68161218E-15  -6.63463386E-15   4.19762343E-18
   1.69750000E+03   5.00000000E-01   5.00000000E-01  -3.50391113E-07  -1.05186494E-07   2.27300107E-07  -1.98547927E-10  -6.02565444E-11  -1.23215772E-07  -5.71416903E-08   2.03754961E-07   5.25679798E-11   1.26288432E-13  -1.63102082E-08  -4.81945227E-08  -4.94546314E-08   1.26538050E-11   3.01697609E-17  -2.24252976E-10  -6.68161218E-15  -6.63464333E-15   4.09733000E-18
   1.73250000E+03   5.00000000E-01   5.00000000E-01  -3.50394965E-07  -1.05745379E-07   2.27885278E-07  -1.98464408E-10  -6.09114789E-11  -1.23209443E-07  -5.81065874E-08   2.03768638E-07   7.44689001E-11   1.26881754E-13  -1.59914025E-08  -4.81942599E-08  -4.94546314E-08   1.97062802E-11   2.94488372E-17  -2.24094353E-10  -6.68161218E-15  -6.63465175E-15   3.99920724E-18
   1.76750000E+03   5.00000000E-01   5.00000000E-01  -3.50398948E-07  -1.05943091E-07   2.28351398E-07  -1.98378230E-10  -6.15038512E-11  -1.23201930E-07  -5.89596677E-08   2.03740688E-07   1.04213097E-10   1.26988450E-13  -1.56835355E-08  -4.81940674E-08  -4.94546314E-08   3.11891867E-11   2.85775331E-17  -2.23928348E-10  -6.68161218E-15  -6.63465923E-15   3.90323605E-18
   1.80250000E+03   5.00000000E-01   5.00000000E-01  -3.50402922E-07  -1.05730853E-07   2.28674536E-07  -1.98289319E-10  -6.20265679E-11  -1.23193022E-07  -5.96839980E-08   2.03663213E-07   1.43768324E-10   1.26616218E-13  -1.53872551E-08  -4.81940125E-08  -4.94546314E-08   5.01781011E-11   2.75641553E-17  -2.23754339E-10  -6.68161218E-15  -6.63466589E-15   3.80940798E-18
   1.83750000E+03   5.00000000E-01   5.00000000E-01  -3.50406673E-07  -1.05058402E-07   2.28831632E-07  -1.98197602E-10  -6.24725104E-11  -1.23182471E-07  -6.02612297E-08   2.03527126E-07   1.95177884E-10   1.25790276E-13  -1.51030678E-08  -4.81942925E-08  -4.94546314E-08   8.20683684E-11   2.64205904E-17  -2.23571585E-10  -6.68161218E-15  -6.63467181E-15   3.71771804E-18
   1.87250000E+03   5.00000000E-01   5.00000000E-01  -3.50409989E-07  -1.03875027E-07   2.28801355E-07  -1.98103009E-10  -6.28348303E-11  -1.23169981E-07  -6.06713530E-08   2.03321617E-07   2.60668217E-10   1.24562773E-13  -1.48312923E-08  -4.81950267E-08  -4.94546314E-08   1.36449654E-10   2.51609900E-17  -2.23379191E-10  -6.68161218E-15  -6.63467709E-15   3.62815541E-18
   1.90750000E+03   5.00000000E-01   5.00000000E-01  -3.50412918E-07  -1.02131777E-07   2.28568783E-07  -1.98005497E-10  -6.31075287E-11  -1.23155202E-07  -6.08924554E-08   2.03030943E-07   3.43756211E-10   1.23033849E-13  -1.45719918E-08  -4.81957499E-08  -4.94546314E-08   2.30590159E-10   2.38018353E-17  -2.23176034E-10  -6.68161218E-15  -6.63468179E-15   3.54068348E-18
   1.94250000E+03   5.00000000E-01   5.00000000E-01  -3.50415657E-07  -9.97763287E-08   2.28119205E-07  -1.97905020E-10  -6.32846375E-11  -1.23137719E-07  -6.09045076E-08   2.02637083E-07   4.49533191E-10   1.21292755E-13  -1.43252625E-08  -4.81959906E-08  -4.94546314E-08   3.95976258E-10   2.23568046E-17  -2.22960877E-10  -6.68161218E-15  -6.63468598E-15   3.45524913E-18
   1.97750000E+03   5.00000000E-01   5.00000000E-01  -3.50418304E-07  -9.67505218E-08   2.27431976E-07  -1.97801519E-10  -6.33596516E-11  -1.23117041E-07  -6.06904993E-08   2.02123821E-07   5.83498467E-10   1.19377072E-13  -1.40913751E-08  -4.81958011E-08  -4.94546314E-08   6.90694089E-10   2.08397510E-17  -2.22732475E-10  -6.68161218E-15  -6.63468971E-15   3.37180791E-18
   2.01250000E+03   5.00000000E-01   5.00000000E-01  -3.50420876E-07  -9.29947110E-08   2.26482318E-07  -1.97694913E-10  -6.33261044E-11  -1.23092592E-07  -6.02338734E-08   2.01477036E-07   7.50527259E-10   1.17297210E-13  -1.38706041E-08  -4.81953865E-08  -4.94546314E-08   1.22308221E-09   1.92683446E-17  -2.22489529E-10  -6.68161218E-15  -6.63469304E-15   3.29033351E-18
   2.04750000E+03   5.00000000E-01   5.00000000E-01  -3.50423371E-07  -8.84527452E-08   2.25246002E-07  -1.97585120E-10  -6.31784067E-11  -1.23063693E-07  -5.95166788E-08   2.00683196E-07   9.54674321E-10   1.15069413E-13  -1.36630685E-08  -4.81948828E-08  -4.94546314E-08   2.19724597E-09   1.76630944E-17  -2.22230620E-10  -6.68161218E-15  -6.63469602E-15   3.21081184E-18
   2.08250000E+03   5.00000000E-01   5.00000000E-01  -3.50425777E-07  -8.30755399E-08   2.23704728E-07  -1.97472063E-10  -6.29125376E-11  -1.23029540E-07  -5.85198689E-08   1.99726703E-07   1.20010569E-09   1.12731014E-13  -1.34687212E-08  -4.81943569E-08  -4.94546314E-08   4.00111128E-09   1.60451813E-17  -2.21954203E-10  -6.68161218E-15  -6.63469868E-15   3.13322757E-18
   2.11750000E+03   5.00000000E-01   5.00000000E-01  -3.50428083E-07  -7.68232268E-08   2.21846252E-07  -1.97355668E-10  -6.25263903E-11  -1.22989190E-07  -5.72252291E-08   1.98590030E-07   1.49155488E-09   1.10328470E-13  -1.32874763E-08  -4.81938402E-08  -4.94546314E-08   7.37735909E-09   1.44347586E-17  -2.21658731E-10  -6.68161218E-15  -6.63470106E-15   3.05755772E-18
   2.15250000E+03   5.00000000E-01   5.00000000E-01  -3.50430274E-07  -6.96690652E-08   2.19663503E-07  -1.97235860E-10  -6.20202404E-11  -1.22941551E-07  -5.56167531E-08   1.97254727E-07   1.83427513E-09   1.07905918E-13  -1.31192887E-08  -4.81933484E-08  -4.94546314E-08   1.37553542E-08   1.28503495E-17  -2.21342837E-10  -6.68161218E-15  -6.63470320E-15   2.98377205E-18
   2.18750000E+03   5.00000000E-01   5.00000000E-01  -3.50432344E-07  -6.16065071E-08   2.17154386E-07  -1.97112562E-10  -6.13975439E-11  -1.22885377E-07  -5.36810318E-08   1.95701634E-07   2.23403338E-09   1.05501723E-13  -1.29641307E-08  -4.81928899E-08  -4.94546314E-08   2.58927019E-08   1.13081390E-17  -2.21005653E-10  -6.68161218E-15  -6.63470511E-15   2.91183694E-18
   2.22250000E+03   5.00000000E-01   5.00000000E-01  -3.50434293E-07  -5.26606966E-08   2.14320350E-07  -1.96985697E-10  -6.06661648E-11  -1.22819296E-07  -5.14064754E-08   1.93910299E-07   2.69726024E-09   1.03149046E-13  -1.28218270E-08  -4.81924689E-08  -4.94546314E-08   4.90991114E-08   9.82031913E-18  -2.20647341E-10  -6.68161218E-15  -6.63470684E-15   2.84172446E-18
   2.25750000E+03   5.00000000E-01   5.00000000E-01  -3.50436124E-07  -4.29079582E-08   2.11161165E-07  -1.96855195E-10  -5.98403563E-11  -1.22741902E-07  -4.87802739E-08   1.91857333E-07   3.23138113E-09   1.00878945E-13  -1.26916178E-08  -4.81920867E-08  -4.94546314E-08   9.35049303E-08   8.39300676E-18  -2.20270086E-10  -6.68161218E-15  -6.63470839E-15   2.77343255E-18
   2.29250000E+03   5.00000000E-01   5.00000000E-01  -3.50437847E-07  -3.25108188E-08   2.07663176E-07  -1.96721006E-10  -5.89442304E-11  -1.22651965E-07  -4.57809874E-08   1.89512624E-07   3.84549575E-09   9.87270241E-14  -1.25712149E-08  -4.81917424E-08  -4.94546314E-08   1.78018805E-07   7.02329602E-18  -2.19879881E-10  -6.68161218E-15  -6.63470980E-15   2.70702625E-18
   2.32750000E+03   5.00000000E-01   5.00000000E-01  -3.50439474E-07  -2.17816199E-08   2.03780409E-07  -1.96583132E-10  -5.80180092E-11  -1.22548921E-07  -4.23641436E-08   1.86831104E-07   4.55185425E-09   9.67454605E-14  -1.24550389E-08  -4.81914334E-08  -4.94546314E-08   3.36355720E-07   5.69593677E-18  -2.19489693E-10  -6.68161218E-15  -6.63471109E-15   2.64271207E-18
   2.36250000E+03   5.00000000E-01   5.00000000E-01  -3.50441022E-07  -1.12888766E-08   1.99420069E-07  -1.96441677E-10  -5.71284892E-11  -1.22433814E-07  -3.84408226E-08   1.83736708E-07   5.36891988E-09   9.50203184E-14  -1.23315860E-08  -4.81911562E-08  -4.94546314E-08   6.23264297E-07   4.37996249E-18  -2.19124585E-10  -6.68161218E-15  -6.63471227E-15   2.58094660E-18
   2.39750000E+03   5.00000000E-01   5.00000000E-01  -3.50442512E-07  -1.99108988E-09   1.94483047E-07  -1.96296878E-10  -5.63822943E-11  -1.22310896E-07  -3.38624411E-08   1.80096877E-07   6.32659270E-09   9.36842709E-14  -1.21812737E-08  -4.81909065E-08  -4.94546314E-08   1.11135795E-06   3.02790110E-18  -2.18828348E-10  -6.68161218E-15  -6.63471337E-15   2.52252246E-18
   2.43250000E+03   5.00000000E-01   5.00000000E-01  -3.50443968E-07   4.73537086E-09   1.89080252E-07  -1.96149042E-10  -5.59288960E-11  -1.22189511E-07  -2.84583634E-08   1.75699479E-07   7.47142411E-09   9.28905976E-14  -1.19798569E-08  -4.81906796E-08  -4.94546314E-08   1.85461337E-06   1.58285705E-18  -2.18667049E-10  -6.68161218E-15  -6.63471441E-15   2.46842671E-18
   2.46750000E+03   5.00000000E-01   5.00000000E-01  -3.50445410E-07   7.50523532E-09   1.84016162E-07  -1.95998194E-10  -5.59202805E-11  -1.22084309E-07  -2.22006249E-08   1.70279799E-07   8.86218992E-09   9.26937586E-14  -1.17161427E-08  -4.81904711E-08  -4.94546314E-08   2.79818510E-06   2.55116514E-21  -2.18717309E-10  -6.68161218E-15  -6.63471540E-15   2.41913743E-18
   2.50250000E+03   5.00000000E-01   5.00000000E-01  -3.50446847E-07   5.96844672E-09   1.81147754E-07  -1.95843498E-10  -5.64043875E-11  -1.22010540E-07  -1.54651040E-08   1.63673493E-07   1.05410623E-08   9.28539828E-14  -1.14224112E-08  -4.81902767E-08  -4.94546314E-08   3.69884939E-06  -1.69311057E-18  -2.19027773E-10  -6.68161218E-15  -6.63471634E-15   2.37345045E-18
   2.53750000E+03   5.00000000E-01   5.00000000E-01  -3.50448266E-07   1.70637223E-09   1.82581543E-07  -1.95683149E-10  -5.72252989E-11  -1.21974787E-07  -9.07845816E-09   1.56072989E-07   1.24855930E-08   9.27838220E-14  -1.11841888E-08  -4.81900924E-08  -4.94546314E-08   4.22429713E-06  -3.35925658E-18  -2.19572508E-10  -6.68161218E-15  -6.63471721E-15   2.32809865E-18
   2.57250000E+03   5.00000000E-01   5.00000000E-01  -3.50449645E-07  -2.33356307E-09   1.88751909E-07  -1.95515321E-10  -5.80686741E-11  -1.21969381E-07  -3.88733506E-09   1.48136504E-07   1.45847502E-08   9.18399286E-14  -1.10958677E-08  -4.81899147E-08  -4.94546314E-08   4.21406614E-06  -4.69287504E-18  -2.20248293E-10  -6.68161218E-15  -6.63471799E-15   2.27931724E-18
   2.60750000E+03   5.00000000E-01   5.00000000E-01  -3.50450970E-07  -3.49766564E-09   1.97637172E-07  -1.95339309E-10  -5.86346978E-11  -1.21976883E-07  -2.27024809E-10   1.40736343E-07   1.66700457E-08   8.97156805E-14  -1.11992253E-08  -4.81897409E-08  -4.94546314E-08   3.78114698E-06  -5.30880270E-18  -2.20928859E-10  -6.68161218E-15  -6.63471867E-15   2.22503447E-18
   2.64250000E+03   5.00000000E-01   5.00000000E-01  -3.50452249E-07  -5.07806013E-10   2.06191548E-07  -1.95155638E-10  -5.87676648E-11  -1.21979256E-07   2.16373909E-09   1.34552278E-07   1.85734403E-08   8.65330279E-14  -1.14692478E-08  -4.81895691E-08  -4.94546314E-08   3.15734248E-06  -4.95243826E-18  -2.21521747E-10  -6.68161218E-15  -6.63471924E-15   2.16555465E-18
   2.67750000E+03   5.00000000E-01   5.00000000E-01  -3.50453509E-07   6.54408137E-09   2.12154984E-07  -1.94965400E-10  -5.84683726E-11  -1.21963590E-07   3.84743889E-09   1.29862970E-07   2.01700064E-08   8.26514725E-14  -1.18449245E-08  -4.81893988E-08  -4.94546314E-08   2.52722056E-06  -3.71523562E-18  -2.21986178E-10  -6.68161218E-15  -6.63471974E-15   2.10272239E-18
   2.71250000E+03   5.00000000E-01   5.00000000E-01  -3.50454790E-07   1.67014348E-08   2.14707574E-07  -1.94769615E-10  -5.78404775E-11  -1.21922993E-07   5.37502366E-09   1.26599828E-07   2.13914829E-08   7.84498859E-14  -1.22641700E-08  -4.81892305E-08  -4.94546314E-08   1.98310150E-06  -2.02785466E-18  -2.22320885E-10  -6.68161218E-15  -6.63472017E-15   2.03876626E-18