 TITLE = "Mineral Rate (mol/m^3/sec)" 
VARIABLES = "X"          "Y"              "Z"            "Forsterite"     "Fayalite"       "Brucite"        "Lizardite"      "Chrysotile"     "Saponite(Mg)"   "Enstatite(alph" "Ferrosilite(al" "Anorthite"      "Albite(low)"    "Clinochlore"    "Sudoite"        "Montmorillonit" "Kaolinite"      "Tremolite"      "Pargasite"      "Anhydrite"      "Epidote"        "Scolecite"      "Pyrite"         "FeS(am)"        "Quartz(alpha)" 
 ZONE I=         100 , J=           1 , K=           1  F=POINT
   1.75000000E+01   5.00000000E-01   5.00000000E-01  -1.09466216E-06  -2.77610060E-07  -3.77230279E-15  -1.05904474E-17  -1.05193566E-17   0.00000000E+00  -1.98696147E-10   1.52496352E-11  -6.31673315E-07  -2.09415886E-07   8.06354579E-07  -1.62123116E-13  -3.87927694E-15  -2.03685911E-12  -3.61852985E-08  -4.64865611E-08  -2.06159025E-15  -2.64754002E-15  -2.24351720E-10  -3.79456636E-15  -4.38232605E-15   4.72996732E-17
   5.25000000E+01   5.00000000E-01   5.00000000E-01  -1.09466216E-06  -1.27356619E-07  -3.77231246E-15  -1.31940259E-17  -1.23863742E-17   0.00000000E+00  -1.98358354E-10   1.33659388E-10  -6.31673316E-07  -6.03694039E-09   7.04648198E-07  -4.68322056E-14  -1.76293097E-13  -1.98013084E-12  -1.84621969E-08  -4.64865611E-08  -2.06088428E-15   8.93730228E-16  -2.24351483E-10  -3.79456636E-15  -4.38239812E-15   6.65317278E-17
   8.75000000E+01   5.00000000E-01   5.00000000E-01  -1.09466212E-06  -5.23380065E-08  -3.77231364E-15  -1.34689351E-17  -1.25920270E-17   0.00000000E+00  -1.98107266E-10   1.82469466E-10  -6.31673317E-07   1.16112294E-07   6.43581691E-07  -4.47665868E-14  -9.88284003E-12  -2.03650459E-12  -4.47733051E-09  -4.64865611E-08  -2.05985891E-15   1.61384640E-16  -2.24351444E-10  -3.79456636E-15  -4.38255050E-15   7.22993910E-17
   1.22500000E+02   5.00000000E-01   5.00000000E-01  -1.09466207E-06  -2.36731850E-08  -3.77231278E-15  -1.27100222E-17  -1.20357692E-17   0.00000000E+00  -1.97904910E-10   1.97719752E-10  -6.31673318E-07   1.66635315E-07   6.18567689E-07  -5.78310487E-14  -3.07934406E-10  -2.13381748E-12   1.91816956E-09  -4.64865611E-08  -2.05809578E-15   2.65399369E-17  -2.24351550E-10  -3.79456636E-15  -4.38269796E-15   7.28801071E-17
   1.57500000E+02   5.00000000E-01   5.00000000E-01  -1.09466200E-06  -1.45996144E-08  -3.77231145E-15  -1.18505971E-17  -1.13836060E-17   0.00000000E+00  -1.97723253E-10   2.00434657E-10  -6.31673320E-07   1.89613897E-07   6.11070398E-07  -8.63256232E-14  -5.11735039E-09  -2.26028411E-12   3.59931416E-09  -4.64865611E-08  -2.05514217E-15  -8.63204264E-18  -2.24351713E-10  -3.79456636E-15  -4.38282295E-15   7.18104839E-17
   1.92500000E+02   5.00000000E-01   5.00000000E-01  -1.09466195E-06  -1.93095078E-08  -3.77231173E-15  -1.14820529E-17  -1.10749829E-17   0.00000000E+00  -1.97601616E-10   1.98446752E-10  -6.31673323E-07   2.50530963E-07   6.19908617E-07  -1.41826198E-13  -5.24625154E-08  -2.41140959E-12  -1.96187581E-09  -4.64865611E-08  -2.05012318E-15   1.85541318E-17  -2.24351620E-10  -3.79456636E-15  -4.38292720E-15   7.11485534E-17
   2.27500000E+02   5.00000000E-01   5.00000000E-01  -1.09466196E-06  -4.20434293E-08  -3.77231659E-15  -1.20487429E-17  -1.14710905E-17   0.00000000E+00  -1.97641390E-10   1.92439565E-10  -6.31673326E-07   4.45525043E-07   6.49443217E-07  -2.44236340E-13  -2.05512228E-07  -2.58217881E-12  -1.84279691E-08  -4.64865611E-08  -2.04158758E-15   1.48844036E-16  -2.24350255E-10  -3.79456636E-15  -4.38301367E-15   7.18955583E-17
   2.62500000E+02   5.00000000E-01   5.00000000E-01  -1.09466192E-06  -3.77343332E-08  -3.77231928E-15  -1.23284737E-17  -1.16876931E-17   0.00000000E+00  -1.97561356E-10   1.94909102E-10  -6.31673332E-07   5.60082864E-07   6.50726376E-07  -4.22460224E-13  -2.76068280E-07  -2.76822078E-12  -2.34443098E-08  -4.64865611E-08  -2.02928532E-15   6.49928169E-17  -2.24348940E-10  -3.79456636E-15  -4.38306171E-15   7.15239238E-17
   2.97500000E+02   5.00000000E-01   5.00000000E-01  -1.09466184E-06  -2.33600702E-08  -3.77231980E-15  -1.23819469E-17  -1.17443008E-17   0.00000000E+00  -1.97373323E-10   1.98991297E-10  -6.31673339E-07   5.71406738E-07   6.42991956E-07  -7.17367436E-13  -2.73570355E-07  -2.96574014E-12  -2.30093712E-08  -4.64865611E-08  -2.01248107E-15  -8.81369907E-18  -2.24348433E-10  -3.79456636E-15  -4.38309626E-15   7.01622975E-17
   3.32500000E+02   5.00000000E-01   5.00000000E-01  -1.09466172E-06  -1.44703981E-08  -3.77231969E-15  -1.24111777E-17  -1.17846289E-17   0.00000000E+00  -1.97154432E-10   1.99508722E-10  -6.31673350E-07   5.49451513E-07   6.38288205E-07  -1.18610797E-12  -2.54675758E-07  -3.17008116E-12  -2.16768428E-08  -4.64865611E-08  -1.98986906E-15  -2.64574675E-17  -2.24348238E-10  -3.79456636E-15  -4.38312909E-15   6.83877575E-17
   3.67500000E+02   5.00000000E-01   5.00000000E-01  -1.09466159E-06  -9.97567333E-09  -3.77231932E-15  -1.24480569E-17  -1.18317725E-17   0.00000000E+00  -1.96919819E-10   1.97690875E-10  -6.31673364E-07   5.17476436E-07   6.35841709E-07  -1.90581306E-12  -2.32464079E-07  -3.37642190E-12  -2.01435611E-08  -4.64865611E-08  -1.95964768E-15  -3.04452097E-17  -2.24348162E-10  -3.79456636E-15  -4.38315763E-15   6.64764263E-17
   4.02500000E+02   5.00000000E-01   5.00000000E-01  -1.09466142E-06  -7.79360588E-09  -3.77231881E-15  -1.24912794E-17  -1.18844817E-17   0.00000000E+00  -1.96672768E-10   1.94712826E-10  -6.31673382E-07   4.82972122E-07   6.34514929E-07  -2.97191456E-12  -2.10076977E-07  -3.58275054E-12  -1.85445205E-08  -4.64865611E-08  -1.91939237E-15  -3.01423172E-17  -2.24348140E-10  -3.79456636E-15  -4.38318022E-15   6.45370346E-17
   4.37500000E+02   5.00000000E-01   5.00000000E-01  -1.09466122E-06  -6.74195364E-09  -3.77231818E-15  -1.25301654E-17  -1.19341619E-17   0.00000000E+00  -1.96414628E-10   1.91178592E-10  -6.31673407E-07   4.48674790E-07   6.33725449E-07  -4.49700379E-12  -1.88460800E-07  -3.78983804E-12  -1.69378188E-08  -4.64865611E-08  -1.86584206E-15  -2.78482336E-17  -2.24348146E-10  -3.79456636E-15  -4.38319674E-15   6.26106214E-17
   4.72500000E+02   5.00000000E-01   5.00000000E-01  -1.09466099E-06  -6.24325070E-09  -3.77231744E-15  -1.25589706E-17  -1.19760057E-17   0.00000000E+00  -1.96146292E-10   1.87371418E-10  -6.31673439E-07   4.15664214E-07   6.33217815E-07  -6.60534956E-12  -1.67957933E-07  -3.99843823E-12  -1.53651269E-08  -4.64865611E-08  -1.79459277E-15  -2.43473423E-17  -2.24348166E-10  -3.79456636E-15  -4.38320783E-15   6.07133618E-17
   5.07500000E+02   5.00000000E-01   5.00000000E-01  -1.09466072E-06  -6.01987971E-09  -3.77231661E-15  -1.25787322E-17  -1.20106326E-17   0.00000000E+00  -1.95868420E-10   1.83427032E-10  -6.31673482E-07   3.84369755E-07   6.32881832E-07  -9.44649145E-12  -1.48693899E-07  -4.20856797E-12  -1.38570251E-08  -4.64865611E-08  -1.69966223E-15  -2.00055273E-17  -2.24348194E-10  -3.79456636E-15  -4.38321436E-15   5.88526423E-17
   5.42500000E+02   5.00000000E-01   5.00000000E-01  -1.09466040E-06  -5.93527249E-09  -3.77231569E-15  -1.25932731E-17  -1.20410085E-17   0.00000000E+00  -1.95581501E-10   1.79415150E-10  -6.31673538E-07   3.54939458E-07   6.32664742E-07  -1.32072182E-11  -1.30693869E-07  -4.41819462E-12  -1.24337005E-08  -4.64865611E-08  -1.57286697E-15  -1.50464271E-17  -2.24348222E-10  -3.79456636E-15  -4.38321721E-15   5.70326533E-17
   5.77500000E+02   5.00000000E-01   5.00000000E-01  -1.09466003E-06  -5.92036394E-09  -3.77231470E-15  -1.26075701E-17  -1.20711763E-17   0.00000000E+00  -1.95285895E-10   1.75374780E-10  -6.31673611E-07   3.27389126E-07   6.32534196E-07  -1.81090625E-11  -1.13927852E-07  -4.62294300E-12  -1.11065207E-08  -4.64865611E-08  -1.40292185E-15  -9.63821222E-18  -2.24348244E-10  -3.79456636E-15  -4.38321720E-15   5.52562031E-17
   6.12500000E+02   5.00000000E-01   5.00000000E-01  -1.09465961E-06  -5.93982944E-09  -3.77231364E-15  -1.26276675E-17  -1.21062169E-17   0.00000000E+00  -1.94981884E-10   1.71329500E-10  -6.31673705E-07   3.01668696E-07   6.32464024E-07  -2.44084494E-11  -9.83335431E-08  -4.81922142E-12  -9.88015054E-09  -4.64865611E-08  -1.17412358E-15  -3.92521522E-18  -2.24348255E-10  -3.79456636E-15  -4.38321502E-15   5.35252723E-17
   6.47500000E+02   5.00000000E-01   5.00000000E-01  -1.09465911E-06  -5.97600592E-09  -3.77231253E-15  -1.26610851E-17  -1.21526236E-17   0.00000000E+00  -1.94669700E-10   1.67294399E-10  -6.31673827E-07   2.77694873E-07   6.32429560E-07  -3.23705614E-11  -8.38303987E-08  -5.00774877E-12  -8.75458671E-09  -4.64865611E-08  -8.64402895E-16   1.96000553E-18  -2.24348259E-10  -3.79456636E-15  -4.38321125E-15   5.18411932E-17
   6.82500000E+02   5.00000000E-01   5.00000000E-01  -1.09465854E-06  -6.02076382E-09  -3.77231140E-15  -1.27172998E-17  -1.22187533E-17   0.00000000E+00  -1.94349556E-10   1.63279498E-10  -6.31673986E-07   2.55369201E-07   6.32406738E-07  -4.22740788E-11  -7.03294250E-08  -5.19230989E-12  -7.72680553E-09  -4.64865611E-08  -4.42405941E-16   7.89222249E-18  -2.24348263E-10  -3.79456636E-15  -4.38320637E-15   5.02047369E-17
   7.17500000E+02   5.00000000E-01   5.00000000E-01  -1.09465789E-06  -6.07113004E-09  -3.77231027E-15  -1.28082693E-17  -1.23153259E-17   0.00000000E+00  -1.94021658E-10   1.59291611E-10  -6.31674190E-07   2.34588588E-07   6.32372613E-07  -5.44905732E-11  -5.77399648E-08  -5.37557447E-12  -6.79196820E-09  -4.64865611E-08   1.36939708E-16   1.37526449E-17  -2.24348276E-10  -3.79456636E-15  -4.38320078E-15   4.86161854E-17
   7.52500000E+02   5.00000000E-01   5.00000000E-01  -1.09465715E-06  -6.12672536E-09  -3.77230919E-15  -1.29495480E-17  -1.24564474E-17   0.00000000E+00  -1.93686221E-10   1.55335480E-10  -6.31674456E-07   2.15250156E-07   6.32306237E-07  -6.94576809E-11  -4.59737312E-08  -5.55845034E-12  -5.94418257E-09  -4.64865611E-08   9.39261625E-16   1.94298500E-17  -2.24348311E-10  -3.79456636E-15  -4.38319478E-15   4.70754125E-17
   7.87500000E+02   5.00000000E-01   5.00000000E-01  -1.09465630E-06  -6.18829333E-09  -3.77230820E-15  -1.31619319E-17  -1.26611199E-17   0.00000000E+00  -1.93343470E-10   1.51414491E-10  -6.31674801E-07   1.97254263E-07   6.32189584E-07  -8.77383839E-11  -3.49476002E-08  -5.74124166E-12  -5.17698325E-09  -4.64865611E-08   2.06145028E-15   2.48219241E-17  -2.24348381E-10  -3.79456636E-15  -4.38318863E-15   4.55819633E-17
   8.22500000E+02   5.00000000E-01   5.00000000E-01  -1.09465535E-06  -6.25681391E-09  -3.77230737E-15  -1.34741573E-17  -1.29557098E-17   0.00000000E+00  -1.92993648E-10   1.47531147E-10  -6.31675250E-07   1.80506307E-07   6.32008259E-07  -1.10020012E-10  -2.45855546E-08  -5.92369676E-12  -4.48360412E-09  -4.64865611E-08   3.64871290E-15   2.98387086E-17  -2.24348507E-10  -3.79456636E-15  -4.38318249E-15   4.41351274E-17
   8.57500000E+02   5.00000000E-01   5.00000000E-01  -1.09465427E-06  -6.33297383E-09  -3.77230680E-15  -1.39271428E-17  -1.33778291E-17   0.00000000E+00  -1.92637011E-10   1.43687386E-10  -6.31675836E-07   1.64917890E-07   6.31751951E-07  -1.37202553E-10  -1.48197115E-08  -6.10490413E-12  -3.85713653E-09  -4.64865611E-08   5.92222472E-15   3.44038442E-17  -2.24348719E-10  -3.79456636E-15  -4.38317650E-15   4.27339994E-17
   8.92500000E+02   5.00000000E-01   5.00000000E-01  -1.09465306E-06  -6.41682576E-09  -3.77230661E-15  -1.45810043E-17  -1.39827417E-17   0.00000000E+00  -1.92273834E-10   1.39884794E-10  -6.31676605E-07   1.50407298E-07   6.31414528E-07  -1.70409217E-10  -5.59070133E-09  -6.28301515E-12  -3.29060839E-09  -4.64865611E-08   9.22482707E-15   3.84560509E-17  -2.24349057E-10  -3.79456636E-15  -4.38317073E-15   4.13775275E-17
   9.27500000E+02   5.00000000E-01   5.00000000E-01  -1.09465172E-06  -6.50760687E-09  -3.77230696E-15  -1.55266365E-17  -1.48539329E-17   0.00000000E+00  -1.91904411E-10   1.36124722E-10  -6.31677621E-07   1.36899755E-07   6.30993908E-07  -2.11160488E-10   3.15277223E-09  -6.45546893E-12  -2.77706144E-09  -4.64865611E-08   1.40981085E-14   4.19498663E-17  -2.24349578E-10  -3.79456636E-15  -4.38316525E-15   4.00645482E-17
   9.62500000E+02   5.00000000E-01   5.00000000E-01  -1.09465023E-06  -6.60362545E-09  -3.77230805E-15  -1.69055291E-17  -1.61211648E-17   0.00000000E+00  -1.91529060E-10   1.32408356E-10  -6.31678974E-07   1.24327357E-07   6.30491630E-07  -2.61482860E-10   1.14547476E-08  -6.61946876E-12  -2.30962598E-09  -4.64865611E-08   2.14152922E-14   4.48554879E-17  -2.24350369E-10  -3.79456636E-15  -4.38316009E-15   3.87938094E-17
   9.97500000E+02   5.00000000E-01   5.00000000E-01  -1.09464860E-06  -6.70217465E-09  -3.77231018E-15  -1.89442960E-17  -1.79919092E-17   0.00000000E+00  -1.91148124E-10   1.28736750E-10  -6.31680798E-07   1.12628890E-07   6.29912173E-07  -3.23902964E-10   1.93529523E-08  -6.77288449E-12  -1.88158417E-09  -4.64865611E-08   3.26157529E-14   4.71580069E-17  -2.24351570E-10  -3.79456636E-15  -4.38315523E-15   3.75639890E-17
   1.03250000E+03   5.00000000E-01   5.00000000E-01  -1.09464684E-06  -6.79950457E-09  -3.77231367E-15  -2.20153801E-17  -2.08066105E-17   0.00000000E+00  -1.90761977E-10   1.25110824E-10  -6.31683304E-07   1.01749751E-07   6.29262220E-07  -4.01603258E-10   2.68801474E-08  -6.91569125E-12  -1.48646994E-09  -4.64865611E-08   5.01293719E-14   4.88561537E-17  -2.24353403E-10  -3.79456636E-15  -4.38315068E-15   3.63737045E-17
   1.06750000E+03   5.00000000E-01   5.00000000E-01  -1.09464497E-06  -6.89085611E-09  -3.77231896E-15  -2.67434953E-17  -2.51357750E-17   0.00000000E+00  -1.90371038E-10   1.21531308E-10  -6.31686833E-07   9.16422250E-08   6.28550055E-07  -4.98840391E-10   3.40657708E-08  -7.04912893E-12  -1.11824806E-09  -4.64865611E-08   7.81652909E-14   4.99606923E-17  -2.24356253E-10  -3.79456636E-15  -4.38314640E-15   3.52215135E-17
   1.10250000E+03   5.00000000E-01   5.00000000E-01  -1.09464301E-06  -6.97052520E-09  -3.77232660E-15  -3.41854348E-17  -3.19449011E-17   0.00000000E+00  -1.89975795E-10   1.17998544E-10  -6.31691997E-07   8.22661052E-08   6.27785699E-07  -6.21742460E-10   4.09374728E-08  -7.17414752E-12  -7.71910108E-10  -4.64865611E-08   1.24220757E-13   5.04927953E-17  -2.24360816E-10  -3.79456636E-15  -4.38314233E-15   3.41058830E-17
   1.13750000E+03   5.00000000E-01   5.00000000E-01  -1.09466398E-06  -4.17644027E-07  -3.77243135E-15  -4.24084623E-17  -3.95492754E-17   2.74640267E-06  -1.99497634E-10  -1.29800193E-10  -6.31695783E-07  -1.62963416E-07  -9.93426082E-07  -3.12513392E-09   1.58545372E-06  -9.36031263E-12  -4.53757866E-08  -4.64865611E-08   2.01402867E-13   4.88545094E-16  -2.23591585E-10  -3.79456636E-15  -4.38315259E-15   4.67857374E-18
   1.17250000E+03   5.00000000E-01   5.00000000E-01  -1.09466316E-06  -2.62178741E-07  -3.77242741E-15  -6.04724633E-17  -5.61206492E-17   0.00000000E+00  -1.98448420E-10  -6.80357080E-11  -6.31712325E-07  -1.27073045E-07   8.11635122E-07  -1.21577192E-09  -5.30021818E-08  -8.10793989E-12  -4.53749148E-08  -4.64865611E-08   3.36300697E-13  -1.13372279E-17  -2.24009196E-10  -3.79456636E-15  -4.38311185E-15   8.14411068E-18
   1.20750000E+03   5.00000000E-01   5.00000000E-01  -1.09466246E-06  -9.58506855E-08  -3.77243683E-15  -8.85220324E-17  -8.19453075E-17   0.00000000E+00  -1.97539305E-10  -1.75873761E-11  -6.31741674E-07  -1.02697296E-07   7.39850737E-07  -1.41870788E-09   1.93243017E-08  -7.97553313E-12  -4.53731078E-08  -4.64865611E-08   5.81283635E-13   6.47462224E-18  -2.24145593E-10  -3.79456636E-15  -4.38309318E-15   1.04016640E-17
   1.24250000E+03   5.00000000E-01   5.00000000E-01  -1.09466199E-06   1.22095801E-08  -3.77245519E-15  -1.27258562E-16  -1.17914969E-16   0.00000000E+00  -1.96743767E-10   1.36908082E-11  -6.31839753E-07  -8.78510922E-08   6.91606250E-07  -1.88778592E-09   6.97552110E-08  -7.98723130E-12  -4.53667777E-08  -4.64865611E-08   1.04273460E-12   1.00355636E-17  -2.24301012E-10  -3.79456636E-15  -4.38308639E-15   1.18807865E-17
   1.27750000E+03   5.00000000E-01   5.00000000E-01  -1.09466161E-06   6.24221530E-08  -3.77248236E-15  -1.67294532E-16  -1.55828430E-16   0.00000000E+00  -1.96006619E-10   3.07744578E-11  -6.32890327E-07  -7.96259832E-08   6.69039749E-07  -3.05315924E-09   9.60639721E-08  -8.04846347E-12  -4.53505755E-08  -4.64865611E-08   1.94597495E-12   1.14643031E-17  -2.25287076E-10  -3.79456636E-15  -4.38308247E-15   1.29241321E-17
   1.31250000E+03   5.00000000E-01   5.00000000E-01  -1.09466117E-06   7.71261617E-08  -3.77252667E-15  -1.86872531E-16  -1.75744237E-16   0.00000000E+00  -1.95314594E-10   3.92159303E-11  -6.47399203E-07  -7.42272390E-08   6.63328536E-07  -3.45416126E-09   1.18148140E-07  -7.88992015E-12  -4.53260253E-08  -4.64865611E-08   3.78535410E-12   1.39420934E-17  -2.32604839E-10  -3.79456636E-15  -4.38308037E-15   1.36673768E-17
   1.34750000E+03   5.00000000E-01   5.00000000E-01  -1.09466053E-06   7.60886595E-08  -3.77260912E-15  -1.74839674E-16  -1.66508578E-16   0.00000000E+00  -1.94659655E-10   4.30852144E-11  -6.72654268E-07  -6.67866606E-08   6.65815178E-07  -2.21428370E-09   1.38117023E-07  -7.56043529E-12  -4.57519239E-08  -4.64865611E-08   7.67752416E-12   1.63245625E-17  -2.38741446E-10  -3.79456636E-15  -4.38308102E-15   1.41796166E-17
   1.38250000E+03   5.00000000E-01   5.00000000E-01  -1.09467746E-06  -3.21770625E-07  -3.77282057E-15  -1.45418293E-16  -1.40342035E-16   1.54116082E-06  -1.99067335E-10  -1.04217757E-10  -6.95718962E-07  -1.84971023E-07  -2.10299225E-07  -4.24657255E-09   9.81894901E-07  -8.08598185E-12  -4.67627466E-08  -4.64865611E-08   1.61964727E-11   8.68504314E-17  -2.39325564E-10  -3.79456636E-15  -4.38308798E-15   3.74489405E-18
   1.41750000E+03   5.00000000E-01   5.00000000E-01  -1.09467991E-06  -2.30257552E-07  -3.77296338E-15  -1.15455891E-16  -1.12794622E-16   2.68113184E-07  -1.98974050E-10  -8.67452394E-11  -7.16722961E-07  -1.84360031E-07   6.27194166E-07  -4.06844465E-09   2.58124214E-07  -7.68082076E-12  -4.75837758E-08  -4.64865611E-08   3.59477905E-11   1.59451822E-17  -2.39710148E-10  -3.79456636E-15  -4.38307340E-15   3.61748883E-18
   1.45250000E+03   5.00000000E-01   5.00000000E-01  -1.09468143E-06  -8.62626657E-08  -3.77312963E-15  -9.15890275E-17  -9.04065261E-17   9.58521632E-08  -1.98564317E-10  -5.78151367E-11  -7.36630105E-07  -1.68096831E-07   6.84229240E-07  -6.51641148E-09   2.44777020E-07  -7.58106463E-12  -4.83497426E-08  -4.64865611E-08   8.43155321E-11   8.87254442E-18  -2.39837013E-10  -3.79456636E-15  -4.38306402E-15   4.29109546E-18
   1.48750000E+03   5.00000000E-01   5.00000000E-01  -1.09468259E-06   3.61019791E-08  -3.77333837E-15  -7.36262084E-17  -7.32889741E-17   6.28513850E-15  -1.98095978E-10  -3.38529063E-11  -7.56073383E-07  -1.51735449E-07   6.98238217E-07  -1.00871619E-08   2.69704555E-07  -7.61717891E-12  -4.90827603E-08  -4.64865611E-08   2.09653628E-10   5.61131423E-18  -2.39640515E-10  -3.79456636E-15  -4.38306191E-15   4.96428925E-18
   1.52250000E+03   5.00000000E-01   5.00000000E-01  -1.09468417E-06   8.89130748E-08  -3.77360901E-15  -6.01035746E-17  -6.02299011E-17   4.96925904E-26  -1.97767979E-10  -2.34613444E-11  -7.75330454E-07  -1.40377016E-07   6.77845538E-07  -1.50433638E-08   3.22574339E-07  -7.65096024E-12  -4.97928814E-08  -4.64865611E-08   5.54367921E-10   4.87170016E-18  -2.39098158E-10  -3.79456636E-15  -4.38306441E-15   5.25621843E-18
   1.55750000E+03   5.00000000E-01   5.00000000E-01  -1.09468617E-06   1.04000476E-07  -3.77395465E-15  -4.97953636E-17  -5.01604194E-17   2.39933112E-38  -1.97556035E-10  -2.07450219E-11  -7.94404601E-07  -1.32100441E-07   6.74920122E-07  -2.41070564E-08   3.65932945E-07  -7.72967289E-12  -5.04805644E-08  -4.64865611E-08   1.56450945E-09   4.17938973E-18  -2.38298563E-10  -3.79456636E-15  -4.38306806E-15   5.28411210E-18
   1.59250000E+03   5.00000000E-01   5.00000000E-01  -1.09468892E-06   9.80359792E-08  -3.77439615E-15  -4.18422864E-17  -4.23150918E-17   4.09903809E-50  -1.97503342E-10  -2.36792267E-11  -8.13288262E-07  -1.26240481E-07   6.83534928E-07  -4.48202125E-08   4.24684531E-07  -7.85894762E-12  -5.11471135E-08  -4.64865611E-08   4.73066272E-09   3.52592083E-18  -2.37217174E-10  -3.79456636E-15  -4.38307150E-15   5.03080024E-18
   1.62750000E+03   5.00000000E-01   5.00000000E-01  -1.09469312E-06   7.46374180E-08  -3.77496290E-15  -3.56521871E-17  -3.61583209E-17   5.55687333E-60  -1.97709444E-10  -3.29886446E-11  -8.32064635E-07  -1.23300587E-07   7.03962774E-07  -8.72205939E-08   5.23090317E-07  -7.91034031E-12  -5.17950609E-08  -4.64865612E-08   1.53797637E-08   2.82529896E-18  -2.35615923E-10  -3.79456636E-15  -4.38307404E-15   4.38929520E-18
   1.66250000E+03   5.00000000E-01   5.00000000E-01  -1.09469845E-06   5.53982596E-08  -3.77568505E-15  -3.08132605E-17  -3.13122349E-17   2.16814748E-66  -1.98086291E-10  -4.43231081E-11  -8.50767729E-07  -1.19843067E-07   7.19974779E-07  -1.17106797E-07   5.96259014E-07  -7.69835932E-12  -5.24240967E-08  -4.64865612E-08   5.38397248E-08   1.90759634E-18  -2.33025051E-10  -3.79456636E-15  -4.38307525E-15   3.53334550E-18
   1.69750000E+03   5.00000000E-01   5.00000000E-01  -1.09470290E-06   9.04592696E-08  -3.77658449E-15  -2.70413039E-17  -2.75128490E-17   1.29090907E-70  -1.98263725E-10  -4.55907607E-11  -8.69883049E-07  -1.05503883E-07   6.95560983E-07  -6.42178752E-08   5.12617277E-07  -7.36367210E-12  -5.30386884E-08  -4.64865612E-08   2.01405688E-07   9.59892211E-19  -2.29749036E-10  -3.79456636E-15  -4.38307541E-15   3.04000197E-18
   1.73250000E+03   5.00000000E-01   5.00000000E-01  -1.09470665E-06   1.50664177E-07  -3.77771917E-15  -2.41338704E-17  -2.45702281E-17   1.99592493E-72  -1.98230351E-10  -3.82810426E-11  -8.89535015E-07  -4.88816256E-08   6.51714219E-07   2.55247694E-08   3.38758692E-07  -6.81029913E-12  -5.36484223E-08  -4.64865613E-08   7.70341388E-07   4.34193613E-19  -2.24656003E-10  -3.79456636E-15  -4.38307686E-15   3.06271270E-18
   1.76750000E+03   5.00000000E-01   5.00000000E-01  -1.09471025E-06   1.99882177E-07  -3.77915749E-15  -2.19012207E-17  -2.23013934E-17   6.32203146E-74  -1.98048616E-10  -2.56635972E-11  -9.10667258E-07   1.07268836E-07   6.05480611E-07   1.36465325E-07   5.85156074E-08  -5.94015856E-12  -5.43622284E-08  -4.64865613E-08   2.56271500E-06   1.79858300E-19  -2.14188696E-10  -3.79456636E-15  -4.38308071E-15   3.60327787E-18
   1.80250000E+03   5.00000000E-01   5.00000000E-01  -1.09471380E-06   2.25253493E-07  -3.78094578E-15  -2.01553838E-17  -2.05209025E-17   1.80426127E-77  -1.97911470E-10  -1.93659273E-11  -9.33301232E-07   2.72795234E-07   5.87106068E-07   1.39591069E-07   6.57280128E-10  -5.08355746E-12  -5.51267277E-08  -4.64865614E-08   5.39239504E-06   6.11070666E-20  -2.00614142E-10  -3.79456636E-15  -4.38308409E-15   3.84578916E-18
   1.83750000E+03   5.00000000E-01   5.00000000E-01  -1.09471836E-06   2.22539278E-07  -3.78318543E-15  -1.87333710E-17  -1.90658426E-17   1.12789860E-81  -1.97974383E-10  -2.20485500E-11  -9.53836635E-07   4.54776603E-07   5.86749617E-07   1.04797216E-07   7.54988140E-13  -4.00224052E-12  -5.58578521E-08  -4.64865614E-08   6.12781361E-06   2.25137799E-20  -1.73714239E-10  -3.79456636E-15  -4.38308677E-15   3.62296128E-18
   1.87250000E+03   5.00000000E-01   5.00000000E-01  -1.09472557E-06   1.92564479E-07  -3.78600716E-15  -1.75143463E-17  -1.78143562E-17  -4.75726584E-83  -1.98447839E-10  -3.62514790E-11  -9.54946199E-07   7.33007268E-07   5.98980682E-07   2.96088601E-08   6.31807445E-17  -1.91781793E-12  -5.65998460E-08  -4.64865615E-08   4.45643881E-06   5.90693416E-21  -6.12487636E-11  -3.79456636E-15  -4.38308848E-15   2.75974432E-18
   1.90750000E+03   5.00000000E-01   5.00000000E-01  -1.09472922E-06   1.90244476E-07  -3.78945102E-15  -1.64168778E-17  -1.66834374E-17  -3.01109126E-83  -1.98545946E-10  -4.93772593E-11  -9.18571001E-07   8.05994021E-07   5.85069229E-07   7.30790773E-12   1.61052236E-21  -1.76264967E-12  -5.74340374E-08  -4.64865616E-08   2.59244661E-06   5.49568411E-22   1.27219045E-10  -3.79456636E-15  -4.38309103E-15   1.83530581E-18
   1.94250000E+03   5.00000000E-01   5.00000000E-01  -1.09471955E-06   8.83538309E-08  -3.79354861E-15  -1.54023400E-17  -1.56336312E-17  -1.96752144E-84  -1.97703945E-10  -6.77408349E-11  -8.55115516E-07   7.42313958E-07   5.53299066E-07  -7.65720548E-14  -1.36305531E-24  -2.50818565E-12  -5.68179110E-08  -4.64865618E-08   1.38195187E-06   1.23498520E-23   2.91756803E-10  -3.79456636E-15  -4.38310129E-15   1.23516139E-18
   1.97750000E+03   5.00000000E-01   5.00000000E-01  -1.09470619E-06   6.37533741E-09  -3.79865143E-15  -1.44687456E-17  -1.46636162E-17  -3.55228751E-87  -1.97201559E-10  -8.53534118E-11  -6.95686112E-07   6.01751109E-07   4.63820165E-07  -9.75752392E-14  -1.97313106E-24  -2.53437930E-12   1.34972921E-08  -4.64865619E-08   7.20141134E-07   6.17492600E-24   5.16349431E-10  -3.79456636E-15  -4.38310740E-15   5.69421494E-19
   2.01250000E+03   5.00000000E-01   5.00000000E-01  -1.09470153E-06   7.03192686E-10  -3.80508093E-15  -1.36326645E-17  -1.37917016E-17  -2.78035233E-88  -1.97343307E-10  -9.68537928E-11  -4.75643798E-07   3.39677820E-07   3.74589767E-07  -9.29108313E-14  -1.40211545E-24  -2.50632571E-12   1.00818768E-07  -4.64865615E-08   3.82100795E-07   2.46997040E-24   6.04900054E-10  -3.79456636E-15  -4.38310900E-15  -1.10309422E-19
   2.04750000E+03   5.00000000E-01   5.00000000E-01  -1.09469603E-06   2.46705931E-10  -3.81305266E-15  -1.28977591E-17  -1.30224027E-17  -6.45672781E-89  -1.97459821E-10  -1.05422916E-10  -3.36646917E-07   1.29088012E-07   3.40975096E-07  -8.80467559E-14  -1.09226336E-24  -2.48629895E-12   1.34221749E-07  -4.64865604E-08   2.14858118E-07  -9.87988163E-24   5.05539845E-10  -3.79456636E-15  -4.38310970E-15  -5.77003350E-19
   2.08250000E+03   5.00000000E-01   5.00000000E-01  -1.09468872E-06   1.43901304E-10  -3.82291764E-15  -1.22694933E-17  -1.23623628E-17  -3.87430494E-89  -1.97508407E-10  -1.11667214E-10  -2.57575918E-07   1.21020417E-09   3.25983898E-07  -8.30729323E-14  -8.89224283E-25  -2.47499374E-12   1.49160870E-07  -4.64865587E-08   1.32112526E-07  -4.93994082E-24   3.77203323E-10  -3.79456636E-15  -4.38311011E-15  -8.84541999E-19
   2.11750000E+03   5.00000000E-01   5.00000000E-01  -1.09467965E-06   1.06079940E-10  -3.83510022E-15  -1.17474230E-17  -1.18120432E-17  -3.94131024E-89  -1.97510599E-10  -1.16326882E-10  -2.10105365E-07  -7.59526100E-08   3.17219202E-07  -7.79930887E-14  -7.34679154E-25  -2.47095358E-12   1.57903755E-07  -4.64865560E-08   9.02351429E-08   4.93994082E-24   2.66701623E-10  -3.79456636E-15  -4.38311038E-15  -1.09587735E-18
   2.15250000E+03   5.00000000E-01   5.00000000E-01  -1.09466881E-06   8.87230490E-11  -3.85010800E-15  -1.13245204E-17  -1.13648752E-17  -5.36241283E-89  -1.97481975E-10  -1.19931617E-10  -1.79691275E-07  -1.24844940E-07   3.11350698E-07  -7.30705105E-14  -6.03593896E-25  -2.47094851E-12   1.63759450E-07  -4.64865523E-08   6.80691445E-08   0.00000000E+00   1.78606758E-10  -3.79456636E-15  -4.38311057E-15  -1.24875507E-18
   2.18750000E+03   5.00000000E-01   5.00000000E-01  -1.09465610E-06   7.97710883E-11  -3.86855155E-15  -1.09890214E-17  -1.10091267E-17  -8.61818913E-89  -1.97431841E-10  -1.22819295E-10  -1.59061206E-07  -1.57505683E-07   3.07128042E-07  -6.87413569E-14  -4.85140889E-25  -2.46999342E-12   1.67972511E-07  -4.64865473E-08   5.54877041E-08   1.23498521E-24   1.09145816E-10  -3.79456636E-15  -4.38311071E-15  -1.36456909E-18
   2.22250000E+03   5.00000000E-01   5.00000000E-01  -1.09464138E-06   7.48195506E-11  -3.89116695E-15  -1.07269424E-17  -1.07305301E-17  -1.52954085E-88  -1.97365902E-10  -1.25205381E-10  -1.44390967E-07  -1.80357321E-07   3.03942377E-07  -6.52889171E-14  -3.78228746E-25  -2.46338543E-12   1.71149655E-07  -4.64865405E-08   4.76522897E-08   1.85247781E-24   5.39969700E-11  -3.79456636E-15  -4.38311082E-15  -1.45580316E-18
   2.25750000E+03   5.00000000E-01   5.00000000E-01  -1.09462446E-06   7.19695387E-11  -3.91884243E-15  -1.05242289E-17  -1.05145663E-17  -2.89112493E-88  -1.97287814E-10  -1.27230495E-10  -1.33552615E-07  -1.96972530E-07   3.01455666E-07  -6.24960636E-14  -2.87087695E-25  -2.44972112E-12   1.73627952E-07  -4.64865317E-08   4.22389298E-08  -3.08746301E-24   9.70450457E-12  -3.79456636E-15  -4.38311090E-15  -1.53005395E-18
   2.29250000E+03   5.00000000E-01   5.00000000E-01  -1.09460511E-06   7.03073237E-11  -3.95265080E-15  -1.03682108E-17  -1.03480411E-17  -5.74460955E-88  -1.97200016E-10  -1.28988804E-10  -1.25295107E-07  -2.09441091E-07   2.99464552E-07  -5.98198352E-14  -2.14522771E-25  -2.43098489E-12   1.75610241E-07  -4.64865203E-08   3.81230615E-08   4.32244822E-24  -2.62886848E-11  -3.79456636E-15  -4.38311097E-15  -1.59213228E-18
   2.32750000E+03   5.00000000E-01   5.00000000E-01  -1.09458308E-06   6.93552592E-11  -3.99388905E-15  -1.02482272E-17  -1.02197869E-17  -1.19958131E-87  -1.97104184E-10  -1.30544917E-10  -1.18845901E-07  -2.19044046E-07   2.97839129E-07  -5.68510528E-14  -1.59334178E-25  -2.40983293E-12   1.77226099E-07  -4.64865055E-08   3.47594452E-08   4.32244821E-24  -5.58484365E-11  -3.79456636E-15  -4.38311102E-15  -1.64519514E-18
   2.36250000E+03   5.00000000E-01   5.00000000E-01  -1.09455807E-06   6.88466514E-11  -4.04412711E-15  -1.01557433E-17  -1.01208222E-17  -2.63976819E-87  -1.97001498E-10  -1.31944155E-10  -1.13707630E-07  -2.26599217E-07   2.96492528E-07  -5.34449355E-14  -1.18204411E-25  -2.38791308E-12   1.78562152E-07  -4.64864866E-08   3.18768139E-08   5.55743340E-24  -8.03462582E-11  -3.79456636E-15  -4.38311107E-15  -1.69138062E-18
   2.39750000E+03   5.00000000E-01   5.00000000E-01  -1.09452975E-06   6.86242748E-11  -4.10526839E-15  -1.00841292E-17  -1.00441434E-17  -6.13755722E-87  -1.96892804E-10  -1.33218930E-10  -1.09548338E-07  -2.32647646E-07   2.95364506E-07  -4.95931100E-14  -8.77045617E-26  -2.36590044E-12   1.79678435E-07  -4.64864624E-08   2.93247027E-08  -6.17492598E-24  -1.00805338E-10  -3.79456636E-15  -4.38311111E-15  -1.73217751E-18