 TITLE = "Mineral Rate (mol/m^3/sec)" 
VARIABLES = "X"          "Y"              "Z"            "Forsterite"     "Fayalite"       "Brucite"        "Lizardite"      "Chrysotile"     "Hematite"       "Magnetite(am)"  "Saponite(Ca)"   "Saponite(K)"    "Saponite(Mg)"   "Saponite(Na)"   "Beidellite(Ca)" "Beidellite(K)"  "Beidellite(Mg)" "Beidellite(Na)" "Enstatite(alph" "Ferrosilite(al" "Anorthite"      "Albite(low)"    "Clinochlore"    "Sudoite"        "Montmor(MgCa)"  "Montmor(MgK)"   "Montmor(MgMg)"  "Montmor(MgNa)"  "Kaolinite"      "Tremolite"      "Pargasite"      "Anhydrite"      "Epidote"        "Scolecite"      "Pyrite"         "FeS(am)"        "Quartz(alpha)"  "Titanite"       "Rutile"         "Barite"         "Fluorite"       "Spessartine(al" "Andradite"      "Celestite"      "Zincite"        "Chalcocyanite"  "Chalcocite(alp"
 ZONE I=         200 , J=           1 , K=           1  F=POINT
   8.75000000E+00   5.00000000E-01   5.00000000E-01  -1.31311990E-07  -4.78926110E-08  -1.24641899E-15  -1.10441190E-15  -1.03359690E-15   1.45024544E-08  -1.10560980E-16   1.71260619E-17   2.79265528E-14   1.12048124E-16   2.45405663E-08  -3.65893086E-17  -3.81137895E-18  -3.74406738E-17  -3.71332673E-17  -1.99933698E-10  -1.70564641E-10  -1.16555412E-07  -2.89777920E-08   2.29357049E-07   0.00000000E+00  -8.06988651E-18  -8.28809031E-19  -8.25331026E-18  -8.18337896E-18  -3.42599295E-11  -4.54266304E-08  -4.65343613E-08   0.00000000E+00  -2.90048312E-08  -1.96613440E-16  -6.98555721E-16  -6.85420918E-16   1.01072476E-17  -2.74408649E-14   1.73943456E-14   1.46509522E-10  -2.32502461E-14  -3.48778521E-09  -3.85413206E-14  -3.89292904E-15  -5.65701131E-10  -3.90435189E-15   1.82930312E-13
   2.62500000E+01   5.00000000E-01   5.00000000E-01  -1.31312000E-07  -4.78830718E-08  -1.24643072E-15  -1.05876814E-15  -1.00082227E-15   1.45024543E-08  -1.10571464E-16   5.72450648E-18   2.51071578E-14   5.28365926E-17   4.07208154E-08  -3.65884773E-17  -3.81021379E-18  -3.74367823E-17  -3.71231993E-17  -2.00172988E-10  -1.68805417E-10  -1.16555412E-07  -2.32704103E-08   2.23800089E-07   0.00000000E+00  -8.05304510E-18  -7.88455195E-19  -8.18032765E-18  -7.89467148E-18  -3.42537482E-11  -4.54492131E-08  -4.65343613E-08   0.00000000E+00  -2.90048312E-08  -1.96612176E-16  -6.98555721E-16  -6.85420918E-16   1.57651434E-17  -3.03162151E-14   1.94479302E-14   5.42392629E-11  -2.35842300E-14  -3.48778521E-09  -3.85413251E-14  -3.89417866E-15  -5.65738332E-10  -3.90435189E-15   1.73325450E-15
   4.37500000E+01   5.00000000E-01   5.00000000E-01  -1.31312001E-07  -4.78545929E-08  -1.24643286E-15  -1.00008764E-15  -9.58280071E-16   1.45024543E-08  -1.10578290E-16   5.02081430E-18   2.78320243E-14   5.10669683E-17   4.09538037E-08  -3.65813080E-17  -3.80065537E-18  -3.74032681E-17  -3.70387678E-17  -2.00208672E-10  -1.66317976E-10  -1.16555412E-07  -1.02712829E-08   2.17262055E-07   0.00000000E+00  -7.96675762E-18  -5.93203640E-19  -7.80673953E-18  -6.46150823E-18  -3.42263591E-11  -4.54641210E-08  -4.65343613E-08   0.00000000E+00  -2.90048312E-08  -1.96607352E-16  -6.98555721E-16  -6.85420918E-16   2.05978757E-17  -3.08152117E-14   2.13935814E-14   1.80969474E-11  -2.38900899E-14  -3.48778521E-09  -3.85413255E-14  -3.89531374E-15  -5.65739836E-10  -3.90435189E-15   1.73325450E-15
   6.12500000E+01   5.00000000E-01   5.00000000E-01  -1.31312002E-07  -4.78138867E-08  -1.24643354E-15  -9.68312237E-16  -9.34992498E-16   1.45024542E-08  -1.10584165E-16   5.43580190E-18   3.14463821E-14   5.57839986E-17   5.06887429E-08  -3.65616328E-17  -3.77590515E-18  -3.73114306E-17  -3.68143998E-17  -2.00209483E-10  -1.63584166E-10  -1.16555412E-07   6.58352124E-09   2.07228340E-07   0.00000000E+00  -7.78567906E-18  -2.09797714E-19  -7.02342158E-18  -3.56061246E-18  -3.41784722E-11  -4.54764042E-08  -4.65343613E-08   0.00000000E+00  -2.90048312E-08  -1.96599241E-16  -6.98555721E-16  -6.85420918E-16   2.41785627E-17  -3.09240648E-14   2.32147143E-14   2.84866026E-12  -2.41705369E-14  -3.48778521E-09  -3.85413256E-14  -3.89633489E-15  -5.65732640E-10  -3.90435189E-15   1.73325450E-15
   7.87500000E+01   5.00000000E-01   5.00000000E-01  -1.31312002E-07  -4.77672742E-08  -1.24643384E-15  -9.52329964E-16  -9.23285613E-16   1.45024542E-08  -1.10590117E-16   5.63264105E-18   3.44776527E-14   5.93781222E-17   6.37809189E-08  -3.65265324E-17  -3.73441025E-18  -3.71478372E-17  -3.64275560E-17  -2.00206011E-10  -1.61002885E-10  -1.16555412E-07   2.38952333E-08   1.96412209E-07   0.00000000E+00  -7.52268617E-18   3.07872034E-19  -5.88658565E-18   4.91696584E-19  -3.41139748E-11  -4.54922020E-08  -4.65343613E-08   0.00000000E+00  -2.90048311E-08  -1.96588693E-16  -6.98555721E-16  -6.85420918E-16   2.64952057E-17  -3.09949040E-14   2.49017149E-14  -4.05420588E-12  -2.44280141E-14  -3.48778521E-09  -3.85413257E-14  -3.89724754E-15  -5.65723036E-10  -3.90435189E-15   1.73325450E-15
   9.62500000E+01   5.00000000E-01   5.00000000E-01  -1.31312002E-07  -4.77151107E-08  -1.24643394E-15  -9.43940967E-16  -9.17211953E-16   1.45024542E-08  -1.10596434E-16   5.59998222E-18   3.65389704E-14   6.16464776E-17   7.55351143E-08  -3.64786588E-17  -3.68154884E-18  -3.69250557E-17  -3.59192589E-17  -2.00201169E-10  -1.58606373E-10  -1.16555412E-07   3.87638938E-08   1.87038363E-07   0.00000000E+00  -7.22260111E-18   8.50615399E-19  -4.59026378E-18   4.91456513E-18  -3.40409227E-11  -4.55124083E-08  -4.65343613E-08   0.00000000E+00  -2.90048311E-08  -1.96577190E-16  -6.98555721E-16  -6.85420918E-16   2.77975623E-17  -3.10605251E-14   2.64469490E-14  -7.44410549E-12  -2.46647041E-14  -3.48778521E-09  -3.85413257E-14  -3.89805823E-15  -5.65711774E-10  -3.90435189E-15   1.73325450E-15
   1.13750000E+02   5.00000000E-01   5.00000000E-01  -1.31312002E-07  -4.76552786E-08  -1.24643392E-15  -9.39163587E-16  -9.13834158E-16   1.45024542E-08  -1.10603178E-16   5.51477027E-18   3.75936341E-14   6.35562562E-17   8.41092577E-08  -3.64260432E-17  -3.62796469E-18  -3.66806276E-17  -3.53845584E-17  -2.00193824E-10  -1.56304605E-10  -1.16555412E-07   4.96106944E-08   1.80200159E-07   0.00000000E+00  -6.93873539E-18   1.31162633E-18  -3.36489138E-18   8.87216143E-18  -3.39710857E-11  -4.55357047E-08  -4.65343613E-08   0.00000000E+00  -2.90048310E-08  -1.96566483E-16  -6.98555721E-16  -6.85420918E-16   2.84046177E-17  -3.11097528E-14   2.78439778E-14  -9.28860086E-12  -2.48825447E-14  -3.48778521E-09  -3.85413258E-14  -3.89877330E-15  -5.65698792E-10  -3.90435189E-15   1.73325450E-15
   1.31250000E+02   5.00000000E-01   5.00000000E-01  -1.31312001E-07  -4.75860753E-08  -1.24643382E-15  -9.36239962E-16  -9.11845402E-16   1.45024541E-08  -1.10610374E-16   5.47037876E-18   3.77047628E-14   6.56445855E-17   8.95758535E-08  -3.63761416E-17  -3.58199132E-18  -3.64492727E-17  -3.49037945E-17  -2.00183571E-10  -1.54029846E-10  -1.16555412E-07   5.64842058E-08   1.75861356E-07   0.00000000E+00  -6.70118096E-18   1.64489814E-18  -2.34040512E-18   1.19491428E-17  -3.39123306E-11  -4.55604388E-08  -4.65343613E-08   0.00000000E+00  -2.90048310E-08  -1.96557552E-16  -6.98555721E-16  -6.85420918E-16   2.85856780E-17  -3.11400647E-14   2.90876960E-14  -1.04257270E-11  -2.50832559E-14  -3.48778521E-09  -3.85413258E-14  -3.89939850E-15  -5.65684249E-10  -3.90435189E-15   1.73325450E-15
   1.48750000E+02   5.00000000E-01   5.00000000E-01  -1.31312001E-07  -4.75065139E-08  -1.24643365E-15  -9.34401010E-16  -9.10672812E-16   1.45024541E-08  -1.10618048E-16   5.49840761E-18   3.70300480E-14   6.81181029E-17   9.26794474E-08  -3.63326262E-17  -3.54668567E-18  -3.62480052E-17  -3.45112317E-17  -2.00170547E-10  -1.51746762E-10  -1.16555412E-07   6.02574236E-08   1.73462609E-07   0.00000000E+00  -6.51462732E-18   1.85714288E-18  -1.53693721E-18   1.41358508E-17  -3.38669112E-11  -4.55853441E-08  -4.65343613E-08   0.00000000E+00  -2.90048309E-08  -1.96550546E-16  -6.98555721E-16  -6.85420918E-16   2.85284655E-17  -3.11547081E-14   3.01744383E-14  -1.12267044E-11  -2.52683691E-14  -3.48778521E-09  -3.85413258E-14  -3.89993909E-15  -5.65668422E-10  -3.90435189E-15   1.73325450E-15
   1.66250000E+02   5.00000000E-01   5.00000000E-01  -1.31312001E-07  -4.74160649E-08  -1.24643344E-15  -9.33286061E-16  -9.10048368E-16   1.45024541E-08  -1.10626227E-16   5.60375897E-18   3.57667140E-14   7.10344774E-17   9.42016563E-08  -3.62960253E-17  -3.52143768E-18  -3.60791885E-17  -3.42064980E-17  -2.00155035E-10  -1.49439575E-10  -1.16555412E-07   6.19069947E-08   1.72386626E-07   0.00000000E+00  -6.37074596E-18   1.97648903E-18  -9.18376705E-19   1.56088064E-17  -3.38336381E-11  -4.56095921E-08  -4.65343613E-08   0.00000000E+00  -2.90048309E-08  -1.96545182E-16  -6.98555721E-16  -6.85420918E-16   2.83497549E-17  -3.11582246E-14   3.11019851E-14  -1.18618563E-11  -2.54392505E-14  -3.48778521E-09  -3.85413258E-14  -3.90039984E-15  -5.65651579E-10  -3.90435189E-15   1.73325450E-15
   1.83750000E+02   5.00000000E-01   5.00000000E-01  -1.31312001E-07  -4.73144811E-08  -1.24643321E-15  -9.32702978E-16  -9.09829960E-16   1.45024541E-08  -1.10634935E-16   5.78091932E-18   3.40985606E-14   7.43836075E-17   9.47492364E-08  -3.62653141E-17  -3.50418543E-18  -3.59379791E-17  -3.39739451E-17  -2.00137322E-10  -1.47103551E-10  -1.16555412E-07   6.22135179E-08   1.72142990E-07   0.00000000E+00  -6.25807341E-18   2.03215552E-18  -4.35088998E-19   1.65734156E-17  -3.38100592E-11  -4.56326486E-08  -4.65343613E-08   0.00000000E+00  -2.90048308E-08  -1.96541066E-16  -6.98555721E-16  -6.85420918E-16   2.81165552E-17  -3.11548757E-14   3.18695130E-14  -1.24118378E-11  -2.55971215E-14  -3.48778521E-09  -3.85413258E-14  -3.90078510E-15  -5.65633942E-10  -3.90435189E-15   1.73325450E-15
   2.01250000E+02   5.00000000E-01   5.00000000E-01  -1.31312000E-07  -4.72017025E-08  -1.24643295E-15  -9.32535347E-16  -9.09931916E-16   1.45024540E-08  -1.10644192E-16   6.02091117E-18   3.21762762E-14   7.81250262E-17   9.47331037E-08  -3.62390388E-17  -3.49273658E-18  -3.58175647E-17  -3.37950892E-17  -2.00117662E-10  -1.44740128E-10  -1.16555412E-07   6.17165468E-08   1.72394121E-07   0.00000000E+00  -6.16651235E-18   2.04704208E-18  -4.33699017E-20   1.71994064E-17  -3.37936730E-11  -4.56541628E-08  -4.65343613E-08   0.00000000E+00  -2.90048308E-08  -1.96537835E-16  -6.98555721E-16  -6.85420918E-16   2.78647016E-17  -3.11482257E-14   3.24775153E-14  -1.29159172E-11  -2.57430754E-14  -3.48778521E-09  -3.85413258E-14  -3.90109883E-15  -5.65615684E-10  -3.90435189E-15   1.73325450E-15
   2.18750000E+02   5.00000000E-01   5.00000000E-01  -1.31312000E-07  -4.70777965E-08  -1.24643267E-15  -9.32705920E-16  -9.10297674E-16   1.45024540E-08  -1.10654017E-16   6.31431229E-18   3.01170875E-14   8.22077851E-17   9.44104446E-08  -3.62158512E-17  -3.48528510E-18  -3.57116482E-17  -3.36539599E-17  -2.00096261E-10  -1.42353969E-10  -1.16555412E-07   6.07607805E-08   1.72925232E-07   0.00000000E+00  -6.08851712E-18   2.03697382E-18   2.89432796E-19   1.76084942E-17  -3.37824012E-11  -4.56739122E-08  -4.65343613E-08   0.00000000E+00  -2.90048307E-08  -1.96535210E-16  -6.98555721E-16  -6.85420918E-16   2.76118578E-17  -3.11410894E-14   3.29277038E-14  -1.33936578E-11  -2.58780928E-14  -3.48778521E-09  -3.85413258E-14  -3.90134465E-15  -5.65596929E-10  -3.90435189E-15   1.73325450E-15
   2.36250000E+02   5.00000000E-01   5.00000000E-01  -1.31312000E-07  -4.69429159E-08  -1.24643237E-15  -9.33160456E-16  -9.10887746E-16   1.45024540E-08  -1.10664427E-16   6.65253176E-18   2.80099219E-14   8.65814322E-17   9.39337290E-08  -3.61946827E-17  -3.48050554E-18  -3.56152486E-17  -3.35384605E-17  -2.00073281E-10  -1.39951121E-10  -1.16555411E-07   5.95557832E-08   1.73606381E-07   0.00000000E+00  -6.01890771E-18   2.01215365E-18   5.85728160E-19   1.78815852E-17  -3.37746786E-11  -4.56917775E-08  -4.65343613E-08   0.00000000E+00  -2.90048307E-08  -1.96532990E-16  -6.98555721E-16  -6.85420918E-16   2.73656695E-17  -3.11355968E-14   3.32228988E-14  -1.38549678E-11  -2.60030541E-14  -3.48778521E-09  -3.85413258E-14  -3.90152585E-15  -5.65577769E-10  -3.90435189E-15   1.73325450E-15
   2.53750000E+02   5.00000000E-01   5.00000000E-01  -1.31311999E-07  -4.67972640E-08  -1.24643206E-15  -9.33859191E-16  -9.11673364E-16   1.45024540E-08  -1.10675439E-16   7.02829822E-18   2.59207207E-14   9.12019190E-17   9.33890791E-08  -3.61747550E-17  -3.47748739E-18  -3.55247442E-17  -3.34400813E-17  -2.00048845E-10  -1.37537862E-10  -1.16555411E-07   5.82242070E-08   1.74362032E-07   0.00000000E+00  -5.95431833E-18   1.97886727E-18   8.60071001E-19   1.80698837E-17  -3.37693935E-11  -4.57077262E-08  -4.65343613E-08   0.00000000E+00  -2.90048306E-08  -1.96531039E-16  -6.98555721E-16  -6.85420918E-16   2.71285655E-17  -3.11332888E-14   3.33669104E-14  -1.43048984E-11  -2.61187513E-14  -3.48778521E-09  -3.85413258E-14  -3.90164544E-15  -5.65558262E-10  -3.90435189E-15   1.73325450E-15
   2.71250000E+02   5.00000000E-01   5.00000000E-01  -1.31311999E-07  -4.66410656E-08  -1.24643174E-15  -9.34772047E-16  -9.12632928E-16   1.45024539E-08  -1.10687074E-16   7.43578734E-18   2.38967922E-14   9.60344687E-17   9.28223333E-08  -3.61555344E-17  -3.47563376E-18  -3.54376567E-17  -3.33531463E-17  -2.00023038E-10  -1.35120003E-10  -1.16555411E-07   5.68351533E-08   1.75150068E-07   0.00000000E+00  -5.89266506E-18   1.94084378E-18   1.12146745E-18   1.82044961E-17  -3.37657886E-11  -4.57217989E-08  -4.65343613E-08   0.00000000E+00  -2.90048306E-08  -1.96529266E-16  -6.98555721E-16  -6.85420918E-16   2.69004660E-17  -3.11352172E-14   3.33644164E-14  -1.47459995E-11  -2.62258974E-14  -3.48778521E-09  -3.85413257E-14  -3.90170612E-15  -5.65538448E-10  -3.90435189E-15   1.73325450E-15
   2.88750000E+02   5.00000000E-01   5.00000000E-01  -1.31311998E-07  -4.64745411E-08  -1.24643141E-15  -9.35876272E-16  -9.13750279E-16   1.45024539E-08  -1.10699357E-16   7.87058406E-18   2.19703571E-14   1.01054587E-16   9.22555827E-08  -3.61366772E-17  -3.47456994E-18  -3.53523934E-17  -3.32740639E-17  -1.99995919E-10  -1.32702480E-10  -1.16555411E-07   5.54256603E-08   1.75948326E-07   0.00000000E+00  -5.83273417E-18   1.90020518E-18   1.37515789E-18   1.83034555E-17  -3.37633683E-11  -4.57340938E-08  -4.65343613E-08   0.00000000E+00  -2.90048305E-08  -1.96527615E-16  -6.98555721E-16  -6.85420918E-16   2.66802506E-17  -3.11420367E-14   3.32208391E-14  -1.51795063E-11  -2.63251361E-14  -3.48778521E-09  -3.85413257E-14  -3.90171039E-15  -5.65518348E-10  -3.90435189E-15   1.73325450E-15
   3.06250000E+02   5.00000000E-01   5.00000000E-01  -1.31311997E-07  -4.62978868E-08  -1.24643106E-15  -9.37155671E-16  -9.15014211E-16   1.45024539E-08  -1.10712314E-16   8.32956748E-18   2.01615628E-14   1.06247906E-16   9.16973042E-08  -3.61179817E-17  -3.47407281E-18  -3.52680216E-17  -3.32007168E-17  -1.99967515E-10  -1.30289166E-10  -1.16555411E-07   5.40140518E-08   1.76746245E-07   0.00000000E+00  -5.77388987E-18   1.85809013E-18   1.62388287E-18   1.83765088E-17  -3.37618226E-11  -4.57447515E-08  -4.65343613E-08   0.00000000E+00  -2.90048304E-08  -1.96526054E-16  -6.98555721E-16  -6.85420918E-16   2.64665178E-17  -3.11540875E-14   3.29422236E-14  -1.56059522E-11  -2.64170485E-14  -3.48778521E-09  -3.85413257E-14  -3.90166049E-15  -5.65497966E-10  -3.90435189E-15   1.73325450E-15
   3.23750000E+02   5.00000000E-01   5.00000000E-01  -1.31311997E-07  -4.61112597E-08  -1.24643070E-15  -9.38600697E-16  -9.16418650E-16   1.45024538E-08  -1.10725982E-16   8.81075407E-18   1.84811192E-14   1.11609256E-16   9.11484822E-08  -3.60993499E-17  -3.47401953E-18  -3.51840894E-17  -3.31320015E-17  -1.99937834E-10  -1.27882835E-10  -1.16555411E-07   5.26080885E-08   1.77539781E-07   0.00000000E+00  -5.71587271E-18   1.81505334E-18   1.86875585E-18   1.84282905E-17  -3.37609698E-11  -4.57539395E-08  -4.65343613E-08   0.00000000E+00  -2.90048304E-08  -1.96524566E-16  -6.98555721E-16  -6.85420918E-16   2.62579476E-17  -3.11714681E-14   3.25351196E-14  -1.60254926E-11  -2.65021605E-14  -3.48778521E-09  -3.85413257E-14  -3.90155846E-15  -5.65477299E-10  -3.90435189E-15   1.73325450E-15
   3.41250000E+02   5.00000000E-01   5.00000000E-01  -1.31311996E-07  -4.59147701E-08  -1.24643033E-15  -9.40208696E-16  -9.17962953E-16   1.45024538E-08  -1.10740398E-16   9.31311232E-18   1.69326057E-14   1.17141214E-16   9.06063091E-08  -3.60807566E-17  -3.47435077E-18  -3.51004827E-17  -3.30674837E-17  -1.99906865E-10  -1.25485249E-10  -1.16555411E-07   5.12099168E-08   1.78328325E-07   0.00000000E+00  -5.65866002E-18   1.77131952E-18   2.10986774E-18   1.84604221E-17  -3.37607129E-11  -4.57618378E-08  -4.65343613E-08   0.00000000E+00  -2.90048303E-08  -1.96523142E-16  -6.98555721E-16  -6.85420918E-16   2.60534474E-17  -3.11940993E-14   3.20064696E-14  -1.64380788E-11  -2.65809484E-14  -3.48778521E-09  -3.85413257E-14  -3.90140613E-15  -5.65456333E-10  -3.90435189E-15   1.73325450E-15
   3.58750000E+02   5.00000000E-01   5.00000000E-01  -1.31311995E-07  -4.57084825E-08  -1.24642994E-15  -9.41983773E-16  -9.19651916E-16   1.45024538E-08  -1.10755607E-16   9.83635626E-18   1.55144536E-14   1.22852323E-16   9.00664342E-08  -3.60622251E-17  -3.47504429E-18  -3.50173110E-17  -3.30071373E-17  -1.99874581E-10  -1.23097338E-10  -1.16555411E-07   4.98190695E-08   1.79112829E-07   0.00000000E+00  -5.60236653E-18   1.72694532E-18   2.34671683E-18   1.84729161E-17  -3.37610073E-11  -4.57686265E-08  -4.65343613E-08   0.00000000E+00  -2.90048302E-08  -1.96521784E-16  -6.98555721E-16  -6.85420918E-16   2.58521821E-17  -3.12217798E-14   3.13635041E-14  -1.68435540E-11  -2.66538441E-14  -3.48778521E-09  -3.85413256E-14  -3.90120515E-15  -5.65435049E-10  -3.90435189E-15   1.73325450E-15
   3.76250000E+02   5.00000000E-01   5.00000000E-01  -1.31311994E-07  -4.54924244E-08  -1.24642954E-15  -9.43936186E-16  -9.21495379E-16   1.45024537E-08  -1.10771658E-16   1.03807310E-17   1.42216001E-14   1.28755210E-16   8.95242977E-08  -3.60438067E-17  -3.47609605E-18  -3.49348117E-17  -3.29511468E-17  -1.99840945E-10  -1.20719449E-10  -1.16555411E-07   4.84342569E-08   1.79894688E-07   0.00000000E+00  -5.54717232E-18   1.68192166E-18   2.57852041E-18   1.84651188E-17  -3.37618358E-11  -4.57744759E-08  -4.65343613E-08   0.00000000E+00  -2.90048301E-08  -1.96520492E-16  -6.98555721E-16  -6.85420918E-16   2.56535485E-17  -3.12542338E-14   3.06136452E-14  -1.72417058E-11  -2.67212402E-14  -3.48778521E-09  -3.85413256E-14  -3.90095703E-15  -5.65413424E-10  -3.90435189E-15   1.73325450E-15
   3.93750000E+02   5.00000000E-01   5.00000000E-01  -1.31311993E-07  -4.52666000E-08  -1.24642912E-15  -9.46081423E-16  -9.23507560E-16   1.45024537E-08  -1.10788605E-16   1.09468157E-17   1.30468121E-14   1.34864893E-16   8.89758101E-08  -3.60255645E-17  -3.47750746E-18  -3.48532755E-17  -3.28997643E-17  -1.99805914E-10  -1.18351603E-10  -1.16555411E-07   4.70543634E-08   1.80675137E-07   0.00000000E+00  -5.49327237E-18   1.63623435E-18   2.80443281E-18   1.84363106E-17  -3.37631918E-11  -4.57795394E-08  -4.65343613E-08   0.00000000E+00  -2.90048301E-08  -1.96519271E-16  -6.98555721E-16  -6.85420918E-16   2.54571281E-17  -3.12911474E-14   2.97644196E-14  -1.76322965E-11  -2.67834931E-14  -3.48778521E-09  -3.85413256E-14  -3.90066308E-15  -5.65391433E-10  -3.90435189E-15   1.73325450E-15
   4.11250000E+02   5.00000000E-01   5.00000000E-01  -1.31311991E-07  -4.50310054E-08  -1.24642869E-15  -9.48439226E-16  -9.25706334E-16   1.45024536E-08  -1.10806506E-16   1.15353757E-17   1.19816913E-14   1.41197572E-16   8.84175203E-08  -3.60075622E-17  -3.47927812E-18  -3.47729964E-17  -3.28532214E-17  -1.99769439E-10  -1.15993698E-10  -1.16555410E-07   4.56788791E-08   1.81454998E-07   0.00000000E+00  -5.44084627E-18   1.58989323E-18   3.02367600E-18   1.83860247E-17  -3.37650690E-11  -4.57839514E-08  -4.65343613E-08   0.00000000E+00  -2.90048300E-08  -1.96518124E-16  -6.98555721E-16  -6.85420918E-16   2.52626399E-17  -3.13321935E-14   2.88233797E-14  -1.80150795E-11  -2.68409274E-14  -3.48778521E-09  -3.85413255E-14  -3.90032450E-15  -5.65369049E-10  -3.90435189E-15   1.73325450E-15
   4.28750000E+02   5.00000000E-01   5.00000000E-01  -1.31311990E-07  -4.47856370E-08  -1.24642824E-15  -9.51032760E-16  -9.28112608E-16   1.45024536E-08  -1.10825421E-16   1.21472866E-17   1.10173869E-14   1.47770038E-16   8.78464201E-08  -3.59898596E-17  -3.48140332E-18  -3.46942484E-17  -3.28116951E-17  -1.99731471E-10  -1.13645623E-10  -1.16555410E-07   4.43079425E-08   1.82234700E-07   0.00000000E+00  -5.39004689E-18   1.54293802E-18   3.23558876E-18   1.83141372E-17  -3.37674573E-11  -4.57878281E-08  -4.65343613E-08  -1.02449181E-32  -2.90048299E-08  -1.96517053E-16  -6.98555721E-16  -6.85420918E-16   2.50699043E-17  -3.13770447E-14   2.77980359E-14  -1.83898088E-11  -2.68938390E-14  -3.48778521E-09  -3.85413255E-14  -3.89994234E-15  -5.65346249E-10  -3.90435189E-15   1.73325450E-15
   4.46250000E+02   5.00000000E-01   5.00000000E-01  -1.31311988E-07  -4.45304927E-08  -1.24642777E-15  -9.53888006E-16  -9.30749859E-16   1.45024535E-08  -1.10845415E-16   1.27835294E-17   1.01450607E-14   1.54599635E-16   8.72595918E-08  -3.59725125E-17  -3.48387490E-18  -3.46172866E-17  -3.27753142E-17  -1.99691955E-10  -1.11307258E-10  -1.16555410E-07   4.29421620E-08   1.83014420E-07   0.00000000E+00  -5.34100325E-18   1.49543028E-18   3.43961396E-18   1.82208035E-17  -3.37703437E-11  -4.57912707E-08  -4.65343613E-08   0.00000000E+00  -2.90048297E-08  -1.96516060E-16  -6.98555721E-16  -6.85420918E-16   2.48788211E-17  -3.14253771E-14   2.66957964E-14  -1.87562449E-11  -2.69424974E-14  -3.48778521E-09  -3.85413255E-14  -3.89951750E-15  -5.65323006E-10  -3.90435189E-15   1.73325449E-15
   4.63750000E+02   5.00000000E-01   5.00000000E-01  -1.31311987E-07  -4.42655669E-08  -1.24642729E-15  -9.57033410E-16  -9.33643888E-16   1.45024535E-08  -1.10866559E-16   1.34452275E-17   9.35616644E-15   1.61704466E-16   8.66539213E-08  -3.59555759E-17  -3.48668326E-18  -3.45423608E-17  -3.27441833E-17  -1.99650836E-10  -1.08978415E-10  -1.16555410E-07   4.15823842E-08   1.83794247E-07   0.00000000E+00  -5.29383007E-18   1.44744125E-18   3.63525793E-18   1.81063387E-17  -3.37737149E-11  -4.57943683E-08  -4.65343613E-08  -6.89700417E-19  -2.90048296E-08  -1.96515146E-16  -6.98555721E-16  -6.85420918E-16   2.46893574E-17  -3.14768696E-14   2.55239169E-14  -1.91141576E-11  -2.69871487E-14  -3.48778521E-09  -3.85413254E-14  -3.89905079E-15  -5.65299294E-10  -3.90435189E-15   1.73325449E-15
   4.81250000E+02   5.00000000E-01   5.00000000E-01  -1.31311985E-07  -4.39908439E-08  -1.24642679E-15  -9.60499802E-16  -9.36822765E-16   1.45024534E-08  -1.10888924E-16   1.41336833E-17   8.64260455E-15   1.69103490E-16   8.60260220E-08  -3.59391059E-17  -3.48981895E-18  -3.44697264E-17  -3.27184023E-17  -1.99608051E-10  -1.06658780E-10  -1.16555410E-07   4.02295379E-08   1.84574277E-07   0.00000000E+00  -5.24863519E-18   1.39904372E-18   3.82205837E-18   1.79711316E-17  -3.37775588E-11  -4.57971999E-08  -4.65343613E-08  -4.11902103E-18  -2.90048295E-08  -1.96514314E-16  -6.98555721E-16  -6.85420918E-16   2.45015395E-17  -3.15312039E-14   2.42894584E-14  -1.94633274E-11  -2.70280176E-14  -3.48778521E-09  -3.85413254E-14  -3.89854291E-15  -5.65275087E-10  -3.90435189E-15   1.73325448E-15
   4.98750000E+02   5.00000000E-01   5.00000000E-01  -1.31311983E-07  -4.37062968E-08  -1.24642628E-15  -9.64320598E-16  -9.40317041E-16   1.45024533E-08  -1.10912592E-16   1.48503794E-17   7.99680758E-15   1.76816261E-16   8.53723939E-08  -3.59231602E-17  -3.49327248E-18  -3.43996431E-17  -3.26980642E-17  -1.99563535E-10  -1.04347912E-10  -1.16555409E-07   3.88846054E-08   1.85354596E-07   0.00000000E+00  -5.20551936E-18   1.35031124E-18   3.99958543E-18   1.78156376E-17  -3.37818644E-11  -4.57998330E-08  -4.65343613E-08  -8.93502742E-18  -2.90048294E-08  -1.96513565E-16  -6.98555721E-16  -6.85420918E-16   2.43154434E-17  -3.15880677E-14   2.29992530E-14  -1.98035466E-11  -2.70653093E-14  -3.48778521E-09  -3.85413253E-14  -3.89799442E-15  -5.65250358E-10  -3.90435189E-15   1.73325448E-15
   5.16250000E+02   5.00000000E-01   5.00000000E-01  -1.31311980E-07  -4.34118964E-08  -1.24642574E-15  -9.68532321E-16  -9.44160201E-16   1.45024533E-08  -1.10937645E-16   1.55969277E-17   7.41179056E-15   1.84862309E-16   8.46897213E-08  -3.59077935E-17  -3.49703262E-18  -3.43323578E-17  -3.26832312E-17  -1.99517216E-10  -1.02045324E-10  -1.16555409E-07   3.75487029E-08   1.86135193E-07   0.00000000E+00  -5.16456744E-18   1.30132391E-18   4.16747959E-18   1.76404507E-17  -3.37866192E-11  -4.58023216E-08  -4.65343613E-08  -1.56218618E-17  -2.90048292E-08  -1.96512899E-16  -6.98555721E-16  -6.85420918E-16   2.41311809E-17  -3.16471610E-14   2.16598771E-14  -2.01346190E-11  -2.70992116E-14  -3.48778521E-09  -3.85413253E-14  -3.89740581E-15  -5.65225078E-10  -3.90435189E-15   1.73325446E-15
   5.33750000E+02   5.00000000E-01   5.00000000E-01  -1.31311978E-07  -4.31076276E-08  -1.24642519E-15  -9.73175421E-16  -9.48389388E-16   1.45024532E-08  -1.10964174E-16   1.63749826E-17   6.88118297E-15   1.93260357E-16   8.39751538E-08  -3.58930523E-17  -3.50108413E-18  -3.42680772E-17  -3.26738987E-17  -1.99469022E-10  -9.97506208E-11  -1.16555409E-07   3.62231955E-08   1.86915855E-07   0.00000000E+00  -5.12583489E-18   1.25217603E-18   4.32550930E-18   1.74464058E-17  -3.37918056E-11  -4.58047035E-08  -4.65343613E-08  -2.48255729E-17  -2.90048291E-08  -1.96512318E-16  -6.98555721E-16  -6.85420918E-16   2.39488835E-17  -3.17082043E-14   2.02776319E-14  -2.04563595E-11  -2.71298961E-14  -3.48778521E-09  -3.85413253E-14  -3.89677747E-15  -5.65199220E-10  -3.90435189E-15   1.73325444E-15
   5.51250000E+02   5.00000000E-01   5.00000000E-01  -1.31311975E-07  -4.27935104E-08  -1.24642461E-15  -9.78295328E-16  -9.53046341E-16   1.45024531E-08  -1.10992278E-16   1.71861520E-17   6.39924469E-15   2.02027751E-16   8.32264231E-08  -3.58789688E-17  -3.50540601E-18  -3.42069428E-17  -3.26699673E-17  -1.99418878E-10  -9.74636506E-11  -1.16555409E-07   3.49097617E-08   1.87696117E-07   0.00000000E+00  -5.08933649E-18   1.20298067E-18   4.47361933E-18   1.72346505E-17  -3.37973985E-11  -4.58069991E-08  -4.65343613E-08  -3.74058281E-17  -2.90048289E-08  -1.96511820E-16  -6.98555721E-16  -6.85420918E-16   2.37686865E-17  -3.17709439E-14   1.88585292E-14  -2.07685940E-11  -2.71575198E-14  -3.48778521E-09  -3.85413252E-14  -3.89610968E-15  -5.65172758E-10  -3.90435189E-15   1.73325441E-15
   5.68750000E+02   5.00000000E-01   5.00000000E-01  -1.31311972E-07  -4.24696151E-08  -1.24642402E-15  -9.83943674E-16  -9.58178477E-16   1.45024530E-08  -1.11022061E-16   1.80319501E-17   5.96086105E-15   2.11180395E-16   8.24417274E-08  -3.58655590E-17  -3.50997170E-18  -3.41490211E-17  -3.26712376E-17  -1.99366713E-10  -9.51845806E-11  -1.16555408E-07   3.36103480E-08   1.88475304E-07   0.00000000E+00  -5.05504359E-18   1.15386726E-18   4.61194200E-18   1.70066346E-17  -3.38033651E-11  -4.58092133E-08  -4.65343613E-08  -5.45022682E-17  -2.90048288E-08  -1.96511402E-16  -6.98555721E-16  -6.85420918E-16   2.35907193E-17  -3.18351536E-14   1.74082830E-14  -2.10711582E-11  -2.71822263E-14  -3.48778521E-09  -3.85413252E-14  -3.89540267E-15  -5.65145669E-10  -3.90435189E-15   1.73325437E-15
   5.86250000E+02   5.00000000E-01   5.00000000E-01  -1.31311969E-07  -4.21360652E-08  -1.24642341E-15  -9.90179568E-16  -9.63840043E-16   1.45024530E-08  -1.11053639E-16   1.89138198E-17   5.56151348E-15   2.20733324E-16   8.16194242E-08  -3.58528250E-17  -3.51475109E-18  -3.40943153E-17  -3.26774351E-17  -1.99312455E-10  -9.29138732E-11  -1.16555408E-07   3.23270064E-08   1.89252661E-07   0.00000000E+00  -5.02289317E-18   1.10497205E-18   4.74075795E-18   1.67640021E-17  -3.38096673E-11  -4.58113399E-08  -4.65343613E-08  -7.76180586E-17  -2.90048286E-08  -1.96511062E-16  -6.98555721E-16  -6.85420918E-16   2.34151016E-17  -3.19006301E-14   1.59323049E-14  -2.13638981E-11  -2.72041469E-14  -3.48778521E-09  -3.85413251E-14  -3.89465656E-15  -5.65117929E-10  -3.90435189E-15   1.73325429E-15
   6.03750000E+02   5.00000000E-01   5.00000000E-01  -1.31311965E-07  -4.17930246E-08  -1.24642277E-15  -9.97070898E-16  -9.70093308E-16   1.45024529E-08  -1.11087134E-16   1.98332275E-17   5.19722723E-15   2.30701776E-16   8.07576665E-08  -3.58407622E-17  -3.51971402E-18  -3.40427974E-17  -3.26882591E-17  -1.99256031E-10  -9.06521497E-11  -1.16555408E-07   3.10616601E-08   1.90027530E-07   0.00000000E+00  -4.99280690E-18   1.05642408E-18   4.86041441E-18   1.65084148E-17  -3.38162666E-11  -4.58133670E-08  -4.65343613E-08  -1.08722146E-16  -2.90048284E-08  -1.96510795E-16  -6.98555721E-16  -6.85420918E-16   2.32419472E-17  -3.19671861E-14   1.44357041E-14  -2.16466704E-11  -2.72234018E-14  -3.48778521E-09  -3.85413250E-14  -3.89387140E-15  -5.65089519E-10  -3.90435189E-15   1.73325418E-15
   6.21250000E+02   5.00000000E-01   5.00000000E-01  -1.31311961E-07  -4.14406723E-08  -1.24642212E-15  -1.00469568E-15  -9.77009805E-16   1.45024528E-08  -1.11122681E-16   2.07918040E-17   4.86450387E-15   2.41102398E-16   7.98541397E-08  -3.58293683E-17  -3.52483392E-18  -3.39944497E-17  -3.27034386E-17  -1.99197363E-10  -8.83999885E-11  -1.16555407E-07   2.98158742E-08   1.90799511E-07   0.00000000E+00  -4.96471425E-18   1.00833155E-18   4.97122619E-18   1.62413637E-17  -3.38231289E-11  -4.58152831E-08  -4.65343613E-08  -1.50368863E-16  -2.90048282E-08  -1.96510598E-16  -6.98555721E-16  -6.85420918E-16   2.30713716E-17  -3.20346414E-14   1.29232896E-14  -2.19193422E-11  -2.72401008E-14  -3.48778521E-09  -3.85413250E-14  -3.89304716E-15  -5.65060414E-10  -3.90435189E-15   1.73325401E-15