 TITLE = "Mineral Rate (mol/m^3/sec)" 
VARIABLES = "X"          "Y"              "Z"            "Forsterite"     "Fayalite"       "Saponite(Mg)"   "Enstatite(alph" "Ferrosilite(al" "Anorthite"      "Albite(low)"    "Clinochlore"    "Sudoite"        "Montmorillonit" "Kaolinite"      "Tremolite"      "Pargasite"      "Anhydrite"      "Epidote"        "Scolecite"      "Pyrite"         "FeS(am)"        "Quartz(alpha)" 
 ZONE I=         100 , J=           1 , K=           1  F=POINT
   1.75000000E+01   5.00000000E-01   5.00000000E-01  -3.48893170E-07  -4.55109589E-07   3.83336768E-07  -2.00433909E-10  -1.45570035E-10  -1.22593736E-07  -2.10751721E-07   2.61809921E-07  -8.75076249E-16  -2.95951615E-15  -2.50107698E-08  -4.79152118E-08  -4.91687759E-08  -8.43610491E-15  -5.98083646E-16  -2.26879887E-10  -6.33585014E-15  -6.37969646E-15   9.54365709E-18
   5.25000000E+01   5.00000000E-01   5.00000000E-01  -3.48893170E-07  -4.16821224E-07   3.86833989E-07  -2.00428732E-10  -1.20043165E-10  -1.22593736E-07  -1.51019227E-07   2.31270451E-07  -4.63427229E-16  -2.90853712E-15  -2.49488471E-08  -4.79151715E-08  -4.91687759E-08  -8.44897862E-15   1.39280400E-16  -2.26867555E-10  -6.33585014E-15  -6.37840816E-15   1.08990957E-17
   8.75000000E+01   5.00000000E-01   5.00000000E-01  -3.48893169E-07  -3.65840018E-07   3.68275791E-07  -2.00417494E-10  -9.81827170E-11  -1.22593736E-07  -1.25101786E-07   2.21421869E-07  -3.77998244E-16  -2.81347897E-15  -2.49041009E-08  -4.79150260E-08  -4.91687759E-08  -8.46196067E-15   1.96603081E-17  -2.26858435E-10  -6.33585014E-15  -6.37740876E-15   1.11140401E-17
   1.22500000E+02   5.00000000E-01   5.00000000E-01  -3.48893169E-07  -3.12486261E-07   3.43102129E-07  -2.00404833E-10  -8.05018447E-11  -1.22593736E-07  -1.05995106E-07   2.16101752E-07  -3.61840576E-16  -2.67420992E-15  -2.48578118E-08  -4.79149543E-08  -4.91687759E-08  -8.47475487E-15   2.59400249E-18  -2.26848849E-10  -6.33585014E-15  -6.37675026E-15   1.11426091E-17
   1.57500000E+02   5.00000000E-01   5.00000000E-01  -3.48893168E-07  -2.63369262E-07   3.19044446E-07  -2.00391281E-10  -6.67184719E-11  -1.22593736E-07  -8.90026952E-08   2.11642308E-07  -3.64365529E-16  -2.46306298E-15  -2.48047790E-08  -4.79149589E-08  -4.91687759E-08  -8.48693810E-15  -3.94063030E-18  -2.26837847E-10  -6.33585014E-15  -6.37639137E-15   1.11095081E-17
   1.92500000E+02   5.00000000E-01   5.00000000E-01  -3.48893167E-07  -2.21152770E-07   2.98220949E-07  -2.00376832E-10  -5.62280789E-11  -1.22593736E-07  -7.42576759E-08   2.07750166E-07  -3.73471687E-16  -2.16364232E-15  -2.47451656E-08  -4.79149318E-08  -4.91687759E-08  -8.49793469E-15  -9.30520339E-18  -2.26825477E-10  -6.33585014E-15  -6.37626273E-15   1.10270876E-17
   2.27500000E+02   5.00000000E-01   5.00000000E-01  -3.48893167E-07  -1.86285546E-07   2.81000901E-07  -2.00361445E-10  -4.83940482E-11  -1.22593735E-07  -6.20815294E-08   2.04524245E-07  -3.86069152E-16  -1.76711322E-15  -2.46799245E-08  -4.79148469E-08  -4.91687759E-08  -8.50697652E-15  -1.40387929E-17  -2.26811927E-10  -6.33585014E-15  -6.37629999E-15   1.09012632E-17
   2.62500000E+02   5.00000000E-01   5.00000000E-01  -3.48893165E-07  -1.58196879E-07   2.67139326E-07  -2.00345097E-10  -4.26489034E-11  -1.22593735E-07  -5.24476243E-08   2.01993594E-07  -4.01470609E-16  -1.26838641E-15  -2.46097750E-08  -4.79148121E-08  -4.91687759E-08  -8.51304757E-15  -1.79793884E-17  -2.26797337E-10  -6.33585014E-15  -6.37645155E-15   1.07403297E-17
   2.97500000E+02   5.00000000E-01   5.00000000E-01  -3.48893164E-07  -1.35930337E-07   2.56178203E-07  -2.00327775E-10  -3.85201404E-11  -1.22593734E-07  -4.51029410E-08   2.00109962E-07  -4.19721477E-16  -6.63610372E-16  -2.45351107E-08  -4.79148220E-08  -4.91687759E-08  -8.51481517E-15  -2.10825850E-17  -2.26781773E-10  -6.33585014E-15  -6.37667826E-15   1.05529722E-17
   3.32500000E+02   5.00000000E-01   5.00000000E-01  -3.48893163E-07  -1.18460678E-07   2.47616192E-07  -2.00309469E-10  -3.56285061E-11  -1.22593734E-07  -3.97064132E-08   1.98788164E-07  -4.41145775E-16   5.15766381E-17  -2.44560542E-08  -4.79148296E-08  -4.91687759E-08  -8.51053843E-15  -2.33881244E-17  -2.26765245E-10  -6.33585014E-15  -6.37695124E-15   1.03468707E-17
   3.67500000E+02   5.00000000E-01   5.00000000E-01  -3.48893161E-07  -1.04841748E-07   2.40984474E-07  -2.00290168E-10  -3.36765732E-11  -1.22593733E-07  -3.59092828E-08   1.97933442E-07  -4.66218349E-16   8.83070906E-16  -2.43725265E-08  -4.79148718E-08  -4.91687759E-08  -8.49794525E-15  -2.49599492E-17  -2.26747720E-10  -6.33585014E-15  -6.37724965E-15   1.01282967E-17
   4.02500000E+02   5.00000000E-01   5.00000000E-01  -3.48893159E-07  -9.42645176E-08   2.35876586E-07  -2.00269858E-10  -3.24348845E-11  -1.22593732E-07  -3.33923452E-08   1.97455089E-07  -4.95562503E-16   1.83897388E-15  -2.42843226E-08  -4.79149524E-08  -4.91687759E-08  -8.47407329E-15  -2.58603571E-17  -2.26729134E-10  -6.33585014E-15  -6.37755864E-15   9.90216358E-18
   4.37500000E+02   5.00000000E-01   5.00000000E-01  -3.48893157E-07  -8.60678417E-08   2.31954744E-07  -2.00248525E-10  -3.17283485E-11  -1.22593730E-07  -3.18791126E-08   1.97271984E-07  -5.29956463E-16   2.93010759E-15  -2.41911456E-08  -4.79150581E-08  -4.91687759E-08  -8.43505935E-15  -2.61452533E-17  -2.26709401E-10  -6.33585014E-15  -6.37786787E-15   9.67224371E-18
   4.72500000E+02   5.00000000E-01   5.00000000E-01  -3.48893154E-07  -7.97273313E-08   2.28945447E-07  -2.00226152E-10  -3.14243788E-11  -1.22593728E-07  -3.11368862E-08   1.97313906E-07  -5.70352293E-16   4.17049364E-15  -2.40926266E-08  -4.79151846E-08  -4.91687759E-08  -8.37585914E-15  -2.58646054E-17  -2.26688413E-10  -6.33585014E-15  -6.37817024E-15   9.44140432E-18
   5.07500000E+02   5.00000000E-01   5.00000000E-01  -3.48893151E-07  -7.48358079E-08   2.26630813E-07  -2.00202720E-10  -3.14231318E-11  -1.22593725E-07  -3.09727141E-08   1.97520989E-07  -6.17906280E-16   5.57794824E-15  -2.39883378E-08  -4.79153274E-08  -4.91687759E-08  -8.28987317E-15  -2.50648167E-17  -2.26666048E-10  -6.33585014E-15  -6.37846102E-15   9.21181220E-18
   5.42500000E+02   5.00000000E-01   5.00000000E-01  -3.48893148E-07  -7.10820306E-08   2.24839094E-07  -2.00178212E-10  -3.16497106E-11  -1.22593721E-07  -3.12278750E-08   1.97842588E-07  -6.74004965E-16   7.17481106E-15  -2.38777965E-08  -4.79154822E-08  -4.91687759E-08  -8.16844395E-15  -2.37917273E-17  -2.26642167E-10  -6.33585014E-15  -6.37873719E-15   8.98509715E-18
   5.77500000E+02   5.00000000E-01   5.00000000E-01  -3.48893144E-07  -6.82309144E-08   2.23436022E-07  -2.00152605E-10  -3.20480858E-11  -1.22593716E-07  -3.17725792E-08   1.98236098E-07  -7.40275875E-16   8.98880372E-15  -2.37604676E-08  -4.79156456E-08  -4.91687759E-08  -8.00017595E-15  -2.20929510E-17  -2.26616616E-10  -6.33585014E-15  -6.37899697E-15   8.76247518E-18
   6.12500000E+02   5.00000000E-01   5.00000000E-01  -3.48893139E-07  -6.61064326E-08   2.22317560E-07  -2.00125880E-10  -3.25764253E-11  -1.22593709E-07  -3.25015631E-08   1.98665986E-07  -8.18556386E-16   1.10539712E-14  -2.36357658E-08  -4.79158153E-08  -4.91687759E-08  -7.77000967E-15  -2.00192948E-17  -2.26589226E-10  -6.33585014E-15  -6.37923944E-15   8.54483821E-18
   6.47500000E+02   5.00000000E-01   5.00000000E-01  -3.48893135E-07  -6.45774286E-08   2.21404109E-07  -2.00098014E-10  -3.32035386E-11  -1.22593700E-07  -3.33307009E-08   1.99103094E-07  -9.10766076E-16   1.34116253E-14  -2.35030627E-08  -4.79159899E-08  -4.91687759E-08  -7.45795163E-15  -1.76255478E-17  -2.26559811E-10  -6.33585014E-15  -6.37946433E-15   8.33281806E-18
   6.82500000E+02   5.00000000E-01   5.00000000E-01  -3.48893130E-07  -6.35461498E-08   2.20635974E-07  -2.00068984E-10  -3.39061881E-11  -1.22593689E-07  -3.41944801E-08   1.99524151E-07  -1.01857385E-15   1.61111855E-14  -2.33616984E-08  -4.79161690E-08  -4.91687759E-08  -7.03731946E-15  -1.49701889E-17  -2.26528177E-10  -6.33585014E-15  -6.37967179E-15   8.12683213E-18
   7.17500000E+02   5.00000000E-01   5.00000000E-01  -3.48893125E-07  -6.29391784E-08   2.19969823E-07  -2.00038768E-10  -3.46670641E-11  -1.22593675E-07  -3.50440769E-08   1.99911438E-07  -1.14264488E-15   1.92107925E-14  -2.32109999E-08  -4.79163525E-08  -4.91687759E-08  -6.47229762E-15  -1.21142338E-17  -2.26494117E-10  -6.33585014E-15  -6.37986228E-15   7.92711716E-18
   7.52500000E+02   5.00000000E-01   5.00000000E-01  -3.48893121E-07  -6.27004111E-08   2.19375848E-07  -2.00007338E-10  -3.54732663E-11  -1.22593656E-07  -3.58457474E-08   2.00252489E-07  -1.28104388E-15   2.27775487E-14  -2.30503058E-08  -4.79165409E-08  -4.91687759E-08  -5.71450418E-15  -9.11946642E-18  -2.26457422E-10  -6.33585014E-15  -6.38003649E-15   7.73375605E-18
   7.87500000E+02   5.00000000E-01   5.00000000E-01  -3.48893117E-07  -6.27857694E-08   2.18835390E-07  -1.99974669E-10  -3.63151678E-11  -1.22593632E-07  -3.65792901E-08   2.00539751E-07  -1.42596145E-15   2.68872235E-14  -2.28789942E-08  -4.79167343E-08  -4.91687759E-08  -4.69812633E-15  -6.04613908E-18  -2.26417881E-10  -6.33585014E-15  -6.38019522E-15   7.54670135E-18
   8.22500000E+02   5.00000000E-01   5.00000000E-01  -3.48893115E-07  -6.31593473E-08   2.18338844E-07  -1.99940730E-10  -3.71855679E-11  -1.22593601E-07  -3.72364060E-08   2.00770154E-07  -1.55712137E-15   3.16232534E-14  -2.26965150E-08  -4.79169317E-08  -4.91687759E-08  -3.33296375E-15  -2.95059197E-18  -2.26375290E-10  -6.33585014E-15  -6.38033938E-15   7.36579789E-18
   8.57500000E+02   5.00000000E-01   5.00000000E-01  -3.48893117E-07  -6.37907259E-08   2.17883732E-07  -1.99905489E-10  -3.80790591E-11  -1.22593561E-07  -3.78188686E-08   2.00944557E-07  -1.62862492E-15   3.70748651E-14  -2.25024200E-08  -4.79171307E-08  -4.91687759E-08  -1.49438354E-15   1.16916045E-19  -2.26329455E-10  -6.33585014E-15  -6.38046992E-15   7.19080541E-18
   8.92500000E+02   5.00000000E-01   5.00000000E-01  -3.48893123E-07  -6.46531995E-08   2.17472891E-07  -1.99868912E-10  -3.89915539E-11  -1.22593511E-07  -3.83364991E-08   2.01067067E-07  -1.54281023E-15   4.33341782E-14  -2.22963904E-08  -4.79173281E-08  -4.91687759E-08   9.91332907E-16   3.11381000E-18  -2.26280198E-10  -6.33585014E-15  -6.38058781E-15   7.02142156E-18
   9.27500000E+02   5.00000000E-01   5.00000000E-01  -3.48893139E-07  -6.57226768E-08   2.17112783E-07  -1.99830962E-10  -3.99199257E-11  -1.22593447E-07  -3.88050160E-08   2.01144272E-07  -1.09839083E-15   5.04922045E-14  -2.20782589E-08  -4.79175227E-08  -4.91687759E-08   4.36859377E-15   6.00607091E-18  -2.26227358E-10  -6.33585014E-15  -6.38069401E-15   6.85730437E-18
   9.62500000E+02   5.00000000E-01   5.00000000E-01  -3.48893168E-07  -6.69770471E-08   2.16811959E-07  -1.99791598E-10  -4.08617366E-11  -1.22593367E-07  -3.92438678E-08   2.01184438E-07   1.12411360E-16   5.86337794E-14  -2.18480238E-08  -4.79177181E-08  -4.91687759E-08   8.98470554E-15   8.76826294E-18  -2.26170798E-10  -6.33585014E-15  -6.38078948E-15   6.69809317E-18
   9.97500000E+02   5.00000000E-01   5.00000000E-01  -3.48893219E-07  -6.83958397E-08   2.16579726E-07  -1.99750778E-10  -4.18150275E-11  -1.22593265E-07  -3.96741801E-08   2.01196711E-07   2.90798990E-15   6.78316431E-14  -2.16058570E-08  -4.79179225E-08  -4.91687759E-08   1.53384569E-14   1.13829900E-17  -2.26110401E-10  -6.33585014E-15  -6.38087513E-15   6.54342678E-18
   1.03250000E+03   5.00000000E-01   5.00000000E-01  -3.48893300E-07  -6.99600400E-08   2.16425041E-07  -1.99708457E-10  -4.27781591E-11  -1.22593138E-07  -4.01169322E-08   2.01190395E-07   8.92278624E-15   7.81401091E-14  -2.13521049E-08  -4.79181392E-08  -4.91687759E-08   2.41543084E-14   1.38396634E-17  -2.26046068E-10  -6.33585014E-15  -6.38095184E-15   6.39295801E-18
   1.06750000E+03   5.00000000E-01   5.00000000E-01  -3.48893428E-07  -7.16519224E-08   2.16355647E-07  -1.99664590E-10  -4.37496817E-11  -1.22592978E-07  -4.05914697E-08   2.01174350E-07   2.14133667E-14   8.95886382E-14  -2.10872834E-08  -4.79183568E-08  -4.91687759E-08   3.64971522E-14   1.61329157E-17  -2.25977721E-10  -6.33585014E-15  -6.38102043E-15   6.24636425E-18
   1.10250000E+03   5.00000000E-01   5.00000000E-01  -3.48893623E-07  -7.34547782E-08   2.16377425E-07  -1.99619128E-10  -4.47282102E-11  -1.22592779E-07  -4.11144177E-08   2.01156538E-07   4.68599048E-14   1.02175244E-13  -2.08120628E-08  -4.79185569E-08  -4.91687759E-08   5.39522337E-14   1.82608796E-17  -2.25905292E-10  -6.33585014E-15  -6.38108168E-15   6.10335496E-18
   1.13750000E+03   5.00000000E-01   5.00000000E-01  -3.48893917E-07  -7.53525707E-08   2.16494022E-07  -1.99572021E-10  -4.57123120E-11  -1.22592532E-07  -4.16989775E-08   2.01143709E-07   9.81377224E-14   1.15860311E-13  -2.05272479E-08  -4.79187347E-08  -4.91687759E-08   7.89112159E-14   2.02234711E-17  -2.25828727E-10  -6.33585014E-15  -6.38113631E-15   5.96367582E-18
   1.17250000E+03   5.00000000E-01   5.00000000E-01  -3.48894348E-07  -7.73296008E-08   2.16706733E-07  -1.99523220E-10  -4.67004247E-11  -1.22592227E-07  -4.23545484E-08   2.01141202E-07   2.00766413E-13   1.30562169E-13  -2.02337588E-08  -4.79189128E-08  -4.91687759E-08   1.15033707E-13   2.20214955E-17  -2.25747973E-10  -6.33585014E-15  -6.38118499E-15   5.82710977E-18
   1.20750000E+03   5.00000000E-01   5.00000000E-01  -3.48894966E-07  -7.93702367E-08   2.17014556E-07  -1.99472671E-10  -4.76908114E-11  -1.22591849E-07  -4.30866126E-08   2.01152835E-07   4.05156499E-13   1.46156081E-13  -1.99326169E-08  -4.79191259E-08  -4.91687759E-08   1.68003381E-13   2.36558247E-17  -2.25662980E-10  -6.33585014E-15  -6.38122833E-15   5.69347475E-18
   1.24250000E+03   5.00000000E-01   5.00000000E-01  -3.48895821E-07  -8.14587232E-08   2.17414346E-07  -1.99420322E-10  -4.86815544E-11  -1.22591385E-07  -4.38968236E-08   2.01180872E-07   8.10537909E-13   1.62478253E-13  -1.96249390E-08  -4.79193631E-08  -4.91687759E-08   2.46786890E-13   2.51271430E-17  -2.25573690E-10  -6.33585014E-15  -6.38126689E-15   5.56261897E-18
   1.27750000E+03   5.00000000E-01   5.00000000E-01  -3.48896975E-07  -8.35787211E-08   2.17900887E-07  -1.99366122E-10  -4.96705029E-11  -1.22590816E-07  -4.47833921E-08   2.01226093E-07   1.61139358E-12   1.79329282E-13  -1.93119207E-08  -4.79195564E-08  -4.91687759E-08   3.65765398E-13   2.64349543E-17  -2.25480036E-10  -6.33585014E-15  -6.38130118E-15   5.43441652E-18
   1.31250000E+03   5.00000000E-01   5.00000000E-01  -3.48898495E-07  -8.57125837E-08   2.18467083E-07  -1.99310015E-10  -5.06551649E-11  -1.22590120E-07  -4.57417009E-08   2.01287861E-07   3.18611910E-12   1.96473206E-13  -1.89948052E-08  -4.79196578E-08  -4.91687759E-08   5.48406571E-13   2.75769270E-17  -2.25381936E-10  -6.33585014E-15  -6.38133167E-15   5.30876491E-18
   1.34750000E+03   5.00000000E-01   5.00000000E-01  -3.48900445E-07  -8.78408298E-08   2.19104569E-07  -1.99251947E-10  -5.16326404E-11  -1.22589273E-07  -4.67649156E-08   2.01363971E-07   6.26279775E-12   2.13639391E-13  -1.86748664E-08  -4.79197121E-08  -4.91687759E-08   8.33704603E-13   2.85494800E-17  -2.25279297E-10  -6.33585014E-15  -6.38135875E-15   5.18558178E-18
   1.38250000E+03   5.00000000E-01   5.00000000E-01  -3.48902848E-07  -8.99415339E-08   2.19804550E-07  -1.99191858E-10  -5.25995434E-11  -1.22588242E-07  -4.78447647E-08   2.01450296E-07   1.22175818E-11   2.30522141E-13  -1.83533992E-08  -4.79199601E-08  -4.91687759E-08   1.28768384E-12   2.93478146E-17  -2.25172014E-10  -6.33585014E-15  -6.38138281E-15   5.06480164E-18
   1.41750000E+03   5.00000000E-01   5.00000000E-01  -3.48905594E-07  -9.19908481E-08   2.20559536E-07  -1.99129688E-10  -5.35521798E-11  -1.22586992E-07  -4.89719502E-08   2.01539693E-07   2.36085753E-11   2.46814885E-13  -1.80317917E-08  -4.79206239E-08  -4.91687759E-08   2.02435134E-12   2.99684355E-17  -2.25059970E-10  -6.33585014E-15  -6.38140419E-15   4.94636482E-18
   1.45250000E+03   5.00000000E-01   5.00000000E-01  -3.48908522E-07  -9.39651040E-08   2.21366590E-07  -1.99065384E-10  -5.44871546E-11  -1.22585481E-07  -5.01362269E-08   2.01619569E-07   4.52521583E-11   2.62320098E-13  -1.77117488E-08  -4.79211198E-08  -4.91687759E-08   3.24469232E-12   3.04120545E-17  -2.24943001E-10  -6.33585014E-15  -6.38142317E-15   4.83018977E-18
   1.48750000E+03   5.00000000E-01   5.00000000E-01  -3.48911665E-07  -9.58340181E-08   2.22227314E-07  -1.98998886E-10  -5.54001930E-11  -1.22583657E-07  -5.13316010E-08   2.01670757E-07   8.60036515E-11   2.76774037E-13  -1.73951343E-08  -4.79212548E-08  -4.91687759E-08   5.31067975E-12   3.06678176E-17  -2.24820986E-10  -6.33585014E-15  -6.38144003E-15   4.71618272E-18
   1.52250000E+03   5.00000000E-01   5.00000000E-01  -3.48915057E-07  -9.75581580E-08   2.23153570E-07  -1.98930113E-10  -5.62856885E-11  -1.22581463E-07  -5.25592441E-08   2.01663173E-07   1.61206568E-10   2.89761493E-13  -1.70840409E-08  -4.79217947E-08  -4.91687759E-08   8.88859809E-12   3.07221160E-17  -2.24693914E-10  -6.33585014E-15  -6.38145501E-15   4.60424077E-18
   1.55750000E+03   5.00000000E-01   5.00000000E-01  -3.48918544E-07  -9.90938592E-08   2.24180960E-07  -1.98858980E-10  -5.71379922E-11  -1.22578830E-07  -5.38278122E-08   2.01545630E-07   2.97055005E-10   3.00972712E-13  -1.67814625E-08  -4.79230162E-08  -4.91687759E-08   1.52330027E-11   3.05714719E-17  -2.24561876E-10  -6.33585014E-15  -6.38146830E-15   4.49420177E-18
   1.59250000E+03   5.00000000E-01   5.00000000E-01  -3.48922098E-07  -1.00391097E-07   2.25388858E-07  -1.98785404E-10  -5.79518679E-11  -1.22575681E-07  -5.51613884E-08   2.01228016E-07   5.40231633E-10   3.10327619E-13  -1.64921833E-08  -4.79238558E-08  -4.91687759E-08   2.67629106E-11   3.02107341E-17  -2.24425167E-10  -6.33585014E-15  -6.38148011E-15   4.38576861E-18
   1.62750000E+03   5.00000000E-01   5.00000000E-01  -3.48925780E-07  -1.01377753E-07   2.26914204E-07  -1.98709258E-10  -5.87202538E-11  -1.22571929E-07  -5.66162069E-08   2.00566392E-07   9.68599379E-10   3.17480740E-13  -1.62232355E-08  -4.79240626E-08  -4.91687759E-08   4.82566287E-11   2.96156133E-17  -2.24284678E-10  -6.33585014E-15  -6.38149059E-15   4.27848645E-18
   1.66250000E+03   5.00000000E-01   5.00000000E-01  -3.48929474E-07  -1.01956944E-07   2.28975402E-07  -1.98630361E-10  -5.94344429E-11  -1.22567485E-07  -5.82895808E-08   1.99343113E-07   1.70190244E-09   3.21851353E-13  -1.59850202E-08  -4.79239767E-08  -4.91687759E-08   8.93877383E-11   2.87654539E-17  -2.24142189E-10  -6.33585014E-15  -6.38149989E-15   4.17169279E-18
   1.69750000E+03   5.00000000E-01   5.00000000E-01  -3.48933156E-07  -1.02004334E-07   2.31914342E-07  -1.98548469E-10  -6.00850471E-11  -1.22562262E-07  -6.03326301E-08   1.97231966E-07   2.91973580E-09   3.22871341E-13  -1.57931575E-08  -4.79237501E-08  -4.91687759E-08   1.70237422E-10   2.76456163E-17  -2.24000755E-10  -6.33585014E-15  -6.38150812E-15   4.06440853E-18
   1.73250000E+03   5.00000000E-01   5.00000000E-01  -3.48936984E-07  -1.01358142E-07   2.36220306E-07  -1.98463247E-10  -6.06617435E-11  -1.22556191E-07  -6.29665937E-08   1.93774623E-07   4.87609881E-09   3.19870989E-13  -1.56699315E-08  -4.79234888E-08  -4.91687759E-08   3.33562679E-10   2.62417715E-17  -2.23865287E-10  -6.33585014E-15  -6.38151540E-15   3.95525054E-18
   1.76750000E+03   5.00000000E-01   5.00000000E-01  -3.48940936E-07  -9.98238952E-08   2.42458066E-07  -1.98374252E-10  -6.11538832E-11  -1.22549241E-07  -6.64699280E-08   1.88437349E-07   7.87332649E-09   3.11996417E-13  -1.56430780E-08  -4.79232973E-08  -4.91687759E-08   6.72756658E-10   2.45618714E-17  -2.23742735E-10  -6.33585014E-15  -6.38152182E-15   3.84251521E-18
   1.80250000E+03   5.00000000E-01   5.00000000E-01  -3.48944869E-07  -9.72055273E-08   2.51096908E-07  -1.98280968E-10  -6.15533342E-11  -1.22541427E-07  -7.11187789E-08   1.80756995E-07   1.21861464E-08   2.98543050E-13  -1.57405727E-08  -4.79232427E-08  -4.91687759E-08   1.39708719E-09   2.26618931E-17  -2.23641251E-10  -6.33585014E-15  -6.38152747E-15   3.72447994E-18
   1.83750000E+03   5.00000000E-01   5.00000000E-01  -3.48948564E-07  -9.33592764E-08   2.62248261E-07  -1.98182904E-10  -6.18582260E-11  -1.22532809E-07  -7.70847126E-08   1.70568971E-07   1.79395743E-08   2.79386857E-13  -1.59809463E-08  -4.79235212E-08  -4.91687759E-08   2.98739967E-09   2.06530142E-17  -2.23568100E-10  -6.33585014E-15  -6.38153243E-15   3.59993847E-18
   1.87250000E+03   5.00000000E-01   5.00000000E-01  -3.48951807E-07  -8.82490432E-08   2.75474029E-07  -1.98079713E-10  -6.20756148E-11  -1.22523456E-07  -8.43372442E-08   1.58181731E-07   2.50087342E-08   2.55298912E-13  -1.63635968E-08  -4.79242512E-08  -4.91687759E-08   6.57576228E-09   1.86750026E-17  -2.23527094E-10  -6.33585014E-15  -6.38153680E-15   3.46874356E-18
   1.90750000E+03   5.00000000E-01   5.00000000E-01  -3.48954638E-07  -8.19475435E-08   2.89971053E-07  -1.97971241E-10  -6.22198145E-11  -1.22513416E-07  -9.26518721E-08   1.44235207E-07   3.30759960E-08   2.27833889E-13  -1.68688739E-08  -4.79249703E-08  -4.91687759E-08   1.48888332E-08   1.68212540E-17  -2.23517902E-10  -6.33585014E-15  -6.38154066E-15   3.33181130E-18
   1.94250000E+03   5.00000000E-01   5.00000000E-01  -3.48957251E-07  -7.46224376E-08   3.04712675E-07  -1.97857532E-10  -6.23092976E-11  -1.22502694E-07  -1.01657287E-07   1.29582128E-07   4.16921930E-08   1.98877450E-13  -1.74623083E-08  -4.79252096E-08  -4.91687759E-08   3.46217882E-08   1.51112537E-17  -2.23536606E-10  -6.33585014E-15  -6.38154410E-15   3.19096646E-18
   1.97750000E+03   5.00000000E-01   5.00000000E-01  -3.48959739E-07  -6.65374756E-08   3.18492075E-07  -1.97738860E-10  -6.23642638E-11  -1.22491242E-07  -1.10869536E-07   1.15242017E-07   5.03065499E-08   1.70319710E-13  -1.80987681E-08  -4.79250211E-08  -4.91687759E-08   8.24023903E-08   1.34692652E-17  -2.23576778E-10  -6.33585014E-15  -6.38154719E-15   3.04889585E-18
   2.01250000E+03   5.00000000E-01   5.00000000E-01  -3.48962120E-07  -5.80194537E-08   3.30232626E-07  -1.97615692E-10  -6.24026661E-11  -1.22479039E-07  -1.19772491E-07   1.02106535E-07   5.84122355E-08   1.43775826E-13  -1.87313384E-08  -4.79246088E-08  -4.91687759E-08   1.99235775E-07   1.16261397E-17  -2.23633197E-10  -6.33585014E-15  -6.38154999E-15   2.90879475E-18
   2.04750000E+03   5.00000000E-01   5.00000000E-01  -3.48964390E-07  -4.94123297E-08   3.39337000E-07  -1.97488574E-10  -6.24386157E-11  -1.22466395E-07  -1.27917691E-07   9.05491274E-08   6.57419674E-08   1.20339303E-13  -1.93212876E-08  -4.79241079E-08  -4.91687759E-08   4.81053496E-07   8.95365675E-18  -2.23709194E-10  -6.33585014E-15  -6.38155256E-15   2.77376500E-18
   2.08250000E+03   5.00000000E-01   5.00000000E-01  -3.48966543E-07  -4.11193707E-08   3.45789533E-07  -1.97358044E-10  -6.24924442E-11  -1.22454630E-07  -1.34974443E-07   8.01877369E-08   7.23930788E-08   1.00524750E-13  -1.98425771E-08  -4.79235850E-08  -4.91687759E-08   1.11649711E-06   4.21163409E-18  -2.23826772E-10  -6.33585014E-15  -6.38155493E-15   2.64639036E-18
   2.11750000E+03   5.00000000E-01   5.00000000E-01  -3.48968569E-07  -3.37916287E-08   3.50111475E-07  -1.97224548E-10  -6.26178035E-11  -1.22446864E-07  -1.40745849E-07   7.00112315E-08   7.87725238E-08   8.43577932E-14  -2.02818778E-08  -4.79230714E-08  -4.91687759E-08   2.31188887E-06  -4.65562984E-18  -2.24030520E-10  -6.33585014E-15  -6.38155717E-15   2.52850434E-18
   2.15250000E+03   5.00000000E-01   5.00000000E-01  -3.48970457E-07  -2.82567893E-08   3.53756195E-07  -1.97088010E-10  -6.29083313E-11  -1.22447039E-07  -1.45348684E-07   5.91831448E-08   8.52112107E-08   7.12853232E-14  -2.06492129E-08  -4.79225827E-08  -4.91687759E-08   3.83943053E-06  -1.98483471E-17  -2.24356298E-10  -6.33585014E-15  -6.38155928E-15   2.41984231E-18
   2.18750000E+03   5.00000000E-01   5.00000000E-01  -3.48972183E-07  -2.45385224E-08   3.58851577E-07  -1.96947303E-10  -6.33979911E-11  -1.22455444E-07  -1.49387816E-07   4.85141585E-08   9.12958657E-08   6.01597726E-14  -2.09876967E-08  -4.79221274E-08  -4.91687759E-08   4.73008447E-06  -4.08147413E-17  -2.24764517E-10  -6.33585014E-15  -6.38156127E-15   2.31651396E-18
   2.22250000E+03   5.00000000E-01   5.00000000E-01  -3.48973729E-07  -2.12526144E-08   3.65521178E-07  -1.96801303E-10  -6.39554912E-11  -1.22466925E-07  -1.53407328E-07   4.00431790E-08   9.61479916E-08   5.01050450E-14  -2.13334590E-08  -4.79217093E-08  -4.91687759E-08   4.40130557E-06  -6.04992967E-17  -2.25151863E-10  -6.33585014E-15  -6.38156309E-15   2.21450084E-18
   2.25750000E+03   5.00000000E-01   5.00000000E-01  -3.48975090E-07  -1.68635944E-08   3.71286404E-07  -1.96650224E-10  -6.43915166E-11  -1.22475870E-07  -1.57326277E-07   3.46297044E-08   9.95211641E-08   4.11037697E-14  -2.16780499E-08  -4.79213298E-08  -4.91687759E-08   3.38484757E-06  -6.68532309E-17  -2.25447208E-10  -6.33585014E-15  -6.38156472E-15   2.11396320E-18
   2.29250000E+03   5.00000000E-01   5.00000000E-01  -3.48976282E-07  -1.07420675E-08   3.74296314E-07  -1.96494972E-10  -6.46044355E-11  -1.22479584E-07  -1.60774070E-07   3.15531552E-08   1.01825689E-07   3.34136226E-14  -2.19949117E-08  -4.79209879E-08  -4.91687759E-08   2.35139241E-06  -5.27541804E-17  -2.25640924E-10  -6.33585014E-15  -6.38156616E-15   2.01741772E-18
   2.32750000E+03   5.00000000E-01   5.00000000E-01  -3.48977325E-07  -3.00345093E-09   3.74569070E-07  -1.96336206E-10  -6.45888567E-11  -1.22477604E-07  -1.63493562E-07   2.96398388E-08   1.03574174E-07   2.71005141E-14  -2.22676643E-08  -4.79206811E-08  -4.91687759E-08   1.56787932E-06  -2.46767735E-17  -2.25753405E-10  -6.33585014E-15  -6.38156745E-15   1.92686052E-18
   2.36250000E+03   5.00000000E-01   5.00000000E-01  -3.48978238E-07   5.97517587E-09   3.73043770E-07  -1.96174135E-10  -6.43838558E-11  -1.22470318E-07  -1.65413995E-07   2.79432817E-08   1.05141357E-07   2.20325032E-14  -2.24938891E-08  -4.79204059E-08  -4.91687759E-08   1.04498698E-06   3.42311045E-18  -2.25808968E-10  -6.33585014E-15  -6.38156861E-15   1.84298702E-18
   2.39750000E+03   5.00000000E-01   5.00000000E-01  -3.48979034E-07   1.58353790E-08   3.70654888E-07  -1.96008654E-10  -6.40359188E-11  -1.22458140E-07  -1.66587332E-07   2.59380400E-08   1.06726680E-07   1.79885452E-14  -2.26794476E-08  -4.79201578E-08  -4.91687759E-08   7.13496353E-07   2.26533272E-17  -2.25826245E-10  -6.33585014E-15  -6.38156967E-15   1.76550120E-18
   2.43250000E+03   5.00000000E-01   5.00000000E-01  -3.48979723E-07   2.62958170E-08   3.67970110E-07  -1.95839527E-10  -6.35864788E-11  -1.22441218E-07  -1.67112493E-07   2.34714069E-08   1.08387138E-07   1.47430093E-14  -2.28325026E-08  -4.79199324E-08  -4.91687759E-08   5.04211971E-07   3.19890629E-17  -2.25817310E-10  -6.33585014E-15  -6.38157065E-15   1.69365384E-18
   2.46750000E+03   5.00000000E-01   5.00000000E-01  -3.48980315E-07   3.71245365E-08   3.65231327E-07  -1.95666501E-10  -6.30709730E-11  -1.22419398E-07  -1.67089064E-07   2.06074433E-08   1.10098555E-07   1.21055978E-14  -2.29602349E-08  -4.79197249E-08  -4.91687759E-08   3.69114474E-07   3.41221727E-17  -2.25789482E-10  -6.33585014E-15  -6.38157154E-15   1.62662836E-18
   2.50250000E+03   5.00000000E-01   5.00000000E-01  -3.48980817E-07   4.81056403E-08   3.62505503E-07  -1.95489346E-10  -6.25205961E-11  -1.22392296E-07  -1.66599756E-07   1.74887381E-08   1.11807157E-07   9.93191028E-15  -2.30681045E-08  -4.79195312E-08  -4.91687759E-08   2.79884866E-07   3.20596894E-17  -2.25747251E-10  -6.33585014E-15  -6.38157237E-15   1.56371626E-18
   2.53750000E+03   5.00000000E-01   5.00000000E-01  -3.48981236E-07   5.90284896E-08   3.59782122E-07  -1.95307868E-10  -6.19628363E-11  -1.22359346E-07  -1.65706087E-07   1.42786519E-08   1.13449274E-07   8.11968143E-15  -2.31601571E-08  -4.79193472E-08  -4.91687759E-08   2.20192716E-07   2.80382779E-17  -2.25693465E-10  -6.33585014E-15  -6.38157313E-15   1.50436776E-18
   2.57250000E+03   5.00000000E-01   5.00000000E-01  -3.48981581E-07   6.96982493E-08   3.57014360E-07  -1.95121918E-10  -6.14204082E-11  -1.22319795E-07  -1.64447968E-07   1.11448893E-08   1.14956055E-07   6.59848576E-15  -2.32392430E-08  -4.79191697E-08  -4.91687759E-08   1.79666068E-07   2.34649314E-17  -2.25629859E-10  -6.33585014E-15  -6.38157384E-15   1.44818823E-18
   2.60750000E+03   5.00000000E-01   5.00000000E-01  -3.48981863E-07   7.99528462E-08   3.54145543E-07  -1.94931393E-10  -6.09100714E-11  -1.22272674E-07  -1.62846300E-07   8.23931588E-09   1.16262004E-07   5.31883335E-15  -2.33071342E-08  -4.79189962E-08  -4.91687759E-08   1.51286069E-07   1.90965688E-17  -2.25557331E-10  -6.33585014E-15  -6.38157449E-15   1.39490676E-18
   2.64250000E+03   5.00000000E-01   5.00000000E-01  -3.48982095E-07   8.96743062E-08   3.51131753E-07  -1.94736218E-10  -6.04424379E-11  -1.22216773E-07  -1.60908571E-07   5.67609209E-09   1.17315508E-07   4.24375030E-15  -2.33647836E-08  -4.79188248E-08  -4.91687759E-08   1.30394025E-07   1.52613948E-17  -2.25476175E-10  -6.33585014E-15  -6.38157510E-15   1.34433018E-18
   2.67750000E+03   5.00000000E-01   5.00000000E-01  -3.48982296E-07   9.87892356E-08   3.47955041E-07  -1.94536321E-10  -6.00229813E-11  -1.22150629E-07  -1.58635741E-07   3.52065772E-09   1.18085135E-07   3.34323320E-15  -2.34127107E-08  -4.79186548E-08  -4.91687759E-08   1.14127746E-07   1.20462318E-17  -2.25386317E-10  -6.33585014E-15  -6.38157566E-15   1.29629710E-18
   2.71250000E+03   5.00000000E-01   5.00000000E-01  -3.48982483E-07   1.07259036E-07   3.44617894E-07  -1.94331622E-10  -5.96537607E-11  -1.22072519E-07  -1.56027147E-07   1.79870615E-09   1.18557001E-07   2.59162110E-15  -2.34513312E-08  -4.79184869E-08  -4.91687759E-08   1.00929209E-07   9.42277847E-18  -2.25287510E-10  -6.33585014E-15  -6.38157619E-15   1.25065059E-18