 TITLE = "Mineral Rate (mol/m^3/sec)" 
VARIABLES = "X"          "Y"              "Z"            "Forsterite"     "Fayalite"       "Brucite"        "Lizardite"      "Chrysotile"     "Hematite"       "Magnetite(am)"  "Saponite(Ca)"   "Saponite(K)"    "Saponite(Mg)"   "Saponite(Na)"   "Beidellite(Ca)" "Beidellite(K)"  "Beidellite(Mg)" "Beidellite(Na)" "Enstatite(alph" "Ferrosilite(al" "Anorthite"      "Albite(low)"    "Clinochlore"    "Sudoite"        "Montmor(MgCa)"  "Montmor(MgK)"   "Montmor(MgMg)"  "Montmor(MgNa)"  "Kaolinite"      "Tremolite"      "Pargasite"      "Anhydrite"      "Epidote"        "Scolecite"      "Pyrite"         "FeS(am)"        "Quartz(alpha)"  "Titanite"       "Rutile"         "Barite"         "Fluorite"       "Spessartine(al" "Andradite"      "Celestite"      "Zincite"        "Chalcocyanite"  "Chalcocite(alp"
 ZONE I=         200 , J=           1 , K=           1  F=POINT
   8.75000000E+00   5.00000000E-01   5.00000000E-01  -1.31180541E-07  -4.78807340E-08  -1.23824253E-15  -1.08062142E-15  -1.00737615E-15   1.43711273E-08  -8.76875020E-17   1.40784579E-17   2.46700263E-14   9.52816530E-17   2.67674079E-08  -3.65549688E-17  -3.81101226E-18  -3.74057854E-17  -3.70983014E-17  -1.99974517E-10  -1.70884287E-10  -1.16162968E-07  -2.88957966E-08   2.28005025E-07   0.00000000E+00  -8.06814796E-18  -8.28605608E-19  -8.25130005E-18  -8.18038533E-18  -3.42577014E-11  -4.52651499E-08  -4.63635985E-08   0.00000000E+00  -2.87421771E-08  -1.95167313E-16  -6.96212510E-16  -6.83735909E-16   9.97780193E-18  -2.79215452E-14   1.74014111E-14   1.46601388E-10  -2.32508904E-14  -3.45543154E-09  -3.85412849E-14  -3.89292745E-15  -5.65622452E-10  -3.90435177E-15   1.82925112E-13
   2.62500000E+01   5.00000000E-01   5.00000000E-01  -1.31180550E-07  -4.78695442E-08  -1.23825314E-15  -1.02138536E-15  -9.65111410E-16   1.43711272E-08  -8.76958004E-17   4.81438069E-18   2.30559204E-14   4.74246700E-17   4.11724968E-08  -3.65539897E-17  -3.80963832E-18  -3.74012019E-17  -3.70864436E-17  -2.00188969E-10  -1.69075694E-10  -1.16162968E-07  -2.29626707E-08   2.22628093E-07   0.00000000E+00  -8.04970405E-18  -7.84402715E-19  -8.17137058E-18  -7.86421431E-18  -3.42504909E-11  -4.52871283E-08  -4.63635985E-08   0.00000000E+00  -2.87421771E-08  -1.95165912E-16  -6.96212510E-16  -6.83735909E-16   1.56019182E-17  -3.05045829E-14   1.94577525E-14   5.42072903E-11  -2.35854464E-14  -3.45543154E-09  -3.85412885E-14  -3.89417746E-15  -5.65655213E-10  -3.90435177E-15   1.72805467E-15
   4.37500000E+01   5.00000000E-01   5.00000000E-01  -1.31180551E-07  -4.78414317E-08  -1.23825509E-15  -9.63882129E-16  -9.23434400E-16   1.43711272E-08  -8.77012242E-17   4.33786720E-18   2.60354219E-14   4.68302852E-17   4.17740870E-08  -3.65460133E-17  -3.79899331E-18  -3.73639127E-17  -3.69925196E-17  -2.00219948E-10  -1.66604424E-10  -1.16162968E-07  -9.74774096E-09   2.15921335E-07   0.00000000E+00  -7.95875880E-18  -5.78624568E-19  -7.77759559E-18  -6.35389803E-18  -3.42202026E-11  -4.53019725E-08  -4.63635985E-08   0.00000000E+00  -2.87421771E-08  -1.95160795E-16  -6.96212510E-16  -6.83735909E-16   2.03850313E-17  -3.09472939E-14   2.14052917E-14   1.80731272E-11  -2.38917880E-14  -3.45543154E-09  -3.85412888E-14  -3.89531253E-15  -5.65655699E-10  -3.90435177E-15   1.72805467E-15
   6.12500000E+01   5.00000000E-01   5.00000000E-01  -1.31180551E-07  -4.78023429E-08  -1.23825572E-15  -9.33066580E-16  -9.00853871E-16   1.43711271E-08  -8.77059054E-17   4.73985027E-18   2.94855740E-14   5.13185253E-17   5.18707291E-08  -3.65244397E-17  -3.77183011E-18  -3.72632074E-17  -3.67465429E-17  -2.00220177E-10  -1.63935708E-10  -1.16162968E-07   7.30735419E-09   2.05727789E-07   0.00000000E+00  -7.76990278E-18  -1.78803553E-19  -6.96055690E-18  -3.32860673E-18  -3.41677400E-11  -4.53142108E-08  -4.63635985E-08   0.00000000E+00  -2.87421770E-08  -1.95152262E-16  -6.96212510E-16  -6.83735909E-16   2.39038490E-17  -3.10470187E-14   2.32281780E-14   2.83699987E-12  -2.41726445E-14  -3.45543154E-09  -3.85412889E-14  -3.89633354E-15  -5.65648362E-10  -3.90435177E-15   1.72805467E-15
   7.87500000E+01   5.00000000E-01   5.00000000E-01  -1.31180551E-07  -4.77577704E-08  -1.23825600E-15  -9.17578107E-16  -8.89509877E-16   1.43711271E-08  -8.77106514E-17   4.91050135E-18   3.22814246E-14   5.45772921E-17   6.50894389E-08  -3.64862553E-17  -3.72665266E-18  -3.70852247E-17  -3.63257936E-17  -2.00216778E-10  -1.61427891E-10  -1.16162968E-07   2.47279158E-08   1.94836350E-07   0.00000000E+00  -7.49775812E-18   3.56672783E-19  -5.78398577E-18   8.64588390E-19  -3.40973559E-11  -4.53299517E-08  -4.63635985E-08   0.00000000E+00  -2.87421770E-08  -1.95141219E-16  -6.96212510E-16  -6.83735909E-16   2.61601881E-17  -3.11158007E-14   2.49169100E-14  -4.05925390E-12  -2.44304738E-14  -3.45543154E-09  -3.85412890E-14  -3.89724603E-15  -5.65638772E-10  -3.90435177E-15   1.72805467E-15
   9.62500000E+01   5.00000000E-01   5.00000000E-01  -1.31180551E-07  -4.77076927E-08  -1.23825609E-15  -9.09438647E-16  -8.83616827E-16   1.43711271E-08  -8.77156902E-17   4.87552511E-18   3.41808864E-14   5.66499349E-17   7.67656735E-08  -3.64348498E-17  -3.66988189E-18  -3.68459829E-17  -3.57802848E-17  -2.00211939E-10  -1.59094710E-10  -1.16162968E-07   3.95358531E-08   1.85505723E-07   0.00000000E+00  -7.19093663E-18   9.10803042E-19  -4.45828545E-18   5.38512020E-18  -3.40185335E-11  -4.53500851E-08  -4.63635985E-08   0.00000000E+00  -2.87421769E-08  -1.95129311E-16  -6.96212510E-16  -6.83735909E-16   2.74150675E-17  -3.11783693E-14   2.64638294E-14  -7.44601030E-12  -2.46674694E-14  -3.45543154E-09  -3.85412890E-14  -3.89805657E-15  -5.65627514E-10  -3.90435177E-15   1.72805467E-15
   1.13750000E+02   5.00000000E-01   5.00000000E-01  -1.31180551E-07  -4.76500396E-08  -1.23825606E-15  -9.04798949E-16  -8.80335695E-16   1.43711271E-08  -8.77210727E-17   4.79955041E-18   3.51661355E-14   5.84443245E-17   8.51765254E-08  -3.63791272E-17  -3.61319894E-18  -3.65870942E-17  -3.52146875E-17  -2.00204561E-10  -1.56847132E-10  -1.16162968E-07   5.02091535E-08   1.78781208E-07   0.00000000E+00  -6.90421551E-18   1.37474997E-18  -3.22025234E-18   9.37760748E-18  -3.39441658E-11  -4.53732979E-08  -4.63635985E-08   0.00000000E+00  -2.87421769E-08  -1.95118365E-16  -6.96212510E-16  -6.83735909E-16   2.79908801E-17  -3.12240064E-14   2.78624777E-14  -9.28902988E-12  -2.48855769E-14  -3.45543154E-09  -3.85412891E-14  -3.89877150E-15  -5.65614537E-10  -3.90435177E-15   1.72805467E-15
   1.31250000E+02   5.00000000E-01   5.00000000E-01  -1.31180551E-07  -4.75832380E-08  -1.23825595E-15  -9.01959009E-16  -8.78402956E-16   1.43711270E-08  -8.77268184E-17   4.76472964E-18   3.52851010E-14   6.04320377E-17   9.04802484E-08  -3.63268621E-17  -3.56520593E-18  -3.63447571E-17  -3.47122742E-17  -2.00194327E-10  -1.54621987E-10  -1.16162968E-07   5.68881378E-08   1.74566539E-07   0.00000000E+00  -6.66653374E-18   1.70564081E-18  -2.19488621E-18   1.24474239E-17  -3.38823144E-11  -4.53979435E-08  -4.63635985E-08   0.00000000E+00  -2.87421768E-08  -1.95109327E-16  -6.96212510E-16  -6.83735909E-16   2.81548627E-17  -3.12510943E-14   2.91077463E-14  -1.04254336E-11  -2.50865230E-14  -3.45543154E-09  -3.85412891E-14  -3.89939658E-15  -5.65600026E-10  -3.90435177E-15   1.72805467E-15
   1.48750000E+02   5.00000000E-01   5.00000000E-01  -1.31180551E-07  -4.75063958E-08  -1.23825578E-15  -9.00173332E-16  -8.77263423E-16   1.43711270E-08  -8.77329481E-17   4.79781646E-18   3.46743873E-14   6.27873000E-17   9.34585811E-08  -3.62816136E-17  -3.52872746E-18  -3.61354541E-17  -3.43055500E-17  -2.00181406E-10  -1.52387135E-10  -1.16162968E-07   6.04992662E-08   1.72269503E-07   0.00000000E+00  -6.48094156E-18   1.91370058E-18  -1.39526911E-18   1.46110168E-17  -3.38349249E-11  -4.54227597E-08  -4.63635985E-08   0.00000000E+00  -2.87421768E-08  -1.95102285E-16  -6.96212510E-16  -6.83735909E-16   2.80907828E-17  -3.12631986E-14   3.01959731E-14  -1.12260245E-11  -2.52718442E-14  -3.45543154E-09  -3.85412891E-14  -3.89993704E-15  -5.65584266E-10  -3.90435177E-15   1.72805467E-15
   1.66250000E+02   5.00000000E-01   5.00000000E-01  -1.31180551E-07  -4.74190454E-08  -1.23825558E-15  -8.99091432E-16  -8.76656686E-16   1.43711270E-08  -8.77394835E-17   4.90221136E-18   3.35115736E-14   6.55544757E-17   9.48999825E-08  -3.62436756E-17  -3.50282689E-18  -3.59604558E-17  -3.39913156E-17  -2.00166091E-10  -1.50128642E-10  -1.16162968E-07   6.20344278E-08   1.71264057E-07   0.00000000E+00  -6.33803707E-18   2.02907891E-18  -7.80664792E-19   1.60609989E-17  -3.38004188E-11  -4.54469212E-08  -4.63635985E-08   0.00000000E+00  -2.87421767E-08  -1.95096913E-16  -6.96212510E-16  -6.83735909E-16   2.79116667E-17  -3.12648747E-14   3.11249432E-14  -1.18609392E-11  -2.54429114E-14  -3.45543154E-09  -3.85412891E-14  -3.90039765E-15  -5.65567527E-10  -3.90435177E-15   1.72805467E-15
   1.83750000E+02   5.00000000E-01   5.00000000E-01  -1.31180550E-07  -4.73209808E-08  -1.23825534E-15  -8.98526255E-16  -8.76444401E-16   1.43711270E-08  -8.77464438E-17   5.07232104E-18   3.19651320E-14   6.87194267E-17   9.54046797E-08  -3.62118251E-17  -3.48519417E-18  -3.58139935E-17  -3.37516827E-17  -2.00148666E-10  -1.47842769E-10  -1.16162968E-07   6.22699972E-08   1.71062973E-07   0.00000000E+00  -6.22588163E-18   2.08174028E-18  -2.99384493E-19   1.70093606E-17  -3.37760398E-11  -4.54698956E-08  -4.63635985E-08   0.00000000E+00  -2.87421767E-08  -1.95092788E-16  -6.96212510E-16  -6.83735909E-16   2.76817041E-17  -3.12602900E-14   3.18938372E-14  -1.24107493E-11  -2.56009494E-14  -3.45543154E-09  -3.85412891E-14  -3.90078277E-15  -5.65550029E-10  -3.90435177E-15   1.72805467E-15
   2.01250000E+02   5.00000000E-01   5.00000000E-01  -1.31180550E-07  -4.72121686E-08  -1.23825509E-15  -8.98364375E-16  -8.76543092E-16   1.43711269E-08  -8.77538451E-17   5.29964956E-18   3.01749788E-14   7.22421577E-17   9.53736576E-08  -3.61844786E-17  -3.47348714E-18  -3.56886523E-17  -3.35667775E-17  -2.00129378E-10  -1.45531423E-10  -1.16162967E-07   6.17352227E-08   1.71335462E-07   0.00000000E+00  -6.13426097E-18   2.09465897E-18   9.27874958E-20   1.76270535E-17  -3.37590880E-11  -4.54913332E-08  -4.63635985E-08   0.00000000E+00  -2.87421766E-08  -1.95089539E-16  -6.96212510E-16  -6.83735909E-16   2.74348637E-17  -3.12528843E-14   3.25031502E-14  -1.29146848E-11  -2.57470547E-14  -3.45543154E-09  -3.85412891E-14  -3.90109636E-15  -5.65531938E-10  -3.90435177E-15   1.72805467E-15
   2.18750000E+02   5.00000000E-01   5.00000000E-01  -1.31180550E-07  -4.70926928E-08  -1.23825482E-15  -8.98530518E-16  -8.76897635E-16   1.43711269E-08  -8.77617016E-17   5.57543906E-18   2.82511731E-14   7.60742790E-17   9.50550856E-08  -3.61602145E-17  -3.46582105E-18  -3.55777941E-17  -3.34198816E-17  -2.00108425E-10  -1.43199405E-10  -1.16162967E-07   6.07646086E-08   1.71873322E-07   0.00000000E+00  -6.05567366E-18   2.08347987E-18   4.28319366E-19   1.80347762E-17  -3.37473685E-11  -4.55110126E-08  -4.63635985E-08   0.00000000E+00  -2.87421766E-08  -1.95086882E-16  -6.96212510E-16  -6.83735909E-16   2.71876802E-17  -3.12453490E-14   3.29545947E-14  -1.33922914E-11  -2.58822104E-14  -3.45543154E-09  -3.85412891E-14  -3.90134202E-15  -5.65513378E-10  -3.90435177E-15   1.72805467E-15
   2.36250000E+02   5.00000000E-01   5.00000000E-01  -1.31180549E-07  -4.69627142E-08  -1.23825453E-15  -8.98971847E-16  -8.77469553E-16   1.43711269E-08  -8.77700270E-17   5.89177655E-18   2.62779933E-14   8.01686669E-17   9.45945573E-08  -3.61379273E-17  -3.46083402E-18  -3.54762658E-17  -3.32985449E-17  -2.00085963E-10  -1.40852691E-10  -1.16162967E-07   5.95596331E-08   1.72551788E-07   0.00000000E+00  -5.98503575E-18   2.05817468E-18   7.29211185E-19   1.83118116E-17  -3.37392527E-11  -4.55288146E-08  -4.63635985E-08   0.00000000E+00  -2.87421765E-08  -1.95084616E-16  -6.96212510E-16  -6.83735909E-16   2.69471722E-17  -3.12397023E-14   3.32509896E-14  -1.38534692E-11  -2.60072989E-14  -3.45543154E-09  -3.85412891E-14  -3.90152306E-15  -5.65494433E-10  -3.90435177E-15   1.72805467E-15
   2.53750000E+02   5.00000000E-01   5.00000000E-01  -1.31180549E-07  -4.68224384E-08  -1.23825423E-15  -8.99649645E-16  -8.78230825E-16   1.43711269E-08  -8.77788356E-17   6.24200586E-18   2.43184067E-14   8.44846232E-17   9.40734011E-08  -3.61168222E-17  -3.45760175E-18  -3.53803704E-17  -3.31941211E-17  -2.00062108E-10  -1.38497371E-10  -1.16162967E-07   5.82371605E-08   1.73299010E-07   0.00000000E+00  -5.91908012E-18   2.02482519E-18   1.00959582E-18   1.85078206E-17  -3.37335973E-11  -4.55447069E-08  -4.63635985E-08   0.00000000E+00  -2.87421765E-08  -1.95082608E-16  -6.96212510E-16  -6.83735909E-16   2.67154579E-17  -3.12373909E-14   3.33961426E-14  -1.43032654E-11  -2.61231139E-14  -3.45543154E-09  -3.85412890E-14  -3.90164247E-15  -5.65475161E-10  -3.90435177E-15   1.72805467E-15
   2.71250000E+02   5.00000000E-01   5.00000000E-01  -1.31180548E-07  -4.66720878E-08  -1.23825392E-15  -9.00534652E-16  -8.79160430E-16   1.43711268E-08  -8.77881436E-17   6.62082203E-18   2.24178570E-14   8.89903175E-17   9.35343059E-08  -3.60963607E-17  -3.45552463E-18  -3.52876067E-17  -3.31009081E-17  -2.00036942E-10  -1.36139011E-10  -1.16162967E-07   5.68623965E-08   1.74075339E-07   0.00000000E+00  -5.85580633E-18   1.98700406E-18   1.27812171E-18   1.86526641E-17  -3.37296311E-11  -4.55587300E-08  -4.63635985E-08   0.00000000E+00  -2.87421764E-08  -1.95080769E-16  -6.96212510E-16  -6.83735909E-16   2.64923322E-17  -3.12393904E-14   3.33947284E-14  -1.47442279E-11  -2.62303701E-14  -3.45543154E-09  -3.85412890E-14  -3.90170298E-15  -5.65455599E-10  -3.90435177E-15   1.72805467E-15
   2.88750000E+02   5.00000000E-01   5.00000000E-01  -1.31180548E-07  -4.65118787E-08  -1.23825360E-15  -9.01604753E-16  -8.80242655E-16   1.43711268E-08  -8.77979704E-17   7.02422131E-18   2.06074516E-14   9.36635615E-17   9.29973970E-08  -3.60761997E-17  -3.45423016E-18  -3.51963857E-17  -3.30153391E-17  -2.00010515E-10  -1.33782301E-10  -1.16162967E-07   5.54698798E-08   1.74860184E-07   0.00000000E+00  -5.79406504E-18   1.94672199E-18   1.53975281E-18   1.87634497E-17  -3.37268543E-11  -4.55709818E-08  -4.63635985E-08   0.00000000E+00  -2.87421764E-08  -1.95079045E-16  -6.96212510E-16  -6.83735909E-16   2.62766517E-17  -3.12462967E-14   3.32521659E-14  -1.51775910E-11  -2.63297123E-14  -3.45543154E-09  -3.85412890E-14  -3.90170706E-15  -5.65435765E-10  -3.90435177E-15   1.72805467E-15
   3.06250000E+02   5.00000000E-01   5.00000000E-01  -1.31180547E-07  -4.63420030E-08  -1.23825326E-15  -9.02844214E-16  -8.81466604E-16   1.43711268E-08  -8.78083389E-17   7.44938481E-18   1.89067507E-14   9.84915435E-17   9.24699959E-08  -3.60561410E-17  -3.45349929E-18  -3.51057907E-17  -3.29353429E-17  -1.99982856E-10  -1.31430891E-10  -1.16162967E-07   5.40764070E-08   1.75643940E-07   0.00000000E+00  -5.73326721E-18   1.90504269E-18   1.79702844E-18   1.88492738E-17  -3.37249576E-11  -4.55816022E-08  -4.63635985E-08   0.00000000E+00  -2.87421763E-08  -1.95077406E-16  -6.96212510E-16  -6.83735909E-16   2.60670424E-17  -3.12584075E-14   3.29744963E-14  -1.56038875E-11  -2.64217226E-14  -3.45543154E-09  -3.85412890E-14  -3.90165695E-15  -5.65415663E-10  -3.90435177E-15   1.72805467E-15
   3.23750000E+02   5.00000000E-01   5.00000000E-01  -1.31180546E-07  -4.61626152E-08  -1.23825291E-15  -9.04243757E-16  -8.82826367E-16   1.43711268E-08  -8.78192760E-17   7.89452732E-18   1.73262550E-14   1.03469883E-16   9.19524656E-08  -3.60360907E-17  -3.45321347E-18  -3.50153904E-17  -3.28598667E-17  -1.99953969E-10  -1.29087375E-10  -1.16162967E-07   5.26888644E-08   1.76423103E-07   0.00000000E+00  -5.67318561E-18   1.86247291E-18   2.05092293E-18   1.89143346E-17  -3.37237620E-11  -4.55907583E-08  -4.63635985E-08   0.00000000E+00  -2.87421762E-08  -1.95075835E-16  -6.96212510E-16  -6.83735909E-16   2.58622324E-17  -3.12757924E-14   3.25682659E-14  -1.60232725E-11  -2.65069280E-14  -3.45543154E-09  -3.85412890E-14  -3.90155470E-15  -5.65395289E-10  -3.90435177E-15   1.72805467E-15
   3.41250000E+02   5.00000000E-01   5.00000000E-01  -1.31180546E-07  -4.59738256E-08  -1.23825255E-15  -9.05800783E-16  -8.84321295E-16   1.43711267E-08  -8.78308132E-17   8.35872312E-18   1.58696085E-14   1.08601232E-16   9.14417133E-08  -3.60160282E-17  -3.45331729E-18  -3.49250927E-17  -3.27885248E-17  -1.99923843E-10  -1.26753389E-10  -1.16162967E-07   5.13089466E-08   1.77197335E-07   0.00000000E+00  -5.61381845E-18   1.81920846E-18   2.30143629E-18   1.89599761E-17  -3.37231742E-11  -4.55986295E-08  -4.63635985E-08   0.00000000E+00  -2.87421762E-08  -1.95074327E-16  -6.96212510E-16  -6.83735909E-16   2.56611813E-17  -3.12983544E-14   3.20404139E-14  -1.64356973E-11  -2.65858055E-14  -3.45543154E-09  -3.85412889E-14  -3.90140215E-15  -5.65374627E-10  -3.90435177E-15   1.72805467E-15
   3.58750000E+02   5.00000000E-01   5.00000000E-01  -1.31180545E-07  -4.57757024E-08  -1.23825218E-15  -9.07519231E-16  -8.85956001E-16   1.43711267E-08  -8.78429861E-17   8.84171500E-18   1.45355028E-14   1.13893604E-16   9.09332993E-08  -3.59959811E-17  -3.45379176E-18  -3.48350272E-17  -3.27213339E-17  -1.99892452E-10  -1.24429789E-10  -1.16162967E-07   4.99359952E-08   1.77967699E-07   0.00000000E+00  -5.55529303E-18   1.77528994E-18   2.54801148E-18   1.89860450E-17  -3.37231530E-11  -4.56053952E-08  -4.63635985E-08   0.00000000E+00  -2.87421761E-08  -1.95072881E-16  -6.96212510E-16  -6.83735909E-16   2.54631022E-17  -3.13258833E-14   3.13981684E-14  -1.68410048E-11  -2.66587879E-14  -3.45543154E-09  -3.85412889E-14  -3.90120093E-15  -5.65353661E-10  -3.90435177E-15   1.72805467E-15
   3.76250000E+02   5.00000000E-01   5.00000000E-01  -1.31180544E-07  -4.55682797E-08  -1.23825179E-15  -9.09408990E-16  -8.87739970E-16   1.43711266E-08  -8.78558338E-17   9.34371846E-18   1.33192685E-14   1.19358640E-16   9.04226727E-08  -3.59760046E-17  -3.45463530E-18  -3.47454497E-17  -3.26585141E-17  -1.99859760E-10  -1.22116888E-10  -1.16162967E-07   4.85686787E-08   1.78735611E-07   0.00000000E+00  -5.49779620E-18   1.73070039E-18   2.78983513E-18   1.89917960E-17  -3.37236841E-11  -4.56112250E-08  -4.63635985E-08   0.00000000E+00  -2.87421760E-08  -1.95071500E-16  -6.96212510E-16  -6.83735909E-16   2.52674334E-17  -3.13580999E-14   3.06489496E-14  -1.72389826E-11  -2.67262679E-14  -3.45543154E-09  -3.85412889E-14  -3.90095256E-15  -5.65332366E-10  -3.90435177E-15   1.72805467E-15
   3.93750000E+02   5.00000000E-01   5.00000000E-01  -1.31180543E-07  -4.53515712E-08  -1.23825138E-15  -9.11484996E-16  -8.89686918E-16   1.43711266E-08  -8.78693991E-17   9.86524340E-18   1.22141487E-14   1.25010066E-16   8.99057868E-08  -3.59561648E-17  -3.45585106E-18  -3.46566665E-17  -3.26003460E-17  -1.99825725E-10  -1.19814700E-10  -1.16162966E-07   4.72059128E-08   1.79502281E-07   0.00000000E+00  -5.44152603E-18   1.68542252E-18   3.02604665E-18   1.89764637E-17  -3.37247630E-11  -4.56162718E-08  -4.63635985E-08   0.00000000E+00  -2.87421759E-08  -1.95070188E-16  -6.96212510E-16  -6.83735909E-16   2.50737906E-17  -3.13946909E-14   2.98002824E-14  -1.76293927E-11  -2.67886030E-14  -3.45543154E-09  -3.85412889E-14  -3.90065835E-15  -5.65310718E-10  -3.90435177E-15   1.72805467E-15
   4.11250000E+02   5.00000000E-01   5.00000000E-01  -1.31180541E-07  -4.51255837E-08  -1.23825097E-15  -9.13766295E-16  -8.91814090E-16   1.43711265E-08  -8.78837280E-17   1.04069615E-17   1.12122634E-14   1.30862599E-16   8.93792315E-08  -3.59365281E-17  -3.45743978E-18  -3.45689843E-17  -3.25470830E-17  -1.99790302E-10  -1.17523133E-10  -1.16162966E-07   4.58472480E-08   1.80268497E-07   0.00000000E+00  -5.38666306E-18   1.63946563E-18   3.25586230E-18   1.89395615E-17  -3.37263849E-11  -4.56206698E-08  -4.63635985E-08   0.00000000E+00  -2.87421758E-08  -1.95068948E-16  -6.96212510E-16  -6.83735909E-16   2.48819206E-17  -3.14353316E-14   2.88597188E-14  -1.80119885E-11  -2.68461180E-14  -3.45543154E-09  -3.85412888E-14  -3.90031948E-15  -5.65288693E-10  -3.90435177E-15   1.72805467E-15
   4.28750000E+02   5.00000000E-01   5.00000000E-01  -1.31180540E-07  -4.48903255E-08  -1.23825054E-15  -9.16275232E-16  -8.94141651E-16   1.43711265E-08  -8.78988693E-17   1.09696392E-17   1.03052921E-14   1.36931434E-16   8.88400267E-08  -3.59171566E-17  -3.45939737E-18  -3.44826878E-17  -3.24989188E-17  -1.99753443E-10  -1.15242092E-10  -1.16162966E-07   4.44928889E-08   1.81034647E-07   0.00000000E+00  -5.33335989E-18   1.59287018E-18   3.47862027E-18   1.88809597E-17  -3.37285406E-11  -4.56245345E-08  -4.63635985E-08  -7.35487647E-33  -2.87421757E-08  -1.95067784E-16  -6.96212510E-16  -6.83735909E-16   2.46916667E-17  -3.14796983E-14   2.78347689E-14  -1.83865242E-11  -2.68991092E-14  -3.45543154E-09  -3.85412888E-14  -3.89993701E-15  -5.65266266E-10  -3.90435177E-15   1.72805467E-15
   4.46250000E+02   5.00000000E-01   5.00000000E-01  -1.31180539E-07  -4.46458070E-08  -1.23825009E-15  -9.19036872E-16  -8.96692255E-16   1.43711264E-08  -8.79148750E-17   1.15541333E-17   9.48491737E-15   1.43232202E-16   8.82852756E-08  -3.58981077E-17  -3.46171597E-18  -3.43980413E-17  -3.24559949E-17  -1.99715097E-10  -1.12971477E-10  -1.16162966E-07   4.31435090E-08   1.81800873E-07   0.00000000E+00  -5.28174453E-18   1.54569914E-18   3.69376623E-18   1.88008163E-17  -3.37312174E-11  -4.56279669E-08  -4.63635985E-08   0.00000000E+00  -2.87421756E-08  -1.95066695E-16  -6.96212510E-16  -6.83735909E-16   2.45029474E-17  -3.15274711E-14   2.67328413E-14  -1.87527601E-11  -2.69478466E-14  -3.45543154E-09  -3.85412888E-14  -3.89951186E-15  -5.65243414E-10  -3.90435177E-15   1.72805467E-15
   4.63750000E+02   5.00000000E-01   5.00000000E-01  -1.31180537E-07  -4.43920366E-08  -1.23824962E-15  -9.22078661E-16  -8.99490790E-16   1.43711264E-08  -8.79318003E-17   1.21614250E-17   8.74309114E-15   1.49781160E-16   8.77118872E-08  -3.58794381E-17  -3.46438606E-18  -3.43153025E-17  -3.24184262E-17  -1.99675212E-10  -1.10711130E-10  -1.16162966E-07   4.18000207E-08   1.82567229E-07   0.00000000E+00  -5.23192989E-18   1.49802574E-18   3.90081258E-18   1.86994569E-17  -3.37344021E-11  -4.56310558E-08  -4.63635985E-08  -5.03478668E-19  -2.87421755E-08  -1.95065686E-16  -6.96212510E-16  -6.83735909E-16   2.43157448E-17  -3.15783338E-14   2.55611928E-14  -1.91104660E-11  -2.69925765E-14  -3.45543154E-09  -3.85412887E-14  -3.89904482E-15  -5.65220110E-10  -3.90435177E-15   1.72805467E-15
   4.81250000E+02   5.00000000E-01   5.00000000E-01  -1.31180535E-07  -4.41290144E-08  -1.23824914E-15  -9.25430348E-16  -9.02564347E-16   1.43711263E-08  -8.79497041E-17   1.27926517E-17   8.07218242E-15   1.56595254E-16   8.71165080E-08  -3.58612053E-17  -3.46739810E-18  -3.42347342E-17  -3.23863207E-17  -1.99633728E-10  -1.08460779E-10  -1.16162966E-07   4.04634219E-08   1.83333769E-07   0.00000000E+00  -5.18402112E-18   1.44992526E-18   4.09930680E-18   1.85772879E-17  -3.37380827E-11  -4.56338799E-08  -4.63635985E-08  -3.03385069E-18  -2.87421754E-08  -1.95064755E-16  -6.96212510E-16  -6.83735909E-16   2.41300971E-17  -3.16319735E-14   2.43268856E-14  -1.94594226E-11  -2.70335239E-14  -3.45543154E-09  -3.85412887E-14  -3.89853657E-15  -5.65196330E-10  -3.90435177E-15   1.72805466E-15
   4.98750000E+02   5.00000000E-01   5.00000000E-01  -1.31180533E-07  -4.38567318E-08  -1.23824864E-15  -9.29124184E-16  -9.05942406E-16   1.43711262E-08  -8.79686493E-17   1.34491058E-17   7.46505955E-15   1.63691869E-16   8.64956774E-08  -3.58434682E-17  -3.47074237E-18  -3.41566027E-17  -3.23597778E-17  -1.99590584E-10  -1.06220041E-10  -1.16162965E-07   3.91347667E-08   1.84100538E-07   0.00000000E+00  -5.13811538E-18   1.40147419E-18   4.28883276E-18   1.84347900E-17  -3.37422479E-11  -4.56365066E-08  -4.63635985E-08  -6.64282515E-18  -2.87421752E-08  -1.95063906E-16  -6.96212510E-16  -6.83735909E-16   2.39460896E-17  -3.16880840E-14   2.30367537E-14  -1.97994221E-11  -2.70708944E-14  -3.45543154E-09  -3.85412887E-14  -3.89798770E-15  -5.65172049E-10  -3.90435177E-15   1.72805465E-15
   5.16250000E+02   5.00000000E-01   5.00000000E-01  -1.31180531E-07  -4.35751795E-08  -1.23824813E-15  -9.33195422E-16  -9.09657288E-16   1.43711262E-08  -8.79887032E-17   1.41321889E-17   6.91513938E-15   1.71088245E-16   8.58461153E-08  -3.58262827E-17  -3.47440728E-18  -3.40811599E-17  -3.23388633E-17  -1.99545714E-10  -1.03988493E-10  -1.16162965E-07   3.78152415E-08   1.84867482E-07   0.00000000E+00  -5.09429316E-18   1.35275579E-18   4.46904783E-18   1.82725870E-17  -3.37468849E-11  -4.56389897E-08  -4.63635985E-08  -1.17281716E-17  -2.87421751E-08  -1.95063140E-16  -6.96212510E-16  -6.83735909E-16   2.37638408E-17  -3.17463715E-14   2.16973758E-14  -2.01302685E-11  -2.71048759E-14  -3.45543154E-09  -3.85412886E-14  -3.89739868E-15  -5.65147238E-10  -3.90435177E-15   1.72805464E-15
   5.33750000E+02   5.00000000E-01   5.00000000E-01  -1.31180529E-07  -4.32843638E-08  -1.23824760E-15  -9.37683103E-16  -9.13744841E-16   1.43711261E-08  -8.80099383E-17   1.48433327E-17   6.41641885E-15   1.78800786E-16   8.51649876E-08  -3.58096955E-17  -3.47837695E-18  -3.40086160E-17  -3.23235733E-17  -1.99499048E-10  -1.01765810E-10  -1.16162965E-07   3.65062720E-08   1.85634358E-07   0.00000000E+00  -5.05260521E-18   1.30386739E-18   4.63973894E-18   1.80915449E-17  -3.37519754E-11  -4.56413669E-08  -4.63635985E-08  -1.88290398E-17  -2.87421749E-08  -1.95062456E-16  -6.96212510E-16  -6.83735909E-16   2.35834875E-17  -3.18065624E-14   2.03150555E-14  -2.04517769E-11  -2.71356403E-14  -3.45543154E-09  -3.85412886E-14  -3.89676990E-15  -5.65121874E-10  -3.90435177E-15   1.72805462E-15
   5.51250000E+02   5.00000000E-01   5.00000000E-01  -1.31180526E-07  -4.29843248E-08  -1.23824705E-15  -9.42631072E-16  -9.18245344E-16   1.43711260E-08  -8.80324325E-17   1.55839204E-17   5.96349080E-15   1.86844554E-16   8.44500126E-08  -3.57937391E-17  -3.48262962E-18  -3.39391137E-17  -3.23138060E-17  -1.99450519E-10  -9.95518964E-11  -1.16162964E-07   3.52095813E-08   1.86400679E-07   0.00000000E+00  -5.01306168E-18   1.25492467E-18   4.80086903E-18   1.78928399E-17  -3.37574933E-11  -4.56436586E-08  -4.63635985E-08  -2.86746097E-17  -2.87421748E-08  -1.95061854E-16  -6.96212510E-16  -6.83735909E-16   2.34051697E-17  -3.18684079E-14   1.88958076E-14  -2.07637731E-11  -2.71633447E-14  -3.45543154E-09  -3.85412885E-14  -3.89610166E-15  -5.65095931E-10  -3.90435177E-15   1.72805459E-15
   5.68750000E+02   5.00000000E-01   5.00000000E-01  -1.31180523E-07  -4.26751513E-08  -1.23824648E-15  -9.48089151E-16  -9.23204549E-16   1.43711259E-08  -8.80562699E-17   1.63552464E-17   5.55153935E-15   1.95233254E-16   8.36993444E-08  -3.57784291E-17  -3.48713779E-18  -3.38727186E-17  -3.23093569E-17  -1.99400058E-10  -9.73469608E-11  -1.16162964E-07   3.39271415E-08   1.87165764E-07   0.00000000E+00  -4.97562980E-18   1.20605903E-18   4.95258650E-18   1.76779441E-17  -3.37634044E-11  -4.56458698E-08  -4.63635985E-08  -4.22481412E-17  -2.87421746E-08  -1.95061330E-16  -6.96212510E-16  -6.83735909E-16   2.32290209E-17  -3.19316854E-14   1.74453490E-14  -2.10660933E-11  -2.71881329E-14  -3.45543154E-09  -3.85412885E-14  -3.89539416E-15  -5.65069387E-10  -3.90435177E-15   1.72805454E-15
   5.86250000E+02   5.00000000E-01   5.00000000E-01  -1.31180520E-07  -4.23569817E-08  -1.23824589E-15  -9.54114372E-16  -9.28674797E-16   1.43711258E-08  -8.80815413E-17   1.71585383E-17   5.17631146E-15   2.03979776E-16   8.29112761E-08  -3.57637672E-17  -3.49187038E-18  -3.38094322E-17  -3.23099451E-17  -1.99347600E-10  -9.51514855E-11  -1.16162964E-07   3.26610131E-08   1.87928865E-07   0.00000000E+00  -4.94024314E-18   1.15740798E-18   5.09518523E-18   1.74485168E-17  -3.37696695E-11  -4.56479943E-08  -4.63635985E-08  -6.08700737E-17  -2.87421744E-08  -1.95060882E-16  -6.96212510E-16  -6.83735909E-16   2.30551650E-17  -3.19961946E-14   1.59690948E-14  -2.13585839E-11  -2.72101365E-14  -3.45543154E-09  -3.85412884E-14  -3.89464752E-15  -5.65042221E-10  -3.90435177E-15   1.72805447E-15
   6.03750000E+02   5.00000000E-01   5.00000000E-01  -1.31180516E-07  -4.20299931E-08  -1.23824528E-15  -9.60772230E-16  -9.34716159E-16   1.43711257E-08  -8.81083452E-17   1.79950438E-17   4.83406663E-15   2.13097183E-16   8.20838939E-08  -3.57497481E-17  -3.49679632E-18  -3.37492247E-17  -3.23152643E-17  -1.99293077E-10  -9.29660982E-11  -1.16162963E-07   3.14131173E-08   1.88689337E-07   0.00000000E+00  -4.90682054E-18   1.10910132E-18   5.22902311E-18   1.72062292E-17  -3.37762486E-11  -4.56500205E-08  -4.63635985E-08  -8.63035231E-17  -2.87421742E-08  -1.95060505E-16  -6.96212510E-16  -6.83735909E-16   2.28837206E-17  -3.20617500E-14   1.44721574E-14  -2.16411019E-11  -2.72294757E-14  -3.45543154E-09  -3.85412884E-14  -3.89386181E-15  -5.65014415E-10  -3.90435177E-15   1.72805435E-15
   6.21250000E+02   5.00000000E-01   5.00000000E-01  -1.31180512E-07  -4.16943770E-08  -1.23824466E-15  -9.68137995E-16  -9.41397650E-16   1.43711256E-08  -8.81367883E-17   1.88661561E-17   4.52151224E-15   2.22599789E-16   8.12148351E-08  -3.57363694E-17  -3.50188839E-18  -3.36920785E-17  -3.23250401E-17  -1.99236415E-10  -9.07913813E-11  -1.16162963E-07   3.01850163E-08   1.89446788E-07   0.00000000E+00  -4.87528901E-18   1.06124769E-18   5.35442416E-18   1.69525781E-17  -3.37831068E-11  -4.56519370E-08  -4.63635985E-08  -1.20883781E-16  -2.87421740E-08  -1.95060196E-16  -6.96212510E-16  -6.83735909E-16   2.27148073E-17  -3.21281737E-14   1.29593494E-14  -2.19135149E-11  -2.72462605E-14  -3.45543154E-09  -3.85412883E-14  -3.89303698E-15  -5.64985947E-10  -3.90435177E-15   1.72805418E-15