 TITLE = "Mineral Rate (mol/m^3/sec)" 
VARIABLES = "X"          "Y"              "Z"            "Forsterite"     "Fayalite"       "Brucite"        "Lizardite"      "Chrysotile"     "Hematite"       "Magnetite(am)"  "Saponite(Ca)"   "Saponite(K)"    "Saponite(Mg)"   "Saponite(Na)"   "Beidellite(Ca)" "Beidellite(K)"  "Beidellite(Mg)" "Beidellite(Na)" "Enstatite(alph" "Ferrosilite(al" "Anorthite"      "Albite(low)"    "Clinochlore"    "Sudoite"        "Montmor(MgCa)"  "Montmor(MgK)"   "Montmor(MgMg)"  "Montmor(MgNa)"  "Kaolinite"      "Tremolite"      "Pargasite"      "Anhydrite"      "Epidote"        "Scolecite"      "Pyrite"         "FeS(am)"        "Quartz(alpha)" 
 ZONE I=         200 , J=           1 , K=           1  F=POINT
   8.75000000E+00   5.00000000E-01   5.00000000E-01  -1.31108714E-07  -4.78777377E-08   0.00000000E+00   0.00000000E+00   0.00000000E+00   1.42695039E-08   0.00000000E+00   1.14056636E-18   2.87759836E-08   9.21147277E-17   2.75043531E-09  -3.65362566E-17  -3.81081092E-18  -3.73867560E-17  -3.70791689E-17  -2.00020446E-10  -1.71248574E-10  -1.15922901E-07  -2.86752521E-08   2.23052010E-07  -4.13214926E-15  -8.06699190E-18  -8.24553783E-18  -8.24918790E-18  -8.17451755E-18  -3.42564151E-11  -4.51729036E-08  -4.62576988E-08   0.00000000E+00  -2.85390076E-08  -1.94119653E-16  -6.94779942E-16  -6.82729103E-16   9.70563201E-18
   2.62500000E+01   5.00000000E-01   5.00000000E-01  -1.31108722E-07  -4.78777479E-08   0.00000000E+00   0.00000000E+00   0.00000000E+00   1.42695038E-08   0.00000000E+00   1.86079091E-19   4.58756885E-08   3.28797110E-17   4.71792760E-09  -3.65330296E-17  -3.80628301E-18  -3.73716487E-17  -3.70400835E-17  -2.00256459E-10  -1.70192133E-10  -1.15922901E-07  -1.98444694E-08   2.15456984E-07  -3.28268083E-15  -8.02862387E-18  -7.33046773E-18  -8.08290332E-18  -7.51665582E-18  -3.42348322E-11  -4.51957704E-08  -4.62576988E-08   0.00000000E+00  -2.85390076E-08  -1.94116157E-16  -6.94779942E-16  -6.82726347E-16   1.47827906E-17
   4.37500000E+01   5.00000000E-01   5.00000000E-01  -1.31108723E-07  -4.78572612E-08   0.00000000E+00   0.00000000E+00   0.00000000E+00   1.42695038E-08   0.00000000E+00   1.29576598E-19   4.66302562E-08   2.97582602E-17   5.55935211E-09  -3.65085518E-17  -3.77362579E-18  -3.72572055E-17  -3.67518999E-17  -2.00285894E-10  -1.68217432E-10  -1.15922901E-07  -1.83791014E-09   2.06190277E-07  -2.20095128E-15  -7.85542014E-18  -3.43379793E-18  -7.33283101E-18  -4.64036267E-18  -3.41481239E-11  -4.52062563E-08  -4.62576988E-08   0.00000000E+00  -2.85390075E-08  -1.94104281E-16  -6.94779942E-16  -6.82723351E-16   1.89103171E-17
   6.12500000E+01   5.00000000E-01   5.00000000E-01  -1.31108723E-07  -4.78257944E-08   0.00000000E+00   0.00000000E+00   0.00000000E+00   1.42695037E-08   0.00000000E+00   1.46578449E-19   5.57524520E-08   3.18034199E-17   7.79096031E-09  -3.64548655E-17  -3.70632806E-18  -3.70065709E-17  -3.61412455E-17  -2.00284727E-10  -1.65976025E-10  -1.15922901E-07   1.80791424E-08   1.94358247E-07  -1.25207681E-15  -7.55770528E-18   2.80878906E-18  -6.04431616E-18   1.18972481E-19  -3.40232746E-11  -4.52146128E-08  -4.62576988E-08   0.00000000E+00  -2.85390075E-08  -1.94087847E-16  -6.94779942E-16  -6.82720474E-16   2.17099325E-17
   7.87500000E+01   5.00000000E-01   5.00000000E-01  -1.31108723E-07  -4.77879339E-08   0.00000000E+00   0.00000000E+00   0.00000000E+00   1.42695037E-08   0.00000000E+00   1.54385055E-19   6.55485773E-08   3.35124896E-17   1.08085829E-08  -3.63782164E-17  -3.61676447E-18  -3.66492718E-17  -3.53019978E-17  -2.00279553E-10  -1.63815345E-10  -1.15922901E-07   3.54853165E-08   1.83540751E-07  -7.14728070E-16  -7.20276306E-18   9.67193299E-18  -4.50870785E-18   5.55357431E-18  -3.38842143E-11  -4.52286554E-08  -4.62576988E-08   0.00000000E+00  -2.85390074E-08  -1.94070055E-16  -6.94779942E-16  -6.82718038E-16   2.33245812E-17
   9.62500000E+01   5.00000000E-01   5.00000000E-01  -1.31108723E-07  -4.77429322E-08   0.00000000E+00   0.00000000E+00   0.00000000E+00   1.42695037E-08   0.00000000E+00   1.57023856E-19   7.18276236E-08   3.50603961E-17   1.40554479E-08  -3.62950592E-17  -3.52746120E-18  -3.62622818E-17  -3.44317400E-17  -2.00271881E-10  -1.61718404E-10  -1.15922901E-07   4.80333863E-08   1.75694813E-07  -4.72941622E-16  -6.86973699E-18   1.54728688E-17  -3.06845217E-18   1.03819753E-17  -3.37568302E-11  -4.52462829E-08  -4.62576988E-08   0.00000000E+00  -2.85390073E-08  -1.94054055E-16  -6.94779942E-16  -6.82715929E-16   2.41243896E-17
   1.13750000E+02   5.00000000E-01   5.00000000E-01  -1.31108723E-07  -4.76888506E-08   0.00000000E+00   0.00000000E+00   0.00000000E+00   1.42695036E-08   0.00000000E+00   1.62901052E-19   7.43030697E-08   3.69647610E-17   1.72893056E-08  -3.62216386E-17  -3.45704192E-18  -3.59213161E-17  -3.37076237E-17  -2.00261095E-10  -1.59609847E-10  -1.15922901E-07   5.56019925E-08   1.70968378E-07  -3.66239855E-16  -6.60580677E-18   1.94172253E-17  -1.92776199E-18   1.39234529E-17  -3.36600803E-11  -4.52653308E-08  -4.62576988E-08   0.00000000E+00  -2.85390073E-08  -1.94041765E-16  -6.94779942E-16  -6.82714073E-16   2.44488265E-17
   1.31250000E+02   5.00000000E-01   5.00000000E-01  -1.31108723E-07  -4.76242348E-08   0.00000000E+00   0.00000000E+00   0.00000000E+00   1.42695036E-08   0.00000000E+00   1.75026457E-19   7.39945022E-08   3.94578832E-17   2.04727908E-08  -3.61646806E-17  -3.41073699E-18  -3.56575433E-17  -3.31906863E-17  -2.00247227E-10  -1.57446068E-10  -1.15922901E-07   5.93803133E-08   1.68604793E-07  -3.16844283E-16  -6.41544582E-18   2.16335913E-17  -1.10607622E-18   1.61944426E-17  -3.35973111E-11  -4.52845097E-08  -4.62576988E-08   0.00000000E+00  -2.85390072E-08  -1.94033272E-16  -6.94779942E-16  -6.82712463E-16   2.45280503E-17
   1.48750000E+02   5.00000000E-01   5.00000000E-01  -1.31108723E-07  -4.75480892E-08   0.00000000E+00   0.00000000E+00   0.00000000E+00   1.42695036E-08   0.00000000E+00   1.93866946E-19   7.19226945E-08   4.26424476E-17   2.36433642E-08  -3.61234778E-17  -3.38508337E-18  -3.54674738E-17  -3.28600088E-17  -2.00230567E-10  -1.55208135E-10  -1.15922901E-07   6.07048584E-08   1.67761190E-07  -2.92948057E-16  -6.28281029E-18   2.26018168E-17  -5.34825839E-19   1.75086139E-17  -3.35628411E-11  -4.53031555E-08  -4.62576988E-08   0.00000000E+00  -2.85390072E-08  -1.94027790E-16  -6.94779942E-16  -6.82711111E-16   2.44962131E-17
   1.66250000E+02   5.00000000E-01   5.00000000E-01  -1.31108722E-07  -4.74599228E-08   0.00000000E+00   0.00000000E+00   0.00000000E+00   1.42695036E-08   0.00000000E+00   2.18629193E-19   6.88608517E-08   4.65258323E-17   2.68432329E-08  -3.60939460E-17  -3.37366037E-18  -3.53319421E-17  -3.26624298E-17  -2.00211530E-10  -1.52897047E-10  -1.15922901E-07   6.06204718E-08   1.67780594E-07  -2.81054527E-16  -6.18809633E-18   2.28034918E-17  -1.28209556E-19   1.82111527E-17  -3.35479799E-11  -4.53208975E-08  -4.62576988E-08   0.00000000E+00  -2.85390071E-08  -1.94024335E-16  -6.94779942E-16  -6.82710025E-16   2.44217077E-17
   1.83750000E+02   5.00000000E-01   5.00000000E-01  -1.31108722E-07  -4.73597964E-08   0.00000000E+00   0.00000000E+00   0.00000000E+00   1.42695035E-08   0.00000000E+00   2.47884319E-19   6.53239847E-08   5.10309101E-17   3.00945114E-08  -3.60713851E-17  -3.37035709E-18  -3.52289888E-17  -3.25432513E-17  -2.00190596E-10  -1.50528927E-10  -1.15922901E-07   5.98261729E-08   1.68224862E-07  -2.75048617E-16  -6.11447015E-18   2.26024966E-17   1.86754104E-19   1.85771376E-17  -3.35444720E-11  -4.53375068E-08  -4.62576988E-08   0.00000000E+00  -2.85390071E-08  -1.94022041E-16  -6.94779942E-16  -6.82709210E-16   2.43337329E-17
   2.01250000E+02   5.00000000E-01   5.00000000E-01  -1.31108722E-07  -4.72475951E-08   0.00000000E+00   0.00000000E+00   0.00000000E+00   1.42695035E-08   0.00000000E+00   2.80970922E-19   6.15393172E-08   5.61509153E-17   3.33842614E-08  -3.60530610E-17  -3.37174178E-18  -3.51458494E-17  -3.24712371E-17  -2.00167983E-10  -1.48112375E-10  -1.15922901E-07   5.86767118E-08   1.68881257E-07  -2.71996728E-16  -6.05275153E-18   2.21900961E-17   4.49878615E-19   1.87540117E-17  -3.35477110E-11  -4.53531288E-08  -4.62576988E-08   0.00000000E+00  -2.85390070E-08  -1.94020437E-16  -6.94779942E-16  -6.82708649E-16   2.42449054E-17
   2.18750000E+02   5.00000000E-01   5.00000000E-01  -1.31108721E-07  -4.71229073E-08   0.00000000E+00   0.00000000E+00   0.00000000E+00   1.42695035E-08   0.00000000E+00   3.17818127E-19   5.76215754E-08   6.19455785E-17   3.66838826E-08  -3.60377420E-17  -3.37619054E-18  -3.50767656E-17  -3.24318272E-17  -2.00143724E-10  -1.45648202E-10  -1.15922901E-07   5.73351169E-08   1.69654052E-07  -2.70446731E-16  -5.99876803E-18   2.16549073E-17   6.79263734E-19   1.88100093E-17  -3.35555274E-11  -4.53682647E-08  -4.62576988E-08   0.00000000E+00  -2.85390070E-08  -1.94019310E-16  -6.94779942E-16  -6.82708315E-16   2.41609483E-17
   2.36250000E+02   5.00000000E-01   5.00000000E-01  -1.31108721E-07  -4.69858082E-08   0.00000000E+00   0.00000000E+00   0.00000000E+00   1.42695035E-08   0.00000000E+00   3.57799748E-19   5.36972614E-08   6.83741987E-17   3.99851206E-08  -3.60239251E-17  -3.38207774E-18  -3.50147437E-17  -3.24091994E-17  -2.00117981E-10  -1.43147900E-10  -1.15922901E-07   5.59268178E-08   1.70461019E-07  -2.69663882E-16  -5.94838892E-18   2.10717437E-17   8.92819731E-19   1.88069047E-17  -3.35655833E-11  -4.53833932E-08  -4.62576988E-08   0.00000000E+00  -2.85390070E-08  -1.94018427E-16  -6.94779942E-16  -6.82708190E-16   2.40815410E-17
   2.53750000E+02   5.00000000E-01   5.00000000E-01  -1.31108720E-07  -4.68358960E-08   0.00000000E+00   0.00000000E+00   0.00000000E+00   1.42695034E-08   0.00000000E+00   4.00948219E-19   4.97993480E-08   7.54484967E-17   4.32427880E-08  -3.60113189E-17  -3.38898941E-18  -3.49584192E-17  -3.23996789E-17  -2.00090729E-10  -1.40612365E-10  -1.15922901E-07   5.44832673E-08   1.71288446E-07  -2.69275270E-16  -5.90079653E-18   2.04592721E-17   1.09409804E-18   1.87592154E-17  -3.35772647E-11  -4.53989472E-08  -4.62576988E-08   0.00000000E+00  -2.85390069E-08  -1.94017739E-16  -6.94779942E-16  -6.82708245E-16   2.40063229E-17
   2.71250000E+02   5.00000000E-01   5.00000000E-01  -1.31108720E-07  -4.66727398E-08   0.00000000E+00   0.00000000E+00   0.00000000E+00   1.42695034E-08   0.00000000E+00   4.47332562E-19   4.59711692E-08   8.31672688E-17   4.64221373E-08  -3.59997764E-17  -3.39667850E-18  -3.49071010E-17  -3.24011461E-17  -2.00061926E-10  -1.38042206E-10  -1.15922900E-07   5.30198644E-08   1.72127217E-07  -2.69090272E-16  -5.85563324E-18   1.98274797E-17   1.28465205E-18   1.86745280E-17  -3.35901839E-11  -4.54151022E-08  -4.62576988E-08   0.00000000E+00  -2.85390068E-08  -1.94017217E-16  -6.94779942E-16  -6.82708458E-16   2.39345395E-17
   2.88750000E+02   5.00000000E-01   5.00000000E-01  -1.31108719E-07  -4.64960736E-08   0.00000000E+00   0.00000000E+00   0.00000000E+00   1.42695034E-08   0.00000000E+00   4.96895592E-19   4.22551160E-08   9.15022331E-17   4.94960146E-08  -3.59890603E-17  -3.40486184E-18  -3.48596831E-17  -3.24108719E-17  -2.00031562E-10  -1.35440674E-10  -1.15922900E-07   5.15515191E-08   1.72967363E-07  -2.69010846E-16  -5.81238381E-18   1.91868860E-17   1.46671333E-18   1.85616881E-17  -3.36038897E-11  -4.54316877E-08  -4.62576988E-08   0.00000000E+00  -2.85390068E-08  -1.94016822E-16  -6.94779942E-16  -6.82708806E-16   2.38649443E-17
   3.06250000E+02   5.00000000E-01   5.00000000E-01  -1.31108718E-07  -4.63058705E-08   0.00000000E+00   0.00000000E+00   0.00000000E+00   1.42695034E-08   0.00000000E+00   5.49441878E-19   3.86871719E-08   1.00408423E-16   5.24426468E-08  -3.59788512E-17  -3.41323531E-18  -3.48146837E-17  -3.24256565E-17  -1.99999660E-10  -1.32813876E-10  -1.15922900E-07   5.00928090E-08   1.73799248E-07  -2.68986185E-16  -5.77038187E-18   1.85482475E-17   1.64316361E-18   1.84305648E-17  -3.36178948E-11  -4.54482599E-08  -4.62576988E-08   0.00000000E+00  -2.85390067E-08  -1.94016507E-16  -6.94779942E-16  -6.82709274E-16   2.37959225E-17
   3.23750000E+02   5.00000000E-01   5.00000000E-01  -1.31108718E-07  -4.61023550E-08   0.00000000E+00   0.00000000E+00   0.00000000E+00   1.42695033E-08   0.00000000E+00   6.04668025E-19   3.52955132E-08   1.09838586E-16   5.52442479E-08  -3.59688003E-17  -3.42151718E-18  -3.47704905E-17  -3.24423187E-17  -1.99966266E-10  -1.30170122E-10  -1.15922900E-07   4.86561936E-08   1.74614929E-07  -2.68989948E-16  -5.72892423E-18   1.79210907E-17   1.81704003E-18   1.82905990E-17  -3.36317441E-11  -4.54642778E-08  -4.62576988E-08   0.00000000E+00  -2.85390067E-08  -1.94016228E-16  -6.94779942E-16  -6.82709846E-16   2.37256909E-17
   3.41250000E+02   5.00000000E-01   5.00000000E-01  -1.31108717E-07  -4.58859550E-08   0.00000000E+00   0.00000000E+00   0.00000000E+00   1.42695033E-08   0.00000000E+00   6.62216736E-19   3.21001205E-08   1.19755374E-16   5.78857511E-08  -3.59585899E-17  -3.42948709E-18  -3.47256397E-17  -3.24581860E-17  -1.99931437E-10  -1.27518774E-10  -1.15922900E-07   4.72503607E-08   1.75409250E-07  -2.69008296E-16  -5.68740203E-18   1.73124072E-17   1.99096830E-18   1.81493536E-17  -3.36450758E-11  -4.54792649E-08  -4.62576988E-08   0.00000000E+00  -2.85390066E-08  -1.94015943E-16  -6.94779942E-16  -6.82710509E-16   2.36525211E-17
   3.58750000E+02   5.00000000E-01   5.00000000E-01  -1.31108716E-07  -4.56571432E-08   0.00000000E+00   0.00000000E+00   0.00000000E+00   1.42695033E-08   0.00000000E+00   7.21787054E-19   2.91121448E-08   1.30146412E-16   6.03515085E-08  -3.59480282E-17  -3.43703787E-18  -3.46792515E-17  -3.24717926E-17  -1.99895212E-10  -1.24868074E-10  -1.15922900E-07   4.58776146E-08   1.76181801E-07  -2.69034118E-16  -5.64551379E-18   1.67248277E-17   2.16624401E-18   1.80103668E-17  -3.36577019E-11  -4.54929108E-08  -4.62576988E-08   0.00000000E+00  -2.85390065E-08  -1.94015631E-16  -6.94779942E-16  -6.82711252E-16   2.35750289E-17
   3.76250000E+02   5.00000000E-01   5.00000000E-01  -1.31108714E-07  -4.54163725E-08   0.00000000E+00   0.00000000E+00   0.00000000E+00   1.42695032E-08   0.00000000E+00   7.83157382E-19   2.63368068E-08   1.41024679E-16   6.26283932E-08  -3.59370332E-17  -3.44414720E-18  -3.46309552E-17  -3.24826394E-17  -1.99857610E-10  -1.22224672E-10  -1.15922900E-07   4.45360760E-08   1.76934827E-07  -2.69063820E-16  -5.60321084E-18   1.61579465E-17   2.34307015E-18   1.78741582E-17  -3.36695679E-11  -4.55050808E-08  -4.62576988E-08   0.00000000E+00  -2.85390064E-08  -1.94015285E-16  -6.94779942E-16  -6.82712060E-16   2.34922502E-17
   3.93750000E+02   5.00000000E-01   5.00000000E-01  -1.31108713E-07  -4.51639587E-08   0.00000000E+00   0.00000000E+00   0.00000000E+00   1.42695032E-08   0.00000000E+00   8.46238129E-19   2.37737307E-08   1.52432593E-16   6.47043266E-08  -3.59256497E-17  -3.45087320E-18  -3.45809648E-17  -3.24912262E-17  -1.99818612E-10  -1.19592662E-10  -1.15922900E-07   4.32200933E-08   1.77673208E-07  -2.69095791E-16  -5.56072770E-18   1.56085939E-17   2.52042830E-18   1.77382352E-17  -3.36807465E-11  -4.55157936E-08  -4.62576988E-08   0.00000000E+00  -2.85390064E-08  -1.94014913E-16  -6.94779942E-16  -6.82712923E-16   2.34037093E-17
   4.11250000E+02   5.00000000E-01   5.00000000E-01  -1.31108712E-07  -4.49000374E-08   0.00000000E+00   0.00000000E+00   0.00000000E+00   1.42695031E-08   0.00000000E+00   9.11073948E-19   2.14186631E-08   1.64439285E-16   6.65701739E-08  -3.59140200E-17  -3.45732319E-18  -3.45299400E-17  -3.24987322E-17  -1.99778170E-10  -1.16973626E-10  -1.15922900E-07   4.19222164E-08   1.78402878E-07  -2.69129507E-16  -5.51850064E-18   1.50721266E-17   2.69643222E-18   1.75982532E-17  -3.36913911E-11  -4.55251809E-08  -4.62576988E-08   0.00000000E+00  -2.85390063E-08  -1.94014533E-16  -6.94779942E-16  -6.82713829E-16   2.33093766E-17
   4.28750000E+02   5.00000000E-01   5.00000000E-01  -1.31108710E-07  -4.46245670E-08   0.00000000E+00   0.00000000E+00   0.00000000E+00   1.42695031E-08   0.00000000E+00   9.77821950E-19   1.92645487E-08   1.77134764E-16   6.82208278E-08  -3.59023431E-17  -3.46362214E-18  -3.44787993E-17  -3.25066552E-17  -1.99736205E-10  -1.14367141E-10  -1.15922899E-07   4.06350245E-08   1.79129555E-07  -2.69164976E-16  -5.47706567E-18   1.45436496E-17   2.86876902E-18   1.74492426E-17  -3.37016881E-11  -4.55334494E-08  -4.62576988E-08   0.00000000E+00  -2.85390062E-08  -1.94014169E-16  -6.94779942E-16  -6.82714767E-16   2.32095689E-17
   4.46250000E+02   5.00000000E-01   5.00000000E-01  -1.31108708E-07  -4.43372945E-08   0.00000000E+00   0.00000000E+00   0.00000000E+00   1.42695030E-08   0.00000000E+00   1.04675718E-18   1.73018755E-08   1.90628034E-16   6.96536469E-08  -3.58908684E-17  -3.46990530E-18  -3.44286899E-17  -3.25167324E-17  -1.99692611E-10  -1.11770787E-10  -1.15922899E-07   3.93513561E-08   1.79858824E-07  -2.69202521E-16  -5.43704302E-18   1.40182461E-17   3.03476764E-18   1.72858429E-17  -3.37118440E-11  -4.55408561E-08  -4.62576988E-08   0.00000000E+00  -2.85390061E-08  -1.94013849E-16  -6.94779942E-16  -6.82715728E-16   2.31048845E-17
   4.63750000E+02   5.00000000E-01   5.00000000E-01  -1.31108706E-07  -4.40377584E-08   0.00000000E+00   0.00000000E+00   0.00000000E+00   1.42695030E-08   0.00000000E+00   1.11825904E-18   1.55195769E-08   2.05042439E-16   7.08687805E-08  -3.58798754E-17  -3.47630461E-18  -3.43808915E-17  -3.25307700E-17  -1.99647253E-10  -1.09180528E-10  -1.15922899E-07   3.80649177E-08   1.80595636E-07  -2.69242604E-16  -5.39908821E-18   1.34914352E-17   3.19161045E-18   1.71028266E-17  -3.37220648E-11  -4.55476889E-08  -4.62576988E-08   0.00000000E+00  -2.85390059E-08  -1.94013602E-16  -6.94779942E-16  -6.82716703E-16   2.29961199E-17
   4.81250000E+02   5.00000000E-01   5.00000000E-01  -1.31108704E-07  -4.37253131E-08   0.00000000E+00   0.00000000E+00   0.00000000E+00   1.42695029E-08   0.00000000E+00   1.19279201E-18   1.39056793E-08   2.20509765E-16   7.18690508E-08  -3.58696513E-17  -3.48293734E-18  -3.43367161E-17  -3.25504839E-17  -1.99599979E-10  -1.06591186E-10  -1.15922899E-07   3.67707351E-08   1.81343985E-07  -2.69285691E-16  -5.36384372E-18   1.29595238E-17   3.33654198E-18   1.68955532E-17  -3.37325376E-11  -4.55542498E-08  -4.62576988E-08   0.00000000E+00  -2.85390058E-08  -1.94013458E-16  -6.94779942E-16  -6.82717685E-16   2.28841876E-17
   4.98750000E+02   5.00000000E-01   5.00000000E-01  -1.31108702E-07  -4.33940446E-08   0.00000000E+00   0.00000000E+00   0.00000000E+00   1.42695029E-08   0.00000000E+00   1.27344181E-18   1.24338929E-08   2.37637002E-16   7.25251051E-08  -3.58624185E-17  -3.49082342E-18  -3.43063190E-17  -3.25903494E-17  -1.99549962E-10  -1.03952658E-10  -1.15922898E-07   3.54076105E-08   1.82160155E-07  -2.69338627E-16  -5.33653708E-18   1.23845464E-17   3.44712229E-18   1.66178702E-17  -3.37447842E-11  -4.55608400E-08  -4.62576988E-08   0.00000000E+00  -2.85390057E-08  -1.94013655E-16  -6.94779942E-16  -6.82718656E-16   2.27727758E-17
   5.16250000E+02   5.00000000E-01   5.00000000E-01  -1.31108699E-07  -4.30467944E-08   0.00000000E+00   0.00000000E+00   0.00000000E+00   1.42695028E-08   0.00000000E+00   1.35893175E-18   1.11212512E-08   2.56284170E-16   7.30439077E-08  -3.58566967E-17  -3.49914250E-18  -3.42829035E-17  -3.26395129E-17  -1.99497509E-10  -1.01293386E-10  -1.15922898E-07   3.40321817E-08   1.82978866E-07  -2.69395214E-16  -5.31340491E-18   1.17999985E-17   3.53954550E-18   1.63079922E-17  -3.37576348E-11  -4.55678359E-08  -4.62576988E-08   0.00000000E+00  -2.85390056E-08  -1.94014019E-16  -6.94779942E-16  -6.82719622E-16   2.26612934E-17
   5.33750000E+02   5.00000000E-01   5.00000000E-01  -1.31108696E-07  -4.26833817E-08   0.00000000E+00   0.00000000E+00   0.00000000E+00   1.42695027E-08   0.00000000E+00   1.44947891E-18   9.94425664E-09   2.76497065E-16   7.33888506E-08  -3.58523516E-17  -3.50777495E-18  -3.42658399E-17  -3.26965561E-17  -1.99442532E-10  -9.86148350E-11  -1.15922898E-07   3.26535000E-08   1.83805508E-07  -2.69454588E-16  -5.29404976E-18   1.12110818E-17   3.61554603E-18   1.59716245E-17  -3.37709272E-11  -4.55754589E-08  -4.62576988E-08   0.00000000E+00  -2.85390055E-08  -1.94014529E-16  -6.94779942E-16  -6.82720579E-16   2.25500601E-17
   5.51250000E+02   5.00000000E-01   5.00000000E-01  -1.31108692E-07  -4.23023685E-08   0.00000000E+00   0.00000000E+00   0.00000000E+00   1.42695027E-08   0.00000000E+00   1.54590497E-18   8.88712457E-09   2.98412079E-16   7.35455254E-08  -3.58496788E-17  -3.51679894E-18  -3.42564603E-17  -3.27628607E-17  -1.99384785E-10  -9.59086279E-11  -1.15922898E-07   3.12671091E-08   1.84647292E-07  -2.69517195E-16  -5.27913383E-18   1.06151295E-17   3.67231402E-18   1.56049539E-17  -3.37847872E-11  -4.55838544E-08  -4.62576988E-08   0.00000000E+00  -2.85390053E-08  -1.94015213E-16  -6.94779942E-16  -6.82721524E-16   2.24398073E-17
   5.68750000E+02   5.00000000E-01   5.00000000E-01  -1.31108688E-07  -4.19023273E-08   0.00000000E+00   0.00000000E+00   0.00000000E+00   1.42695026E-08   0.00000000E+00   1.64904873E-18   7.93848787E-09   3.22164642E-16   7.35217920E-08  -3.58488915E-17  -3.52624622E-18  -3.42557156E-17  -3.28391855E-17  -1.99324021E-10  -9.31672707E-11  -1.15922897E-07   2.98712180E-08   1.85505693E-07  -2.69583054E-16  -5.26912174E-18   1.00112031E-17   3.70789278E-18   1.52061698E-17  -3.37992731E-11  -4.55930659E-08  -4.62576988E-08   0.00000000E+00  -2.85390052E-08  -1.94016088E-16  -6.94779942E-16  -6.82722452E-16   2.23312210E-17
   5.86250000E+02   5.00000000E-01   5.00000000E-01  -1.31108684E-07  -4.14820849E-08   0.00000000E+00   0.00000000E+00   0.00000000E+00   1.42695025E-08   0.00000000E+00   1.75967092E-18   7.08830198E-09   3.47876492E-16   7.33304241E-08  -3.58500646E-17  -3.53608689E-18  -3.42639242E-17  -3.29253856E-17  -1.99260013E-10  -9.03857891E-11  -1.15922897E-07   2.84676277E-08   1.86379359E-07  -2.69651716E-16  -5.26415605E-18   9.40060467E-18   3.72171027E-18   1.47763015E-17  -3.38143525E-11  -4.56030188E-08  -4.62576988E-08   0.00000000E+00  -2.85390050E-08  -1.94017157E-16  -6.94779942E-16  -6.82723363E-16   2.22248358E-17
   6.03750000E+02   5.00000000E-01   5.00000000E-01  -1.31108679E-07  -4.10407918E-08   0.00000000E+00   0.00000000E+00   0.00000000E+00   1.42695024E-08   0.00000000E+00   1.87843888E-18   6.32733800E-09   3.75660130E-16   7.29855096E-08  -3.58531516E-17  -3.54624547E-18  -3.42808501E-17  -3.30205922E-17  -1.99192564E-10  -8.75618699E-11  -1.15922897E-07   2.70606871E-08   1.87265314E-07  -2.69722413E-16  -5.26410395E-18   8.78621103E-18   3.71437612E-18   1.43185645E-17  -3.38299240E-11  -4.56135334E-08  -4.62576988E-08   0.00000000E+00  -2.85390049E-08  -1.94018409E-16  -6.94779942E-16  -6.82724254E-16   2.21210124E-17
   6.21250000E+02   5.00000000E-01   5.00000000E-01  -1.31108673E-07  -4.05779441E-08   0.00000000E+00   0.00000000E+00   0.00000000E+00   1.42695024E-08   0.00000000E+00   2.00592913E-18   5.64705189E-09   4.05627003E-16   7.25011538E-08  -3.58580132E-17  -3.55661922E-18  -3.43058351E-17  -3.31234472E-17  -1.99121501E-10  -8.46956634E-11  -1.15922896E-07   2.56562051E-08   1.88159736E-07  -2.69794196E-16  -5.26862743E-18   8.17177803E-18   3.68737792E-18   1.38375862E-17  -3.38458432E-11  -4.56243590E-08  -4.62576988E-08  -1.30774415E-32  -2.85390047E-08  -1.94019827E-16  -6.94779942E-16  -6.82725124E-16   2.20199454E-17
   6.38750000E+02   5.00000000E-01   5.00000000E-01  -1.31108667E-07  -4.00933591E-08   0.00000000E+00   0.00000000E+00   0.00000000E+00   1.42695023E-08   0.00000000E+00   2.14264650E-18   5.03949860E-09   4.37896621E-16   7.18903571E-08  -3.58644524E-17  -3.56709590E-18  -3.43379618E-17  -3.32323512E-17  -1.99046672E-10  -8.17893032E-11  -1.15922896E-07   2.42604418E-08   1.89058661E-07  -2.69866076E-16  -5.27726516E-18   7.56129958E-18   3.64272846E-18   1.33386243E-17  -3.38619485E-11  -4.56352181E-08  -4.62576988E-08  -2.56111485E-32  -2.85390046E-08  -1.94021388E-16  -6.94779942E-16  -6.82725975E-16   2.19216928E-17
   6.56250000E+02   5.00000000E-01   5.00000000E-01  -1.31108660E-07  -3.95871017E-08   0.00000000E+00   0.00000000E+00   0.00000000E+00   1.42695022E-08   0.00000000E+00   2.28905992E-18   4.49727953E-09   4.72605284E-16   7.11640811E-08  -3.58722520E-17  -3.57756901E-18  -3.43762233E-17  -3.33456976E-17  -1.98967939E-10  -7.88461999E-11  -1.15922896E-07   2.28792372E-08   1.89958581E-07  -2.69937137E-16  -5.28951744E-18   6.95846868E-18   3.58260097E-18   1.28268485E-17  -3.38780842E-11  -4.56458481E-08  -4.62576988E-08  -4.99087078E-32  -2.85390044E-08  -1.94023066E-16  -6.94779942E-16  -6.82726805E-16   2.18262185E-17
   6.73750000E+02   5.00000000E-01   5.00000000E-01  -1.31108652E-07  -3.90593936E-08   0.00000000E+00   0.00000000E+00   0.00000000E+00   1.42695021E-08   0.00000000E+00   2.44564270E-18   4.01353417E-09   5.09912143E-16   7.03309782E-08  -3.58812037E-17  -3.58794777E-18  -3.44196573E-17  -3.34620385E-17  -1.98885161E-10  -7.58703349E-11  -1.15922895E-07   2.15174399E-08   1.90856775E-07  -2.70006607E-16  -5.30491336E-18   6.36633811E-18   3.50904173E-18   1.23068371E-17  -3.38941151E-11  -4.56560311E-08  -4.62576988E-08  -9.66593572E-32  -2.85390043E-08  -1.94024841E-16  -6.94779942E-16  -6.82727615E-16   2.17334339E-17
   6.91250000E+02   5.00000000E-01   5.00000000E-01  -1.31108643E-07  -3.85104830E-08   0.00000000E+00   0.00000000E+00   0.00000000E+00   1.42695020E-08   0.00000000E+00   2.61292850E-18   3.58193532E-09   5.50005769E-16   6.93968841E-08  -3.58911349E-17  -3.59816417E-18  -3.44674662E-17  -3.35802179E-17  -1.98798186E-10  -7.28654276E-11  -1.15922895E-07   2.01784547E-08   1.91751622E-07  -2.70073905E-16  -5.32307317E-18   5.78707619E-18   3.42370415E-18   1.17821665E-17  -3.39099383E-11  -4.56656107E-08  -4.62576988E-08  -1.85756021E-31  -2.85390041E-08  -1.94026692E-16  -6.94779942E-16  -6.82728405E-16   2.16432398E-17
   7.08750000E+02   5.00000000E-01   5.00000000E-01  -1.31108633E-07  -3.79405740E-08   0.00000000E+00   0.00000000E+00   0.00000000E+00   1.42695020E-08   0.00000000E+00   2.79154250E-18   3.19672818E-09   5.93104240E-16   6.83659078E-08  -3.59019143E-17  -3.60817177E-18  -3.45190413E-17  -3.36993774E-17  -1.98706842E-10  -6.98345735E-11  -1.15922894E-07   1.88643089E-08   1.92642380E-07  -2.70138629E-16  -5.34372066E-18   5.22202645E-18   3.32779721E-18   1.12554086E-17  -3.39254816E-11  -4.56744950E-08  -4.62576988E-08  -6.26733660E-17  -2.85390039E-08  -1.94028607E-16  -6.94779942E-16  -6.82729173E-16   2.15555484E-17
   7.26250000E+02   5.00000000E-01   5.00000000E-01  -1.31108622E-07  -3.73497733E-08   0.00000000E+00   0.00000000E+00   0.00000000E+00   1.42695019E-08   0.00000000E+00   2.98222783E-18   2.85272134E-09   6.39452913E-16   6.72408772E-08  -3.59134507E-17  -3.61794265E-18  -3.45739577E-17  -3.38189275E-17  -1.98610930E-10  -6.67800199E-11  -1.15922894E-07   1.75758243E-08   1.93529028E-07  -2.70200534E-16  -5.36668178E-18   4.67183104E-18   3.22209246E-18   1.07282281E-17  -3.39407002E-11  -4.56826523E-08  -4.62576988E-08  -2.28121114E-16  -2.85390037E-08  -1.94030577E-16  -6.94779942E-16  -6.82729921E-16   2.14702962E-17
   7.43750000E+02   5.00000000E-01   5.00000000E-01  -1.31108609E-07  -3.67380507E-08   0.00000000E+00   0.00000000E+00   0.00000000E+00   1.42695018E-08   0.00000000E+00   3.18586748E-18   2.54526691E-09   6.89320244E-16   6.60237699E-08  -3.59256885E-17  -3.62746346E-18  -3.46319523E-17  -3.39385016E-17  -1.98510221E-10  -6.37030613E-11  -1.15922894E-07   1.63128410E-08   1.94412086E-07  -2.70259494E-16  -5.39187431E-18   4.13658104E-18   3.10696946E-18   1.02015338E-17  -3.39555705E-11  -4.56901021E-08  -4.62576988E-08  -4.76543091E-16  -2.85390036E-08  -1.94032596E-16  -6.94779942E-16  -6.82730648E-16   2.13874480E-17
   7.61250000E+02   5.00000000E-01   5.00000000E-01  -1.31108595E-07  -3.61052227E-08   0.00000000E+00   0.00000000E+00   0.00000000E+00   1.42695017E-08   0.00000000E+00   3.40350011E-18   2.27023152E-09   7.42991335E-16   6.47161567E-08  -3.59385996E-17  -3.63673112E-18  -3.46928877E-17  -3.40578976E-17  -1.98404453E-10  -6.06040604E-11  -1.15922893E-07   1.50744698E-08   1.95292423E-07  -2.70315477E-16  -5.41929041E-18   3.61597732E-18   2.98249124E-18   9.67566414E-18  -3.39700846E-11  -4.56969040E-08  -4.62576988E-08  -8.11589904E-16  -2.85390034E-08  -1.94034662E-16  -6.94779942E-16  -6.82731353E-16   2.13069958E-17
   7.78750000E+02   5.00000000E-01   5.00000000E-01  -1.31108579E-07  -3.54509593E-08   0.00000000E+00   0.00000000E+00   0.00000000E+00   1.42695016E-08   0.00000000E+00   3.63632792E-18   2.02396112E-09   8.00758908E-16   6.33196380E-08  -3.59521741E-17  -3.64574868E-18  -3.47567072E-17  -3.41770160E-17  -1.98293329E-10  -5.74825910E-11  -1.15922893E-07   1.38593576E-08   1.96171053E-07  -2.70368505E-16  -5.44897373E-18   3.10949005E-18   2.84850229E-18   9.15058983E-18  -3.39842440E-11  -4.57031447E-08  -4.62576988E-08  -1.21380675E-15  -2.85390032E-08  -1.94036774E-16  -6.94779942E-16  -6.82732037E-16   2.12289516E-17
   7.96250000E+02   5.00000000E-01   5.00000000E-01  -1.31108561E-07  -3.47748254E-08   0.00000000E+00   0.00000000E+00   0.00000000E+00   1.42695015E-08   0.00000000E+00   3.88571284E-18   1.80324305E-09   8.62911184E-16   6.18363043E-08  -3.59664083E-17  -3.65452126E-18  -3.48233836E-17  -3.42957961E-17  -1.98176523E-10  -5.43377255E-11  -1.15922892E-07   1.26659666E-08   1.97048930E-07  -2.70418635E-16  -5.48099141E-18   2.61651424E-18   2.70474847E-18   8.62613008E-18  -3.39980534E-11  -4.57089234E-08  -4.62576988E-08  -1.61786033E-15  -2.85390030E-08  -1.94038934E-16  -6.94779942E-16  -6.82732698E-16   2.11533372E-17