 TITLE = "Mineral Rate (mol/m^3/sec)" 
VARIABLES = "X"          "Y"              "Z"            "Forsterite"     "Enstatite(alph" "Anorthite"      "Ferropargasite" "Anhydrite"      "Clinochlore"    "Albite(low)"    "Fayalite"       "Epidote"        "Kaolinite"      "Muscovite(orde" "Sudoite"        "Saponite(Mg)"   "Scolecite"      "Pyrite"         "Quartz(alpha)" 
 ZONE I=         100 , J=           1 , K=           1  F=POINT
   1.75000000E+01   5.00000000E-01   5.00000000E-01  -9.99997680E-09  -9.99214078E-10  -9.99985100E-10  -9.99994092E-10  -2.80821926E-05   2.03044103E-08  -6.22571170E-08  -9.99947675E-09   8.62519300E-17  -9.82864099E-10   1.46677162E-08   0.00000000E+00   1.34599165E-08  -9.96602826E-09   0.00000000E+00   2.42674008E-10
   5.25000000E+01   5.00000000E-01   5.00000000E-01  -9.99997681E-09  -9.99187300E-10  -9.99985097E-10  -9.99994092E-10  -6.44160796E-06   9.08416379E-09  -4.56965097E-08  -9.99891318E-09  -1.29475097E-18  -9.78250745E-10   1.65346058E-08   0.00000000E+00   1.41351049E-08  -9.96255742E-09   0.00000000E+00   3.13392285E-10
   8.75000000E+01   5.00000000E-01   5.00000000E-01  -9.99997680E-09  -9.99149052E-10  -9.99985096E-10  -9.99994092E-10  -7.86936362E-07   5.85700777E-09  -3.79792411E-08  -9.99809794E-09  -2.27231566E-18  -9.76194909E-10   1.57706738E-08   0.00000000E+00   1.71433273E-08  -9.96159275E-09   0.00000000E+00   3.46308849E-10
   1.22500000E+02   5.00000000E-01   5.00000000E-01  -9.99997680E-09  -9.99107193E-10  -9.99985094E-10  -9.99994092E-10   5.95549231E-07   4.57293480E-09  -3.39720459E-08  -9.99704726E-09  -2.60286014E-18  -9.74283903E-10   1.51456364E-08   0.00000000E+00   1.84116065E-08  -9.96108079E-09   0.00000000E+00   3.61059804E-10
   1.57500000E+02   5.00000000E-01   5.00000000E-01  -9.99997679E-09  -9.99063018E-10  -9.99985091E-10  -9.99994092E-10   9.33921787E-07   3.97174905E-09  -3.18794205E-08  -9.99577971E-09  -2.81673350E-18  -9.72213940E-10   1.47644102E-08   0.00000000E+00   1.91421568E-08  -9.96063258E-09   0.00000000E+00   3.66082764E-10
   1.92500000E+02   5.00000000E-01   5.00000000E-01  -9.99997677E-09  -9.99016897E-10  -9.99985088E-10  -9.99994092E-10   1.02292496E-06   3.67755937E-09  -3.08713096E-08  -9.99431453E-09  -3.03600699E-18  -9.69927548E-10   1.45626051E-08   0.00000000E+00   1.96721221E-08  -9.96017184E-09   0.00000000E+00   3.65552369E-10
   2.27500000E+02   5.00000000E-01   5.00000000E-01  -9.99997676E-09  -9.98968947E-10  -9.99985084E-10  -9.99994092E-10   1.05121607E-06   3.54448869E-09  -3.05178962E-08  -9.99267085E-09  -3.30771853E-18  -9.67415823E-10   1.44808872E-08   0.00000000E+00   2.01188736E-08  -9.95969111E-09   0.00000000E+00   3.61732010E-10
   2.62500000E+02   5.00000000E-01   5.00000000E-01  -9.99997674E-09  -9.98919199E-10  -9.99985080E-10  -9.99994092E-10   1.06280720E-06   3.50555004E-09  -3.05791157E-08  -9.99086740E-09  -3.64735795E-18  -9.64679160E-10   1.44784164E-08   0.00000000E+00   2.05307728E-08  -9.95919671E-09   0.00000000E+00   3.55922847E-10
   2.97500000E+02   5.00000000E-01   5.00000000E-01  -9.99997672E-09  -9.98867647E-10  -9.99985074E-10  -9.99994092E-10   1.06794282E-06   3.52631110E-09  -3.09134911E-08  -9.98892222E-09  -4.06117803E-18  -9.61718252E-10   1.45284447E-08   0.00000000E+00   2.09303150E-08  -9.95869627E-09   0.00000000E+00   3.48902895E-10
   3.32500000E+02   5.00000000E-01   5.00000000E-01  -9.99997669E-09  -9.98814267E-10  -9.99985068E-10  -9.99994092E-10   1.06912638E-06   3.58764171E-09  -3.14341806E-08  -9.98685250E-09  -4.55315782E-18  -9.58532236E-10   1.46135036E-08   0.00000000E+00   2.13287797E-08  -9.95819621E-09   0.00000000E+00   3.41150916E-10
   3.67500000E+02   5.00000000E-01   5.00000000E-01  -9.99997667E-09  -9.98759029E-10  -9.99985060E-10  -9.99994092E-10   1.06711832E-06   3.67831274E-09  -3.20860337E-08  -9.98467451E-09  -5.12585525E-18  -9.55118660E-10   1.47220460E-08   0.00000000E+00   2.17319142E-08  -9.95770158E-09   0.00000000E+00   3.32968488E-10
   4.02500000E+02   5.00000000E-01   5.00000000E-01  -9.99997663E-09  -9.98701898E-10  -9.99985051E-10  -9.99994092E-10   1.06229179E-06   3.79145949E-09  -3.28328822E-08  -9.98240376E-09  -5.78523890E-18  -9.51473859E-10   1.48462898E-08   0.00000000E+00   2.21423891E-08  -9.95721633E-09   0.00000000E+00   3.24549721E-10
   4.37500000E+02   5.00000000E-01   5.00000000E-01  -9.99997660E-09  -9.98642835E-10  -9.99985040E-10  -9.99994092E-10   1.05493170E-06   3.92274196E-09  -3.36501796E-08  -9.98005518E-09  -6.53770364E-18  -9.47593359E-10   1.49808597E-08   0.00000000E+00   2.25609607E-08  -9.95674358E-09   0.00000000E+00   3.16022386E-10
   4.72500000E+02   5.00000000E-01   5.00000000E-01  -9.99997656E-09  -9.98581800E-10  -9.99985028E-10  -9.99994092E-10   1.04529780E-06   4.06932018E-09  -3.45205926E-08  -9.97764349E-09  -7.39206021E-18  -9.43472215E-10   1.51219332E-08   0.00000000E+00   2.29870664E-08  -9.95628588E-09   0.00000000E+00   3.07472784E-10
   5.07500000E+02   5.00000000E-01   5.00000000E-01  -9.99997651E-09  -9.98518752E-10  -9.99985013E-10  -9.99994092E-10   1.03363656E-06   4.22924986E-09  -3.54312925E-08  -9.97518346E-09  -8.35740355E-18  -9.39105244E-10   1.52667039E-08   0.00000000E+00   2.34191571E-08  -9.95584532E-09   0.00000000E+00   2.98961049E-10
   5.42500000E+02   5.00000000E-01   5.00000000E-01  -9.99997646E-09  -9.98453649E-10  -9.99984996E-10  -9.99994092E-10   1.02018232E-06   4.40110804E-09  -3.63722623E-08  -9.97269024E-09  -9.44567078E-18  -9.34487196E-10   1.54130435E-08   0.00000000E+00   2.38548991E-08  -9.95542365E-09   0.00000000E+00   2.90530688E-10
   5.77500000E+02   5.00000000E-01   5.00000000E-01  -9.99997641E-09  -9.98386449E-10  -9.99984976E-10  -9.99994092E-10   1.00515668E-06   4.58375071E-09  -3.73352258E-08  -9.97017959E-09  -1.06719254E-17  -9.29612838E-10   1.55592911E-08   0.00000000E+00   2.42913127E-08  -9.95502234E-09   0.00000000E+00   2.82214585E-10
   6.12500000E+02   5.00000000E-01   5.00000000E-01  -9.99997634E-09  -9.98317109E-10  -9.99984953E-10  -9.99994092E-10   9.88767699E-07   4.77615077E-09  -3.83129736E-08  -9.96766801E-09  -1.20529362E-17  -9.24476978E-10   1.57041244E-08   0.00000000E+00   2.47248793E-08  -9.95464260E-09   0.00000000E+00   2.74038769E-10
   6.47500000E+02   5.00000000E-01   5.00000000E-01  -9.99997627E-09  -9.98245575E-10  -9.99984926E-10  -9.99994092E-10   9.71209492E-07   4.97629469E-09  -3.93020215E-08  -9.96517273E-09  -1.36257936E-17  -9.19086474E-10   1.58426703E-08   4.09910499E-12   2.51520329E-08  -9.95428829E-09   0.00000000E+00   2.66029676E-10
   6.82500000E+02   5.00000000E-01   5.00000000E-01  -9.99997619E-09  -9.98171785E-10  -9.99984895E-10  -9.99994092E-10   9.52662003E-07   5.18134203E-09  -4.02997301E-08  -9.96271199E-09  -1.54342669E-17  -9.13456919E-10   1.59684804E-08   1.81744919E-11   2.55695936E-08  -9.95396450E-09   0.00000000E+00   2.58214830E-10
   7.17500000E+02   5.00000000E-01   5.00000000E-01  -9.99997610E-09  -9.98095723E-10  -9.99984860E-10  -9.99994092E-10   9.33291166E-07   5.39146747E-09  -4.12922555E-08  -9.96030532E-09  -1.74496503E-17  -9.07561406E-10   1.60884212E-08   3.38856875E-11   2.59731651E-08  -9.95366606E-09   0.00000000E+00   2.50606332E-10
   7.52500000E+02   5.00000000E-01   5.00000000E-01  -9.99997600E-09  -9.98017350E-10  -9.99984820E-10  -9.99994092E-10   9.13248984E-07   5.60528366E-09  -4.22742351E-08  -9.95797176E-09  -1.97319135E-17  -9.01395511E-10   1.62020690E-08   5.13643219E-11   2.63573005E-08  -9.95339330E-09   0.00000000E+00   2.43216827E-10
   7.87500000E+02   5.00000000E-01   5.00000000E-01  -9.99997589E-09  -9.97936627E-10  -9.99984774E-10  -9.99994092E-10   8.92674090E-07   5.82117079E-09  -4.32403759E-08  -9.95573051E-09  -2.23207048E-17  -8.94954608E-10   1.63091030E-08   7.07410908E-11   2.67172283E-08  -9.95314633E-09   0.00000000E+00   2.36058294E-10
   8.22500000E+02   5.00000000E-01   5.00000000E-01  -9.99997576E-09  -9.97853514E-10  -9.99984722E-10  -9.99994092E-10   8.71692268E-07   6.03728888E-09  -4.41854475E-08  -9.95360062E-09  -2.52637017E-17  -8.88233478E-10   1.64093663E-08   9.21441808E-11   2.70482325E-08  -9.95292508E-09   0.00000000E+00   2.29141931E-10
   8.57500000E+02   5.00000000E-01   5.00000000E-01  -9.99997563E-09  -9.97767976E-10  -9.99984662E-10  -9.99994092E-10   8.50417084E-07   6.25159265E-09  -4.51043481E-08  -9.95160064E-09  -2.86156159E-17  -8.81226077E-10   1.65028701E-08   1.15697212E-10   2.73457474E-08  -9.95272924E-09   0.00000000E+00   2.22478006E-10
   8.92500000E+02   5.00000000E-01   5.00000000E-01  -9.99997547E-09  -9.97679978E-10  -9.99984596E-10  -9.99994092E-10   8.28950578E-07   6.46185913E-09  -4.59921802E-08  -9.94974828E-09  -3.24413911E-17  -8.73925323E-10   1.65897918E-08   1.41517200E-10   2.76054598E-08  -9.95255829E-09   0.00000000E+00   2.16075683E-10
   9.27500000E+02   5.00000000E-01   5.00000000E-01  -9.99997530E-09  -9.97589487E-10  -9.99984520E-10  -9.99994092E-10   8.07383990E-07   6.66572826E-09  -4.68443290E-08  -9.94806010E-09  -3.68174805E-17  -8.66322912E-10   1.66704647E-08   1.69712630E-10   2.78234080E-08  -9.95241152E-09   0.00000000E+00   2.09942844E-10
   9.62500000E+02   5.00000000E-01   5.00000000E-01  -9.99997512E-09  -9.97496473E-10  -9.99984435E-10  -9.99994092E-10   7.85798508E-07   6.86075579E-09  -4.76565432E-08  -9.94655114E-09  -4.18319936E-17  -8.58409176E-10   1.67453616E-08   2.00381717E-10   2.79960771E-08  -9.95228807E-09   0.00000000E+00   2.04085917E-10
   9.97500000E+02   5.00000000E-01   5.00000000E-01  -9.99997491E-09  -9.97400905E-10  -9.99984340E-10  -9.99994092E-10   7.64266001E-07   7.04447720E-09  -4.84250128E-08  -9.94523457E-09  -4.75878160E-17  -8.50173015E-10   1.68150697E-08   2.33610924E-10   2.81204883E-08  -9.95218694E-09   0.00000000E+00   1.98509709E-10
   1.03250000E+03   5.00000000E-01   5.00000000E-01  -9.99997469E-09  -9.97302755E-10  -9.99984234E-10  -9.99994092E-10   7.42849758E-07   7.21448019E-09  -4.91464420E-08  -9.94412147E-09  -5.42058820E-17  -8.41601900E-10   1.68802593E-08   2.69473802E-10   2.81942791E-08  -9.95210705E-09   0.00000000E+00   1.93217272E-10
   1.06750000E+03   5.00000000E-01   5.00000000E-01  -9.99997444E-09  -9.97201997E-10  -9.99984115E-10  -9.99994092E-10   7.21605187E-07   7.36848281E-09  -4.98181156E-08  -9.94322052E-09  -6.18265949E-17  -8.32681978E-10   1.69416466E-08   3.08030179E-10   2.82157744E-08  -9.95204730E-09   0.00000000E+00   1.88209781E-10
   1.10250000E+03   5.00000000E-01   5.00000000E-01  -9.99997417E-09  -9.97098603E-10  -9.99983983E-10  -9.99994092E-10   7.00580497E-07   7.50441308E-09  -5.04379556E-08  -9.94253781E-09  -7.06118872E-17  -8.23398271E-10   1.69999540E-08   3.49325742E-10   2.81840443E-08  -9.95200656E-09   0.00000000E+00   1.83486449E-10
   1.13750000E+03   5.00000000E-01   5.00000000E-01  -9.99997388E-09  -9.96992546E-10  -9.99983837E-10  -9.99994092E-10   6.79817338E-07   7.62048578E-09  -5.10045661E-08  -9.94207667E-09  -8.07517583E-17  -8.13734972E-10   1.70558689E-08   3.93392034E-10   2.80989491E-08  -9.95198380E-09   0.00000000E+00   1.79044475E-10
   1.17250000E+03   5.00000000E-01   5.00000000E-01  -9.99997356E-09  -9.96883801E-10  -9.99983675E-10  -9.99994092E-10   6.59351407E-07   7.71527166E-09  -5.15172665E-08  -9.94183763E-09  -9.24634197E-17  -8.03675834E-10   1.71100052E-08   4.40246871E-10   2.79611665E-08  -9.95197805E-09   0.00000000E+00   1.74879022E-10
   1.20750000E+03   5.00000000E-01   5.00000000E-01  -9.99997321E-09  -9.96772337E-10  -9.99983496E-10  -9.99994092E-10   6.39213014E-07   7.78775445E-09  -5.19761080E-08  -9.94181836E-09  -1.05999756E-16  -7.93204622E-10   1.71628689E-08   4.89895214E-10   2.77722018E-08  -9.95198850E-09   0.00000000E+00   1.70983240E-10
   1.24250000E+03   5.00000000E-01   5.00000000E-01  -9.99997284E-09  -9.96658124E-10  -9.99983299E-10  -9.99994092E-10   6.19427612E-07   7.83737165E-09  -5.23818758E-08  -9.94201377E-09  -1.21651378E-16  -7.82305619E-10   1.72148316E-08   5.42330502E-10   2.75343752E-08  -9.95201449E-09   0.00000000E+00   1.67348329E-10
   1.27750000E+03   5.00000000E-01   5.00000000E-01  -9.99997243E-09  -9.96541129E-10  -9.99983083E-10  -9.99994092E-10   6.00016277E-07   7.86403611E-09  -5.27360727E-08  -9.94241616E-09  -1.39752666E-16  -7.70964141E-10   1.72661123E-08   5.97536466E-10   2.72507876E-08  -9.95205553E-09   0.00000000E+00   1.63963645E-10
   1.31250000E+03   5.00000000E-01   5.00000000E-01  -9.99997200E-09  -9.96421316E-10  -9.99982846E-10  -9.99994092E-10   5.80996162E-07   7.86813649E-09  -5.30408858E-08  -9.94301538E-09  -1.60686392E-16  -7.59167041E-10   1.73167704E-08   6.55489420E-10   2.69252611E-08  -9.95211132E-09   0.00000000E+00   1.60816845E-10
   1.34750000E+03   5.00000000E-01   5.00000000E-01  -9.99997153E-09  -9.96298644E-10  -9.99982588E-10  -9.99994092E-10   5.62380904E-07   7.85051651E-09  -5.32991357E-08  -9.94379921E-09  -1.84891953E-16  -7.46903154E-10   1.73667085E-08   7.16160998E-10   2.65622553E-08  -9.95218171E-09   0.00000000E+00   1.57894080E-10
   1.38250000E+03   5.00000000E-01   5.00000000E-01  -9.99997103E-09  -9.96173071E-10  -9.99982305E-10  -9.99994092E-10   5.44181002E-07   7.81243425E-09  -5.35142091E-08  -9.94475362E-09  -2.12868932E-16  -7.34163675E-10   1.74156851E-08   7.79521287E-10   2.61667607E-08  -9.95226672E-09   0.00000000E+00   1.55180223E-10
   1.41750000E+03   5.00000000E-01   5.00000000E-01  -9.99997050E-09  -9.96044548E-10  -9.99981998E-10  -9.99994092E-10   5.26404160E-07   7.75550452E-09  -5.36899766E-08  -9.94586319E-09  -2.45189246E-16  -7.20942423E-10   1.74633359E-08   8.45542228E-10   2.57441719E-08  -9.95236647E-09   0.00000000E+00   1.52659127E-10
   1.45250000E+03   5.00000000E-01   5.00000000E-01  -9.99996993E-09  -9.95913024E-10  -9.99981664E-10  -9.99994092E-10   5.09055598E-07   7.68162834E-09  -5.38306994E-08  -9.94711150E-09  -2.82500127E-16  -7.07236000E-10   1.75092008E-08   9.14201156E-10   2.53001461E-08  -9.95248117E-09   0.00000000E+00   1.50313915E-10
   1.48750000E+03   5.00000000E-01   5.00000000E-01  -9.99996933E-09  -9.95778442E-10  -9.99981302E-10  -9.99994092E-10   4.92138343E-07   7.59291450E-09  -5.39409272E-08  -9.94848154E-09  -3.25538407E-16  -6.93043831E-10   1.75527545E-08   9.85484273E-10   2.48404538E-08  -9.95261107E-09   0.00000000E+00   1.48127272E-10
   1.52250000E+03   5.00000000E-01   5.00000000E-01  -9.99996869E-09  -9.95640743E-10  -9.99980911E-10  -9.99994092E-10   4.75653486E-07   7.49159855E-09  -5.40253924E-08  -9.94995607E-09  -3.75138194E-16  -6.78368091E-10   1.75934383E-08   1.05938987E-09   2.43708283E-08  -9.95275645E-09   0.00000000E+00   1.46081756E-10
   1.55750000E+03   5.00000000E-01   5.00000000E-01  -9.99996803E-09  -9.95499865E-10  -9.99980489E-10  -9.99994092E-10   4.59600426E-07   7.37996407E-09  -5.40889041E-08  -9.95151801E-09  -4.32244222E-16  -6.63213547E-10   1.76306891E-08   1.13593111E-09   2.38968236E-08  -9.95291753E-09   0.00000000E+00   1.44160084E-10
   1.59250000E+03   5.00000000E-01   5.00000000E-01  -9.99996733E-09  -9.95355742E-10  -9.99980034E-10  -9.99994092E-10   4.43977084E-07   7.26027064E-09  -5.41362476E-08  -9.95315073E-09  -4.97926783E-16  -6.47587328E-10   1.76639656E-08   1.21513811E-09   2.34236865E-08  -9.95309449E-09   0.00000000E+00   1.42345413E-10
   1.62750000E+03   5.00000000E-01   5.00000000E-01  -9.99996660E-09  -9.95208304E-10  -9.99979545E-10  -9.99994092E-10   4.28780106E-07   7.13469183E-09  -5.41720913E-08  -9.95483829E-09  -5.73396282E-16  -6.31498654E-10   1.76927685E-08   1.29705939E-09   2.29562502E-08  -9.95328741E-09   0.00000000E+00   1.40621582E-10
   1.66250000E+03   5.00000000E-01   5.00000000E-01  -9.99996583E-09  -9.95057483E-10  -9.99979021E-10  -9.99994092E-10   4.14005048E-07   7.00526524E-09  -5.42009058E-08  -9.95656570E-09  -6.60020798E-16  -6.14958545E-10   1.77166552E-08   1.38176244E-09   2.24988528E-08  -9.95349628E-09   0.00000000E+00   1.38973319E-10
   1.69750000E+03   5.00000000E-01   5.00000000E-01  -9.99996503E-09  -9.94903204E-10  -9.99978459E-10  -9.99994092E-10   3.99646540E-07   6.87385557E-09  -5.42268963E-08  -9.95831902E-09  -7.59348953E-16  -5.97979546E-10   1.77352481E-08   1.46933346E-09   2.20552839E-08  -9.95372097E-09   0.00000000E+00   1.37386410E-10
   1.73250000E+03   5.00000000E-01   5.00000000E-01  -9.99996420E-09  -9.94745396E-10  -9.99977858E-10  -9.99994092E-10   3.85698441E-07   6.74213042E-09  -5.42539504E-08  -9.96008546E-09  -8.73132159E-16  -5.80575469E-10   1.77482374E-08   1.55987646E-09   2.16287576E-08  -9.95396124E-09   0.00000000E+00   1.35847817E-10
   1.76750000E+03   5.00000000E-01   5.00000000E-01  -9.99996331E-09  -9.94583982E-10  -9.99977217E-10  -9.99994092E-10   3.72153975E-07   6.61154787E-09  -5.42856008E-08  -9.96185346E-09  -1.00335360E-15  -5.62761187E-10   1.77553788E-08   1.65351159E-09   2.12219118E-08  -9.95421673E-09   0.00000000E+00   1.34345758E-10
   1.80250000E+03   5.00000000E-01   5.00000000E-01  -9.99996238E-09  -9.94418887E-10  -9.99976533E-10  -9.99994092E-10   3.59005857E-07   6.48335415E-09  -5.43250025E-08  -9.96361268E-09  -1.15225560E-15  -5.44552463E-10   1.77564885E-08   1.75037304E-09   2.08368285E-08  -9.95448697E-09   0.00000000E+00   1.32869740E-10
   1.83750000E+03   5.00000000E-01   5.00000000E-01  -9.99996138E-09  -9.94250036E-10  -9.99975805E-10  -9.99994092E-10   3.46246401E-07   6.35858941E-09  -5.43749235E-08  -9.96535401E-09  -1.32237648E-15  -5.25965842E-10   1.77514346E-08   1.85060658E-09   2.04750723E-08  -9.95477139E-09   0.00000000E+00   1.31410560E-10
   1.87250000E+03   5.00000000E-01   5.00000000E-01  -9.99996032E-09  -9.94077351E-10  -9.99975032E-10  -9.99994092E-10   3.33867622E-07   6.23809976E-09  -5.44377469E-08  -9.96706946E-09  -1.51658973E-15  -5.07018582E-10   1.77401276E-08   1.95436682E-09   2.01377413E-08  -9.95506936E-09   0.00000000E+00   1.29960273E-10
   1.90750000E+03   5.00000000E-01   5.00000000E-01  -9.99995917E-09  -9.93900754E-10  -9.99974212E-10  -9.99994092E-10   3.21861321E-07   6.12255332E-09  -5.45154823E-08  -9.96875217E-09  -1.73814675E-15  -4.87728632E-10   1.77225109E-08   2.06181442E-09   1.98255266E-08  -9.95538013E-09   0.00000000E+00   1.28512132E-10
   1.94250000E+03   5.00000000E-01   5.00000000E-01  -9.99995794E-09  -9.93720169E-10  -9.99973343E-10  -9.99994092E-10   3.10219160E-07   6.01245895E-09  -5.46097850E-08  -9.97039631E-09  -1.99072513E-15  -4.68114644E-10   1.76985508E-08   2.17311328E-09   1.95387758E-08  -9.95570294E-09   0.00000000E+00   1.27060510E-10
   1.97750000E+03   5.00000000E-01   5.00000000E-01  -9.99995661E-09  -9.93535515E-10  -9.99972424E-10  -9.99994092E-10   2.98932724E-07   5.90818598E-09  -5.47219801E-08  -9.97199699E-09  -2.27848469E-15  -4.48196011E-10   1.76682280E-08   2.28842782E-09   1.92775569E-08  -9.95603695E-09   0.00000000E+00   1.25600814E-10
   2.01250000E+03   5.00000000E-01   5.00000000E-01  -9.99995518E-09  -9.93346715E-10  -9.99971453E-10  -9.99994092E-10   2.87993583E-07   5.80998400E-09  -5.48530908E-08  -9.97355021E-09  -2.60612728E-15  -4.27992931E-10   1.76315305E-08   2.40792044E-09   1.90417203E-08  -9.95638131E-09   0.00000000E+00   1.24129381E-10
   2.04750000E+03   5.00000000E-01   5.00000000E-01  -9.99995362E-09  -9.93153687E-10  -9.99970430E-10  -9.99994092E-10   2.77393332E-07   5.71800189E-09  -5.50038681E-08  -9.97505275E-09  -2.97896454E-15  -4.07526476E-10   1.75884469E-08   2.53174909E-09   1.88309571E-08  -9.95673512E-09   0.00000000E+00   1.22643378E-10
   2.08250000E+03   5.00000000E-01   5.00000000E-01  -9.99995193E-09  -9.92956352E-10  -9.99969352E-10  -9.99994092E-10   2.67123630E-07   5.63230549E-09  -5.51748211E-08  -9.97650209E-09  -3.40299273E-15  -3.86818669E-10   1.75389623E-08   2.66006516E-09   1.86448509E-08  -9.95709749E-09   0.00000000E+00   1.21140703E-10
   2.11750000E+03   5.00000000E-01   5.00000000E-01  -9.99995010E-09  -9.92754627E-10  -9.99968219E-10  -9.99994092E-10   2.57176233E-07   5.55289374E-09  -5.53662483E-08  -9.97789637E-09  -3.88497471E-15  -3.65892561E-10   1.74830551E-08   2.79301147E-09   1.84829251E-08  -9.95746749E-09   0.00000000E+00   1.19619879E-10
   2.15250000E+03   5.00000000E-01   5.00000000E-01  -9.99994811E-09  -9.92548430E-10  -9.99967029E-10  -9.99994092E-10   2.47543017E-07   5.47971690E-09  -5.55782763E-08  -9.97923431E-09  -4.43253328E-15  -3.44772404E-10   1.74206947E-08   2.93072168E-09   1.83446775E-08  -9.95784426E-09   0.00000000E+00   1.18079933E-10
   2.18750000E+03   5.00000000E-01   5.00000000E-01  -9.99994595E-09  -9.92337676E-10  -9.99965782E-10  -9.99994092E-10   2.38215995E-07   5.41269611E-09  -5.58109088E-08  -9.98051509E-09  -5.05424731E-15  -3.23483641E-10   1.73518407E-08   3.07332116E-09   1.82296065E-08  -9.95822688E-09   0.00000000E+00   1.16520241E-10
   2.22250000E+03   5.00000000E-01   5.00000000E-01  -9.99994361E-09  -9.92122280E-10  -9.99964477E-10  -9.99994092E-10   2.29187334E-07   5.35174126E-09  -5.60640726E-08  -9.98173836E-09  -5.75976393E-15  -3.02053135E-10   1.72764421E-08   3.22092884E-09   1.81372293E-08  -9.95861444E-09   0.00000000E+00   1.14940392E-10
   2.25750000E+03   5.00000000E-01   5.00000000E-01  -9.99994108E-09  -9.91902152E-10  -9.99963112E-10  -9.99994092E-10   2.20449362E-07   5.29676482E-09  -5.63376560E-08  -9.98290413E-09  -6.55990768E-15  -2.80509384E-10   1.71944365E-08   3.37365893E-09   1.80670991E-08  -9.95900606E-09   0.00000000E+00   1.13340071E-10
   2.29250000E+03   5.00000000E-01   5.00000000E-01  -9.99993833E-09  -9.91677203E-10  -9.99961689E-10  -9.99994092E-10   2.11994573E-07   5.24768950E-09  -5.66315307E-08  -9.98401278E-09  -7.46680506E-15  -2.58882636E-10   1.71057497E-08   3.53162175E-09   1.80188214E-08  -9.95940091E-09   0.00000000E+00   1.11718994E-10
   2.32750000E+03   5.00000000E-01   5.00000000E-01  -9.99993536E-09  -9.91447338E-10  -9.99960206E-10  -9.99994092E-10   2.03815627E-07   5.20445032E-09  -5.69455576E-08  -9.98506496E-09  -8.49401062E-15  -2.37204989E-10   1.70102951E-08   3.69492288E-09   1.79920717E-08  -9.95979815E-09   0.00000000E+00   1.10076891E-10
   2.36250000E+03   5.00000000E-01   5.00000000E-01  -9.99993215E-09  -9.91212463E-10  -9.99958662E-10  -9.99994092E-10   1.95905353E-07   5.16699444E-09  -5.72795857E-08  -9.98606159E-09  -9.65664696E-15  -2.15510471E-10   1.69079742E-08   3.86366170E-09   1.79866119E-08  -9.96019699E-09   0.00000000E+00   1.08413510E-10
   2.39750000E+03   5.00000000E-01   5.00000000E-01  -9.99992869E-09  -9.90972479E-10  -9.99957059E-10  -9.99994092E-10   1.88256742E-07   5.13528124E-09  -5.76334521E-08  -9.98700382E-09  -1.09715435E-14  -1.93835089E-10   1.67986768E-08   4.03792966E-09   1.80023008E-08  -9.96059667E-09   0.00000000E+00   1.06728613E-10
   2.43250000E+03   5.00000000E-01   5.00000000E-01  -9.99992497E-09  -9.90727283E-10  -9.99955395E-10  -9.99994092E-10   1.80862943E-07   5.10928056E-09  -5.80069749E-08  -9.98789302E-09  -1.24573889E-14  -1.72216854E-10   1.66822827E-08   4.21780786E-09   1.80391048E-08  -9.96099644E-09   0.00000000E+00   1.05021999E-10
   2.46750000E+03   5.00000000E-01   5.00000000E-01  -9.99992098E-09  -9.90476772E-10  -9.99953672E-10  -9.99994092E-10   1.73717262E-07   5.08896959E-09  -5.83999427E-08  -9.98873070E-09  -1.41348824E-14  -1.50695780E-10   1.65586636E-08   4.40336357E-09   1.80971068E-08  -9.96139558E-09   0.00000000E+00   1.03293528E-10
   2.50250000E+03   5.00000000E-01   5.00000000E-01  -9.99991670E-09  -9.90220837E-10  -9.99951889E-10  -9.99994092E-10   1.66813149E-07   5.07432972E-09  -5.88121032E-08  -9.98951853E-09  -1.60268936E-14  -1.29313816E-10   1.64276853E-08   4.59464644E-09   1.81765121E-08  -9.96179342E-09   0.00000000E+00   1.01543153E-10
   2.53750000E+03   5.00000000E-01   5.00000000E-01  -9.99991214E-09  -9.89959368E-10  -9.99950047E-10  -9.99994092E-10   1.60144194E-07   5.06534419E-09  -5.92431538E-08  -9.99025829E-09  -1.81586215E-14  -1.08114759E-10   1.62892116E-08   4.79168460E-09   1.82776518E-08  -9.96218928E-09   0.00000000E+00   9.97709383E-11
   2.57250000E+03   5.00000000E-01   5.00000000E-01  -9.99990729E-09  -9.89692252E-10  -9.99948147E-10  -9.99994092E-10   1.53704119E-07   5.06199717E-09  -5.96927375E-08  -9.99095185E-09  -2.05577524E-14  -8.71441452E-11   1.61431077E-08   4.99448132E-09   1.84009817E-08  -9.96258255E-09   0.00000000E+00   9.79770721E-11
   2.60750000E+03   5.00000000E-01   5.00000000E-01  -9.99990214E-09  -9.89419370E-10  -9.99946190E-10  -9.99994092E-10   1.47486769E-07   5.06427426E-09  -6.01604423E-08  -9.99160113E-09  -2.32546105E-14  -6.64491250E-11   1.59892437E-08   5.20301218E-09   1.85470770E-08  -9.96297262E-09   0.00000000E+00   9.61618586E-11
   2.64250000E+03   5.00000000E-01   5.00000000E-01  -9.99989668E-09  -9.89140605E-10  -9.99944177E-10  -9.99994092E-10   1.41486107E-07   5.07216415E-09  -6.06458045E-08  -9.99220812E-09  -2.62822977E-14  -4.60783377E-11   1.58274989E-08   5.41722303E-09   1.87166239E-08  -9.96335891E-09   0.00000000E+00   9.43257037E-11
   2.67750000E+03   5.00000000E-01   5.00000000E-01  -9.99989091E-09  -9.88855830E-10  -9.99942109E-10  -9.99994092E-10   1.35696196E-07   5.08566994E-09  -6.11483410E-08  -9.99277480E-09  -2.96767981E-14  -2.60819758E-11   1.56577628E-08   5.63703304E-09   1.89103961E-08  -9.96374088E-09   0.00000000E+00   9.24690209E-11
   2.71250000E+03   5.00000000E-01   5.00000000E-01  -9.99988480E-09  -9.88564919E-10  -9.99939988E-10  -9.99994092E-10   1.30111206E-07   5.10481631E-09  -6.16675669E-08  -9.99330316E-09  -3.34770488E-14  -6.51179423E-12   1.54799369E-08   5.86233656E-09   1.91292328E-08  -9.96411802E-09   0.00000000E+00   9.05921741E-11
   2.74750000E+03   5.00000000E-01   5.00000000E-01  -9.99987780E-09  -9.88267740E-10  -9.99937816E-10  -9.99994092E-10   1.24725400E-07   5.12965161E-09  -6.22029997E-08  -9.99379519E-09  -3.77249797E-14   1.25796989E-11   1.52939362E-08   6.09300272E-09   1.93740220E-08  -9.96448984E-09   0.00000000E+00   8.86954661E-11
   2.78250000E+03   5.00000000E-01   5.00000000E-01  -9.99987024E-09  -9.87964154E-10  -9.99935593E-10  -9.99994092E-10   1.19533127E-07   5.16024745E-09  -6.27541531E-08  -9.99425285E-09  -4.24654993E-14   3.11375210E-11   1.50996925E-08   6.32887408E-09   1.96456840E-08  -9.96485590E-09   0.00000000E+00   8.67791505E-11
   2.81750000E+03   5.00000000E-01   5.00000000E-01  -9.99986209E-09  -9.87654022E-10  -9.99933321E-10  -9.99994092E-10   1.14528815E-07   5.19669721E-09  -6.33205297E-08  -9.99467804E-09  -4.77464382E-14   4.91056257E-11   1.48971567E-08   6.56976429E-09   1.99451539E-08  -9.96521578E-09   0.00000000E+00   8.48434517E-11
   2.85250000E+03   5.00000000E-01   5.00000000E-01  -9.99985330E-09  -9.87337198E-10  -9.99931003E-10  -9.99994092E-10   1.09706970E-07   5.23911434E-09  -6.39016118E-08  -9.99507266E-09  -5.36184230E-14   6.64275421E-11   1.46863021E-08   6.81545576E-09   2.02733631E-08  -9.96556910E-09   0.00000000E+00   8.28885872E-11
   2.88750000E+03   5.00000000E-01   5.00000000E-01  -9.99984380E-09  -9.87013529E-10  -9.99928641E-10  -9.99994092E-10   1.05062169E-07   5.28763078E-09  -6.44968527E-08  -9.99543850E-09  -6.01346610E-14   8.30463205E-11   1.44671281E-08   7.06569737E-09   2.06312175E-08  -9.96591551E-09   0.00000000E+00   8.09147899E-11
   2.92250000E+03   5.00000000E-01   5.00000000E-01  -9.99983354E-09  -9.86682862E-10  -9.99926236E-10  -9.99994092E-10   1.00589057E-07   5.34239546E-09  -6.51056693E-08  -9.99577735E-09  -6.73506470E-14   9.89049150E-11   1.42396631E-08   7.32020254E-09   2.10195732E-08  -9.96625469E-09   0.00000000E+00   7.89223277E-11
   2.95750000E+03   5.00000000E-01   5.00000000E-01  -9.99982245E-09  -9.86345035E-10  -9.99923790E-10  -9.99994092E-10   9.62823439E-08   5.40357303E-09  -6.57274348E-08  -9.99609091E-09  -7.53237578E-14   1.13946611E-10   1.40039692E-08   7.57864740E-09   2.14392105E-08  -9.96658634E-09   0.00000000E+00   7.69115212E-11
   2.99250000E+03   5.00000000E-01   5.00000000E-01  -9.99981045E-09  -9.85999884E-10  -9.99921306E-10  -9.99994092E-10   9.21368032E-08   5.47134293E-09  -6.63614738E-08  -9.99638080E-09  -8.41127359E-14   1.28115493E-10   1.37601446E-08   7.84066966E-09   2.18908037E-08  -9.96691021E-09   0.00000000E+00   7.48827591E-11
   3.02750000E+03   5.00000000E-01   5.00000000E-01  -9.99979749E-09  -9.85647238E-10  -9.99918784E-10  -9.99994092E-10   8.81472699E-08   5.54589857E-09  -6.70070581E-08  -9.99664860E-09  -9.37770451E-14   1.41356951E-10   1.35083277E-08   8.10586792E-09   2.23748904E-08  -9.96722606E-09   0.00000000E+00   7.28365094E-11
   3.06250000E+03   5.00000000E-01   5.00000000E-01  -9.99978346E-09  -9.85286925E-10  -9.99916229E-10  -9.99994092E-10   8.43086387E-08   5.62744685E-09  -6.76634040E-08  -9.99689581E-09  -1.04376090E-13   1.53618204E-10   1.32486997E-08   8.37380162E-09   2.28918370E-08  -9.96753368E-09   0.00000000E+00   7.07733291E-11
   3.09750000E+03   5.00000000E-01   5.00000000E-01  -9.99976830E-09  -9.84918765E-10  -9.99913640E-10  -9.99994092E-10   8.06158637E-08   5.71620784E-09  -6.83296716E-08  -9.99712384E-09  -1.15968295E-13   1.64848859E-10   1.29814871E-08   8.64399181E-09   2.34418042E-08  -9.96783291E-09   0.00000000E+00   6.86938703E-11
   3.13250000E+03   5.00000000E-01   5.00000000E-01  -9.99975192E-09  -9.84542575E-10  -9.99911020E-10  -9.99994092E-10   7.70639569E-08   5.81241467E-09  -6.90049650E-08  -9.99733406E-09  -1.28610031E-13   1.75001459E-10   1.27069641E-08   8.91592254E-09   2.40247101E-08  -9.96812360E-09   0.00000000E+00   6.65988844E-11
   3.16750000E+03   5.00000000E-01   5.00000000E-01  -9.99973420E-09  -9.84158167E-10  -9.99908370E-10  -9.99994092E-10   7.36479882E-08   5.91631345E-09  -6.96883335E-08  -9.99752773E-09  -1.42354405E-13   1.84032058E-10   1.24254534E-08   9.18904305E-09   2.46401944E-08  -9.96840561E-09   0.00000000E+00   6.44892247E-11