 TITLE = "Mineral Rate (mol/m^3/sec)" 
VARIABLES = "X"          "Y"              "Z"            "Forsterite"     "Enstatite(alph" "Anorthite"      "Ferropargasite" "Anhydrite"      "Clinochlore"    "Albite(low)"    "Fayalite"       "Epidote"        "Kaolinite"      "Muscovite(orde" "Sudoite"        "Saponite(Mg)"   "Scolecite"      "Pyrite"         "Quartz(alpha)" 
 ZONE I=         100 , J=           1 , K=           1  F=POINT
   1.75000000E+01   5.00000000E-01   5.00000000E-01  -9.98357619E-09  -9.99044596E-10  -9.89439099E-10  -9.95803701E-10   0.00000000E+00   1.90623059E-08  -6.45726854E-08  -9.82637297E-09   2.26665975E-17  -8.88284103E-10   9.60378897E-09   0.00000000E+00   1.34917903E-08  -8.70772379E-11   0.00000000E+00   2.30795002E-10
   5.25000000E+01   5.00000000E-01   5.00000000E-01  -9.98357620E-09  -9.99019946E-10  -9.89439099E-10  -9.95803701E-10   0.00000000E+00   8.61094878E-09  -5.03520342E-08  -9.82569316E-09  -4.65958280E-17  -8.84807306E-10   1.18222153E-08   0.00000000E+00   1.34529455E-08  -8.73025165E-11   0.00000000E+00   3.01573684E-10
   8.75000000E+01   5.00000000E-01   5.00000000E-01  -9.98357619E-09  -9.98981814E-10  -9.89439099E-10  -9.95803701E-10   0.00000000E+00   5.31543534E-09  -4.32984300E-08  -9.82472261E-09  -5.46334874E-17  -8.83424585E-10   1.13184740E-08   0.00000000E+00   1.65300524E-08  -8.74712029E-11   0.00000000E+00   3.37503590E-10
   1.22500000E+02   5.00000000E-01   5.00000000E-01  -9.98357619E-09  -9.98939659E-10  -9.89439098E-10  -9.95803701E-10   0.00000000E+00   3.95531580E-09  -3.94192156E-08  -9.82349040E-09  -5.53467302E-17  -8.82250468E-10   1.07773489E-08   0.00000000E+00   1.78900348E-08  -8.76430955E-11   0.00000000E+00   3.55579380E-10
   1.57500000E+02   5.00000000E-01   5.00000000E-01  -9.98357618E-09  -9.98895048E-10  -9.89439098E-10  -9.95803701E-10   0.00000000E+00   3.29254548E-09  -3.72538295E-08  -9.82202047E-09  -5.47797171E-17  -8.81004552E-10   1.04063137E-08   0.00000000E+00   1.86874994E-08  -8.78285292E-11   0.00000000E+00   3.63494846E-10
   1.92500000E+02   5.00000000E-01   5.00000000E-01  -9.98357616E-09  -9.98848435E-10  -9.89439097E-10  -9.95803701E-10   0.00000000E+00   2.94685787E-09  -3.60979755E-08  -9.82033598E-09  -5.41442078E-17  -8.79622245E-10   1.01851164E-08   0.00000000E+00   1.92661812E-08  -8.80308311E-11   0.00000000E+00   3.65261960E-10
   2.27500000E+02   5.00000000E-01   5.00000000E-01  -9.98357615E-09  -9.98799968E-10  -9.89439096E-10  -9.95803701E-10   0.00000000E+00   2.76930746E-09  -3.55750929E-08  -9.81845977E-09  -5.38611276E-17  -8.78087985E-10   1.00734707E-08   0.00000000E+00   1.97500848E-08  -8.82515656E-11   0.00000000E+00   3.63167261E-10
   2.62500000E+02   5.00000000E-01   5.00000000E-01  -9.98357613E-09  -9.98749688E-10  -9.89439095E-10  -9.95803701E-10   0.00000000E+00   2.69128265E-09  -3.54685538E-08  -9.81641406E-09  -5.40435950E-17  -8.76398577E-10   1.00389832E-08   0.00000000E+00   2.01914782E-08  -8.84918799E-11   0.00000000E+00   3.58591162E-10
   2.97500000E+02   5.00000000E-01   5.00000000E-01  -9.98357611E-09  -9.98697589E-10  -9.89439094E-10  -9.95803701E-10   0.00000000E+00   2.67738836E-09  -3.56465867E-08  -9.81422015E-09  -5.46764045E-17  -8.74553552E-10   1.00585393E-08   0.00000000E+00   2.06149607E-08  -8.87529902E-11   0.00000000E+00   3.52401201E-10
   3.32500000E+02   5.00000000E-01   5.00000000E-01  -9.98357609E-09  -9.98644537E-10  -9.89439082E-10  -9.95803701E-10  -1.36686413E-05   2.56360783E-09  -3.54123493E-08  -9.81344350E-09   3.93514485E-16  -8.72411424E-10   1.00635243E-08   0.00000000E+00   2.05400131E-08  -8.89705662E-11   0.00000000E+00   3.49717090E-10
   3.67500000E+02   5.00000000E-01   5.00000000E-01  -9.98357606E-09  -9.98589262E-10  -9.89439067E-10  -9.95803701E-10  -1.07971087E-05   2.53810013E-09  -3.56484350E-08  -9.81241097E-09   4.59559146E-17  -8.70171449E-10   1.00934063E-08   0.00000000E+00   2.11081651E-08  -8.90692748E-11   0.00000000E+00   3.44386992E-10
   4.02500000E+02   5.00000000E-01   5.00000000E-01  -9.98357603E-09  -9.98531528E-10  -9.89439058E-10  -9.95803701E-10  -1.42685655E-06   2.63990463E-09  -3.64234107E-08  -9.81048529E-09  -8.22666371E-19  -8.67829484E-10   1.01963646E-08   0.00000000E+00   2.18668677E-08  -8.91458126E-11   0.00000000E+00   3.35368684E-10
   4.37500000E+02   5.00000000E-01   5.00000000E-01  -9.98357599E-09  -9.98471813E-10  -9.89439049E-10  -9.95803701E-10   6.06588176E-07   2.77926203E-09  -3.72936182E-08  -9.80829726E-09  -6.85318461E-18  -8.65303974E-10   1.03363584E-08   0.00000000E+00   2.23568695E-08  -8.92169973E-11   0.00000000E+00   3.25696495E-10
   4.72500000E+02   5.00000000E-01   5.00000000E-01  -9.98357595E-09  -9.98410104E-10  -9.89439039E-10  -9.95803701E-10   9.54129084E-07   2.93314511E-09  -3.81956079E-08  -9.80600273E-09  -8.79893480E-18  -8.62613436E-10   1.04835767E-08   0.00000000E+00   2.27901693E-08  -8.92852089E-11   0.00000000E+00   3.16038220E-10
   5.07500000E+02   5.00000000E-01   5.00000000E-01  -9.98357591E-09  -9.98346355E-10  -9.89439027E-10  -9.95803701E-10   1.01121678E-06   3.09728235E-09  -3.91171475E-08  -9.80363938E-09  -1.01680085E-17  -8.59760360E-10   1.06309622E-08   0.00000000E+00   2.32182017E-08  -8.93507584E-11   0.00000000E+00   3.06518288E-10
   5.42500000E+02   5.00000000E-01   5.00000000E-01  -9.98357586E-09  -9.98280522E-10  -9.89439014E-10  -9.95803701E-10   1.01065095E-06   3.27076976E-09  -4.00526713E-08  -9.80122245E-09  -1.15197450E-17  -8.56742141E-10   1.07765106E-08   0.00000000E+00   2.36475845E-08  -8.94134950E-11   0.00000000E+00   2.97170383E-10
   5.77500000E+02   5.00000000E-01   5.00000000E-01  -9.98357580E-09  -9.98212560E-10  -9.89438998E-10  -9.95803701E-10   9.97944710E-07   3.45328971E-09  -4.09979162E-08  -9.79876174E-09  -1.29962528E-17  -8.53555524E-10   1.09191772E-08   0.00000000E+00   2.40768441E-08  -8.94732047E-11   0.00000000E+00   2.88010599E-10
   6.12500000E+02   5.00000000E-01   5.00000000E-01  -9.98357573E-09  -9.98142423E-10  -9.89438980E-10  -9.95803701E-10   9.81919388E-07   3.64453079E-09  -4.19486841E-08  -9.79626571E-09  -1.46422960E-17  -8.50197298E-10   1.10581621E-08   0.00000000E+00   2.45025038E-08  -8.95296901E-11   0.00000000E+00   2.79051727E-10
   6.47500000E+02   5.00000000E-01   5.00000000E-01  -9.98357566E-09  -9.98070066E-10  -9.89438959E-10  -9.95803701E-10   9.64369126E-07   3.84404658E-09  -4.29006169E-08  -9.79374262E-09  -1.64892807E-17  -8.46664374E-10   1.11927779E-08   0.00000000E+00   2.49204168E-08  -8.95827868E-11   0.00000000E+00   2.70306004E-10
   6.82500000E+02   5.00000000E-01   5.00000000E-01  -9.98357558E-09  -9.97995446E-10  -9.89438934E-10  -9.95803701E-10   9.45764211E-07   4.05120692E-09  -4.38491821E-08  -9.79120089E-09  -1.85660550E-17  -8.42953717E-10   1.13224397E-08   0.00000000E+00   2.53261008E-08  -8.96323695E-11   0.00000000E+00   2.61785586E-10
   7.17500000E+02   5.00000000E-01   5.00000000E-01  -9.98357548E-09  -9.97918520E-10  -9.89438906E-10  -9.95803701E-10   9.26322117E-07   4.26517109E-09  -4.47897096E-08  -9.78864931E-09  -2.09048774E-17  -8.39062209E-10   1.14466800E-08   0.00000000E+00   2.57148723E-08  -8.96783580E-11   0.00000000E+00   2.53502527E-10
   7.52500000E+02   5.00000000E-01   5.00000000E-01  -9.98357538E-09  -9.97839889E-10  -9.89438873E-10  -9.95803701E-10   9.06205043E-07   4.52071296E-09  -4.55971677E-08  -9.78610601E-09  -2.22714642E-17  -8.34523435E-10   1.16863359E-08  -1.37802003E-10   2.60666681E-08  -8.97184754E-11   0.00000000E+00   2.45317527E-10
   7.87500000E+02   5.00000000E-01   5.00000000E-01  -9.98357527E-09  -9.97757508E-10  -9.89438837E-10  -9.95803701E-10   8.85549844E-07   4.71347542E-09  -4.66563884E-08  -9.78354047E-09  -2.77277927E-17  -8.30745238E-10   1.16709140E-08   1.19454564E-11   2.64004483E-08  -8.97550663E-11   0.00000000E+00   2.37606532E-10
   8.22500000E+02   5.00000000E-01   5.00000000E-01  -9.98357514E-09  -9.97673340E-10  -9.89438796E-10  -9.95803701E-10   8.64488610E-07   4.93425867E-09  -4.75521199E-08  -9.78101960E-09  -3.01453432E-17  -8.26346710E-10   1.17621781E-08   2.66358761E-11   2.67324245E-08  -8.97878621E-11   0.00000000E+00   2.30146441E-10
   8.57500000E+02   5.00000000E-01   5.00000000E-01  -9.98357500E-09  -9.97586706E-10  -9.89438748E-10  -9.95803701E-10   8.43132201E-07   5.15537312E-09  -4.84194611E-08  -9.77853160E-09  -3.40560992E-17  -8.21756056E-10   1.18475202E-08   4.28783957E-11   2.70117935E-08  -8.98168413E-11   0.00000000E+00   2.22969560E-10
   8.92500000E+02   5.00000000E-01   5.00000000E-01  -9.98357484E-09  -9.97497566E-10  -9.89438695E-10  -9.95803701E-10   8.21583907E-07   5.37448411E-09  -4.92556335E-08  -9.77608857E-09  -3.85288935E-17  -8.16973330E-10   1.19259545E-08   6.07478042E-11   2.72519312E-08  -8.98420973E-11   0.00000000E+00   2.16084331E-10
   9.27500000E+02   5.00000000E-01   5.00000000E-01  -9.98357466E-09  -9.97405885E-10  -9.89438634E-10  -9.95803701E-10   7.99935763E-07   5.58937713E-09  -5.00566009E-08  -9.77370366E-09  -4.36389745E-17  -8.11992325E-10   1.19979050E-08   8.03280055E-11   2.74492302E-08  -8.98637560E-11   0.00000000E+00   2.09497783E-10
   9.62500000E+02   5.00000000E-01   5.00000000E-01  -9.98357447E-09  -9.97311634E-10  -9.89438567E-10  -9.95803701E-10   7.78269654E-07   5.79771427E-09  -5.08186333E-08  -9.77139066E-09  -4.94870963E-17  -8.06805425E-10   1.20639574E-08   1.01696921E-10   2.76003429E-08  -8.98819709E-11   0.00000000E+00   2.03215560E-10
   9.97500000E+02   5.00000000E-01   5.00000000E-01  -9.98357426E-09  -9.97214785E-10  -9.89438490E-10  -9.95803701E-10   7.56658108E-07   5.99708932E-09  -5.15383948E-08  -9.76916382E-09  -5.61917774E-17  -8.01403552E-10   1.21248213E-08   1.24925478E-10   2.77024644E-08  -8.98969164E-11   0.00000000E+00   1.97241735E-10
   1.03250000E+03   5.00000000E-01   5.00000000E-01  -9.98357402E-09  -9.97115312E-10  -9.89438405E-10  -9.95803701E-10   7.35165017E-07   6.18509548E-09  -5.22130069E-08  -9.76703769E-09  -6.38897261E-17  -7.95776134E-10   1.21812984E-08   1.50076981E-10   2.77534064E-08  -8.99087812E-11   0.00000000E+00   1.91578647E-10
   1.06750000E+03   5.00000000E-01   5.00000000E-01  -9.98357377E-09  -9.97013190E-10  -9.89438310E-10  -9.95803701E-10   7.13846332E-07   6.35939969E-09  -5.28401030E-08  -9.76502680E-09  -7.27406725E-17  -7.89911142E-10   1.22342446E-08   1.77206675E-10   2.77516593E-08  -8.99177601E-11   0.00000000E+00   1.86226783E-10
   1.10250000E+03   5.00000000E-01   5.00000000E-01  -9.98357349E-09  -9.96908398E-10  -9.89438204E-10  -9.95803701E-10   6.92750730E-07   6.51782014E-09  -5.34178741E-08  -9.76314537E-09  -8.29285760E-17  -7.83795219E-10   1.22845285E-08   2.06361484E-10   2.76964437E-08  -8.99240463E-11   0.00000000E+00   1.81184682E-10
   1.13750000E+03   5.00000000E-01   5.00000000E-01  -9.98357318E-09  -9.96800910E-10  -9.89438086E-10  -9.95803701E-10   6.71920247E-07   6.65840300E-09  -5.39451039E-08  -9.76140702E-09  -9.46675930E-17  -7.77413894E-10   1.23329876E-08   2.37579891E-10   2.75877487E-08  -8.99278227E-11   0.00000000E+00   1.76448881E-10
   1.17250000E+03   5.00000000E-01   5.00000000E-01  -9.98357285E-09  -9.96690705E-10  -9.89437955E-10  -9.95803701E-10   6.51390887E-07   6.77949397E-09  -5.44211935E-08  -9.75982443E-09  -1.08204995E-16  -7.70751884E-10   1.23803863E-08   2.70891948E-10   2.74263566E-08  -8.99292551E-11   0.00000000E+00   1.72013898E-10
   1.20750000E+03   5.00000000E-01   5.00000000E-01  -9.98357249E-09  -9.96577758E-10  -9.89437811E-10  -9.95803701E-10   6.31193184E-07   6.87980031E-09  -5.48461731E-08  -9.75840897E-09  -1.23824358E-16  -7.63793467E-10   1.24273775E-08   3.06319409E-10   2.72138516E-08  -8.99284856E-11   0.00000000E+00   1.67872253E-10
   1.24250000E+03   5.00000000E-01   5.00000000E-01  -9.98357209E-09  -9.96462043E-10  -9.89437652E-10  -9.95803701E-10   6.11352735E-07   6.95843936E-09  -5.52207016E-08  -9.75717045E-09  -1.41856296E-16  -7.56522905E-10   1.24744713E-08   3.43876005E-10   2.69526095E-08  -8.99256276E-11   0.00000000E+00   1.64014524E-10
   1.27750000E+03   5.00000000E-01   5.00000000E-01  -9.98357167E-09  -9.96343530E-10  -9.89437477E-10  -9.95803701E-10   5.91890685E-07   7.01497032E-09  -5.55460532E-08  -9.75611685E-09  -1.62676547E-16  -7.48924905E-10   1.25220124E-08   3.83567901E-10   2.66457673E-08  -8.99207637E-11   0.00000000E+00   1.60429451E-10
   1.31250000E+03   5.00000000E-01   5.00000000E-01  -9.98357122E-09  -9.96222188E-10  -9.89437285E-10  -9.95803701E-10   5.72824192E-07   7.04940678E-09  -5.58240887E-08  -9.75525410E-09  -1.86718966E-16  -7.40985070E-10   1.25701675E-08   4.25394385E-10   2.62971702E-08  -8.99139440E-11   0.00000000E+00   1.57104077E-10
   1.34750000E+03   5.00000000E-01   5.00000000E-01  -9.98357073E-09  -9.96097979E-10  -9.89437075E-10  -9.95803701E-10   5.54166833E-07   7.06220931E-09  -5.60572143E-08  -9.75458597E-09  -2.14477879E-16  -7.32690337E-10   1.26189244E-08   4.69348846E-10   2.59112951E-08  -8.99051876E-11   0.00000000E+00   1.54023933E-10
   1.38250000E+03   5.00000000E-01   5.00000000E-01  -9.98357020E-09  -9.95970863E-10  -9.89436845E-10  -9.95803701E-10   5.35928997E-07   7.05425838E-09  -5.62483261E-08  -9.75411403E-09  -2.46519658E-16  -7.24029343E-10   1.26681010E-08   5.15420085E-10   2.54931517E-08  -8.98944861E-11   0.00000000E+00   1.51173259E-10
   1.41750000E+03   5.00000000E-01   5.00000000E-01  -9.98356964E-09  -9.95840795E-10  -9.89436595E-10  -9.95803701E-10   5.18118232E-07   7.02680957E-09  -5.64007426E-08  -9.75383764E-09  -2.83488339E-16  -7.14992727E-10   1.27173642E-08   5.63593957E-10   2.50481633E-08  -8.98818077E-11   0.00000000E+00   1.48535257E-10
   1.45250000E+03   5.00000000E-01   5.00000000E-01  -9.98356905E-09  -9.95707724E-10  -9.89436323E-10  -9.95803701E-10   5.00739565E-07   6.98143438E-09  -5.65181267E-08  -9.75375411E-09  -3.26116633E-16  -7.05573327E-10   1.27662568E-08   6.13855313E-10   2.45820314E-08  -8.98671033E-11   0.00000000E+00   1.46092379E-10
   1.48750000E+03   5.00000000E-01   5.00000000E-01  -9.98356842E-09  -9.95571595E-10  -9.89436027E-10  -9.95803701E-10   4.83795799E-07   6.91995059E-09  -5.66044009E-08  -9.75385880E-09  -3.75235804E-16  -6.95766279E-10   1.28142282E-08   6.66190164E-10   2.41005902E-08  -8.98503134E-11   0.00000000E+00   1.43826619E-10
   1.52250000E+03   5.00000000E-01   5.00000000E-01  -9.98356775E-09  -9.95432348E-10  -9.89435707E-10  -9.95803701E-10   4.67287779E-07   6.84434727E-09  -5.66636569E-08  -9.75414540E-09  -4.31787604E-16  -6.85569014E-10   1.28606691E-08   7.20587928E-10   2.36096591E-08  -8.98313741E-11   0.00000000E+00   1.41719825E-10
   1.55750000E+03   5.00000000E-01   5.00000000E-01  -9.98356705E-09  -9.95289920E-10  -9.89435361E-10  -9.95803701E-10   4.51214636E-07   6.75670888E-09  -5.67000652E-08  -9.75460613E-09  -4.96838700E-16  -6.74981161E-10   1.29049449E-08   7.77043602E-10   2.31148992E-08  -8.98102244E-11   0.00000000E+00   1.39753996E-10
   1.59250000E+03   5.00000000E-01   5.00000000E-01  -9.98356632E-09  -9.95144244E-10  -9.89434988E-10  -9.95803701E-10   4.35574014E-07   6.65914331E-09  -5.67177878E-08  -9.75523203E-09  -5.71595233E-16  -6.64004378E-10   1.29464261E-08   8.35559712E-10   2.26216845E-08  -8.97868110E-11   0.00000000E+00   1.37911568E-10
   1.62750000E+03   5.00000000E-01   5.00000000E-01  -9.98356555E-09  -9.94995251E-10  -9.89434587E-10  -9.95803701E-10   4.20362273E-07   6.55371734E-09  -5.67208965E-08  -9.75601325E-09  -6.57421870E-16  -6.52642132E-10   1.29845150E-08   8.96147867E-10   2.21349908E-08  -8.97610938E-11   0.00000000E+00   1.36175668E-10
   1.66250000E+03   5.00000000E-01   5.00000000E-01  -9.98356475E-09  -9.94842868E-10  -9.89434156E-10  -9.95803701E-10   4.05574680E-07   6.44240223E-09  -5.67133009E-08  -9.75693927E-09  -7.55860059E-16  -6.40899449E-10   1.30186656E-08   9.58829821E-10   2.16593106E-08  -8.97330486E-11   0.00000000E+00   1.34530332E-10
   1.69750000E+03   5.00000000E-01   5.00000000E-01  -9.98356392E-09  -9.94687022E-10  -9.89433694E-10  -9.95803701E-10   3.91205576E-07   6.32703106E-09  -5.66986879E-08  -9.75799915E-09  -8.68654531E-16  -6.28782654E-10   1.30483983E-08   1.02363796E-09   2.11985934E-08  -8.97026700E-11   0.00000000E+00   1.32960689E-10
   1.73250000E+03   5.00000000E-01   5.00000000E-01  -9.98356304E-09  -9.94527637E-10  -9.89433199E-10  -9.95803701E-10   3.77248536E-07   6.20926824E-09  -5.66804736E-08  -9.75918173E-09  -9.97778100E-16  -6.16299132E-10   1.30733070E-08   1.09061520E-09   2.07562148E-08  -8.96699721E-11   0.00000000E+00   1.31453083E-10
   1.76750000E+03   5.00000000E-01   5.00000000E-01  -9.98356211E-09  -9.94364636E-10  -9.89432671E-10  -9.95803701E-10   3.63696506E-07   6.09059070E-09  -5.66617690E-08  -9.76047582E-09  -1.14546349E-15  -6.03457110E-10   1.30930625E-08   1.15981436E-09   2.03349707E-08  -8.96349885E-11   0.00000000E+00   1.29995165E-10
   1.80250000E+03   5.00000000E-01   5.00000000E-01  -9.98356113E-09  -9.94197944E-10  -9.89432108E-10  -9.95803701E-10   3.50541936E-07   5.97227956E-09  -5.66453582E-08  -9.76187030E-09  -1.31423930E-15  -5.90265483E-10   1.31074092E-08   1.23129699E-09   1.99370945E-08  -8.95977719E-11   0.00000000E+00   1.28575931E-10
   1.83750000E+03   5.00000000E-01   5.00000000E-01  -9.98356009E-09  -9.94027482E-10  -9.89431508E-10  -9.95803701E-10   3.37776890E-07   5.85542067E-09  -5.66336890E-08  -9.76335425E-09  -1.50696912E-15  -5.76733677E-10   1.31161602E-08   1.30513193E-09   1.95642924E-08  -8.95583922E-11   0.00000000E+00   1.27185727E-10
   1.87250000E+03   5.00000000E-01   5.00000000E-01  -9.98355897E-09  -9.93853174E-10  -9.89430872E-10  -9.95803701E-10   3.25393146E-07   5.74091212E-09  -5.66288737E-08  -9.76491702E-09  -1.72689770E-15  -5.62871564E-10   1.31191891E-08   1.38139345E-09   1.92177933E-08  -8.95169351E-11   0.00000000E+00   1.25816209E-10
   1.90750000E+03   5.00000000E-01   5.00000000E-01  -9.98355778E-09  -9.93674941E-10  -9.89430196E-10  -9.95803701E-10   3.13382288E-07   5.62947687E-09  -5.66326990E-08  -9.76654829E-09  -1.97770318E-15  -5.48689412E-10   1.31164208E-08   1.46015937E-09   1.88984066E-08  -8.94734996E-11   0.00000000E+00   1.24460287E-10
   1.94250000E+03   5.00000000E-01   5.00000000E-01  -9.98355650E-09  -9.93492706E-10  -9.89429481E-10  -9.95803701E-10   3.01735781E-07   5.52167873E-09  -5.66466430E-08  -9.76823809E-09  -2.26355553E-15  -5.34197874E-10   1.31078219E-08   1.54150906E-09   1.86065862E-08  -8.94281960E-11   0.00000000E+00   1.23112041E-10
   1.97750000E+03   5.00000000E-01   5.00000000E-01  -9.98355511E-09  -9.93306391E-10  -9.89428724E-10  -9.95803701E-10   2.90445041E-07   5.41794028E-09  -5.66718971E-08  -9.76997684E-09  -2.58918051E-15  -5.19408009E-10   1.30933915E-08   1.62552146E-09   1.83424945E-08  -8.93811439E-11   0.00000000E+00   1.21766624E-10
   2.01250000E+03   5.00000000E-01   5.00000000E-01  -9.98355362E-09  -9.93115918E-10  -9.89427926E-10  -9.95803701E-10   2.79501483E-07   5.31856141E-09  -5.67093914E-08  -9.77175538E-09  -2.95993578E-15  -5.04331321E-10   1.30731525E-08   1.71227322E-09   1.81060655E-08  -8.93324698E-11   0.00000000E+00   1.20420154E-10
   2.04750000E+03   5.00000000E-01   5.00000000E-01  -9.98355201E-09  -9.92921209E-10  -9.89427085E-10  -9.95803701E-10   2.68896579E-07   5.22373767E-09  -5.67598225E-08  -9.77356494E-09  -3.38189207E-15  -4.88979825E-10   1.30471445E-08   1.80183698E-09   1.78970633E-08  -8.92823058E-11   0.00000000E+00   1.19069603E-10
   2.08250000E+03   5.00000000E-01   5.00000000E-01  -9.98355026E-09  -9.92722185E-10  -9.89426199E-10  -9.95803701E-10   2.58621885E-07   5.13357764E-09  -5.68236814E-08  -9.77539715E-09  -3.86192627E-15  -4.73366114E-10   1.30154176E-08   1.89427988E-09   1.77151366E-08  -8.92307873E-11   0.00000000E+00   1.17712687E-10
   2.11750000E+03   5.00000000E-01   5.00000000E-01  -9.98354837E-09  -9.92518766E-10  -9.89425269E-10  -9.95803701E-10   2.48669082E-07   5.04811898E-09  -5.69012816E-08  -9.77724408E-09  -4.40782291E-15  -4.57503439E-10   1.29780270E-08   1.98966214E-09   1.75598656E-08  -8.91780522E-11   0.00000000E+00   1.16347757E-10
   2.15250000E+03   5.00000000E-01   5.00000000E-01  -9.98354633E-09  -9.92310872E-10  -9.89424294E-10  -9.95803701E-10   2.39029993E-07   4.96734295E-09  -5.69927860E-08  -9.77909821E-09  -5.02838885E-15  -4.41405875E-10   1.29350299E-08   2.08803599E-09   1.74308040E-08  -8.91242411E-11   0.00000000E+00   1.14973699E-10
   2.18750000E+03   5.00000000E-01   5.00000000E-01  -9.98354411E-09  -9.92098422E-10  -9.89423272E-10  -9.95803701E-10   2.29696601E-07   4.89118710E-09  -5.70982318E-08  -9.78095244E-09  -5.73358179E-15  -4.25088217E-10   1.28864819E-08   2.18944466E-09   1.73275138E-08  -8.90694922E-11   0.00000000E+00   1.13589835E-10
   2.22250000E+03   5.00000000E-01   5.00000000E-01  -9.98354172E-09  -9.91881335E-10  -9.89422205E-10  -9.95803701E-10   2.20661064E-07   4.81955647E-09  -5.72175548E-08  -9.78280011E-09  -6.53464574E-15  -4.08566133E-10   1.28324360E-08   2.29392167E-09   1.72495952E-08  -8.90139406E-11   0.00000000E+00   1.12195842E-10
   2.25750000E+03   5.00000000E-01   5.00000000E-01  -9.98353913E-09  -9.91659526E-10  -9.89421090E-10  -9.95803701E-10   2.11915724E-07   4.75233302E-09  -5.73506104E-08  -9.78463499E-09  -7.44426836E-15  -3.91856315E-10   1.27729410E-08   2.40149027E-09   1.71967098E-08  -8.89577218E-11   0.00000000E+00   1.10791667E-10
   2.29250000E+03   5.00000000E-01   5.00000000E-01  -9.98353633E-09  -9.91432913E-10  -9.89419928E-10  -9.95803701E-10   2.03453102E-07   4.68938370E-09  -5.74971924E-08  -9.78645127E-09  -8.47674434E-15  -3.74976512E-10   1.27080411E-08   2.51216298E-09   1.71686002E-08  -8.89009687E-11   0.00000000E+00   1.09377466E-10
   2.32750000E+03   5.00000000E-01   5.00000000E-01  -9.98353331E-09  -9.91201408E-10  -9.89418719E-10  -9.95803701E-10   1.95265909E-07   4.63056709E-09  -5.76570499E-08  -9.78824362E-09  -9.64816317E-15  -3.57945605E-10   1.26377756E-08   2.62594132E-09   1.71651041E-08  -8.88438116E-11   0.00000000E+00   1.07953539E-10
   2.36250000E+03   5.00000000E-01   5.00000000E-01  -9.98353006E-09  -9.90964924E-10  -9.89417464E-10  -9.95803701E-10   1.87347036E-07   4.57573894E-09  -5.78299018E-08  -9.79000711E-09  -1.09766011E-14  -3.40783679E-10   1.25621795E-08   2.74281567E-09   1.71861653E-08  -8.87863775E-11   0.00000000E+00   1.06520278E-10
   2.39750000E+03   5.00000000E-01   5.00000000E-01  -9.98352657E-09  -9.90723372E-10  -9.89416161E-10  -9.95803701E-10   1.79689549E-07   4.52475659E-09  -5.80154491E-08  -9.79173730E-09  -1.24823398E-14  -3.23512068E-10   1.24812836E-08   2.86276517E-09   1.72318415E-08  -8.87287894E-11   0.00000000E+00   1.05078125E-10
   2.43250000E+03   5.00000000E-01   5.00000000E-01  -9.98352282E-09  -9.90476660E-10  -9.89414812E-10  -9.95803701E-10   1.72286687E-07   4.47748263E-09  -5.82133859E-08  -9.79343018E-09  -1.41880863E-14  -3.06153396E-10   1.23951151E-08   2.98575780E-09   1.73023085E-08  -8.86711656E-11   0.00000000E+00   1.03627534E-10
   2.46750000E+03   5.00000000E-01   5.00000000E-01  -9.98351881E-09  -9.90224696E-10  -9.89413416E-10  -9.95803701E-10   1.65131850E-07   4.43378773E-09  -5.84234076E-08  -9.79508218E-09  -1.61192172E-14  -2.88731662E-10   1.23036983E-08   3.11175052E-09   1.73978625E-08  -8.86136202E-11   0.00000000E+00   1.02168939E-10
   2.50250000E+03   5.00000000E-01   5.00000000E-01  -9.98351454E-09  -9.89967382E-10  -9.89411976E-10  -9.95803701E-10   1.58218590E-07   4.39355286E-09  -5.86452187E-08  -9.79669019E-09  -1.83040262E-14  -2.71272277E-10   1.22070556E-08   3.24068939E-09   1.75189198E-08  -8.85562626E-11   0.00000000E+00   1.00702733E-10
   2.53750000E+03   5.00000000E-01   5.00000000E-01  -9.98351000E-09  -9.89704622E-10  -9.89410490E-10  -9.95803701E-10   1.51540602E-07   4.35667099E-09  -5.88785379E-08  -9.79825153E-09  -2.07739849E-14  -2.53802110E-10   1.21052077E-08   3.37250983E-09   1.76660144E-08  -8.84991971E-11   0.00000000E+00   9.92292421E-11
   2.57250000E+03   5.00000000E-01   5.00000000E-01  -9.98350519E-09  -9.89436314E-10  -9.89408961E-10  -9.95803701E-10   1.45091713E-07   4.32304837E-09  -5.91231025E-08  -9.79976392E-09  -2.35640012E-14  -2.36349521E-10   1.19981748E-08   3.50713692E-09   1.78397938E-08  -8.84425229E-11   0.00000000E+00   9.77487187E-11
   2.60750000E+03   5.00000000E-01   5.00000000E-01  -9.98350011E-09  -9.89162355E-10  -9.89407389E-10  -9.95803701E-10   1.38865874E-07   4.29260543E-09  -5.93786713E-08  -9.80122553E-09  -2.67126838E-14  -2.18944394E-10   1.18859771E-08   3.64448565E-09   1.80410126E-08  -8.83863339E-11   0.00000000E+00   9.62613242E-11
   2.64250000E+03   5.00000000E-01   5.00000000E-01  -9.98349474E-09  -9.88882638E-10  -9.89405775E-10  -9.95803701E-10   1.32857148E-07   4.26527740E-09  -5.96450268E-08  -9.80263490E-09  -3.02625926E-14  -2.01618161E-10   1.17686354E-08   3.78446124E-09   1.82705244E-08  -8.83307185E-11   0.00000000E+00   9.47671247E-11
   2.67750000E+03   5.00000000E-01   5.00000000E-01  -9.98348910E-09  -9.88597054E-10  -9.89404120E-10  -9.95803701E-10   1.27059702E-07   4.24101468E-09  -5.99219752E-08  -9.80399095E-09  -3.42604756E-14  -1.84403829E-10   1.16461722E-08   3.92695947E-09   1.85292718E-08  -8.82757599E-11   0.00000000E+00   9.32660870E-11
   2.71250000E+03   5.00000000E-01   5.00000000E-01  -9.98348316E-09  -9.88305490E-10  -9.89402425E-10  -9.95803701E-10   1.21467798E-07   4.21978304E-09  -6.02093473E-08  -9.80529297E-09  -3.87574777E-14  -1.67335937E-10   1.15186121E-08   4.07186701E-09   1.88182737E-08  -8.82215351E-11   0.00000000E+00   9.17580770E-11
   2.74750000E+03   5.00000000E-01   5.00000000E-01  -9.98347638E-09  -9.88007830E-10  -9.89400691E-10  -9.95803701E-10   1.16075782E-07   4.20156362E-09  -6.05069962E-08  -9.80654059E-09  -4.38093101E-14  -1.50450567E-10   1.13859828E-08   4.21906172E-09   1.91386110E-08  -8.81681154E-11   0.00000000E+00   9.02428622E-11
   2.78250000E+03   5.00000000E-01   5.00000000E-01  -9.98346908E-09  -9.87703952E-10  -9.89398921E-10  -9.95803701E-10   1.10878082E-07   4.18635281E-09  -6.08147966E-08  -9.80773374E-09  -4.94763672E-14  -1.33785322E-10   1.12483162E-08   4.36841301E-09   1.94914110E-08  -8.81155672E-11   0.00000000E+00   8.87201153E-11
   2.81750000E+03   5.00000000E-01   5.00000000E-01  -9.98346126E-09  -9.87393734E-10  -9.89397114E-10  -9.95803701E-10   1.05869199E-07   4.17416204E-09  -6.11326414E-08  -9.80887265E-09  -5.58237708E-14  -1.17379258E-10   1.11056488E-08   4.51978209E-09   1.98778269E-08  -8.80639510E-11   0.00000000E+00   8.71894208E-11
   2.85250000E+03   5.00000000E-01   5.00000000E-01  -9.98345286E-09  -9.87077049E-10  -9.89395273E-10  -9.95803701E-10   1.01043700E-07   4.16501744E-09  -6.14604384E-08  -9.80995780E-09  -6.29213269E-14  -1.01272813E-10   1.09580233E-08   4.67302233E-09   2.02990172E-08  -8.80133220E-11   0.00000000E+00   8.56502836E-11
   2.88750000E+03   5.00000000E-01   5.00000000E-01  -9.98344384E-09  -9.86753763E-10  -9.89393398E-10  -9.95803701E-10   9.63962159E-08   4.15895943E-09  -6.17981059E-08  -9.81098992E-09  -7.08433697E-14  -8.55077011E-11   1.08054895E-08   4.82797950E-09   2.07561212E-08  -8.79637299E-11   0.00000000E+00   8.41021387E-11
   2.92250000E+03   5.00000000E-01   5.00000000E-01  -9.98343414E-09  -9.86423740E-10  -9.89391490E-10  -9.95803701E-10   9.19214369E-08   4.15604222E-09  -6.21455687E-08  -9.81196994E-09  -7.96684744E-14  -7.01267733E-11   1.06481058E-08   4.98449209E-09   2.12502322E-08  -8.79152190E-11   0.00000000E+00   8.25443640E-11
   2.95750000E+03   5.00000000E-01   5.00000000E-01  -9.98342370E-09  -9.86086841E-10  -9.89389552E-10  -9.95803701E-10   8.76141098E-08   4.15633325E-09  -6.25027518E-08  -9.81289897E-09  -8.94790144E-14  -5.51738412E-11   1.04859401E-08   5.14239165E-09   2.17823688E-08  -8.78678285E-11   0.00000000E+00   8.09762936E-11
   2.99250000E+03   5.00000000E-01   5.00000000E-01  -9.98341248E-09  -9.85742921E-10  -9.89387582E-10  -9.95803701E-10   8.34690356E-08   4.15991253E-09  -6.28695753E-08  -9.81377832E-09  -1.00360538E-13  -4.06934555E-11   1.03190721E-08   5.30150303E-09   2.23534424E-08  -8.78215926E-11   0.00000000E+00   7.93972334E-11
   3.02750000E+03   5.00000000E-01   5.00000000E-01  -9.98340041E-09  -9.85391829E-10  -9.89385584E-10  -9.95803701E-10   7.94810685E-08   4.16687192E-09  -6.32459479E-08  -9.81460939E-09  -1.12400943E-13  -2.67306419E-11   1.01475942E-08   5.46164477E-09   2.29642239E-08  -8.77765405E-11   0.00000000E+00   7.78064778E-11
   3.06250000E+03   5.00000000E-01   5.00000000E-01  -9.98338742E-09  -9.85033412E-10  -9.89383556E-10  -9.95803701E-10   7.56451150E-08   4.17731432E-09  -6.36317601E-08  -9.81539373E-09  -1.25689429E-13  -1.33305895E-11   9.97161338E-09   5.62262949E-09   2.36153077E-08  -8.77326968E-11   0.00000000E+00   7.62033276E-11
   3.09750000E+03   5.00000000E-01   5.00000000E-01  -9.98337345E-09  -9.84667513E-10  -9.89381501E-10  -9.95803701E-10   7.19561335E-08   4.19135273E-09  -6.40268776E-08  -9.81613297E-09  -1.40315211E-13  -5.38292650E-13   9.79125327E-09   5.78426426E-09   2.43070746E-08  -8.76900816E-11   0.00000000E+00   7.45871100E-11
   3.13250000E+03   5.00000000E-01   5.00000000E-01  -9.98335842E-09  -9.84293968E-10  -9.89379417E-10  -9.95803701E-10   6.84091302E-08   4.20911726E-09  -6.44311030E-08  -9.81682881E-09  -1.56363551E-13   1.14838943E-11   9.60668902E-09   5.94637560E-09   2.50396238E-08  -8.76487103E-11   0.00000000E+00   7.29571998E-11
   3.16750000E+03   5.00000000E-01   5.00000000E-01  -9.98334227E-09  -9.83912612E-10  -9.89377306E-10  -9.95803701E-10   6.49991740E-08   4.23073175E-09  -6.48442552E-08  -9.81748300E-09  -1.73922491E-13   2.27826238E-11   9.41805544E-09   6.10874389E-09   2.58128107E-08  -8.76085944E-11   0.00000000E+00   7.13130385E-11