 TITLE = "Mineral Rate (mol/m^3/sec)" 
VARIABLES = "X"          "Y"              "Z"            "Forsterite"     "Enstatite(alph" "Anorthite"      "Tremolite"      "Pargasite"      "Anhydrite"      "Clinochlore"    "Albite(low)"    "Fayalite"       "Epidote"        "Kaolinite"      "Muscovite(orde" "Sudoite"        "Saponite(Mg)"   "Scolecite"      "FeS(am)"        "Quartz(alpha)"  "Montmorillonit"
 ZONE I=         100 , J=           1 , K=           1  F=POINT
   1.75000000E+01   5.00000000E-01   5.00000000E-01  -9.99956025E-09  -9.97592326E-10  -9.99971106E-10  -9.92170238E-08  -9.92167848E-08  -7.19043095E-06   1.81634450E-07  -7.07000250E-08  -9.99582860E-09  -1.16642125E-16  -9.79879071E-09   0.00000000E+00   0.00000000E+00   1.81537523E-07  -9.65572242E-09   0.00000000E+00   7.00630440E-08  -9.45710225E-09
   5.25000000E+01   5.00000000E-01   5.00000000E-01  -9.99956032E-09  -9.97534897E-10  -9.99971105E-10  -9.92156734E-08  -9.92167848E-08  -5.98373183E-06   1.49784963E-07  -2.10951840E-08  -9.99428391E-09   1.19023156E-16  -9.79276415E-09   0.00000000E+00   0.00000000E+00   2.13290989E-07  -9.65510572E-09   0.00000000E+00   9.50292492E-08  -7.49858003E-09
   8.75000000E+01   5.00000000E-01   5.00000000E-01  -9.99956030E-09  -9.97385052E-10  -9.99971105E-10  -9.92138907E-08  -9.92167848E-08  -4.76199542E-06   1.33020945E-07   3.37784839E-09  -9.99184901E-09   2.48297738E-17  -9.78928448E-09   0.00000000E+00   0.00000000E+00   2.33130877E-07  -9.65455836E-09   0.00000000E+00   1.03503717E-07  -6.11220110E-09
   1.22500000E+02   5.00000000E-01   5.00000000E-01  -9.99956026E-09  -9.97236548E-10  -9.99971105E-10  -9.92123835E-08  -9.92167848E-08  -3.61213924E-06   1.26209823E-07   1.28110596E-08  -9.98856848E-09   9.33610522E-18  -9.78722346E-09   0.00000000E+00   0.00000000E+00   2.41779118E-07  -9.65413923E-09   0.00000000E+00   1.05532894E-07  -5.36300279E-09
   1.57500000E+02   5.00000000E-01   5.00000000E-01  -9.99956021E-09  -9.97089539E-10  -9.99971105E-10  -9.92113037E-08  -9.92167848E-08  -2.58680324E-06   1.23582167E-07   1.60978611E-08  -9.98449019E-09   3.74143383E-18  -9.78566485E-09   0.00000000E+00   0.00000000E+00   2.45371911E-07  -9.65380311E-09   0.00000000E+00   1.05156196E-07  -4.91530899E-09
   1.92500000E+02   5.00000000E-01   5.00000000E-01  -9.99956015E-09  -9.96940311E-10  -9.99971104E-10  -9.92106122E-08  -9.92167848E-08  -1.70999691E-06   1.22607071E-07   1.69792303E-08  -9.97965112E-09   8.50377546E-19  -9.78426872E-09   0.00000000E+00   0.00000000E+00   2.46937906E-07  -9.65352092E-09   0.00000000E+00   1.03885410E-07  -4.59420801E-09
   2.27500000E+02   5.00000000E-01   5.00000000E-01  -9.99956008E-09  -9.96786913E-10  -9.99971104E-10  -9.92102338E-08  -9.92167848E-08  -9.84892647E-07   1.22288302E-07   1.69060024E-08  -9.97407968E-09  -9.93054527E-19  -9.78290446E-09   0.00000000E+00   0.00000000E+00   2.47704885E-07  -9.65327661E-09   0.00000000E+00   1.02285910E-07  -4.32506614E-09
   2.62500000E+02   5.00000000E-01   5.00000000E-01  -9.99956001E-09  -9.96628427E-10  -9.99971103E-10  -9.92100959E-08  -9.92167848E-08  -4.01497086E-07   1.22237986E-07   1.64386445E-08  -9.96779744E-09  -2.35985453E-18  -9.78151882E-09   0.00000000E+00   0.00000000E+00   2.48155731E-07  -9.65306089E-09   0.00000000E+00   1.00573012E-07  -4.07717488E-09
   2.97500000E+02   5.00000000E-01   5.00000000E-01  -9.99955992E-09  -9.96464389E-10  -9.99971103E-10  -9.92101354E-08  -9.92167848E-08   5.71137983E-08   1.22303430E-07   1.57965990E-08  -9.96082088E-09  -3.49444917E-18  -9.78008902E-09   0.00000000E+00   0.00000000E+00   2.48481672E-07  -9.65286782E-09   0.00000000E+00   9.88307240E-08  -3.83796234E-09
   3.32500000E+02   5.00000000E-01   5.00000000E-01  -9.99955982E-09  -9.96294521E-10  -9.99971102E-10  -9.92103004E-08  -9.92167848E-08   4.09470367E-07   1.22423526E-07   1.50674129E-08  -9.95316303E-09  -4.51152005E-18  -9.77860498E-09   0.00000000E+00   0.00000000E+00   2.48759672E-07  -9.65269312E-09   0.00000000E+00   9.70927015E-08  -3.60232631E-09
   3.67500000E+02   5.00000000E-01   5.00000000E-01  -9.99955971E-09  -9.96118625E-10  -9.99971101E-10  -9.92105499E-08  -9.92167848E-08   6.74881543E-07   1.22573453E-07   1.42867675E-08  -9.94483418E-09  -5.47430545E-18  -9.77706216E-09   0.00000000E+00   0.00000000E+00   2.49021149E-07  -9.65253350E-09   0.00000000E+00   9.53727365E-08  -3.36829978E-09
   4.02500000E+02   5.00000000E-01   5.00000000E-01  -9.99955959E-09  -9.95936531E-10  -9.99971101E-10  -9.92108526E-08  -9.92167848E-08   8.71485621E-07   1.22743025E-07   1.34696507E-08  -9.93584203E-09  -6.42216946E-18  -9.77545864E-09   0.00000000E+00   0.00000000E+00   2.49278903E-07  -9.65238639E-09   0.00000000E+00   9.36765452E-08  -3.13526667E-09
   4.37500000E+02   5.00000000E-01   5.00000000E-01  -9.99955945E-09  -9.95748083E-10  -9.99971100E-10  -9.92111856E-08  -9.92167848E-08   1.01434450E-06   1.22927988E-07   1.26228280E-08  -9.92619187E-09  -7.37529149E-18  -9.77379376E-09   0.00000000E+00   0.00000000E+00   2.49537905E-07  -9.65224969E-09   0.00000000E+00   9.20064847E-08  -2.90319860E-09
   4.72500000E+02   5.00000000E-01   5.00000000E-01  -9.99955929E-09  -9.95553130E-10  -9.99971098E-10  -9.92115326E-08  -9.92167848E-08   1.11566271E-06   1.23126462E-07   1.17499040E-08  -9.91588666E-09  -8.34589286E-18  -9.77206754E-09   0.00000000E+00   0.00000000E+00   2.49799698E-07  -9.65212172E-09   0.00000000E+00   9.03634837E-08  -2.67232035E-09
   5.07500000E+02   5.00000000E-01   5.00000000E-01  -9.99955912E-09  -9.95351525E-10  -9.99971097E-10  -9.92118827E-08  -9.92167848E-08   1.18514893E-06   1.23337454E-07   1.08534188E-08  -9.90492702E-09  -9.34178956E-18  -9.77028038E-09   0.00000000E+00   0.00000000E+00   2.50064221E-07  -9.65200107E-09   0.00000000E+00   8.87478592E-08  -2.44295493E-09
   5.42500000E+02   5.00000000E-01   5.00000000E-01  -9.99955892E-09  -9.95143121E-10  -9.99971096E-10  -9.92122291E-08  -9.92167848E-08   1.23041642E-06   1.23560225E-07   9.93572860E-09  -9.89331135E-09  -1.03661080E-17  -9.76843285E-09   0.00000000E+00   0.00000000E+00   2.50330573E-07  -9.65188658E-09   0.00000000E+00   8.71596753E-08  -2.21544584E-09
   5.77500000E+02   5.00000000E-01   5.00000000E-01  -9.99955870E-09  -9.94927775E-10  -9.99971094E-10  -9.92125674E-08  -9.92167848E-08   1.25736757E-06   1.23794011E-07   8.99937418E-09  -9.88103600E-09  -1.14187060E-17  -9.76652558E-09   0.00000000E+00   0.00000000E+00   2.50597333E-07  -9.65177728E-09   0.00000000E+00   8.55989050E-08  -1.99011371E-09
   6.12500000E+02   5.00000000E-01   5.00000000E-01  -9.99955846E-09  -9.94705348E-10  -9.99971092E-10  -9.92128943E-08  -9.92167848E-08   1.27053647E-06   1.24037906E-07   8.04722775E-09  -9.86809551E-09  -1.24974520E-17  -9.76455917E-09   0.00000000E+00   0.00000000E+00   2.50862698E-07  -9.65167232E-09   0.00000000E+00   8.40655065E-08  -1.76722927E-09
   6.47500000E+02   5.00000000E-01   5.00000000E-01  -9.99955819E-09  -9.94475703E-10  -9.99971089E-10  -9.92132071E-08  -9.92167848E-08   1.27338046E-06   1.24290817E-07   7.08253758E-09  -9.85448292E-09  -1.35979405E-17  -9.76253403E-09   0.00000000E+00   0.00000000E+00   2.51124539E-07  -9.65157097E-09   0.00000000E+00   8.25594586E-08  -1.54699477E-09
   6.82500000E+02   5.00000000E-01   5.00000000E-01  -9.99955788E-09  -9.94238711E-10  -9.99971086E-10  -9.92135039E-08  -9.92167848E-08   1.26852050E-06   1.24551444E-07   6.10892296E-09  -9.84019021E-09  -1.47143453E-17  -9.76045036E-09   0.00000000E+00   0.00000000E+00   2.51380436E-07  -9.65147257E-09   0.00000000E+00   8.10807757E-08  -1.32953077E-09
   7.17500000E+02   5.00000000E-01   5.00000000E-01  -9.99955754E-09  -9.93994248E-10  -9.99971083E-10  -9.92137840E-08  -9.92167848E-08   1.25793493E-06   1.24818289E-07   5.13034207E-09  -9.82520876E-09  -1.58388502E-17  -9.75830798E-09   0.00000000E+00   0.00000000E+00   2.51627705E-07  -9.65137650E-09   0.00000000E+00   7.96295125E-08  -1.11486668E-09
   7.52500000E+02   5.00000000E-01   5.00000000E-01  -9.99955716E-09  -9.93742198E-10  -9.99971080E-10  -9.92140473E-08  -9.92167848E-08   1.24311277E-06   1.25089667E-07   4.15104272E-09  -9.80952989E-09  -1.69601577E-17  -9.75610635E-09   0.00000000E+00   0.00000000E+00   2.51863425E-07  -9.65128217E-09   0.00000000E+00   7.82057616E-08  -9.02934987E-10
   7.87500000E+02   5.00000000E-01   5.00000000E-01  -9.99955675E-09  -9.93482452E-10  -9.99971075E-10  -9.92142942E-08  -9.92167848E-08   1.22517324E-06   1.25363729E-07   3.17550032E-09  -9.79314547E-09  -1.80675385E-17  -9.75384438E-09   0.00000000E+00   0.00000000E+00   2.52084483E-07  -9.65118900E-09   0.00000000E+00   7.68096475E-08  -6.93568766E-10
   8.22500000E+02   5.00000000E-01   5.00000000E-01  -9.99955628E-09  -9.93214911E-10  -9.99971070E-10  -9.92145253E-08  -9.92167848E-08   1.20495785E-06   1.25638492E-07   2.20834586E-09  -9.77604844E-09  -1.91472082E-17  -9.75152048E-09   0.00000000E+00   0.00000000E+00   2.52287618E-07  -9.65109640E-09   0.00000000E+00   7.54413175E-08  -4.86502863E-10
   8.57500000E+02   5.00000000E-01   5.00000000E-01  -9.99955577E-09  -9.92939484E-10  -9.99971065E-10  -9.92147414E-08  -9.92167848E-08   1.18310049E-06   1.25911869E-07   1.25428568E-09  -9.75823351E-09  -2.01837480E-17  -9.74913245E-09   0.00000000E+00   0.00000000E+00   2.52469490E-07  -9.65100379E-09   0.00000000E+00   7.41009303E-08  -2.81378647E-10
   8.92500000E+02   5.00000000E-01   5.00000000E-01  -9.99955520E-09  -9.92656089E-10  -9.99971058E-10  -9.92149435E-08  -9.92167848E-08   1.16008030E-06   1.26181712E-07   3.18015349E-10  -9.73969767E-09  -2.11612416E-17  -9.74667749E-09   0.00000000E+00   0.00000000E+00   2.52626749E-07  -9.65091054E-09   0.00000000E+00   7.27886432E-08  -7.77523934E-11
   9.27500000E+02   5.00000000E-01   5.00000000E-01  -9.99955457E-09  -9.92364650E-10  -9.99971051E-10  -9.92151323E-08  -9.92167848E-08   1.13626115E-06   1.26445831E-07  -5.95840776E-10  -9.72044072E-09  -2.20617834E-17  -9.74415224E-09   0.00000000E+00   0.00000000E+00   2.52756138E-07  -9.65081605E-09   0.00000000E+00   7.15045964E-08   1.24889492E-10
   9.62500000E+02   5.00000000E-01   5.00000000E-01  -9.99955388E-09  -9.92065102E-10  -9.99971042E-10  -9.92153088E-08  -9.92167848E-08   1.11192099E-06   1.26702072E-07  -1.48287510E-09  -9.70046583E-09  -2.28673257E-17  -9.74155273E-09   0.00000000E+00   0.00000000E+00   2.52854550E-07  -9.65071967E-09   0.00000000E+00   7.02489012E-08   3.27118763E-10
   9.97500000E+02   5.00000000E-01   5.00000000E-01  -9.99955311E-09  -9.91757383E-10  -9.99971033E-10  -9.92154736E-08  -9.92167848E-08   1.08727340E-06   1.26948351E-07  -2.33898482E-09  -9.67977993E-09  -2.35586127E-17  -9.73887451E-09   0.00000000E+00   0.00000000E+00   2.52919132E-07  -9.65062075E-09   0.00000000E+00   6.90216282E-08   5.29550921E-10
   1.03250000E+03   5.00000000E-01   5.00000000E-01  -9.99955227E-09  -9.91441436E-10  -9.99971021E-10  -9.92156276E-08  -9.92167848E-08   1.06248345E-06   1.27182686E-07  -3.16042023E-09  -9.65839403E-09  -2.41168150E-17  -9.73611270E-09   0.00000000E+00   0.00000000E+00   2.52947389E-07  -9.65051862E-09   0.00000000E+00   6.78227920E-08   7.32821340E-10
   1.06750000E+03   5.00000000E-01   5.00000000E-01  -9.99955134E-09  -9.91117207E-10  -9.99971009E-10  -9.92157714E-08  -9.92167848E-08   1.03767930E-06   1.27403242E-07  -3.94387708E-09  -9.63632338E-09  -2.45243822E-17  -9.73326213E-09   0.00000000E+00   0.00000000E+00   2.52937268E-07  -9.65041262E-09   0.00000000E+00   6.66523391E-08   9.37563689E-10
   1.10250000E+03   5.00000000E-01   5.00000000E-01  -9.99955033E-09  -9.90784638E-10  -9.99970994E-10  -9.92159055E-08  -9.92167848E-08   1.01296063E-06   1.27608371E-07  -4.68656399E-09  -9.61358763E-09  -2.47635508E-17  -9.73031747E-09   0.00000000E+00   0.00000000E+00   2.52887238E-07  -9.65030208E-09   0.00000000E+00   6.55101374E-08   1.14438727E-09
   1.13750000E+03   5.00000000E-01   5.00000000E-01  -9.99954921E-09  -9.90443672E-10  -9.99970977E-10  -9.92160305E-08  -9.92167848E-08   9.88404904E-07   1.27796650E-07  -5.38625671E-09  -9.59021071E-09  -2.48181204E-17  -9.72727339E-09   0.00000000E+00   0.00000000E+00   2.52796351E-07  -9.65018635E-09   0.00000000E+00   6.43959683E-08   1.35385436E-09
   1.17250000E+03   5.00000000E-01   5.00000000E-01  -9.99954800E-09  -9.90094243E-10  -9.99970958E-10  -9.92161469E-08  -9.92167848E-08   9.64071942E-07   1.27966907E-07  -6.04133689E-09  -9.56622075E-09  -2.46753011E-17  -9.72412477E-09   0.00000000E+00   0.00000000E+00   2.52664296E-07  -9.65006476E-09   0.00000000E+00   6.33095209E-08   1.56645840E-09
   1.20750000E+03   5.00000000E-01   5.00000000E-01  -9.99954666E-09  -9.89736276E-10  -9.99970935E-10  -9.92162550E-08  -9.92167848E-08   9.40007337E-07   1.28118247E-07  -6.65081345E-09  -9.54164972E-09  -2.43223033E-17  -9.72086684E-09   0.00000000E+00   0.00000000E+00   2.52491419E-07  -9.64993668E-09   0.00000000E+00   6.22503894E-08   1.78260404E-09
   1.24250000E+03   5.00000000E-01   5.00000000E-01  -9.99954521E-09  -9.89369683E-10  -9.99970910E-10  -9.92163553E-08  -9.92167848E-08   9.16245065E-07   1.28250063E-07  -7.21432568E-09  -9.51653305E-09  -2.37498187E-17  -9.71749539E-09   0.00000000E+00   0.00000000E+00   2.52278735E-07  -9.64980150E-09   0.00000000E+00   6.12180739E-08   2.00258967E-09
   1.27750000E+03   5.00000000E-01   5.00000000E-01  -9.99954362E-09  -9.88994365E-10  -9.99970881E-10  -9.92164479E-08  -9.92167848E-08   8.92809491E-07   1.28362050E-07  -7.73212755E-09  -9.49090918E-09  -2.29530869E-17  -9.71400697E-09   0.00000000E+00   0.00000000E+00   2.52027904E-07  -9.64965860E-09   0.00000000E+00   6.02119838E-08   2.22659341E-09
   1.31250000E+03   5.00000000E-01   5.00000000E-01  -9.99954188E-09  -9.88610202E-10  -9.99970847E-10  -9.92165332E-08  -9.92167848E-08   8.69716953E-07   1.28454196E-07  -8.20505384E-09  -9.46481894E-09  -2.19279154E-17  -9.71039903E-09   0.00000000E+00   0.00000000E+00   2.51741191E-07  -9.64950741E-09   0.00000000E+00   5.92314444E-08   2.45466294E-09
   1.34750000E+03   5.00000000E-01   5.00000000E-01  -9.99954000E-09  -9.88217060E-10  -9.99970809E-10  -9.92166111E-08  -9.92167848E-08   8.46977041E-07   1.28526779E-07  -8.63446962E-09  -9.43830496E-09  -2.06755835E-17  -9.70667009E-09   0.00000000E+00   0.00000000E+00   2.51421404E-07  -9.64934736E-09   0.00000000E+00   5.82757062E-08   2.68670977E-09
   1.38250000E+03   5.00000000E-01   5.00000000E-01  -9.99953794E-09  -9.87814782E-10  -9.99970764E-10  -9.92166820E-08  -9.92167848E-08   8.24593656E-07   1.28580343E-07  -9.02220498E-09  -9.41141102E-09  -1.91989331E-17  -9.70281985E-09   0.00000000E+00   0.00000000E+00   2.51071816E-07  -9.64917791E-09   0.00000000E+00   5.73439557E-08   2.92250802E-09
   1.41750000E+03   5.00000000E-01   5.00000000E-01  -9.99953571E-09  -9.87403193E-10  -9.99970714E-10  -9.92167457E-08  -9.92167848E-08   8.02565908E-07   1.28615678E-07  -9.37047797E-09  -9.38418133E-09  -1.75052830E-17  -9.69884927E-09   0.00000000E+00   0.00000000E+00   2.50696066E-07  -9.64899852E-09   0.00000000E+00   5.64353291E-08   3.16169781E-09
   1.45250000E+03   5.00000000E-01   5.00000000E-01  -9.99953328E-09  -9.86982098E-10  -9.99970656E-10  -9.92168025E-08  -9.92167848E-08   7.80888890E-07   1.28633785E-07  -9.68180906E-09  -9.35665989E-09  -1.56055044E-17  -9.69476067E-09   0.00000000E+00   0.00000000E+00   2.50298061E-07  -9.64880864E-09   0.00000000E+00   5.55489258E-08   3.40379297E-09
   1.48750000E+03   5.00000000E-01   5.00000000E-01  -9.99953065E-09  -9.86551284E-10  -9.99970589E-10  -9.92168524E-08  -9.92167848E-08   7.59554361E-07   1.28635842E-07  -9.95893101E-09  -9.32888975E-09  -1.35128136E-17  -9.69055767E-09   0.00000000E+00   0.00000000E+00   2.49881867E-07  -9.64860774E-09   0.00000000E+00   5.46838229E-08   3.64819261E-09
   1.52250000E+03   5.00000000E-01   5.00000000E-01  -9.99952779E-09  -9.86110517E-10  -9.99970513E-10  -9.92168953E-08  -9.92167848E-08   7.38551364E-07   1.28623159E-07  -1.02046975E-08  -9.30091235E-09  -1.12441214E-17  -9.68624524E-09   0.00000000E+00   0.00000000E+00   2.49451607E-07  -9.64839526E-09   0.00000000E+00   5.38390893E-08   3.89419590E-09
   1.55750000E+03   5.00000000E-01   5.00000000E-01  -9.99952469E-09  -9.85659551E-10  -9.99970425E-10  -9.92169314E-08  -9.92167848E-08   7.17866790E-07   1.28597144E-07  -1.04219948E-08  -9.27276680E-09  -8.81939432E-18  -9.68182960E-09   0.00000000E+00   0.00000000E+00   2.49011363E-07  -9.64817063E-09   0.00000000E+00   5.30137991E-08   4.14101920E-09
   1.59250000E+03   5.00000000E-01   5.00000000E-01  -9.99952133E-09  -9.85198122E-10  -9.99970325E-10  -9.92169606E-08  -9.92167848E-08   6.97485899E-07   1.28559251E-07  -1.06136585E-08  -9.24448913E-09  -6.26144088E-18  -9.67731818E-09   0.00000000E+00   0.00000000E+00   2.48565087E-07  -9.64793322E-09   0.00000000E+00   5.22070435E-08   4.38781489E-09
   1.62750000E+03   5.00000000E-01   5.00000000E-01  -9.99951770E-09  -9.84725954E-10  -9.99970210E-10  -9.92169827E-08  -9.92167848E-08   6.77392818E-07   1.28510946E-07  -1.07823992E-08  -9.21611158E-09  -3.59548558E-18  -9.67271946E-09   0.00000000E+00   0.00000000E+00   2.48116533E-07  -9.64768238E-09   0.00000000E+00   5.14179413E-08   4.63369066E-09
   1.66250000E+03   5.00000000E-01   5.00000000E-01  -9.99951376E-09  -9.84242763E-10  -9.99970078E-10  -9.92169975E-08  -9.92167848E-08   6.57571014E-07   1.28453668E-07  -1.09307390E-08  -9.18766171E-09  -8.49239852E-19  -9.66804291E-09   0.00000000E+00   0.00000000E+00   2.47669195E-07  -9.64741739E-09   0.00000000E+00   5.06456475E-08   4.87772864E-09
   1.69750000E+03   5.00000000E-01   5.00000000E-01  -9.99950950E-09  -9.83748252E-10  -9.99969926E-10  -9.92170049E-08  -9.92167848E-08   6.38003753E-07   1.28388790E-07  -1.10609583E-08  -9.15916159E-09   1.94766869E-18  -9.66329881E-09   0.00000000E+00   0.00000000E+00   2.47226268E-07  -9.64713744E-09   0.00000000E+00   4.98893594E-08   5.11900350E-09
   1.73250000E+03   5.00000000E-01   5.00000000E-01  -9.99950490E-09  -9.83242120E-10  -9.99969753E-10  -9.92170047E-08  -9.92167848E-08   6.18674546E-07   1.28317594E-07  -1.11750558E-08  -9.13062679E-09   4.76283901E-18  -9.65849815E-09   0.00000000E+00   0.00000000E+00   2.46790622E-07  -9.64684166E-09   0.00000000E+00   4.91483217E-08   5.35659898E-09
   1.76750000E+03   5.00000000E-01   5.00000000E-01  -9.99949992E-09  -9.82724059E-10  -9.99969554E-10  -9.92169968E-08  -9.92167848E-08   5.99567589E-07   1.28241246E-07  -1.12747196E-08  -9.10206534E-09   7.56500640E-18  -9.65365248E-09   0.00000000E+00   0.00000000E+00   2.46364792E-07  -9.64652907E-09   0.00000000E+00   4.84218285E-08   5.58962215E-09
   1.80250000E+03   5.00000000E-01   5.00000000E-01  -9.99949455E-09  -9.82193755E-10  -9.99969327E-10  -9.92169807E-08  -9.92167848E-08   5.80668195E-07   1.28160773E-07  -1.13613089E-08  -9.07347658E-09   1.03186437E-17  -9.64877382E-09   0.00000000E+00   0.00000000E+00   2.45950980E-07  -9.64619858E-09   0.00000000E+00   4.77092247E-08   5.81721546E-09
   1.83750000E+03   5.00000000E-01   5.00000000E-01  -9.99948875E-09  -9.81650894E-10  -9.99969066E-10  -9.92169559E-08  -9.92167848E-08   5.61963207E-07   1.28077053E-07  -1.14358464E-08  -9.04484983E-09   1.29908528E-17  -9.64387452E-09   0.00000000E+00   0.00000000E+00   2.45551066E-07  -9.64584900E-09   0.00000000E+00   4.70099051E-08   6.03856593E-09
   1.87250000E+03   5.00000000E-01   5.00000000E-01  -9.99948250E-09  -9.81095155E-10  -9.99968767E-10  -9.92169219E-08  -9.92167848E-08   5.43441408E-07   1.27990804E-07  -1.14990180E-08  -9.01616300E-09   1.55487356E-17  -9.63896722E-09   0.00000000E+00   0.00000000E+00   2.45166633E-07  -9.64547898E-09   0.00000000E+00   4.63233125E-08   6.25291184E-09
   1.90750000E+03   5.00000000E-01   5.00000000E-01  -9.99947576E-09  -9.80526214E-10  -9.99968424E-10  -9.92168783E-08  -9.92167848E-08   5.25093903E-07   1.27902577E-07  -1.15511792E-08  -8.98738100E-09   1.79588255E-17  -9.63406472E-09   0.00000000E+00   0.00000000E+00   2.44798992E-07  -9.64508704E-09   0.00000000E+00   4.56489349E-08   6.45954690E-09
   1.94250000E+03   5.00000000E-01   5.00000000E-01  -9.99946850E-09  -9.79943744E-10  -9.99968031E-10  -9.92168241E-08  -9.92167848E-08   5.06914475E-07   1.27812758E-07  -1.15923657E-08  -8.95845402E-09   2.01914219E-17  -9.62918000E-09   0.00000000E+00   0.00000000E+00   2.44449216E-07  -9.64467156E-09   0.00000000E+00   4.49863022E-08   6.65782216E-09
   1.97750000E+03   5.00000000E-01   5.00000000E-01  -9.99946069E-09  -9.79347415E-10  -9.99967580E-10  -9.92167583E-08  -9.92167848E-08   4.88899899E-07   1.27721568E-07  -1.16223082E-08  -8.92931558E-09   2.22173213E-17  -9.62432612E-09   0.00000000E+00   0.00000000E+00   2.44118171E-07  -9.64423071E-09   0.00000000E+00   4.43349812E-08   6.84714569E-09
   2.01250000E+03   5.00000000E-01   5.00000000E-01  -9.99945230E-09  -9.78736891E-10  -9.99967063E-10  -9.92166801E-08  -9.92167848E-08   4.71050205E-07   1.27629065E-07  -1.16404473E-08  -8.89988037E-09   2.40128628E-17  -9.61951629E-09   0.00000000E+00   0.00000000E+00   2.43806551E-07  -9.64376253E-09   0.00000000E+00   4.36945723E-08   7.02698056E-09
   2.04750000E+03   5.00000000E-01   5.00000000E-01  -9.99944329E-09  -9.78111831E-10  -9.99966469E-10  -9.92165880E-08  -9.92167848E-08   4.53368876E-07   1.27535153E-07  -1.16459494E-08  -8.87004180E-09   2.55568011E-17  -9.61476380E-09   0.00000000E+00   0.00000000E+00   2.43514915E-07  -9.64326482E-09   0.00000000E+00   4.30647038E-08   7.19684135E-09
   2.08250000E+03   5.00000000E-01   5.00000000E-01  -9.99943362E-09  -9.77471885E-10  -9.99965787E-10  -9.92164802E-08  -9.92167848E-08   4.35862968E-07   1.27439581E-07  -1.16377202E-08  -8.83966923E-09   2.68327938E-17  -9.61008209E-09   0.00000000E+00   0.00000000E+00   2.43243718E-07  -9.64273518E-09   0.00000000E+00   4.24450281E-08   7.35628944E-09
   2.11750000E+03   5.00000000E-01   5.00000000E-01  -9.99942327E-09  -9.76816696E-10  -9.99965003E-10  -9.92163548E-08  -9.92167848E-08   4.18543132E-07   1.27341955E-07  -1.16144176E-08  -8.80860465E-09   2.78293300E-17  -9.60548481E-09   0.00000000E+00   0.00000000E+00   2.42993342E-07  -9.64217099E-09   0.00000000E+00   4.18352167E-08   7.50492721E-09
   2.15250000E+03   5.00000000E-01   5.00000000E-01  -9.99941219E-09  -9.76145896E-10  -9.99964103E-10  -9.92162095E-08  -9.92167848E-08   4.01423535E-07   1.27241738E-07  -1.15744594E-08  -8.77665889E-09   2.85401569E-17  -9.60098583E-09   0.00000000E+00   0.00000000E+00   2.42764126E-07  -9.64156934E-09   0.00000000E+00   4.12349561E-08   7.64239167E-09
   2.18750000E+03   5.00000000E-01   5.00000000E-01  -9.99940035E-09  -9.75459106E-10  -9.99963067E-10  -9.92160412E-08  -9.92167848E-08   3.84521673E-07   1.27138255E-07  -1.15160282E-08  -8.74360707E-09   2.89639601E-17  -9.59659933E-09   0.00000000E+00   0.00000000E+00   2.42556393E-07  -9.64092706E-09   0.00000000E+00   4.06439432E-08   7.76834745E-09
   2.22250000E+03   5.00000000E-01   5.00000000E-01  -9.99938772E-09  -9.74755931E-10  -9.99961876E-10  -9.92158467E-08  -9.92167848E-08   3.67858062E-07   1.27030697E-07  -1.14370708E-08  -8.70918295E-09   2.91057844E-17  -9.59233991E-09   0.00000000E+00   0.00000000E+00   2.42370477E-07  -9.64024064E-09   0.00000000E+00   4.00618818E-08   7.88247938E-09
   2.25750000E+03   5.00000000E-01   5.00000000E-01  -9.99937426E-09  -9.74035959E-10  -9.99960504E-10  -9.92156217E-08  -9.92167848E-08   3.51455819E-07   1.26918114E-07  -1.13352914E-08  -8.67307221E-09   2.89745827E-17  -9.58822265E-09   0.00000000E+00   0.00000000E+00   2.42206745E-07  -9.63950620E-09   0.00000000E+00   3.94884783E-08   7.98448483E-09
   2.29250000E+03   5.00000000E-01   5.00000000E-01  -9.99935993E-09  -9.73298759E-10  -9.99958924E-10  -9.92153614E-08  -9.92167848E-08   3.35340140E-07   1.26799419E-07  -1.12081390E-08  -8.63490389E-09   2.85850277E-17  -9.58426325E-09   0.00000000E+00   0.00000000E+00   2.42065620E-07  -9.63871947E-09   0.00000000E+00   3.89234382E-08   8.07406571E-09
   2.32750000E+03   5.00000000E-01   5.00000000E-01  -9.99934469E-09  -9.72543877E-10  -9.99957103E-10  -9.92150597E-08  -9.92167848E-08   3.19537682E-07   1.26673374E-07  -1.10527859E-08  -8.59423971E-09   2.79554513E-17  -9.58047813E-09   0.00000000E+00   0.00000000E+00   2.41947607E-07  -9.63787566E-09   0.00000000E+00   3.83664627E-08   8.15092021E-09
   2.36250000E+03   5.00000000E-01   5.00000000E-01  -9.99932848E-09  -9.71770832E-10  -9.99955002E-10  -9.92147096E-08  -9.92167848E-08   3.04075893E-07   1.26538581E-07  -1.08660984E-08  -8.55056052E-09   2.71076672E-17  -9.57688462E-09   0.00000000E+00   0.00000000E+00   2.41853308E-07  -9.63696943E-09   0.00000000E+00   3.78172449E-08   8.21473438E-09
   2.39750000E+03   5.00000000E-01   5.00000000E-01  -9.99931124E-09  -9.70979112E-10  -9.99952576E-10  -9.92143025E-08  -9.92167848E-08   2.88982285E-07   1.26393467E-07  -1.06445954E-08  -8.50324886E-09   2.60666155E-17  -9.57350108E-09   0.00000000E+00   0.00000000E+00   2.41783454E-07  -9.63599478E-09   0.00000000E+00   3.72754663E-08   8.26517320E-09
   2.43250000E+03   5.00000000E-01   5.00000000E-01  -9.99929290E-09  -9.70168167E-10  -9.99949773E-10  -9.92138278E-08  -9.92167848E-08   2.74283714E-07   1.26236258E-07  -1.03843954E-08  -8.45156635E-09   2.48590126E-17  -9.57034707E-09   0.00000000E+00   0.00000000E+00   2.41738919E-07  -9.63494491E-09   0.00000000E+00   3.67407930E-08   8.30187126E-09
   2.46750000E+03   5.00000000E-01   5.00000000E-01  -9.99927336E-09  -9.69337409E-10  -9.99946529E-10  -9.92132729E-08  -9.92167848E-08   2.60005673E-07   1.26064949E-07  -1.00811464E-08  -8.39462417E-09   2.35132092E-17  -9.56744363E-09   0.00000000E+00   0.00000000E+00   2.41720756E-07  -9.63381205E-09   0.00000000E+00   3.62128719E-08   8.32442282E-09
   2.50250000E+03   5.00000000E-01   5.00000000E-01  -9.99925252E-09  -9.68486198E-10  -9.99942771E-10  -9.92126218E-08  -9.92167848E-08   2.46171645E-07   1.25877265E-07  -9.72993737E-09  -8.33134394E-09   2.20573071E-17  -9.56481343E-09   0.00000000E+00   0.00000000E+00   2.41730216E-07  -9.63258729E-09   0.00000000E+00   3.56913260E-08   8.33237094E-09
   2.53750000E+03   5.00000000E-01   5.00000000E-01  -9.99923024E-09  -9.67613837E-10  -9.99938413E-10  -9.92118548E-08  -9.92167848E-08   2.32802540E-07   1.25670604E-07  -9.32518270E-09  -8.26040548E-09   2.05198347E-17  -9.56248111E-09   0.00000000E+00   0.00000000E+00   2.41768787E-07  -9.63126027E-09   0.00000000E+00   3.51757496E-08   8.32519559E-09
   2.57250000E+03   5.00000000E-01   5.00000000E-01  -9.99920637E-09  -9.66719563E-10  -9.99933350E-10  -9.92109464E-08  -9.92167848E-08   2.19916230E-07   1.25441976E-07  -8.86047551E-09  -8.18017623E-09   1.89282190E-17  -9.56047356E-09   0.00000000E+00   0.00000000E+00   2.41838230E-07  -9.62981888E-09   0.00000000E+00   3.46657023E-08   8.30230026E-09
   2.60750000E+03   5.00000000E-01   5.00000000E-01  -9.99918072E-09  -9.65802533E-10  -9.99927456E-10  -9.92098641E-08  -9.92167848E-08   2.07527209E-07   1.25187903E-07  -8.32839673E-09  -8.08861440E-09   1.73074710E-17  -9.55882032E-09   0.00000000E+00   0.00000000E+00   2.41940614E-07  -9.62824879E-09   0.00000000E+00   3.41607020E-08   8.26299678E-09
   2.64250000E+03   5.00000000E-01   5.00000000E-01  -9.99915309E-09  -9.64861809E-10  -9.99920581E-10  -9.92085645E-08  -9.92167848E-08   1.95646380E-07   1.24904310E-07  -7.72026635E-09  -7.98313446E-09   1.56829216E-17  -9.55755397E-09   0.00000000E+00   0.00000000E+00   2.42078370E-07  -9.62653289E-09   0.00000000E+00   3.36602163E-08   8.20648787E-09
   2.67750000E+03   5.00000000E-01   5.00000000E-01  -9.99912327E-09  -9.63896341E-10  -9.99912542E-10  -9.92069900E-08  -9.92167848E-08   1.84280963E-07   1.24586365E-07  -7.02581521E-09  -7.86041728E-09   1.40747147E-17  -9.55671072E-09   0.00000000E+00   0.00000000E+00   2.42254335E-07  -9.62465048E-09   0.00000000E+00   3.31636524E-08   8.13184680E-09
   2.71250000E+03   5.00000000E-01   5.00000000E-01  -9.99909099E-09  -9.62904948E-10  -9.99903111E-10  -9.92050628E-08  -9.92167848E-08   1.73434525E-07   1.24228268E-07  -6.23274630E-09  -7.71613712E-09   1.25044863E-17  -9.55633092E-09   0.00000000E+00   0.00000000E+00   2.42471807E-07  -9.62257620E-09   0.00000000E+00   3.26703433E-08   8.03799367E-09
   2.74750000E+03   5.00000000E-01   5.00000000E-01  -9.99905603E-09  -9.61886282E-10  -9.99892010E-10  -9.92026755E-08  -9.92167848E-08   1.63107124E-07   1.23822972E-07  -5.32613897E-09  -7.54456179E-09   1.09878329E-17  -9.55645987E-09   0.00000000E+00   0.00000000E+00   2.42734592E-07  -9.62027862E-09   0.00000000E+00   3.21795311E-08   7.92366768E-09
   2.78250000E+03   5.00000000E-01   5.00000000E-01  -9.99901803E-09  -9.60838807E-10  -9.99878885E-10  -9.91996782E-08  -9.92167848E-08   1.53295527E-07   1.23361788E-07  -4.28762539E-09  -7.33795384E-09   9.54027968E-18  -9.55714858E-09   0.00000000E+00   0.00000000E+00   2.43047035E-07  -9.61771812E-09   0.00000000E+00   3.16903453E-08   7.78739502E-09
   2.81750000E+03   5.00000000E-01   5.00000000E-01  -9.99897670E-09  -9.59760754E-10  -9.99863288E-10  -9.91958563E-08  -9.92167848E-08   1.43993518E-07   1.22833839E-07  -3.09422920E-09  -7.08565193E-09   8.17404811E-18  -9.55845481E-09   0.00000000E+00   0.00000000E+00   2.43413994E-07  -9.61484396E-09   0.00000000E+00   3.12017743E-08   7.62745260E-09
   2.85250000E+03   5.00000000E-01   5.00000000E-01  -9.99893168E-09  -9.58650077E-10  -9.99844635E-10  -9.91908955E-08  -9.92167848E-08   1.35192245E-07   1.22225268E-07  -1.71669000E-09  -6.77262287E-09   6.89915680E-18  -9.56044410E-09   0.00000000E+00   0.00000000E+00   2.43840719E-07  -9.61158993E-09   0.00000000E+00   3.07126268E-08   7.44182911E-09