 TITLE = "Mineral Rate (mol/m^3/sec)" 
VARIABLES = "X"          "Y"              "Z"            "Forsterite"     "Fayalite"       "Saponite(Mg)"   "Enstatite(alph" "Ferrosilite(al" "Anorthite"      "Albite(low)"    "Clinochlore"    "Sudoite"        "Montmorillonit" "Kaolinite"      "Tremolite"      "Pargasite"      "Anhydrite"      "Epidote"        "Scolecite"      "Pyrite"         "FeS(am)"        "Quartz(alpha)" 
 ZONE I=         100 , J=           1 , K=           1  F=POINT
   1.75000000E+01   5.00000000E-01   5.00000000E-01  -3.53299130E-07  -4.61193358E-07   3.79028192E-07  -2.00399225E-10  -1.43123704E-10  -1.24571884E-07  -2.03310802E-07   2.71031168E-07  -4.69862721E-14  -7.14750075E-15  -3.39428977E-08  -4.87346570E-08  -5.00341647E-08  -2.56613171E-14  -4.68805231E-16  -2.27674072E-10  -7.43515329E-15  -7.17218107E-15   1.03042191E-17
   5.25000000E+01   5.00000000E-01   5.00000000E-01  -3.53299130E-07  -4.29692846E-07   3.92656505E-07  -2.00392172E-10  -1.21710154E-10  -1.24571884E-07  -1.41684179E-07   2.37788121E-07  -2.43059930E-14  -6.03485482E-15  -3.38467926E-08  -4.87346161E-08  -5.00341647E-08  -2.54494886E-14  -1.15974791E-17  -2.27662664E-10  -7.43515329E-15  -7.17103586E-15   1.15722792E-17
   8.75000000E+01   5.00000000E-01   5.00000000E-01  -3.53299129E-07  -4.02322020E-07   3.86472517E-07  -2.00377901E-10  -1.08812240E-10  -1.24571884E-07  -1.24771300E-07   2.30328569E-07  -1.94410497E-14  -5.50756061E-15  -3.37924187E-08  -4.87344682E-08  -5.00341647E-08  -2.52322795E-14  -8.47351208E-17  -2.27656564E-10  -7.43515329E-15  -7.17058327E-15   1.15964828E-17
   1.22500000E+02   5.00000000E-01   5.00000000E-01  -3.53299128E-07  -3.85007442E-07   3.79150891E-07  -2.00361407E-10  -1.02189053E-10  -1.24571884E-07  -1.20166689E-07   2.29228940E-07  -1.82068297E-14  -5.18141155E-15  -3.37504267E-08  -4.87343952E-08  -5.00341647E-08  -2.50071177E-14  -1.02389694E-16  -2.27652283E-10  -7.43515329E-15  -7.17062618E-15   1.13807814E-17
   1.57500000E+02   5.00000000E-01   5.00000000E-01  -3.53299127E-07  -3.76342583E-07   3.74815223E-07  -2.00343295E-10  -9.94621000E-11  -1.24571884E-07  -1.20288843E-07   2.29989623E-07  -1.78518468E-14  -4.94093364E-15  -3.37129746E-08  -4.87343999E-08  -5.00341647E-08  -2.47699592E-14  -1.14769770E-16  -2.27648862E-10  -7.43515329E-15  -7.17092655E-15   1.10964673E-17
   1.92500000E+02   5.00000000E-01   5.00000000E-01  -3.53299125E-07  -3.73277002E-07   3.72819255E-07  -2.00323820E-10  -9.89670273E-11  -1.24571884E-07  -1.23039391E-07   2.31669154E-07  -1.77249695E-14  -4.75596042E-15  -3.36779206E-08  -4.87343724E-08  -5.00341647E-08  -2.45165891E-14  -1.27259941E-16  -2.27646007E-10  -7.43515329E-15  -7.17132250E-15   1.07785324E-17
   2.27500000E+02   5.00000000E-01   5.00000000E-01  -3.53299124E-07  -3.73350249E-07   3.72060404E-07  -2.00303070E-10  -9.96758300E-11  -1.24571884E-07  -1.27518565E-07   2.34004507E-07  -1.76578687E-14  -4.61590555E-15  -3.36446860E-08  -4.87342860E-08  -5.00341647E-08  -2.42431297E-14  -1.40528405E-16  -2.27643598E-10  -7.43515329E-15  -7.17172793E-15   1.04400785E-17
   2.62500000E+02   5.00000000E-01   5.00000000E-01  -3.53299122E-07  -3.74988256E-07   3.71796377E-07  -2.00280947E-10  -1.00983095E-10  -1.24571883E-07  -1.33216439E-07   2.36867298E-07  -1.76069125E-14  -4.51685398E-15  -3.36136594E-08  -4.87342506E-08  -5.00341647E-08  -2.39461755E-14  -1.53335932E-16  -2.27641608E-10  -7.43515329E-15  -7.17210463E-15   1.00912677E-17
   2.97500000E+02   5.00000000E-01   5.00000000E-01  -3.53299119E-07  -3.77356460E-07   3.71650414E-07  -2.00257455E-10  -1.02588077E-10  -1.24571883E-07  -1.39843455E-07   2.40177031E-07  -1.75607088E-14  -4.45721712E-15  -3.35850735E-08  -4.87342607E-08  -5.00341647E-08  -2.36227131E-14  -1.63701297E-16  -2.27640011E-10  -7.43515329E-15  -7.17243948E-15   9.73436647E-18
   3.32500000E+02   5.00000000E-01   5.00000000E-01  -3.53299116E-07  -3.80011555E-07   3.71381488E-07  -2.00232604E-10  -1.04339791E-10  -1.24571883E-07  -1.47280487E-07   2.43915677E-07  -1.75169391E-14  -4.43895582E-15  -3.35594893E-08  -4.87342684E-08  -5.00341647E-08  -2.32699385E-14  -1.69623695E-16  -2.27638824E-10  -7.43515329E-15  -7.17273066E-15   9.36839254E-18
   3.67500000E+02   5.00000000E-01   5.00000000E-01  -3.53299113E-07  -3.82685926E-07   3.70837749E-07  -2.00206257E-10  -1.06143256E-10  -1.24571883E-07  -1.55471711E-07   2.48082429E-07  -1.74769983E-14  -4.46621220E-15  -3.35381973E-08  -4.87343114E-08  -5.00341647E-08  -2.28851207E-14  -1.67585881E-16  -2.27638117E-10  -7.43515329E-15  -7.17298106E-15   8.99405566E-18
   4.02500000E+02   5.00000000E-01   5.00000000E-01  -3.53299108E-07  -3.85253626E-07   3.69979080E-07  -2.00178313E-10  -1.07956585E-10  -1.24571882E-07  -1.64354397E-07   2.52653900E-07  -1.74428534E-14  -4.54168483E-15  -3.35223540E-08  -4.87343934E-08  -5.00341647E-08  -2.24655071E-14  -1.52110664E-16  -2.27637946E-10  -7.43515329E-15  -7.17319527E-15   8.61079146E-18
   4.37500000E+02   5.00000000E-01   5.00000000E-01  -3.53299103E-07  -3.87647256E-07   3.68791229E-07  -2.00148663E-10  -1.09759831E-10  -1.24571882E-07  -1.73862557E-07   2.57600664E-07  -1.74168008E-14  -4.66688342E-15  -3.35131075E-08  -4.87345010E-08  -5.00341647E-08  -2.20082362E-14  -1.15930379E-16  -2.27638364E-10  -7.43515329E-15  -7.17337808E-15   8.21765186E-18
   4.72500000E+02   5.00000000E-01   5.00000000E-01  -3.53299096E-07  -3.89821559E-07   3.67278996E-07  -2.00117158E-10  -1.11539964E-10  -1.24571882E-07  -1.83907846E-07   2.62878848E-07  -1.74013466E-14  -4.84135432E-15  -3.35115701E-08  -4.87346296E-08  -5.00341647E-08  -2.15102716E-14  -4.88197374E-17  -2.27639414E-10  -7.43515329E-15  -7.17353389E-15   7.81418731E-18
   5.07500000E+02   5.00000000E-01   5.00000000E-01  -3.53299088E-07  -3.91747401E-07   3.65472671E-07  -2.00083623E-10  -1.13289165E-10  -1.24571881E-07  -1.94364547E-07   2.68421266E-07  -1.73986759E-14  -5.06163396E-15  -3.35185656E-08  -4.87347748E-08  -5.00341647E-08  -2.09683531E-14   6.34967282E-17  -2.27641111E-10  -7.43515329E-15  -7.17366666E-15   7.40041609E-18
   5.42500000E+02   5.00000000E-01   5.00000000E-01  -3.53299079E-07  -3.93405086E-07   3.63419164E-07  -2.00047853E-10  -1.15002445E-10  -1.24571881E-07  -2.05069579E-07   2.74138779E-07  -1.74102517E-14  -5.32098635E-15  -3.35344700E-08  -4.87349323E-08  -5.00341647E-08  -2.03789600E-14   2.40444819E-16  -2.27643435E-10  -7.43515329E-15  -7.17377978E-15   6.97690171E-18
   5.77500000E+02   5.00000000E-01   5.00000000E-01  -3.53299067E-07  -3.94781318E-07   3.61176719E-07  -2.00009617E-10  -1.16676413E-10  -1.24571880E-07  -2.15827624E-07   2.79923623E-07  -1.74364425E-14  -5.60957737E-15  -3.35590806E-08  -4.87350985E-08  -5.00341647E-08  -1.97382783E-14   5.08126856E-16  -2.27646327E-10  -7.43515329E-15  -7.17387620E-15   6.54483354E-18
   6.12500000E+02   5.00000000E-01   5.00000000E-01  -3.53299052E-07  -3.95868861E-07   3.58810420E-07  -1.99968652E-10  -1.18308934E-10  -1.24571880E-07  -2.26421160E-07   2.85655111E-07  -1.74762456E-14  -5.91512711E-15  -3.35915352E-08  -4.87352711E-08  -5.00341647E-08  -1.90421710E-14   9.01223568E-16  -2.27649683E-10  -7.43515329E-15  -7.17395846E-15   6.10607242E-18
   6.47500000E+02   5.00000000E-01   5.00000000E-01  -3.53299034E-07  -3.96667487E-07   3.56387038E-07  -1.99924674E-10  -1.19899124E-10  -1.24571879E-07  -2.36625467E-07   2.91208020E-07  -1.75272319E-14  -6.22404881E-15  -3.36303215E-08  -4.87354487E-08  -5.00341647E-08  -1.82861481E-14   1.46532217E-15  -2.27653364E-10  -7.43515329E-15  -7.17402872E-15   5.66315817E-18
   6.82500000E+02   5.00000000E-01   5.00000000E-01  -3.53299011E-07  -3.97185522E-07   3.53969322E-07  -1.99877381E-10  -1.21447453E-10  -1.24571879E-07  -2.46227329E-07   2.96463037E-07  -1.75857893E-14  -6.52293665E-15  -3.36734019E-08  -4.87356308E-08  -5.00341647E-08  -1.74653368E-14   2.25977164E-15  -2.27657205E-10  -7.43515329E-15  -7.17408885E-15   5.21926282E-18
   7.17500000E+02   5.00000000E-01   5.00000000E-01  -3.53298983E-07  -3.97441428E-07   3.51610290E-07  -1.99826469E-10  -1.22955811E-10  -1.24571879E-07  -2.55044807E-07   3.01317847E-07  -1.76476545E-14  -6.80012637E-15  -3.37184463E-08  -4.87358175E-08  -5.00341647E-08  -1.65744483E-14   3.36118690E-15  -2.27661036E-10  -7.43515329E-15  -7.17414043E-15   4.77807129E-18
   7.52500000E+02   5.00000000E-01   5.00000000E-01  -3.53298948E-07  -3.97464944E-07   3.49348486E-07  -1.99771642E-10  -1.24427455E-10  -1.24571878E-07  -2.62944364E-07   3.05696807E-07  -1.77086073E-14  -7.04697541E-15  -3.37631311E-08  -4.87360091E-08  -5.00341647E-08  -1.56077427E-14   4.86773153E-15  -2.27664699E-10  -7.43515329E-15  -7.17418484E-15   4.34358294E-18
   7.87500000E+02   5.00000000E-01   5.00000000E-01  -3.53298904E-07  -3.97297302E-07   3.47205229E-07  -1.99712627E-10  -1.25866809E-10  -1.24571878E-07  -2.69851564E-07   3.09557052E-07  -1.77651277E-14  -7.25855630E-15  -3.38054336E-08  -4.87362058E-08  -5.00341647E-08  -1.45589903E-14   6.90427353E-15  -2.27668067E-10  -7.43515329E-15  -7.17422322E-15   3.91984780E-18
   8.22500000E+02   5.00000000E-01   5.00000000E-01  -3.53298851E-07  -3.96990132E-07   3.45184426E-07  -1.99649193E-10  -1.27279082E-10  -1.24571878E-07  -2.75752965E-07   3.12889691E-07  -1.78148264E-14  -7.43363352E-15  -3.38438487E-08  -4.87364066E-08  -5.00341647E-08  -1.34214267E-14   9.62843486E-15  -2.27671056E-10  -7.43515329E-15  -7.17425656E-15   3.51067543E-18
   8.57500000E+02   5.00000000E-01   5.00000000E-01  -3.53298786E-07  -3.96602786E-07   3.43274803E-07  -1.99581152E-10  -1.28669676E-10  -1.24571878E-07  -2.80689238E-07   3.15716084E-07  -1.78565613E-14  -7.57402128E-15  -3.38774839E-08  -4.87366090E-08  -5.00341647E-08  -1.21877010E-14   1.32375588E-14  -2.27673624E-10  -7.43515329E-15  -7.17428566E-15   3.11937104E-18
   8.92500000E+02   5.00000000E-01   5.00000000E-01  -3.53298707E-07  -3.96198242E-07   3.41453919E-07  -1.99508366E-10  -1.30043421E-10  -1.24571878E-07  -2.84741857E-07   3.18080473E-07  -1.78902725E-14  -7.68358722E-15  -3.39060294E-08  -4.87368098E-08  -5.00341647E-08  -1.08498174E-14   1.79768207E-14  -2.27675772E-10  -7.43515329E-15  -7.17431121E-15   2.74855387E-18
   9.27500000E+02   5.00000000E-01   5.00000000E-01  -3.53298614E-07  -3.95838509E-07   3.39693237E-07  -1.99430732E-10  -1.31403822E-10  -1.24571878E-07  -2.88017009E-07   3.20040954E-07  -1.79166536E-14  -7.76720817E-15  -3.39296388E-08  -4.87370077E-08  -5.00341647E-08  -9.39907457E-15   2.41489351E-14  -2.27677527E-10  -7.43515329E-15  -7.17433375E-15   2.40008690E-18
   9.62500000E+02   5.00000000E-01   5.00000000E-01  -3.53298505E-07  -3.95581024E-07   3.37963440E-07  -1.99348162E-10  -1.32752648E-10  -1.24571878E-07  -2.90630353E-07   3.21660799E-07  -1.79367939E-14  -7.82991194E-15  -3.39487682E-08  -4.87372065E-08  -5.00341647E-08  -7.82601002E-15   3.21255781E-14  -2.27678935E-10  -7.43515329E-15  -7.17435372E-15   2.07510681E-18
   9.97500000E+02   5.00000000E-01   5.00000000E-01  -3.53298381E-07  -3.95477546E-07   3.36239189E-07  -1.99260581E-10  -1.34090257E-10  -1.24571879E-07  -2.92695143E-07   3.23001546E-07  -1.79518866E-14  -7.87631152E-15  -3.39640235E-08  -4.87374143E-08  -5.00341647E-08  -6.12035119E-15   4.23584683E-14  -2.27680049E-10  -7.43515329E-15  -7.17437149E-15   1.77409886E-18
   1.03250000E+03   5.00000000E-01   5.00000000E-01  -3.53298246E-07  -3.95575686E-07   3.34502032E-07  -1.99167959E-10  -1.35416804E-10  -1.24571879E-07  -2.94314693E-07   3.24118627E-07  -1.79630425E-14  -7.91032561E-15  -3.39760424E-08  -4.87376347E-08  -5.00341647E-08  -4.27095173E-15   5.53832276E-14  -2.27680921E-10  -7.43515329E-15  -7.17438737E-15   1.49694180E-18
   1.06750000E+03   5.00000000E-01   5.00000000E-01  -3.53298105E-07  -3.95918298E-07   3.32738446E-07  -1.99070361E-10  -1.36732960E-10  -1.24571879E-07  -2.95578888E-07   3.25059883E-07  -1.79712082E-14  -7.93511482E-15  -3.39854258E-08  -4.87378561E-08  -5.00341647E-08  -2.26567758E-15   7.18112455E-14  -2.27681598E-10  -7.43515329E-15  -7.17440157E-15   1.24294390E-18
   1.10250000E+03   5.00000000E-01   5.00000000E-01  -3.53297970E-07  -3.96535871E-07   3.30933685E-07  -1.98967911E-10  -1.38038399E-10  -1.24571879E-07  -2.96563359E-07   3.25866172E-07  -1.79771532E-14  -7.95313887E-15  -3.39927102E-08  -4.87380596E-08  -5.00341647E-08  -9.12480065E-17   9.23234578E-14  -2.27682121E-10  -7.43515329E-15  -7.17441432E-15   1.01100232E-18
   1.13750000E+03   5.00000000E-01   5.00000000E-01  -3.53297863E-07  -3.97440188E-07   3.29071058E-07  -1.98860672E-10  -1.39329905E-10  -1.24571879E-07  -2.97329821E-07   3.26571646E-07  -1.79814796E-14  -7.96625508E-15  -3.39983541E-08  -4.87382404E-08  -5.00341647E-08   2.26689800E-15   1.17681250E-13  -2.27682525E-10  -7.43515329E-15  -7.17442575E-15   7.99879111E-19
   1.17250000E+03   5.00000000E-01   5.00000000E-01  -3.53297809E-07  -3.98628584E-07   3.27138134E-07  -1.98748568E-10  -1.40601587E-10  -1.24571879E-07  -2.97927111E-07   3.27203209E-07  -1.79846394E-14  -7.97582706E-15  -3.40027304E-08  -4.87384216E-08  -5.00341647E-08   4.82463117E-15   1.48740070E-13  -2.27682837E-10  -7.43515329E-15  -7.17443601E-15   6.08452815E-19
   1.20750000E+03   5.00000000E-01   5.00000000E-01  -3.53297846E-07  -4.00098540E-07   3.25134159E-07  -1.98631463E-10  -1.41847918E-10  -1.24571879E-07  -2.98392934E-07   3.27780130E-07  -1.79869574E-14  -7.98283421E-15  -3.40061271E-08  -4.87386383E-08  -5.00341647E-08   7.59908624E-15   1.86407538E-13  -2.27683079E-10  -7.43515329E-15  -7.17444522E-15   4.35775673E-19
   1.24250000E+03   5.00000000E-01   5.00000000E-01  -3.53298012E-07  -4.01864132E-07   3.23073037E-07  -1.98509557E-10  -1.43068710E-10  -1.24571879E-07  -2.98756161E-07   3.28314690E-07  -1.79886572E-14  -7.98797349E-15  -3.40087561E-08  -4.87388795E-08  -5.00341647E-08   1.06087909E-14   2.31442016E-13  -2.27683265E-10  -7.43515329E-15  -7.17445349E-15   2.80810002E-19
   1.27750000E+03   5.00000000E-01   5.00000000E-01  -3.53298357E-07  -4.03941553E-07   3.20964471E-07  -1.98383500E-10  -1.44267298E-10  -1.24571879E-07  -2.99039357E-07   3.28816682E-07  -1.79898982E-14  -7.99174944E-15  -3.40107786E-08  -4.87390762E-08  -5.00341647E-08   1.38741413E-14   2.84204908E-13  -2.27683409E-10  -7.43515329E-15  -7.17446092E-15   1.42254327E-19
   1.31250000E+03   5.00000000E-01   5.00000000E-01  -3.53298939E-07  -4.06314735E-07   3.18798302E-07  -1.98253846E-10  -1.45442249E-10  -1.24571879E-07  -2.99260500E-07   3.29296957E-07  -1.79908033E-14  -7.99453504E-15  -3.40123290E-08  -4.87391793E-08  -5.00341647E-08   1.74179087E-14   3.44655916E-13  -2.27683519E-10  -7.43515329E-15  -7.17446759E-15   1.88116040E-20
   1.34750000E+03   5.00000000E-01   5.00000000E-01  -3.53299812E-07  -4.08932082E-07   3.16561428E-07  -1.98120432E-10  -1.46584058E-10  -1.24571879E-07  -2.99433537E-07   3.29764828E-07  -1.79914682E-14  -7.99660140E-15  -3.40135192E-08  -4.87392345E-08  -5.00341647E-08   2.12652042E-14   4.12543023E-13  -2.27683604E-10  -7.43515329E-15  -7.17447355E-15  -9.03602054E-20
   1.38250000E+03   5.00000000E-01   5.00000000E-01  -3.53300982E-07  -4.11715976E-07   3.14254455E-07  -1.97981355E-10  -1.47672257E-10  -1.24571879E-07  -2.99568715E-07   3.30225409E-07  -1.79919689E-14  -7.99813927E-15  -3.40144423E-08  -4.87394868E-08  -5.00341647E-08   2.54420867E-14   4.87995286E-13  -2.27683670E-10  -7.43515329E-15  -7.17447887E-15  -1.84950161E-19
   1.41750000E+03   5.00000000E-01   5.00000000E-01  -3.53302319E-07  -4.14664681E-07   3.11973099E-07  -1.97834365E-10  -1.48697773E-10  -1.24571878E-07  -2.99672524E-07   3.30665725E-07  -1.79923490E-14  -7.99926550E-15  -3.40151522E-08  -4.87401620E-08  -5.00341647E-08   2.99739729E-14   5.71084724E-13  -2.27683721E-10  -7.43515329E-15  -7.17448363E-15  -2.63851092E-19
   1.45250000E+03   5.00000000E-01   5.00000000E-01  -3.53303701E-07  -4.18027961E-07   3.09965318E-07  -1.97685478E-10  -1.49723589E-10  -1.24571878E-07  -2.99748516E-07   3.31045372E-07  -1.79925884E-14  -8.00003001E-15  -3.40156209E-08  -4.87406664E-08  -5.00341647E-08   3.48899689E-14   6.55867854E-13  -2.27683755E-10  -7.43515329E-15  -7.17448793E-15  -3.28861949E-19
   1.48750000E+03   5.00000000E-01   5.00000000E-01  -3.53305184E-07  -4.21759589E-07   3.08193332E-07  -1.97538190E-10  -1.50765125E-10  -1.24571877E-07  -2.99803245E-07   3.31374091E-07  -1.79927072E-14  -8.00052353E-15  -3.40158823E-08  -4.87408037E-08  -5.00341647E-08   4.02258906E-14   7.36431655E-13  -2.27683777E-10  -7.43515329E-15  -7.17449177E-15  -3.83041688E-19
   1.52250000E+03   5.00000000E-01   5.00000000E-01  -3.53306726E-07  -4.25446995E-07   3.06559439E-07  -1.97382469E-10  -1.51742531E-10  -1.24571876E-07  -2.99844522E-07   3.31672518E-07  -1.79927881E-14  -8.00086485E-15  -3.40160587E-08  -4.87413528E-08  -5.00341647E-08   4.60174798E-14   8.19689774E-13  -2.27683792E-10  -7.43515329E-15  -7.17449514E-15  -4.26363868E-19
   1.55750000E+03   5.00000000E-01   5.00000000E-01  -3.53308104E-07  -4.29008182E-07   3.05380220E-07  -1.97210261E-10  -1.52631209E-10  -1.24571876E-07  -2.99874568E-07   3.31887976E-07  -1.79928640E-14  -8.00108799E-15  -3.40161953E-08  -4.87425952E-08  -5.00341647E-08   5.22963132E-14   9.17700007E-13  -2.27683804E-10  -7.43515329E-15  -7.17449808E-15  -4.57087375E-19
   1.59250000E+03   5.00000000E-01   5.00000000E-01  -3.53309422E-07  -4.32863161E-07   3.05016252E-07  -1.97035633E-10  -1.53544643E-10  -1.24571875E-07  -2.99890726E-07   3.31957718E-07  -1.79928578E-14  -8.00113282E-15  -3.40161814E-08  -4.87434492E-08  -5.00341647E-08   5.91029151E-14   1.02100697E-12  -2.27683807E-10  -7.43515329E-15  -7.17450070E-15  -4.77604249E-19
   1.62750000E+03   5.00000000E-01   5.00000000E-01  -3.53310798E-07  -4.36951498E-07   3.05234234E-07  -1.96864972E-10  -1.54505945E-10  -1.24571873E-07  -2.99895852E-07   3.31922839E-07  -1.79927580E-14  -8.00102247E-15  -3.40160095E-08  -4.87436595E-08  -5.00341647E-08   6.64924028E-14   1.11960899E-12  -2.27683801E-10  -7.43515329E-15  -7.17450301E-15  -4.91694623E-19
   1.66250000E+03   5.00000000E-01   5.00000000E-01  -3.53311994E-07  -4.40931234E-07   3.05947053E-07  -1.96688002E-10  -1.55453275E-10  -1.24571871E-07  -2.99895423E-07   3.31800977E-07  -1.79926248E-14  -8.00083550E-15  -3.40157755E-08  -4.87435721E-08  -5.00341647E-08   7.45290251E-14   1.23133962E-12  -2.27683792E-10  -7.43515329E-15  -7.17450499E-15  -5.00586070E-19
   1.69750000E+03   5.00000000E-01   5.00000000E-01  -3.53312937E-07  -4.44747578E-07   3.07309779E-07  -1.96501810E-10  -1.56382374E-10  -1.24571869E-07  -2.99891102E-07   3.31566603E-07  -1.79924730E-14  -8.00059231E-15  -3.40155037E-08  -4.87433418E-08  -5.00341647E-08   8.32806547E-14   1.37109575E-12  -2.27683780E-10  -7.43515329E-15  -7.17450668E-15  -5.05046525E-19
   1.73250000E+03   5.00000000E-01   5.00000000E-01  -3.53313833E-07  -4.48405828E-07   3.09155760E-07  -1.96313176E-10  -1.57313080E-10  -1.24571867E-07  -2.99883748E-07   3.31248463E-07  -1.79922791E-14  -8.00029299E-15  -3.40151690E-08  -4.87430760E-08  -5.00341647E-08   9.28150125E-14   1.52085678E-12  -2.27683766E-10  -7.43515329E-15  -7.17450812E-15  -5.07880518E-19
   1.76750000E+03   5.00000000E-01   5.00000000E-01  -3.53314559E-07  -4.51718855E-07   3.11228000E-07  -1.96118854E-10  -1.58207121E-10  -1.24571864E-07  -2.99877544E-07   3.30892425E-07  -1.79920786E-14  -8.00000280E-15  -3.40148330E-08  -4.87428813E-08  -5.00341647E-08   1.03199431E-13   1.67192805E-12  -2.27683752E-10  -7.43515329E-15  -7.17450932E-15  -5.11797242E-19
   1.80250000E+03   5.00000000E-01   5.00000000E-01  -3.53314713E-07  -4.54532603E-07   3.13635067E-07  -1.95905917E-10  -1.59011848E-10  -1.24571861E-07  -2.99876861E-07   3.30482306E-07  -1.79919517E-14  -7.99980883E-15  -3.40146103E-08  -4.87428258E-08  -5.00341647E-08   1.14502399E-13   1.85800070E-12  -2.27683744E-10  -7.43515329E-15  -7.17451031E-15  -5.17344544E-19
   1.83750000E+03   5.00000000E-01   5.00000000E-01  -3.53313708E-07  -4.56809704E-07   3.16829797E-07  -1.95655475E-10  -1.59690551E-10  -1.24571859E-07  -2.99884118E-07   3.29942365E-07  -1.79919848E-14  -7.99977669E-15  -3.40146141E-08  -4.87431090E-08  -5.00341647E-08   1.26790374E-13   2.16323903E-12  -2.27683746E-10  -7.43515329E-15  -7.17451111E-15  -5.22704963E-19
   1.87250000E+03   5.00000000E-01   5.00000000E-01  -3.53310862E-07  -4.58608272E-07   3.21492314E-07  -1.95346642E-10  -1.60231775E-10  -1.24571857E-07  -2.99899434E-07   3.29156954E-07  -1.79922231E-14  -7.99992940E-15  -3.40149069E-08  -4.87438515E-08  -5.00341647E-08   1.40126499E-13   2.73914531E-12  -2.27683762E-10  -7.43515329E-15  -7.17451177E-15  -5.24904345E-19
   1.90750000E+03   5.00000000E-01   5.00000000E-01  -3.53306162E-07  -4.60204978E-07   3.27946593E-07  -1.94986152E-10  -1.60711414E-10  -1.24571856E-07  -2.99917608E-07   3.28068117E-07  -1.79925521E-14  -8.00016538E-15  -3.40153448E-08  -4.87445829E-08  -5.00341647E-08   1.54586946E-13   3.71141080E-12  -2.27683784E-10  -7.43515329E-15  -7.17451233E-15  -5.23026612E-19
   1.94250000E+03   5.00000000E-01   5.00000000E-01  -3.53300410E-07  -4.61915292E-07   3.35504538E-07  -1.94614949E-10  -1.61250374E-10  -1.24571854E-07  -2.99932276E-07   3.26789481E-07  -1.79928040E-14  -8.00033919E-15  -3.40156890E-08  -4.87448262E-08  -5.00341647E-08   1.70274372E-13   4.98581321E-12  -2.27683802E-10  -7.43515329E-15  -7.17451282E-15  -5.20389551E-19
   1.97750000E+03   5.00000000E-01   5.00000000E-01  -3.53294348E-07  -4.63777832E-07   3.43196519E-07  -1.94272203E-10  -1.61895061E-10  -1.24571852E-07  -2.99943125E-07   3.25485905E-07  -1.79929227E-14  -8.00041985E-15  -3.40158477E-08  -4.87446346E-08  -5.00341647E-08   1.87310994E-13   6.28011803E-12  -2.27683813E-10  -7.43515329E-15  -7.17451325E-15  -5.22999925E-19
   2.01250000E+03   5.00000000E-01   5.00000000E-01  -3.53287941E-07  -4.65580414E-07   3.50562587E-07  -1.93962418E-10  -1.62589737E-10  -1.24571849E-07  -2.99955740E-07   3.24238662E-07  -1.79929630E-14  -8.00050387E-15  -3.40159088E-08  -4.87442153E-08  -5.00341647E-08   2.05829665E-13   7.41295472E-12  -2.27683820E-10  -7.43515329E-15  -7.17451361E-15  -5.35423033E-19
   2.04750000E+03   5.00000000E-01   5.00000000E-01  -3.53280439E-07  -4.67118660E-07   3.57650654E-07  -1.93661358E-10  -1.63250972E-10  -1.24571846E-07  -2.99976003E-07   3.23042697E-07  -1.79930150E-14  -8.00071228E-15  -3.40160229E-08  -4.87437059E-08  -5.00341647E-08   2.25968804E-13   8.42452956E-12  -2.27683831E-10  -7.43515329E-15  -7.17451390E-15  -5.58541584E-19
   2.08250000E+03   5.00000000E-01   5.00000000E-01  -3.53271091E-07  -4.68350396E-07   3.64786743E-07  -1.93348000E-10  -1.63841212E-10  -1.24571843E-07  -3.00005253E-07   3.21843221E-07  -1.79931253E-14  -8.00108278E-15  -3.40162651E-08  -4.87431742E-08  -5.00341647E-08   2.47866564E-13   9.43346027E-12  -2.27683849E-10  -7.43515329E-15  -7.17451414E-15  -5.90776065E-19
   2.11750000E+03   5.00000000E-01   5.00000000E-01  -3.53259374E-07  -4.69329376E-07   3.72284307E-07  -1.93013256E-10  -1.64362075E-10  -1.24571841E-07  -3.00041336E-07   3.20585767E-07  -1.79932926E-14  -8.00157940E-15  -3.40166281E-08  -4.87426517E-08  -5.00341647E-08   2.71658833E-13   1.05312284E-11  -2.27683873E-10  -7.43515329E-15  -7.17451433E-15  -6.29836219E-19
   2.15250000E+03   5.00000000E-01   5.00000000E-01  -3.53244877E-07  -4.70123555E-07   3.80338590E-07  -1.92654393E-10  -1.64827551E-10  -1.24571840E-07  -3.00081256E-07   3.19235543E-07  -1.79934959E-14  -8.00214484E-15  -3.40170721E-08  -4.87421545E-08  -5.00341647E-08   2.97480729E-13   1.17752668E-11  -2.27683900E-10  -7.43515329E-15  -7.17451449E-15  -6.73656263E-19
   2.18750000E+03   5.00000000E-01   5.00000000E-01  -3.53227170E-07  -4.70785786E-07   3.89051892E-07  -1.92270570E-10  -1.65251005E-10  -1.24571840E-07  -3.00122512E-07   3.17773823E-07  -1.79937133E-14  -8.00272988E-15  -3.40175571E-08  -4.87416909E-08  -5.00341647E-08   3.25468303E-13   1.32074240E-11  -2.27683929E-10  -7.43515329E-15  -7.17451463E-15  -7.20679448E-19
   2.22250000E+03   5.00000000E-01   5.00000000E-01  -3.53205746E-07  -4.71351444E-07   3.98470771E-07  -1.91861093E-10  -1.65642112E-10  -1.24571840E-07  -3.00163356E-07   3.16191748E-07  -1.79939285E-14  -8.00330040E-15  -3.40180523E-08  -4.87412653E-08  -5.00341647E-08   3.55759264E-13   1.48666911E-11  -2.27683958E-10  -7.43515329E-15  -7.17451474E-15  -7.69830707E-19
   2.25750000E+03   5.00000000E-01   5.00000000E-01  -3.53179985E-07  -4.71843008E-07   4.08608101E-07  -1.91424955E-10  -1.66007229E-10  -1.24571841E-07  -3.00202666E-07   3.14486505E-07  -1.79941309E-14  -8.00383527E-15  -3.40185363E-08  -4.87408790E-08  -5.00341647E-08   3.88492710E-13   1.67950985E-11  -2.27683985E-10  -7.43515329E-15  -7.17451484E-15  -8.20391092E-19
   2.29250000E+03   5.00000000E-01   5.00000000E-01  -3.53149124E-07  -4.72274733E-07   4.19454256E-07  -1.90960809E-10  -1.66350434E-10  -1.24571842E-07  -3.00239746E-07   3.12659321E-07  -1.79943143E-14  -8.00432257E-15  -3.40189950E-08  -4.87405310E-08  -5.00341647E-08   4.23808085E-13   1.90401974E-11  -2.27684011E-10  -7.43515329E-15  -7.17451492E-15  -8.71871774E-19
   2.32750000E+03   5.00000000E-01   5.00000000E-01  -3.53112235E-07  -4.72655981E-07   4.30982789E-07  -1.90467031E-10  -1.66674407E-10  -1.24571844E-07  -3.00274181E-07   3.10714423E-07  -1.79944756E-14  -8.00475653E-15  -3.40194194E-08  -4.87402189E-08  -5.00341647E-08   4.61843521E-13   2.16562024E-11  -2.27684034E-10  -7.43515329E-15  -7.17451500E-15  -9.23918579E-19
   2.36250000E+03   5.00000000E-01   5.00000000E-01  -3.53068192E-07  -4.72993294E-07   4.43153569E-07  -1.89941783E-10  -1.66981010E-10  -1.24571846E-07  -3.00305739E-07   3.08658451E-07  -1.79946139E-14  -8.00513548E-15  -3.40198040E-08  -4.87399388E-08  -5.00341647E-08   5.02733653E-13   2.47046932E-11  -2.27684055E-10  -7.43515329E-15  -7.17451506E-15  -9.76248808E-19
   2.39750000E+03   5.00000000E-01   5.00000000E-01  -3.53015635E-07  -4.73291598E-07   4.55914903E-07  -1.89383036E-10  -1.67271631E-10  -1.24571848E-07  -3.00334318E-07   3.06500070E-07  -1.79947296E-14  -8.00546056E-15  -3.40201463E-08  -4.87396864E-08  -5.00341647E-08   5.46606964E-13   2.82551918E-11  -2.27684073E-10  -7.43515329E-15  -7.17451512E-15  -1.02861290E-18
   2.43250000E+03   5.00000000E-01   5.00000000E-01  -3.52952925E-07  -4.73554884E-07   4.69205402E-07  -1.88788559E-10  -1.67547379E-10  -1.24571851E-07  -3.00359913E-07   3.04249634E-07  -1.79948245E-14  -8.00573482E-15  -3.40204458E-08  -4.87394570E-08  -5.00341647E-08   5.93582654E-13   3.23856494E-11  -2.27684089E-10  -7.43515329E-15  -7.17451517E-15  -1.08077279E-18
   2.46750000E+03   5.00000000E-01   5.00000000E-01  -3.52878087E-07  -4.73786582E-07   4.82955926E-07  -1.88155876E-10  -1.67809181E-10  -1.24571853E-07  -3.00382591E-07   3.01918845E-07  -1.79949007E-14  -8.00596258E-15  -3.40207037E-08  -4.87392459E-08  -5.00341647E-08   6.43767016E-13   3.71826970E-11  -2.27684102E-10  -7.43515329E-15  -7.17451521E-15  -1.13249077E-18
   2.50250000E+03   5.00000000E-01   5.00000000E-01  -3.52788742E-07  -4.73989773E-07   4.97091703E-07  -1.87482206E-10  -1.68057829E-10  -1.24571856E-07  -3.00402478E-07   2.99520384E-07  -1.79949606E-14  -8.00614886E-15  -3.40209225E-08  -4.87390487E-08  -5.00341647E-08   6.97249292E-13   4.27413643E-11  -2.27684114E-10  -7.43515329E-15  -7.17451525E-15  -1.18352450E-18
   2.53750000E+03   5.00000000E-01   5.00000000E-01  -3.52682035E-07  -4.74167306E-07   5.11534513E-07  -1.86764381E-10  -1.68294001E-10  -1.24571859E-07  -3.00419745E-07   2.97067535E-07  -1.79950070E-14  -8.00629904E-15  -3.40211054E-08  -4.87388615E-08  -5.00341647E-08   7.54096958E-13   4.91638413E-11  -2.27684123E-10  -7.43515329E-15  -7.17451528E-15  -1.23362587E-18
   2.57250000E+03   5.00000000E-01   5.00000000E-01  -3.52554533E-07  -4.74321871E-07   5.26204747E-07  -1.85998756E-10  -1.68518262E-10  -1.24571861E-07  -3.00434592E-07   2.94573827E-07  -1.79950422E-14  -8.00641846E-15  -3.40212564E-08  -4.87386810E-08  -5.00341647E-08   8.14350388E-13   5.65567655E-11  -2.27684131E-10  -7.43515329E-15  -7.17451531E-15  -1.28254180E-18
   2.60750000E+03   5.00000000E-01   5.00000000E-01  -3.52402121E-07  -4.74456030E-07   5.41023107E-07  -1.85181090E-10  -1.68731062E-10  -1.24571864E-07  -3.00447242E-07   2.92052748E-07  -1.79950686E-14  -8.00651219E-15  -3.40213793E-08  -4.87385044E-08  -5.00341647E-08   8.78016833E-13   6.50264710E-11  -2.27684137E-10  -7.43515329E-15  -7.17451534E-15  -1.33001617E-18
   2.64250000E+03   5.00000000E-01   5.00000000E-01  -3.52219870E-07  -4.74572218E-07   5.55911687E-07  -1.84306393E-10  -1.68932710E-10  -1.24571866E-07  -3.00457923E-07   2.89517563E-07  -1.79950880E-14  -8.00658486E-15  -3.40214782E-08  -4.87383300E-08  -5.00341647E-08   9.45063667E-13   7.46716681E-11  -2.27684142E-10  -7.43515329E-15  -7.17451536E-15  -1.37579197E-18
   2.67750000E+03   5.00000000E-01   5.00000000E-01  -3.52001879E-07  -4.74672715E-07   5.70794155E-07  -1.83368724E-10  -1.69123350E-10  -1.24571869E-07  -3.00466867E-07   2.86981283E-07  -1.79951020E-14  -8.00664058E-15  -3.40215569E-08  -4.87381572E-08  -5.00341647E-08   1.01541085E-12   8.55731639E-11  -2.27684146E-10  -7.43515329E-15  -7.17451538E-15  -1.41961324E-18
   2.71250000E+03   5.00000000E-01   5.00000000E-01  -3.51741084E-07  -4.74759578E-07   5.85594695E-07  -1.82360895E-10  -1.69302918E-10  -1.24571871E-07  -3.00474296E-07   2.84456862E-07  -1.79951121E-14  -8.00668287E-15  -3.40216189E-08  -4.87379863E-08  -5.00341647E-08   1.08892259E-12   9.77805291E-11  -2.27684149E-10  -7.43515329E-15  -7.17451540E-15  -1.46122622E-18