 TITLE = "Mineral Rate (mol/m^3/sec)" 
VARIABLES = "X"          "Y"              "Z"            "Forsterite"     "Fayalite"       "Brucite"        "Lizardite"      "Chrysotile"     "Saponite(Mg)"   "Enstatite(alph" "Ferrosilite(al" "Anorthite"      "Albite(low)"    "Clinochlore"    "Sudoite"        "Montmorillonit" "Kaolinite"      "Tremolite"      "Pargasite"      "Anhydrite"      "Epidote"        "Scolecite"      "Pyrite"         "FeS(am)"        "Quartz(alpha)" 
 ZONE I=         100 , J=           1 , K=           1  F=POINT
   1.75000000E+01   5.00000000E-01   5.00000000E-01  -1.08557097E-06  -2.71509007E-07  -3.57133342E-15  -8.07591558E-18  -8.03425044E-18   0.00000000E+00  -1.98617845E-10   1.78139732E-11  -6.14189271E-07  -2.18575055E-07   7.93236018E-07  -8.53870520E-14  -7.06846348E-16  -1.19283083E-12  -3.32445132E-08  -4.63445849E-08  -1.99618574E-15  -2.81110340E-15  -2.24214137E-10  -3.68992635E-15  -4.29348371E-15   4.70737752E-17
   5.25000000E+01   5.00000000E-01   5.00000000E-01  -1.08557097E-06  -1.26977045E-07  -3.57134354E-15  -1.04958851E-17  -9.70109156E-18   0.00000000E+00  -1.98316396E-10   1.33503978E-10  -6.14189271E-07  -2.05678261E-08   6.94215515E-07  -2.46656008E-14  -3.77672472E-14  -1.15961578E-12  -1.51088607E-08  -4.63445849E-08  -1.99717705E-15   1.04066567E-15  -2.24213924E-10  -3.68992635E-15  -4.29357358E-15   6.64231532E-17
   8.75000000E+01   5.00000000E-01   5.00000000E-01  -1.08557093E-06  -5.30985606E-08  -3.57134491E-15  -1.07715718E-17  -9.89838098E-18   0.00000000E+00  -1.98071451E-10   1.82016573E-10  -6.14189272E-07   1.01610409E-07   6.33128399E-07  -2.35776805E-14  -2.41091163E-12  -1.19263407E-12  -9.20650980E-10  -4.63445849E-08  -1.99805526E-15   1.86604538E-16  -2.24213898E-10  -3.68992635E-15  -4.29372516E-15   7.22686722E-17
   1.22500000E+02   5.00000000E-01   5.00000000E-01  -1.08557088E-06  -2.42282359E-08  -3.57134427E-15  -1.01502537E-17  -9.45268133E-18   0.00000000E+00  -1.97868504E-10   1.97450717E-10  -6.14189273E-07   1.52211748E-07   6.07893310E-07  -3.04584760E-14  -8.13362819E-11  -1.24962688E-12   5.52949080E-09  -4.63445849E-08  -1.99844827E-15   3.49845937E-17  -2.24214022E-10  -3.68992635E-15  -4.29386817E-15   7.28840676E-17
   1.57500000E+02   5.00000000E-01   5.00000000E-01  -1.08557081E-06  -1.43278702E-08  -3.57134304E-15  -9.40608396E-18  -8.90192046E-18   0.00000000E+00  -1.97679937E-10   2.00352936E-10  -6.14189275E-07   1.71245249E-07   5.99503517E-07  -4.54660089E-14  -1.43898844E-09  -1.32369389E-12   7.64089190E-09  -4.63445849E-08  -1.99798565E-15  -5.90826802E-18  -2.24214223E-10  -3.68992635E-15  -4.29398817E-15   7.17527885E-17
   1.92500000E+02   5.00000000E-01   5.00000000E-01  -1.08557074E-06  -1.36087300E-08  -3.57134215E-15  -8.85428594E-18  -8.47625598E-18   0.00000000E+00  -1.97510619E-10   1.98848281E-10  -6.14189278E-07   1.93913020E-07   6.01163145E-07  -7.46970762E-14  -1.70936438E-08  -1.41221156E-12   6.07285302E-09  -4.63445849E-08  -1.99612374E-15   6.51208205E-18  -2.24214386E-10  -3.68992635E-15  -4.29408586E-15   7.04151901E-17
   2.27500000E+02   5.00000000E-01   5.00000000E-01  -1.08557072E-06  -2.93882394E-08  -3.57134489E-15  -8.95844548E-18  -8.52703965E-18   0.00000000E+00  -1.97464428E-10   1.94534483E-10  -6.14189281E-07   3.14800138E-07   6.25149598E-07  -1.28634531E-13  -1.18816294E-07  -1.51227251E-12  -6.87984223E-09  -4.63445849E-08  -1.99151460E-15   1.47615037E-16  -2.24213829E-10  -3.68992635E-15  -4.29416899E-15   7.06358810E-17
   2.62500000E+02   5.00000000E-01   5.00000000E-01  -1.08557072E-06  -4.40683477E-08  -3.57134971E-15  -9.38836397E-18  -8.84271691E-18   0.00000000E+00  -1.97479483E-10   1.91281075E-10  -6.14189287E-07   5.00758524E-07   6.45844577E-07  -2.22501643E-13  -2.55772767E-07  -1.62125497E-12  -1.99758615E-08  -4.63445849E-08  -1.98320116E-15   1.84666483E-16  -2.24212181E-10  -3.68992635E-15  -4.29422761E-15   7.11647398E-17
   2.97500000E+02   5.00000000E-01   5.00000000E-01  -1.08557065E-06  -3.05731857E-08  -3.57135129E-15  -9.48841166E-18  -8.93040756E-18   0.00000000E+00  -1.97321026E-10   1.96527115E-10  -6.14189294E-07   5.55911689E-07   6.38605278E-07  -3.77823618E-13  -2.80274997E-07  -1.73694403E-12  -2.11620151E-08  -4.63445849E-08  -1.97087053E-15   3.30283768E-17  -2.24211345E-10  -3.68992635E-15  -4.29425654E-15   7.03841763E-17
   3.32500000E+02   5.00000000E-01   5.00000000E-01  -1.08557054E-06  -1.85045728E-08  -3.57135167E-15  -9.51622149E-18  -8.96729283E-18   0.00000000E+00  -1.97102531E-10   1.99112019E-10  -6.14189304E-07   5.48098061E-07   6.31608090E-07  -6.24700301E-13  -2.67136894E-07  -1.85663099E-12  -1.98763626E-08  -4.63445849E-08  -1.95341301E-15  -1.63515199E-17  -2.24211067E-10  -3.68992635E-15  -4.29428198E-15   6.88739855E-17
   3.67500000E+02   5.00000000E-01   5.00000000E-01  -1.08557040E-06  -1.20843692E-08  -3.57135168E-15  -9.54278052E-18  -9.00421521E-18   0.00000000E+00  -1.96864207E-10   1.98422430E-10  -6.14189318E-07   5.21013357E-07   6.27820310E-07  -1.00375526E-12  -2.46256142E-07  -1.97749059E-12  -1.82311594E-08  -4.63445849E-08  -1.92916576E-15  -2.89427960E-17  -2.24210984E-10  -3.68992635E-15  -4.29430510E-15   6.70737551E-17
   4.02500000E+02   5.00000000E-01   5.00000000E-01  -1.08557023E-06  -9.00804864E-09  -3.57135152E-15  -9.57333876E-18  -9.04472700E-18   0.00000000E+00  -1.96613066E-10   1.95964140E-10  -6.14189336E-07   4.88188352E-07   6.25839095E-07  -1.56525069E-12  -2.24093516E-07  -2.09834436E-12  -1.65367135E-08  -4.63445849E-08  -1.89585278E-15  -3.17836223E-17  -2.24210983E-10  -3.68992635E-15  -4.29432355E-15   6.51777978E-17
   4.37500000E+02   5.00000000E-01   5.00000000E-01  -1.08557004E-06  -7.56966289E-09  -3.57135125E-15  -9.60026452E-18  -9.08266244E-18   0.00000000E+00  -1.96350803E-10   1.92661570E-10  -6.14189360E-07   4.54306710E-07   6.24735739E-07  -2.36848635E-12  -2.02351433E-07  -2.21964405E-12  -1.48597593E-08  -4.63445849E-08  -1.85038494E-15  -3.09214842E-17  -2.24211023E-10  -3.68992635E-15  -4.29433666E-15   6.32649300E-17
   4.72500000E+02   5.00000000E-01   5.00000000E-01  -1.08556980E-06  -6.90731981E-09  -3.57135090E-15  -9.61901745E-18  -9.11422931E-18   0.00000000E+00  -1.96078233E-10   1.88958787E-10  -6.14189391E-07   4.21176761E-07   6.24072962E-07  -3.47891239E-12  -1.81592246E-07  -2.34183144E-12  -1.32344083E-08  -4.63445849E-08  -1.78855888E-15  -2.81414043E-17  -2.24211086E-10  -3.68992635E-15  -4.29434477E-15   6.13677092E-17
   5.07500000E+02   5.00000000E-01   5.00000000E-01  -1.08556953E-06  -6.61624430E-09  -3.57135047E-15  -9.63026084E-18  -9.13977423E-18   0.00000000E+00  -1.95795928E-10   1.85062903E-10  -6.14189433E-07   3.89532745E-07   6.23657672E-07  -4.97528864E-12  -1.62025431E-07  -2.46491668E-12  -1.16856301E-08  -4.63445849E-08  -1.70462431E-15  -2.41510711E-17  -2.24211164E-10  -3.68992635E-15  -4.29434864E-15   5.95008447E-17
   5.42500000E+02   5.00000000E-01   5.00000000E-01  -1.08556921E-06  -6.50628768E-09  -3.57134998E-15  -9.63686628E-18  -9.16149131E-18   0.00000000E+00  -1.95504320E-10   1.81074563E-10  -6.14189487E-07   3.59660986E-07   6.23400170E-07  -6.95599344E-12  -1.43715166E-07  -2.58770952E-12  -1.02303301E-08  -4.63445849E-08  -1.59066106E-15  -1.93151780E-17  -2.24211249E-10  -3.68992635E-15  -4.29434911E-15   5.76719596E-17
   5.77500000E+02   5.00000000E-01   5.00000000E-01  -1.08556884E-06  -6.48616240E-09  -3.57134944E-15  -9.64264128E-18  -9.18244029E-18   0.00000000E+00  -1.95203731E-10   1.77046349E-10  -6.14189558E-07   3.31643243E-07   6.23251130E-07  -9.53770421E-12  -1.26650990E-07  -2.70764766E-12  -8.87786937E-09  -4.63445849E-08  -1.43567342E-15  -1.38696715E-17  -2.24211335E-10  -3.68992635E-15  -4.29434694E-15   5.58855482E-17
   6.12500000E+02   5.00000000E-01   5.00000000E-01  -1.08556841E-06  -6.51129316E-09  -3.57134885E-15  -9.65223576E-18  -9.20649695E-18   0.00000000E+00  -1.94894416E-10   1.73007989E-10  -6.14189650E-07   3.05461438E-07   6.23176042E-07  -1.28554758E-11  -1.10780107E-07  -2.82262761E-12  -7.63155557E-09  -4.63445849E-08  -1.22425823E-15  -7.99599316E-18  -2.24211418E-10  -3.68992635E-15  -4.29434280E-15   5.41444485E-17
   6.47500000E+02   5.00000000E-01   5.00000000E-01  -1.08556791E-06  -6.56011793E-09  -3.57134825E-15  -9.67143224E-18  -9.23862173E-18   0.00000000E+00  -1.94576584E-10   1.68977465E-10  -6.14189769E-07   2.81047352E-07   6.23145763E-07  -1.70489754E-11  -9.60259651E-08  -2.93307053E-12  -6.49039407E-09  -4.63445849E-08  -9.34622474E-16  -1.85009428E-18  -2.24211501E-10  -3.68992635E-15  -4.29433727E-15   5.24504354E-17
   6.82500000E+02   5.00000000E-01   5.00000000E-01  -1.08556734E-06  -6.62284437E-09  -3.57134764E-15  -9.70749710E-18  -9.28518996E-18   0.00000000E+00  -1.94250427E-10   1.64966220E-10  -6.14189923E-07   2.58308876E-07   6.23133590E-07  -2.22649798E-11  -8.23005367E-08  -3.04119339E-12  -5.45060661E-09  -4.63445849E-08  -5.35594154E-16   4.42594993E-18  -2.24211594E-10  -3.68992635E-15  -4.29433079E-15   5.08045073E-17
   7.17500000E+02   5.00000000E-01   5.00000000E-01  -1.08556669E-06  -6.69579268E-09  -3.57134705E-15  -9.76956596E-18  -9.35436093E-18   0.00000000E+00  -1.93916131E-10   1.60981794E-10  -6.14190122E-07   2.37144679E-07   6.23114875E-07  -2.86991900E-11  -6.95125993E-08  -3.14856003E-12  -4.50676095E-09  -4.63445849E-08   1.79482983E-17   1.06995983E-17  -2.24211707E-10  -3.68992635E-15  -4.29432375E-15   4.92070594E-17
   7.52500000E+02   5.00000000E-01   5.00000000E-01  -1.08556594E-06  -6.77830726E-09  -3.57134654E-15  -9.86948120E-18  -9.45684460E-18   0.00000000E+00  -1.93573892E-10   1.57029323E-10  -6.14190380E-07   2.17451212E-07   6.23067489E-07  -3.65821029E-11  -5.75725380E-08  -3.25570242E-12  -3.65248099E-09  -4.63445849E-08   7.92170939E-16   1.68470956E-17  -2.24211851E-10  -3.68992635E-15  -4.29431645E-15   4.76580179E-17
   7.87500000E+02   5.00000000E-01   5.00000000E-01  -1.08556509E-06  -6.87106778E-09  -3.57134613E-15  -1.00230296E-17  -9.60703634E-18   0.00000000E+00  -1.93223912E-10   1.53112417E-10  -6.14190715E-07   1.99126909E-07   6.22972534E-07  -4.62102330E-11  -4.63956647E-08  -3.36279897E-12  -2.88088630E-09  -4.63445849E-08   1.88547551E-15   2.27548898E-17  -2.24212044E-10  -3.68992635E-15  -4.29430911E-15   4.61569489E-17
   8.22500000E+02   5.00000000E-01   5.00000000E-01  -1.08556412E-06  -6.97511789E-09  -3.57134590E-15  -1.02519755E-17  -9.82487425E-18   0.00000000E+00  -1.92866408E-10   1.49233721E-10  -6.14191152E-07   1.82074659E-07   6.22814952E-07  -5.79455874E-11  -3.59044342E-08  -3.46970253E-12  -2.18483636E-09  -4.63445849E-08   3.44645583E-15   2.83217416E-17  -2.24212308E-10  -3.68992635E-15  -4.29430190E-15   4.47031481E-17
   8.57500000E+02   5.00000000E-01   5.00000000E-01  -1.08556304E-06  -7.09129491E-09  -3.57134594E-15  -1.05872568E-17  -1.01387591E-17   0.00000000E+00  -1.92501611E-10   1.45395271E-10  -6.14191722E-07   1.66203327E-07   6.22583899E-07  -7.22621782E-11  -2.60297006E-08  -3.57587951E-12  -1.55706094E-09  -4.63445849E-08   5.70323995E-15   3.34605402E-17  -2.24212674E-10  -3.68992635E-15  -4.29429493E-15   4.32957108E-17
   8.92500000E+02   5.00000000E-01   5.00000000E-01  -1.08556182E-06  -7.21987519E-09  -3.57134637E-15  -1.10742677E-17  -1.05903748E-17   0.00000000E+00  -1.92129764E-10   1.41598740E-10  -6.14192471E-07   1.51428440E-07   6.22272797E-07  -8.97515862E-11  -1.67111729E-08  -3.68024737E-12  -9.90219253E-10  -4.63445849E-08   9.01238272E-15   3.80998539E-17  -2.24213183E-10  -3.68992635E-15  -4.29428829E-15   4.19335861E-17
   9.27500000E+02   5.00000000E-01   5.00000000E-01  -1.08556046E-06  -7.36037714E-09  -3.57134733E-15  -1.17815772E-17  -1.12426367E-17   0.00000000E+00  -1.91751124E-10   1.37845570E-10  -6.14193459E-07   1.37672537E-07   6.21879123E-07  -1.11214631E-10  -7.89714855E-09  -3.78130635E-12  -4.76949875E-10  -4.63445849E-08   1.39420534E-14   4.21845704E-17  -2.24213896E-10  -3.68992635E-15  -4.29428201E-15   4.06156151E-17
   9.62500000E+02   5.00000000E-01   5.00000000E-01  -1.08555896E-06  -7.51144328E-09  -3.57134902E-15  -1.28158383E-17  -1.21932661E-17   0.00000000E+00  -1.91365964E-10   1.34137059E-10  -6.14194775E-07   1.24865160E-07   6.21403933E-07  -1.37718644E-10   4.56224555E-10  -3.87741849E-12  -9.92026435E-12  -4.63445849E-08   2.14167747E-14   4.56760617E-17  -2.24214904E-10  -3.68992635E-15  -4.29427612E-15   3.93405576E-17
   9.97500000E+02   5.00000000E-01   5.00000000E-01  -1.08555731E-06  -7.67076290E-09  -3.57135171E-15  -1.43477537E-17  -1.35984102E-17   0.00000000E+00  -1.90974579E-10   1.30474400E-10  -6.14196549E-07   1.12942668E-07   6.20851136E-07  -1.70594375E-10   8.38593630E-09  -3.96733620E-12   4.18124152E-10  -4.63445849E-08   3.29753579E-14   4.85512803E-17  -2.24216348E-10  -3.68992635E-15  -4.29427061E-15   3.81071109E-17
   1.03250000E+03   5.00000000E-01   5.00000000E-01  -1.08555553E-06  -7.83504222E-09  -3.57135572E-15  -1.66576933E-17  -1.57141473E-17   0.00000000E+00  -1.90577282E-10   1.26858686E-10  -6.14198986E-07   1.01848144E-07   6.20226698E-07  -2.11517993E-10   1.59233689E-08  -4.05104507E-12   8.14281323E-10  -4.63445849E-08   5.12425007E-14   5.08017076E-17  -2.24218456E-10  -3.68992635E-15  -4.29426547E-15   3.69139211E-17
   1.06750000E+03   5.00000000E-01   5.00000000E-01  -1.08555362E-06  -8.00002087E-09  -3.57136146E-15  -2.02156154E-17  -1.89693533E-17   0.00000000E+00  -1.90174421E-10   1.23290879E-10  -6.14202419E-07   9.15316400E-08   6.19537905E-07  -2.62731439E-10   2.30956407E-08  -4.12927158E-12   1.18535958E-09  -4.63445849E-08   8.08151034E-14   5.24317004E-17  -2.24221616E-10  -3.68992635E-15  -4.29426066E-15   3.57595863E-17
   1.10250000E+03   5.00000000E-01   5.00000000E-01  -1.08555162E-06  -8.16049523E-09  -3.57136944E-15  -2.58159135E-17  -2.40893620E-17   0.00000000E+00  -1.89766393E-10   1.19771652E-10  -6.14207441E-07   8.19507457E-08   6.18793268E-07  -3.27462328E-10   2.99265398E-08  -4.20257242E-12   1.53736433E-09  -4.63445849E-08   1.29977901E-13   5.34567331E-17  -2.24226530E-10  -3.68992635E-15  -4.29425611E-15   3.46426320E-17
   1.13750000E+03   5.00000000E-01   5.00000000E-01  -1.08557279E-06  -4.18995169E-07  -3.57146299E-15  -3.10913564E-17  -2.89949513E-17   2.79723835E-06  -1.99497995E-10  -1.30765352E-10  -6.14211577E-07  -1.64029169E-07  -1.03435737E-06  -2.13254218E-09   1.60128028E-06  -5.73298654E-12  -4.52410869E-08  -4.63445849E-08   2.13464042E-13   5.66495260E-16  -2.23498526E-10  -3.68992635E-15  -4.29426611E-15   4.68379809E-18
   1.17250000E+03   5.00000000E-01   5.00000000E-01  -1.08557194E-06  -2.67115673E-07  -3.57146079E-15  -4.43559752E-17  -4.11629100E-17   0.00000000E+00  -1.98416169E-10  -6.87721739E-11  -6.14227443E-07  -1.27715103E-07   8.07657818E-07  -6.51831630E-10  -7.05091687E-08  -4.80571609E-12  -4.52402179E-08  -4.63445849E-08   3.61400454E-13  -1.58393119E-17  -2.23901623E-10  -3.68992635E-15  -4.29422765E-15   8.26259118E-18
   1.20750000E+03   5.00000000E-01   5.00000000E-01  -1.08557116E-06  -1.01077726E-07  -3.57147075E-15  -6.49673130E-17  -6.01380463E-17   0.00000000E+00  -1.97467259E-10  -1.73009027E-11  -6.14255939E-07  -1.03038818E-07   7.36024370E-07  -7.50929547E-10   1.20320020E-09  -4.70124199E-12  -4.52383142E-08  -4.63445849E-08   6.34168495E-13   5.02663669E-18  -2.24034719E-10  -3.68992635E-15  -4.29420942E-15   1.06241675E-17
   1.24250000E+03   5.00000000E-01   5.00000000E-01  -1.08557058E-06   8.91467362E-09  -3.57148900E-15  -9.34479706E-17  -8.65822706E-17   0.00000000E+00  -1.96629783E-10   1.51108885E-11  -6.14351300E-07  -8.79284809E-08   6.86862601E-07  -9.96600516E-10   5.20385302E-08  -4.69889631E-12  -4.52312732E-08  -4.63445849E-08   1.15653095E-12   9.73292805E-18  -2.24189183E-10  -3.68992635E-15  -4.29420221E-15   1.21908571E-17
   1.27750000E+03   5.00000000E-01   5.00000000E-01  -1.08557005E-06   6.10631585E-08  -3.57151550E-15  -1.22908846E-16  -1.14478390E-16   0.00000000E+00  -1.95847411E-10   3.31210121E-11  -6.15372809E-07  -7.94986881E-08   6.63312168E-07  -1.61032132E-09   7.80451126E-08  -4.73030013E-12  -4.52125102E-08  -4.63445849E-08   2.19756320E-12   1.16553207E-17  -2.25175040E-10  -3.68992635E-15  -4.29419768E-15   1.33126255E-17
   1.31250000E+03   5.00000000E-01   5.00000000E-01  -1.08556941E-06   7.68433854E-08  -3.57155812E-15  -1.37351387E-16  -1.29165052E-16   0.00000000E+00  -1.95106722E-10   4.22147484E-11  -6.29480127E-07  -7.40126011E-08   6.57040194E-07  -1.82105130E-09   9.98100621E-08  -4.63457309E-12  -4.51814550E-08  -4.63445849E-08   4.35972481E-12   1.48381566E-17  -2.32490507E-10  -3.68992635E-15  -4.29419497E-15   1.41267947E-17
   1.34750000E+03   5.00000000E-01   5.00000000E-01  -1.08556855E-06   7.58374418E-08  -3.57163686E-15  -1.28553869E-16  -1.22422479E-16   0.00000000E+00  -1.94403321E-10   4.64350110E-11  -6.54036211E-07  -6.65988587E-08   6.59552910E-07  -1.16711933E-09   1.20333628E-07  -4.43951126E-12  -4.55929916E-08  -4.63445849E-08   9.03525309E-12   1.80883041E-17  -2.38626125E-10  -3.68992635E-15  -4.29419506E-15   1.46982837E-17
   1.38250000E+03   5.00000000E-01   5.00000000E-01  -1.08558619E-06  -3.31463556E-07  -3.57183540E-15  -1.06612132E-16  -1.02890324E-16   1.61624803E-06  -1.99070813E-10  -1.06617511E-10  -6.76465683E-07  -1.88090470E-07  -2.64341326E-07  -3.19451445E-09   1.00751365E-06  -4.99441265E-12  -4.66239301E-08  -4.63445849E-08   1.95019768E-11   1.09332181E-16  -2.39305114E-10  -3.68992635E-15  -4.29420207E-15   3.73545888E-18
   1.41750000E+03   5.00000000E-01   5.00000000E-01  -1.08558866E-06  -2.47769086E-07  -3.57197210E-15  -8.46466903E-17  -8.26954778E-17   2.87437850E-07  -1.98987347E-10  -9.01451702E-11  -6.96889018E-07  -1.87759769E-07   6.15424689E-07  -2.89862648E-09   2.43418952E-07  -4.72552895E-12  -4.74425225E-08  -4.63445849E-08   4.43886195E-11   1.94613654E-17  -2.39692443E-10  -3.68992635E-15  -4.29418842E-15   3.58883707E-18
   1.45250000E+03   5.00000000E-01   5.00000000E-01  -1.08559115E-06  -1.54522833E-07  -3.57214223E-15  -6.71680143E-17  -6.63007524E-17   2.15931411E-07  -1.98866016E-10  -7.42342121E-11  -7.16230772E-07  -1.81959550E-07   6.25552901E-07  -2.90710090E-09   2.65691371E-07  -4.50563483E-12  -4.82062340E-08  -4.63445849E-08   1.07012721E-10   1.33148959E-17  -2.39467337E-10  -3.68992635E-15  -4.29417959E-15   3.58975500E-18
   1.48750000E+03   5.00000000E-01   5.00000000E-01  -1.08559223E-06   3.64904123E-09  -3.57233745E-15  -5.40009511E-17  -5.37536898E-17   1.09271534E-10  -1.98337736E-10  -4.31931795E-11  -7.35142004E-07  -1.63550768E-07   7.05646018E-07  -5.46109839E-09   2.31249358E-07  -4.53870191E-12  -4.89371278E-08  -4.63445849E-08   2.74414348E-10   5.86770826E-18  -2.39420422E-10  -3.68992635E-15  -4.29417433E-15   4.45727895E-18
   1.52250000E+03   5.00000000E-01   5.00000000E-01  -1.08559369E-06   8.30393925E-08  -3.57259277E-15  -4.40848428E-17  -4.41776981E-17   2.31359431E-19  -1.97959170E-10  -2.79541208E-11  -7.53868959E-07  -1.50778697E-07   6.73146466E-07  -8.22947403E-09   2.91965538E-07  -4.55909683E-12  -4.96452109E-08  -4.63445849E-08   7.50826915E-10   5.24775807E-18  -2.38949121E-10  -3.68992635E-15  -4.29417551E-15   4.88931578E-18
   1.55750000E+03   5.00000000E-01   5.00000000E-01  -1.08559546E-06   1.12723038E-07  -3.57291869E-15  -3.65228760E-17  -3.67908837E-17   2.56037626E-30  -1.97680305E-10  -2.19202233E-11  -7.72419013E-07  -1.41568658E-07   6.62952827E-07  -1.32805504E-08   3.33218302E-07  -4.61157370E-12  -5.03308939E-08  -4.63445849E-08   2.20013676E-09   4.55208972E-18  -2.38231413E-10  -3.68992635E-15  -4.29417881E-15   5.06067906E-18
   1.59250000E+03   5.00000000E-01   5.00000000E-01  -1.08559764E-06   1.15973523E-07  -3.57333340E-15  -3.06852508E-17  -3.10322113E-17   5.10733401E-42  -1.97509551E-10  -2.15685476E-11  -7.90789317E-07  -1.34514875E-07   6.65815604E-07  -2.52263873E-08   3.76436553E-07  -4.70892784E-12  -5.09953882E-08  -4.63445850E-08   6.93186409E-09   3.95834717E-18  -2.37306523E-10  -3.68992635E-15  -4.29418240E-15   5.01201938E-18
   1.62750000E+03   5.00000000E-01   5.00000000E-01  -1.08560074E-06   1.01441809E-07  -3.57386274E-15  -2.61387912E-17  -2.65099742E-17   1.17166668E-53  -1.97519949E-10  -2.65743008E-11  -8.09076063E-07  -1.29781303E-07   6.79651537E-07  -5.33918822E-08   4.46813991E-07  -4.80155500E-12  -5.16412254E-08  -4.63445850E-08   2.35591153E-08   3.36719068E-18  -2.36097406E-10  -3.68992635E-15  -4.29418549E-15   4.67277408E-18
   1.66250000E+03   5.00000000E-01   5.00000000E-01  -1.08560538E-06   7.35636618E-08  -3.57454014E-15  -2.25874537E-17  -2.29532449E-17   4.03939953E-63  -1.97789443E-10  -3.72600234E-11  -8.27341025E-07  -1.27586971E-07   7.02736376E-07  -9.92290207E-08   5.50131967E-07  -4.80138524E-12  -5.22683875E-08  -4.63445850E-08   8.63391132E-08   2.64494916E-18  -2.34279794E-10  -3.68992635E-15  -4.29418756E-15   3.97002967E-18
   1.69750000E+03   5.00000000E-01   5.00000000E-01  -1.08561043E-06   7.02416639E-08  -3.57539514E-15  -1.98233953E-17  -2.01691244E-17   2.98248887E-69  -1.98092681E-10  -4.52766001E-11  -8.46021130E-07  -1.22331319E-07   7.06297942E-07  -1.01184420E-07   5.69887250E-07  -4.67248013E-12  -5.28812276E-08  -4.63445850E-08   3.35683383E-07   1.63799045E-18  -2.31697606E-10  -3.68992635E-15  -4.29418833E-15   3.26303869E-18
   1.73250000E+03   5.00000000E-01   5.00000000E-01  -1.08561472E-06   1.12085899E-07  -3.57646810E-15  -1.76929147E-17  -1.80128958E-17   5.67865572E-72  -1.98202768E-10  -4.40126557E-11  -8.65296770E-07  -9.81102447E-08   6.76654806E-07  -3.80304210E-08   4.62051005E-07  -4.39152706E-12  -5.34892086E-08  -4.63445851E-08   1.27922065E-06   8.09209208E-19  -2.28301687E-10  -3.68992635E-15  -4.29418874E-15   2.94291673E-18
   1.76750000E+03   5.00000000E-01   5.00000000E-01  -1.08561834E-06   1.73041821E-07  -3.57782058E-15  -1.60564104E-17  -1.63498814E-17   3.09735335E-73  -1.98102563E-10  -3.45542980E-11  -8.86352858E-07  -2.23825127E-08   6.30183659E-07   6.03220248E-08   2.60790490E-07  -4.00917710E-12  -5.42010379E-08  -4.63445851E-08   3.73836469E-06   3.57067557E-19  -2.23311686E-10  -3.68992635E-15  -4.29419071E-15   3.13636462E-18
   1.80250000E+03   5.00000000E-01   5.00000000E-01  -1.08562192E-06   2.13764356E-07  -3.57952325E-15  -1.47763639E-17  -1.50444236E-17   5.52732529E-76  -1.97912050E-10  -2.31382506E-11  -9.09061923E-07   1.40479915E-07   5.91142601E-07   1.48479955E-07   2.46376223E-08  -3.47339549E-12  -5.49634571E-08  -4.63445852E-08   6.09458140E-06   1.57145689E-19  -2.14390006E-10  -3.68992635E-15  -4.29419423E-15   3.65060217E-18
   1.83750000E+03   5.00000000E-01   5.00000000E-01  -1.08562565E-06   2.28795057E-07  -3.58164324E-15  -1.37328684E-17  -1.39766400E-17   4.07068012E-80  -1.97807172E-10  -1.91647001E-11  -9.31571601E-07   3.04614825E-07   5.81261218E-07   1.33808413E-07   1.20267795E-10  -2.91324104E-12  -5.56924174E-08  -4.63445853E-08   5.54699697E-06   6.76623683E-20  -2.01885841E-10  -3.68992635E-15  -4.29419706E-15   3.79746153E-18
   1.87250000E+03   5.00000000E-01   5.00000000E-01  -1.08563036E-06   2.24495703E-07  -3.58429478E-15  -1.28373279E-17  -1.30571761E-17   1.66872253E-83  -1.97888921E-10  -2.27926552E-11  -9.50885231E-07   4.84585893E-07   5.82793991E-07   9.77366270E-08   3.75560672E-14  -2.22972868E-12  -5.64315351E-08  -4.63445853E-08   3.57046021E-06   2.65176020E-20  -1.73619092E-10  -3.68992635E-15  -4.29419920E-15   3.51720321E-18
   1.90750000E+03   5.00000000E-01   5.00000000E-01  -1.08563840E-06   1.84515858E-07  -3.58762790E-15  -1.20347463E-17  -1.22302033E-17  -3.47108907E-85  -1.98461495E-10  -3.93275416E-11  -9.42933750E-07   7.99296621E-07   6.01253543E-07   5.75265905E-09   2.35309193E-18  -8.22760312E-13  -5.72656830E-08  -4.63445855E-08   1.97751607E-06   5.75750097E-21  -3.14834350E-11  -3.68992635E-15  -4.29420061E-15   2.56977605E-18
   1.94250000E+03   5.00000000E-01   5.00000000E-01  -1.08564016E-06   1.92422432E-07  -3.59166776E-15  -1.12961120E-17  -1.14660848E-17  -2.45561915E-85  -1.98380074E-10  -5.04520516E-11  -9.04072873E-07   7.93453838E-07   5.76630994E-07   1.01585328E-12   6.62734781E-23  -1.11808047E-12  -5.81102273E-08  -4.63445856E-08   1.04979161E-06   3.87785352E-22   1.32603113E-10  -3.68992635E-15  -4.29420322E-15   1.72953879E-18
   1.97750000E+03   5.00000000E-01   5.00000000E-01  -1.08562502E-06   7.00341793E-08  -3.59649363E-15  -1.06124660E-17  -1.07558074E-17  -9.00515279E-88  -1.97326253E-10  -6.99297383E-11  -8.35221313E-07   7.25222000E-07   5.41737259E-07  -4.68037185E-14  -3.38058348E-25  -1.46774861E-12  -5.38438543E-08  -4.63445858E-08   5.63517998E-07   6.17492600E-24   2.85641236E-10  -3.68992635E-15  -4.29421286E-15   1.18715115E-18
   2.01250000E+03   5.00000000E-01   5.00000000E-01  -1.08561296E-06   4.04628039E-09  -3.60255606E-15  -9.99614074E-18  -1.01129625E-17  -7.97263405E-90  -1.97032175E-10  -8.68016566E-11  -6.46791293E-07   5.59901899E-07   4.35605282E-07  -4.92845328E-14  -2.82265748E-25  -1.46860937E-12   3.71979659E-08  -4.63445858E-08   3.12708848E-07   2.46997040E-24   5.07675872E-10  -3.68992635E-15  -4.29421708E-15   4.75647413E-19
   2.04750000E+03   5.00000000E-01   5.00000000E-01  -1.08560783E-06   5.82084808E-10  -3.61012774E-15  -9.45730381E-18  -9.54890900E-18  -7.67189958E-91  -1.97192781E-10  -9.76252073E-11  -4.42505790E-07   2.98969922E-07   3.61653649E-07  -4.66306758E-14  -2.05091346E-25  -1.45695152E-12   1.09940639E-07  -4.63445853E-08   1.84466013E-07   7.40991122E-24   5.43968660E-10  -3.68992635E-15  -4.29421826E-15  -1.64560010E-19
   2.08250000E+03   5.00000000E-01   5.00000000E-01  -1.08560128E-06   2.34433162E-10  -3.61948739E-15  -8.99684200E-18  -9.06516634E-18  -1.74558509E-91  -1.97298060E-10  -1.05651662E-10  -3.19264804E-07   1.07250910E-07   3.34375171E-07  -4.39268398E-14  -1.61466827E-25  -1.45022171E-12   1.37060926E-07  -4.63445842E-08   1.19027834E-07   0.00000000E+00   4.40660036E-10  -3.68992635E-15  -4.29421882E-15  -5.97462498E-19
   2.11750000E+03   5.00000000E-01   5.00000000E-01  -1.08559283E-06   1.43703507E-10  -3.63103768E-15  -8.61420060E-18  -8.66182607E-18  -9.53278293E-92  -1.97337801E-10  -1.11559763E-10  -2.47813869E-07  -9.12572424E-09   3.21241945E-07  -4.12010988E-14  -1.31243243E-25  -1.44774759E-12   1.50149173E-07  -4.63445823E-08   8.47906759E-08  -2.46997041E-24   3.23670415E-10  -3.68992635E-15  -4.29421917E-15  -8.87105627E-19
   2.15250000E+03   5.00000000E-01   5.00000000E-01  -1.08558255E-06   1.07714284E-10  -3.64526181E-15  -8.30424740E-18  -8.33409452E-18  -8.60991845E-92  -1.97333854E-10  -1.16033648E-10  -2.03929918E-07  -8.05921250E-08   3.13202187E-07  -3.85749027E-14  -1.06903340E-25  -1.44763850E-12   1.58168262E-07  -4.63445794E-08   6.59570906E-08  -3.70495562E-24   2.24419004E-10  -3.68992635E-15  -4.29421941E-15  -1.08988892E-18
   2.18750000E+03   5.00000000E-01   5.00000000E-01  -1.08557042E-06   9.04488318E-11  -3.66273914E-15  -8.05837244E-18  -8.07338637E-18  -1.04130818E-91  -1.97300626E-10  -1.19543244E-10  -1.75298961E-07  -1.26672765E-07   3.07699643E-07  -3.62717086E-14  -8.55052246E-26  -1.44698439E-12   1.63657894E-07  -4.63445754E-08   5.47965856E-08   4.93994083E-24   1.45077505E-10  -3.68992635E-15  -4.29421958E-15  -1.23900300E-18
   2.22250000E+03   5.00000000E-01   5.00000000E-01  -1.08555634E-06   8.12561717E-11  -3.68416725E-15  -7.86632986E-18  -7.86924824E-18  -1.50236795E-91  -1.97246707E-10  -1.22388687E-10  -1.55618633E-07  -1.57889891E-07   3.03695928E-07  -3.44373167E-14  -6.64645146E-26  -1.44303357E-12   1.67651549E-07  -4.63445700E-08   4.75413784E-08   5.55743343E-24   8.21641196E-11  -3.68992635E-15  -4.29421971E-15  -1.35348083E-18
   2.25750000E+03   5.00000000E-01   5.00000000E-01  -1.08554012E-06   7.60362501E-11  -3.71038751E-15  -7.71781781E-18  -7.71103797E-18  -2.42628980E-91  -1.97177409E-10  -1.24763270E-10  -1.41493141E-07  -1.79963121E-07   3.00658717E-07  -3.29548943E-14  -5.03525457E-26  -1.43496347E-12   1.70679630E-07  -4.63445627E-08   4.23445260E-08   1.29673447E-23   3.19491025E-11  -3.68992635E-15  -4.29421981E-15  -1.44460974E-18
   2.29250000E+03   5.00000000E-01   5.00000000E-01  -1.08552157E-06   7.29563136E-11  -3.74241591E-15  -7.60354773E-18  -7.58908286E-18  -4.25899538E-91  -1.97096167E-10  -1.26794513E-10  -1.30991083E-07  -1.96138266E-07   2.98282640E-07  -3.15367652E-14  -3.75771097E-26  -1.42393467E-12   1.73046602E-07  -4.63445531E-08   3.82925721E-08   1.85247781E-24  -8.54981914E-12  -3.68992635E-15  -4.29421989E-15  -1.51936474E-18
   2.32750000E+03   5.00000000E-01   5.00000000E-01  -1.08550044E-06   7.11095637E-11  -3.78148071E-15  -7.51570365E-18  -7.49519529E-18  -8.04161855E-91  -1.97005286E-10  -1.28568714E-10  -1.22956909E-07  -2.08345994E-07   2.96379919E-07  -2.99664492E-14  -2.78850001E-26  -1.41150098E-12   1.74939737E-07  -4.63445407E-08   3.49325843E-08  -6.17492601E-25  -4.15611752E-11  -3.68992635E-15  -4.29421995E-15  -1.58222541E-18
   2.36250000E+03   5.00000000E-01   5.00000000E-01  -1.08547644E-06   7.00113999E-11  -3.82906860E-15  -7.44802790E-18  -7.42279008E-18  -1.62701929E-90  -1.96906362E-10  -1.30145683E-10  -1.16667609E-07  -2.17785446E-07   2.94828961E-07  -2.81671797E-14  -2.06736216E-26  -1.39862567E-12   1.76480300E-07  -4.63445246E-08   3.20327451E-08  -6.79241860E-24  -6.87298029E-11  -3.68992635E-15  -4.29422000E-15  -1.63616946E-18
   2.39750000E+03   5.00000000E-01   5.00000000E-01  -1.08544927E-06   6.93863367E-11  -3.88698204E-15  -7.39565935E-18  -7.36673210E-18  -3.52112616E-90  -1.96800521E-10  -1.31567763E-10  -1.11652653E-07  -2.25230750E-07   2.93547695E-07  -2.61342361E-14  -1.53320414E-26  -1.38570257E-12   1.77750112E-07  -4.63445039E-08   2.94586927E-08   3.70495559E-24  -9.12776495E-11  -3.68992635E-15  -4.29422005E-15  -1.68323723E-18