 TITLE = "Mineral Rate (mol/m^3/sec)" 
VARIABLES = "X"          "Y"              "Z"            "Forsterite"     "Fayalite"       "Brucite"        "Lizardite"      "Chrysotile"     "Hematite"       "Magnetite(am)"  "Saponite(Ca)"   "Saponite(K)"    "Saponite(Mg)"   "Saponite(Na)"   "Beidellite(Ca)" "Beidellite(K)"  "Beidellite(Mg)" "Beidellite(Na)" "Enstatite(alph" "Ferrosilite(al" "Anorthite"      "Albite(low)"    "Clinochlore"    "Sudoite"        "Montmor(MgCa)"  "Montmor(MgK)"   "Montmor(MgMg)"  "Montmor(MgNa)"  "Kaolinite"      "Tremolite"      "Pargasite"      "Anhydrite"      "Epidote"        "Scolecite"      "Pyrite"         "FeS(am)"        "Quartz(alpha)" 
 ZONE I=         200 , J=           1 , K=           1  F=POINT
   8.75000000E+00   5.00000000E-01   5.00000000E-01  -1.31308339E-07  -4.78931491E-08   0.00000000E+00   0.00000000E+00   0.00000000E+00   1.44679860E-08   0.00000000E+00   1.72085901E-18   2.48166782E-08   1.29052699E-16   2.66157291E-09  -3.65884117E-17  -3.81137359E-18  -3.74397586E-17  -3.71323185E-17  -1.99940141E-10  -1.70620605E-10  -1.16518282E-07  -2.88545958E-08   2.25190519E-07  -4.65208049E-15  -8.06973750E-18  -8.25360708E-18  -8.25269551E-18  -8.18090999E-18  -3.42598685E-11  -4.54179013E-08  -4.65167252E-08   0.00000000E+00  -2.89359719E-08  -1.96308223E-16  -6.98334874E-16  -6.85285322E-16   9.95419250E-18
   2.62500000E+01   5.00000000E-01   5.00000000E-01  -1.31308349E-07  -4.79001612E-08   0.00000000E+00   0.00000000E+00   0.00000000E+00   1.44679859E-08   0.00000000E+00   2.79662848E-19   4.60327915E-08   3.92926485E-17   4.91153944E-09  -3.65857980E-17  -3.80771372E-18  -3.74275235E-17  -3.71006623E-17  -2.00236134E-10  -1.69842172E-10  -1.16518282E-07  -2.03459764E-08   2.17030763E-07  -3.69584654E-15  -8.03532698E-18  -7.43279134E-18  -8.10357029E-18  -7.59087551E-18  -3.42422545E-11  -4.54417137E-08  -4.65167252E-08   0.00000000E+00  -2.89359719E-08  -1.96305134E-16  -6.98334874E-16  -6.85283047E-16   1.50489962E-17
   4.37500000E+01   5.00000000E-01   5.00000000E-01  -1.31308350E-07  -4.78800433E-08   0.00000000E+00   0.00000000E+00   0.00000000E+00   1.44679859E-08   0.00000000E+00   1.89261071E-19   4.60045542E-08   3.39516706E-17   5.64373961E-09  -3.65636074E-17  -3.77815371E-18  -3.73237825E-17  -3.68393297E-17  -2.00273415E-10  -1.67891463E-10  -1.16518282E-07  -2.26983990E-09   2.07876460E-07  -2.47817702E-15  -7.86797489E-18  -3.66546155E-18  -7.37891444E-18  -4.81106764E-18  -3.41634921E-11  -4.54522622E-08  -4.65167252E-08   0.00000000E+00  -2.89359718E-08  -1.96293677E-16  -6.98334874E-16  -6.85280187E-16   1.92329248E-17
   6.12500000E+01   5.00000000E-01   5.00000000E-01  -1.31308350E-07  -4.78470486E-08   0.00000000E+00   0.00000000E+00   0.00000000E+00   1.44679859E-08   0.00000000E+00   2.04438703E-19   5.47949908E-08   3.59740947E-17   7.85747694E-09  -3.65138642E-17  -3.71588572E-18  -3.70915856E-17  -3.62733463E-17  -2.00273248E-10  -1.65587605E-10  -1.16518282E-07   1.77700264E-08   1.96040722E-07  -1.40992028E-15  -7.57650050E-18   2.44825711E-18  -6.11766448E-18  -1.51527322E-19  -3.40484856E-11  -4.54606646E-08  -4.65167252E-08   0.00000000E+00  -2.89359717E-08  -1.96277656E-16  -6.98334874E-16  -6.85277297E-16   2.20975808E-17
   7.87500000E+01   5.00000000E-01   5.00000000E-01  -1.31308350E-07  -4.78070986E-08   0.00000000E+00   0.00000000E+00   0.00000000E+00   1.44679858E-08   0.00000000E+00   2.12425883E-19   6.46460217E-08   3.78399983E-17   1.09062664E-08  -3.64421780E-17  -3.63222108E-18  -3.67574813E-17  -3.54881614E-17  -2.00268163E-10  -1.63352984E-10  -1.16518282E-07   3.53600191E-08   1.85117125E-07  -8.04918148E-16  -7.22619558E-18   9.22349780E-18  -4.60261336E-18   5.21106414E-18  -3.39198054E-11  -4.54747838E-08  -4.65167252E-08   0.00000000E+00  -2.89359717E-08  -1.96260223E-16  -6.98334874E-16  -6.85274832E-16   2.37646495E-17
   9.62500000E+01   5.00000000E-01   5.00000000E-01  -1.31308350E-07  -4.77597656E-08   0.00000000E+00   0.00000000E+00   0.00000000E+00   1.44679858E-08   0.00000000E+00   2.14444630E-19   7.11247900E-08   3.95091105E-17   1.41973036E-08  -3.63632190E-17  -3.54742036E-18  -3.63901100E-17  -3.46610565E-17  -2.00260521E-10  -1.61189223E-10  -1.16518282E-07   4.81787116E-08   1.77095640E-07  -5.32647328E-16  -6.89331843E-18   1.50314352E-17  -3.16365917E-18   1.00389152E-17  -3.38002052E-11  -4.54925073E-08  -4.65167252E-08   0.00000000E+00  -2.89359716E-08  -1.96244331E-16  -6.98334874E-16  -6.85272705E-16   2.45972268E-17
   1.13750000E+02   5.00000000E-01   5.00000000E-01  -1.31308350E-07  -4.77029960E-08   0.00000000E+00   0.00000000E+00   0.00000000E+00   1.44679858E-08   0.00000000E+00   2.19913482E-19   7.37854185E-08   4.15569512E-17   1.74666804E-08  -3.62925137E-17  -3.47941368E-18  -3.60618370E-17  -3.39621574E-17  -2.00249664E-10  -1.59017374E-10  -1.16518282E-07   5.60093934E-08   1.72201756E-07  -4.12465087E-16  -6.62651534E-18   1.90406812E-17  -2.01122404E-18   1.36258215E-17  -3.37079153E-11  -4.55116590E-08  -4.65167252E-08   0.00000000E+00  -2.89359716E-08  -1.96231952E-16  -6.98334874E-16  -6.85270833E-16   2.49378904E-17
   1.31250000E+02   5.00000000E-01   5.00000000E-01  -1.31308350E-07  -4.76351710E-08   0.00000000E+00   0.00000000E+00   0.00000000E+00   1.44679858E-08   0.00000000E+00   2.32442490E-19   7.36012553E-08   4.42610057E-17   2.06687570E-08  -3.62371660E-17  -3.43406384E-18  -3.58055922E-17  -3.34576195E-17  -2.00235566E-10  -1.56788709E-10  -1.16518282E-07   5.99771725E-08   1.69719850E-07  -3.56813937E-16  -6.43284261E-18   2.13269857E-17  -1.17582653E-18   1.59478615E-17  -3.36472211E-11  -4.55309422E-08  -4.65167252E-08   0.00000000E+00  -2.89359715E-08  -1.96223311E-16  -6.98334874E-16  -6.85269206E-16   2.50227817E-17
   1.48750000E+02   5.00000000E-01   5.00000000E-01  -1.31308350E-07  -4.75551561E-08   0.00000000E+00   0.00000000E+00   0.00000000E+00   1.44679857E-08   0.00000000E+00   2.52667155E-19   7.15981643E-08   4.77462400E-17   2.38390681E-08  -3.61970486E-17  -3.40867630E-18  -3.56205864E-17  -3.31332909E-17  -2.00218500E-10  -1.54481065E-10  -1.16518282E-07   6.14097385E-08   1.68810942E-07  -3.29885122E-16  -6.29790053E-18   2.23443610E-17  -5.95117373E-19   1.72976079E-17  -3.36135285E-11  -4.55496892E-08  -4.65167252E-08   0.00000000E+00  -2.89359715E-08  -1.96217711E-16  -6.98334874E-16  -6.85267835E-16   2.49912636E-17
   1.66250000E+02   5.00000000E-01   5.00000000E-01  -1.31308349E-07  -4.74623679E-08   0.00000000E+00   0.00000000E+00   0.00000000E+00   1.44679857E-08   0.00000000E+00   2.79731425E-19   6.85702951E-08   5.20252212E-17   2.70210215E-08  -3.61684697E-17  -3.39730753E-18  -3.54894847E-17  -3.29403377E-17  -2.00198892E-10  -1.52094176E-10  -1.16518282E-07   6.13706633E-08   1.68805041E-07  -3.16481496E-16  -6.20219447E-18   2.25711602E-17  -1.84646878E-19   1.80166567E-17  -3.35988888E-11  -4.55675276E-08  -4.65167252E-08   0.00000000E+00  -2.89359714E-08  -1.96214197E-16  -6.98334874E-16  -6.85266729E-16   2.49151332E-17
   1.83750000E+02   5.00000000E-01   5.00000000E-01  -1.31308349E-07  -4.73568341E-08   0.00000000E+00   0.00000000E+00   0.00000000E+00   1.44679857E-08   0.00000000E+00   3.12024377E-19   6.50531569E-08   5.70124655E-17   3.02395721E-08  -3.61469140E-17  -3.39405615E-18  -3.53911890E-17  -3.28259868E-17  -2.00177251E-10  -1.49644515E-10  -1.16518282E-07   6.05833034E-08   1.69247984E-07  -3.09715012E-16  -6.12862415E-18   2.23777990E-17   1.29690398E-19   1.83846812E-17  -3.35954459E-11  -4.55842269E-08  -4.65167252E-08   0.00000000E+00  -2.89359714E-08  -1.96211899E-16  -6.98334874E-16  -6.85265893E-16   2.48253503E-17
   2.01250000E+02   5.00000000E-01   5.00000000E-01  -1.31308349E-07  -4.72383850E-08   0.00000000E+00   0.00000000E+00   0.00000000E+00   1.44679857E-08   0.00000000E+00   3.48815501E-19   6.12839997E-08   6.27030740E-17   3.34832886E-08  -3.61297149E-17  -3.39555731E-18  -3.53132503E-17  -3.27596375E-17  -2.00153805E-10  -1.47140595E-10  -1.16518282E-07   5.94180539E-08   1.69917310E-07  -3.06280393E-16  -6.06775287E-18   2.19612450E-17   3.88799411E-19   1.85533444E-17  -3.35987544E-11  -4.55999335E-08  -4.65167252E-08   0.00000000E+00  -2.89359713E-08  -1.96210336E-16  -6.98334874E-16  -6.85265313E-16   2.47354326E-17
   2.18750000E+02   5.00000000E-01   5.00000000E-01  -1.31308348E-07  -4.71065108E-08   0.00000000E+00   0.00000000E+00   0.00000000E+00   1.44679856E-08   0.00000000E+00   3.90064163E-19   5.73817250E-08   6.91694840E-17   3.67242699E-08  -3.61156695E-17  -3.40020643E-18  -3.52500442E-17  -3.27269430E-17  -2.00128582E-10  -1.44582450E-10  -1.16518282E-07   5.80460100E-08   1.70712453E-07  -3.04541305E-16  -6.01527693E-18   2.14133511E-17   6.11341204E-19   1.85932208E-17  -3.36067062E-11  -4.56151512E-08  -4.65167252E-08   0.00000000E+00  -2.89359713E-08  -1.96209288E-16  -6.98334874E-16  -6.85264963E-16   2.46516016E-17
   2.36250000E+02   5.00000000E-01   5.00000000E-01  -1.31308348E-07  -4.69612379E-08   0.00000000E+00   0.00000000E+00   0.00000000E+00   1.44679856E-08   0.00000000E+00   4.35085956E-19   5.34774480E-08   7.63703684E-17   3.99568787E-08  -3.61032846E-17  -3.40637827E-18  -3.51946220E-17  -3.27121005E-17  -2.00101751E-10  -1.41981774E-10  -1.16518282E-07   5.66000411E-08   1.71546273E-07  -3.03668881E-16  -5.96688171E-18   2.08124450E-17   8.16010702E-19   1.85688865E-17  -3.36170018E-11  -4.56303613E-08  -4.65167252E-08   0.00000000E+00  -2.89359712E-08  -1.96208516E-16  -6.98334874E-16  -6.85264823E-16   2.45736402E-17
   2.53750000E+02   5.00000000E-01   5.00000000E-01  -1.31308347E-07  -4.68020612E-08   0.00000000E+00   0.00000000E+00   0.00000000E+00   1.44679856E-08   0.00000000E+00   4.83955991E-19   4.96038796E-08   8.43256437E-17   4.31367888E-08  -3.60922647E-17  -3.41364507E-18  -3.51455990E-17  -3.27113239E-17  -2.00073276E-10  -1.39338875E-10  -1.16518282E-07   5.51142164E-08   1.72403651E-07  -3.03242370E-16  -5.92169100E-18   2.01786331E-17   1.00661270E-18   1.84959448E-17  -3.36290172E-11  -4.56459990E-08  -4.65167252E-08   0.00000000E+00  -2.89359712E-08  -1.96207966E-16  -6.98334874E-16  -6.85264866E-16   2.45012141E-17
   2.71250000E+02   5.00000000E-01   5.00000000E-01  -1.31308347E-07  -4.66284290E-08   0.00000000E+00   0.00000000E+00   0.00000000E+00   1.44679856E-08   0.00000000E+00   5.36800502E-19   4.58037316E-08   9.30424003E-17   4.62304339E-08  -3.60824631E-17  -3.42175060E-18  -3.51022835E-17  -3.27224273E-17  -2.00043107E-10  -1.36653673E-10  -1.16518282E-07   5.36051721E-08   1.73274759E-07  -3.03046517E-16  -5.87932635E-18   1.95226802E-17   1.18479260E-18   1.83825315E-17  -3.36423570E-11  -4.56622409E-08  -4.65167252E-08   0.00000000E+00  -2.89359711E-08  -1.96207605E-16  -6.98334874E-16  -6.85265068E-16   2.44335496E-17
   2.88750000E+02   5.00000000E-01   5.00000000E-01  -1.31308346E-07  -4.64399628E-08   0.00000000E+00   0.00000000E+00   0.00000000E+00   1.44679855E-08   0.00000000E+00   5.93602053E-19   4.21188304E-08   1.02497623E-16   4.92123734E-08  -3.60736421E-17  -3.43040304E-18  -3.50635661E-17  -3.27426134E-17  -2.00011225E-10  -1.33928989E-10  -1.16518281E-07   5.20889852E-08   1.74148855E-07  -3.02970347E-16  -5.83924410E-18   1.88558732E-17   1.35290560E-18   1.82380837E-17  -3.36565634E-11  -4.56789153E-08  -4.65167252E-08   0.00000000E+00  -2.89359711E-08  -1.96207394E-16  -6.98334874E-16  -6.85265407E-16   2.43693290E-17
   3.06250000E+02   5.00000000E-01   5.00000000E-01  -1.31308345E-07  -4.62365461E-08   0.00000000E+00   0.00000000E+00   0.00000000E+00   1.44679855E-08   0.00000000E+00   6.54179253E-19   3.85844937E-08   1.12648759E-16   5.20629539E-08  -3.60654785E-17  -3.43928844E-18  -3.50279465E-17  -3.27685925E-17  -1.99977646E-10  -1.31170877E-10  -1.16518281E-07   5.05815220E-08   1.75015421E-07  -3.02956109E-16  -5.80073324E-18   1.81898190E-17   1.51402567E-18   1.80731970E-17  -3.36711411E-11  -4.56955759E-08  -4.65167252E-08   0.00000000E+00  -2.89359710E-08  -1.96207282E-16  -6.98334874E-16  -6.85265867E-16   2.43068160E-17
   3.23750000E+02   5.00000000E-01   5.00000000E-01  -1.31308344E-07  -4.60183441E-08   0.00000000E+00   0.00000000E+00   0.00000000E+00   1.44679855E-08   0.00000000E+00   7.18217006E-19   3.52280501E-08   1.23449150E-16   5.47667334E-08  -3.60576167E-17  -3.44811416E-18  -3.49937793E-17  -3.27970732E-17  -1.99942416E-10  -1.28387974E-10  -1.16518281E-07   4.90965535E-08   1.75865609E-07  -3.02973691E-16  -5.76303344E-18   1.75349140E-17   1.67143505E-18   1.78981174E-17  -3.36856248E-11  -4.57116790E-08  -4.65167252E-08   0.00000000E+00  -2.89359709E-08  -1.96207220E-16  -6.98334874E-16  -6.85266434E-16   2.42440640E-17
   3.41250000E+02   5.00000000E-01   5.00000000E-01  -1.31308343E-07  -4.57857585E-08   0.00000000E+00   0.00000000E+00   0.00000000E+00   1.44679854E-08   0.00000000E+00   7.85326180E-19   3.20684535E-08   1.34861454E-16   5.73109801E-08  -3.60497294E-17  -3.45664862E-18  -3.49595562E-17  -3.28252612E-17  -1.99905594E-10  -1.25590285E-10  -1.16518281E-07   4.76439404E-08   1.76693462E-07  -3.03007171E-16  -5.72547390E-18   1.68989454E-17   1.82802479E-18   1.77211991E-17  -3.36996405E-11  -4.57267453E-08  -4.65167252E-08   0.00000000E+00  -2.89359709E-08  -1.96207164E-16  -6.98334874E-16  -6.85267094E-16   2.41791543E-17
   3.58750000E+02   5.00000000E-01   5.00000000E-01  -1.31308342E-07  -4.55392529E-08   0.00000000E+00   0.00000000E+00   0.00000000E+00   1.44679854E-08   0.00000000E+00   8.55172449E-19   2.91156472E-08   1.46875201E-16   5.96819707E-08  -3.60416132E-17  -3.46477328E-18  -3.49243434E-17  -3.28515611E-17  -1.99867221E-10  -1.22786799E-10  -1.16518281E-07   4.62267582E-08   1.77498066E-07  -3.03048330E-16  -5.68769996E-18   1.62851346E-17   1.98531877E-18   1.75466151E-17  -3.37129855E-11  -4.57404626E-08  -4.65167252E-08   0.00000000E+00  -2.89359708E-08  -1.96207088E-16  -6.98334874E-16  -6.85267835E-16   2.41105097E-17
   3.76250000E+02   5.00000000E-01   5.00000000E-01  -1.31308341E-07  -4.52792811E-08   0.00000000E+00   0.00000000E+00   0.00000000E+00   1.44679854E-08   0.00000000E+00   9.27506203E-19   2.63736933E-08   1.59507891E-16   6.18680207E-08  -3.60331741E-17  -3.47245560E-18  -3.48877139E-17  -3.28753506E-17  -1.99827317E-10  -1.19984905E-10  -1.16518281E-07   4.48435092E-08   1.78281427E-07  -3.03093008E-16  -5.64962224E-18   1.56934551E-17   2.14369524E-18   1.73753388E-17  -3.37255899E-11  -4.57526955E-08  -4.65167252E-08   0.00000000E+00  -2.89359707E-08  -1.96206983E-16  -6.98334874E-16  -6.85268645E-16   2.40369851E-17
   3.93750000E+02   5.00000000E-01   5.00000000E-01  -1.31308340E-07  -4.50061529E-08   0.00000000E+00   0.00000000E+00   0.00000000E+00   1.44679853E-08   0.00000000E+00   1.00222851E-18   2.38411946E-08   1.72810634E-16   6.38578393E-08  -3.60244450E-17  -3.47974453E-18  -3.48498247E-17  -3.28970137E-17  -1.99785864E-10  -1.17189287E-10  -1.16518281E-07   4.34885083E-08   1.79048481E-07  -3.03139348E-16  -5.61145160E-18   1.51208963E-17   2.30223904E-18   1.72051219E-17  -3.37375110E-11  -4.57634626E-08  -4.65167252E-08   0.00000000E+00  -2.89359706E-08  -1.96206854E-16  -6.98334874E-16  -6.85269511E-16   2.39579510E-17
   4.11250000E+02   5.00000000E-01   5.00000000E-01  -1.31308338E-07  -4.47199798E-08   0.00000000E+00   0.00000000E+00   0.00000000E+00   1.44679853E-08   0.00000000E+00   1.07939916E-18   2.15131335E-08   1.86866031E-16   6.56424604E-08  -3.60155565E-17  -3.48673969E-18  -3.48112810E-17  -3.29176272E-17  -1.99742807E-10  -1.14401886E-10  -1.16518281E-07   4.21539394E-08   1.79805444E-07  -3.03186754E-16  -5.57361773E-18   1.45627893E-17   2.45909485E-18   1.70316742E-17  -3.37488875E-11  -4.57728964E-08  -4.65167252E-08   0.00000000E+00  -2.89359705E-08  -1.96206720E-16  -6.98334874E-16  -6.85270422E-16   2.38732569E-17
   4.28750000E+02   5.00000000E-01   5.00000000E-01  -1.31308336E-07  -4.44206735E-08   0.00000000E+00   0.00000000E+00   0.00000000E+00   1.44679852E-08   0.00000000E+00   1.15921547E-18   1.93820011E-08   2.01782259E-16   6.72164565E-08  -3.60066973E-17  -3.49356009E-18  -3.47729522E-17  -3.29386026E-17  -1.99698059E-10  -1.11622401E-10  -1.16518281E-07   4.08318097E-08   1.80558447E-07  -3.03235249E-16  -5.53666407E-18   1.40140874E-17   2.61192140E-18   1.68499387E-17  -3.37598930E-11  -4.57812045E-08  -4.65167252E-08   0.00000000E+00  -2.89359705E-08  -1.96206603E-16  -6.98334874E-16  -6.85271367E-16   2.37831335E-17
   4.46250000E+02   5.00000000E-01   5.00000000E-01  -1.31308334E-07  -4.41079004E-08   0.00000000E+00   0.00000000E+00   0.00000000E+00   1.44679852E-08   0.00000000E+00   1.24202283E-18   1.74380992E-08   2.17691708E-16   6.85764152E-08  -3.59981074E-17  -3.50033624E-18  -3.47359403E-17  -3.29616033E-17  -1.99651500E-10  -1.08848264E-10  -1.16518280E-07   3.95142339E-08   1.81313596E-07  -3.03285216E-16  -5.50123114E-18   1.34696295E-17   2.75796497E-18   1.66543517E-17  -3.37707227E-11  -4.57886452E-08  -4.65167252E-08   0.00000000E+00  -2.89359704E-08  -1.96206532E-16  -6.98334874E-16  -6.85272337E-16   2.36881266E-17
   4.63750000E+02   5.00000000E-01   5.00000000E-01  -1.31308332E-07  -4.37810805E-08   0.00000000E+00   0.00000000E+00   0.00000000E+00   1.44679851E-08   0.00000000E+00   1.32830266E-18   1.56704082E-08   2.34746362E-16   6.97213823E-08  -3.59900578E-17  -3.50719655E-18  -3.47014841E-17  -3.29883741E-17  -1.99602979E-10  -1.06075004E-10  -1.16518280E-07   3.81941086E-08   1.82076419E-07  -3.03337190E-16  -5.46800571E-18   1.29246306E-17   2.89427914E-18   1.64393956E-17  -3.37815728E-11  -4.57955077E-08  -4.65167252E-08   0.00000000E+00  -2.89359702E-08  -1.96206537E-16  -6.98334874E-16  -6.85273322E-16   2.35890111E-17
   4.81250000E+02   5.00000000E-01   5.00000000E-01  -1.31308330E-07  -4.34394078E-08   0.00000000E+00   0.00000000E+00   0.00000000E+00   1.44679851E-08   0.00000000E+00   1.41865294E-18   1.40671840E-08   2.53111601E-16   7.06528802E-08  -3.59828283E-17  -3.51425592E-18  -3.46708595E-17  -3.30205815E-17  -1.99552319E-10  -1.03296759E-10  -1.16518280E-07   3.68656307E-08   1.82851503E-07  -3.03391703E-16  -5.43766967E-18   1.23750683E-17   3.01794535E-18   1.62000881E-17  -3.37926228E-11  -4.58020957E-08  -4.65167252E-08   0.00000000E+00  -2.89359701E-08  -1.96206647E-16  -6.98334874E-16  -6.85274315E-16   2.34867042E-17
   4.98750000E+02   5.00000000E-01   5.00000000E-01  -1.31308327E-07  -4.30760089E-08   0.00000000E+00   0.00000000E+00   0.00000000E+00   1.44679850E-08   0.00000000E+00   1.51688641E-18   1.26009896E-08   2.73527640E-16   7.12317479E-08  -3.59785681E-17  -3.52249855E-18  -3.46538772E-17  -3.30722067E-17  -1.99498591E-10  -1.00457414E-10  -1.16518280E-07   3.54628880E-08   1.83699296E-07  -3.03456090E-16  -5.41567398E-18   1.17813688E-17   3.10560083E-18   1.58883912E-17  -3.38053154E-11  -4.58087111E-08  -4.65167252E-08   0.00000000E+00  -2.89359700E-08  -1.96207108E-16  -6.98334874E-16  -6.85275296E-16   2.33851023E-17
   5.16250000E+02   5.00000000E-01   5.00000000E-01  -1.31308324E-07  -4.26938223E-08   0.00000000E+00   0.00000000E+00   0.00000000E+00   1.44679849E-08   0.00000000E+00   1.62162994E-18   1.12915206E-08   2.95858443E-16   7.16713354E-08  -3.59758948E-17  -3.53115644E-18  -3.46441933E-17  -3.31330782E-17  -1.99442100E-10  -9.75866985E-11  -1.16518280E-07   3.40438740E-08   1.84552346E-07  -3.03523898E-16  -5.39827595E-18   1.11770005E-17   3.17333548E-18   1.55424065E-17  -3.38185738E-11  -4.58157321E-08  -4.65167252E-08   0.00000000E+00  -2.89359699E-08  -1.96207748E-16  -6.98334874E-16  -6.85276272E-16   2.32836487E-17
   5.33750000E+02   5.00000000E-01   5.00000000E-01  -1.31308320E-07  -4.22925287E-08   0.00000000E+00   0.00000000E+00   0.00000000E+00   1.44679849E-08   0.00000000E+00   1.73322833E-18   1.01155441E-08   3.20181179E-16   7.19353842E-08  -3.59746591E-17  -3.54010399E-18  -3.46411077E-17  -3.32016767E-17  -1.99382737E-10  -9.46860376E-11  -1.16518279E-07   3.26185662E-08   1.85415481E-07  -3.03594074E-16  -5.38503462E-18   1.05676449E-17   3.22307227E-18   1.51683631E-17  -3.38322295E-11  -4.58233810E-08  -4.65167252E-08   0.00000000E+00  -2.89359698E-08  -1.96208544E-16  -6.98334874E-16  -6.85277239E-16   2.31826755E-17
   5.51250000E+02   5.00000000E-01   5.00000000E-01  -1.31308316E-07  -4.18703366E-08   0.00000000E+00   0.00000000E+00   0.00000000E+00   1.44679848E-08   0.00000000E+00   1.85278838E-18   9.05739406E-09   3.46687683E-16   7.20073310E-08  -3.59751281E-17  -3.54940800E-18  -3.46458197E-17  -3.32792042E-17  -1.99320213E-10  -9.17457214E-11  -1.16518279E-07   3.11823086E-08   1.86296347E-07  -3.03666984E-16  -5.37662057E-18   9.95071615E-18   3.25197441E-18   1.47625106E-17  -3.38463887E-11  -4.58318033E-08  -4.65167252E-08   0.00000000E+00  -2.89359696E-08  -1.96209523E-16  -6.98334874E-16  -6.85278194E-16   2.30829535E-17
   5.68750000E+02   5.00000000E-01   5.00000000E-01  -1.31308312E-07  -4.14253871E-08   0.00000000E+00   0.00000000E+00   0.00000000E+00   1.44679848E-08   0.00000000E+00   1.98148729E-18   8.10601647E-09   3.75577881E-16   7.18933557E-08  -3.59774990E-17  -3.55909586E-18  -3.46592068E-17  -3.33663329E-17  -1.99254226E-10  -8.87565691E-11  -1.16518279E-07   2.97328262E-08   1.87196886E-07  -3.03742594E-16  -5.37353409E-18   9.32516975E-18   3.25794092E-18   1.43228666E-17  -3.38611019E-11  -4.58410417E-08  -4.65167252E-08   0.00000000E+00  -2.89359695E-08  -1.96210701E-16  -6.98334874E-16  -6.85279133E-16   2.29852214E-17
   5.86250000E+02   5.00000000E-01   5.00000000E-01  -1.31308307E-07  -4.09560546E-08   0.00000000E+00   0.00000000E+00   0.00000000E+00   1.44679847E-08   0.00000000E+00   2.12044704E-18   7.25173711E-09   4.07043008E-16   7.16052765E-08  -3.59818382E-17  -3.56913697E-18  -3.46815464E-17  -3.34628815E-17  -1.99184496E-10  -8.57119634E-11  -1.16518279E-07   2.82715717E-08   1.88116017E-07  -3.03820388E-16  -5.37595200E-18   8.69222573E-18   3.24026046E-18   1.38503109E-17  -3.38763351E-11  -4.58510202E-08  -4.65167252E-08   0.00000000E+00  -2.89359694E-08  -1.96212081E-16  -6.98334874E-16  -6.85280053E-16   2.28900679E-17
   6.03750000E+02   5.00000000E-01   5.00000000E-01  -1.31308301E-07  -4.04610444E-08   0.00000000E+00   0.00000000E+00   0.00000000E+00   1.44679846E-08   0.00000000E+00   2.27070824E-18   6.48567990E-09   4.41269593E-16   7.11567765E-08  -3.59880932E-17  -3.57945656E-18  -3.47125737E-17  -3.35679637E-17  -1.99110765E-10  -8.26081682E-11  -1.16518278E-07   2.68027948E-08   1.89050823E-07  -3.03899516E-16  -5.38376234E-18   8.05477371E-18   3.19945909E-18   1.33480257E-17  -3.38919889E-11  -4.58615566E-08  -4.65167252E-08   0.00000000E+00  -2.89359692E-08  -1.96213655E-16  -6.98334874E-16  -6.85280953E-16   2.27978990E-17
   6.21250000E+02   5.00000000E-01   5.00000000E-01  -1.31308295E-07  -3.99394339E-08   0.00000000E+00   0.00000000E+00   0.00000000E+00   1.44679846E-08   0.00000000E+00   2.43322832E-18   5.79960569E-09   4.78448390E-16   7.05619546E-08  -3.59961190E-17  -3.58995298E-18  -3.47516052E-17  -3.36802093E-17  -1.99032801E-10  -7.94442103E-11  -1.16518278E-07   2.53324443E-08   1.89997361E-07  -3.03978947E-16  -5.39663179E-18   7.41667864E-18   3.13700876E-18   1.28207341E-17  -3.39079223E-11  -4.58723972E-08  -4.65167252E-08  -1.81351223E-32  -2.89359691E-08  -1.96215403E-16  -6.98334874E-16  -6.85281832E-16   2.27089423E-17
   6.38750000E+02   5.00000000E-01   5.00000000E-01  -1.31308288E-07  -3.93906560E-08   0.00000000E+00   0.00000000E+00   0.00000000E+00   1.44679845E-08   0.00000000E+00   2.60890186E-18   5.18581497E-09   5.18784965E-16   6.98340609E-08  -3.60057124E-17  -3.60051494E-18  -3.47976955E-17  -3.37980055E-17  -1.98950395E-10  -7.62214142E-11  -1.16518278E-07   2.38671023E-08   1.90951426E-07  -3.04057618E-16  -5.41408881E-18   6.78211687E-18   3.05496908E-18   1.22738969E-17  -3.39239776E-11  -4.58832608E-08  -4.65167252E-08  -3.48159965E-32  -2.89359690E-08  -1.96217300E-16  -6.98334874E-16  -6.85282691E-16   2.26232746E-17
   6.56250000E+02   5.00000000E-01   5.00000000E-01  -1.31308280E-07  -3.88144261E-08   0.00000000E+00   0.00000000E+00   0.00000000E+00   1.44679844E-08   0.00000000E+00   2.79860344E-18   4.63709423E-09   5.62510473E-16   6.89844169E-08  -3.60166485E-17  -3.61103648E-18  -3.48498035E-17  -3.39197249E-17  -1.98863347E-10  -7.29426555E-11  -1.16518277E-07   2.24130368E-08   1.91909204E-07  -3.04134559E-16  -5.43561194E-18   6.15500690E-18   2.95560889E-18   1.17129610E-17  -3.39400021E-11  -4.58938805E-08  -4.65167252E-08  -6.64465496E-32  -2.89359688E-08  -1.96219322E-16  -6.98334874E-16  -6.85283529E-16   2.25408658E-17
   6.73750000E+02   5.00000000E-01   5.00000000E-01  -1.31308270E-07  -3.82106446E-08   0.00000000E+00   0.00000000E+00   0.00000000E+00   1.44679843E-08   0.00000000E+00   3.00323860E-18   4.14671461E-09   6.09889913E-16   6.80220268E-08  -3.60287094E-17  -3.62142671E-18  -3.49069231E-17  -3.40438896E-17  -1.98771455E-10  -6.96115851E-11  -1.16518277E-07   2.09755613E-08   1.92867664E-07  -3.04208965E-16  -5.46070072E-18   5.53864165E-18   2.84110290E-18   1.11428203E-17  -3.39558627E-11  -4.59040340E-08  -4.65167252E-08  -1.25908515E-31  -2.89359687E-08  -1.96221444E-16  -6.98334874E-16  -6.85284347E-16   2.24616229E-17
   6.91250000E+02   5.00000000E-01   5.00000000E-01  -1.31308260E-07  -3.75792475E-08   0.00000000E+00   0.00000000E+00   0.00000000E+00   1.44679843E-08   0.00000000E+00   3.22381787E-18   3.70843493E-09   6.61231753E-16   6.69529503E-08  -3.60417096E-17  -3.63161661E-18  -3.49681993E-17  -3.41692993E-17  -1.98674502E-10  -6.62316863E-11  -1.16518277E-07   1.95585189E-08   1.93824914E-07  -3.04280245E-16  -5.48894147E-18   4.93542323E-18   2.71325164E-18   1.05673780E-17  -3.39714566E-11  -4.59135597E-08  -4.65167252E-08  -2.36486507E-31  -2.89359685E-08  -1.96223645E-16  -6.98334874E-16  -6.85285144E-16   2.23854359E-17
   7.08750000E+02   5.00000000E-01   5.00000000E-01  -1.31308248E-07  -3.69201241E-08   0.00000000E+00   0.00000000E+00   0.00000000E+00   1.44679842E-08   0.00000000E+00   3.46150311E-18   3.31655531E-09   7.16890243E-16   6.57813632E-08  -3.60555019E-17  -3.64155806E-18  -3.50329526E-17  -3.42950390E-17  -1.98572241E-10  -6.28058346E-11  -1.16518276E-07   1.81643149E-08   1.94780003E-07  -3.04348004E-16  -5.52002244E-18   4.34690813E-18   2.57341833E-18   9.98952258E-18  -3.39867105E-11  -4.59223598E-08  -4.65167252E-08  -7.78923312E-17  -2.89359684E-08  -1.96225911E-16  -6.98334874E-16  -6.85285921E-16   2.23122030E-17
   7.26250000E+02   5.00000000E-01   5.00000000E-01  -1.31308235E-07  -3.62330492E-08   0.00000000E+00   0.00000000E+00   0.00000000E+00   1.44679841E-08   0.00000000E+00   3.71765014E-18   2.96591823E-09   7.77265120E-16   6.45100080E-08  -3.60699765E-17  -3.65122093E-18  -3.51006752E-17  -3.44204531E-17  -1.98464394E-10  -5.93360118E-11  -1.16518276E-07   1.67940779E-08   1.95732765E-07  -3.04412020E-16  -5.55373343E-18   3.77392727E-18   2.42253156E-18   9.41121821E-18  -3.40015769E-11  -4.59303955E-08  -4.65167252E-08  -2.76416423E-16  -2.89359682E-08  -1.96228231E-16  -6.98334874E-16  -6.85286677E-16   2.22418462E-17
   7.43750000E+02   5.00000000E-01   5.00000000E-01  -1.31308220E-07  -3.55176348E-08   0.00000000E+00   0.00000000E+00   0.00000000E+00   1.44679840E-08   0.00000000E+00   3.99384721E-18   2.65189622E-09   8.42798993E-16   6.31406404E-08  -3.60850565E-17  -3.66058920E-18  -3.51710082E-17  -3.45450984E-17  -1.98350640E-10  -5.58231604E-11  -1.16518276E-07   1.54478886E-08   1.96683633E-07  -3.04472199E-16  -5.58995524E-18   3.21673927E-18   2.26113144E-18   8.83365813E-18  -3.40160290E-11  -4.59376778E-08  -4.65167252E-08  -5.62132798E-16  -2.89359681E-08  -1.96230596E-16  -6.98334874E-16  -6.85287413E-16   2.21743172E-17
   7.61250000E+02   5.00000000E-01   5.00000000E-01  -1.31308203E-07  -3.47733053E-08   0.00000000E+00   0.00000000E+00   0.00000000E+00   1.44679840E-08   0.00000000E+00   4.29194738E-18   2.37036850E-09   9.13971827E-16   6.16745067E-08  -3.61006896E-17  -3.66965677E-18  -3.52437062E-17  -3.46686886E-17  -1.98230617E-10  -5.22671852E-11  -1.16518275E-07   1.41250471E-08   1.97633431E-07  -3.04528549E-16  -5.62864122E-18   2.67519776E-18   2.08944934E-18   8.25745770E-18  -3.40300545E-11  -4.59442552E-08  -4.65167252E-08  -9.30292137E-16  -2.89359679E-08  -1.96233004E-16  -6.98334874E-16  -6.85288126E-16   2.21095975E-17
   7.78750000E+02   5.00000000E-01   5.00000000E-01  -1.31308184E-07  -3.39993048E-08   0.00000000E+00   0.00000000E+00   0.00000000E+00   1.44679839E-08   0.00000000E+00   4.61409157E-18   2.11768984E-09   9.91291868E-16   6.01128278E-08  -3.61168389E-17  -3.67842345E-18  -3.53185932E-17  -3.47910335E-17  -1.98103915E-10  -4.86671085E-11  -1.16518275E-07   1.28243624E-08   1.98583155E-07  -3.04581138E-16  -5.66979277E-18   2.14891878E-18   1.90751263E-18   7.68286753E-18  -3.40436502E-11  -4.59502004E-08  -4.65167252E-08  -1.34870119E-15  -2.89359678E-08  -1.96235450E-16  -6.98334874E-16  -6.85288819E-16   2.20476911E-17
   7.96250000E+02   5.00000000E-01   5.00000000E-01  -1.31308163E-07  -3.31947472E-08   0.00000000E+00   0.00000000E+00   0.00000000E+00   1.44679838E-08   0.00000000E+00   4.96271626E-18   1.89065565E-09   1.07528192E-15   5.84573284E-08  -3.61334720E-17  -3.68689115E-18  -3.53955146E-17  -3.49119788E-17  -1.97970078E-10  -4.50214063E-11  -1.16518275E-07   1.15444607E-08   1.99533737E-07  -3.04630071E-16  -5.71342935E-18   1.63744408E-18   1.71527234E-18   7.11000096E-18  -3.40568163E-11  -4.59555939E-08  -4.65167252E-08  -1.73593761E-15  -2.89359676E-08  -1.96237935E-16  -6.98334874E-16  -6.85289489E-16   2.19886145E-17