 TITLE = "Mineral Rate (mol/m^3/sec)" 
VARIABLES = "X"          "Y"              "Z"            "Forsterite"     "Enstatite(alph" "Anorthite"      "Tremolite"      "Pargasite"      "Anhydrite"      "Clinochlore"    "Albite(low)"    "Fayalite"       "Epidote"        "Kaolinite"      "Muscovite(orde" "Sudoite"        "Saponite(Mg)"   "Scolecite"      "FeS(am)"        "Quartz(alpha)"  "Montmorillonit"
 ZONE I=         100 , J=           1 , K=           1  F=POINT
   1.75000000E+01   5.00000000E-01   5.00000000E-01  -9.99836932E-09  -9.97582431E-10  -9.99892787E-10  -9.71120269E-08  -9.71070581E-08  -5.94923934E-06   1.78034112E-07  -7.14553380E-08  -9.98681278E-09  -1.55464331E-16  -9.26886998E-09   0.00000000E+00   0.00000000E+00   1.78001900E-07  -8.74891877E-09   0.00000000E+00   6.91388202E-08  -9.48402077E-09
   5.25000000E+01   5.00000000E-01   5.00000000E-01  -9.99836939E-09  -9.97529919E-10  -9.99892786E-10  -9.71110112E-08  -9.71070581E-08  -5.34045363E-06   1.47127130E-07  -2.32394761E-08  -9.98526092E-09   1.40978074E-16  -9.26359642E-09   0.00000000E+00   0.00000000E+00   2.08636521E-07  -8.74847698E-09   0.00000000E+00   9.40289452E-08  -7.59403310E-09
   8.75000000E+01   5.00000000E-01   5.00000000E-01  -9.99836937E-09  -9.97381311E-10  -9.99892786E-10  -9.71095664E-08  -9.71070581E-08  -4.58827742E-06   1.30511944E-07   1.05857723E-09  -9.98281806E-09   3.13002602E-17  -9.26050294E-09   0.00000000E+00   0.00000000E+00   2.28240263E-07  -8.74806969E-09   0.00000000E+00   1.02587674E-07  -6.23256040E-09
   1.22500000E+02   5.00000000E-01   5.00000000E-01  -9.99836933E-09  -9.97233426E-10  -9.99892786E-10  -9.71082447E-08  -9.71070581E-08  -3.74670908E-06   1.23677735E-07   1.05469335E-08  -9.97953852E-09   1.26487976E-17  -9.25866639E-09   0.00000000E+00   0.00000000E+00   2.36898799E-07  -8.74774275E-09   0.00000000E+00   1.04697690E-07  -5.49049217E-09
   1.57500000E+02   5.00000000E-01   5.00000000E-01  -9.99836928E-09  -9.97087052E-10  -9.99892786E-10  -9.71072132E-08  -9.71070581E-08  -2.88285608E-06   1.21013844E-07   1.38982090E-08  -9.97547969E-09   5.74601700E-18  -9.25727928E-09   0.00000000E+00   0.00000000E+00   2.40530295E-07  -8.74746957E-09   0.00000000E+00   1.04378713E-07  -5.04562713E-09
   1.92500000E+02   5.00000000E-01   5.00000000E-01  -9.99836922E-09  -9.96938536E-10  -9.99892785E-10  -9.71064881E-08  -9.71070581E-08  -2.05843114E-06   1.20014956E-07   1.48225369E-08  -9.97068340E-09   2.14569695E-18  -9.25603977E-09   0.00000000E+00   0.00000000E+00   2.42123633E-07  -8.74723393E-09   0.00000000E+00   1.03147380E-07  -4.72709494E-09
   2.27500000E+02   5.00000000E-01   5.00000000E-01  -9.99836915E-09  -9.96785910E-10  -9.99892785E-10  -9.71060393E-08  -9.71070581E-08  -1.31803014E-06   1.19684645E-07   1.47734000E-08  -9.96517903E-09  -1.35997880E-19  -9.25483132E-09   0.00000000E+00   0.00000000E+00   2.42904569E-07  -8.74702722E-09   0.00000000E+00   1.01575568E-07  -4.46118459E-09
   2.62500000E+02   5.00000000E-01   5.00000000E-01  -9.99836908E-09  -9.96628241E-10  -9.99892785E-10  -9.71058213E-08  -9.71070581E-08  -6.85772514E-07   1.19630892E-07   1.43182120E-08  -9.95898675E-09  -1.79880999E-18  -9.25360606E-09   0.00000000E+00   0.00000000E+00   2.43360243E-07  -8.74684431E-09   0.00000000E+00   9.98832011E-08  -4.21724048E-09
   2.97500000E+02   5.00000000E-01   5.00000000E-01  -9.99836899E-09  -9.96465054E-10  -9.99892784E-10  -9.71057848E-08  -9.71070581E-08  -1.67999818E-07   1.19697504E-07   1.36818420E-08  -9.95212087E-09  -3.14756221E-18  -9.25234331E-09   0.00000000E+00   0.00000000E+00   2.43685799E-07  -8.74668152E-09   0.00000000E+00   9.81571879E-08  -3.98253845E-09
   3.32500000E+02   5.00000000E-01   5.00000000E-01  -9.99836890E-09  -9.96296068E-10  -9.99892783E-10  -9.71058824E-08  -9.71070581E-08   2.39437961E-07   1.19820973E-07   1.29554218E-08  -9.94459280E-09  -4.32720526E-18  -9.25103371E-09   0.00000000E+00   0.00000000E+00   2.43960892E-07  -8.74653564E-09   0.00000000E+00   9.64329984E-08  -3.75179140E-09
   3.67500000E+02   5.00000000E-01   5.00000000E-01  -9.99836879E-09  -9.96121080E-10  -9.99892783E-10  -9.71060727E-08  -9.71070581E-08   5.47869932E-07   1.19975009E-07   1.21767359E-08  -9.93641285E-09  -5.41348299E-18  -9.24967285E-09   0.00000000E+00   0.00000000E+00   2.44218582E-07  -8.74640370E-09   0.00000000E+00   9.47255540E-08  -3.52286713E-09
   4.02500000E+02   5.00000000E-01   5.00000000E-01  -9.99836866E-09  -9.95939921E-10  -9.99892782E-10  -9.71063235E-08  -9.71070581E-08   7.77314269E-07   1.20148785E-07   1.13616241E-08  -9.92758919E-09  -6.46082299E-18  -9.24825880E-09   0.00000000E+00   0.00000000E+00   2.44472486E-07  -8.74628331E-09   0.00000000E+00   9.30411237E-08  -3.29505770E-09
   4.37500000E+02   5.00000000E-01   5.00000000E-01  -9.99836852E-09  -9.95752437E-10  -9.99892781E-10  -9.71066106E-08  -9.71070581E-08   9.44847908E-07   1.20337788E-07   1.05171611E-08  -9.91812799E-09  -7.50233653E-18  -9.24679085E-09   0.00000000E+00   0.00000000E+00   2.44727919E-07  -8.74617253E-09   0.00000000E+00   9.13823402E-08  -3.06827953E-09
   4.72500000E+02   5.00000000E-01   5.00000000E-01  -9.99836837E-09  -9.95558475E-10  -9.99892780E-10  -9.71069168E-08  -9.71070581E-08   1.06445199E-06   1.20540054E-07   9.64701980E-09  -9.90803338E-09  -8.55663984E-18  -9.24526893E-09   0.00000000E+00   0.00000000E+00   2.44986547E-07  -8.74606976E-09   0.00000000E+00   8.97502719E-08  -2.84272219E-09
   5.07500000E+02   5.00000000E-01   5.00000000E-01  -9.99836820E-09  -9.95357891E-10  -9.99892778E-10  -9.71072302E-08  -9.71070581E-08   1.14732376E-06   1.20754586E-07   8.75370601E-09  -9.89730752E-09  -9.63410684E-18  -9.24369334E-09   0.00000000E+00   0.00000000E+00   2.45248327E-07  -8.74597367E-09   0.00000000E+00   8.81453082E-08  -2.61868477E-09
   5.42500000E+02   5.00000000E-01   5.00000000E-01  -9.99836800E-09  -9.95150538E-10  -9.99892777E-10  -9.71075434E-08  -9.71070581E-08   1.20228053E-06   1.20980668E-07   7.83950285E-09  -9.88595063E-09  -1.07409903E-17  -9.24206453E-09   0.00000000E+00   0.00000000E+00   2.45512334E-07  -8.74588318E-09   0.00000000E+00   8.65675505E-08  -2.39649353E-09
   5.77500000E+02   5.00000000E-01   5.00000000E-01  -9.99836778E-09  -9.94936274E-10  -9.99892775E-10  -9.71078515E-08  -9.71070581E-08   1.23617343E-06   1.21217575E-07   6.90686913E-09  -9.87396110E-09  -1.18794219E-17  -9.24038302E-09   0.00000000E+00   0.00000000E+00   2.45777103E-07  -8.74579739E-09   0.00000000E+00   8.50169920E-08  -2.17645589E-09
   6.12500000E+02   5.00000000E-01   5.00000000E-01  -9.99836754E-09  -9.94714962E-10  -9.99892773E-10  -9.71081507E-08  -9.71070581E-08   1.25426871E-06   1.21464442E-07   5.95859895E-09  -9.86133573E-09  -1.30476962E-17  -9.23864929E-09   0.00000000E+00   0.00000000E+00   2.46040780E-07  -8.74571551E-09   0.00000000E+00   8.34936027E-08  -1.95883184E-09
   6.47500000E+02   5.00000000E-01   5.00000000E-01  -9.99836727E-09  -9.94486467E-10  -9.99892771E-10  -9.71084381E-08  -9.71070581E-08   1.26057906E-06   1.21720208E-07   4.99787176E-09  -9.84807000E-09  -1.42443923E-17  -9.23686367E-09   0.00000000E+00   0.00000000E+00   2.46301182E-07  -8.74563688E-09   0.00000000E+00   8.19973695E-08  -1.74381433E-09
   6.82500000E+02   5.00000000E-01   5.00000000E-01  -9.99836696E-09  -9.94250660E-10  -9.99892768E-10  -9.71087115E-08  -9.71070581E-08   1.25814049E-06   1.21983606E-07   4.02824897E-09  -9.83415851E-09  -1.54624047E-17  -9.23502628E-09   0.00000000E+00   0.00000000E+00   2.46555839E-07  -8.74556092E-09   0.00000000E+00   8.05283140E-08  -1.53151537E-09
   7.17500000E+02   5.00000000E-01   5.00000000E-01  -9.99836663E-09  -9.94007419E-10  -9.99892765E-10  -9.71089700E-08  -9.71070581E-08   1.24923728E-06   1.22253162E-07   3.05364171E-09  -9.81959545E-09  -1.66950542E-17  -9.23313691E-09   0.00000000E+00   0.00000000E+00   2.46802015E-07  -8.74548710E-09   0.00000000E+00   7.90864987E-08  -1.32195621E-09
   7.52500000E+02   5.00000000E-01   5.00000000E-01  -9.99836625E-09  -9.93756630E-10  -9.99892761E-10  -9.71092134E-08  -9.71070581E-08   1.23558120E-06   1.22527212E-07   2.07826060E-09  -9.80437509E-09  -1.79320381E-17  -9.23119499E-09   0.00000000E+00   0.00000000E+00   2.47036739E-07  -8.74541490E-09   0.00000000E+00   7.76720255E-08  -1.11506103E-09
   7.87500000E+02   5.00000000E-01   5.00000000E-01  -9.99836583E-09  -9.93498188E-10  -9.99892757E-10  -9.71094420E-08  -9.71070581E-08   1.21845174E-06   1.22803924E-07   1.10655245E-09  -9.78849239E-09  -1.91631954E-17  -9.22919947E-09   0.00000000E+00   0.00000000E+00   2.47256845E-07  -8.74534385E-09   0.00000000E+00   7.62850293E-08  -9.10654395E-10
   8.22500000E+02   5.00000000E-01   5.00000000E-01  -9.99836537E-09  -9.93231993E-10  -9.99892752E-10  -9.71096562E-08  -9.71070581E-08   1.19880439E-06   1.23081325E-07   1.43126828E-10  -9.77194359E-09  -2.03740313E-17  -9.22714882E-09   0.00000000E+00   0.00000000E+00   2.47459023E-07  -8.74527347E-09   0.00000000E+00   7.49256695E-08  -7.08462087E-10
   8.57500000E+02   5.00000000E-01   5.00000000E-01  -9.99836486E-09  -9.92957960E-10  -9.99892747E-10  -9.71098568E-08  -9.71070581E-08   1.17735317E-06   1.23357341E-07  -8.07327488E-10  -9.75472679E-09  -2.15501216E-17  -9.22504096E-09   0.00000000E+00   0.00000000E+00   2.47639879E-07  -8.74520327E-09   0.00000000E+00   7.35941185E-08  -5.08115561E-10
   8.92500000E+02   5.00000000E-01   5.00000000E-01  -9.99836429E-09  -9.92676007E-10  -9.99892740E-10  -9.71100446E-08  -9.71070581E-08   1.15463297E-06   1.23629776E-07  -1.74002079E-09  -9.73684246E-09  -2.26743423E-17  -9.22287332E-09   0.00000000E+00   0.00000000E+00   2.47796061E-07  -8.74513279E-09   0.00000000E+00   7.22905391E-08  -3.09172814E-10
   9.27500000E+02   5.00000000E-01   5.00000000E-01  -9.99836367E-09  -9.92386063E-10  -9.99892733E-10  -9.71102204E-08  -9.71070581E-08   1.13104601E-06   1.23896473E-07  -2.65038437E-09  -9.71829408E-09  -2.37287167E-17  -9.22064274E-09   0.00000000E+00   0.00000000E+00   2.47924235E-07  -8.74506151E-09   0.00000000E+00   7.10150838E-08  -1.11109727E-10
   9.62500000E+02   5.00000000E-01   5.00000000E-01  -9.99836297E-09  -9.92088066E-10  -9.99892725E-10  -9.71103849E-08  -9.71070581E-08   1.10689637E-06   1.24155294E-07  -3.53404028E-09  -9.69908864E-09  -2.46937047E-17  -9.21834549E-09   0.00000000E+00   0.00000000E+00   2.48021232E-07  -8.74498894E-09   0.00000000E+00   6.97678798E-08   8.66582787E-11
   9.97500000E+02   5.00000000E-01   5.00000000E-01  -9.99836221E-09  -9.91781958E-10  -9.99892715E-10  -9.71105388E-08  -9.71070581E-08   1.08241524E-06   1.24404157E-07  -4.38688523E-09  -9.67923698E-09  -2.55498376E-17  -9.21597740E-09   0.00000000E+00   0.00000000E+00   2.48084147E-07  -8.74491457E-09   0.00000000E+00   6.85490139E-08   2.84755493E-10
   1.03250000E+03   5.00000000E-01   5.00000000E-01  -9.99836138E-09  -9.91467688E-10  -9.99892705E-10  -9.71106829E-08  -9.71070581E-08   1.05777950E-06   1.24641084E-07  -5.20518397E-09  -9.65875408E-09  -2.62769359E-17  -9.21353388E-09   0.00000000E+00   0.00000000E+00   2.48110435E-07  -8.74483789E-09   0.00000000E+00   6.73585170E-08   4.83831610E-10
   1.06750000E+03   5.00000000E-01   5.00000000E-01  -9.99836045E-09  -9.91145204E-10  -9.99892692E-10  -9.71108177E-08  -9.71070581E-08   1.03312513E-06   1.24864241E-07  -5.98564761E-09  -9.63765929E-09  -2.68552466E-17  -9.21101006E-09   0.00000000E+00   0.00000000E+00   2.48098000E-07  -8.74475837E-09   0.00000000E+00   6.61963516E-08   6.84535764E-10
   1.10250000E+03   5.00000000E-01   5.00000000E-01  -9.99835944E-09  -9.90814456E-10  -9.99892678E-10  -9.71109439E-08  -9.71070581E-08   1.00855706E-06   1.25071984E-07  -6.72550237E-09  -9.61597633E-09  -2.72655849E-17  -9.20840091E-09   0.00000000E+00   0.00000000E+00   2.48045274E-07  -8.74467550E-09   0.00000000E+00   6.50624006E-08   8.87493720E-10
   1.13750000E+03   5.00000000E-01   5.00000000E-01  -9.99835834E-09  -9.90475389E-10  -9.99892662E-10  -9.71110617E-08  -9.71070581E-08   9.84156201E-07   1.25262891E-07  -7.42254490E-09  -9.59373325E-09  -2.74897610E-17  -9.20570138E-09   0.00000000E+00   0.00000000E+00   2.47951280E-07  -8.74458879E-09   0.00000000E+00   6.39564587E-08   1.09328500E-09
   1.17250000E+03   5.00000000E-01   5.00000000E-01  -9.99835712E-09  -9.90127942E-10  -9.99892643E-10  -9.71111718E-08  -9.71070581E-08   9.59984715E-07   1.25435791E-07  -8.07518178E-09  -9.57096225E-09  -2.75119297E-17  -9.20290656E-09   0.00000000E+00   0.00000000E+00   2.47815686E-07  -8.74449772E-09   0.00000000E+00   6.28782266E-08   1.30242084E-09
   1.20750000E+03   5.00000000E-01   5.00000000E-01  -9.99835580E-09  -9.89772046E-10  -9.99892621E-10  -9.71112744E-08  -9.71070581E-08   9.36089807E-07   1.25589790E-07  -8.68245161E-09  -9.54769931E-09  -2.73176671E-17  -9.20001188E-09   0.00000000E+00   0.00000000E+00   2.47638829E-07  -8.74440183E-09   0.00000000E+00   6.18273080E-08   1.51532392E-09
   1.24250000E+03   5.00000000E-01   5.00000000E-01  -9.99835435E-09  -9.89407618E-10  -9.99892597E-10  -9.71113700E-08  -9.71070581E-08   9.12506600E-07   1.25724287E-07  -9.24402854E-09  -9.52398384E-09  -2.68957465E-17  -9.19701322E-09   0.00000000E+00   0.00000000E+00   2.47421724E-07  -8.74430064E-09   0.00000000E+00   6.08032101E-08   1.73231063E-09
   1.27750000E+03   5.00000000E-01   5.00000000E-01  -9.99835277E-09  -9.89034561E-10  -9.99892569E-10  -9.71114587E-08  -9.71070581E-08   8.89260309E-07   1.25838977E-07  -9.76020697E-09  -9.49985811E-09  -2.62365757E-17  -9.19390716E-09   0.00000000E+00   0.00000000E+00   2.47166042E-07  -8.74419373E-09   0.00000000E+00   5.98053469E-08   1.95357668E-09
   1.31250000E+03   5.00000000E-01   5.00000000E-01  -9.99835104E-09  -9.88652762E-10  -9.99892536E-10  -9.71115408E-08  -9.71070581E-08   8.66367929E-07   1.25933856E-07  -1.02318678E-08  -9.47536668E-09  -2.53352518E-17  -9.19069105E-09   0.00000000E+00   0.00000000E+00   2.46874070E-07  -8.74408065E-09   0.00000000E+00   5.88330460E-08   2.17918666E-09
   1.34750000E+03   5.00000000E-01   5.00000000E-01  -9.99834917E-09  -9.88262088E-10  -9.99892499E-10  -9.71116165E-08  -9.71070581E-08   8.43839574E-07   1.26009208E-07  -1.06604279E-08  -9.45055580E-09  -2.41885774E-17  -9.18736323E-09   0.00000000E+00   0.00000000E+00   2.46548648E-07  -8.74396101E-09   0.00000000E+00   5.78855574E-08   2.40906791E-09
   1.38250000E+03   5.00000000E-01   5.00000000E-01  -9.99834713E-09  -9.87862387E-10  -9.99892457E-10  -9.71116857E-08  -9.71070581E-08   8.21679575E-07   1.26065587E-07  -1.10477745E-08  -9.42547272E-09  -2.27975473E-17  -9.18392307E-09   0.00000000E+00   0.00000000E+00   2.46193086E-07  -8.74383442E-09   0.00000000E+00   5.69620656E-08   2.64300913E-09
   1.41750000E+03   5.00000000E-01   5.00000000E-01  -9.99834491E-09  -9.87453487E-10  -9.99892408E-10  -9.71117487E-08  -9.71070581E-08   7.99887386E-07   1.26103796E-07  -1.13961880E-08  -9.40016506E-09  -2.11661406E-17  -9.18037111E-09   0.00000000E+00   0.00000000E+00   2.45811070E-07  -8.74370049E-09   0.00000000E+00   5.60617023E-08   2.88066350E-09
   1.45250000E+03   5.00000000E-01   5.00000000E-01  -9.99834250E-09  -9.87035194E-10  -9.99892352E-10  -9.71118056E-08  -9.71070581E-08   7.78458362E-07   1.26124851E-07  -1.17082552E-08  -9.37468009E-09  -1.93021021E-17  -9.17670907E-09   0.00000000E+00   0.00000000E+00   2.45406555E-07  -8.74355887E-09   0.00000000E+00   5.51835613E-08   3.12155624E-09
   1.48750000E+03   5.00000000E-01   5.00000000E-01  -9.99833988E-09  -9.86607298E-10  -9.99892288E-10  -9.71118564E-08  -9.71070581E-08   7.57384438E-07   1.26129947E-07  -1.19867792E-08  -9.34906416E-09  -1.72162323E-17  -9.17293990E-09   0.00000000E+00   0.00000000E+00   2.44983657E-07  -8.74340918E-09   0.00000000E+00   5.43267126E-08   3.36509615E-09
   1.52250000E+03   5.00000000E-01   5.00000000E-01  -9.99833705E-09  -9.86169567E-10  -9.99892215E-10  -9.71119011E-08  -9.71070581E-08   7.36654733E-07   1.26120416E-07  -1.22346865E-08  -9.32336197E-09  -1.49233103E-17  -9.16906772E-09   0.00000000E+00   0.00000000E+00   2.44546550E-07  -8.74325105E-09   0.00000000E+00   5.34902176E-08   3.61059041E-09
   1.55750000E+03   5.00000000E-01   5.00000000E-01  -9.99833397E-09  -9.85721756E-10  -9.99892132E-10  -9.71119399E-08  -9.71070581E-08   7.16256095E-07   1.26097688E-07  -1.24549382E-08  -9.29761601E-09  -1.24408868E-17  -9.16509784E-09   0.00000000E+00   0.00000000E+00   2.44099361E-07  -8.74308408E-09   0.00000000E+00   5.26731424E-08   3.85726182E-09
   1.59250000E+03   5.00000000E-01   5.00000000E-01  -9.99833064E-09  -9.85263603E-10  -9.99892036E-10  -9.71119729E-08  -9.71070581E-08   6.96173604E-07   1.26063244E-07  -1.26504457E-08  -9.27186587E-09  -9.78864393E-18  -9.16103661E-09   0.00000000E+00   0.00000000E+00   2.43646083E-07  -8.74290788E-09   0.00000000E+00   5.18745705E-08   4.10426785E-09
   1.62750000E+03   5.00000000E-01   5.00000000E-01  -9.99832703E-09  -9.84794835E-10  -9.99891926E-10  -9.71119997E-08  -9.71070581E-08   6.76391045E-07   1.26018579E-07  -1.28239960E-08  -9.24614759E-09  -6.99152196E-18  -9.15689137E-09   0.00000000E+00   0.00000000E+00   2.43190503E-07  -8.74272198E-09   0.00000000E+00   5.10936131E-08   4.35072016E-09
   1.66250000E+03   5.00000000E-01   5.00000000E-01  -9.99832313E-09  -9.84315167E-10  -9.99891801E-10  -9.71120204E-08  -9.71070581E-08   6.56891362E-07   1.25965159E-07  -1.29781873E-08  -9.22049297E-09  -4.07538495E-18  -9.15267035E-09   0.00000000E+00   0.00000000E+00   2.42736140E-07  -8.74252592E-09   0.00000000E+00   5.03294187E-08   4.59570402E-09
   1.69750000E+03   5.00000000E-01   5.00000000E-01  -9.99831891E-09  -9.83824307E-10  -9.99891657E-10  -9.71120349E-08  -9.71070581E-08   6.37657082E-07   1.25904393E-07  -1.31153757E-08  -9.19492885E-09  -1.06986289E-18  -9.14838249E-09   0.00000000E+00   0.00000000E+00   2.42286204E-07  -8.74231915E-09   0.00000000E+00   4.95811789E-08   4.83829679E-09
   1.73250000E+03   5.00000000E-01   5.00000000E-01  -9.99831434E-09  -9.83321954E-10  -9.99891493E-10  -9.71120431E-08  -9.71070581E-08   6.18670747E-07   1.25837595E-07  -1.32376352E-08  -9.16947628E-09   1.99371186E-18  -9.14403738E-09   0.00000000E+00   0.00000000E+00   2.41843571E-07  -8.74210107E-09   0.00000000E+00   4.88481338E-08   5.07758470E-09
   1.76750000E+03   5.00000000E-01   5.00000000E-01  -9.99830941E-09  -9.82807805E-10  -9.99891305E-10  -9.71120451E-08  -9.71070581E-08   5.99915322E-07   1.25765965E-07  -1.33467290E-08  -9.14414965E-09   5.08151743E-18  -9.13964514E-09   0.00000000E+00   0.00000000E+00   2.41410770E-07  -8.74187103E-09   0.00000000E+00   4.81295746E-08   5.31267752E-09
   1.80250000E+03   5.00000000E-01   5.00000000E-01  -9.99830409E-09  -9.82281550E-10  -9.99891090E-10  -9.71120404E-08  -9.71070581E-08   5.81374604E-07   1.25690568E-07  -1.34440915E-08  -9.11895576E-09   8.15852275E-18  -9.13521624E-09   0.00000000E+00   0.00000000E+00   2.40989988E-07  -8.74162827E-09   0.00000000E+00   4.74248444E-08   5.54272089E-09
   1.83750000E+03   5.00000000E-01   5.00000000E-01  -9.99829834E-09  -9.81742876E-10  -9.99890843E-10  -9.71120287E-08  -9.71070581E-08   5.63033625E-07   1.25612318E-07  -1.35308218E-08  -9.09389276E-09   1.11881349E-17  -9.13076150E-09   0.00000000E+00   0.00000000E+00   2.40583083E-07  -8.74137196E-09   0.00000000E+00   4.67333378E-08   5.76690574E-09
   1.87250000E+03   5.00000000E-01   5.00000000E-01  -9.99829215E-09  -9.81191469E-10  -9.99890562E-10  -9.71120099E-08  -9.71070581E-08   5.44879048E-07   1.25531973E-07  -1.36076841E-08  -9.06894903E-09   1.41341872E-17  -9.12629193E-09   0.00000000E+00   0.00000000E+00   2.40191603E-07  -8.74110119E-09   0.00000000E+00   4.60544986E-08   5.98447526E-09
   1.90750000E+03   5.00000000E-01   5.00000000E-01  -9.99828548E-09  -9.80627011E-10  -9.99890239E-10  -9.71119835E-08  -9.71070581E-08   5.26899544E-07   1.25450127E-07  -1.36751153E-08  -9.04410190E-09   1.69593761E-17  -9.12181870E-09   0.00000000E+00   0.00000000E+00   2.39816820E-07  -8.74081491E-09   0.00000000E+00   4.53878177E-08   6.19472931E-09
   1.94250000E+03   5.00000000E-01   5.00000000E-01  -9.99827829E-09  -9.80049182E-10  -9.99889870E-10  -9.71119490E-08  -9.71070581E-08   5.09086157E-07   1.25367208E-07  -1.37332376E-08  -9.01931633E-09   1.96286720E-17  -9.11735311E-09   0.00000000E+00   0.00000000E+00   2.39459758E-07  -8.74051200E-09   0.00000000E+00   4.47328284E-08   6.39702645E-09
   1.97750000E+03   5.00000000E-01   5.00000000E-01  -9.99827056E-09  -9.79457658E-10  -9.99889448E-10  -9.71119057E-08  -9.71070581E-08   4.91432639E-07   1.25283484E-07  -1.37818739E-08  -8.99454343E-09   2.21082530E-17  -9.11290650E-09   0.00000000E+00   0.00000000E+00   2.39121227E-07  -8.74019120E-09   0.00000000E+00   4.40891033E-08   6.59078380E-09
   2.01250000E+03   5.00000000E-01   5.00000000E-01  -9.99826226E-09  -9.78852112E-10  -9.99888964E-10  -9.71118530E-08  -9.71070581E-08   4.73935749E-07   1.25199066E-07  -1.38205657E-08  -8.96971878E-09   2.43668552E-17  -9.10849030E-09   0.00000000E+00   0.00000000E+00   2.38801862E-07  -8.73985111E-09   0.00000000E+00   4.34562486E-08   6.77547515E-09
   2.04750000E+03   5.00000000E-01   5.00000000E-01  -9.99825335E-09  -9.78232211E-10  -9.99888410E-10  -9.71117899E-08  -9.71070581E-08   4.56595500E-07   1.25113910E-07  -1.38485899E-08  -8.94476063E-09   2.63764832E-17  -9.10411602E-09   0.00000000E+00   0.00000000E+00   2.38502155E-07  -8.73949021E-09   0.00000000E+00   4.28339007E-08   6.95062761E-09
   2.08250000E+03   5.00000000E-01   5.00000000E-01  -9.99824379E-09  -9.77597618E-10  -9.99887774E-10  -9.71117152E-08  -9.71070581E-08   4.39415343E-07   1.25027828E-07  -1.38649760E-08  -8.91956788E-09   2.81134760E-17  -9.09979524E-09   0.00000000E+00   0.00000000E+00   2.38222488E-07  -8.73910682E-09   0.00000000E+00   4.22217204E-08   7.11581697E-09
   2.11750000E+03   5.00000000E-01   5.00000000E-01  -9.99823356E-09  -9.76947988E-10  -9.99887046E-10  -9.71116275E-08  -9.71070581E-08   4.22402276E-07   1.24940492E-07  -1.38685201E-08  -8.89401765E-09   2.95591462E-17  -9.09553968E-09   0.00000000E+00   0.00000000E+00   2.37963165E-07  -8.73869911E-09   0.00000000E+00   4.16193891E-08   7.27066207E-09
   2.15250000E+03   5.00000000E-01   5.00000000E-01  -9.99822262E-09  -9.76282965E-10  -9.99886211E-10  -9.71115252E-08  -9.71070581E-08   4.05566862E-07   1.24851443E-07  -1.38577968E-08  -8.86796261E-09   3.06996384E-17  -9.09136122E-09   0.00000000E+00   0.00000000E+00   2.37724441E-07  -8.73826505E-09   0.00000000E+00   4.10266040E-08   7.41481855E-09
   2.18750000E+03   5.00000000E-01   5.00000000E-01  -9.99821093E-09  -9.75602185E-10  -9.99885252E-10  -9.71114061E-08  -9.71070581E-08   3.88923141E-07   1.24760091E-07  -1.38311671E-08  -8.84122774E-09   3.15271009E-17  -9.08727200E-09   0.00000000E+00   0.00000000E+00   2.37506551E-07  -8.73780244E-09   0.00000000E+00   4.04430740E-08   7.54797196E-09
   2.22250000E+03   5.00000000E-01   5.00000000E-01  -9.99819847E-09  -9.74905269E-10  -9.99884151E-10  -9.71112680E-08  -9.71070581E-08   3.72488441E-07   1.24665723E-07  -1.37867815E-08  -8.81360639E-09   3.20393667E-17  -9.08328444E-09   0.00000000E+00   0.00000000E+00   2.37309732E-07  -8.73730885E-09   0.00000000E+00   3.98685159E-08   7.66983058E-09
   2.25750000E+03   5.00000000E-01   5.00000000E-01  -9.99818519E-09  -9.74191826E-10  -9.99882886E-10  -9.71111079E-08  -9.71070581E-08   3.56283073E-07   1.24567505E-07  -1.37225785E-08  -8.78485564E-09   3.22400595E-17  -9.07941136E-09   0.00000000E+00   0.00000000E+00   2.37134246E-07  -8.73678161E-09   0.00000000E+00   3.93026503E-08   7.78011794E-09
   2.29250000E+03   5.00000000E-01   5.00000000E-01  -9.99817106E-09  -9.73461445E-10  -9.99881432E-10  -9.71109223E-08  -9.71070581E-08   3.40329907E-07   1.24464476E-07  -1.36362775E-08  -8.75469035E-09   3.21390203E-17  -9.07566607E-09   0.00000000E+00   0.00000000E+00   2.36980405E-07  -8.73621778E-09   0.00000000E+00   3.87451983E-08   7.87856511E-09
   2.32750000E+03   5.00000000E-01   5.00000000E-01  -9.99815605E-09  -9.72713694E-10  -9.99879760E-10  -9.71107072E-08  -9.71070581E-08   3.24653861E-07   1.24355548E-07  -1.35253642E-08  -8.72277594E-09   3.17507443E-17  -9.07206245E-09   0.00000000E+00   0.00000000E+00   2.36848588E-07  -8.73561409E-09   0.00000000E+00   3.81958780E-08   7.96490284E-09
   2.36250000E+03   5.00000000E-01   5.00000000E-01  -9.99814009E-09  -9.71948120E-10  -9.99877835E-10  -9.71104577E-08  -9.71070581E-08   3.09281293E-07   1.24239498E-07  -1.33870697E-08  -8.68871908E-09   3.10947712E-17  -9.06861511E-09   0.00000000E+00   0.00000000E+00   2.36739266E-07  -8.73496694E-09   0.00000000E+00   3.76544012E-08   8.03885345E-09
   2.39750000E+03   5.00000000E-01   5.00000000E-01  -9.99812313E-09  -9.71164239E-10  -9.99875617E-10  -9.71101679E-08  -9.71070581E-08   2.94239327E-07   1.24114956E-07  -1.32183397E-08  -8.65205594E-09   3.01944425E-17  -9.06533950E-09   0.00000000E+00   0.00000000E+00   2.36653019E-07  -8.73427227E-09   0.00000000E+00   3.71204700E-08   8.10012251E-09
   2.43250000E+03   5.00000000E-01   5.00000000E-01  -9.99810510E-09  -9.70361539E-10  -9.99873060E-10  -9.71098310E-08  -9.71070581E-08   2.79555151E-07   1.23980390E-07  -1.30157946E-08  -8.61223703E-09   2.90765101E-17  -9.06225204E-09   0.00000000E+00   0.00000000E+00   2.36590559E-07  -8.73352556E-09   0.00000000E+00   3.65937735E-08   8.14839013E-09
   2.46750000E+03   5.00000000E-01   5.00000000E-01  -9.99808591E-09  -9.69539467E-10  -9.99870109E-10  -9.71094386E-08  -9.71070581E-08   2.65255297E-07   1.23834078E-07  -1.27756763E-08  -8.56860747E-09   2.77701417E-17  -9.05937035E-09   0.00000000E+00   0.00000000E+00   2.36552753E-07  -8.73272166E-09   0.00000000E+00   3.60739841E-08   8.18330174E-09
   2.50250000E+03   5.00000000E-01   5.00000000E-01  -9.99806546E-09  -9.68697429E-10  -9.99866699E-10  -9.71089804E-08  -9.71070581E-08   2.51364950E-07   1.23674084E-07  -1.24937802E-08  -8.52038120E-09   2.63056421E-17  -9.05671339E-09   0.00000000E+00   0.00000000E+00   2.36540651E-07  -8.73185474E-09   0.00000000E+00   3.55607540E-08   8.20445817E-09
   2.53750000E+03   5.00000000E-01   5.00000000E-01  -9.99804361E-09  -9.67834780E-10  -9.99862755E-10  -9.71084439E-08  -9.71070581E-08   2.37907307E-07   1.23498217E-07  -1.21653683E-08  -8.46660676E-09   2.47147725E-17  -9.05430170E-09   0.00000000E+00   0.00000000E+00   2.36555515E-07  -8.73091808E-09   0.00000000E+00   3.50537105E-08   8.21140483E-09
   2.57250000E+03   5.00000000E-01   5.00000000E-01  -9.99802023E-09  -9.66950816E-10  -9.99858186E-10  -9.71078132E-08  -9.71070581E-08   2.24903027E-07   1.23303976E-07  -1.17850582E-08  -8.40612155E-09   2.30280151E-17  -9.05215769E-09   0.00000000E+00   0.00000000E+00   2.36598849E-07  -8.72990391E-09   0.00000000E+00   3.45524513E-08   8.20361965E-09
   2.60750000E+03   5.00000000E-01   5.00000000E-01  -9.99799513E-09  -9.66044762E-10  -9.99852885E-10  -9.71070680E-08  -9.71070581E-08   2.12369773E-07   1.23088488E-07  -1.13466802E-08  -8.33748991E-09   2.12757456E-17  -9.05030586E-09   0.00000000E+00   0.00000000E+00   2.36672444E-07  -8.72880316E-09   0.00000000E+00   3.40565384E-08   8.18049939E-09
   2.64250000E+03   5.00000000E-01   5.00000000E-01  -9.99796812E-09  -9.65115764E-10  -9.99846723E-10  -9.71061819E-08  -9.71070581E-08   2.00321882E-07   1.22848419E-07  -1.08430934E-08  -8.25891819E-09   1.94867766E-17  -9.04877326E-09   0.00000000E+00   0.00000000E+00   2.36778419E-07  -8.72760509E-09   0.00000000E+00   3.35654915E-08   8.14134393E-09
   2.67750000E+03   5.00000000E-01   5.00000000E-01  -9.99793899E-09  -9.64162864E-10  -9.99839545E-10  -9.71051200E-08  -9.71070581E-08   1.88770147E-07   1.22579863E-07  -1.02659460E-08  -8.16813661E-09   1.76876469E-17  -9.04758981E-09   0.00000000E+00   0.00000000E+00   2.36919278E-07  -8.72629693E-09   0.00000000E+00   3.30787792E-08   8.08533792E-09
   2.71250000E+03   5.00000000E-01   5.00000000E-01  -9.99790751E-09  -9.63184992E-10  -9.99831161E-10  -9.71038358E-08  -9.71070581E-08   1.77721739E-07   1.22278185E-07  -9.60535933E-09  -8.06223225E-09   1.59029767E-17  -9.04678885E-09   0.00000000E+00   0.00000000E+00   2.37097967E-07  -8.72486322E-09   0.00000000E+00   3.25958082E-08   8.01152912E-09
   2.74750000E+03   5.00000000E-01   5.00000000E-01  -9.99787345E-09  -9.62180932E-10  -9.99821341E-10  -9.71022664E-08  -9.71070581E-08   1.67180238E-07   1.21937828E-07  -8.84950582E-09  -7.93740881E-09   1.41549705E-17  -9.04640774E-09   0.00000000E+00   0.00000000E+00   2.37317952E-07  -8.72328513E-09   0.00000000E+00   3.21159099E-08   7.91880265E-09
   2.78250000E+03   5.00000000E-01   5.00000000E-01  -9.99783648E-09  -9.61149298E-10  -9.99809795E-10  -9.71003255E-08  -9.71070581E-08   1.57145767E-07   1.21552029E-07  -7.98403591E-09  -7.78863398E-09   1.24622801E-17  -9.04648853E-09   0.00000000E+00   0.00000000E+00   2.37583285E-07  -8.72153931E-09   0.00000000E+00   3.16383237E-08   7.80585033E-09
   2.81750000E+03   5.00000000E-01   5.00000000E-01  -9.99779633E-09  -9.60088495E-10  -9.99796163E-10  -9.70978924E-08  -9.71070581E-08   1.47615222E-07   1.21112452E-07  -6.99128626E-09  -7.60911055E-09   1.08424558E-17  -9.04707885E-09   0.00000000E+00   0.00000000E+00   2.37898678E-07  -8.71959644E-09   0.00000000E+00   3.11621737E-08   7.67113419E-09
   2.85250000E+03   5.00000000E-01   5.00000000E-01  -9.99775268E-09  -9.58996676E-10  -9.99779983E-10  -9.70947949E-08  -9.71070581E-08   1.38582567E-07   1.20608646E-07  -5.84916273E-09  -7.38946294E-09   9.31006383E-18  -9.04823288E-09   0.00000000E+00   0.00000000E+00   2.38269553E-07  -8.71741911E-09   0.00000000E+00   3.06864400E-08   7.51284350E-09