 TITLE = "Mineral Rate (mol/m^3/sec)" 
VARIABLES = "X"          "Y"              "Z"            "Forsterite"     "Fayalite"       "Saponite(Mg)"   "Enstatite(alph" "Ferrosilite(al" "Anorthite"      "Albite(low)"    "Clinochlore"    "Sudoite"        "Montmorillonit" "Kaolinite"      "Tremolite"      "Pargasite"      "Anhydrite"      "Epidote"        "Scolecite"      "Pyrite"         "FeS(am)"        "Quartz(alpha)" 
 ZONE I=         100 , J=           1 , K=           1  F=POINT
   1.75000000E+01   5.00000000E-01   5.00000000E-01  -3.49659822E-07  -4.56490222E-07   3.82855918E-07  -2.00434385E-10  -1.45480729E-10  -1.22937448E-07  -2.09902987E-07   2.63405771E-07  -1.75099900E-15  -3.45499602E-15  -2.63799761E-08  -4.80575380E-08  -4.93190512E-08  -1.02458110E-14  -5.88270446E-16  -2.27018502E-10  -6.51564135E-15  -6.51167046E-15   9.60760059E-18
   5.25000000E+01   5.00000000E-01   5.00000000E-01  -3.49659822E-07  -4.17831579E-07   3.86597623E-07  -2.00429098E-10  -1.19867559E-10  -1.22937448E-07  -1.49333062E-07   2.32396325E-07  -9.23486471E-16  -3.29691954E-15  -2.63083574E-08  -4.80574976E-08  -4.93190512E-08  -1.02418232E-14   1.35525150E-16  -2.27005997E-10  -6.51564135E-15  -6.51030542E-15   1.09471501E-17
   8.75000000E+01   5.00000000E-01   5.00000000E-01  -3.49659822E-07  -3.66406629E-07   3.67792634E-07  -2.00417814E-10  -9.79507901E-11  -1.22937448E-07  -1.23322678E-07   2.22536699E-07  -7.50520670E-16  -3.13047690E-15  -2.62570844E-08  -4.80573517E-08  -4.93190512E-08  -1.02356822E-14   1.88433356E-17  -2.26996794E-10  -6.51564135E-15  -6.50924187E-15   1.11539502E-17
   1.22500000E+02   5.00000000E-01   5.00000000E-01  -3.49659821E-07  -3.12687862E-07   3.42422630E-07  -2.00405128E-10  -8.02436620E-11  -1.22937448E-07  -1.04121725E-07   2.17195990E-07  -7.15386181E-16  -2.92126562E-15  -2.62039615E-08  -4.80572797E-08  -4.93190512E-08  -1.02267840E-14   2.30505546E-18  -2.26987105E-10  -6.51564135E-15  -6.50853800E-15   1.11783597E-17
   1.57500000E+02   5.00000000E-01   5.00000000E-01  -3.49659821E-07  -2.63322507E-07   3.18242183E-07  -2.00391557E-10  -6.64547518E-11  -1.22937448E-07  -8.70509542E-08   2.12710448E-07  -7.16504462E-16  -2.63524584E-15  -2.61431405E-08  -4.80572843E-08  -4.93190512E-08  -1.02143672E-14  -4.09526033E-18  -2.26975985E-10  -6.51564135E-15  -6.50815146E-15   1.11422008E-17
   1.92500000E+02   5.00000000E-01   5.00000000E-01  -3.49659820E-07  -2.20961955E-07   2.97352424E-07  -2.00377090E-10  -5.59716143E-11  -1.22937447E-07  -7.22623904E-08   2.08799142E-07  -7.29557020E-16  -2.26065936E-15  -2.60748717E-08  -4.80572572E-08  -4.93190512E-08  -1.01974809E-14  -9.38753738E-18  -2.26963488E-10  -6.51564135E-15  -6.50800958E-15   1.10571878E-17
   2.27500000E+02   5.00000000E-01   5.00000000E-01  -3.49659819E-07  -1.86028455E-07   2.80106311E-07  -2.00361686E-10  -4.81518117E-11  -1.22937447E-07  -6.00737022E-08   2.05562009E-07  -7.48240007E-16  -1.79490941E-15  -2.60002585E-08  -4.80571720E-08  -4.93190512E-08  -1.01749375E-14  -1.40609979E-17  -2.26949804E-10  -6.51564135E-15  -6.50804448E-15   1.09291294E-17
   2.62500000E+02   5.00000000E-01   5.00000000E-01  -3.49659818E-07  -1.57924708E-07   2.66245002E-07  -2.00345323E-10  -4.24238307E-11  -1.22937447E-07  -5.04488183E-08   2.03025837E-07  -7.70992779E-16  -1.23855343E-15  -2.59201223E-08  -4.80571370E-08  -4.93190512E-08  -1.01452503E-14  -1.79498624E-17  -2.26935072E-10  -6.51564135E-15  -6.50820154E-15   1.07662850E-17
   2.97500000E+02   5.00000000E-01   5.00000000E-01  -3.49659817E-07  -1.35673177E-07   2.55299895E-07  -2.00327986E-10  -3.83126536E-11  -1.22937446E-07  -4.31262648E-08   2.01139997E-07  -7.97638402E-16  -5.92515581E-16  -2.58349085E-08  -4.80571470E-08  -4.93190512E-08  -1.01065594E-14  -2.10097011E-17  -2.26919359E-10  -6.51564135E-15  -6.50843918E-15   1.05772992E-17
   3.32500000E+02   5.00000000E-01   5.00000000E-01  -3.49659815E-07  -1.18233847E-07   2.46762256E-07  -2.00309665E-10  -3.54376125E-11  -1.22937446E-07  -3.77589355E-08   1.99817559E-07  -8.28459940E-16   1.43415786E-16  -2.57447555E-08  -4.80571546E-08  -4.93190512E-08  -1.00565358E-14  -2.32801373E-17  -2.26902672E-10  -6.51564135E-15  -6.50872667E-15   1.03698088E-17
   3.67500000E+02   5.00000000E-01   5.00000000E-01  -3.49659814E-07  -1.04651057E-07   2.40158471E-07  -2.00290349E-10  -3.35005722E-11  -1.22937445E-07  -3.39941964E-08   1.98962633E-07  -8.63926260E-16   9.71242539E-16  -2.56495767E-08  -4.80571970E-08  -4.93190512E-08  -9.99225543E-15  -2.48247529E-17  -2.26884977E-10  -6.51564135E-15  -6.50904175E-15   1.01500462E-17
   4.02500000E+02   5.00000000E-01   5.00000000E-01  -3.49659812E-07  -9.41102631E-08   2.35079338E-07  -2.00270024E-10  -3.22718496E-11  -1.22937443E-07  -3.15105441E-08   1.98483805E-07  -9.04656282E-16   1.89507303E-15  -2.55491450E-08  -4.80572778E-08  -4.93190512E-08  -9.91004089E-15  -2.57050552E-17  -2.26866210E-10  -6.51564135E-15  -6.50936858E-15   9.92288850E-18
   4.37500000E+02   5.00000000E-01   5.00000000E-01  -3.49659809E-07  -8.59473947E-08   2.31185623E-07  -2.00248676E-10  -3.15763896E-11  -1.22937442E-07  -3.00302680E-08   1.98299561E-07  -9.51392895E-16   2.92130489E-15  -2.54431322E-08  -4.80573839E-08  -4.93190512E-08  -9.80525657E-15  -2.59764260E-17  -2.26846281E-10  -6.51564135E-15  -6.50969607E-15   9.69207646E-18
   4.72500000E+02   5.00000000E-01   5.00000000E-01  -3.49659807E-07  -7.96367144E-08   2.28203164E-07  -2.00226288E-10  -3.12817681E-11  -1.22937439E-07  -2.93201129E-08   1.98339475E-07  -1.00498934E-15   4.05879242E-15  -2.53311322E-08  -4.80575107E-08  -4.93190512E-08  -9.67204258E-15  -2.56884323E-17  -2.26825084E-10  -6.51564135E-15  -6.51001660E-15   9.46045082E-18
   5.07500000E+02   5.00000000E-01   5.00000000E-01  -3.49659804E-07  -7.47706212E-08   2.25913896E-07  -2.00202840E-10  -3.12883582E-11  -1.22937436E-07  -2.91869578E-08   1.98543587E-07  -1.06640199E-15   5.31911960E-15  -2.52126759E-08  -4.80576539E-08  -4.93190512E-08  -9.50296797E-15  -2.48870332E-17  -2.26802493E-10  -6.51564135E-15  -6.51032509E-15   9.23015639E-18
   5.42500000E+02   5.00000000E-01   5.00000000E-01  -3.49659800E-07  -7.10379455E-08   2.24146146E-07  -2.00178315E-10  -3.15214894E-11  -1.22937432E-07  -2.94721292E-08   1.98861218E-07  -1.13665852E-15   6.71696486E-15  -2.50872358E-08  -4.80578091E-08  -4.93190512E-08  -9.28857633E-15  -2.36177649E-17  -2.26778371E-10  -6.51564135E-15  -6.51061827E-15   9.00280481E-18
   5.77500000E+02   5.00000000E-01   5.00000000E-01  -3.49659796E-07  -6.82039104E-08   2.22765846E-07  -2.00152691E-10  -3.19253460E-11  -1.22937427E-07  -3.00459976E-08   1.99249761E-07  -1.21678245E-15   8.27053439E-15  -2.49542293E-08  -4.80579730E-08  -4.93190512E-08  -9.01678651E-15  -2.19278013E-17  -2.26752560E-10  -6.51564135E-15  -6.51089419E-15   8.77959727E-18
   6.12500000E+02   5.00000000E-01   5.00000000E-01  -3.49659792E-07  -6.60928883E-08   2.21669215E-07  -2.00125947E-10  -3.24582859E-11  -1.22937421E-07  -3.08035127E-08   1.99673698E-07  -1.30763501E-15   1.00020088E-14  -2.48130218E-08  -4.80581432E-08  -4.93190512E-08  -8.67209786E-15  -1.98675695E-17  -2.26724891E-10  -6.51564135E-15  -6.51115187E-15   8.56141360E-18
   6.47500000E+02   5.00000000E-01   5.00000000E-01  -3.49659787E-07  -6.45741372E-08   2.20776924E-07  -2.00098062E-10  -3.30892831E-11  -1.22937412E-07  -3.16607828E-08   2.00103890E-07  -1.40960369E-15   1.19379289E-14  -2.46629349E-08  -4.80583184E-08  -4.93190512E-08  -8.23452916E-15  -1.74913864E-17  -2.26695179E-10  -6.51564135E-15  -6.51139095E-15   8.34887585E-18
   6.82500000E+02   5.00000000E-01   5.00000000E-01  -3.49659782E-07  -6.35502990E-08   2.20029540E-07  -2.00069012E-10  -3.37952391E-11  -1.22937400E-07  -3.25525335E-08   2.00517096E-07  -1.52201301E-15   1.41094386E-14  -2.45032609E-08  -4.80584980E-08  -4.93190512E-08  -7.67819283E-15  -1.48571285E-17  -2.26663227E-10  -6.51564135E-15  -6.51161159E-15   8.14239363E-18
   7.17500000E+02   5.00000000E-01   5.00000000E-01  -3.49659778E-07  -6.29483177E-08   2.19383978E-07  -2.00038774E-10  -3.45589609E-11  -1.22937386E-07  -3.34301736E-08   2.00895626E-07  -1.64203615E-15   1.65523007E-14  -2.43332832E-08  -4.80586821E-08  -4.93190512E-08  -6.96936541E-15  -1.20252111E-17  -2.26628829E-10  -6.51564135E-15  -6.51181426E-15   7.94219758E-18
   7.52500000E+02   5.00000000E-01   5.00000000E-01  -3.49659773E-07  -6.27124189E-08   2.18810650E-07  -2.00007322E-10  -3.53676447E-11  -1.22937367E-07  -3.42601796E-08   2.01227049E-07  -1.76271322E-15   1.93066011E-14  -2.41523045E-08  -4.80588710E-08  -4.93190512E-08  -6.06385755E-15  -9.05671682E-18  -2.26591773E-10  -6.51564135E-15  -6.51199966E-15   7.74836593E-18
   7.87500000E+02   5.00000000E-01   5.00000000E-01  -3.49659769E-07  -6.27988250E-08   2.18291090E-07  -1.99974628E-10  -3.62117434E-11  -1.22937342E-07  -3.50225522E-08   2.01503859E-07  -1.86937308E-15   2.24160609E-14  -2.39596787E-08  -4.80590650E-08  -4.93190512E-08  -4.90340136E-15  -6.01116430E-18  -2.26551851E-10  -6.51564135E-15  -6.51216864E-15   7.56084793E-18
   8.22500000E+02   5.00000000E-01   5.00000000E-01  -3.49659768E-07  -6.31719085E-08   2.17815857E-07  -1.99940663E-10  -3.70841216E-11  -1.22937311E-07  -3.57091694E-08   2.01723037E-07  -1.93320020E-15   2.59268893E-14  -2.37548461E-08  -4.80592630E-08  -4.93190512E-08  -3.41064863E-15  -2.94411818E-18  -2.26508858E-10  -6.51564135E-15  -6.51232215E-15   7.37948615E-18
   8.57500000E+02   5.00000000E-01   5.00000000E-01  -3.49659769E-07  -6.38015115E-08   2.17382602E-07  -1.99905395E-10  -3.79794254E-11  -1.22937271E-07  -3.63219498E-08   2.01885499E-07  -1.89969122E-15   2.98861243E-14  -2.35373668E-08  -4.80594626E-08  -4.93190512E-08  -1.48218763E-15   9.48369804E-20  -2.26462599E-10  -6.51564135E-15  -6.51246120E-15   7.20403914E-18
   8.92500000E+02   5.00000000E-01   5.00000000E-01  -3.49659776E-07  -6.46611718E-08   2.16994253E-07  -1.99868788E-10  -3.88936098E-11  -1.22937220E-07  -3.68708221E-08   2.01995419E-07  -1.66795635E-15   3.43394443E-14  -2.33069504E-08  -4.80596606E-08  -4.93190512E-08   1.02129166E-15   3.06381781E-18  -2.26412897E-10  -6.51564135E-15  -6.51258681E-15   7.03420415E-18
   9.27500000E+02   5.00000000E-01   5.00000000E-01  -3.49659791E-07  -6.57270223E-08   2.16657322E-07  -1.99830806E-10  -3.98235810E-11  -1.22937156E-07  -3.73715701E-08   2.02059460E-07  -1.05362256E-15   3.93284793E-14  -2.30634789E-08  -4.80598557E-08  -4.93190512E-08   4.28897436E-15   5.92930918E-18  -2.26359594E-10  -6.51564135E-15  -6.51270000E-15   6.86963957E-18
   9.62500000E+02   5.00000000E-01   5.00000000E-01  -3.49659821E-07  -6.69771549E-08   2.16380368E-07  -1.99791409E-10  -4.07669240E-11  -1.22937074E-07  -3.78436633E-08   2.02085967E-07   2.77603228E-16   4.48877328E-14  -2.28070214E-08  -4.80600518E-08  -4.93190512E-08   8.57997229E-15   8.66633715E-18  -2.26302551E-10  -6.51564135E-15  -6.51280177E-15   6.70998570E-18
   9.97500000E+02   5.00000000E-01   5.00000000E-01  -3.49659871E-07  -6.83912830E-08   2.16172671E-07  -1.99750554E-10  -4.17216957E-11  -1.22936971E-07  -3.83082035E-08   2.02084169E-07   2.92879509E-15   5.10413259E-14  -2.25378400E-08  -4.80602567E-08  -4.93190512E-08   1.42523753E-14   1.12578317E-17  -2.26241653E-10  -6.51564135E-15  -6.51289310E-15   6.55488280E-18
   1.03250000E+03   5.00000000E-01   5.00000000E-01  -3.49659953E-07  -6.99505708E-08   2.16043148E-07  -1.99708196E-10  -4.26862701E-11  -1.22936842E-07  -3.87861028E-08   2.02063452E-07   7.98429573E-15   5.77998896E-14  -2.22563885E-08  -4.80604740E-08  -4.93190512E-08   2.18057781E-14   1.36934190E-17  -2.26176805E-10  -6.51564135E-15  -6.51297491E-15   6.40398524E-18
   1.06750000E+03   5.00000000E-01   5.00000000E-01  -3.49660080E-07  -7.16374752E-08   2.15999496E-07  -1.99664289E-10  -4.36592115E-11  -1.22936680E-07  -3.92966030E-08   2.02032755E-07   1.73892482E-14   6.51577682E-14  -2.19633031E-08  -4.80606923E-08  -4.93190512E-08   3.19442089E-14   1.59679711E-17  -2.26107929E-10  -6.51564135E-15  -6.51304808E-15   6.25697188E-18
   1.10250000E+03   5.00000000E-01   5.00000000E-01  -3.49660276E-07  -7.34354543E-08   2.16047523E-07  -1.99618785E-10  -4.46391466E-11  -1.22936479E-07  -3.98562027E-08   2.02000126E-07   3.46250147E-14   7.30903721E-14  -2.16593847E-08  -4.80608930E-08  -4.93190512E-08   4.56702982E-14   1.80796382E-17  -2.26034960E-10  -6.51564135E-15  -6.51311343E-15   6.11355354E-18
   1.13750000E+03   5.00000000E-01   5.00000000E-01  -3.49660570E-07  -7.53286001E-08   2.16190753E-07  -1.99571634E-10  -4.56246465E-11  -1.22936229E-07  -4.04779657E-08   2.01972419E-07   6.59027348E-14   8.15519845E-14  -2.13455762E-08  -4.80610713E-08  -4.93190512E-08   6.44278343E-14   2.00283830E-17  -2.25957845E-10  -6.51564135E-15  -6.51317174E-15   5.97347755E-18
   1.17250000E+03   5.00000000E-01   5.00000000E-01  -3.49661003E-07  -7.73013098E-08   2.16430305E-07  -1.99522787E-10  -4.66141446E-11  -1.22935920E-07  -4.11711411E-08   2.01955096E-07   1.22254417E-13   9.04747971E-14  -2.10229395E-08  -4.80612500E-08  -4.93190512E-08   9.03201746E-14   2.18149443E-17  -2.25876536E-10  -6.51564135E-15  -6.51322370E-15   5.83652877E-18
   1.20750000E+03   5.00000000E-01   5.00000000E-01  -3.49661621E-07  -7.93380622E-08   2.16764993E-07  -1.99472190E-10  -4.76059012E-11  -1.22935538E-07  -4.19410350E-08   2.01952123E-07   2.23169655E-13   9.97700698E-14  -2.06926369E-08  -4.80614637E-08  -4.93190512E-08   1.26449118E-13   2.34402631E-17  -2.25790986E-10  -6.51564135E-15  -6.51326998E-15   5.70252721E-18
   1.24250000E+03   5.00000000E-01   5.00000000E-01  -3.49662479E-07  -8.14233148E-08   2.17191534E-07  -1.99419791E-10  -4.85980160E-11  -1.22935069E-07  -4.27890708E-08   2.01965934E-07   4.02910930E-13   1.09332194E-13  -2.03559163E-08  -4.80617016E-08  -4.93190512E-08   1.77447720E-13   2.49052855E-17  -2.25701142E-10  -6.51564135E-15  -6.51331117E-15   5.57132261E-18
   1.27750000E+03   5.00000000E-01   5.00000000E-01  -3.49663635E-07  -8.35410373E-08   2.17704503E-07  -1.99365538E-10  -4.95883741E-11  -1.22934493E-07  -4.37131708E-08   2.01997583E-07   7.21382334E-13   1.19041663E-13  -2.00140890E-08  -4.80618955E-08  -4.93190512E-08   2.50329646E-13   2.62098265E-17  -2.25606939E-10  -6.51564135E-15  -6.51334780E-15   5.44279022E-18
   1.31250000E+03   5.00000000E-01   5.00000000E-01  -3.49665158E-07  -8.56738994E-08   2.18296219E-07  -1.99309378E-10  -5.05745124E-11  -1.22933790E-07  -4.47083498E-08   2.02047000E-07   1.28237719E-12   1.28764644E-13  -1.96685008E-08  -4.80619971E-08  -4.93190512E-08   3.55862054E-13   2.73516906E-17  -2.25508298E-10  -6.51564135E-15  -6.51338037E-15   5.31682971E-18
   1.34750000E+03   5.00000000E-01   5.00000000E-01  -3.49667112E-07  -8.78027684E-08   2.18957049E-07  -1.99251255E-10  -5.15535414E-11  -1.22932933E-07  -4.57671879E-08   2.02113089E-07   2.26335743E-12   1.38354175E-13  -1.93205095E-08  -4.80620516E-08  -4.93190512E-08   5.10816629E-13   2.83275411E-17  -2.25405131E-10  -6.51564135E-15  -6.51340931E-15   5.19336367E-18
   1.38250000E+03   5.00000000E-01   5.00000000E-01  -3.49669520E-07  -8.99061554E-08   2.19675650E-07  -1.99191110E-10  -5.25220540E-11  -1.22931891E-07  -4.68803703E-08   2.02193848E-07   3.96130927E-12   1.47649762E-13  -1.89714677E-08  -4.80623003E-08  -4.93190512E-08   7.41713813E-13   2.91330040E-17  -2.25297333E-10  -6.51564135E-15  -6.51343504E-15   5.07233696E-18
   1.41750000E+03   5.00000000E-01   5.00000000E-01  -3.49672271E-07  -9.19613344E-08   2.20440303E-07  -1.99128884E-10  -5.34763895E-11  -1.22930629E-07  -4.80364869E-08   2.02285913E-07   6.86490338E-12   1.56498845E-13  -1.86227375E-08  -4.80629662E-08  -4.93190512E-08   1.09114962E-12   2.97661896E-17  -2.25184774E-10  -6.51564135E-15  -6.51345789E-15   4.95370627E-18
   1.45250000E+03   5.00000000E-01   5.00000000E-01  -3.49675206E-07  -9.39479336E-08   2.21241682E-07  -1.99064529E-10  -5.44134995E-11  -1.22929102E-07  -4.92208794E-08   2.02383270E-07   1.18016412E-11   1.64824745E-13  -1.82757497E-08  -4.80634635E-08  -4.93190512E-08   1.62868902E-12   3.02321964E-17  -2.25067243E-10  -6.51564135E-15  -6.51347819E-15   4.83740909E-18
   1.48750000E+03   5.00000000E-01   5.00000000E-01  -3.49678356E-07  -9.58397140E-08   2.22066322E-07  -1.98997991E-10  -5.53293740E-11  -1.22927259E-07  -5.04203926E-08   2.02480260E-07   2.01280783E-11   1.72516776E-13  -1.79318977E-08  -4.80635989E-08  -4.93190512E-08   2.46988308E-12   3.05221266E-17  -2.24944530E-10  -6.51564135E-15  -6.51349623E-15   4.72339289E-18
   1.52250000E+03   5.00000000E-01   5.00000000E-01  -3.49681755E-07  -9.76026329E-08   2.22897358E-07  -1.98929196E-10  -5.62184856E-11  -1.22925042E-07  -5.16239710E-08   2.02571369E-07   3.38987136E-11   1.79383170E-13  -1.75924977E-08  -4.80641404E-08  -4.93190512E-08   3.80996356E-12   3.06254143E-17  -2.24816466E-10  -6.51564135E-15  -6.51351226E-15   4.61163980E-18
   1.55750000E+03   5.00000000E-01   5.00000000E-01  -3.49685249E-07  -9.92042287E-08   2.23723798E-07  -1.98858078E-10  -5.70756701E-11  -1.22922378E-07  -5.28179102E-08   2.02646665E-07   5.62352739E-11   1.85316556E-13  -1.72589176E-08  -4.80653656E-08  -4.93190512E-08   5.98471361E-12   3.05482691E-17  -2.24682810E-10  -6.51564135E-15  -6.51352651E-15   4.50212601E-18
   1.59250000E+03   5.00000000E-01   5.00000000E-01  -3.49688811E-07  -1.00616232E-07   2.24543276E-07  -1.98784593E-10  -5.78969992E-11  -1.22919183E-07  -5.39861083E-08   2.02689566E-07   9.23309427E-11   1.90380578E-13  -1.69326970E-08  -4.80662076E-08  -4.93190512E-08   9.58267184E-12   3.03016079E-17  -2.24543183E-10  -6.51564135E-15  -6.51353917E-15   4.39477774E-18
   1.62750000E+03   5.00000000E-01   5.00000000E-01  -3.49692502E-07  -1.01799581E-07   2.25349602E-07  -1.98708680E-10  -5.86769421E-11  -1.22915359E-07  -5.51190805E-08   2.02682163E-07   1.50078814E-10   1.94526558E-13  -1.66155006E-08  -4.80664150E-08  -4.93190512E-08   1.56550732E-11   2.98764913E-17  -2.24397287E-10  -6.51564135E-15  -6.51355043E-15   4.28952055E-18
   1.66250000E+03   5.00000000E-01   5.00000000E-01  -3.49696205E-07  -1.02707600E-07   2.26138998E-07  -1.98630255E-10  -5.94087636E-11  -1.22910791E-07  -5.62115764E-08   2.02602032E-07   2.40552150E-10   1.97633210E-13  -1.63091511E-08  -4.80663289E-08  -4.93190512E-08   2.61158742E-11   2.92714095E-17  -2.24244896E-10  -6.51564135E-15  -6.51356043E-15   4.18629027E-18
   1.69750000E+03   5.00000000E-01   5.00000000E-01  -3.49699899E-07  -1.03293004E-07   2.26922596E-07  -1.98549241E-10  -6.00860986E-11  -1.22905344E-07  -5.72596310E-08   2.02415111E-07   3.79864719E-10   1.99679920E-13  -1.60158258E-08  -4.80661017E-08  -4.93190512E-08   4.45184219E-11   2.84966484E-17  -2.24085766E-10  -6.51564135E-15  -6.51356933E-15   4.08499431E-18
   1.73250000E+03   5.00000000E-01   5.00000000E-01  -3.49703743E-07  -1.03504005E-07   2.27726936E-07  -1.98465558E-10  -6.07025463E-11  -1.22898861E-07  -5.82649949E-08   2.02073303E-07   5.91550459E-10   2.00690800E-13  -1.57382872E-08  -4.80658396E-08  -4.93190512E-08   7.75907409E-11   2.75600867E-17  -2.23919714E-10  -6.51564135E-15  -6.51357725E-15   3.98549610E-18
   1.76750000E+03   5.00000000E-01   5.00000000E-01  -3.49707717E-07  -1.03280214E-07   2.28588289E-07  -1.98379105E-10  -6.12508866E-11  -1.22891164E-07  -5.92384255E-08   2.01516465E-07   9.06924475E-10   2.00630097E-13  -1.54799922E-08  -4.80656475E-08  -4.93190512E-08   1.38326420E-10   2.64679600E-17  -2.23746756E-10  -6.51564135E-15  -6.51358429E-15   3.88762874E-18
   1.80250000E+03   5.00000000E-01   5.00000000E-01  -3.49711681E-07  -1.02555092E-07   2.29555765E-07  -1.98289762E-10  -6.17235580E-11  -1.22882045E-07  -6.01982474E-08   2.00671302E-07   1.36503877E-09   1.99452477E-13  -1.52451397E-08  -4.80655927E-08  -4.93190512E-08   2.52320730E-10   2.52326898E-17  -2.23567124E-10  -6.51564135E-15  -6.51359056E-15   3.79119596E-18
   1.83750000E+03   5.00000000E-01   5.00000000E-01  -3.49715421E-07  -1.01257573E-07   2.30691159E-07  -1.98197396E-10  -6.21130597E-11  -1.22871273E-07  -6.11692095E-08   1.99452463E-07   2.01184652E-09   1.97136938E-13  -1.50386487E-08  -4.80658721E-08  -4.93190512E-08   4.70986824E-10   2.38714193E-17  -2.23381276E-10  -6.51564135E-15  -6.51359614E-15   3.69597232E-18
   1.87250000E+03   5.00000000E-01   5.00000000E-01  -3.49718724E-07  -9.93132453E-08   2.32069234E-07  -1.98101861E-10  -6.24122829E-11  -1.22858586E-07  -6.21820889E-08   1.97762412E-07   2.90012597E-09   1.93704637E-13  -1.48661204E-08  -4.80666042E-08  -4.93190512E-08   8.99601083E-10   2.24043317E-17  -2.23189937E-10  -6.51564135E-15  -6.51360110E-15   3.60170132E-18
   1.90750000E+03   5.00000000E-01   5.00000000E-01  -3.49721638E-07  -9.66424914E-08   2.33804625E-07  -1.98003000E-10  -6.26148297E-11  -1.22843697E-07  -6.32802004E-08   1.95468924E-07   4.10037812E-09   1.89240775E-13  -1.47344466E-08  -4.80673255E-08  -4.93190512E-08   1.75784352E-09   2.08505830E-17  -2.22994279E-10  -6.51564135E-15  -6.51360552E-15   3.50804962E-18
   1.94250000E+03   5.00000000E-01   5.00000000E-01  -3.49724357E-07  -9.31555583E-08   2.36050499E-07  -1.97900626E-10  -6.27146070E-11  -1.22826303E-07  -6.45262184E-08   1.92403856E-07   5.70345393E-09   1.83795835E-13  -1.46521860E-08  -4.80675655E-08  -4.93190512E-08   3.51251250E-09   1.92268550E-17  -2.22796262E-10  -6.51564135E-15  -6.51360945E-15   3.41459451E-18
   1.97750000E+03   5.00000000E-01   5.00000000E-01  -3.49726976E-07  -8.87584838E-08   2.38947485E-07  -1.97794510E-10  -6.27062154E-11  -1.22806093E-07  -6.59927028E-08   1.88405098E-07   7.80097150E-09   1.77346532E-13  -1.46283954E-08  -4.80673765E-08  -4.93190512E-08   7.17237644E-09   1.75536154E-17  -2.22598651E-10  -6.51564135E-15  -6.51361296E-15   3.32089702E-18
   2.01250000E+03   5.00000000E-01   5.00000000E-01  -3.49729512E-07  -8.33691376E-08   2.42569990E-07  -1.97684410E-10  -6.25863333E-11  -1.22782759E-07  -6.77409131E-08   1.83363419E-07   1.04600675E-08   1.69874190E-13  -1.46704389E-08  -4.80669630E-08  -4.93190512E-08   1.49502780E-08   1.58547375E-17  -2.22404723E-10  -6.51564135E-15  -6.51361608E-15   3.22661034E-18
   2.04750000E+03   5.00000000E-01   5.00000000E-01  -3.49731958E-07  -7.69335438E-08   2.46898932E-07  -1.97570104E-10  -6.23550972E-11  -1.22756001E-07  -6.98013541E-08   1.77246644E-07   1.37077465E-08   1.61444633E-13  -1.47819484E-08  -4.80664606E-08  -4.93190512E-08   3.17571033E-08   1.41479282E-17  -2.22218046E-10  -6.51564135E-15  -6.51361886E-15   3.13156865E-18
   2.08250000E+03   5.00000000E-01   5.00000000E-01  -3.49734301E-07  -6.94382463E-08   2.51837515E-07  -1.97451409E-10  -6.20171984E-11  -1.22725573E-07  -7.21662090E-08   1.70081757E-07   1.75361977E-08   1.52231202E-13  -1.49619814E-08  -4.80659360E-08  -4.93190512E-08   6.85491452E-08   1.24300358E-17  -2.22042986E-10  -6.51564135E-15  -6.51362135E-15   3.03581594E-18
   2.11750000E+03   5.00000000E-01   5.00000000E-01  -3.49736523E-07  -6.09313117E-08   2.57212748E-07  -1.97328204E-10  -6.15837579E-11  -1.22691405E-07  -7.47833502E-08   1.61934581E-07   2.19110871E-08   1.42489290E-13  -1.52044172E-08  -4.80654207E-08  -4.93190512E-08   1.49586247E-07   1.06606639E-17  -2.21886362E-10  -6.51564135E-15  -6.51362358E-15   2.93963678E-18
   2.15250000E+03   5.00000000E-01   5.00000000E-01  -3.49738610E-07  -5.15728991E-08   2.62765561E-07  -1.97200457E-10  -6.10771425E-11  -1.22653916E-07  -7.75432343E-08   1.52875279E-07   2.67860115E-08   1.32538630E-13  -1.54969177E-08  -4.80649301E-08  -4.93190512E-08   3.26726674E-07   8.73647196E-18  -2.21761208E-10  -6.51564135E-15  -6.51362559E-15   2.84363284E-18
   2.18750000E+03   5.00000000E-01   5.00000000E-01  -3.49740553E-07  -4.17451724E-08   2.68165127E-07  -1.97068282E-10  -6.05420570E-11  -1.22614743E-07  -8.02597977E-08   1.42895294E-07   3.21377235E-08   1.22761584E-13  -1.58195760E-08  -4.80644729E-08  -4.93190512E-08   7.00392791E-07   6.44967640E-18  -2.21694064E-10  -6.51564135E-15  -6.51362742E-15   2.74884734E-18
   2.22250000E+03   5.00000000E-01   5.00000000E-01  -3.49742354E-07  -3.22308263E-08   2.73137819E-07  -1.96931955E-10  -6.00646821E-11  -1.22578029E-07  -8.26724398E-08   1.31774446E-07   3.80230662E-08   1.13580666E-13  -1.61455086E-08  -4.80640531E-08  -4.93190512E-08   1.41979233E-06   3.44441869E-18  -2.21734496E-10  -6.51564135E-15  -6.51362910E-15   2.65680909E-18
   2.25750000E+03   5.00000000E-01   5.00000000E-01  -3.49744019E-07  -2.42574022E-08   2.77952007E-07  -1.96791711E-10  -5.97809764E-11  -1.22551372E-07  -8.45787500E-08   1.19034168E-07   4.46007865E-08   1.05299019E-13  -1.64528056E-08  -4.80636722E-08  -4.93190512E-08   2.56157826E-06  -7.53428368E-19  -2.21952245E-10  -6.51564135E-15  -6.51363069E-15   2.56890494E-18
   2.29250000E+03   5.00000000E-01   5.00000000E-01  -3.49745551E-07  -1.87864963E-08   2.84201359E-07  -1.96647023E-10  -5.98096229E-11  -1.22543013E-07  -8.62096659E-08   1.04379216E-07   5.19529593E-08   9.77121371E-14  -1.67574623E-08  -4.80633295E-08  -4.93190512E-08   3.82519960E-06  -6.44886733E-18  -2.22390404E-10  -6.51564135E-15  -6.51363219E-15   2.48435619E-18
   2.32750000E+03   5.00000000E-01   5.00000000E-01  -3.49746935E-07  -1.51155143E-08   2.94116111E-07  -1.96496158E-10  -6.01012827E-11  -1.22553950E-07  -8.84034118E-08   8.86591413E-08   5.97096278E-08   8.99835125E-14  -1.71280635E-08  -4.80630222E-08  -4.93190512E-08   4.51641290E-06  -1.30849570E-17  -2.22991001E-10  -6.51564135E-15  -6.51363359E-15   2.39892389E-18
   2.36250000E+03   5.00000000E-01   5.00000000E-01  -3.49748151E-07  -1.09649774E-08   3.07340236E-07  -1.96337596E-10  -6.04196271E-11  -1.22574813E-07  -9.18417581E-08   7.39333108E-08   6.70635760E-08   8.14737197E-14  -1.76176592E-08  -4.80627465E-08  -4.93190512E-08   4.28006847E-06  -1.86027893E-17  -2.23609594E-10  -6.51564135E-15  -6.51363485E-15   2.30848305E-18
   2.39750000E+03   5.00000000E-01   5.00000000E-01  -3.49749198E-07  -4.47356542E-09   3.20202423E-07  -1.96171664E-10  -6.05395470E-11  -1.22593709E-07  -9.62748490E-08   6.19695364E-08   7.33599896E-08   7.24737405E-14  -1.81974760E-08  -4.80624980E-08  -4.93190512E-08   3.46577850E-06  -2.01790573E-17  -2.24126612E-10  -6.51564135E-15  -6.51363595E-15   2.21340694E-18
   2.43250000E+03   5.00000000E-01   5.00000000E-01  -3.49750100E-07   4.75092708E-09   3.29381591E-07  -1.95999873E-10  -6.03829268E-11  -1.22603355E-07  -1.00895633E-07   5.31754896E-08   7.84352179E-08   6.37473514E-14  -1.87943376E-08  -4.80622721E-08  -4.93190512E-08   2.56520544E-06  -1.64700533E-17  -2.24502291E-10  -6.51564135E-15  -6.51363691E-15   2.11742029E-18
   2.46750000E+03   5.00000000E-01   5.00000000E-01  -3.49750886E-07   1.61019032E-08   3.34064680E-07  -1.95823565E-10  -5.99897157E-11  -1.22601148E-07  -1.05013010E-07   4.69482013E-08   8.24567318E-08   5.58604249E-14  -1.93501619E-08  -4.80620642E-08  -4.93190512E-08   1.81980141E-06  -8.97158122E-18  -2.24749242E-10  -6.51564135E-15  -6.51363776E-15   2.02428267E-18
   2.50250000E+03   5.00000000E-01   5.00000000E-01  -3.49751583E-07   2.86400288E-08   3.35119667E-07  -1.95643471E-10  -5.94480966E-11  -1.22586896E-07  -1.08264385E-07   4.24128426E-08   8.56837311E-08   4.90324527E-14  -1.98374776E-08  -4.80618700E-08  -4.93190512E-08   1.27571060E-06  -8.93071838E-19  -2.24896657E-10  -6.51564135E-15  -6.51363854E-15   1.93632622E-18
   2.53750000E+03   5.00000000E-01   5.00000000E-01  -3.49752213E-07   4.14839765E-08   3.33829528E-07  -1.95459827E-10  -5.88469093E-11  -1.22561184E-07  -1.10543589E-07   3.88707963E-08   8.83275761E-08   4.32558028E-14  -2.02509033E-08  -4.80616856E-08  -4.93190512E-08   9.02538011E-07   5.23174732E-18  -2.24972552E-10  -6.51564135E-15  -6.51363926E-15   1.85449948E-18
   2.57250000E+03   5.00000000E-01   5.00000000E-01  -3.49752793E-07   5.39838951E-08   3.31226207E-07  -1.95272604E-10  -5.82527859E-11  -1.22524489E-07  -1.11880693E-07   3.59402026E-08   9.05020602E-08   3.84195971E-14  -2.05960254E-08  -4.80615077E-08  -4.93190512E-08   6.52564805E-07   8.67961843E-18  -2.24998063E-10  -6.51564135E-15  -6.51363993E-15   1.77885207E-18
   2.60750000E+03   5.00000000E-01   5.00000000E-01  -3.49753341E-07   6.57462323E-08   3.27919943E-07  -1.95081681E-10  -5.77054997E-11  -1.22476797E-07  -1.12350997E-07   3.35014218E-08   9.22383626E-08   3.43842811E-14  -2.08816458E-08  -4.80613338E-08  -4.93190512E-08   4.84139739E-07   9.94721467E-18  -2.24987254E-10  -6.51564135E-15  -6.51364056E-15   1.70900607E-18
   2.64250000E+03   5.00000000E-01   5.00000000E-01  -3.49753874E-07   7.65824835E-08   3.24190254E-07  -1.94886942E-10  -5.72229212E-11  -1.22417512E-07  -1.12027761E-07   3.15691350E-08   9.35275440E-08   3.10165045E-14  -2.11160473E-08  -4.80611620E-08  -4.93190512E-08   3.67844200E-07   9.83485443E-18  -2.24948819E-10  -6.51564135E-15  -6.51364115E-15   1.64445890E-18
   2.67750000E+03   5.00000000E-01   5.00000000E-01  -3.49754414E-07   8.64387596E-08   3.20145464E-07  -1.94688282E-10  -5.68088582E-11  -1.22345523E-07  -1.10969547E-07   3.01806486E-08   9.43592569E-08   2.81999440E-14  -2.13060953E-08  -4.80609917E-08  -4.93190512E-08   2.85168988E-07   8.99188257E-18  -2.24887988E-10  -6.51564135E-15  -6.51364171E-15   1.58471201E-18
   2.71250000E+03   5.00000000E-01   5.00000000E-01  -3.49754983E-07   9.53338643E-08   3.15832970E-07  -1.94485595E-10  -5.64601241E-11  -1.22259303E-07  -1.09223116E-07   2.93462561E-08   9.47381050E-08   2.58365742E-14  -2.14575074E-08  -4.80608234E-08  -4.93190512E-08   2.25117338E-07   7.83876587E-18  -2.24808010E-10  -6.51564135E-15  -6.51364222E-15   1.52930110E-18