 TITLE = "Mineral Rate (mol/m^3/sec)" 
VARIABLES = "X"          "Y"              "Z"            "Forsterite"     "Enstatite(alph" "Anorthite"      "Ferropargasite" "Anhydrite"      "Clinochlore"    "Albite(low)"    "Fayalite"       "Epidote"        "Kaolinite"      "Muscovite(orde"
 ZONE I=          10 , J=           1 , K=           1  F=POINT
   1.75000000E+02   5.00000000E-01   5.00000000E-01  -9.98346013E-09   1.51451887E-09  -9.75012388E-10  -9.99302876E-10   1.47581438E-09   4.85302609E-09  -4.75811859E-09   2.00824794E-09   1.49356083E-18   0.00000000E+00   0.00000000E+00
   5.25000000E+02   5.00000000E-01   5.00000000E-01  -9.98066902E-09   9.88175654E-10  -9.75012388E-10  -9.99302876E-10   1.71794285E-09   4.97035652E-09  -4.99277964E-09   2.01752202E-09   4.19007051E-18   0.00000000E+00   0.00000000E+00
   8.75000000E+02   5.00000000E-01   5.00000000E-01  -9.97834129E-09   5.71709980E-10  -9.75012388E-10  -9.99302876E-10   1.73082630E-09   5.05130547E-09  -5.15467755E-09   2.03404991E-09   1.02190256E-17   0.00000000E+00   0.00000000E+00
   1.22500000E+03   5.00000000E-01   5.00000000E-01  -9.97585611E-09   2.73674344E-10  -9.75012388E-10  -9.99302876E-10   1.78075874E-09   5.10293252E-09  -5.25793168E-09   2.06362057E-09   2.26243912E-17   0.00000000E+00   0.00000000E+00
   1.57500000E+03   5.00000000E-01   5.00000000E-01  -9.97315939E-09   5.68333804E-11  -9.75012388E-10  -9.99302876E-10   1.84213880E-09   5.13658517E-09  -5.32523703E-09   2.11889891E-09   4.72155648E-17   0.00000000E+00   0.00000000E+00
   1.92500000E+03   5.00000000E-01   5.00000000E-01  -9.97017240E-09  -1.02813854E-10  -9.75012388E-10  -9.99302876E-10   1.91318013E-09   5.13386354E-09  -5.31979387E-09   2.22398644E-09   9.39149203E-17   0.00000000E+00   0.00000000E+00
   2.27500000E+03   5.00000000E-01   5.00000000E-01  -9.96633120E-09  -2.14265237E-10  -9.75012388E-10  -9.99302876E-10   1.99072752E-09   5.07043111E-09  -5.19292914E-09   2.41353838E-09   1.74425452E-16   0.00000000E+00   0.00000000E+00
   2.62500000E+03   5.00000000E-01   5.00000000E-01  -9.96044566E-09  -2.80675317E-10  -9.75012388E-10  -9.99302876E-10   2.06915970E-09   4.93349530E-09  -4.91905768E-09   2.71207207E-09   2.88174817E-16   0.00000000E+00   0.00000000E+00
   2.97500000E+03   5.00000000E-01   5.00000000E-01  -9.95049319E-09  -3.03712785E-10  -9.75012388E-10  -9.99302876E-10   2.13997944E-09   4.73747667E-09  -4.52702045E-09   3.08956735E-09   3.94780209E-16   0.00000000E+00   0.00000000E+00
   3.32500000E+03   5.00000000E-01   5.00000000E-01  -9.93324012E-09  -2.85683061E-10  -9.75012388E-10  -9.99302876E-10   2.19173472E-09   4.52322660E-09  -4.09851998E-09   3.46060018E-09   4.17465795E-16   0.00000000E+00   0.00000000E+00
