 TITLE = "Mineral Rate (mol/m^3/sec)" 
VARIABLES = "X"          "Y"              "Z"            "Forsterite"     "Fayalite"       "Brucite"        "Lizardite"      "Chrysotile"     "Saponite(Mg)"   "Enstatite(alph" "Ferrosilite(al" "Anorthite"      "Albite(low)"    "Clinochlore"    "Sudoite"        "Montmorillonit" "Kaolinite"      "Tremolite"      "Pargasite"      "Anhydrite"      "Epidote"        "Scolecite"      "Pyrite"         "FeS(am)"        "Quartz(alpha)" 
 ZONE I=         100 , J=           1 , K=           1  F=POINT
   1.75000000E+01   5.00000000E-01   5.00000000E-01  -1.11331179E-06  -2.91953913E-07  -4.21472988E-15  -1.86901427E-17  -1.85732246E-17   0.00000000E+00  -1.98876324E-10   7.92461821E-12  -6.68630345E-07  -1.86836963E-07   8.32460765E-07  -5.94332606E-13  -1.19018584E-13  -6.02253713E-12  -4.09606957E-08  -4.67754897E-08  -2.20069913E-15  -2.20468435E-15  -2.24630642E-10  -4.01571444E-15  -4.56796287E-15   4.72880303E-17
   5.25000000E+01   5.00000000E-01   5.00000000E-01  -1.11331177E-06  -1.28587863E-07  -4.21473807E-15  -2.14319653E-17  -2.06769533E-17   0.00000000E+00  -1.98459628E-10   1.32846297E-10  -6.68630345E-07   2.41658731E-08   7.26944626E-07  -1.71683755E-13  -3.80127906E-12  -5.85473887E-12  -2.56044931E-08  -4.67754897E-08  -2.19609378E-15   6.60125467E-16  -2.24630363E-10  -4.01571444E-15  -4.56798971E-15   6.63445087E-17
   8.75000000E+01   5.00000000E-01   5.00000000E-01  -1.11331172E-06  -5.06101564E-08  -4.21473872E-15  -2.15436247E-17  -2.07828228E-17   0.00000000E+00  -1.98192323E-10   1.82790384E-10  -6.68630346E-07   1.45876427E-07   6.66221062E-07  -1.64111328E-13  -1.62307065E-10  -6.02137644E-12  -1.23662500E-08  -4.67754897E-08  -2.19068386E-15   1.47324648E-16  -2.24630297E-10  -4.01571444E-15  -4.56814409E-15   7.20812036E-17
   1.22500000E+02   5.00000000E-01   5.00000000E-01  -1.11331167E-06  -2.29243362E-08  -4.21473750E-15  -2.04012473E-17  -1.99086408E-17   0.00000000E+00  -1.97993332E-10   1.97803892E-10  -6.68630348E-07   2.00518011E-07   6.42286351E-07  -2.12004767E-13  -4.24145872E-09  -6.30906040E-12  -6.41429613E-09  -4.67754897E-08  -2.18394703E-15   4.67411109E-17  -2.24630346E-10  -4.01571444E-15  -4.56830247E-15   7.27498728E-17
   1.57500000E+02   5.00000000E-01   5.00000000E-01  -1.11331163E-06  -2.24271722E-08  -4.21473766E-15  -1.98221580E-17  -1.94102791E-17   0.00000000E+00  -1.97876999E-10   1.99314328E-10  -6.68630350E-07   2.78536082E-07   6.44970080E-07  -3.16463942E-13  -5.44730010E-08  -6.68287976E-12  -9.92395206E-09  -4.67754897E-08  -2.17496427E-15   8.06916312E-17  -2.24630153E-10  -4.01571444E-15  -4.56844125E-15   7.26079523E-17
   1.92500000E+02   5.00000000E-01   5.00000000E-01  -1.11331164E-06  -4.50230165E-08  -4.21474242E-15  -2.08301538E-17  -2.01163080E-17   0.00000000E+00  -1.97929853E-10   1.92974691E-10  -6.68630353E-07   4.90069247E-07   6.70674047E-07  -5.19925038E-13  -2.12870224E-07  -7.12928204E-12  -2.44101399E-08  -4.67754897E-08  -2.16237685E-15   2.03045470E-16  -2.24628649E-10  -4.01571444E-15  -4.56855570E-15   7.32364966E-17
   2.27500000E+02   5.00000000E-01   5.00000000E-01  -1.11331160E-06  -3.81214159E-08  -4.21474447E-15  -2.12461061E-17  -2.04343289E-17   0.00000000E+00  -1.97855529E-10   1.95706786E-10  -6.68630357E-07   5.96104586E-07   6.68883432E-07  -8.95352935E-13  -2.74588050E-07  -7.63379639E-12  -2.83423749E-08  -4.67754897E-08  -2.14595078E-15   7.63849205E-17  -2.24627330E-10  -4.01571444E-15  -4.56862239E-15   7.25008206E-17
   2.62500000E+02   5.00000000E-01   5.00000000E-01  -1.11331153E-06  -2.32959538E-08  -4.21474443E-15  -2.13204248E-17  -2.05083832E-17   0.00000000E+00  -1.97687330E-10   1.99382621E-10  -6.68630362E-07   6.00829051E-07   6.61505147E-07  -1.54870851E-12  -2.68542371E-07  -8.18369663E-12  -2.81388691E-08  -4.67754897E-08  -2.12496664E-15   3.66863229E-18  -2.24626769E-10  -4.01571444E-15  -4.56867582E-15   7.08731247E-17
   2.97500000E+02   5.00000000E-01   5.00000000E-01  -1.11331144E-06  -1.42253936E-08  -4.21474376E-15  -2.13582390E-17  -2.05577672E-17   0.00000000E+00  -1.97490056E-10   1.99620212E-10  -6.68630370E-07   5.75204103E-07   6.57376608E-07  -2.62981632E-12  -2.48128194E-07  -8.76751715E-12  -2.71665230E-08  -4.67754897E-08  -2.09826115E-15  -1.45616066E-17  -2.24626490E-10  -4.01571444E-15  -4.56872755E-15   6.89384853E-17
   3.32500000E+02   5.00000000E-01   5.00000000E-01  -1.11331133E-06  -9.47820591E-09  -4.21474281E-15  -2.14070822E-17  -2.06172022E-17   0.00000000E+00  -1.97275896E-10   1.97721206E-10  -6.68630381E-07   5.40954725E-07   6.55294450E-07  -4.34818369E-12  -2.24982533E-07  -9.37148980E-12  -2.59196442E-08  -4.67754897E-08  -2.06427375E-15  -1.97398054E-17  -2.24626327E-10  -4.01571444E-15  -4.56877403E-15   6.69383102E-17
   3.67500000E+02   5.00000000E-01   5.00000000E-01  -1.11331119E-06  -7.04182334E-09  -4.21474166E-15  -2.14755573E-17  -2.06932013E-17   0.00000000E+00  -1.97048043E-10   1.94767543E-10  -6.68630396E-07   5.04889809E-07   6.54166684E-07  -6.98656745E-12  -2.01890816E-07  -9.98136260E-12  -2.45187104E-08  -4.67754897E-08  -2.02094726E-15  -2.05527220E-17  -2.24626215E-10  -4.01571444E-15  -4.56881310E-15   6.49527292E-17
   4.02500000E+02   5.00000000E-01   5.00000000E-01  -1.11331103E-06  -5.78618056E-09  -4.21474034E-15  -2.15564260E-17  -2.07800440E-17   0.00000000E+00  -1.96808226E-10   1.91296350E-10  -6.68630416E-07   4.69414651E-07   6.53471454E-07  -1.08948128E-11  -1.79672437E-07  -1.05911861E-11  -2.30341882E-08  -4.67754897E-08  -1.96556878E-15  -1.92588528E-17  -2.24626127E-10  -4.01571444E-15  -4.56884440E-15   6.30035035E-17
   4.37500000E+02   5.00000000E-01   5.00000000E-01  -1.11331083E-06  -5.14415156E-09  -4.21473886E-15  -2.16317668E-17  -2.08632332E-17   0.00000000E+00  -1.96557729E-10   1.87556497E-10  -6.68630442E-07   4.35433359E-07   6.52992033E-07  -1.64856698E-11  -1.58609923E-07  -1.12032366E-11  -2.15228903E-08  -4.67754897E-08  -1.89454669E-15  -1.66813647E-17  -2.24626048E-10  -4.01571444E-15  -4.56886851E-15   6.10945913E-17
   4.72500000E+02   5.00000000E-01   5.00000000E-01  -1.11331060E-06  -4.82824456E-09  -4.21473723E-15  -2.16924892E-17  -2.09351270E-17   0.00000000E+00  -1.96297541E-10   1.83668601E-10  -6.68630476E-07   4.03279761E-07   6.52643186E-07  -2.42146963E-11  -1.38800580E-07  -1.18197393E-11  -2.00298014E-08  -4.67754897E-08  -1.80310002E-15  -1.32213019E-17  -2.24625967E-10  -4.01571444E-15  -4.56888635E-15   5.92260239E-17
   5.07500000E+02   5.00000000E-01   5.00000000E-01  -1.11331033E-06  -4.68636421E-09  -4.21473545E-15  -2.17408517E-17  -2.09972852E-17   0.00000000E+00  -1.96028403E-10   1.79697166E-10  -6.68630521E-07   3.73051603E-07   6.52389948E-07  -3.46300904E-11  -1.20259840E-07  -1.24407412E-11  -1.85878839E-08  -4.67754897E-08  -1.68482341E-15  -9.12528090E-18  -2.24625878E-10  -4.01571444E-15  -4.56889894E-15   5.73978615E-17
   5.42500000E+02   5.00000000E-01   5.00000000E-01  -1.11331002E-06  -4.63488309E-09  -4.21473353E-15  -2.17836025E-17  -2.10550973E-17   0.00000000E+00  -1.95750867E-10   1.75680668E-10  -6.68630580E-07   3.44741019E-07   6.52213517E-07  -4.84166008E-11  -1.02958666E-07  -1.30602310E-11  -1.72192107E-08  -4.67754897E-08  -1.53107205E-15  -4.57353553E-18  -2.24625774E-10  -4.01571444E-15  -4.56890726E-15   5.56108400E-17
   5.77500000E+02   5.00000000E-01   5.00000000E-01  -1.11330965E-06  -4.62700703E-09  -4.21473148E-15  -2.18292832E-17  -2.11156512E-17   0.00000000E+00  -1.95465348E-10   1.71644148E-10  -6.68630658E-07   3.18289094E-07   6.52098038E-07  -6.63863429E-11  -8.68405175E-08  -1.36652732E-11  -1.59369289E-08  -4.67754897E-08  -1.33008316E-15   2.85301347E-19  -2.24625648E-10  -4.01571444E-15  -4.56891218E-15   5.38661155E-17
   6.12500000E+02   5.00000000E-01   5.00000000E-01  -1.11330923E-06  -4.63687123E-09  -4.21472931E-15  -2.18881897E-17  -2.11877479E-17   0.00000000E+00  -1.95172173E-10   1.67604803E-10  -6.68630757E-07   2.93611081E-07   6.52026325E-07  -8.94793429E-11  -7.18313791E-08  -1.42452493E-11  -1.47474291E-08  -4.67754897E-08  -1.06570702E-15   5.31939753E-18  -2.24625493E-10  -4.01571444E-15  -4.56891446E-15   5.21649023E-17
   6.47500000E+02   5.00000000E-01   5.00000000E-01  -1.11330874E-06  -4.65088227E-09  -4.21472703E-15  -2.19731641E-17  -2.12826225E-17   0.00000000E+00  -1.94871622E-10   1.63574762E-10  -6.68630887E-07   2.70609586E-07   6.51979228E-07  -1.18667726E-10  -5.78471536E-08  -1.48022827E-11  -1.36523063E-08  -4.67754897E-08  -7.15552832E-16   1.04074502E-17  -2.24625311E-10  -4.01571444E-15  -4.56891471E-15   5.05082185E-17
   6.82500000E+02   5.00000000E-01   5.00000000E-01  -1.11330818E-06  -4.66267341E-09  -4.21472468E-15  -2.21005025E-17  -2.14147878E-17   0.00000000E+00  -1.94563950E-10   1.59562679E-10  -6.68631054E-07   2.49182817E-07   6.51936437E-07  -1.54973097E-10  -4.47995648E-08  -1.53475594E-11  -1.26499538E-08  -4.67754897E-08  -2.48246320E-16   1.54363621E-17  -2.24625107E-10  -4.01571444E-15  -4.56891347E-15   4.88967537E-17
   7.17500000E+02   5.00000000E-01   5.00000000E-01  -1.11330754E-06  -4.67004510E-09  -4.21472227E-15  -2.22909273E-17  -2.16029581E-17   0.00000000E+00  -1.94249415E-10   1.55574717E-10  -6.68631271E-07   2.29229909E-07   6.51877869E-07  -1.99757585E-10  -3.26003501E-08  -1.58889683E-11  -1.17367921E-08  -4.67754897E-08   3.80680544E-16   2.03013124E-17  -2.24624887E-10  -4.01571444E-15  -4.56891117E-15   4.73308185E-17
   7.52500000E+02   5.00000000E-01   5.00000000E-01  -1.11330681E-06  -4.67292046E-09  -4.21471986E-15  -2.25715917E-17  -2.18718904E-17   0.00000000E+00  -1.93928281E-10   1.51615297E-10  -6.68631551E-07   2.10653024E-07   6.51784906E-07  -2.54625500E-10  -2.11642506E-08  -1.64291900E-11  -1.09080690E-08  -4.67754897E-08   1.23503805E-15   2.49065601E-17  -2.24624660E-10  -4.01571444E-15  -4.56890816E-15   4.58103613E-17
   7.87500000E+02   5.00000000E-01   5.00000000E-01  -1.11330598E-06  -4.67210284E-09  -4.21471750E-15  -2.29790212E-17  -2.22550915E-17   0.00000000E+00  -1.93600836E-10   1.47687601E-10  -6.68631916E-07   1.93358835E-07   6.51641591E-07  -3.21640645E-10  -1.04108239E-08  -1.69691206E-11  -1.01584110E-08  -4.67754897E-08   2.40762166E-15   2.91672644E-17  -2.24624438E-10  -4.01571444E-15  -4.56890470E-15   4.43350110E-17
   8.22500000E+02   5.00000000E-01   5.00000000E-01  -1.11330504E-06  -4.66845361E-09  -4.21471527E-15  -2.35639274E-17  -2.27992320E-17   0.00000000E+00  -1.93267391E-10   1.43793959E-10  -6.68632391E-07   1.77259479E-07   6.51435461E-07  -4.03322655E-10  -2.66023320E-10  -1.75080130E-11  -9.48215191E-09  -4.67754897E-08   4.03533291E-15   3.30112278E-17  -2.24624236E-10  -4.01571444E-15  -4.56890100E-15   4.29041309E-17
   8.57500000E+02   5.00000000E-01   5.00000000E-01  -1.11330399E-06  -4.66241539E-09  -4.21471327E-15  -2.43987773E-17  -2.35710858E-17   0.00000000E+00  -1.92928284E-10   1.39936090E-10  -6.68633011E-07   1.62273240E-07   6.51158198E-07  -5.02970735E-10   9.33739097E-09  -1.80431696E-11  -8.87357589E-09  -4.67754897E-08   6.32329870E-15   3.63802752E-17  -2.24624077E-10  -4.01571444E-15  -4.56889722E-15   4.15168664E-17
   8.92500000E+02   5.00000000E-01   5.00000000E-01  -1.11330281E-06  -4.65366731E-09  -4.21471164E-15  -2.55903152E-17  -2.46689892E-17   0.00000000E+00  -1.92583890E-10   1.36115288E-10  -6.68633824E-07   1.48324798E-07   6.50805819E-07  -6.24702365E-10   1.84595624E-08  -1.85691234E-11  -8.32705803E-09  -4.67754897E-08   9.58404971E-15   3.92311005E-17  -2.24623997E-10  -4.01571444E-15  -4.56889345E-15   4.01721878E-17
   9.27500000E+02   5.00000000E-01   5.00000000E-01  -1.11330150E-06  -4.64099804E-09  -4.21471056E-15  -2.73002641E-17  -2.62417632E-17   0.00000000E+00  -1.92234622E-10   1.32332476E-10  -6.68634898E-07   1.35345351E-07   6.50378855E-07  -7.74091346E-10   2.71548014E-08  -1.90783026E-11  -7.83726112E-09  -4.67754897E-08   1.43024090E-14   4.15355238E-17  -2.24624046E-10  -4.01571444E-15  -4.56888978E-15   3.88689161E-17
   9.62500000E+02   5.00000000E-01   5.00000000E-01  -1.11330005E-06  -4.62220481E-09  -4.21471026E-15  -2.97807771E-17  -2.85210637E-17   0.00000000E+00  -1.91880943E-10   1.28588225E-10  -6.68636329E-07   1.23272507E-07   6.49882195E-07  -9.58566405E-10   3.54728100E-08  -1.95624386E-11  -7.39933165E-09  -4.67754897E-08   2.12452160E-14   4.32799430E-17  -2.24624303E-10  -4.01571444E-15  -4.56888624E-15   3.76057399E-17
   9.97500000E+02   5.00000000E-01   5.00000000E-01  -1.11329848E-06  -4.59395270E-09  -4.21471104E-15  -3.34362836E-17  -3.18777513E-17   0.00000000E+00  -1.91523376E-10   1.24882796E-10  -6.68638259E-07   1.12050132E-07   6.49324504E-07  -1.18738962E-09   4.34594461E-08  -2.00152337E-11  -7.00903381E-09  -4.67754897E-08   3.16510276E-14   4.44642568E-17  -2.24624895E-10  -4.01571444E-15  -4.56888287E-15   3.63812327E-17
   1.03250000E+03   5.00000000E-01   5.00000000E-01  -1.11329678E-06  -4.55175580E-09  -4.21471331E-15  -3.89323782E-17  -3.69211226E-17   0.00000000E+00  -1.91162516E-10   1.21216086E-10  -6.68640909E-07   1.01628340E-07   6.48717780E-07  -1.47222714E-09   5.11586829E-08  -2.04366120E-11  -6.66296233E-09  -4.67754897E-08   4.75659542E-14   4.51003754E-17  -2.24626034E-10  -4.01571444E-15  -4.56887965E-15   3.51938596E-17
   1.06750000E+03   5.00000000E-01   5.00000000E-01  -1.11329499E-06  -4.49011930E-09  -4.21471755E-15  -4.73871043E-17  -4.46735190E-17   0.00000000E+00  -1.90799059E-10   1.17587461E-10  -6.68644642E-07   9.19638144E-08   6.48077433E-07  -1.82868277E-09   5.86160912E-08  -2.08302342E-11  -6.35897160E-09  -4.67754897E-08   7.24534979E-14   4.52108323E-17  -2.24628089E-10  -4.01571444E-15  -4.56887656E-15   3.40419622E-17
   1.10250000E+03   5.00000000E-01   5.00000000E-01  -1.11329313E-06  -4.40284210E-09  -4.21472435E-15  -6.06949248E-17  -5.68676059E-17   0.00000000E+00  -1.90433845E-10   1.13995322E-10  -6.68650103E-07   8.30204430E-08   6.47423707E-07  -2.27922053E-09   6.58839480E-08  -2.11989036E-11  -6.09724438E-09  -4.67754897E-08   1.12332442E-13   4.48271889E-17  -2.24631738E-10  -4.01571444E-15  -4.56887357E-15   3.29236953E-17
   1.13750000E+03   5.00000000E-01   5.00000000E-01  -1.11331357E-06  -4.13957775E-07  -4.21485424E-15  -7.95366487E-17  -7.41754174E-17   2.63038243E-06  -1.99496119E-10  -1.27549978E-10  -6.68653001E-07  -1.60090545E-07  -9.01339117E-07  -6.81315447E-09   1.55049320E-06  -2.52834890E-11  -4.56498715E-08  -4.67754897E-08   1.77353857E-13   3.55209240E-16  -2.23768436E-10  -4.01571444E-15  -4.56888401E-15   4.67715295E-18
   1.17250000E+03   5.00000000E-01   5.00000000E-01  -1.11331285E-06  -2.51202426E-07  -4.21484658E-15  -1.13316968E-16  -1.05167318E-16   0.00000000E+00  -1.98523807E-10  -6.66414534E-11  -6.68670982E-07  -1.25626677E-07   8.19877430E-07  -4.27904031E-09  -1.13533518E-08  -2.33613693E-11  -4.56489982E-08  -4.67754897E-08   2.87781958E-13  -3.53310730E-18  -2.24213874E-10  -4.01571444E-15  -4.56883825E-15   7.86633509E-18
   1.20750000E+03   5.00000000E-01   5.00000000E-01  -1.11331236E-06  -8.57213767E-08  -4.21485516E-15  -1.65720094E-16  -1.53419436E-16   0.00000000E+00  -1.97710345E-10  -1.88979233E-11  -6.68702123E-07  -1.02230316E-07   7.48553442E-07  -5.13728907E-09   6.25897029E-08  -2.32403257E-11  -4.56474600E-08  -4.67754897E-08   4.82064525E-13   8.44103975E-18  -2.24355328E-10  -4.01571444E-15  -4.56881871E-15   9.87042174E-18
   1.24250000E+03   5.00000000E-01   5.00000000E-01  -1.11331219E-06   1.71928699E-08  -4.21487416E-15  -2.38040330E-16  -2.20582514E-16   0.00000000E+00  -1.97019042E-10   9.51535310E-12  -6.68805922E-07  -8.83058239E-08   7.02877890E-07  -6.87782961E-09   1.13551553E-07  -2.33693647E-11  -4.56428790E-08  -4.67754897E-08   8.35570024E-13   1.01802199E-17  -2.24510526E-10  -4.01571444E-15  -4.56881282E-15   1.11261576E-17
   1.27750000E+03   5.00000000E-01   5.00000000E-01  -1.11331223E-06   6.23620967E-08  -4.21490352E-15  -3.12731453E-16  -2.91323604E-16   0.00000000E+00  -1.96404627E-10   2.40372681E-11  -6.69917884E-07  -8.10753898E-08   6.83205951E-07  -1.11482888E-08   1.44528378E-07  -2.35950269E-11  -4.56328023E-08  -4.67754897E-08   1.50198184E-12   1.08886345E-17  -2.25493318E-10  -4.01571444E-15  -4.56881015E-15   1.19444177E-17
   1.31250000E+03   5.00000000E-01   5.00000000E-01  -1.11331234E-06   7.46533536E-08  -4.21495240E-15  -3.49183853E-16  -3.28416603E-16   0.00000000E+00  -1.95848785E-10   3.06141797E-11  -6.85275475E-07  -7.64646539E-08   6.78892467E-07  -1.26251996E-08   1.69017996E-07  -2.31549745E-11  -4.56232623E-08  -4.67754897E-08   2.80432222E-12   1.21646484E-17  -2.32810215E-10  -4.01571444E-15  -4.56880923E-15   1.24746230E-17
   1.34750000E+03   5.00000000E-01   5.00000000E-01  -1.11331232E-06   7.49427092E-08  -4.21504361E-15  -3.26588472E-16  -3.11047613E-16   0.00000000E+00  -1.95320403E-10   3.37246933E-11  -7.12007918E-07  -6.92955406E-08   6.80309658E-07  -8.09798111E-09   1.84296823E-07  -2.22035182E-11  -4.60802390E-08  -4.67754897E-08   5.43785739E-12   1.29227810E-17  -2.38943738E-10  -4.01571444E-15  -4.56881097E-15   1.28252291E-17
   1.38250000E+03   5.00000000E-01   5.00000000E-01  -1.11332720E-06  -2.92645843E-07  -4.21527911E-15  -2.72726563E-16  -2.63207277E-16   1.33625964E-06  -1.99048373E-10  -9.74268253E-11  -7.36414344E-07  -1.76050000E-07  -6.81359638E-08  -8.00571803E-09   9.05834585E-07  -2.15263710E-11  -4.70452077E-08  -4.67754897E-08   1.09375124E-11   5.08169914E-17  -2.39316763E-10  -4.01571444E-15  -4.56881730E-15   3.80028118E-18
   1.41750000E+03   5.00000000E-01   5.00000000E-01  -1.11332832E-06  -1.25362156E-07  -4.21541593E-15  -2.16434627E-16  -2.11446896E-16   6.43303350E-08  -1.98541944E-10  -6.08916952E-11  -7.58665634E-07  -1.60663778E-07   7.34117623E-07  -1.48126410E-08   2.33728828E-07  -2.15797877E-11  -4.78711602E-08  -4.67754897E-08   2.30427154E-11   7.27714004E-18  -2.40223334E-10  -4.01571444E-15  -4.56880017E-15   4.67336728E-18
   1.45250000E+03   5.00000000E-01   5.00000000E-01  -1.11332964E-06   9.18075201E-10  -4.21560020E-15  -1.71636464E-16  -1.69420840E-16   3.62081614E-16  -1.98127490E-10  -3.63804517E-11  -7.79734069E-07  -1.43640918E-07   7.26618226E-07  -2.28157208E-08   2.90353150E-07  -2.16506165E-11  -4.86416525E-08  -4.67754897E-08   5.09905927E-11   5.75334495E-18  -2.40240477E-10  -4.01571444E-15  -4.56879537E-15   5.25949154E-18
   1.48750000E+03   5.00000000E-01   5.00000000E-01  -1.11333160E-06   5.74013353E-08  -4.21584173E-15  -1.37985839E-16  -1.37353433E-16   2.82338969E-28  -1.97899602E-10  -2.70060462E-11  -8.00303464E-07  -1.33122354E-07   7.05780883E-07  -3.31736585E-08   3.58861990E-07  -2.16158382E-11  -4.93790464E-08  -4.67754897E-08   1.18828264E-10   4.75931528E-18  -2.39762473E-10  -4.01571444E-15  -4.56879665E-15   5.37055115E-18
   1.52250000E+03   5.00000000E-01   5.00000000E-01  -1.11333424E-06   7.41217327E-08  -4.21615211E-15  -1.12670109E-16  -1.12906268E-16   2.08776844E-41  -1.97828162E-10  -2.64445726E-11  -8.20672198E-07  -1.26531903E-07   7.03320811E-07  -4.76959989E-08   4.17388464E-07  -2.15550536E-11  -5.00935611E-08  -4.67754897E-08   2.92506103E-10   3.84792219E-18  -2.38918290E-10  -4.01571444E-15  -4.56879963E-15   5.15309338E-18
   1.55750000E+03   5.00000000E-01   5.00000000E-01  -1.11333777E-06   7.07351533E-08  -4.21654965E-15  -9.33818743E-17  -9.40659940E-17   5.13204292E-53  -1.97926808E-10  -3.16664673E-11  -8.40829840E-07  -1.22523288E-07   7.11235029E-07  -6.99546562E-08   4.83357597E-07  -2.14517578E-11  -5.07856632E-08  -4.67754898E-08   7.63117558E-10   2.98191975E-18  -2.37599888E-10  -4.01571444E-15  -4.56880245E-15   4.64036616E-18
   1.59250000E+03   5.00000000E-01   5.00000000E-01  -1.11334230E-06   5.90885307E-08  -4.21705831E-15  -7.84990581E-17  -7.93860260E-17   3.80813674E-61  -1.98195914E-10  -4.08603053E-11  -8.60733795E-07  -1.19313304E-07   7.23554673E-07  -9.66499047E-08   5.54882853E-07  -2.10848965E-11  -5.14564417E-08  -4.67754898E-08   2.11750688E-09   2.10022189E-18  -2.35461425E-10  -4.01571444E-15  -4.56880434E-15   3.87356928E-18
   1.62750000E+03   5.00000000E-01   5.00000000E-01  -1.11334685E-06   7.38247206E-08  -4.21769742E-15  -6.68926511E-17  -6.78423703E-17   6.95283375E-66  -1.98425823E-10  -4.58853698E-11  -8.80443572E-07  -1.08847541E-07   7.15102160E-07  -7.85365879E-08   5.38855391E-07  -2.01851726E-11  -5.21081656E-08  -4.67754898E-08   6.27169733E-09   1.19104807E-18  -2.32289064E-10  -4.01571444E-15  -4.56880522E-15   3.23599463E-18
   1.66250000E+03   5.00000000E-01   5.00000000E-01  -1.11335066E-06   1.27082583E-07  -4.21849389E-15  -5.78027344E-17  -5.87385815E-17   5.08505139E-69  -1.98459789E-10  -4.20378308E-11  -9.00043507E-07  -7.66983846E-08   6.78947556E-07  -9.75094553E-09   4.20907534E-07  -1.90685518E-11  -5.27407933E-08  -4.67754898E-08   1.98812973E-08   5.56925196E-19  -2.28056832E-10  -4.01571444E-15  -4.56880654E-15   3.02668689E-18
   1.69750000E+03   5.00000000E-01   5.00000000E-01  -1.11335416E-06   1.79759724E-07  -4.21950207E-15  -5.07210027E-17  -5.16051156E-17   2.16859884E-71  -1.98355747E-10  -3.29834177E-11  -9.19867236E-07   1.46878151E-08   6.38490990E-07   7.32576933E-08   2.38450672E-07  -1.76446244E-11  -5.33589616E-08  -4.67754898E-08   6.74115810E-08   2.43871283E-19  -2.20304628E-10  -4.01571444E-15  -4.56881036E-15   3.26091868E-18
   1.73250000E+03   5.00000000E-01   5.00000000E-01  -1.11335779E-06   2.09191613E-07  -4.22078092E-15  -4.52661855E-17  -4.60842184E-17   1.40968253E-73  -1.98205843E-10  -2.32904679E-11  -9.39519432E-07   2.04880795E-07   6.05655978E-07   1.47184789E-07   8.95105446E-09  -1.50015068E-11  -5.39720882E-08  -4.67754899E-08   2.41810332E-07   9.10505161E-20  -2.03075199E-10  -4.01571444E-15  -4.56881576E-15   3.74058451E-18
   1.76750000E+03   5.00000000E-01   5.00000000E-01  -1.11336150E-06   2.21644199E-07  -4.22237007E-15  -4.10796077E-17  -4.18298201E-17   1.70409140E-76  -1.98139705E-10  -2.13556643E-11  -9.59526939E-07   3.76873894E-07   5.96557772E-07   1.22425614E-07   2.83443114E-11  -1.26422086E-11  -5.46896990E-08  -4.67754899E-08   8.73515401E-07   2.58062501E-20  -1.75643611E-10  -4.01571444E-15  -4.56881984E-15   3.75002607E-18
   1.80250000E+03   5.00000000E-01   5.00000000E-01  -1.11336672E-06   2.06175290E-07  -4.22437031E-15  -3.78105140E-17  -3.84960480E-17  -1.14281032E-79  -1.98353739E-10  -2.98507310E-11  -9.72153490E-07   5.97282843E-07   6.00290968E-07   7.17309318E-08   2.26054371E-14  -9.16236172E-12  -5.54587471E-08  -4.67754900E-08   2.70935320E-06   5.98473817E-21  -9.46518935E-11  -4.01571444E-15  -4.56882314E-15   3.18788440E-18
   1.83750000E+03   5.00000000E-01   5.00000000E-01  -1.11337229E-06   1.77302766E-07  -4.22686049E-15  -3.51474279E-17  -3.57712517E-17  -1.76419565E-79  -1.98680763E-10  -4.65834454E-11  -9.40729947E-07   8.17021502E-07   6.01937301E-07   1.05906625E-10   8.18401950E-19  -5.38581550E-12  -5.61936845E-08  -4.67754901E-08   5.40484065E-06   6.54542147E-22   1.53839034E-10  -4.01571444E-15  -4.56882654E-15   2.15597329E-18
   1.87250000E+03   5.00000000E-01   5.00000000E-01  -1.11336895E-06   1.07347273E-07  -4.22979573E-15  -3.28464106E-17  -3.34084029E-17  -2.69403346E-79  -1.98167421E-10  -6.38170285E-11  -8.85169064E-07   7.72842008E-07   5.68476720E-07  -1.07320749E-13   1.82638649E-22  -7.48159546E-12  -5.65921938E-08  -4.67754902E-08   6.05578382E-06   1.85247778E-23   3.44217231E-10  -4.01571444E-15  -4.56883774E-15   1.41559972E-18
   1.90750000E+03   5.00000000E-01   5.00000000E-01  -1.11335771E-06   1.18976453E-08  -4.23338405E-15  -3.07648916E-17  -3.12625145E-17  -1.44316268E-81  -1.97531636E-10  -8.24342653E-11  -7.66453576E-07   6.67936999E-07   5.01927204E-07  -3.85351953E-13  -1.10100333E-22  -7.72842627E-12  -1.49608055E-08  -4.67754902E-08   4.42749742E-06   1.23498519E-24   5.65842396E-10  -4.01571444E-15  -4.56884773E-15   7.58302351E-19
   1.94250000E+03   5.00000000E-01   5.00000000E-01  -1.11335403E-06   1.02641938E-09  -4.23797059E-15  -2.88665874E-17  -2.92983175E-17  -6.91322908E-83  -1.97632568E-10  -9.53504527E-11  -5.38024250E-07   4.14998136E-07   3.99618856E-07  -3.71049919E-13  -7.32949209E-23  -7.60241828E-12   8.36595073E-08  -4.67754900E-08   2.57740680E-06   2.46997039E-24   7.42454166E-10  -4.01571444E-15  -4.56885051E-15  -1.50754204E-21
   1.97750000E+03   5.00000000E-01   5.00000000E-01  -1.11335050E-06   2.84011413E-10  -4.24369796E-15  -2.71284727E-17  -2.74928087E-17  -1.41969958E-83  -1.97766189E-10  -1.04997448E-10  -3.72093349E-07   1.72836686E-07   3.54810263E-07  -3.53939010E-13  -5.42669204E-23  -7.48954633E-12   1.28105880E-07  -4.67754892E-08   1.36055729E-06   1.11148668E-23   6.55401779E-10  -4.01571444E-15  -4.56885159E-15  -5.36965776E-19
   2.01250000E+03   5.00000000E-01   5.00000000E-01  -1.11334537E-06   1.48232367E-10  -4.25083027E-15  -2.55607244E-17  -2.58578645E-17  -9.10038328E-84  -1.97829152E-10  -1.11906535E-10  -2.77991815E-07   2.26536595E-08   3.35963699E-07  -3.37361406E-13  -4.29740308E-23  -7.40322658E-12   1.46880111E-07  -4.67754878E-08   6.99790716E-07   7.40991121E-24   5.01644099E-10  -4.01571444E-15  -4.56885217E-15  -8.80397840E-19
   2.04750000E+03   5.00000000E-01   5.00000000E-01  -1.11333866E-06   1.04625776E-10  -4.25969589E-15  -2.41817088E-17  -2.44142765E-17  -1.10232872E-83  -1.97841237E-10  -1.16919104E-10  -2.23267912E-07  -6.58767977E-08   3.25661517E-07  -3.20494142E-13  -3.52823860E-23  -7.34435418E-12   1.57156939E-07  -4.67754856E-08   3.67042055E-07   2.46997041E-24   3.64998517E-10  -4.01571444E-15  -4.56885252E-15  -1.10806176E-18
   2.08250000E+03   5.00000000E-01   5.00000000E-01  -1.11333036E-06   8.64062557E-11  -4.27068489E-15  -2.30028771E-17  -2.31757976E-17  -1.86306565E-83  -1.97819859E-10  -1.20687990E-10  -1.89272470E-07  -1.20369697E-07   3.19040045E-07  -3.02870190E-13  -2.94695612E-23  -7.31166206E-12   1.63765480E-07  -4.67754824E-08   2.03742610E-07   0.00000000E+00   2.56629694E-10  -4.01571444E-15  -4.56885275E-15  -1.26740387E-18
   2.11750000E+03   5.00000000E-01   5.00000000E-01  -1.11332038E-06   7.76456287E-11  -4.28426528E-15  -2.20232974E-17  -2.21431849E-17  -3.72353575E-83  -1.97775563E-10  -1.23631681E-10  -1.66757756E-07  -1.55881226E-07   3.14380692E-07  -2.84676424E-13  -2.46804428E-23  -7.30057252E-12   1.68416061E-07  -4.67754782E-08   1.23567683E-07   0.00000000E+00   1.72132076E-10  -4.01571444E-15  -4.56885291E-15  -1.38485411E-18
   2.15250000E+03   5.00000000E-01   5.00000000E-01  -1.11330859E-06   7.30637573E-11  -4.30100117E-15  -2.12297126E-17  -2.13040351E-17  -8.07063339E-83  -1.97714747E-10  -1.26012902E-10  -1.51009597E-07  -1.80270018E-07   3.10903545E-07  -2.66939655E-13  -2.04352141E-23  -7.30136295E-12   1.71885847E-07  -4.67754726E-08   8.33975601E-08  -3.70495562E-24   1.05723452E-10  -4.01571444E-15  -4.56885303E-15  -1.47539486E-18
   2.18750000E+03   5.00000000E-01   5.00000000E-01  -1.11329485E-06   7.05522496E-11  -4.32157319E-15  -2.06000260E-17  -2.06363072E-17  -1.81818844E-82  -1.97641447E-10  -1.27999536E-10  -1.39494274E-07  -1.97775484E-07   3.08199283E-07  -2.51291022E-13  -1.65035789E-23  -7.29924330E-12   1.74583025E-07  -4.67754653E-08   6.24098578E-08   6.17492603E-24   5.27988210E-11  -4.01571444E-15  -4.56885312E-15  -1.54787589E-18
   2.22250000E+03   5.00000000E-01   5.00000000E-01  -1.11327896E-06   6.91588763E-11  -4.34680282E-15  -2.01079985E-17  -2.01132279E-17  -4.16784397E-82  -1.97558321E-10  -1.29701737E-10  -1.30772125E-07  -2.10798586E-07   3.06032431E-07  -2.38793293E-13  -1.29066795E-23  -7.28030805E-12   1.76742511E-07  -4.67754559E-08   5.06748676E-08   4.32244822E-24   1.00193764E-11  -4.01571444E-15  -4.56885319E-15  -1.60775269E-18
   2.25750000E+03   5.00000000E-01   5.00000000E-01  -1.11326071E-06   6.84117399E-11  -4.37768183E-15  -1.97272673E-17  -1.97075625E-17  -9.63496536E-82  -1.97467175E-10  -1.31193672E-10  -1.23979049E-07  -2.20771076E-07   3.04257559E-07  -2.28671265E-13  -9.81732978E-24  -7.24041823E-12   1.78509408E-07  -4.67754438E-08   4.34683654E-08   3.08746301E-24  -2.49973819E-11  -4.01571444E-15  -4.56885325E-15  -1.65851976E-18
   2.29250000E+03   5.00000000E-01   5.00000000E-01  -1.11323985E-06   6.80585842E-11  -4.41540821E-15  -1.94340698E-17  -1.93945654E-17  -2.25487748E-81  -1.97369268E-10  -1.32526405E-10  -1.18568864E-07  -2.28590241E-07   3.02779223E-07  -2.18949886E-13  -7.34684942E-24  -7.18545192E-12   1.79978930E-07  -4.67754285E-08   3.85396622E-08  -8.02740383E-24  -5.39660739E-11  -4.01571444E-15  -4.56885330E-15  -1.70249032E-18
   2.32750000E+03   5.00000000E-01   5.00000000E-01  -1.11321612E-06   6.79556731E-11  -4.46143038E-15  -1.92084142E-17  -1.91532944E-17  -5.39932328E-81  -1.97265496E-10  -1.33735804E-10  -1.14181511E-07  -2.34841815E-07   3.01531794E-07  -2.08138001E-13  -5.46271750E-24  -7.12327391E-12   1.81216518E-07  -4.67754090E-08   3.48166440E-08   3.08746301E-24  -7.81425654E-11  -4.01571444E-15  -4.56885334E-15  -1.74124060E-18
   2.36250000E+03   5.00000000E-01   5.00000000E-01  -1.11318919E-06   6.80165986E-11  -4.51750160E-15  -1.90342961E-17  -1.89669078E-17  -1.33606128E-80  -1.97156506E-10  -1.34847519E-10  -1.10571789E-07  -2.39920699E-07   3.00468692E-07  -1.95709407E-13  -4.05587976E-24  -7.05876746E-12   1.82268582E-07  -4.67753844E-08   3.17821100E-08  -1.85247780E-24  -9.84656773E-11  -4.01571444E-15  -4.56885337E-15  -1.77587302E-18
   2.39750000E+03   5.00000000E-01   5.00000000E-01  -1.11315871E-06   6.81869462E-11  -4.58574747E-15  -1.88992839E-17  -1.88222735E-17  -3.44229258E-80  -1.97042771E-10  -1.35880186E-10  -1.07567965E-07  -2.44100809E-07   2.99556016E-07  -1.81636115E-13  -3.01120584E-24  -6.99393862E-12   1.83168853E-07  -4.67753533E-08   2.91714074E-08  -3.70495559E-24  -1.15651382E-10  -4.01571444E-15  -4.56885340E-15  -1.80717683E-18