 TITLE = "Mineral Rate (mol/m^3/sec)" 
VARIABLES = "X"          "Y"              "Z"            "Forsterite"     "Fayalite"       "Brucite"        "Lizardite"      "Chrysotile"     "Saponite(Mg)"   "Enstatite(alph" "Ferrosilite(al" "Anorthite"      "Albite(low)"    "Clinochlore"    "Sudoite"        "Montmorillonit" "Kaolinite"      "Tremolite"      "Pargasite"      "Anhydrite"      "Epidote"        "Scolecite"      "Pyrite"         "FeS(am)"        "Quartz(alpha)" 
 ZONE I=         100 , J=           1 , K=           1  F=POINT
   1.75000000E+01   5.00000000E-01   5.00000000E-01  -1.07654001E-06  -2.66049525E-07  -3.38076424E-15  -6.19864426E-18  -6.18785954E-18   0.00000000E+00  -1.98547527E-10   1.97573650E-11  -5.97160980E-07  -2.26458530E-07   7.79936075E-07  -4.49398734E-14  -1.27912518E-16  -6.98098391E-13  -3.00651658E-08  -4.62028014E-08  -1.93273261E-15  -3.01826885E-15  -2.24076396E-10  -3.58800321E-15  -4.20629637E-15   4.67292388E-17
   5.25000000E+01   5.00000000E-01   5.00000000E-01  -1.07654003E-06  -1.26615327E-07  -3.38077463E-15  -8.40339427E-18  -7.63662368E-18   0.00000000E+00  -1.98278910E-10   1.33113802E-10  -5.97160980E-07  -3.46468794E-08   6.84013408E-07  -1.29816989E-14  -7.96682151E-15  -6.78663019E-13  -1.19370043E-08  -4.62028014E-08  -1.93527656E-15   1.17239586E-15  -2.24076207E-10  -3.58800321E-15  -4.20640160E-15   6.62141155E-17
   8.75000000E+01   5.00000000E-01   5.00000000E-01  -1.07653999E-06  -5.37456920E-08  -3.38077617E-15  -8.65658659E-18  -7.81039878E-18   0.00000000E+00  -1.98039014E-10   1.81448068E-10  -5.97160981E-07   8.74125114E-08   6.22984205E-07  -1.24091181E-14  -5.77340371E-13  -6.97989431E-13   2.39692840E-09  -4.62028014E-08  -1.93789643E-15   2.00194184E-16  -2.24076195E-10  -3.58800321E-15  -4.20655253E-15   7.21695801E-17
   1.22500000E+02   5.00000000E-01   5.00000000E-01  -1.07653993E-06  -2.47087672E-08  -3.38077573E-15  -8.14165999E-18  -7.44922552E-18   0.00000000E+00  -1.97835197E-10   1.97102159E-10  -5.97160982E-07   1.38364714E-07   5.97525130E-07  -1.60305350E-14  -2.10399949E-11  -7.31346535E-13   8.90919133E-09  -4.62028014E-08  -1.94026705E-15   3.26435851E-17  -2.24076333E-10  -3.58800321E-15  -4.20669150E-15   7.28435691E-17
   1.57500000E+02   5.00000000E-01   5.00000000E-01  -1.07653987E-06  -1.44231310E-08  -3.38077469E-15  -7.51280841E-18  -6.99473103E-18   0.00000000E+00  -1.97642773E-10   2.00191986E-10  -5.97160984E-07   1.56492014E-07   5.88770287E-07  -2.39291179E-14  -3.93023337E-10  -7.74696521E-13   1.11551731E-08  -4.62028014E-08  -1.94207602E-15  -1.39870273E-17  -2.24076557E-10  -3.58800321E-15  -4.20680703E-15   7.17230318E-17
   1.92500000E+02   5.00000000E-01   5.00000000E-01  -1.07653979E-06  -1.17517926E-08  -3.38077355E-15  -6.97949947E-18  -6.59662472E-18   0.00000000E+00  -1.97455143E-10   1.98851249E-10  -5.97160987E-07   1.66464666E-07   5.87624932E-07  -3.93136595E-14  -5.02059541E-09  -8.26505683E-13   1.10704276E-08  -4.62028014E-08  -1.94293685E-15  -2.04466467E-17  -2.24076811E-10  -3.58800321E-15  -4.20689966E-15   7.01424912E-17
   2.27500000E+02   5.00000000E-01   5.00000000E-01  -1.07653972E-06  -1.77189717E-08  -3.38077393E-15  -6.73996099E-18  -6.40334065E-18   0.00000000E+00  -1.97316323E-10   1.95816253E-10  -5.97160990E-07   2.14518961E-07   5.98630264E-07  -6.77013777E-14  -4.72282585E-08  -8.85084902E-13   5.08768662E-09  -4.62028014E-08  -1.94200888E-15   4.84963313E-17  -2.24076827E-10  -3.58800321E-15  -4.20697535E-15   6.92895944E-17
   2.62500000E+02   5.00000000E-01   5.00000000E-01  -1.07653973E-06  -4.08184868E-08  -3.38077899E-15  -7.07265029E-18  -6.63614798E-18   0.00000000E+00  -1.97345679E-10   1.90227507E-10  -5.97160995E-07   3.97113562E-07   6.31903568E-07  -1.17104431E-13  -1.97313125E-07  -9.48899678E-13  -1.29157200E-08  -4.62028014E-08  -1.93766330E-15   2.27677462E-16  -2.24075581E-10  -3.58800321E-15  -4.20703935E-15   7.02188753E-17
   2.97500000E+02   5.00000000E-01   5.00000000E-01  -1.07653969E-06  -3.87839227E-08  -3.38078239E-15  -7.27015143E-18  -6.79010012E-18   0.00000000E+00  -1.97264395E-10   1.92686459E-10  -5.97161002E-07   5.22599721E-07   6.35432679E-07  -1.98851681E-13  -2.77158851E-07  -1.01661713E-12  -1.91234108E-08  -4.62028014E-08  -1.92956903E-15   1.08379844E-16  -2.24074226E-10  -3.58800321E-15  -4.20707143E-15   7.02429615E-17
   3.32500000E+02   5.00000000E-01   5.00000000E-01  -1.07653959E-06  -2.40847252E-08  -3.38078343E-15  -7.30849744E-18  -6.83226925E-18   0.00000000E+00  -1.97055549E-10   1.97521448E-10  -5.97161012E-07   5.40378679E-07   6.26412076E-07  -3.28784943E-13  -2.77000462E-07  -1.08667435E-12  -1.83367649E-08  -4.62028014E-08  -1.91696976E-15  -6.96907103E-19  -2.24073761E-10  -3.58800321E-15  -4.20708993E-15   6.91554839E-17
   3.67500000E+02   5.00000000E-01   5.00000000E-01  -1.07653945E-06  -1.49575254E-08  -3.38078384E-15  -7.32863318E-18  -6.86205140E-18   0.00000000E+00  -1.96814017E-10   1.98492826E-10  -5.97161025E-07   5.21822155E-07   6.20698163E-07  -5.28284762E-13  -2.58937018E-07  -1.15741924E-12  -1.65674476E-08  -4.62028014E-08  -1.89837014E-15  -2.82087258E-17  -2.24073642E-10  -3.58800321E-15  -4.20710731E-15   6.75457416E-17
   4.02500000E+02   5.00000000E-01   5.00000000E-01  -1.07653929E-06  -1.05147357E-08  -3.38078402E-15  -7.34968032E-18  -6.89297862E-18   0.00000000E+00  -1.96558320E-10   1.96848865E-10  -5.97161043E-07   4.92043775E-07   6.17711387E-07  -8.23804571E-13  -2.37398892E-07  -1.22816151E-12  -1.47304436E-08  -4.62028014E-08  -1.87164846E-15  -3.51524344E-17  -2.24073649E-10  -3.58800321E-15  -4.20712161E-15   6.57323536E-17
   4.37500000E+02   5.00000000E-01   5.00000000E-01  -1.07653909E-06  -8.48149704E-09  -3.38078408E-15  -7.36762222E-18  -6.92167135E-18   0.00000000E+00  -1.96291559E-10   1.93914644E-10  -5.97161066E-07   4.59173342E-07   6.16125531E-07  -1.24655438E-12  -2.15685624E-07  -1.29916561E-12  -1.29505835E-08  -4.62028014E-08  -1.83389119E-15  -3.57704111E-17  -2.24073716E-10  -3.58800321E-15  -4.20713143E-15   6.38535932E-17
   4.72500000E+02   5.00000000E-01   5.00000000E-01  -1.07653886E-06  -7.57381542E-09  -3.38078408E-15  -7.37903502E-18  -6.94526246E-18   0.00000000E+00  -1.96014536E-10   1.90378728E-10  -5.97161097E-07   4.26215846E-07   6.15229990E-07  -1.83098120E-12  -1.94751213E-07  -1.37069024E-12  -1.12530228E-08  -4.62028014E-08  -1.78110141E-15  -3.36090192E-17  -2.24073817E-10  -3.58800321E-15  -4.20713676E-15   6.19682608E-17
   5.07500000E+02   5.00000000E-01   5.00000000E-01  -1.07653858E-06  -7.18562007E-09  -3.38078402E-15  -7.38432122E-18  -6.96391701E-18   0.00000000E+00  -1.95727693E-10   1.86561463E-10  -5.97161137E-07   3.94379908E-07   6.14698959E-07  -2.61853708E-12  -1.74931108E-07  -1.44274150E-12  -9.65195268E-09  -4.62028014E-08  -1.70777112E-15  -2.98621510E-17  -2.24073940E-10  -3.58800321E-15  -4.20713817E-15   6.01027537E-17
   5.42500000E+02   5.00000000E-01   5.00000000E-01  -1.07653826E-06  -7.04101068E-09  -3.38078392E-15  -7.38562002E-18  -6.97924343E-18   0.00000000E+00  -1.95431363E-10   1.82612638E-10  -5.97161190E-07   3.64159146E-07   6.14382999E-07  -3.66099953E-12  -1.56342493E-07  -1.51462288E-12  -8.15759290E-09  -4.62028014E-08  -1.60626068E-15  -2.50603461E-17  -2.24074076E-10  -3.58800321E-15  -4.20713643E-15   5.82701206E-17
   5.77500000E+02   5.00000000E-01   5.00000000E-01  -1.07653789E-06  -7.01357800E-09  -3.38078378E-15  -7.38583404E-18  -6.99354893E-18   0.00000000E+00  -1.95125811E-10   1.78606074E-10  -5.97161259E-07   3.35732230E-07   6.14205839E-07  -5.01977702E-12  -1.39000956E-07  -1.58483473E-12  -6.77540573E-09  -4.62028014E-08  -1.46589131E-15  -1.95068280E-17  -2.24074221E-10  -3.58800321E-15  -4.20713226E-15   5.64775067E-17
   6.12500000E+02   5.00000000E-01   5.00000000E-01  -1.07653746E-06  -7.04454470E-09  -3.38078363E-15  -7.38853638E-18  -7.00978642E-18   0.00000000E+00  -1.94811249E-10   1.74580895E-10  -5.97161349E-07   3.09128146E-07   6.14120283E-07  -6.76595033E-12  -1.22866925E-07  -1.65214595E-12  -5.50631982E-09  -4.62028014E-08  -1.27160268E-15  -1.34152661E-17  -2.24074369E-10  -3.58800321E-15  -4.20712633E-15   5.47291075E-17
   6.47500000E+02   5.00000000E-01   5.00000000E-01  -1.07653696E-06  -7.10662365E-09  -3.38078348E-15  -7.39817406E-18  -7.03174526E-18   0.00000000E+00  -1.94487858E-10   1.70559404E-10  -5.97161464E-07   2.84301642E-07   6.14090796E-07  -8.97302791E-12  -1.07870138E-07  -1.71680310E-12  -4.34779346E-09  -4.62028014E-08  -1.00194295E-15  -6.96003325E-18  -2.24074525E-10  -3.58800321E-15  -4.20711916E-15   5.30274196E-17
   6.82500000E+02   5.00000000E-01   5.00000000E-01  -1.07653639E-06  -7.18772577E-09  -3.38078335E-15  -7.42032244E-18  -7.06429201E-18   0.00000000E+00  -1.94155804E-10   1.66555121E-10  -5.97161614E-07   2.61171336E-07   6.14087177E-07  -1.17182600E-11  -9.39249859E-08  -1.78010391E-12  -3.29498799E-09  -4.62028014E-08  -6.26019435E-16  -2.96082768E-19  -2.24074699E-10  -3.58800321E-15  -4.20711121E-15   5.13738342E-17
   7.17500000E+02   5.00000000E-01   5.00000000E-01  -1.07653573E-06  -7.28327326E-09  -3.38078326E-15  -7.46196800E-18  -7.11364241E-18   0.00000000E+00  -1.93815256E-10   1.62576646E-10  -5.97161808E-07   2.39640220E-07   6.14082704E-07  -1.51046466E-11  -8.09405759E-08  -1.84296385E-12  -2.34171228E-09  -4.62028014E-08  -9.88062466E-17   6.43321835E-18  -2.24074901E-10  -3.58800321E-15  -4.20710284E-15   4.97689637E-17
   7.52500000E+02   5.00000000E-01   5.00000000E-01  -1.07653498E-06  -7.39229663E-09  -3.38078325E-15  -7.53213716E-18  -7.18793643E-18   0.00000000E+00  -1.93466386E-10   1.58629681E-10  -5.97162059E-07   2.19605637E-07   6.14053925E-07  -1.92535010E-11  -6.88265006E-08  -1.90569444E-12  -1.48102230E-09  -4.62028014E-08   6.46188154E-16   1.30939458E-17  -2.24075145E-10  -3.58800321E-15  -4.20709432E-15   4.82128550E-17
   7.87500000E+02   5.00000000E-01   5.00000000E-01  -1.07653412E-06  -7.51542283E-09  -3.38078338E-15  -7.64282816E-18  -7.29809164E-18   0.00000000E+00  -1.93109378E-10   1.54718157E-10  -5.97162385E-07   2.00965092E-07   6.13981052E-07  -2.43208826E-11  -5.74967795E-08  -1.96840023E-12  -7.05590960E-10  -4.62028014E-08   1.70856716E-15   1.95623911E-17  -2.24075449E-10  -3.58800321E-15  -4.20708589E-15   4.67051412E-17
   8.22500000E+02   5.00000000E-01   5.00000000E-01  -1.07653315E-06  -7.65377975E-09  -3.38078370E-15  -7.81054487E-18  -7.45920209E-18   0.00000000E+00  -1.92744426E-10   1.50844911E-10  -5.97162809E-07   1.83619612E-07   6.13848421E-07  -3.04973206E-11  -4.68724274E-08  -2.03099526E-12  -7.90800658E-12  -4.62028014E-08   3.23986852E-15   2.57271214E-17  -2.24075836E-10  -3.58800321E-15  -4.20707768E-15   4.52451552E-17
   8.57500000E+02   5.00000000E-01   5.00000000E-01  -1.07653206E-06  -7.80837452E-09  -3.38078429E-15  -8.05870664E-18  -7.69273777E-18   0.00000000E+00  -1.92371736E-10   1.47012105E-10  -5.97163364E-07   1.67475769E-07   6.13644764E-07  -3.80322941E-11  -3.68829513E-08  -2.09316733E-12   6.19622739E-10  -4.62028014E-08   5.47455723E-15   3.14909238E-17  -2.24076339E-10  -3.58800321E-15  -4.20706982E-15   4.38320140E-17
   8.92500000E+02   5.00000000E-01   5.00000000E-01  -1.07653083E-06  -7.97972037E-09  -3.38078527E-15  -8.42163229E-18  -8.03017531E-18   0.00000000E+00  -1.91991526E-10   1.43221496E-10  -5.97164092E-07   1.52446638E-07   6.13363217E-07  -4.72371607E-11  -2.74669138E-08  -2.15428292E-12   1.18464692E-09  -4.62028014E-08   8.78208471E-15   3.67724250E-17  -2.24077000E-10  -3.58800321E-15  -4.20706235E-15   4.24646806E-17
   9.27500000E+02   5.00000000E-01   5.00000000E-01  -1.07652946E-06  -8.16762796E-09  -3.38078678E-15  -8.95111048E-18  -8.51898265E-18   0.00000000E+00  -1.91604022E-10   1.39474600E-10  -5.97165053E-07   1.38452303E-07   6.13001047E-07  -5.85334034E-11  -1.85717922E-08  -2.21346427E-12   1.69483140E-09  -4.62028014E-08   1.37562188E-14   4.15069957E-17  -2.24077884E-10  -3.58800321E-15  -4.20705534E-15   4.11420074E-17
   9.62500000E+02   5.00000000E-01   5.00000000E-01  -1.07652794E-06  -8.37108456E-09  -3.38078901E-15  -9.72763074E-18  -9.23283571E-18   0.00000000E+00  -1.91209464E-10   1.35772784E-10  -5.97166333E-07   1.25419912E-07   6.12559127E-07  -7.24827749E-11  -1.01532957E-08  -2.26975267E-12   2.15783238E-09  -4.62028014E-08   2.13718708E-14   4.56469358E-17  -2.24079083E-10  -3.58800321E-15  -4.20704878E-15   3.98627667E-17
   9.97500000E+02   5.00000000E-01   5.00000000E-01  -1.07652628E-06  -8.58818159E-09  -3.38079221E-15  -1.08799326E-17  -1.02893885E-17   0.00000000E+00  -1.90808105E-10   1.32117319E-10  -5.97168059E-07   1.13283525E-07   6.12041187E-07  -8.97856700E-11  -2.17435661E-09  -2.32241790E-12   2.58125615E-09  -4.62028014E-08   3.32672472E-14   4.91609309E-17  -2.24080740E-10  -3.58800321E-15  -4.20704267E-15   3.86256709E-17
   1.03250000E+03   5.00000000E-01   5.00000000E-01  -1.07652447E-06  -8.81608417E-09  -3.38079668E-15  -1.26193273E-17  -1.18814815E-17   0.00000000E+00  -1.90400216E-10   1.28509389E-10  -5.97170429E-07   1.01984012E-07   6.11452974E-07  -1.11324285E-10   5.39608581E-09  -2.37145160E-12   2.97259271E-09  -4.62028014E-08   5.22649780E-14   5.20328300E-17  -2.24083088E-10  -3.58800321E-15  -4.20703698E-15   3.74293848E-17
   1.06750000E+03   5.00000000E-01   5.00000000E-01  -1.07652254E-06  -9.05103999E-09  -3.38080282E-15  -1.52997791E-17  -1.43318938E-17   0.00000000E+00  -1.89986089E-10   1.24950068E-10  -5.97173768E-07   9.14692708E-08   6.10801438E-07  -1.38278593E-10   1.25842826E-08  -2.41727911E-12   3.33910695E-09  -4.62028014E-08   8.33621538E-14   5.42601061E-17  -2.24086517E-10  -3.58800321E-15  -4.20703168E-15   3.62725319E-17
   1.10250000E+03   5.00000000E-01   5.00000000E-01  -1.07652051E-06  -9.28838207E-09  -3.38081110E-15  -1.95191581E-17  -1.81861734E-17   0.00000000E+00  -1.89566059E-10   1.21440199E-10  -5.97178652E-07   8.16947535E-08   6.10094508E-07  -1.72347346E-10   1.94123033E-08  -2.46022642E-12   3.68736434E-09  -4.62028014E-08   1.35668969E-13   5.58521058E-17  -2.24091734E-10  -3.58800321E-15  -4.20702670E-15   3.51536722E-17
   1.13750000E+03   5.00000000E-01   5.00000000E-01  -1.07654185E-06  -4.20101790E-07  -3.38089423E-15  -2.27843009E-17  -2.12478571E-17   2.84498788E-06  -1.99498173E-10  -1.31648654E-10  -5.97183090E-07  -1.64888769E-07  -1.07313151E-06  -1.45692650E-09   1.61633066E-06  -3.50962176E-12  -4.51065584E-08  -4.62028014E-08   2.25659389E-13   6.51214366E-16  -2.23402253E-10  -3.58800321E-15  -4.20703634E-15   4.69324294E-18
   1.17250000E+03   5.00000000E-01   5.00000000E-01  -1.07654096E-06  -2.71623171E-07  -3.38089362E-15  -3.25212490E-17  -3.01793309E-17   0.00000000E+00  -1.98385608E-10  -6.94752853E-11  -5.97198302E-07  -1.28268080E-07   8.03562684E-07  -3.48837960E-10  -8.67480214E-08  -2.84556693E-12  -4.51056925E-08  -4.62028014E-08   3.87291180E-13  -2.06574284E-17  -2.23790614E-10  -3.58800321E-15  -4.20700003E-15   8.37428698E-18
   1.20750000E+03   5.00000000E-01   5.00000000E-01  -1.07654012E-06  -1.06153994E-07  -3.38090414E-15  -4.76633796E-17  -4.41183893E-17   0.00000000E+00  -1.97400024E-10  -1.71189041E-11  -5.97225969E-07  -1.03360621E-07   7.32242971E-07  -3.96991797E-10  -1.56766409E-08  -2.76850065E-12  -4.51037059E-08  -4.62028014E-08   6.89781061E-13   2.98472701E-18  -2.23920227E-10  -3.58800321E-15  -4.20698226E-15   1.08307562E-17
   1.24250000E+03   5.00000000E-01   5.00000000E-01  -1.07653943E-06   5.47980681E-09  -3.38092234E-15  -6.86014825E-17  -6.35576214E-17   0.00000000E+00  -1.96524171E-10   1.63078511E-11  -5.97318680E-07  -8.80461110E-08   6.82314222E-07  -5.25598458E-10   3.56744831E-08  -2.76178678E-12  -4.50960157E-08  -4.62028014E-08   1.27855130E-12   9.01706889E-18  -2.24073468E-10  -3.58800321E-15  -4.20697468E-15   1.24764923E-17
   1.27750000E+03   5.00000000E-01   5.00000000E-01  -1.07653877E-06   5.93485857E-08  -3.38094827E-15  -9.02835071E-17  -8.40855461E-17   0.00000000E+00  -1.95701722E-10   3.51284320E-11  -5.98311875E-07  -7.94868796E-08   6.57926108E-07  -8.48550879E-10   6.18775659E-08  -2.77758448E-12  -4.50748839E-08  -4.62028014E-08   2.47284213E-12   1.15079870E-17  -2.25058658E-10  -3.58800321E-15  -4.20696956E-15   1.36659660E-17
   1.31250000E+03   5.00000000E-01   5.00000000E-01  -1.07653797E-06   7.61565334E-08  -3.38098939E-15  -1.00947042E-16  -9.49245626E-17   0.00000000E+00  -1.94918458E-10   4.47892477E-11  -6.12028093E-07  -7.39827939E-08   6.51130137E-07  -9.59229524E-10   8.35507454E-08  -2.71989967E-12  -4.50377333E-08  -4.62028014E-08   5.00174713E-12   1.54342964E-17  -2.32371055E-10  -3.58800321E-15  -4.20696628E-15   1.45401642E-17
   1.34750000E+03   5.00000000E-01   5.00000000E-01  -1.07653691E-06   7.53722062E-08  -3.38106469E-15  -9.45256387E-17  -9.00122800E-17   0.00000000E+00  -1.94171444E-10   4.93474787E-11  -6.35903401E-07  -6.66239107E-08   6.53529529E-07  -6.14652054E-10   1.04169211E-07  -2.60454930E-12  -4.54353731E-08  -4.62028014E-08   1.05879930E-11   1.96109100E-17  -2.38504880E-10  -3.58800321E-15  -4.20696583E-15   1.51639198E-17
   1.38250000E+03   5.00000000E-01   5.00000000E-01  -1.07655516E-06  -3.39468375E-07  -3.38125043E-15  -7.81272453E-17  -7.53996984E-17   1.68452571E-06  -1.99073056E-10  -1.08686372E-10  -6.57713832E-07  -1.90635868E-07  -3.14370046E-07  -2.41950103E-09   1.03061936E-06  -3.08423586E-12  -4.64852899E-08  -4.62028014E-08   2.33734743E-11   1.35255595E-16  -2.39268869E-10  -3.58800321E-15  -4.20697276E-15   3.73031477E-18
   1.41750000E+03   5.00000000E-01   5.00000000E-01  -1.07655763E-06  -2.62143565E-07  -3.38138095E-15  -6.20310962E-17  -6.06011323E-17   3.04303990E-07  -1.98993910E-10  -9.29578003E-11  -6.77571825E-07  -1.90416351E-07   6.04057256E-07  -2.13104089E-09   2.29878701E-07  -2.91090612E-12  -4.73014484E-08  -4.62028014E-08   5.45342659E-11   2.33892950E-17  -2.39665838E-10  -3.58800321E-15  -4.20695999E-15   3.57741945E-18
   1.45250000E+03   5.00000000E-01   5.00000000E-01  -1.07656020E-06  -1.78360900E-07  -3.38154398E-15  -4.92238122E-17  -4.85882238E-17   2.46069152E-07  -1.98902572E-10  -7.86792927E-11  -6.96377013E-07  -1.86148740E-07   6.09232578E-07  -1.92840610E-09   2.55168190E-07  -2.76137379E-12  -4.80628901E-08  -4.62028014E-08   1.35107598E-10   1.65896690E-17  -2.39423310E-10  -3.58800321E-15  -4.20695147E-15   3.50707310E-18
   1.48750000E+03   5.00000000E-01   5.00000000E-01  -1.07656218E-06  -6.36140748E-08  -3.38173902E-15  -3.95877203E-17  -3.94065107E-17   1.25720190E-07  -1.98610508E-10  -5.79956468E-11  -7.14752655E-07  -1.75357888E-07   6.42869972E-07  -2.67971557E-09   2.56740748E-07  -2.68992722E-12  -4.87916401E-08  -4.62028014E-08   3.57012767E-10   9.67806962E-18  -2.39126693E-10  -3.58800321E-15  -4.20694614E-15   3.87877377E-18
   1.52250000E+03   5.00000000E-01   5.00000000E-01  -1.07656330E-06   5.79948027E-08  -3.38197699E-15  -3.23189246E-17  -3.23871262E-17   3.94014371E-13  -1.98119510E-10  -3.44037704E-11  -7.32967458E-07  -1.59807151E-07   6.77458811E-07  -4.48723055E-09   2.57750674E-07  -2.71714313E-12  -4.94976525E-08  -4.62028014E-08   1.01010364E-09   5.58136584E-18  -2.38813537E-10  -3.58800321E-15  -4.20694509E-15   4.57701673E-18
   1.55750000E+03   5.00000000E-01   5.00000000E-01  -1.07656469E-06   1.09370500E-07  -3.38228336E-15  -2.67743631E-17  -2.69709999E-17   5.53079043E-22  -1.97741468E-10  -2.34820389E-11  -7.51008505E-07  -1.48436130E-07   6.57200491E-07  -7.35498971E-09   3.03953366E-07  -2.75341337E-12  -5.01813122E-08  -4.62028014E-08   3.07120779E-09   5.01949701E-18  -2.38198293E-10  -3.58800321E-15  -4.20694778E-15   4.95310291E-18
   1.59250000E+03   5.00000000E-01   5.00000000E-01  -1.07656630E-06   1.23266042E-07  -3.38267319E-15  -2.24926156E-17  -2.27470965E-17   1.19862642E-32  -1.97451837E-10  -1.96207185E-11  -7.68877627E-07  -1.39695688E-07   6.54297626E-07  -1.41730644E-08   3.40142362E-07  -2.81949781E-12  -5.08437763E-08  -4.62028014E-08   1.00741677E-08   4.49222013E-18  -2.37403797E-10  -3.58800321E-15  -4.20695137E-15   5.10995251E-18
   1.62750000E+03   5.00000000E-01   5.00000000E-01  -1.07656843E-06   1.16943821E-07  -3.38316922E-15  -1.91561117E-17  -1.94282267E-17   8.44896200E-45  -1.97289587E-10  -2.07946896E-11  -7.86676272E-07  -1.32971497E-07   6.62324094E-07  -3.12199475E-08   3.88940652E-07  -2.89563139E-12  -5.14875246E-08  -4.62028015E-08   3.57480670E-08   3.99205117E-18  -2.36442672E-10  -3.58800321E-15  -4.20695474E-15   5.03310558E-18
   1.66250000E+03   5.00000000E-01   5.00000000E-01  -1.07657180E-06   9.51696634E-08  -3.38380239E-15  -1.65493804E-17  -1.68173812E-17   8.47420877E-57  -1.97353638E-10  -2.74949557E-11  -8.04489054E-07  -1.28866378E-07   6.80849445E-07  -6.75356844E-08   4.73114564E-07  -2.95032830E-12  -5.21127067E-08  -4.62028015E-08   1.36747152E-07   3.40877759E-18  -2.35189304E-10  -3.58800321E-15  -4.20695735E-15   4.62285707E-18
   1.69750000E+03   5.00000000E-01   5.00000000E-01  -1.07657673E-06   6.95857481E-08  -3.38460954E-15  -1.45237301E-17  -1.47770094E-17   5.27487636E-66  -1.97658982E-10  -3.81441655E-11  -8.22756598E-07  -1.26598788E-07   7.01741227E-07  -1.07884728E-07   5.65809328E-07  -2.94964503E-12  -5.27238482E-08  -4.62028015E-08   5.46785085E-07   2.55308110E-18  -2.33416890E-10  -3.58800321E-15  -4.20695885E-15   3.89998218E-18
   1.73250000E+03   5.00000000E-01   5.00000000E-01  -1.07658232E-06   6.63242965E-08  -3.38563209E-15  -1.29644748E-17  -1.31989742E-17   1.24236403E-70  -1.98015950E-10  -4.64057305E-11  -8.41601851E-07  -1.17594719E-07   7.04653495E-07  -1.08377940E-07   5.80763581E-07  -2.80776237E-12  -5.33301439E-08  -4.62028016E-08   2.00269398E-06   1.52730492E-18  -2.30720455E-10  -3.58800321E-15  -4.20695925E-15   3.17530666E-18
   1.76750000E+03   5.00000000E-01   5.00000000E-01  -1.07658655E-06   1.22237287E-07  -3.38690926E-15  -1.17660638E-17  -1.19811796E-17   1.12678187E-72  -1.98087175E-10  -4.25030170E-11  -8.62290249E-07  -8.64253243E-08   6.63751127E-07  -2.18359143E-08   4.27654090E-07  -2.61055837E-12  -5.40399281E-08  -4.62028016E-08   4.87198388E-06   6.89084675E-19  -2.27871950E-10  -3.58800321E-15  -4.20695949E-15   2.94594883E-18
   1.80250000E+03   5.00000000E-01   5.00000000E-01  -1.07659017E-06   1.83703838E-07  -3.38851660E-15  -1.08282018E-17  -1.10247067E-17   6.73181118E-75  -1.97951820E-10  -3.15683779E-11  -8.84848939E-07   9.06832249E-09   6.14891848E-07   8.63621127E-08   1.95450455E-07  -2.35628607E-12  -5.48001985E-08  -4.62028017E-08   6.21360751E-06   3.53540442E-19  -2.23323072E-10  -3.58800321E-15  -4.20696153E-15   3.24945513E-18
   1.83750000E+03   5.00000000E-01   5.00000000E-01  -1.07659382E-06   2.18098539E-07  -3.39053189E-15  -1.00633296E-17  -1.02420253E-17   2.00737690E-78  -1.97770810E-10  -2.16207266E-11  -9.07475661E-07   1.75608644E-07   5.83560449E-07   1.49922334E-07   6.96568889E-09  -2.00727872E-12  -5.55271011E-08  -4.62028017E-08   4.77871658E-06   1.91127542E-19  -2.14848756E-10  -3.58800321E-15  -4.20696441E-15   3.69981979E-18
   1.87250000E+03   5.00000000E-01   5.00000000E-01  -1.07659754E-06   2.31895809E-07  -3.39304056E-15  -9.40639305E-18  -9.56751267E-18   7.75228569E-82  -1.97674858E-10  -1.87168137E-11  -9.29282587E-07   3.32556865E-07   5.76347775E-07   1.28074285E-07   7.56164479E-12  -1.64479196E-12  -5.62640229E-08  -4.62028018E-08   2.84002584E-06   8.28613313E-20  -2.01792557E-10  -3.58800321E-15  -4.20696662E-15   3.77271469E-18
   1.90750000E+03   5.00000000E-01   5.00000000E-01  -1.07660301E-06   2.20828503E-07  -3.39617576E-15  -8.81704001E-18  -8.96019884E-18   2.21670386E-86  -1.97858749E-10  -2.44882371E-11  -9.47682833E-07   5.35882976E-07   5.81650159E-07   8.37684922E-08   3.38031489E-15  -1.19896973E-12  -5.70950853E-08  -4.62028019E-08   1.53573092E-06   2.76093290E-20  -1.64840288E-10  -3.58800321E-15  -4.20696834E-15   3.38705644E-18
   1.94250000E+03   5.00000000E-01   5.00000000E-01  -1.07661068E-06   1.91197309E-07  -3.40008881E-15  -8.27749400E-18  -8.40209822E-18  -3.13133900E-87  -1.98383112E-10  -4.00399680E-11  -9.33572364E-07   8.15216387E-07   5.93969874E-07   6.13796497E-10   5.87677157E-20  -4.57352713E-13  -5.79421689E-08  -4.62028021E-08   8.23541526E-07   4.56944523E-21  -1.50319584E-11  -3.58800321E-15  -4.20696942E-15   2.44494651E-18
   1.97750000E+03   5.00000000E-01   5.00000000E-01  -1.07661016E-06   1.90354687E-07  -3.40482550E-15  -7.78110383E-18  -7.88653556E-18  -2.89954054E-87  -1.98134210E-10  -5.12471869E-11  -8.90387040E-07   7.80832777E-07   5.69040815E-07   1.42262358E-13   2.72937550E-24  -7.11606201E-13  -5.88161384E-08  -4.62028023E-08   4.58822977E-07   2.71696744E-22   1.36171990E-10  -3.58800321E-15  -4.20697242E-15   1.66911415E-18
   2.01250000E+03   5.00000000E-01   5.00000000E-01  -1.07658966E-06   5.15580668E-08  -3.41051168E-15  -7.32797048E-18  -7.41386234E-18   2.64404075E-89  -1.96959927E-10  -7.22887880E-11  -8.09045875E-07   7.06981101E-07   5.24456871E-07  -2.52358251E-14  -5.63346469E-26  -8.55765922E-13  -4.46895772E-08  -4.62028025E-08   2.71297217E-07   4.93994081E-24   2.88693032E-10  -3.58800321E-15  -4.20698092E-15   1.13038817E-18
   2.04750000E+03   5.00000000E-01   5.00000000E-01  -1.07657952E-06   2.66842567E-09  -3.41767396E-15  -6.93153226E-18  -6.99882609E-18  -2.07463736E-92  -1.96868270E-10  -8.81116047E-11  -5.97805555E-07   5.14283239E-07   4.09202477E-07  -2.47316795E-14  -4.08229252E-26  -8.53330946E-13   5.94017582E-08  -4.62028025E-08   1.69511939E-07   1.23498520E-24   4.90265523E-10  -3.58800321E-15  -4.20698378E-15   3.86850832E-19
   2.08250000E+03   5.00000000E-01   5.00000000E-01  -1.07657367E-06   5.00315287E-10  -3.42655690E-15  -6.59415895E-18  -6.64439885E-18  -2.25508803E-93  -1.97035433E-10  -9.83315976E-11  -4.12289030E-07   2.60863469E-07   3.50342585E-07  -2.32450035E-14  -3.01946765E-26  -8.49320035E-13   1.17480851E-07  -4.62028019E-08   1.14089132E-07  -2.46997041E-24   4.84371881E-10  -3.58800321E-15  -4.20698466E-15  -2.14429710E-19
   2.11750000E+03   5.00000000E-01   5.00000000E-01  -1.07656600E-06   2.25378125E-10  -3.43750894E-15  -6.31385719E-18  -6.34893923E-18  -4.92945579E-94  -1.97130091E-10  -1.05888891E-10  -3.02814030E-07   8.66707717E-08   3.28072259E-07  -2.17699507E-14  -2.38033329E-26  -8.47793162E-13   1.39629002E-07  -4.62028006E-08   8.35953268E-08  -3.70495562E-24   3.81145392E-10  -3.58800321E-15  -4.20698512E-15  -6.18090663E-19
   2.15250000E+03   5.00000000E-01   5.00000000E-01  -1.07655636E-06   1.43710671E-10  -3.45098969E-15  -6.08679872E-18  -6.10886190E-18  -2.43565997E-94  -1.97161926E-10  -1.11510346E-10  -2.38056504E-07  -1.94731359E-08   3.16504196E-07  -2.03631577E-14  -1.90924086E-26  -8.47655290E-13   1.51157375E-07  -4.62027986E-08   6.60775791E-08  -4.93994083E-24   2.74563743E-10  -3.58800321E-15  -4.20698542E-15  -8.92250636E-19
   2.18750000E+03   5.00000000E-01   5.00000000E-01  -1.07654483E-06   1.09194313E-10  -3.46754973E-15  -5.90669006E-18  -5.91789281E-18  -1.96151178E-94  -1.97152423E-10  -1.15824496E-10  -1.97471551E-07  -8.57128422E-08   3.09137653E-07  -1.91346584E-14  -1.51441735E-26  -8.47203576E-13   1.58504119E-07  -4.62027955E-08   5.53025426E-08  -4.93994083E-24   1.85228090E-10  -3.58800321E-15  -4.20698563E-15  -1.08742649E-18
   2.22250000E+03   5.00000000E-01   5.00000000E-01  -1.07653137E-06   9.20081324E-11  -3.48785047E-15  -5.76603157E-18  -5.76838107E-18  -2.12258748E-94  -1.97114923E-10  -1.19250548E-10  -1.70575571E-07  -1.29076943E-07   3.04001383E-07  -1.81580814E-14  -1.17150806E-26  -8.44831215E-13   1.63627330E-07  -4.62027911E-08   4.80945136E-08   1.04973743E-23   1.13687988E-10  -3.58800321E-15  -4.20698579E-15  -1.23301201E-18
   2.25750000E+03   5.00000000E-01   5.00000000E-01  -1.07651583E-06   8.26107744E-11  -3.51268902E-15  -5.65727716E-18  -5.65253151E-18  -2.77075498E-94  -1.97057390E-10  -1.22056934E-10  -1.51876839E-07  -1.58809891E-07   3.00228774E-07  -1.73700331E-14  -8.84877955E-27  -8.40057525E-13   1.67389399E-07  -4.62027852E-08   4.28370584E-08  -6.17492603E-25   5.67176719E-11  -3.58800321E-15  -4.20698590E-15  -1.34605916E-18
   2.29250000E+03   5.00000000E-01   5.00000000E-01  -1.07649804E-06   7.71559745E-11  -3.54302759E-15  -5.57362108E-18  -5.56325696E-18  -4.12900911E-94  -1.96984781E-10  -1.24418128E-10  -1.38348823E-07  -1.80026013E-07   2.97353736E-07  -1.66178635E-14  -6.59091729E-27  -8.33561036E-13   1.70254684E-07  -4.62027773E-08   3.87023711E-08   9.26238903E-24   1.10610697E-11  -3.58800321E-15  -4.20698599E-15  -1.43683236E-18
   2.32750000E+03   5.00000000E-01   5.00000000E-01  -1.07647777E-06   7.38695676E-11  -3.58002927E-15  -5.50933578E-18  -5.49455756E-18  -6.84395690E-94  -1.96900330E-10  -1.26450442E-10  -1.28237053E-07  -1.95677927E-07   2.95100857E-07  -1.57869354E-14  -4.88455665E-27  -8.26249867E-13   1.72497745E-07  -4.62027668E-08   3.52662247E-08  -3.08746301E-24  -2.58799326E-11  -3.58800321E-15  -4.20698607E-15  -1.51176735E-18
   2.36250000E+03   5.00000000E-01   5.00000000E-01  -1.07645475E-06   7.18527781E-11  -3.62510183E-15  -5.45983538E-18  -5.44160736E-18  -1.24464579E-93  -1.96806219E-10  -1.28233423E-10  -1.20475857E-07  -2.07547472E-07   2.93297522E-07  -1.48364707E-14  -3.61804113E-27  -8.18686437E-13   1.74290705E-07  -4.62027532E-08   3.23039441E-08   6.17492600E-25  -5.60618838E-11  -3.58800321E-15  -4.20698613E-15  -1.57505373E-18
   2.39750000E+03   5.00000000E-01   5.00000000E-01  -1.07642868E-06   7.06162434E-11  -3.67995201E-15  -5.42155724E-18  -5.40064292E-18  -2.46314583E-93  -1.96703967E-10  -1.29822760E-10  -1.14390165E-07  -2.16755058E-07   2.91830493E-07  -1.37637568E-14  -2.68145723E-27  -8.11100032E-13   1.75746475E-07  -4.62027356E-08   2.96807649E-08   9.87988156E-24  -8.09423961E-11  -3.58800321E-15  -4.20698618E-15  -1.62951125E-18