 TITLE = "Mineral Rate (mol/m^3/sec)" 
VARIABLES = "X"          "Y"              "Z"            "Forsterite"     "Fayalite"       "Brucite"        "Lizardite"      "Chrysotile"     "Hematite"       "Magnetite(am)"  "Saponite(Ca)"   "Saponite(K)"    "Saponite(Mg)"   "Saponite(Na)"   "Beidellite(Ca)" "Beidellite(K)"  "Beidellite(Mg)" "Beidellite(Na)" "Enstatite(alph" "Ferrosilite(al" "Anorthite"      "Albite(low)"    "Clinochlore"    "Sudoite"        "Montmor(MgCa)"  "Montmor(MgK)"   "Montmor(MgMg)"  "Montmor(MgNa)"  "Kaolinite"      "Tremolite"      "Pargasite"      "Anhydrite"      "Epidote"        "Scolecite"      "Pyrite"         "FeS(am)"        "Quartz(alpha)"  "Titanite"       "Rutile"         "Barite"         "Fluorite"       "Spessartine(al" "Andradite"      "Celestite"      "Zincite"        "Chalcocyanite"  "Chalcocite(alp"
 ZONE I=         200 , J=           1 , K=           1  F=POINT
   8.75000000E+00   5.00000000E-01   5.00000000E-01  -1.30937399E-07  -4.78557075E-08  -1.22324417E-15  -1.02857695E-15  -9.54147769E-16   1.41311451E-08  -5.75287361E-17   1.00888255E-17   2.01398404E-14   7.32635179E-17   3.01458686E-08  -3.64914437E-17  -3.81033192E-18  -3.73412418E-17  -3.70336095E-17  -2.00034192E-10  -1.71358537E-10  -1.15439643E-07  -2.87531808E-08   2.25641986E-07   0.00000000E+00  -8.06492295E-18  -8.28215040E-19  -8.24755396E-18  -8.17474652E-18  -3.42535606E-11  -4.49670894E-08  -4.60490044E-08   0.00000000E+00  -2.82622129E-08  -1.92517909E-16  -6.91893592E-16  -6.80625971E-16   9.75227852E-18  -2.86267401E-14   1.74127353E-14   1.46761243E-10  -2.32521943E-14  -3.39632943E-09  -3.85412181E-14  -3.89292474E-15  -5.65473657E-10  -3.90435155E-15   1.82915524E-13
   2.62500000E+01   5.00000000E-01   5.00000000E-01  -1.30937406E-07  -4.78426966E-08  -1.22325316E-15  -9.55136864E-16  -9.02008230E-16   1.41311450E-08  -5.75341679E-17   3.49418897E-18   2.00113864E-14   3.95637316E-17   4.17807212E-08  -3.64901830E-17  -3.80855881E-18  -3.73353395E-17  -3.70183409E-17  -2.00213602E-10  -1.69498043E-10  -1.15439643E-07  -2.24881828E-08   2.20556205E-07   0.00000000E+00  -8.04379480E-18  -7.77557920E-19  -8.15598588E-18  -7.81257284E-18  -3.42443804E-11  -4.49884619E-08  -4.60490044E-08   0.00000000E+00  -2.82622129E-08  -1.92516272E-16  -6.91893592E-16  -6.80625971E-16   1.52972053E-17  -3.07969412E-14   1.94746617E-14   5.41389990E-11  -2.35880066E-14  -3.39632943E-09  -3.85412206E-14  -3.89417526E-15  -5.65500090E-10  -3.90435155E-15   1.71846636E-15
   4.37500000E+01   5.00000000E-01   5.00000000E-01  -1.30937407E-07  -4.78155362E-08  -1.22325483E-15  -9.00217970E-16  -8.62220772E-16   1.41311450E-08  -5.75377398E-17   3.27916810E-18   2.31809557E-14   4.02532119E-17   4.29607574E-08  -3.64807560E-17  -3.79595363E-18  -3.72912644E-17  -3.69073598E-17  -2.00238223E-10  -1.67074793E-10  -1.15439643E-07  -9.00754696E-09   2.13621145E-07   0.00000000E+00  -7.94556508E-18  -5.55297076E-19  -7.73062003E-18  -6.18158260E-18  -3.42087570E-11  -4.50031974E-08  -4.60490044E-08   0.00000000E+00  -2.82622129E-08  -1.92510679E-16  -6.91893592E-16  -6.80625971E-16   1.99723638E-17  -3.11630034E-14   2.14267205E-14   1.80229010E-11  -2.38954894E-14  -3.39632943E-09  -3.85412208E-14  -3.89531020E-15  -5.65499152E-10  -3.90435155E-15   1.71846636E-15
   6.12500000E+01   5.00000000E-01   5.00000000E-01  -1.30937407E-07  -4.77791865E-08  -1.22325538E-15  -8.71177599E-16  -8.40946368E-16   1.41311450E-08  -5.75408353E-17   3.63472108E-18   2.62827758E-14   4.42159292E-17   5.35031848E-08  -3.64558158E-17  -3.76449294E-18  -3.71748255E-17  -3.66230590E-17  -2.00237910E-10  -1.64525803E-10  -1.15439643E-07   8.23954194E-09   2.03258038E-07   0.00000000E+00  -7.74511967E-18  -1.30989656E-19  -6.86326079E-18  -2.97073977E-18  -3.41478230E-11  -4.50153538E-08  -4.60490044E-08   0.00000000E+00  -2.82622128E-08  -1.92501463E-16  -6.91893592E-16  -6.80625971E-16   2.33647031E-17  -3.12524629E-14   2.32540598E-14   2.81164648E-12  -2.41773849E-14  -3.39632943E-09  -3.85412209E-14  -3.89633083E-15  -5.65491629E-10  -3.90435155E-15   1.71846636E-15
   7.87500000E+01   5.00000000E-01   5.00000000E-01  -1.30937407E-07  -4.77379200E-08  -1.22325561E-15  -8.56590295E-16  -8.30264204E-16   1.41311450E-08  -5.75439777E-17   3.75639510E-18   2.86699078E-14   4.68915914E-17   6.67278778E-08  -3.64123604E-17  -3.71299691E-18  -3.69722320E-17  -3.61443855E-17  -2.00234761E-10  -1.62146162E-10  -1.15439643E-07   2.56409521E-08   1.92375177E-07   0.00000000E+00  -7.46089775E-18   4.27852653E-19  -5.63407068E-18   1.40850101E-18  -3.40667900E-11  -4.50309901E-08  -4.60490044E-08   0.00000000E+00  -2.82622128E-08  -1.92489668E-16  -6.91893592E-16  -6.80625971E-16   2.55016540E-17  -3.13193215E-14   2.49472927E-14  -4.07085359E-12  -2.44361637E-14  -3.39632943E-09  -3.85412209E-14  -3.89724291E-15  -5.65482040E-10  -3.90435155E-15   1.71846636E-15
   9.62500000E+01   5.00000000E-01   5.00000000E-01  -1.30937407E-07  -4.76912198E-08  -1.22325568E-15  -8.48910555E-16  -8.24703994E-16   1.41311450E-08  -5.75473163E-17   3.71204331E-18   3.02883597E-14   4.86118826E-17   7.80853612E-08  -3.63552633E-17  -3.64991746E-18  -3.67064349E-17  -3.55390570E-17  -2.00230012E-10  -1.59923871E-10  -1.15439643E-07   4.01360508E-08   1.83253554E-07   0.00000000E+00  -7.14771625E-18   9.91897757E-19  -4.28025841E-18   6.01970776E-18  -3.39779184E-11  -4.50509899E-08  -4.60490044E-08   0.00000000E+00  -2.82622127E-08  -1.92477220E-16  -6.91893592E-16  -6.80625971E-16   2.66634246E-17  -3.13778122E-14   2.64986884E-14  -7.45089986E-12  -2.46740283E-14  -3.39632943E-09  -3.85412210E-14  -3.89805308E-15  -5.65470751E-10  -3.90435155E-15   1.71846636E-15
   1.13750000E+02   5.00000000E-01   5.00000000E-01  -1.30937407E-07  -4.76371345E-08  -1.22325564E-15  -8.44527303E-16  -8.21603346E-16   1.41311449E-08  -5.75508855E-17   3.64393675E-18   3.11395674E-14   5.01710770E-17   8.60784666E-08  -3.62948813E-17  -3.58862282E-18  -3.64258186E-17  -3.49275057E-17  -2.00222676E-10  -1.57773200E-10  -1.15439643E-07   5.03455070E-08   1.76829881E-07   0.00000000E+00  -6.86156156E-18   1.45164258E-18  -3.04391731E-18   9.99497041E-18  -3.38959800E-11  -4.50740489E-08  -4.60490044E-08   0.00000000E+00  -2.82622127E-08  -1.92466031E-16  -6.91893592E-16  -6.80625971E-16   2.71771690E-17  -3.14185372E-14   2.79017321E-14  -9.29067945E-12  -2.48929317E-14  -3.39632943E-09  -3.85412210E-14  -3.89876764E-15  -5.65457750E-10  -3.90435155E-15   1.71846636E-15
   1.31250000E+02   5.00000000E-01   5.00000000E-01  -1.30937407E-07  -4.75742966E-08  -1.22325552E-15  -8.41844016E-16  -8.19776063E-16   1.41311449E-08  -5.75546986E-17   3.61717796E-18   3.12496392E-14   5.19414883E-17   9.10085768E-08  -3.62393445E-17  -3.53793543E-18  -3.61682329E-17  -3.43958353E-17  -2.00212572E-10  -1.55638324E-10  -1.15439643E-07   5.65758831E-08   1.72901158E-07   0.00000000E+00  -6.62846643E-18   1.77125694E-18  -2.03758916E-18   1.29888032E-17  -3.38291717E-11  -4.50985315E-08  -4.60490044E-08   0.00000000E+00  -2.82622126E-08  -1.92456962E-16  -6.91893592E-16  -6.80625971E-16   2.73055232E-17  -3.14413211E-14   2.91512875E-14  -1.04254592E-11  -2.50946075E-14  -3.39632943E-09  -3.85412210E-14  -3.89939235E-15  -5.65443258E-10  -3.90435155E-15   1.71846636E-15
   1.48750000E+02   5.00000000E-01   5.00000000E-01  -1.30937407E-07  -4.75019585E-08  -1.22325536E-15  -8.40158108E-16  -8.18699081E-16   1.41311449E-08  -5.75587694E-17   3.65139773E-18   3.07244449E-14   5.40503188E-17   9.37097561E-08  -3.61918716E-17  -3.50011996E-18  -3.59485696E-17  -3.39719791E-17  -2.00199923E-10  -1.53491971E-10  -1.15439643E-07   5.98353556E-08   1.70825677E-07   0.00000000E+00  -6.44842613E-18   1.96718362E-18  -1.26122090E-18   1.50650608E-17  -3.37787634E-11  -4.51231839E-08  -4.60490044E-08   0.00000000E+00  -2.82622126E-08  -1.92449987E-16  -6.91893592E-16  -6.80625971E-16   2.72247236E-17  -3.14501873E-14   3.02436792E-14  -1.12251723E-11  -2.52805990E-14  -3.39632943E-09  -3.85412211E-14  -3.89993244E-15  -5.65427576E-10  -3.90435155E-15   1.71846636E-15
   1.66250000E+02   5.00000000E-01   5.00000000E-01  -1.30937406E-07  -4.74197458E-08  -1.22325515E-15  -8.39138047E-16  -8.18126130E-16   1.41311449E-08  -5.75631121E-17   3.74777336E-18   2.97113264E-14   5.65226323E-17   9.49709196E-08  -3.61522935E-17  -3.47362682E-18  -3.57659415E-17  -3.36473216E-17  -2.00185031E-10  -1.51322992E-10  -1.15439643E-07   6.11288869E-08   1.69970783E-07   0.00000000E+00  -6.31032190E-18   2.07257527E-18  -6.66679435E-19   1.64412111E-17  -3.37424428E-11  -4.51471860E-08  -4.60490044E-08   0.00000000E+00  -2.82622125E-08  -1.92444700E-16  -6.91893592E-16  -6.80625971E-16   2.70408854E-17  -3.14496931E-14   3.11766843E-14  -1.18595552E-11  -2.54522832E-14  -3.39632943E-09  -3.85412211E-14  -3.90039267E-15  -5.65410975E-10  -3.90435155E-15   1.71846636E-15
   1.83750000E+02   5.00000000E-01   5.00000000E-01  -1.30937406E-07  -4.73275140E-08  -1.22325493E-15  -8.38606438E-16  -8.17926021E-16   1.41311448E-08  -5.75677392E-17   3.90056300E-18   2.83541112E-14   5.93383290E-17   9.53725771E-08  -3.61190409E-17  -3.45572915E-18  -3.56129689E-17  -3.34001596E-17  -2.00168177E-10  -1.49129159E-10  -1.15439643E-07   6.12151084E-08   1.69861373E-07   0.00000000E+00  -6.20162155E-18   2.11811920E-18  -1.99707313E-19   1.73366714E-17  -3.37169156E-11  -4.51700091E-08  -4.60490044E-08   0.00000000E+00  -2.82622125E-08  -1.92440642E-16  -6.91893592E-16  -6.80625971E-16   2.68130566E-17  -3.14438510E-14   3.19494762E-14  -1.24089940E-11  -2.56108910E-14  -3.39632943E-09  -3.85412211E-14  -3.90077739E-15  -5.65393668E-10  -3.90435155E-15   1.71846636E-15
   2.01250000E+02   5.00000000E-01   5.00000000E-01  -1.30937406E-07  -4.72252697E-08  -1.22325468E-15  -8.38455587E-16  -8.18019491E-16   1.41311448E-08  -5.75726614E-17   4.10195544E-18   2.67746938E-14   6.24580407E-17   9.52930323E-08  -3.60903263E-17  -3.44385800E-18  -3.54812874E-17  -3.32084852E-17  -2.00149597E-10  -1.46913094E-10  -1.15439643E-07   6.05984055E-08   1.70182832E-07   0.00000000E+00  -6.11211194E-18   2.12647191E-18   1.83919574E-19   1.79211992E-17  -3.36991493E-11  -4.51913057E-08  -4.60490044E-08   0.00000000E+00  -2.82622124E-08  -1.92437427E-16  -6.91893592E-16  -6.80625971E-16   2.65718011E-17  -3.14359044E-14   3.25625431E-14  -1.29126318E-11  -2.57575239E-14  -3.39632943E-09  -3.85412210E-14  -3.90109056E-15  -5.65375816E-10  -3.90435155E-15   1.71846636E-15
   2.18750000E+02   5.00000000E-01   5.00000000E-01  -1.30937405E-07  -4.71131203E-08  -1.22325442E-15  -8.38614020E-16  -8.18354187E-16   1.41311448E-08  -5.75778880E-17   4.34415803E-18   2.50706406E-14   6.58371027E-17   9.49615194E-08  -3.60646260E-17  -3.43602508E-18  -3.53637839E-17  -3.30545800E-17  -2.00129479E-10  -1.44679798E-10  -1.15439643E-07   5.95912289E-08   1.70741108E-07   0.00000000E+00  -6.03451937E-18   2.11266113E-18   5.15699323E-19   1.83113763E-17  -3.36867639E-11  -4.52108558E-08  -4.60490044E-08   0.00000000E+00  -2.82622124E-08  -1.92434771E-16  -6.91893592E-16  -6.80625971E-16   2.63315782E-17  -3.14283495E-14   3.30175889E-14  -1.33899726E-11  -2.58931695E-14  -3.39632943E-09  -3.85412210E-14  -3.90133579E-15  -5.65357535E-10  -3.90435155E-15   1.71846636E-15
   2.36250000E+02   5.00000000E-01   5.00000000E-01  -1.30937405E-07  -4.69912370E-08  -1.22325415E-15  -8.39031590E-16  -8.18893575E-16   1.41311448E-08  -5.75834279E-17   4.62025072E-18   2.33177684E-14   6.94332658E-17   9.45098238E-08  -3.60407921E-17  -3.43083174E-18  -3.52551093E-17  -3.29256275E-17  -2.00107967E-10  -1.42435126E-10  -1.15439643E-07   5.83784156E-08   1.71422036E-07   0.00000000E+00  -5.96402962E-18   2.08606441E-18   8.16478006E-19   1.85821250E-17  -3.36780372E-11  -4.52285409E-08  -4.60490044E-08   0.00000000E+00  -2.82622123E-08  -1.92432478E-16  -6.91893592E-16  -6.80625971E-16   2.60982357E-17  -3.14230297E-14   3.33174230E-14  -1.38508963E-11  -2.60187146E-14  -3.39632943E-09  -3.85412210E-14  -3.90151638E-15  -5.65338905E-10  -3.90435155E-15   1.71846636E-15
   2.53750000E+02   5.00000000E-01   5.00000000E-01  -1.30937405E-07  -4.68598256E-08  -1.22325386E-15  -8.39671580E-16  -8.19611070E-16   1.41311447E-08  -5.75892907E-17   4.92448133E-18   2.15733816E-14   7.32107289E-17   9.40099558E-08  -3.60180193E-17  -3.42734875E-18  -3.51515169E-17  -3.28129280E-17  -2.00085169E-10  -1.40184859E-10  -1.15439643E-07   5.70652843E-08   1.72161073E-07   0.00000000E+00  -5.89761384E-18   2.05229321E-18   1.09936749E-18   1.87794644E-17  -3.36717837E-11  -4.52443292E-08  -4.60490044E-08   0.00000000E+00  -2.82622123E-08  -1.92430420E-16  -6.91893592E-16  -6.80625971E-16   2.58732920E-17  -3.14212429E-14   3.34658429E-14  -1.43004402E-11  -2.61349563E-14  -3.39632943E-09  -3.85412210E-14  -3.90163532E-15  -5.65319977E-10  -3.90435155E-15   1.71846636E-15
   2.71250000E+02   5.00000000E-01   5.00000000E-01  -1.30937404E-07  -4.67191026E-08  -1.22325357E-15  -8.40506279E-16  -8.20486749E-16   1.41311447E-08  -5.75954872E-17   5.25230747E-18   1.98792006E-14   7.71419255E-17   9.34986638E-08  -3.59957728E-17  -3.42498471E-18  -3.50505246E-17  -3.27108617E-17  -2.00061157E-10  -1.37934172E-10  -1.15439643E-07   5.57094638E-08   1.72923342E-07   0.00000000E+00  -5.83345814E-18   2.01458173E-18   1.37221600E-18   1.89305224E-17  -3.36672180E-11  -4.52582606E-08  -4.60490044E-08   0.00000000E+00  -2.82622122E-08  -1.92428515E-16  -6.91893592E-16  -6.80625971E-16   2.56562834E-17  -3.14238443E-14   3.34675126E-14  -1.47411472E-11  -2.62426129E-14  -3.39632943E-09  -3.85412210E-14  -3.90169534E-15  -5.65300783E-10  -3.90435155E-15   1.71846636E-15
   2.88750000E+02   5.00000000E-01   5.00000000E-01  -1.30937404E-07  -4.65692747E-08  -1.22325326E-15  -8.41514769E-16  -8.21505740E-16   1.41311447E-08  -5.76020303E-17   5.60032632E-18   1.82639812E-14   8.12079366E-17   9.29924918E-08  -3.59737196E-17  -3.42337925E-18  -3.49505894E-17  -3.26159889E-17  -2.00035978E-10  -1.35687350E-10  -1.15439643E-07   5.43407522E-08   1.73691213E-07   0.00000000E+00  -5.77054925E-18   1.97471166E-18   1.63940310E-18   1.90504853E-17  -3.36638395E-11  -4.52704326E-08  -4.60490044E-08   0.00000000E+00  -2.82622122E-08  -1.92426713E-16  -6.91893592E-16  -6.80625971E-16   2.54459990E-17  -3.14313376E-14   3.33278400E-14  -1.51742493E-11  -2.63423320E-14  -3.39632943E-09  -3.85412210E-14  -3.90169892E-15  -5.65281339E-10  -3.90435155E-15   1.71846636E-15
   3.06250000E+02   5.00000000E-01   5.00000000E-01  -1.30937403E-07  -4.64105241E-08  -1.22325294E-15  -8.42682181E-16  -8.22657738E-16   1.41311447E-08  -5.76089352E-17   5.96615503E-18   1.67459255E-14   8.53980575E-17   9.24967548E-08  -3.59516728E-17  -3.42232520E-18  -3.48508484E-17  -3.25263686E-17  -2.00009654E-10  -1.33447678E-10  -1.15439643E-07   5.29731381E-08   1.74456814E-07   0.00000000E+00  -5.70839184E-18   1.93359980E-18   1.90306483E-18   1.91471689E-17  -3.36613445E-11  -4.52809841E-08  -4.60490044E-08   0.00000000E+00  -2.82622121E-08  -1.92424986E-16  -6.91893592E-16  -6.80625971E-16   2.52410951E-17  -3.14439530E-14   3.30528561E-14  -1.56002782E-11  -2.64346985E-14  -3.39632943E-09  -3.85412210E-14  -3.90164830E-15  -5.65261647E-10  -3.90435155E-15   1.71846636E-15
   3.23750000E+02   5.00000000E-01   5.00000000E-01  -1.30937402E-07  -4.62429979E-08  -1.22325261E-15  -8.43999746E-16  -8.23937144E-16   1.41311446E-08  -5.76162199E-17   6.34828765E-18   1.53349077E-14   8.97088277E-17   9.20108219E-08  -3.59295492E-17  -3.42171413E-18  -3.47509208E-17  -3.24410634E-17  -1.99982190E-10  -1.31217458E-10  -1.15439643E-07   5.16119700E-08   1.75217575E-07   0.00000000E+00  -5.64681929E-18   1.89166412E-18   2.16391388E-18   1.92239667E-17  -3.36595617E-11  -4.52900811E-08  -4.60490044E-08   0.00000000E+00  -2.82622120E-08  -1.92423321E-16  -6.91893592E-16  -6.80625971E-16   2.50403735E-17  -3.14617147E-14   3.26490978E-14  -1.60193885E-11  -2.65202416E-14  -3.39632943E-09  -3.85412209E-14  -3.90154550E-15  -5.65241701E-10  -3.90435155E-15   1.71846636E-15
   3.41250000E+02   5.00000000E-01   5.00000000E-01  -1.30937402E-07  -4.60668034E-08  -1.22325227E-15  -8.45464976E-16  -8.25343313E-16   1.41311446E-08  -5.76239052E-17   6.74593750E-18   1.40344840E-14   9.41427203E-17   9.15312265E-08  -3.59073375E-17  -3.42149848E-18  -3.46507581E-17  -3.23597818E-17  -1.99953573E-10  -1.28998115E-10  -1.15439642E-07   5.02582097E-08   1.75973587E-07   0.00000000E+00  -5.58586564E-18   1.84905108E-18   2.42179454E-18   1.92817547E-17  -3.36584052E-11  -4.52979018E-08  -4.60490044E-08   0.00000000E+00  -2.82622120E-08  -1.92421714E-16  -6.91893592E-16  -6.80625971E-16   2.48428792E-17  -3.14844982E-14   3.21234962E-14  -1.64315312E-11  -2.65994406E-14  -3.39632943E-09  -3.85412209E-14  -3.90139238E-15  -5.65221485E-10  -3.90435155E-15   1.71846636E-15
   3.58750000E+02   5.00000000E-01   5.00000000E-01  -1.30937401E-07  -4.58820106E-08  -1.22325191E-15  -8.47081534E-16  -8.26880539E-16   1.41311445E-08  -5.76320148E-17   7.15887008E-18   1.28436463E-14   9.87066474E-17   9.10535038E-08  -3.58850729E-17  -3.42166495E-18  -3.45505258E-17  -3.22826140E-17  -1.99923777E-10  -1.26790373E-10  -1.15439642E-07   4.89109487E-08   1.76726042E-07   0.00000000E+00  -5.52567631E-18   1.80577733E-18   2.67606955E-18   1.93201396E-17  -3.36578402E-11  -4.53046244E-08  -4.60490044E-08   0.00000000E+00  -2.82622119E-08  -1.92420166E-16  -6.91893592E-16  -6.80625971E-16   2.46479076E-17  -3.15120794E-14   3.14832728E-14  -1.68365494E-11  -2.66727299E-14  -3.39632943E-09  -3.85412209E-14  -3.90119058E-15  -5.65200981E-10  -3.90435155E-15   1.71846636E-15
   3.76250000E+02   5.00000000E-01   5.00000000E-01  -1.30937400E-07  -4.56886604E-08  -1.22325155E-15  -8.48858655E-16  -8.28557688E-16   1.41311445E-08  -5.76405748E-17   7.58723593E-18   1.17582925E-14   1.03410453E-16   9.05732426E-08  -3.58628160E-17  -3.42221582E-18  -3.44505073E-17  -3.22098347E-17  -1.99892771E-10  -1.24594478E-10  -1.15439642E-07   4.75688687E-08   1.77476324E-07   0.00000000E+00  -5.46644455E-18   1.76181720E-18   2.92589563E-18   1.93382796E-17  -3.36578576E-11  -4.53104176E-08  -4.60490044E-08   0.00000000E+00  -2.82622118E-08  -1.92418680E-16  -6.91893592E-16  -6.80625971E-16   2.44549689E-17  -3.15441746E-14   3.07358428E-14  -1.72342306E-11  -2.67405044E-14  -3.39632943E-09  -3.85412209E-14  -3.90094160E-15  -5.65180167E-10  -3.90435155E-15   1.71846636E-15
   3.93750000E+02   5.00000000E-01   5.00000000E-01  -1.30937399E-07  -4.54867767E-08  -1.22325116E-15  -8.50810308E-16  -8.30387588E-16   1.41311445E-08  -5.76496135E-17   8.03142122E-18   1.07724021E-14   1.08265609E-16   9.00865844E-08  -3.58406373E-17  -3.42315660E-18  -3.43510296E-17  -3.21417628E-17  -1.99860516E-10  -1.22410417E-10  -1.15439642E-07   4.62310190E-08   1.78225548E-07   0.00000000E+00  -5.40836762E-18   1.71715281E-18   3.17041280E-18   1.93353943E-17  -3.36584566E-11  -4.53154332E-08  -4.60490044E-08   0.00000000E+00  -2.82622117E-08  -1.92417260E-16  -6.91893592E-16  -6.80625971E-16   2.42637398E-17  -3.15804718E-14   2.98887280E-14  -1.76243373E-11  -2.68031228E-14  -3.39632943E-09  -3.85412209E-14  -3.90064675E-15  -5.65159019E-10  -3.90435155E-15   1.71846636E-15
   4.11250000E+02   5.00000000E-01   5.00000000E-01  -1.30937398E-07  -4.52763785E-08  -1.22325077E-15  -8.52954305E-16  -8.32386366E-16   1.41311444E-08  -5.76591614E-17   8.49193836E-18   9.87892352E-15   1.13284306E-16   8.95902955E-08  -3.58186063E-17  -3.42448926E-18  -3.42524144E-17  -3.20786781E-17  -1.99826970E-10  -1.20238097E-10  -1.15439642E-07   4.48971193E-08   1.78974387E-07   0.00000000E+00  -5.35162151E-18   1.67179656E-18   3.40885428E-18   1.93110228E-17  -3.36596341E-11  -4.53198044E-08  -4.60490044E-08   0.00000000E+00  -2.82622116E-08  -1.92415909E-16  -6.91893592E-16  -6.80625971E-16   2.40740178E-17  -3.16206510E-14   2.89494791E-14  -1.80066231E-11  -2.68609114E-14  -3.39632943E-09  -3.85412208E-14  -3.90030722E-15  -5.65137515E-10  -3.90435155E-15   1.71846636E-15
   4.28750000E+02   5.00000000E-01   5.00000000E-01  -1.30937397E-07  -4.50574872E-08  -1.22325036E-15  -8.55311543E-16  -8.34572885E-16   1.41311444E-08  -5.76692510E-17   8.96937158E-18   9.07039796E-15   1.18479034E-16   8.90815443E-08  -3.57967867E-17  -3.42621015E-18  -3.41549569E-17  -3.20207913E-17  -1.99792090E-10  -1.18077425E-10  -1.15439642E-07   4.35675396E-08   1.79723122E-07   0.00000000E+00  -5.29635227E-18   1.62579332E-18   3.64058356E-18   1.92650785E-17  -3.36613821E-11  -4.53236462E-08  -4.60490044E-08  -4.04610777E-33  -2.82622115E-08  -1.92414631E-16  -6.91893592E-16  -6.80625971E-16   2.38856881E-17  -3.16643946E-14   2.79256064E-14  -1.83808425E-11  -2.69141678E-14  -3.39632943E-09  -3.85412208E-14  -3.89992406E-15  -5.65115631E-10  -3.90435155E-15   1.71846635E-15
   4.46250000E+02   5.00000000E-01   5.00000000E-01  -1.30937395E-07  -4.48301276E-08  -1.22324994E-15  -8.57905466E-16  -8.36968332E-16   1.41311443E-08  -5.76799167E-17   9.46437428E-18   8.33936415E-15   1.23862559E-16   8.85575672E-08  -3.57752374E-17  -3.42831126E-18  -3.40589282E-17  -3.19682541E-17  -1.99755831E-10  -1.15928317E-10  -1.15439641E-07   4.22431061E-08   1.80471797E-07   0.00000000E+00  -5.24268010E-18   1.57921101E-18   3.86507724E-18   1.91977724E-17  -3.36636881E-11  -4.53270588E-08  -4.60490044E-08   0.00000000E+00  -2.82622114E-08  -1.92413426E-16  -6.91893592E-16  -6.80625971E-16   2.36987043E-17  -3.17113903E-14   2.68245206E-14  -1.87467564E-11  -2.69631630E-14  -3.39632943E-09  -3.85412208E-14  -3.89949819E-15  -5.65093344E-10  -3.90435155E-15   1.71846635E-15
   4.63750000E+02   5.00000000E-01   5.00000000E-01  -1.30937394E-07  -4.45943238E-08  -1.22324950E-15  -8.60761751E-16  -8.39595990E-16   1.41311442E-08  -5.76911952E-17   9.97769588E-18   7.67859908E-15   1.29448059E-16   8.80154102E-08  -3.57540155E-17  -3.43078259E-18  -3.39645903E-17  -3.19211863E-17  -1.99718145E-10  -1.13790641E-10  -1.15439641E-07   4.09248773E-08   1.81220370E-07   0.00000000E+00  -5.19070860E-18   1.53212825E-18   4.08188485E-18   1.91094925E-17  -3.36665387E-11  -4.53301306E-08  -4.60490044E-08  -2.85217819E-19  -2.82622113E-08  -1.92412297E-16  -6.91893592E-16  -6.80625971E-16   2.35130769E-17  -3.17613303E-14   2.56534817E-14  -1.91041350E-11  -2.70081444E-14  -3.39632943E-09  -3.85412208E-14  -3.89903039E-15  -5.65070632E-10  -3.90435155E-15   1.71846635E-15
   4.81250000E+02   5.00000000E-01   5.00000000E-01  -1.30937392E-07  -4.43500943E-08  -1.22324905E-15  -8.63908231E-16  -8.42481205E-16   1.41311442E-08  -5.77031254E-17   1.05102065E-17   7.08125264E-15   1.35249148E-16   8.74518713E-08  -3.57331787E-17  -3.43361377E-18  -3.38722077E-17  -3.18796968E-17  -1.99678979E-10  -1.11664173E-10  -1.15439641E-07   3.96139962E-08   1.81968797E-07   0.00000000E+00  -5.14053183E-18   1.48462634E-18   4.29059871E-18   1.90007196E-17  -3.36699210E-11  -4.53329397E-08  -4.60490044E-08  -1.74589610E-18  -2.82622112E-08  -1.92411244E-16  -6.91893592E-16  -6.80625971E-16   2.33288669E-17  -3.18139116E-14   2.44195571E-14  -1.94527596E-11  -2.70493381E-14  -3.39632943E-09  -3.85412207E-14  -3.89852135E-15  -5.65047471E-10  -3.90435155E-15   1.71846634E-15
   4.98750000E+02   5.00000000E-01   5.00000000E-01  -1.30937390E-07  -4.40974525E-08  -1.22324858E-15  -8.67375092E-16  -8.45651567E-16   1.41311441E-08  -5.77157491E-17   1.10628936E-17   6.54092299E-15   1.41279640E-16   8.68636504E-08  -3.57127852E-17  -3.43679400E-18  -3.37820453E-17  -3.18438811E-17  -1.99638278E-10  -1.09548596E-10  -1.15439641E-07   3.83116610E-08   1.82717025E-07   0.00000000E+00  -5.09223404E-18   1.43678828E-18   4.49085519E-18   1.88720187E-17  -3.36738230E-11  -4.53355532E-08  -4.60490044E-08  -3.88625250E-18  -2.82622110E-08  -1.92410269E-16  -6.91893592E-16  -6.80625971E-16   2.31461770E-17  -3.18688388E-14   2.31295868E-14  -1.97924230E-11  -2.70869504E-14  -3.39632943E-09  -3.85412207E-14  -3.89797166E-15  -5.65023837E-10  -3.90435155E-15   1.71846634E-15
   5.16250000E+02   5.00000000E-01   5.00000000E-01  -1.30937388E-07  -4.38364138E-08  -1.22324810E-15  -8.71195330E-16  -8.49137326E-16   1.41311440E-08  -5.77291109E-17   1.16368227E-17   6.05170261E-15   1.47553045E-16   8.62476148E-08  -3.56928896E-17  -3.44031032E-18  -3.36943509E-17  -3.18137967E-17  -1.99595984E-10  -1.07443577E-10  -1.15439640E-07   3.70191906E-08   1.83464909E-07   0.00000000E+00  -5.04588153E-18   1.38870371E-18   4.68236945E-18   1.87241021E-17  -3.36782303E-11  -4.53380245E-08  -4.60490044E-08  -6.98074389E-18  -2.82622109E-08  -1.92409372E-16  -6.91893592E-16  -6.80625971E-16   2.29651389E-17  -3.19258293E-14   2.17901568E-14  -2.01229297E-11  -2.71211700E-14  -3.39632943E-09  -3.85412207E-14  -3.89738178E-15  -5.64999705E-10  -3.90435155E-15   1.71846632E-15
   5.33750000E+02   5.00000000E-01   5.00000000E-01  -1.30937386E-07  -4.35670098E-08  -1.22324760E-15  -8.75405488E-16  -8.52972032E-16   1.41311440E-08  -5.77432586E-17   1.22330719E-17   5.60820808E-15   1.54082001E-16   8.56010408E-08  -3.56735366E-17  -3.44414528E-18  -3.36093267E-17  -3.17894273E-17  -1.99552036E-10  -1.05348876E-10  -1.15439640E-07   3.57381181E-08   1.84212135E-07   0.00000000E+00  -5.00151071E-18   1.34047549E-18   4.86498712E-18   1.85579194E-17  -3.36831228E-11  -4.53403913E-08  -4.60490044E-08  -1.14115964E-17  -2.82622107E-08  -1.92408554E-16  -6.91893592E-16  -6.80625971E-16   2.27858996E-17  -3.19846198E-14   2.04075792E-14  -2.04440956E-11  -2.71521695E-14  -3.39632943E-09  -3.85412206E-14  -3.89675209E-15  -5.64975054E-10  -3.90435155E-15   1.71846630E-15
   5.51250000E+02   5.00000000E-01   5.00000000E-01  -1.30937384E-07  -4.32893046E-08  -1.22324708E-15  -8.80046597E-16  -8.57193376E-16   1.41311439E-08  -5.77582439E-17   1.28526699E-17   5.20559461E-15   1.60877896E-16   8.49217039E-08  -3.56547559E-17  -3.44827537E-18  -3.35271044E-17  -3.17706550E-17  -1.99506374E-10  -1.03264469E-10  -1.15439640E-07   3.44702361E-08   1.84958171E-07   0.00000000E+00  -4.95911829E-18   1.29222325E-18   5.03872591E-18   1.83747153E-17  -3.36884721E-11  -4.53426738E-08  -4.60490044E-08  -1.77105220E-17  -2.82622106E-08  -1.92407813E-16  -6.91893592E-16  -6.80625971E-16   2.26086075E-17  -3.20449707E-14   1.89878779E-14  -2.07557471E-11  -2.71801067E-14  -3.39632943E-09  -3.85412206E-14  -3.89608290E-15  -5.64949861E-10  -3.90435155E-15   1.71846627E-15
   5.68750000E+02   5.00000000E-01   5.00000000E-01  -1.30937381E-07  -4.30034069E-08  -1.22324655E-15  -8.85165272E-16  -8.61844164E-16   1.41311438E-08  -5.77741224E-17   1.34965649E-17   4.83955121E-15   1.67950898E-16   8.42077643E-08  -3.56365600E-17  -3.45267126E-18  -3.34477367E-17  -3.17572573E-17  -1.99458938E-10  -1.01190603E-10  -1.15439639E-07   3.32175450E-08   1.85702322E-07   0.00000000E+00  -4.91865981E-18   1.24408052E-18   5.20378186E-18   1.81760111E-17  -3.36942415E-11  -4.53448771E-08  -4.60490044E-08  -2.66159400E-17  -2.82622104E-08  -1.92407146E-16  -6.91893592E-16  -6.80625971E-16   2.24334044E-17  -3.21066665E-14   1.75367797E-14  -2.10577214E-11  -2.72051261E-14  -3.39632943E-09  -3.85412206E-14  -3.89537441E-15  -5.64924106E-10  -3.90435155E-15   1.71846622E-15
   5.86250000E+02   5.00000000E-01   5.00000000E-01  -1.30937378E-07  -4.27094708E-08  -1.22324600E-15  -8.90814863E-16  -8.66973355E-16   1.41311437E-08  -5.77909540E-17   1.41656469E-17   4.50627357E-15   1.75310457E-16   8.34574923E-08  -3.56189469E-17  -3.45730012E-18  -3.33712106E-17  -3.17489349E-17  -1.99409672E-10  -9.91277698E-11  -1.15439639E-07   3.19821005E-08   1.86443844E-07   0.00000000E+00  -4.88005893E-18   1.19618535E-18   5.36048899E-18   1.79634965E-17  -3.37003887E-11  -4.53469951E-08  -4.60490044E-08  -3.91507476E-17  -2.82622102E-08  -1.92406549E-16  -6.91893592E-16  -6.80625971E-16   2.22604225E-17  -3.21695125E-14   1.60597100E-14  -2.13498656E-11  -2.72273596E-14  -3.39632943E-09  -3.85412205E-14  -3.89462673E-15  -5.64897772E-10  -3.90435155E-15   1.71846615E-15
   6.03750000E+02   5.00000000E-01   5.00000000E-01  -1.30937375E-07  -4.24076850E-08  -1.22324544E-15  -8.97056637E-16  -8.72637136E-16   1.41311436E-08  -5.78088037E-17   1.48608190E-17   4.20241691E-15   1.82966134E-16   8.26689572E-08  -3.56019082E-17  -3.46212934E-18  -3.32974825E-17  -3.17453645E-17  -1.99358515E-10  -9.70765825E-11  -1.15439638E-07   3.07658032E-08   1.87182107E-07   0.00000000E+00  -4.84322566E-18   1.14866710E-18   5.50924074E-18   1.77388613E-17  -3.37068715E-11  -4.53490165E-08  -4.60490044E-08  -5.67265762E-17  -2.82622100E-08  -1.92406018E-16  -6.91893592E-16  -6.80625971E-16   2.20897888E-17  -3.22333278E-14   1.45617921E-14  -2.16320379E-11  -2.72469281E-14  -3.39632943E-09  -3.85412205E-14  -3.89383992E-15  -5.64870841E-10  -3.90435155E-15   1.71846603E-15
   6.21250000E+02   5.00000000E-01   5.00000000E-01  -1.30937371E-07  -4.20982520E-08  -1.22324486E-15  -9.03961001E-16  -8.78900060E-16   1.41311435E-08  -5.78277420E-17   1.55830992E-17   3.92503640E-15   1.90928475E-16   8.18398192E-08  -3.55854384E-17  -3.46713041E-18  -3.32265221E-17  -3.17462580E-17  -1.99305403E-10  -9.50376098E-11  -1.15439638E-07   2.95701980E-08   1.87916723E-07   0.00000000E+00  -4.80807805E-18   1.10163391E-18   5.65039705E-18   1.75036192E-17  -3.37136531E-11  -4.53509299E-08  -4.60490044E-08  -8.12806755E-17  -2.82622098E-08  -1.92405549E-16  -6.91893592E-16  -6.80625971E-16   2.19216307E-17  -3.22979391E-14   1.30478496E-14  -2.19041070E-11  -2.72639421E-14  -3.39632943E-09  -3.85412204E-14  -3.89301395E-15  -5.64843296E-10  -3.90435155E-15   1.71846586E-15