 TITLE = "Mineral Rate (mol/m^3/sec)" 
VARIABLES = "X"          "Y"              "Z"            "Forsterite"     "Fayalite"       "Brucite"        "Lizardite"      "Chrysotile"     "Hematite"       "Magnetite(am)"  "Saponite(Ca)"   "Saponite(K)"    "Saponite(Mg)"   "Saponite(Na)"   "Beidellite(Ca)" "Beidellite(K)"  "Beidellite(Mg)" "Beidellite(Na)" "Enstatite(alph" "Ferrosilite(al" "Anorthite"      "Albite(low)"    "Clinochlore"    "Sudoite"        "Montmor(MgCa)"  "Montmor(MgK)"   "Montmor(MgMg)"  "Montmor(MgNa)"  "Kaolinite"      "Tremolite"      "Pargasite"      "Anhydrite"      "Epidote"        "Scolecite"      "Pyrite"         "FeS(am)"        "Quartz(alpha)" 
 ZONE I=         200 , J=           1 , K=           1  F=POINT
   8.75000000E+00   5.00000000E-01   5.00000000E-01  -1.31043915E-07  -4.78715586E-08   0.00000000E+00   0.00000000E+00   0.00000000E+00   1.42055911E-08   0.00000000E+00   1.01491313E-18   2.99160599E-08   8.40970068E-17   2.77245793E-09  -3.65193255E-17  -3.81062765E-18  -3.73695486E-17  -3.70619115E-17  -2.00040019E-10  -1.71403745E-10  -1.15730092E-07  -2.86228194E-08   2.22387623E-07  -3.97588117E-15  -8.06610116E-18  -8.24294638E-18  -8.24805359E-18  -8.17246191E-18  -3.42552883E-11  -4.50934277E-08  -4.61738405E-08   0.00000000E+00  -2.84111821E-08  -1.93413717E-16  -6.93628692E-16  -6.81900470E-16   9.63625936E-18
   2.62500000E+01   5.00000000E-01   5.00000000E-01  -1.31043922E-07  -4.78701275E-08   0.00000000E+00   0.00000000E+00   0.00000000E+00   1.42055910E-08   0.00000000E+00   1.62235099E-19   4.59161889E-08   3.12448332E-17   4.67117492E-09  -3.65159086E-17  -3.80583023E-18  -3.73535521E-17  -3.70205266E-17  -2.00261899E-10  -1.70286860E-10  -1.15730092E-07  -1.97081303E-08   2.14943421E-07  -3.15850628E-15  -8.02660388E-18  -7.30098642E-18  -8.07687214E-18  -7.49524657E-18  -3.42324740E-11  -4.51161386E-08  -4.61738405E-08   0.00000000E+00  -2.84111820E-08  -1.93410106E-16  -6.93628692E-16  -6.81897601E-16   1.47059812E-17
   4.37500000E+01   5.00000000E-01   5.00000000E-01  -1.31043923E-07  -4.78496372E-08   0.00000000E+00   0.00000000E+00   0.00000000E+00   1.42055910E-08   0.00000000E+00   1.13358914E-19   4.68705571E-08   2.86181988E-17   5.53993407E-09  -3.64907231E-17  -3.77221094E-18  -3.72357970E-17  -3.67240340E-17  -2.00289413E-10  -1.68310271E-10  -1.15730092E-07  -1.71446247E-09   2.05645680E-07  -2.11764992E-15  -7.85163228E-18  -3.36512793E-18  -7.31911896E-18  -4.58975186E-18  -3.41432831E-11  -4.51266049E-08  -4.61738405E-08   0.00000000E+00  -2.84111820E-08  -1.93398110E-16  -6.93628692E-16  -6.81894577E-16   1.88170449E-17
   6.12500000E+01   5.00000000E-01   5.00000000E-01  -1.31043923E-07  -4.78186435E-08   0.00000000E+00   0.00000000E+00   0.00000000E+00   1.42055910E-08   0.00000000E+00   1.30588018E-19   5.60868979E-08   3.06500693E-17   7.77649364E-09  -3.64357649E-17  -3.70328399E-18  -3.69792140E-17  -3.60989571E-17  -2.00288023E-10  -1.66088494E-10  -1.15730092E-07   1.81826256E-08   1.93807278E-07  -1.20465907E-15  -7.55180105E-18   2.92161883E-18  -6.02136192E-18   2.03603165E-19  -3.40152335E-11  -4.51349466E-08  -4.61738405E-08   0.00000000E+00  -2.84111819E-08  -1.93381546E-16  -6.93628692E-16  -6.81891708E-16   2.15982999E-17
   7.87500000E+01   5.00000000E-01   5.00000000E-01  -1.31043923E-07  -4.77813989E-08   0.00000000E+00   0.00000000E+00   0.00000000E+00   1.42055909E-08   0.00000000E+00   1.38305804E-19   6.58704524E-08   3.23128087E-17   1.07864795E-08  -3.63575143E-17  -3.61180953E-18  -3.66144300E-17  -3.52422506E-17  -2.00282834E-10  -1.63949583E-10  -1.15730092E-07   3.55481097E-08   1.83013459E-07  -6.87642960E-16  -7.19518389E-18   9.81708401E-18  -4.47835038E-18   5.66438913E-18  -3.38728299E-11  -4.51489644E-08  -4.61738405E-08   0.00000000E+00  -2.84111819E-08  -1.93363642E-16  -6.93628692E-16  -6.81889281E-16   2.31984581E-17
   9.62500000E+01   5.00000000E-01   5.00000000E-01  -1.31043923E-07  -4.77370801E-08   0.00000000E+00   0.00000000E+00   0.00000000E+00   1.42055909E-08   0.00000000E+00   1.41111781E-19   7.20955570E-08   3.38267286E-17   1.40228628E-08  -3.62730045E-17  -3.52104985E-18  -3.62211194E-17  -3.43580781E-17  -2.00275155E-10  -1.61872043E-10  -1.15730092E-07   4.80271450E-08   1.75212665E-07  -4.55017321E-16  -6.86184360E-18   1.56210684E-17  -3.03653156E-18   1.04971053E-17  -3.37429697E-11  -4.51665607E-08  -4.61738405E-08   0.00000000E+00  -2.84111818E-08  -1.93347610E-16  -6.93628692E-16  -6.81887179E-16   2.39894806E-17
   1.13750000E+02   5.00000000E-01   5.00000000E-01  -1.31043923E-07  -4.76837857E-08   0.00000000E+00   0.00000000E+00   0.00000000E+00   1.42055909E-08   0.00000000E+00   1.47100319E-19   7.45202634E-08   3.56911293E-17   1.72492863E-08  -3.61986999E-17  -3.44983928E-18  -3.58760226E-17  -3.36257293E-17  -2.00264389E-10  -1.59781799E-10  -1.15730092E-07   5.55269345E-08   1.70530235E-07  -3.52365902E-16  -6.59852305E-18   1.95502278E-17  -1.89827238E-18   1.40285939E-17  -3.36448111E-11  -4.51855751E-08  -4.61738405E-08   0.00000000E+00  -2.84111818E-08  -1.93335346E-16  -6.93628692E-16  -6.81885329E-16   2.43098369E-17
   1.31250000E+02   5.00000000E-01   5.00000000E-01  -1.31043923E-07  -4.76201088E-08   0.00000000E+00   0.00000000E+00   0.00000000E+00   1.42055909E-08   0.00000000E+00   1.59115052E-19   7.41771441E-08   3.81258066E-17   2.04306207E-08  -3.61412047E-17  -3.40320520E-18  -3.56097410E-17  -3.31046002E-17  -2.00250588E-10  -1.57636760E-10  -1.15730092E-07   5.92556210E-08   1.68197523E-07  -3.04849423E-16  -6.40893221E-18   2.17488693E-17  -1.07973715E-18   1.62872491E-17  -3.35813866E-11  -4.52047203E-08  -4.61738405E-08   0.00000000E+00  -2.84111817E-08  -1.93326897E-16  -6.93628692E-16  -6.81883725E-16   2.43879324E-17
   1.48750000E+02   5.00000000E-01   5.00000000E-01  -1.31043923E-07  -4.75450927E-08   0.00000000E+00   0.00000000E+00   0.00000000E+00   1.42055908E-08   0.00000000E+00   1.77578348E-19   7.20856396E-08   4.12274830E-17   2.36048598E-08  -3.60996311E-17  -3.37744387E-18  -3.54179438E-17  -3.27716618E-17  -2.00234044E-10  -1.55418918E-10  -1.15730092E-07   6.05526482E-08   1.67370324E-07  -2.81863784E-16  -6.27680067E-18   2.27046130E-17  -5.10518056E-19   1.75930288E-17  -3.35466677E-11  -4.52233332E-08  -4.61738405E-08   0.00000000E+00  -2.84111817E-08  -1.93321449E-16  -6.93628692E-16  -6.81882379E-16   2.43564297E-17
   1.66250000E+02   5.00000000E-01   5.00000000E-01  -1.31043922E-07  -4.74582723E-08   0.00000000E+00   0.00000000E+00   0.00000000E+00   1.42055908E-08   0.00000000E+00   2.01715479E-19   6.90131734E-08   4.50022542E-17   2.68138838E-08  -3.60697727E-17  -3.36598526E-18  -3.52808972E-17  -3.25724054E-17  -2.00215170E-10  -1.53129626E-10  -1.15730092E-07   6.04578742E-08   1.67395164E-07  -2.70423406E-16  -6.18222736E-18   2.29002319E-17  -1.04387703E-19   1.82923198E-17  -3.35317310E-11  -4.52410440E-08  -4.61738405E-08   0.00000000E+00  -2.84111816E-08  -1.93318009E-16  -6.93628692E-16  -6.81881300E-16   2.42827661E-17
   1.83750000E+02   5.00000000E-01   5.00000000E-01  -1.31043922E-07  -4.73597173E-08   0.00000000E+00   0.00000000E+00   0.00000000E+00   1.42055908E-08   0.00000000E+00   2.30148343E-19   6.54690842E-08   4.93754038E-17   3.00790022E-08  -3.60468715E-17  -3.36265153E-18  -3.51763699E-17  -3.24515231E-17  -2.00194438E-10  -1.50784896E-10  -1.15730091E-07   5.96636712E-08   1.67838292E-07  -2.64645530E-16  -6.10844762E-18   2.26979243E-17   2.11345897E-19   1.86590203E-17  -3.35281962E-11  -4.52576242E-08  -4.61738405E-08   0.00000000E+00  -2.84111816E-08  -1.93315713E-16  -6.93628692E-16  -6.81880491E-16   2.41956581E-17
   2.01250000E+02   5.00000000E-01   5.00000000E-01  -1.31043922E-07  -4.72493274E-08   0.00000000E+00   0.00000000E+00   0.00000000E+00   1.42055908E-08   0.00000000E+00   2.62235924E-19   6.16778749E-08   5.43398343E-17   3.33868507E-08  -3.60281716E-17  -3.36398883E-18  -3.50914957E-17  -3.23775711E-17  -2.00172062E-10  -1.48393337E-10  -1.15730091E-07   5.85205222E-08   1.68489624E-07  -2.61708233E-16  -6.04635000E-18   2.22874339E-17   4.76204512E-19   1.88394471E-17  -3.35314072E-11  -4.52732187E-08  -4.61738405E-08   0.00000000E+00  -2.84111815E-08  -1.93314095E-16  -6.93628692E-16  -6.81879935E-16   2.41074832E-17
   2.18750000E+02   5.00000000E-01   5.00000000E-01  -1.31043921E-07  -4.71267177E-08   0.00000000E+00   0.00000000E+00   0.00000000E+00   1.42055907E-08   0.00000000E+00   2.97901202E-19   5.77531955E-08   5.99520594E-17   3.67086272E-08  -3.60124317E-17  -3.36836642E-18  -3.50204722E-17  -3.23359166E-17  -2.00148077E-10  -1.45955964E-10  -1.15730091E-07   5.71892819E-08   1.69254730E-07  -2.60214712E-16  -5.99179656E-18   2.17565162E-17   7.08140862E-19   1.89012143E-17  -3.35391753E-11  -4.52883282E-08  -4.61738405E-08   0.00000000E+00  -2.84111815E-08  -1.93312941E-16  -6.93628692E-16  -6.81879606E-16   2.40238381E-17
   2.36250000E+02   5.00000000E-01   5.00000000E-01  -1.31043921E-07  -4.69919760E-08   0.00000000E+00   0.00000000E+00   0.00000000E+00   1.42055907E-08   0.00000000E+00   3.36535614E-19   5.38203266E-08   6.61718122E-17   4.00353079E-08  -3.59981448E-17  -3.37415738E-18  -3.49562865E-17  -3.23107200E-17  -2.00122642E-10  -1.43484192E-10  -1.15730091E-07   5.57933632E-08   1.70052721E-07  -2.59458506E-16  -5.94070578E-18   2.11790384E-17   9.24855649E-19   1.89053430E-17  -3.35491503E-11  -4.53034302E-08  -4.61738405E-08   0.00000000E+00  -2.84111814E-08  -1.93312023E-16  -6.93628692E-16  -6.81879485E-16   2.39443837E-17
   2.53750000E+02   5.00000000E-01   5.00000000E-01  -1.31043920E-07  -4.68447282E-08   0.00000000E+00   0.00000000E+00   0.00000000E+00   1.42055907E-08   0.00000000E+00   3.78162269E-19   4.99123937E-08   7.30089226E-17   4.33214219E-08  -3.59850203E-17  -3.38095162E-18  -3.48975789E-17  -3.22983376E-17  -2.00095733E-10  -1.40979066E-10  -1.15730091E-07   5.43635179E-08   1.70870255E-07  -2.59081054E-16  -5.89227542E-18   2.05732731E-17   1.12983341E-18   1.88660555E-17  -3.35607212E-11  -4.53189569E-08  -4.61738405E-08   0.00000000E+00  -2.84111814E-08  -1.93311292E-16  -6.93628692E-16  -6.81879545E-16   2.38687604E-17
   2.71250000E+02   5.00000000E-01   5.00000000E-01  -1.31043920E-07  -4.66845753E-08   0.00000000E+00   0.00000000E+00   0.00000000E+00   1.42055907E-08   0.00000000E+00   4.22837291E-19   4.60729843E-08   8.04603390E-17   4.65318382E-08  -3.59729108E-17  -3.38850462E-18  -3.48436566E-17  -3.22966672E-17  -2.00067313E-10  -1.38441365E-10  -1.15730091E-07   5.29148194E-08   1.71698401E-07  -2.58899117E-16  -5.84615279E-18   1.99489964E-17   1.32460562E-18   1.87907916E-17  -3.35735027E-11  -4.53350838E-08  -4.61738405E-08   0.00000000E+00  -2.84111813E-08  -1.93310719E-16  -6.93628692E-16  -6.81879760E-16   2.37962259E-17
   2.88750000E+02   5.00000000E-01   5.00000000E-01  -1.31043919E-07  -4.65112809E-08   0.00000000E+00   0.00000000E+00   0.00000000E+00   1.42055906E-08   0.00000000E+00   4.70495565E-19   4.23447206E-08   8.84968034E-17   4.96388567E-08  -3.59615787E-17  -3.39653555E-18  -3.47934131E-17  -3.23029972E-17  -2.00037375E-10  -1.35874440E-10  -1.15730091E-07   5.14618616E-08   1.72527398E-07  -2.58818530E-16  -5.80182989E-18   1.93165160E-17   1.51137232E-18   1.86882356E-17  -3.35870455E-11  -4.53516404E-08  -4.61738405E-08   0.00000000E+00  -2.84111813E-08  -1.93310266E-16  -6.93628692E-16  -6.81880111E-16   2.37255585E-17
   3.06250000E+02   5.00000000E-01   5.00000000E-01  -1.31043919E-07  -4.63248409E-08   0.00000000E+00   0.00000000E+00   0.00000000E+00   1.42055906E-08   0.00000000E+00   5.20940758E-19   3.87638406E-08   9.70731662E-17   5.26200340E-08  -3.59507054E-17  -3.40474310E-18  -3.47453702E-17  -3.23141525E-17  -2.00005939E-10  -1.33284391E-10  -1.15730091E-07   5.00188632E-08   1.73347862E-07  -2.58790564E-16  -5.75865236E-18   1.86863500E-17   1.69296341E-18   1.85680540E-17  -3.36008646E-11  -4.53681837E-08  -4.61738405E-08   0.00000000E+00  -2.84111812E-08  -1.93309889E-16  -6.93628692E-16  -6.81880581E-16   2.36551812E-17
   3.23750000E+02   5.00000000E-01   5.00000000E-01  -1.31043918E-07  -4.61254936E-08   0.00000000E+00   0.00000000E+00   0.00000000E+00   1.42055906E-08   0.00000000E+00   5.73875397E-19   3.53588224E-08   1.06142479E-16   5.54568457E-08  -3.59399438E-17  -3.41284865E-18  -3.46979239E-17  -3.23269829E-17  -1.99973055E-10  -1.30679413E-10  -1.15730091E-07   4.85979124E-08   1.74152105E-07  -2.58790010E-16  -5.71593272E-18   1.80677781E-17   1.87234840E-18   1.84394604E-17  -3.36145080E-11  -4.53841738E-08  -4.61738405E-08   0.00000000E+00  -2.84111811E-08  -1.93309542E-16  -6.93628692E-16  -6.81881154E-16   2.35833592E-17
   3.41250000E+02   5.00000000E-01   5.00000000E-01  -1.31043917E-07  -4.59136721E-08   0.00000000E+00   0.00000000E+00   0.00000000E+00   1.42055905E-08   0.00000000E+00   6.28953258E-19   3.21499931E-08   1.15667824E-16   5.81334891E-08  -3.59289787E-17  -3.42063518E-18  -3.46496224E-17  -3.23388515E-17  -1.99938776E-10  -1.28068670E-10  -1.15730091E-07   4.72073607E-08   1.74935204E-07  -2.58803652E-16  -5.67307941E-18   1.74675640E-17   2.05207881E-18   1.83097921E-17  -3.36276177E-11  -4.53991351E-08  -4.61738405E-08   0.00000000E+00  -2.84111811E-08  -1.93309186E-16  -6.93628692E-16  -6.81881818E-16   2.35084184E-17
   3.58750000E+02   5.00000000E-01   5.00000000E-01  -1.31043916E-07  -4.56898492E-08   0.00000000E+00   0.00000000E+00   0.00000000E+00   1.42055905E-08   0.00000000E+00   6.85884584E-19   2.91488925E-08   1.25636726E-16   6.06337013E-08  -3.59176217E-17  -3.42799896E-18  -3.45996019E-17  -3.23483315E-17  -1.99903142E-10  -1.25460184E-10  -1.15730091E-07   4.58492852E-08   1.75696901E-07  -2.58824710E-16  -5.62980601E-18   1.68881652E-17   2.23338524E-18   1.81824025E-17  -3.36400103E-11  -4.54127576E-08  -4.61738405E-08   0.00000000E+00  -2.84111810E-08  -1.93308801E-16  -6.93628692E-16  -6.81882561E-16   2.34290287E-17
   3.76250000E+02   5.00000000E-01   5.00000000E-01  -1.31043915E-07  -4.54544755E-08   0.00000000E+00   0.00000000E+00   0.00000000E+00   1.42055905E-08   0.00000000E+00   7.44457287E-19   2.63611061E-08   1.36061346E-16   6.29438865E-08  -3.59057941E-17  -3.43492088E-18  -3.45475080E-17  -3.23549616E-17  -1.99866170E-10  -1.22860384E-10  -1.15730090E-07   4.45216867E-08   1.76439515E-07  -2.58849756E-16  -5.58607563E-18   1.63290615E-17   2.41641974E-18   1.80576757E-17  -3.36516361E-11  -4.54249069E-08  -4.61738405E-08   0.00000000E+00  -2.84111809E-08  -1.93308380E-16  -6.93628692E-16  -6.81883369E-16   2.33442752E-17
   3.93750000E+02   5.00000000E-01   5.00000000E-01  -1.31043914E-07  -4.52078668E-08   0.00000000E+00   0.00000000E+00   0.00000000E+00   1.42055904E-08   0.00000000E+00   8.04586203E-19   2.37865716E-08   1.46982182E-16   6.50516933E-08  -3.58935449E-17  -3.44146200E-18  -3.44935726E-17  -3.23592785E-17  -1.99827843E-10  -1.20273197E-10  -1.15730090E-07   4.32189071E-08   1.77167926E-07  -2.58877251E-16  -5.54213002E-18   1.57870289E-17   2.60013210E-18   1.79330402E-17  -3.36625729E-11  -4.54356017E-08  -4.61738405E-08   0.00000000E+00  -2.84111808E-08  -1.93307933E-16  -6.93628692E-16  -6.81884230E-16   2.32537235E-17
   4.11250000E+02   5.00000000E-01   5.00000000E-01  -1.31043912E-07  -4.49501636E-08   0.00000000E+00   0.00000000E+00   0.00000000E+00   1.42055904E-08   0.00000000E+00   8.66313978E-19   2.14212648E-08   1.58465224E-16   6.69479003E-08  -3.58810197E-17  -3.44773218E-18  -3.44384728E-17  -3.23624945E-17  -1.99788111E-10  -1.17700099E-10  -1.15730090E-07   4.19335823E-08   1.77888000E-07  -2.58906688E-16  -5.49840805E-18   1.52574215E-17   2.78262380E-18   1.78041246E-17  -3.36729788E-11  -4.54449736E-08  -4.61738405E-08   0.00000000E+00  -2.84111807E-08  -1.93307476E-16  -6.93628692E-16  -6.81885134E-16   2.31573754E-17
   4.28750000E+02   5.00000000E-01   5.00000000E-01  -1.31043911E-07  -4.46813358E-08   0.00000000E+00   0.00000000E+00   0.00000000E+00   1.42055903E-08   0.00000000E+00   9.29789345E-19   1.92582615E-08   1.70596171E-16   6.86274627E-08  -3.58684208E-17  -3.45385840E-18  -3.43831428E-17  -3.23661358E-17  -1.99746899E-10  -1.15140627E-10  -1.15730090E-07   4.06584344E-08   1.78605351E-07  -2.58938064E-16  -5.45544458E-18   1.47353770E-17   2.96158570E-18   1.76659720E-17  -3.36830440E-11  -4.54532286E-08  -4.61738405E-08   0.00000000E+00  -2.84111806E-08  -1.93307036E-16  -6.93628692E-16  -6.81886070E-16   2.30555695E-17
   4.46250000E+02   5.00000000E-01   5.00000000E-01  -1.31043909E-07  -4.44011503E-08   0.00000000E+00   0.00000000E+00   0.00000000E+00   1.42055903E-08   0.00000000E+00   9.95271515E-19   1.72880972E-08   1.83478461E-16   7.00879369E-08  -3.58560009E-17  -3.45997756E-18  -3.43287449E-17  -3.23719650E-17  -1.99704103E-10  -1.12592400E-10  -1.15730090E-07   3.93864863E-08   1.79325433E-07  -2.58971681E-16  -5.41385522E-18   1.42160378E-17   3.13436494E-18   1.75132663E-17  -3.36929788E-11  -4.54606236E-08  -4.61738405E-08   0.00000000E+00  -2.84111805E-08  -1.93306638E-16  -6.93628692E-16  -6.81887028E-16   2.29489168E-17
   4.63750000E+02   5.00000000E-01   5.00000000E-01  -1.31043907E-07  -4.41091764E-08   0.00000000E+00   0.00000000E+00   0.00000000E+00   1.42055902E-08   0.00000000E+00   1.06311643E-18   1.54996811E-08   1.97228646E-16   7.13297698E-08  -3.58440422E-17  -3.46622286E-18  -3.42765726E-17  -3.23818093E-17  -1.99659594E-10  -1.10051492E-10  -1.15730090E-07   3.81116530E-08   1.80053046E-07  -2.59007972E-16  -5.37428798E-18   1.36949991E-17   3.29817449E-18   1.73408485E-17  -3.37029922E-11  -4.54674460E-08  -4.61738405E-08   0.00000000E+00  -2.84111804E-08  -1.93306313E-16  -6.93628692E-16  -6.81888001E-16   2.28382181E-17
   4.81250000E+02   5.00000000E-01   5.00000000E-01  -1.31043905E-07  -4.38048095E-08   0.00000000E+00   0.00000000E+00   0.00000000E+00   1.42055902E-08   0.00000000E+00   1.13375784E-18   1.38809606E-08   2.11970629E-16   7.23561409E-08  -3.58328347E-17  -3.47271251E-18  -3.42279504E-17  -3.23974021E-17  -1.99613225E-10  -1.07512903E-10  -1.15730089E-07   3.68291744E-08   1.80792033E-07  -2.59047379E-16  -5.33737563E-18   1.31686518E-17   3.45029865E-18   1.71441613E-17  -3.37132739E-11  -4.54739972E-08  -4.61738405E-08   0.00000000E+00  -2.84111803E-08  -1.93306088E-16  -6.93628692E-16  -6.81888979E-16   2.27243835E-17
   4.98750000E+02   5.00000000E-01   5.00000000E-01  -1.31043902E-07  -4.34823890E-08   0.00000000E+00   0.00000000E+00   0.00000000E+00   1.42055901E-08   0.00000000E+00   1.21010318E-18   1.24059461E-08   2.28278597E-16   7.30403870E-08  -3.58246260E-17  -3.48047878E-18  -3.41931523E-17  -3.24333900E-17  -1.99564197E-10  -1.04928127E-10  -1.15730089E-07   3.54790645E-08   1.81597576E-07  -2.59096549E-16  -5.30829233E-18   1.25994129E-17   3.56851624E-18   1.68774946E-17  -3.37253706E-11  -4.54805781E-08  -4.61738405E-08   0.00000000E+00  -2.84111802E-08  -1.93306204E-16  -6.93628692E-16  -6.81889946E-16   2.26110457E-17
   5.16250000E+02   5.00000000E-01   5.00000000E-01  -1.31043900E-07  -4.31447247E-08   0.00000000E+00   0.00000000E+00   0.00000000E+00   1.42055900E-08   0.00000000E+00   1.29090764E-18   1.10909230E-08   2.46013079E-16   7.35877879E-08  -3.58179030E-17  -3.48868382E-18  -3.41652303E-17  -3.24786910E-17  -1.99512815E-10  -1.02325234E-10  -1.15730089E-07   3.41176534E-08   1.82404951E-07  -2.59149399E-16  -5.28326199E-18   1.20208492E-17   3.66908044E-18   1.65791654E-17  -3.37380825E-11  -4.54875643E-08  -4.61738405E-08   0.00000000E+00  -2.84111801E-08  -1.93306482E-16  -6.93628692E-16  -6.81890909E-16   2.24976053E-17
   5.33750000E+02   5.00000000E-01   5.00000000E-01  -1.31043897E-07  -4.27916668E-08   0.00000000E+00   0.00000000E+00   0.00000000E+00   1.42055900E-08   0.00000000E+00   1.37636373E-18   9.91229596E-09   2.65213592E-16   7.39615698E-08  -3.58125364E-17  -3.49720998E-18  -3.41435776E-17  -3.25319202E-17  -1.99458996E-10  -9.97056672E-11  -1.15730089E-07   3.27537226E-08   1.83219729E-07  -2.59205131E-16  -5.26190094E-18   1.14380217E-17   3.75366598E-18   1.62547212E-17  -3.37512498E-11  -4.54951771E-08  -4.61738405E-08   0.00000000E+00  -2.84111799E-08  -1.93306904E-16  -6.93628692E-16  -6.81891863E-16   2.23843803E-17
   5.51250000E+02   5.00000000E-01   5.00000000E-01  -1.31043893E-07  -4.24218656E-08   0.00000000E+00   0.00000000E+00   0.00000000E+00   1.42055899E-08   0.00000000E+00   1.46723042E-18   8.85423028E-09   2.86004482E-16   7.41479205E-08  -3.58088311E-17  -3.50613911E-18  -3.41295694E-17  -3.25945176E-17  -1.99402505E-10  -9.70613742E-11  -1.15730088E-07   3.13828519E-08   1.84049010E-07  -2.59264206E-16  -5.24487152E-18   1.08482293E-17   3.81945992E-18   1.59003124E-17  -3.37650043E-11  -4.55035618E-08  -4.61738405E-08   0.00000000E+00  -2.84111798E-08  -1.93307497E-16  -6.93628692E-16  -6.81892804E-16   2.22720943E-17
   5.68750000E+02   5.00000000E-01   5.00000000E-01  -1.31043890E-07  -4.20340007E-08   0.00000000E+00   0.00000000E+00   0.00000000E+00   1.42055898E-08   0.00000000E+00   1.56427287E-18   7.90525668E-09   3.08507333E-16   7.41551684E-08  -3.58070049E-17  -3.51550430E-18  -3.41241793E-17  -3.26672686E-17  -1.99343106E-10  -9.43852766E-11  -1.15730088E-07   3.00033732E-08   1.84894148E-07  -2.59326658E-16  -5.23262985E-18   1.02505607E-17   3.86453957E-18   1.55141680E-17  -3.37794068E-11  -4.55127618E-08  -4.61738405E-08   0.00000000E+00  -2.84111796E-08  -1.93308278E-16  -6.93628692E-16  -6.81893729E-16   2.21614215E-17
   5.86250000E+02   5.00000000E-01   5.00000000E-01  -1.31043885E-07  -4.16270100E-08   0.00000000E+00   0.00000000E+00   0.00000000E+00   1.42055897E-08   0.00000000E+00   1.66817522E-18   7.05521401E-09   3.32829318E-16   7.39963430E-08  -3.58071354E-17  -3.52527572E-18  -3.41277372E-17  -3.27500379E-17  -1.99280587E-10  -9.16727947E-11  -1.15730088E-07   2.86171769E-08   1.85753724E-07  -2.59392059E-16  -5.22530985E-18   9.64634230E-18   3.88836809E-18   1.50973564E-17  -3.37944252E-11  -4.55227028E-08  -4.61738405E-08   0.00000000E+00  -2.84111795E-08  -1.93309250E-16  -6.93628692E-16  -6.81894636E-16   2.20528852E-17
   6.03750000E+02   5.00000000E-01   5.00000000E-01  -1.31043880E-07  -4.12001503E-08   0.00000000E+00   0.00000000E+00   0.00000000E+00   1.42055897E-08   0.00000000E+00   1.77952819E-18   6.29476356E-09   3.59067822E-16   7.36856289E-08  -3.58091775E-17  -3.53537747E-18  -3.41400138E-17  -3.28419595E-17  -1.99214764E-10  -8.89219440E-11  -1.15730087E-07   2.72286359E-08   1.86624752E-07  -2.59459667E-16  -5.22277331E-18   9.03845224E-18   3.89157670E-18   1.46531041E-17  -3.38099571E-11  -4.55332059E-08  -4.61738405E-08   0.00000000E+00  -2.84111793E-08  -1.93310404E-16  -6.93628692E-16  -6.81895524E-16   2.19468373E-17
   6.21250000E+02   5.00000000E-01   5.00000000E-01  -1.31043875E-07  -4.07530158E-08   0.00000000E+00   0.00000000E+00   0.00000000E+00   1.42055896E-08   0.00000000E+00   1.89883280E-18   5.61526660E-09   3.87318473E-16   7.32371144E-08  -3.58129930E-17  -3.54570627E-18  -3.41603561E-17  -3.29416754E-17  -1.99145478E-10  -8.61331179E-11  -1.15730087E-07   2.58435199E-08   1.87503447E-07  -2.59528564E-16  -5.22468097E-18   8.43062294E-18   3.87565744E-18   1.41860167E-17  -3.38258568E-11  -4.55440210E-08  -4.61738405E-08  -1.17490114E-32  -2.84111792E-08  -1.93311721E-16  -6.93628692E-16  -6.81896392E-16   2.18434674E-17
   6.38750000E+02   5.00000000E-01   5.00000000E-01  -1.31043869E-07  -4.02855109E-08   0.00000000E+00   0.00000000E+00   0.00000000E+00   1.42055895E-08   0.00000000E+00   2.02651931E-18   5.00870113E-09   4.17683941E-16   7.26637096E-08  -3.58183860E-17  -3.55614930E-18  -3.41878520E-17  -3.30475868E-17  -1.99072589E-10  -8.33086066E-11  -1.15730087E-07   2.44680036E-08   1.88385916E-07  -2.59597791E-16  -5.23057397E-18   7.82680599E-18   3.84261173E-18   1.37013026E-17  -3.38419616E-11  -4.55548716E-08  -4.61738405E-08  -2.31578283E-32  -2.84111790E-08  -1.93313178E-16  -6.93628692E-16  -6.81897240E-16   2.17428325E-17
   6.56250000E+02   5.00000000E-01   5.00000000E-01  -1.31043862E-07  -3.97977773E-08   0.00000000E+00   0.00000000E+00   0.00000000E+00   1.42055894E-08   0.00000000E+00   2.16298147E-18   4.46760933E-09   4.50282223E-16   7.19762539E-08  -3.58251410E-17  -3.56659969E-18  -3.42215015E-17  -3.31580893E-17  -1.98995971E-10  -8.04519041E-11  -1.15730086E-07   2.31078137E-08   1.89268737E-07  -2.59666453E-16  -5.23995807E-18   7.23064078E-18   3.79458906E-18   1.32040636E-17  -3.38581142E-11  -4.55654957E-08  -4.61738405E-08  -4.54319071E-32  -2.84111789E-08  -1.93314751E-16  -6.93628692E-16  -6.81898067E-16   2.16448988E-17
   6.73750000E+02   5.00000000E-01   5.00000000E-01  -1.31043855E-07  -3.92901060E-08   0.00000000E+00   0.00000000E+00   0.00000000E+00   1.42055893E-08   0.00000000E+00   2.30861440E-18   3.98508692E-09   4.85252262E-16   7.11832783E-08  -3.58330518E-17  -3.57696649E-18  -3.42603524E-17  -3.32717407E-17  -1.98915497E-10  -7.75670225E-11  -1.15730086E-07   2.17676775E-08   1.90149277E-07  -2.59733796E-16  -5.25236976E-18   6.64512238E-18   3.73360360E-18   1.26988000E-17  -3.38741791E-11  -4.55756767E-08  -4.61738405E-08  -8.86087174E-32  -2.84111787E-08  -1.93316418E-16  -6.93628692E-16  -6.81898874E-16   2.15495827E-17
   6.91250000E+02   5.00000000E-01   5.00000000E-01  -1.31043846E-07  -3.87628107E-08   0.00000000E+00   0.00000000E+00   0.00000000E+00   1.42055893E-08   0.00000000E+00   2.46386667E-18   3.55477595E-09   5.22759900E-16   7.02905312E-08  -3.58419491E-17  -3.58718180E-18  -3.43036212E-17  -3.33873953E-17  -1.98831029E-10  -7.46576898E-11  -1.15730085E-07   2.04508857E-08   1.91025993E-07  -2.59799246E-16  -5.26743788E-18   6.07236241E-18   3.66127161E-18   1.21890067E-17  -3.38900529E-11  -4.55852589E-08  -4.61738405E-08  -1.71539042E-31  -2.84111785E-08  -1.93318162E-16  -6.93628692E-16  -6.81899661E-16   2.14567918E-17
   7.08750000E+02   5.00000000E-01   5.00000000E-01  -1.31043836E-07  -3.82161627E-08   0.00000000E+00   0.00000000E+00   0.00000000E+00   1.42055892E-08   0.00000000E+00   2.62926828E-18   3.17089993E-09   5.62997580E-16   6.93020768E-08  -3.58517056E-17  -3.59719956E-18  -3.43507175E-17  -3.35042088E-17  -1.98742409E-10  -7.17270092E-11  -1.15730085E-07   1.91593680E-08   1.91898201E-07  -2.59862406E-16  -5.28489522E-18   5.51365273E-18   3.57876308E-18   1.16771763E-17  -3.39056639E-11  -4.55941515E-08  -4.61738405E-08  -5.83229814E-17  -2.84111783E-08  -1.93319970E-16  -6.93628692E-16  -6.81900427E-16   2.13664457E-17
   7.26250000E+02   5.00000000E-01   5.00000000E-01  -1.31043826E-07  -3.76503392E-08   0.00000000E+00   0.00000000E+00   0.00000000E+00   1.42055891E-08   0.00000000E+00   2.80545410E-18   2.82825191E-09   6.06181851E-16   6.82207398E-08  -3.58622352E-17  -3.60699242E-18  -3.44012388E-17  -3.36216101E-17  -1.98649454E-10  -6.87772516E-11  -1.15730084E-07   1.78938679E-08   1.92765923E-07  -2.59923026E-16  -5.30457689E-18   4.96958980E-18   3.48680990E-18   1.11648987E-17  -3.39209678E-11  -4.56023239E-08  -4.61738405E-08  -2.14003299E-16  -2.84111782E-08  -1.93321831E-16  -6.93628692E-16  -6.81901172E-16   2.12784879E-17
   7.43750000E+02   5.00000000E-01   5.00000000E-01  -1.31043813E-07  -3.70653882E-08   0.00000000E+00   0.00000000E+00   0.00000000E+00   1.42055890E-08   0.00000000E+00   2.99318275E-18   2.52217261E-09   6.52549021E-16   6.70485316E-08  -3.58734880E-17  -3.61654778E-18  -3.44549485E-17  -3.37392534E-17  -1.98551954E-10  -6.58097621E-11  -1.15730084E-07   1.66541651E-08   1.93629706E-07  -2.59980976E-16  -5.32641003E-18   4.44022422E-18   3.38575109E-18   1.06530115E-17  -3.39359422E-11  -4.56097970E-08  -4.61738405E-08  -4.50853368E-16  -2.84111780E-08  -1.93323743E-16  -6.93628692E-16  -6.81901896E-16   2.11928901E-17
   7.61250000E+02   5.00000000E-01   5.00000000E-01  -1.31043800E-07  -3.64612130E-08   0.00000000E+00   0.00000000E+00   0.00000000E+00   1.42055889E-08   0.00000000E+00   3.19334955E-18   2.24851986E-09   7.02348711E-16   6.57870855E-08  -3.58854430E-17  -3.62586344E-18  -3.45117394E-17  -3.38569610E-17  -1.98449668E-10  -6.28249857E-11  -1.15730083E-07   1.54393233E-08   1.94490433E-07  -2.60036212E-16  -5.35039657E-18   3.92522012E-18   3.27560720E-18   1.01417840E-17  -3.39505804E-11  -4.56166317E-08  -4.61738405E-08  -7.74741711E-16  -2.84111778E-08  -1.93325703E-16  -6.93628692E-16  -6.81902598E-16   2.11096501E-17
   7.78750000E+02   5.00000000E-01   5.00000000E-01  -1.31043785E-07  -3.58375800E-08   0.00000000E+00   0.00000000E+00   0.00000000E+00   1.42055888E-08   0.00000000E+00   3.40699212E-18   2.00363237E-09   7.55835068E-16   6.44380806E-08  -3.58980976E-17  -3.63494338E-18  -3.45715888E-17  -3.39746598E-17  -1.98342322E-10  -5.98226091E-11  -1.15730083E-07   1.42479510E-08   1.95349124E-07  -2.60088750E-16  -5.37659084E-18   3.42401271E-18   3.15617683E-18   9.63111720E-18  -3.39648851E-11  -4.56229168E-08  -4.61738405E-08  -1.16981985E-15  -2.84111776E-08  -1.93327711E-16  -6.93628692E-16  -6.81903279E-16   2.10287847E-17
   7.96250000E+02   5.00000000E-01   5.00000000E-01  -1.31043768E-07  -3.51941581E-08   0.00000000E+00   0.00000000E+00   0.00000000E+00   1.42055887E-08   0.00000000E+00   3.63528514E-18   1.78429096E-09   8.13255213E-16   6.30036853E-08  -3.59114565E-17  -3.64379370E-18  -3.46345063E-17  -3.40923163E-17  -1.98229615E-10  -5.68018364E-11  -1.15730082E-07   1.30784727E-08   1.96206743E-07  -2.60138632E-16  -5.40507183E-18   2.93596214E-18   3.02715469E-18   9.12075758E-18  -3.39788628E-11  -4.56287539E-08  -4.61738405E-08  -1.57556096E-15  -2.84111774E-08  -1.93329769E-16  -6.93628692E-16  -6.81903937E-16   2.09503199E-17