 TITLE = "Mineral Rate (mol/m^3/sec)" 
VARIABLES = "X"          "Y"              "Z"            "Forsterite"     "Fayalite"       "Brucite"        "Lizardite"      "Chrysotile"     "Saponite(Mg)"   "Enstatite(alph" "Ferrosilite(al" "Anorthite"      "Albite(low)"    "Clinochlore"    "Sudoite"        "Montmorillonit" "Kaolinite"      "Tremolite"      "Pargasite"      "Anhydrite"      "Epidote"        "Scolecite"      "Pyrite"         "FeS(am)"        "Quartz(alpha)" 
 ZONE I=         100 , J=           1 , K=           1  F=POINT
   1.75000000E+01   5.00000000E-01   5.00000000E-01  -1.10399254E-06  -2.84391556E-07  -3.98844712E-15  -1.40295098E-17  -1.39375961E-17   0.00000000E+00  -1.98782162E-10   1.19898069E-11  -6.49978117E-07  -1.98928386E-07   8.19634964E-07  -3.11343013E-13  -2.17610111E-14  -3.51127697E-12  -3.87760852E-08  -4.66314981E-08  -2.13035162E-15  -2.40078751E-15  -2.24491817E-10  -3.90410682E-15  -4.47462900E-15   4.73782830E-17
   5.25000000E+01   5.00000000E-01   5.00000000E-01  -1.10399252E-06  -1.27871533E-07  -3.98845616E-15  -1.67658876E-17  -1.59706379E-17   0.00000000E+00  -1.98405714E-10   1.33469949E-10  -6.49978117E-07   8.86724469E-09   7.15720516E-07  -8.99370796E-14  -8.31808560E-13  -3.41346565E-12  -2.19752850E-08  -4.66314981E-08  -2.12777179E-15   7.84350869E-16  -2.24491558E-10  -3.90410682E-15  -4.47468031E-15   6.65139411E-17
   8.75000000E+01   5.00000000E-01   5.00000000E-01  -1.10399248E-06  -5.15306514E-08  -3.98845710E-15  -1.69984092E-17  -1.61553057E-17   0.00000000E+00  -1.98147253E-10   1.82733245E-10  -6.49978118E-07   1.30859280E-07   6.54757709E-07  -8.59702412E-14  -4.07350104E-11  -3.51063281E-12  -8.29280376E-09  -4.66314981E-08  -2.12464248E-15   1.60988619E-16  -2.24491505E-10  -3.90410682E-15  -4.47483368E-15   7.22429017E-17
   1.22500000E+02   5.00000000E-01   5.00000000E-01  -1.10399243E-06  -2.31816625E-08  -3.98845603E-15  -1.60612239E-17  -1.54534623E-17   0.00000000E+00  -1.97945619E-10   1.97843718E-10  -6.49978119E-07   1.82110942E-07   6.30066467E-07  -1.11059374E-13  -1.16648093E-09  -3.67837411E-12  -2.00243892E-09  -4.66314981E-08  -2.12049833E-15   4.13377238E-17  -2.24491590E-10  -3.90410682E-15  -4.47498624E-15   7.28281749E-17
   1.57500000E+02   5.00000000E-01   5.00000000E-01  -1.10399237E-06  -1.64125954E-08  -3.98845495E-15  -1.51658972E-17  -1.47508024E-17   0.00000000E+00  -1.97781537E-10   2.00259216E-10  -6.49978121E-07   2.18935236E-07   6.25404774E-07  -1.65780659E-13  -1.77328967E-08  -3.89636326E-12  -1.73455078E-09  -4.66314981E-08  -2.11473325E-15   3.04597606E-17  -2.24491659E-10  -3.90410682E-15  -4.47511731E-15   7.20158179E-17
   1.92500000E+02   5.00000000E-01   5.00000000E-01  -1.10399235E-06  -3.21575960E-08  -3.98845774E-15  -1.54141403E-17  -1.48844023E-17   0.00000000E+00  -1.97755293E-10   1.96216109E-10  -6.49978124E-07   3.59591404E-07   6.47192026E-07  -2.72364513E-13  -1.28714656E-07  -4.15678528E-12  -1.39214915E-08  -4.66314981E-08  -2.10600974E-15   1.57099269E-16  -2.24490954E-10  -3.90410682E-15  -4.47522946E-15   7.23600146E-17
   2.27500000E+02   5.00000000E-01   5.00000000E-01  -1.10399235E-06  -4.44092403E-08  -3.98846198E-15  -1.60840310E-17  -1.53749842E-17   0.00000000E+00  -1.97769299E-10   1.93017537E-10  -6.49978128E-07   5.43607580E-07   6.63018983E-07  -4.69033830E-13  -2.58635566E-07  -4.45101460E-12  -2.48135423E-08  -4.66314981E-08  -2.09356041E-15   1.61995068E-16  -2.24489278E-10  -3.90410682E-15  -4.47530812E-15   7.25152940E-17
   2.62500000E+02   5.00000000E-01   5.00000000E-01  -1.10399229E-06  -3.00530655E-08  -3.98846295E-15  -1.62239613E-17  -1.54946070E-17   0.00000000E+00  -1.97625183E-10   1.97848142E-10  -6.49978134E-07   5.89245987E-07   6.55645751E-07  -8.11296581E-13  -2.77243953E-07  -4.77167131E-12  -2.58721727E-08  -4.66314981E-08  -2.07703134E-15   2.88649597E-17  -2.24488435E-10  -3.90410682E-15  -4.47535421E-15   7.13911148E-17
   2.97500000E+02   5.00000000E-01   5.00000000E-01  -1.10399220E-06  -1.81245815E-08  -3.98846279E-15  -1.62622148E-17  -1.55423953E-17   0.00000000E+00  -1.97428809E-10   1.99893580E-10  -6.49978141E-07   5.76571213E-07   6.49612844E-07  -1.37763900E-12  -2.62338201E-07  -5.11211180E-12  -2.49950955E-08  -4.66314981E-08  -2.05541382E-15  -1.07998269E-17  -2.24488088E-10  -3.90410682E-15  -4.47539711E-15   6.96645815E-17
   3.32500000E+02   5.00000000E-01   5.00000000E-01  -1.10399208E-06  -1.16508245E-08  -3.98846225E-15  -1.62993819E-17  -1.55909805E-17   0.00000000E+00  -1.97212001E-10   1.98958096E-10  -6.49978152E-07   5.46667913E-07   6.46450390E-07  -2.27781238E-12  -2.40511373E-07  -5.46430583E-12  -2.37031821E-08  -4.66314981E-08  -2.02726450E-15  -2.13456467E-17  -2.24487924E-10  -3.90410682E-15  -4.47543688E-15   6.77381771E-17
   3.67500000E+02   5.00000000E-01   5.00000000E-01  -1.10399195E-06  -8.39374514E-09  -3.98846151E-15  -1.63504088E-17  -1.56513483E-17   0.00000000E+00  -1.96980904E-10   1.96436041E-10  -6.49978166E-07   5.11950990E-07   6.44799457E-07  -3.65994006E-12  -2.17604712E-07  -5.81994335E-12  -2.22480599E-08  -4.66314981E-08  -1.99065159E-15  -2.39682265E-17  -2.24487836E-10  -3.90410682E-15  -4.47547066E-15   6.57698485E-17
   4.02500000E+02   5.00000000E-01   5.00000000E-01  -1.10399178E-06  -6.76785452E-09  -3.98846061E-15  -1.64103893E-17  -1.57195540E-17   0.00000000E+00  -1.96737598E-10   1.93145774E-10  -6.49978185E-07   4.76648140E-07   6.43851870E-07  -5.70729004E-12  -1.95190880E-07  -6.17555614E-12  -2.07145957E-08  -4.66314981E-08  -1.94300459E-15  -2.34272833E-17  -2.24487784E-10  -3.90410682E-15  -4.47549749E-15   6.38144294E-17
   4.37500000E+02   5.00000000E-01   5.00000000E-01  -1.10399159E-06  -5.95786025E-09  -3.98845957E-15  -1.64653269E-17  -1.57843117E-17   0.00000000E+00  -1.96483362E-10   1.89476711E-10  -6.49978211E-07   4.42349891E-07   6.43245173E-07  -8.63608330E-12  -1.73790806E-07  -6.53247233E-12  -1.91604156E-08  -4.66314981E-08  -1.88089440E-15  -2.11788249E-17  -2.24487750E-10  -3.90410682E-15  -4.47551767E-15   6.18898224E-17
   4.72500000E+02   5.00000000E-01   5.00000000E-01  -1.10399136E-06  -5.56362308E-09  -3.98845840E-15  -1.65079885E-17  -1.58395525E-17   0.00000000E+00  -1.96219149E-10   1.85612268E-10  -6.49978244E-07   4.09678544E-07   6.42828971E-07  -1.26849663E-11  -1.53597593E-07  -6.89199035E-12  -1.76303399E-08  -4.66314981E-08  -1.79972410E-15  -1.78273667E-17  -2.24487723E-10  -3.90410682E-15  -4.47553200E-15   6.00021284E-17
   5.07500000E+02   5.00000000E-01   5.00000000E-01  -1.10399109E-06  -5.38458459E-09  -3.98845712E-15  -1.65399304E-17  -1.58862880E-17   0.00000000E+00  -1.95945666E-10   1.81644419E-10  -6.49978288E-07   3.78862752E-07   6.42539632E-07  -1.81411152E-11  -1.34671625E-07  -7.25413849E-12  -1.61570612E-08  -4.66314981E-08  -1.69329278E-15  -1.36981864E-17  -2.24487695E-10  -3.90410682E-15  -4.47554143E-15   5.81541608E-17
   5.42500000E+02   5.00000000E-01   5.00000000E-01  -1.10399077E-06  -5.31654769E-09  -3.98845572E-15  -1.65662444E-17  -1.59285282E-17   0.00000000E+00  -1.95663438E-10   1.77623771E-10  -6.49978346E-07   3.49956706E-07   6.42345139E-07  -2.53632399E-11  -1.17006108E-07  -7.61541236E-12  -1.47621539E-08  -4.66314981E-08  -1.55317533E-15  -9.00717433E-18  -2.24487661E-10  -3.90410682E-15  -4.47554691E-15   5.63479375E-17
   5.77500000E+02   5.00000000E-01   5.00000000E-01  -1.10399040E-06  -5.30395365E-09  -3.98845422E-15  -1.65934595E-17  -1.59716341E-17   0.00000000E+00  -1.95372855E-10   1.73580818E-10  -6.49978421E-07   3.22930962E-07   6.42222904E-07  -3.47767716E-11  -1.00555070E-07  -7.96827002E-12  -1.34580591E-08  -4.66314981E-08  -1.36783137E-15  -3.92195239E-18  -2.24487612E-10  -3.90410682E-15  -4.47554926E-15   5.45852024E-17
   6.12500000E+02   5.00000000E-01   5.00000000E-01  -1.10398998E-06  -5.31714718E-09  -3.98845263E-15  -1.66294718E-17  -1.60222997E-17   0.00000000E+00  -1.95074222E-10   1.69535242E-10  -6.49978518E-07   2.97713895E-07   6.42151818E-07  -4.68741493E-11  -8.52487446E-08  -8.30652024E-12  -1.22503602E-08  -4.66314981E-08  -1.12131014E-15   1.41332450E-18  -2.24487545E-10  -3.90410682E-15  -4.47554922E-15   5.28674124E-17
   6.47500000E+02   5.00000000E-01   5.00000000E-01  -1.10398949E-06  -5.34086694E-09  -3.98845096E-15  -1.66841152E-17  -1.60890730E-17   0.00000000E+00  -1.94767794E-10   1.65500301E-10  -6.49978643E-07   2.74212747E-07   6.42110141E-07  -6.21646283E-11  -7.10038270E-08  -8.63140169E-12  -1.11398487E-08  -4.66314981E-08  -7.91346414E-16   6.86772814E-18  -2.24487460E-10  -3.90410682E-15  -4.47554738E-15   5.11956533E-17
   6.82500000E+02   5.00000000E-01   5.00000000E-01  -1.10398892E-06  -5.36800243E-09  -3.98844924E-15  -1.67698241E-17  -1.61829737E-17   0.00000000E+00  -1.94453802E-10   1.61485144E-10  -6.49978806E-07   2.52325937E-07   6.42075686E-07  -8.11833843E-11  -5.77310829E-08  -8.94943754E-12  -1.01241776E-08  -4.66314981E-08  -3.46525690E-16   1.23193778E-17  -2.24487366E-10  -3.90410682E-15  -4.47554425E-15   4.95705942E-17
   7.17500000E+02   5.00000000E-01   5.00000000E-01  -1.10398827E-06  -5.39600708E-09  -3.98844750E-15  -1.69023478E-17  -1.63181738E-17   0.00000000E+00  -1.94132477E-10   1.57496154E-10  -6.49979017E-07   2.31950565E-07   6.42026853E-07  -1.04643981E-10  -4.53407619E-08  -9.26522860E-12  -9.19908880E-09  -4.66314981E-08   2.57993597E-16   1.76546056E-17  -2.24487269E-10  -3.90410682E-15  -4.47554024E-15   4.79924884E-17
   7.52500000E+02   5.00000000E-01   5.00000000E-01  -1.10398754E-06  -5.42465420E-09  -3.98844578E-15  -1.71022465E-17  -1.65133699E-17   0.00000000E+00  -1.93804056E-10   1.53537854E-10  -6.49979290E-07   2.12985673E-07   6.41943722E-07  -1.33386850E-10  -3.37460018E-08  -9.58033885E-12  -8.35919894E-09  -4.66314981E-08   1.08702968E-15   2.27685364E-17  -2.24487180E-10  -3.90410682E-15  -4.47553568E-15   4.64612166E-17
   7.87500000E+02   5.00000000E-01   5.00000000E-01  -1.10398670E-06  -5.45470064E-09  -3.98844414E-15  -1.73970926E-17  -1.67938068E-17   0.00000000E+00  -1.93468790E-10   1.49613503E-10  -6.49979644E-07   1.95334376E-07   6.41809124E-07  -1.68493137E-10  -2.28651237E-08  -9.89529172E-12  -7.59851230E-09  -4.66314981E-08   2.23556070E-15   2.75669679E-17  -2.24487113E-10  -3.90410682E-15  -4.47553082E-15   4.49763447E-17
   8.22500000E+02   5.00000000E-01   5.00000000E-01  -1.10398575E-06  -5.48704464E-09  -3.98844263E-15  -1.78250759E-17  -1.71945793E-17   0.00000000E+00  -1.93126951E-10   1.45725517E-10  -6.49980106E-07   1.78905175E-07   6.41609411E-07  -2.11282778E-10  -1.26233542E-08  -1.02096525E-11  -6.91071885E-09  -4.66314981E-08   3.84481852E-15   3.19682036E-17  -2.24487085E-10  -3.90410682E-15  -4.47552586E-15   4.35371855E-17
   8.57500000E+02   5.00000000E-01   5.00000000E-01  -1.10398468E-06  -5.52222293E-09  -3.98844138E-15  -1.84406725E-17  -1.77658245E-17   0.00000000E+00  -1.92778831E-10   1.41875746E-10  -6.49980709E-07   1.63612835E-07   6.41334990E-07  -2.63484098E-10  -2.95358466E-09  -1.05218493E-11  -6.28938633E-09  -4.66314981E-08   6.12817249E-15   3.59046478E-17  -2.24487124E-10  -3.90410682E-15  -4.47552093E-15   4.21428518E-17
   8.92500000E+02   5.00000000E-01   5.00000000E-01  -1.10398349E-06  -5.56007224E-09  -3.98844050E-15  -1.93240209E-17  -1.85812934E-17   0.00000000E+00  -1.92424745E-10   1.38065674E-10  -6.49981500E-07   1.49378727E-07   6.40980460E-07  -3.27254090E-10   6.20330870E-09  -1.08286950E-11  -5.72806400E-09  -4.66314981E-08   9.41354182E-15   3.93239294E-17  -2.24487267E-10  -3.90410682E-15  -4.47551612E-15   4.07923014E-17
   9.27500000E+02   5.00000000E-01   5.00000000E-01  -1.10398216E-06  -5.59956744E-09  -3.98844016E-15  -2.05964115E-17  -1.97524985E-17   0.00000000E+00  -1.92065036E-10   1.34296507E-10  -6.49982545E-07   1.36130997E-07   6.40544593E-07  -4.05512657E-10   1.48992019E-08  -1.11257751E-11  -5.22040354E-09  -4.66314981E-08   1.42142898E-14   4.21891720E-17  -2.24487568E-10  -3.90410682E-15  -4.47551152E-15   3.94843676E-17
   9.62500000E+02   5.00000000E-01   5.00000000E-01  -1.10398069E-06  -5.63871236E-09  -3.98844059E-15  -2.24468011E-17  -2.14528918E-17   0.00000000E+00  -1.91700080E-10   1.30569227E-10  -6.49983937E-07   1.23804479E-07   6.40030005E-07  -5.02151437E-10   2.31796820E-08  -1.14082687E-11  -4.76027714E-09  -4.66314981E-08   2.13502788E-14   4.44787977E-17  -2.24488112E-10  -3.90410682E-15  -4.47550713E-15   3.82177803E-17
   9.97500000E+02   5.00000000E-01   5.00000000E-01  -1.10397909E-06  -5.67443481E-09  -3.98844207E-15  -2.51780406E-17  -2.39599740E-17   0.00000000E+00  -1.91330289E-10   1.26884626E-10  -6.49985813E-07   1.12340515E-07   6.39442518E-07  -6.22022505E-10   3.10849268E-08  -1.16725040E-11  -4.34186582E-09  -4.66314981E-08   3.21593408E-14   4.61854287E-17  -2.24489032E-10  -3.90410682E-15  -4.47550299E-15   3.69911833E-17
   1.03250000E+03   5.00000000E-01   5.00000000E-01  -1.10397736E-06  -5.70256144E-09  -3.98844497E-15  -2.92882042E-17  -2.77293742E-17   0.00000000E+00  -1.90956127E-10   1.23243283E-10  -6.49988390E-07   1.01686913E-07   6.38790523E-07  -7.71237356E-10   3.86512511E-08  -1.19184376E-11  -3.95979891E-09  -4.66314981E-08   4.88758051E-14   4.73146301E-17  -2.24490547E-10  -3.90410682E-15  -4.47549908E-15   3.58031429E-17
   1.06750000E+03   5.00000000E-01   5.00000000E-01  -1.10397552E-06  -5.71788705E-09  -3.98844976E-15  -3.56133230E-17  -3.35250945E-17   0.00000000E+00  -1.90578116E-10   1.19645473E-10  -6.49992021E-07   9.17982467E-08   6.38084626E-07  -9.57970313E-10   4.59133697E-08  -1.21482055E-11  -3.60942075E-09  -4.66314981E-08   7.53259892E-14   4.78833085E-17  -2.24493034E-10  -3.90410682E-15  -4.47549537E-15   3.46521433E-17
   1.10250000E+03   5.00000000E-01   5.00000000E-01  -1.10397360E-06  -5.71431852E-09  -3.98845699E-15  -4.55688007E-17  -4.26409968E-17   0.00000000E+00  -1.90196877E-10   1.16090889E-10  -6.49997332E-07   8.26365145E-08   6.37338226E-07  -1.19398955E-09   5.29071465E-08  -1.23634440E-11  -3.28755034E-09  -4.66314981E-08   1.18242311E-13   4.79180707E-17  -2.24497183E-10  -3.90410682E-15  -4.47549182E-15   3.35365445E-17
   1.13750000E+03   5.00000000E-01   5.00000000E-01  -1.10399433E-06  -4.16003139E-07  -3.98857399E-15  -5.81640931E-17  -5.42430782E-17   2.69089629E-06  -1.99497039E-10  -1.28736019E-10  -6.50000708E-07  -1.61667381E-07  -9.49092344E-07  -4.61814112E-09   1.56854868E-06  -1.54181748E-11  -4.55132835E-08  -4.66314981E-08   1.89187610E-13   4.18769170E-16  -2.23683071E-10  -3.90410682E-15  -4.47550226E-15   4.67644838E-18
   1.17250000E+03   5.00000000E-01   5.00000000E-01  -1.10399356E-06  -2.56842274E-07  -3.98856818E-15  -8.29014284E-17  -7.69374570E-17   0.00000000E+00  -1.98483614E-10  -6.73011119E-11  -6.50017963E-07  -1.26363393E-07   8.15736141E-07  -2.28965677E-09  -3.34591014E-08  -1.38006991E-11  -4.55124099E-08  -4.66314981E-08   3.11428167E-13  -7.09951475E-18  -2.24115026E-10  -3.90410682E-15  -4.47545906E-15   8.01446369E-18
   1.20750000E+03   5.00000000E-01   5.00000000E-01  -1.10399296E-06  -9.06142864E-08  -3.98857710E-15  -1.21291463E-16  -1.12284594E-16   0.00000000E+00  -1.97618825E-10  -1.80638441E-11  -6.50048203E-07  -1.02390423E-07   7.44010805E-07  -2.70898749E-09   3.95613785E-08  -1.36521956E-11  -4.55107208E-08  -4.66314981E-08   5.29953687E-13   7.69325622E-18  -2.24254350E-10  -3.90410682E-15  -4.47543995E-15   1.01550968E-17
   1.24250000E+03   5.00000000E-01   5.00000000E-01  -1.10399262E-06   1.51395270E-08  -3.98859566E-15  -1.74285129E-16  -1.61496517E-16   0.00000000E+00  -1.96870843E-10   1.19115100E-11  -6.50149121E-07  -8.79112961E-08   6.96892429E-07  -3.61519748E-09   8.99134523E-08  -1.37000396E-11  -4.55051961E-08  -4.66314981E-08   9.34552434E-13   1.02628602E-17  -2.24410199E-10  -3.90410682E-15  -4.47543361E-15   1.15333394E-17
   1.27750000E+03   5.00000000E-01   5.00000000E-01  -1.10399242E-06   6.30940570E-08  -3.98862372E-15  -2.29025186E-16  -2.13338868E-16   0.00000000E+00  -1.96187621E-10   2.78784146E-11  -6.51230113E-07  -8.00379197E-08   6.75560049E-07  -5.85309209E-09   1.17568312E-07  -1.38188987E-11  -4.54918552E-08  -4.66314981E-08   1.71184720E-12   1.12930601E-17  -2.25395575E-10  -3.90410682E-15  -4.47543033E-15   1.24800228E-17
   1.31250000E+03   5.00000000E-01   5.00000000E-01  -1.10399221E-06   7.66479243E-08  -3.98867004E-15  -2.55750270E-16  -2.40531521E-16   0.00000000E+00  -1.95554719E-10   3.55194136E-11  -6.66159377E-07  -7.48756955E-08   6.70489382E-07  -6.62501246E-09   1.40423362E-07  -1.35542031E-11  -4.54744469E-08  -4.66314981E-08   3.26267747E-12   1.31625312E-17  -2.32714318E-10  -3.90410682E-15  -4.47542885E-15   1.31334146E-17
   1.34750000E+03   5.00000000E-01   5.00000000E-01  -1.10399185E-06   7.59295930E-08  -3.98875662E-15  -2.39222859E-16  -2.27832951E-16   0.00000000E+00  -1.94956344E-10   3.90196160E-11  -6.92146211E-07  -6.74836719E-08   6.72693501E-07  -4.24806830E-09   1.58903334E-07  -1.29927609E-11  -4.59155180E-08  -4.66314981E-08   6.47109894E-12   1.47275117E-17  -2.38850642E-10  -3.90410682E-15  -4.47543006E-15   1.35747149E-17
   1.38250000E+03   5.00000000E-01   5.00000000E-01  -1.10400790E-06  -3.09478632E-07  -3.98898091E-15  -1.99443476E-16  -1.92481685E-16   1.44927604E-06  -1.99061230E-10  -1.01293383E-10  -7.15875590E-07  -1.81085552E-07  -1.45524493E-07  -5.74923689E-09   9.48506266E-07  -1.32127702E-11  -4.69044456E-08  -4.66314981E-08   1.33312212E-11   6.75515368E-17  -2.39330474E-10  -3.90410682E-15  -4.47543683E-15   3.76270428E-18
   1.41750000E+03   5.00000000E-01   5.00000000E-01  -1.10401025E-06  -2.05863538E-07  -3.98912896E-15  -1.58343332E-16  -1.54693719E-16   2.33415275E-07  -1.98934251E-10  -8.17701683E-11  -7.37488933E-07  -1.79356982E-07   6.46717768E-07  -6.28405052E-09   2.69320950E-07  -1.26589328E-11  -4.77279612E-08  -4.66314981E-08   2.88255384E-11   1.25148257E-17  -2.39749887E-10  -3.90410682E-15  -4.47542125E-15   3.71344817E-18
   1.45250000E+03   5.00000000E-01   5.00000000E-01  -1.10401134E-06  -3.79614189E-08  -3.98929811E-15  -1.25578471E-16  -1.23957244E-16   1.38570873E-11  -1.98411503E-10  -4.77594938E-11  -7.57977574E-07  -1.58853963E-07   7.35568083E-07  -1.21203967E-08   2.36477096E-07  -1.28068814E-11  -4.84962228E-08  -4.66314981E-08   6.56831012E-11   5.85840020E-18  -2.39991847E-10  -3.90410682E-15  -4.47541199E-15   4.62644932E-18
   1.48750000E+03   5.00000000E-01   5.00000000E-01  -1.10401297E-06   5.23053027E-08  -3.98952340E-15  -1.00953047E-16  -1.00490531E-16   1.06971279E-21  -1.98076217E-10  -3.12752433E-11  -7.77977750E-07  -1.45329750E-07   6.98986000E-07  -1.80727950E-08   3.10845822E-07  -1.28271070E-11  -4.92314555E-08  -4.66314982E-08   1.58141253E-10   5.08685927E-18  -2.39639345E-10  -3.90410682E-15  -4.47541165E-15   5.00374934E-18
   1.52250000E+03   5.00000000E-01   5.00000000E-01  -1.10401509E-06   8.78339163E-08  -3.98981303E-15  -8.24194106E-17  -8.25924420E-17   2.50713880E-34  -1.97874156E-10  -2.56428500E-11  -7.97785735E-07  -1.36359517E-07   6.86982772E-07  -2.66434453E-08   3.64419723E-07  -1.28527971E-11  -4.99437828E-08  -4.66314982E-08   4.03540805E-10   4.21507339E-18  -2.38960451E-10  -3.90410682E-15  -4.47541454E-15   5.05334411E-18
   1.55750000E+03   5.00000000E-01   5.00000000E-01  -1.10401781E-06   9.39797753E-08  -3.99018297E-15  -6.82946147E-17  -6.87951455E-17   7.49679593E-47  -1.97805437E-10  -2.65960061E-11  -8.17399480E-07  -1.30081407E-07   6.89219944E-07  -4.15436253E-08   4.17475770E-07  -1.29190863E-11  -5.06336829E-08  -4.66314982E-08   1.09522288E-09   3.45913776E-18  -2.37954830E-10  -3.90410682E-15  -4.47541804E-15   4.84072375E-18
   1.59250000E+03   5.00000000E-01   5.00000000E-01  -1.10402153E-06   8.17488436E-08  -3.99065679E-15  -5.73986806E-17  -5.80472864E-17   3.22022720E-57  -1.97924426E-10  -3.32056820E-11  -8.36798107E-07  -1.26158454E-07   7.02299553E-07  -7.06525351E-08   4.92865015E-07  -1.29726296E-11  -5.13023890E-08  -4.66314982E-08   3.17318881E-09   2.73191678E-18  -2.36459111E-10  -3.90410682E-15  -4.47542102E-15   4.32174157E-18
   1.62750000E+03   5.00000000E-01   5.00000000E-01  -1.10402628E-06   6.58000860E-08  -3.99126198E-15  -4.89120359E-17  -4.96065299E-17   3.57466089E-64  -1.98211011E-10  -4.30258590E-11  -8.56039014E-07  -1.22321089E-07   7.16775880E-07  -9.91751679E-08   5.65017741E-07  -1.27180307E-11  -5.19522228E-08  -4.66314982E-08   9.84975641E-09   1.90573026E-18  -2.34065620E-10  -3.90410682E-15  -4.47542287E-15   3.56939739E-18
   1.66250000E+03   5.00000000E-01   5.00000000E-01  -1.10403065E-06   9.03089987E-08  -3.99201885E-15  -4.22679588E-17  -4.29524139E-17   3.03819983E-68  -1.98384293E-10  -4.56745638E-11  -8.75188501E-07  -1.08790196E-07   7.00425299E-07  -6.34038760E-08   5.13435862E-07  -1.21428140E-11  -5.25830035E-08  -4.66314982E-08   3.28375879E-08   1.02667650E-18  -2.30796194E-10  -3.90410682E-15  -4.47542370E-15   3.06404625E-18
   1.69750000E+03   5.00000000E-01   5.00000000E-01  -1.10403426E-06   1.46426324E-07  -3.99296506E-15  -3.70903658E-17  -3.77370355E-17   1.44907159E-71  -1.98371942E-10  -4.05345709E-11  -8.94743065E-07  -7.26389283E-08   6.62746030E-07   6.18085464E-09   3.92934793E-07  -1.15499213E-11  -5.31993932E-08  -4.66314983E-08   1.17228236E-07   4.75514979E-19  -2.26536310E-10  -3.90410682E-15  -4.47542516E-15   2.95085125E-18
   1.73250000E+03   5.00000000E-01   5.00000000E-01  -1.10403783E-06   1.92434005E-07  -3.99417534E-15  -3.31012657E-17  -3.36996070E-17   8.57972299E-73  -1.98214404E-10  -2.90752602E-11  -9.14541821E-07   6.16207565E-08   6.19348952E-07   1.15238816E-07   1.25391085E-07  -1.02609931E-11  -5.38108617E-08  -4.66314983E-08   4.37981287E-07   2.12815113E-19  -2.16552843E-10  -3.90410682E-15  -4.47542959E-15   3.42952715E-18
   1.76750000E+03   5.00000000E-01   5.00000000E-01  -1.10404133E-06   2.19850233E-07  -3.99568748E-15  -3.00389587E-17  -3.05876622E-17   3.61115278E-75  -1.98054151E-10  -2.09177939E-11  -9.35571065E-07   2.37826813E-07   5.95177839E-07   1.44882386E-07   2.24785490E-09  -8.77730551E-12  -5.45266099E-08  -4.66314983E-08   1.55968093E-06   7.20119853E-20  -2.00320703E-10  -3.90410682E-15  -4.47543392E-15   3.80311277E-18
   1.80250000E+03   5.00000000E-01   5.00000000E-01  -1.10404532E-06   2.24256982E-07  -3.99757421E-15  -2.76456746E-17  -2.81469185E-17   5.25307506E-79  -1.98035409E-10  -2.12054477E-11  -9.56689975E-07   4.10424063E-07   5.90787977E-07   1.15400878E-07   5.55265021E-12  -7.27708733E-12  -5.52931936E-08  -4.66314984E-08   4.12272082E-06   2.19617414E-20  -1.73183298E-10  -3.90410682E-15  -4.47543734E-15   3.70666230E-18
   1.83750000E+03   5.00000000E-01   5.00000000E-01  -1.10405210E-06   1.92660110E-07  -3.99996238E-15  -2.56991012E-17  -2.61552617E-17  -1.77503055E-81  -1.98461992E-10  -3.44380723E-11  -9.62250219E-07   6.88656541E-07   6.03678216E-07   4.21087969E-08   1.48496903E-15  -3.95260835E-12  -5.60272680E-08  -4.66314985E-08   6.15763313E-06   5.46974938E-21  -6.55376544E-11  -3.90410682E-15  -4.47543972E-15   2.92087540E-18
   1.87250000E+03   5.00000000E-01   5.00000000E-01  -1.10405673E-06   1.85443862E-07  -4.00289183E-15  -2.40246474E-17  -2.44361330E-17  -5.69789410E-81  -1.98663647E-10  -4.86050606E-11  -9.28421308E-07   8.10691162E-07   5.92714600E-07   3.88237599E-11   3.35590404E-20  -2.89237641E-12  -5.67700145E-08  -4.66314986E-08   5.37497904E-06   5.75503098E-22   1.40608540E-10  -3.90410682E-15  -4.47544235E-15   1.93980702E-18
   1.90750000E+03   5.00000000E-01   5.00000000E-01  -1.10405111E-06   1.01095151E-07  -4.00636766E-15  -2.25109485E-17  -2.28759706E-17  -9.65968739E-82  -1.98017298E-10  -6.61543678E-11  -8.69168813E-07   7.54355091E-07   5.61524927E-07  -9.49491490E-14   3.83276523E-24  -4.32060824E-12  -5.71003647E-08  -4.66314987E-08   3.41378240E-06   2.22297335E-23   3.13858061E-10  -3.90410682E-15  -4.47545308E-15   1.27956565E-18
   1.94250000E+03   5.00000000E-01   5.00000000E-01  -1.10403802E-06   9.31513080E-09  -4.01065026E-15  -2.11133177E-17  -2.14295057E-17  -2.26519453E-84  -1.97379904E-10  -8.40006140E-11  -7.36358682E-07   6.35301508E-07   4.87950061E-07  -1.94589103E-13  -1.45940021E-23  -4.42974391E-12  -5.81476002E-09  -4.66314988E-08   1.86855163E-06   4.93994079E-24   5.29710731E-10  -3.90410682E-15  -4.47546128E-15   6.54957677E-19
   1.97750000E+03   5.00000000E-01   5.00000000E-01  -1.10403368E-06   8.56517579E-10  -4.01609294E-15  -1.98410757E-17  -2.01078995E-17  -1.28110879E-85  -1.97490651E-10  -9.61132127E-11  -5.08854043E-07   3.79153962E-07   3.88218899E-07  -1.86423561E-13  -1.00664628E-23  -4.36837008E-12   9.11195346E-08  -4.66314985E-08   9.66301304E-07   0.00000000E+00   6.68293114E-10  -3.90410682E-15  -4.47546344E-15  -5.69904585E-20
   2.01250000E+03   5.00000000E-01   5.00000000E-01  -1.10402919E-06   2.62558287E-10  -4.02286539E-15  -1.86949024E-17  -1.89126145E-17  -2.88532671E-86  -1.97615438E-10  -1.05195899E-10  -3.54812374E-07   1.51682970E-07   3.47978119E-07  -1.77423739E-13  -7.68342958E-24  -4.31819510E-12   1.31079372E-07  -4.66314976E-08   5.00237300E-07  -1.23498520E-23   5.76507333E-10  -3.90410682E-15  -4.47546430E-15  -5.56378326E-19
   2.04750000E+03   5.00000000E-01   5.00000000E-01  -1.10402300E-06   1.45214718E-10  -4.03127164E-15  -1.76866777E-17  -1.78571916E-17  -1.84316128E-86  -1.97671356E-10  -1.11760957E-10  -2.67975697E-07   1.23082843E-08   3.30981953E-07  -1.68400615E-13  -6.20053063E-24  -4.28378356E-12   1.48014644E-07  -4.66314960E-08   2.70184899E-07   3.70495561E-24   4.36508407E-10  -3.90410682E-15  -4.47546479E-15  -8.81303631E-19
   2.08250000E+03   5.00000000E-01   5.00000000E-01  -1.10401514E-06   1.05087059E-10  -4.04168483E-15  -1.68247837E-17  -1.69516968E-17  -2.08430746E-86  -1.97678587E-10  -1.16592250E-10  -2.16829277E-07  -7.06529190E-08   3.21456283E-07  -1.59039318E-13  -5.13401174E-24  -4.26451778E-12   1.57517070E-07  -4.66314935E-08   1.57638215E-07  -2.46997041E-24   3.13772039E-10  -3.90410682E-15  -4.47546509E-15  -1.10067943E-18
   2.11750000E+03   5.00000000E-01   5.00000000E-01  -1.10400558E-06   8.74726106E-11  -4.05455006E-15  -1.61085824E-17  -1.61967312E-17  -3.18749870E-86  -1.97653681E-10  -1.20279094E-10  -1.84588565E-07  -1.22421443E-07   3.15212731E-07  -1.49414287E-13  -4.27903894E-24  -4.25782735E-12   1.63747846E-07  -4.66314901E-08   1.01848885E-07   1.23498521E-24   2.16083890E-10  -3.90410682E-15  -4.47546530E-15  -1.25687988E-18
   2.15250000E+03   5.00000000E-01   5.00000000E-01  -1.10399426E-06   7.86686863E-11  -4.07040214E-15  -1.55283996E-17  -1.55832473E-17  -5.72264116E-86  -1.97606601E-10  -1.23197995E-10  -1.62979019E-07  -1.56574418E-07   3.10767533E-07  -1.40053787E-13  -3.53287523E-24  -4.25808240E-12   1.68183888E-07  -4.66314855E-08   7.32489744E-08  -1.23498521E-24   1.39434083E-10  -3.90410682E-15  -4.47546545E-15  -1.37370338E-18
   2.18750000E+03   5.00000000E-01   5.00000000E-01  -1.10398102E-06   7.39182453E-11  -4.08988568E-15  -1.50680850E-17  -1.50951367E-17  -1.12187610E-85  -1.97543406E-10  -1.25586864E-10  -1.47735022E-07  -1.80252978E-07   3.07430204E-07  -1.31806115E-13  -2.84798740E-24  -4.25666798E-12   1.71513288E-07  -4.66314794E-08   5.77168397E-08   6.17492603E-24   7.88549869E-11  -3.90410682E-15  -4.47546556E-15  -1.46482617E-18
   2.22250000E+03   5.00000000E-01   5.00000000E-01  -1.10396571E-06   7.12436007E-11  -4.11377838E-15  -1.47084540E-17  -1.47128245E-17  -2.31085975E-85  -1.97467950E-10  -1.27599265E-10  -1.36528936E-07  -1.97360668E-07   3.04828971E-07  -1.25222968E-13  -2.22457669E-24  -4.24547508E-12   1.74106780E-07  -4.66314713E-08   4.85437238E-08  -1.85247781E-24   3.03713418E-11  -3.90410682E-15  -4.47546565E-15  -1.53844572E-18
   2.25750000E+03   5.00000000E-01   5.00000000E-01  -1.10394811E-06   6.97199674E-11  -4.14301901E-15  -1.44302286E-17  -1.44163954E-17  -4.90551861E-85  -1.97382785E-10  -1.29336973E-10  -1.28016303E-07  -2.10142691E-07   3.02745180E-07  -1.19893754E-13  -1.69067168E-24  -4.22208750E-12   1.76182483E-07  -4.66314609E-08   4.25355626E-08   3.08746301E-24  -8.93262271E-12  -3.90410682E-15  -4.47546572E-15  -1.59968367E-18
   2.29250000E+03   5.00000000E-01   5.00000000E-01  -1.10392799E-06   6.88750067E-11  -4.17874147E-15  -1.42160311E-17  -1.41877529E-17  -1.07028173E-84  -1.97289658E-10  -1.30869117E-10  -1.21377512E-07  -2.19958168E-07   3.01041208E-07  -1.14780422E-13  -1.26445360E-24  -4.18992964E-12   1.77877693E-07  -4.66314475E-08   3.81646027E-08  -3.08746301E-24  -4.11623290E-11  -3.90410682E-15  -4.47546578E-15  -1.65185924E-18
   2.32750000E+03   5.00000000E-01   5.00000000E-01  -1.10390508E-06   6.84497271E-11  -4.22231671E-15  -1.40512410E-17  -1.40115814E-17  -2.41526433E-84  -1.97189789E-10  -1.32243703E-10  -1.16089337E-07  -2.27667200E-07   2.99625694E-07  -1.09099856E-13  -9.39756276E-25  -4.15358428E-12   1.79283533E-07  -4.66314304E-08   3.46994003E-08  -6.17492601E-25  -6.78500274E-11  -3.90410682E-15  -4.47546583E-15  -1.69719392E-18
   2.36250000E+03   5.00000000E-01   5.00000000E-01  -1.10387907E-06   6.82936099E-11  -4.27540420E-15  -1.39241534E-17  -1.38755634E-17  -5.67759170E-84  -1.97084053E-10  -1.33494737E-10  -1.11804988E-07  -2.33834510E-07   2.98435567E-07  -1.02575409E-13  -6.97499832E-25  -4.11589588E-12   1.80462878E-07  -4.66314086E-08   3.17830717E-08  -5.55743340E-24  -9.01292316E-11  -3.90410682E-15  -4.47546587E-15  -1.73721761E-18
   2.39750000E+03   5.00000000E-01   5.00000000E-01  -1.10384963E-06   6.83147644E-11  -4.34001584E-15  -1.38256762E-17  -1.37700946E-17  -1.39798638E-83  -1.96973083E-10  -1.34646726E-10  -1.08287084E-07  -2.38843018E-07   2.97425924E-07  -9.51918322E-14  -5.17709589E-25  -4.07803160E-12   1.81460448E-07  -4.66313808E-08   2.92261442E-08  -4.93994078E-24  -1.08854194E-10  -3.90410682E-15  -4.47546591E-15  -1.77301090E-18