 TITLE = "Mineral Rate (mol/m^3/sec)" 
VARIABLES = "X"          "Y"              "Z"            "Forsterite"     "Fayalite"       "Saponite(Mg)"   "Enstatite(alph" "Ferrosilite(al" "Anorthite"      "Albite(low)"    "Clinochlore"    "Sudoite"        "Montmorillonit" "Kaolinite"      "Tremolite"      "Pargasite"      "Anhydrite"      "Epidote"        "Scolecite"      "Pyrite"         "FeS(am)"        "Quartz(alpha)" 
 ZONE I=         100 , J=           1 , K=           1  F=POINT
   1.75000000E+01   5.00000000E-01   5.00000000E-01  -3.45789585E-07  -4.49464278E-07   3.84485495E-07  -2.00431510E-10  -1.45862625E-10  -1.21204483E-07  -2.13328557E-07   2.55734401E-07  -5.74253520E-17  -1.57244542E-15  -2.01424418E-08  -4.73401887E-08  -4.85617709E-08  -3.85354994E-15  -6.33488071E-16  -2.26316333E-10  -5.65456288E-15  -5.86993789E-15   9.29814067E-18
   5.25000000E+01   5.00000000E-01   5.00000000E-01  -3.45789585E-07  -4.12547433E-07   3.87029781E-07  -2.00426765E-10  -1.20638993E-10  -1.21204483E-07  -1.56880543E-07   2.27030149E-07  -3.08642902E-17  -1.73017943E-15  -2.01114972E-08  -4.73401489E-08  -4.85617709E-08  -3.88894848E-15   1.54142723E-16  -2.26304645E-10  -5.65456288E-15  -5.86892911E-15   1.07181126E-17
   8.75000000E+01   5.00000000E-01   5.00000000E-01  -3.45789584E-07  -3.63249847E-07   3.69418716E-07  -2.00415691E-10  -9.89821516E-11  -1.21204483E-07  -1.31311159E-07   2.17215658E-07  -2.55106023E-17  -1.79923821E-15  -2.00878256E-08  -4.73400051E-08  -4.85617709E-08  -3.92817395E-15   2.30065353E-17  -2.26295822E-10  -5.65456288E-15  -5.86816281E-15   1.09667215E-17
   1.22500000E+02   5.00000000E-01   5.00000000E-01  -3.45789584E-07  -3.11313667E-07   3.45019944E-07  -2.00403106E-10  -8.14007065E-11  -1.21204483E-07  -1.12562246E-07   2.11964692E-07  -2.48026139E-17  -1.83623704E-15  -2.00635348E-08  -4.73399343E-08  -4.85617709E-08  -3.97158485E-15   3.75195427E-18  -2.26286606E-10  -5.65456288E-15  -5.86766916E-15   1.10120413E-17
   1.57500000E+02   5.00000000E-01   5.00000000E-01  -3.45789583E-07  -2.63195654E-07   3.21465599E-07  -2.00389608E-10  -6.76450576E-11  -1.21204483E-07  -9.58862966E-08   2.07603024E-07  -2.54728095E-17  -1.83186318E-15  -2.00356135E-08  -4.73399388E-08  -4.85617709E-08  -4.01952211E-15  -3.34976397E-18  -2.26276035E-10  -5.65456288E-15  -5.86741083E-15   1.09907229E-17
   1.92500000E+02   5.00000000E-01   5.00000000E-01  -3.45789583E-07  -2.21595801E-07   3.00936026E-07  -2.00375203E-10  -5.71379405E-11  -1.21204482E-07  -8.13359926E-08   2.03786253E-07  -2.67518138E-17  -1.76073168E-15  -2.00039801E-08  -4.73399120E-08  -4.85617709E-08  -4.07230648E-15  -9.00053751E-18  -2.26264135E-10  -5.65456288E-15  -5.86733058E-15   1.09179643E-17
   2.27500000E+02   5.00000000E-01   5.00000000E-01  -3.45789582E-07  -1.87053611E-07   2.83858527E-07  -2.00359854E-10  -4.92624364E-11  -1.21204482E-07  -6.92409266E-08   2.00607004E-07  -2.84674006E-17  -1.59618078E-15  -1.99691037E-08  -4.73398281E-08  -4.85617709E-08  -4.13022714E-15  -1.39613692E-17  -2.26251084E-10  -5.65456288E-15  -5.86737670E-15   1.08002711E-17
   2.62500000E+02   5.00000000E-01   5.00000000E-01  -3.45789581E-07  -1.59092039E-07   2.70037353E-07  -2.00343539E-10  -4.34646479E-11  -1.21204482E-07  -5.96066442E-08   1.98101712E-07  -3.06188169E-17  -1.31236111E-15  -1.99313687E-08  -4.73397937E-08  -4.85617709E-08  -4.19352014E-15  -1.80952053E-17  -2.26237021E-10  -5.65456288E-15  -5.86750853E-15   1.06461769E-17
   2.97500000E+02   5.00000000E-01   5.00000000E-01  -3.45789579E-07  -1.36830911E-07   2.59052941E-07  -2.00326246E-10  -3.92806654E-11  -1.21204481E-07  -5.22101998E-08   1.96230450E-07  -3.32725568E-17  -8.83477088E-16  -1.98909956E-08  -4.73398035E-08  -4.85617709E-08  -4.26233550E-15  -2.13600664E-17  -2.26222018E-10  -5.65456288E-15  -5.86769566E-15   1.04645748E-17
   3.32500000E+02   5.00000000E-01   5.00000000E-01  -3.45789578E-07  -1.19299601E-07   2.50431414E-07  -2.00307966E-10  -3.63361834E-11  -1.21204481E-07  -4.67325694E-08   1.94914334E-07  -3.65389982E-17  -2.82116775E-16  -1.98480542E-08  -4.73398110E-08  -4.85617709E-08  -4.33668662E-15  -2.37976849E-17  -2.26206090E-10  -5.65456288E-15  -5.86791595E-15   1.02633378E-17
   3.67500000E+02   5.00000000E-01   5.00000000E-01  -3.45789576E-07  -1.05587857E-07   2.43722100E-07  -2.00288687E-10  -3.43363031E-11  -1.21204480E-07  -4.28394999E-08   1.94062801E-07  -4.05730991E-17   5.22585063E-16  -1.98024921E-08  -4.73398528E-08  -4.85617709E-08  -4.41637355E-15  -2.54742267E-17  -2.26189208E-10  -5.65456288E-15  -5.86815358E-15   1.00489027E-17
   4.02500000E+02   5.00000000E-01   5.00000000E-01  -3.45789574E-07  -9.49084290E-08   2.38529498E-07  -2.00268399E-10  -3.30525167E-11  -1.21204479E-07  -4.02206573E-08   1.93587790E-07  -4.55883423E-17   1.56692288E-15  -1.97541816E-08  -4.73399323E-08  -4.85617709E-08  -4.50087160E-15  -2.64544837E-17  -2.26171312E-10  -5.65456288E-15  -5.86839744E-15   9.82632472E-18
   4.37500000E+02   5.00000000E-01   5.00000000E-01  -3.45789572E-07  -8.66124758E-08   2.34522018E-07  -2.00247086E-10  -3.23097865E-11  -1.21204477E-07  -3.86045613E-08   1.93409743E-07  -5.18777632E-17   2.89486032E-15  -1.97029348E-08  -4.73400368E-08  -4.85617709E-08  -4.58916773E-15  -2.67961399E-17  -2.26152321E-10  -5.65456288E-15  -5.86863985E-15   9.59949401E-18
   4.72500000E+02   5.00000000E-01   5.00000000E-01  -3.45789569E-07  -8.01819561E-08   2.31429330E-07  -2.00224732E-10  -3.19751195E-11  -1.21204475E-07  -3.77610630E-08   1.93459304E-07  -5.98459952E-17   4.56065798E-15  -1.96485144E-08  -4.73401617E-08  -4.85617709E-08  -4.67951969E-15  -2.65504470E-17  -2.26132133E-10  -5.65456288E-15  -5.86887563E-15   9.37137403E-18
   5.07500000E+02   5.00000000E-01   5.00000000E-01  -3.45789566E-07  -7.52124484E-08   2.29034863E-07  -2.00201320E-10  -3.19480550E-11  -1.21204472E-07  -3.74982742E-08   1.93677066E-07  -7.00579833E-17   6.63219846E-15  -1.95906402E-08  -4.73403028E-08  -4.85617709E-08  -4.76910059E-15  -2.57649199E-17  -2.26110631E-10  -5.65456288E-15  -5.86910141E-15   9.14421024E-18
   5.42500000E+02   5.00000000E-01   5.00000000E-01  -3.45789563E-07  -7.13934368E-08   2.27167109E-07  -2.00176829E-10  -3.21530181E-11  -1.21204468E-07  -3.76576664E-08   1.94012599E-07  -8.33115852E-17   9.19527185E-15  -1.95289914E-08  -4.73404558E-08  -4.85617709E-08  -4.85347161E-15  -2.44864040E-17  -2.26087678E-10  -5.65456288E-15  -5.86931509E-15   8.91969664E-18
   5.77500000E+02   5.00000000E-01   5.00000000E-01  -3.45789559E-07  -6.84894886E-08   2.25691456E-07  -2.00151242E-10  -3.25333201E-11  -1.21204464E-07  -3.81091514E-08   1.94423382E-07  -1.00746297E-16   1.23590971E-14  -1.94632061E-08  -4.73406172E-08  -4.85617709E-08  -4.92579449E-15  -2.27635257E-17  -2.26063126E-10  -5.65456288E-15  -5.86951547E-15   8.69910173E-18
   6.12500000E+02   5.00000000E-01   5.00000000E-01  -3.45789555E-07  -6.63237179E-08   2.24503223E-07  -2.00124536E-10  -3.30465262E-11  -1.21204457E-07  -3.87468994E-08   1.94873890E-07  -1.24005516E-16   1.62633349E-14  -1.93928812E-08  -4.73407849E-08  -4.85617709E-08  -4.97564630E-15  -2.06483271E-17  -2.26036809E-10  -5.65456288E-15  -5.86970202E-15   8.48336029E-18
   6.47500000E+02   5.00000000E-01   5.00000000E-01  -3.45789550E-07  -6.47639087E-08   2.23522029E-07  -2.00096691E-10  -3.36609143E-11  -1.21204449E-07  -3.94860767E-08   1.95334930E-07  -1.55475245E-16   2.10868036E-14  -1.93175749E-08  -4.73409574E-08  -4.85617709E-08  -4.98722058E-15  -1.81971162E-17  -2.26008546E-10  -5.65456288E-15  -5.86987465E-15   8.27313908E-18
   6.82500000E+02   5.00000000E-01   5.00000000E-01  -3.45789546E-07  -6.37112106E-08   2.22687357E-07  -2.00067684E-10  -3.43527876E-11  -1.21204438E-07  -4.02603928E-08   1.95783167E-07  -1.98623025E-16   2.70580434E-14  -1.92368115E-08  -4.73411343E-08  -4.85617709E-08  -4.93657059E-15  -1.54701727E-17  -2.25978146E-10  -5.65456288E-15  -5.87003359E-15   8.06888373E-18
   7.17500000E+02   5.00000000E-01   5.00000000E-01  -3.45789541E-07  -6.30911402E-08   2.21955069E-07  -2.00037492E-10  -3.51044459E-11  -1.21204425E-07  -4.10202197E-08   1.96200789E-07  -2.58440178E-16   3.44677531E-14  -1.91500907E-08  -4.73413157E-08  -4.85617709E-08  -4.78734034E-15  -1.25306733E-17  -2.25945406E-10  -5.65456288E-15  -5.87017927E-15   7.87085334E-18
   7.52500000E+02   5.00000000E-01   5.00000000E-01  -3.45789536E-07  -6.28465865E-08   2.21294601E-07  -2.00006090E-10  -3.59026601E-11  -1.21204407E-07  -4.17310165E-08   1.96575208E-07  -3.41896198E-16   4.36829271E-14  -1.90569004E-08  -4.73415018E-08  -4.85617709E-08  -4.48407758E-15  -9.44290407E-18  -2.25910117E-10  -5.65456288E-15  -5.87031229E-15   7.67914801E-18
   7.87500000E+02   5.00000000E-01   5.00000000E-01  -3.45789533E-07  -6.29325208E-08   2.20686612E-07  -1.99973450E-10  -3.67375294E-11  -1.21204384E-07  -4.23718239E-08   1.96898723E-07  -4.57991997E-16   5.51622068E-14  -1.89567334E-08  -4.73416929E-08  -4.85617709E-08  -3.94162826E-15  -6.26976773E-18  -2.25872073E-10  -5.65456288E-15  -5.87043333E-15   7.49373277E-18
   8.22500000E+02   5.00000000E-01   5.00000000E-01  -3.45789531E-07  -6.33121390E-08   2.20120918E-07  -1.99939544E-10  -3.76016273E-11  -1.21204355E-07  -4.29336576E-08   1.97168088E-07  -6.15999670E-16   6.94715026E-14  -1.88491063E-08  -4.73418879E-08  -4.85617709E-08  -3.02808923E-15  -3.07038553E-18  -2.25831069E-10  -5.65456288E-15  -5.87054313E-15   7.31446075E-18
   8.57500000E+02   5.00000000E-01   5.00000000E-01  -3.45789533E-07  -6.39541720E-08   2.19594571E-07  -1.99904341E-10  -3.84893633E-11  -1.21204317E-07  -4.34177107E-08   1.97383958E-07  -8.17494645E-16   8.72983348E-14  -1.87335797E-08  -4.73420845E-08  -4.85617709E-08  -1.53700849E-15   1.02335810E-19  -2.25786912E-10  -5.65456288E-15  -5.87064244E-15   7.14109628E-18
   8.92500000E+02   5.00000000E-01   5.00000000E-01  -3.45789540E-07  -6.48311160E-08   2.19110076E-07  -1.99867806E-10  -3.93965055E-11  -1.21204270E-07  -4.38333604E-08   1.97550217E-07  -1.02901115E-15   1.09462601E-13  -1.86097766E-08  -4.73422796E-08  -4.85617709E-08   8.58656562E-16   3.20334890E-18  -2.25739424E-10  -5.65456288E-15  -5.87073203E-15   6.97333835E-18
   9.27500000E+02   5.00000000E-01   5.00000000E-01  -3.45789555E-07  -6.59181446E-08   2.18673705E-07  -1.99829901E-10  -4.03198189E-11  -1.21204209E-07  -4.41960402E-08   1.97673213E-07  -1.09636467E-15   1.36920729E-13  -1.84773996E-08  -4.73424718E-08  -4.85617709E-08   4.68406649E-15   6.19656242E-18  -2.25688445E-10  -5.65456288E-15  -5.87081267E-15   6.81084363E-18
   9.62500000E+02   5.00000000E-01   5.00000000E-01  -3.45789584E-07  -6.71924890E-08   2.18293971E-07  -1.99790588E-10  -4.12567898E-11  -1.21204133E-07  -4.45250877E-08   1.97760956E-07  -4.85477943E-16   1.70759577E-13  -1.83362437E-08  -4.73426649E-08  -4.85617709E-08   1.07953767E-14   9.05493755E-18  -2.25633834E-10  -5.65456288E-15  -5.87088509E-15   6.65324793E-18
   9.97500000E+02   5.00000000E-01   5.00000000E-01  -3.45789634E-07  -6.86331010E-08   2.17980275E-07  -1.99749824E-10  -4.22054118E-11  -1.21204036E-07  -4.48416962E-08   1.97822336E-07   2.49283244E-15   2.12176398E-13  -1.81862071E-08  -4.73428668E-08  -4.85617709E-08   2.06118232E-14   1.17598580E-17  -2.25575473E-10  -5.65456288E-15  -5.87095002E-15   6.50018507E-18
   1.03250000E+03   5.00000000E-01   5.00000000E-01  -3.45789715E-07  -7.02204574E-08   2.17741776E-07  -1.99707564E-10  -4.31640172E-11  -1.21203915E-07  -4.51670887E-08   1.97866399E-07   1.30032717E-14   2.62441784E-13  -1.80272991E-08  -4.73430809E-08  -4.85617709E-08   3.65293409E-14   1.42999423E-17  -2.25513262E-10  -5.65456288E-15  -5.87100812E-15   6.35130214E-18
   1.06750000E+03   5.00000000E-01   5.00000000E-01  -3.45789842E-07  -7.19363835E-08   2.17586507E-07  -1.99663763E-10  -4.41311392E-11  -1.21203763E-07  -4.55210173E-08   1.97901742E-07   4.66810913E-14   3.22842985E-13  -1.78596446E-08  -4.73432959E-08  -4.85617709E-08   6.26736997E-14   1.66693684E-17  -2.25447122E-10  -5.65456288E-15  -5.87106003E-15   6.20627080E-18
   1.10250000E+03   5.00000000E-01   5.00000000E-01  -3.45790036E-07  -7.37638057E-08   2.17520795E-07  -1.99618372E-10  -4.51053907E-11  -1.21203574E-07  -4.59206611E-08   1.97936013E-07   1.50930659E-13   3.94604612E-13  -1.76834805E-08  -4.73434936E-08  -4.85617709E-08   1.06303526E-13   1.88661456E-17  -2.25376985E-10  -5.65456288E-15  -5.87110636E-15   6.06479475E-18
   1.13750000E+03   5.00000000E-01   5.00000000E-01  -3.45790327E-07  -7.56864140E-08   2.17549033E-07  -1.99571342E-10  -4.60853575E-11  -1.21203339E-07  -4.63799518E-08   1.97975474E-07   4.70468613E-13   4.78787378E-13  -1.74991481E-08  -4.73436693E-08  -4.85617709E-08   1.80488177E-13   2.08903332E-17  -2.25302795E-10  -5.65456288E-15  -5.87114766E-15   5.92661328E-18
   1.17250000E+03   5.00000000E-01   5.00000000E-01  -3.45790755E-07  -7.76882198E-08   2.17673928E-07  -1.99522622E-10  -4.70695103E-11  -1.21203048E-07  -4.69093790E-08   1.98024449E-07   1.45103340E-12   5.76171137E-13  -1.73070921E-08  -4.73438453E-08  -4.85617709E-08   3.09352178E-13   2.27426450E-17  -2.25224504E-10  -5.65456288E-15  -5.87118444E-15   5.79150070E-18
   1.20750000E+03   5.00000000E-01   5.00000000E-01  -3.45791367E-07  -7.97528954E-08   2.17897720E-07  -1.99472159E-10  -4.80561300E-11  -1.21202689E-07  -4.75165063E-08   1.98084128E-07   4.47793386E-12   6.87132629E-13  -1.71078831E-08  -4.73440558E-08  -4.85617709E-08   5.38630679E-13   2.44228439E-17  -2.25142070E-10  -5.65456288E-15  -5.87121717E-15   5.65926020E-18
   1.24250000E+03   5.00000000E-01   5.00000000E-01  -3.45792216E-07  -8.18624431E-08   2.18226216E-07  -1.99419899E-10  -4.90432244E-11  -1.21202247E-07  -4.82080543E-08   1.98148973E-07   1.38917398E-11   8.11524581E-13  -1.69023058E-08  -4.73442901E-08  -4.85617709E-08   9.57539424E-13   2.59271659E-17  -2.25055470E-10  -5.65456288E-15  -5.87124627E-15   5.52970629E-18
   1.27750000E+03   5.00000000E-01   5.00000000E-01  -3.45793360E-07  -8.39935858E-08   2.18681864E-07  -1.99365782E-10  -5.00283307E-11  -1.21201705E-07  -4.89964643E-08   1.98195261E-07   4.33742439E-11   9.48494802E-13  -1.66916136E-08  -4.73444812E-08  -4.85617709E-08   1.74550069E-12   2.72415719E-17  -2.24964749E-10  -5.65456288E-15  -5.87127213E-15   5.40261770E-18
   1.31250000E+03   5.00000000E-01   5.00000000E-01  -3.45794867E-07  -8.61072653E-08   2.19345463E-07  -1.99309731E-10  -5.10079781E-11  -1.21201044E-07  -4.99198490E-08   1.98144506E-07   1.36097724E-10   1.09606313E-12  -1.64783632E-08  -4.73445813E-08  -4.85617709E-08   3.27526861E-12   2.83229364E-17  -2.24870192E-10  -5.65456288E-15  -5.87129509E-15   5.27760088E-18
   1.34750000E+03   5.00000000E-01   5.00000000E-01  -3.45796800E-07  -8.81175820E-08   2.20485618E-07  -1.99251620E-10  -5.19761831E-11  -1.21200241E-07  -5.11018827E-08   1.97749551E-07   4.27041910E-10   1.24995343E-12  -1.62691992E-08  -4.73446349E-08  -4.85617709E-08   6.34846550E-12   2.90459362E-17  -2.24772911E-10  -5.65456288E-15  -5.87131544E-15   5.15368595E-18
   1.38250000E+03   5.00000000E-01   5.00000000E-01  -3.45799181E-07  -8.98026197E-08   2.22936061E-07  -1.99191163E-10  -5.29201997E-11  -1.21199281E-07  -5.29228654E-08   1.96262398E-07   1.32403992E-09   1.40005616E-12  -1.60833752E-08  -4.73448799E-08  -4.85617709E-08   1.27533237E-11   2.90611082E-17  -2.24676652E-10  -5.65456288E-15  -5.87133341E-15   5.02818247E-18
   1.41750000E+03   5.00000000E-01   5.00000000E-01  -3.45801899E-07  -9.05847055E-08   2.29008756E-07  -1.99127636E-10  -5.38106391E-11  -1.21198170E-07  -5.64332078E-08   1.91627655E-07   3.94789639E-09   1.52129634E-12  -1.59748891E-08  -4.73455358E-08  -4.85617709E-08   2.66367324E-11   2.74976526E-17  -2.24592595E-10  -5.65456288E-15  -5.87134908E-15   4.89389332E-18
   1.45250000E+03   5.00000000E-01   5.00000000E-01  -3.45804791E-07  -8.91994835E-08   2.43620957E-07  -1.99059387E-10  -5.45906197E-11  -1.21196988E-07  -6.39219204E-08   1.79458829E-07   1.07074621E-08   1.55916095E-12  -1.60662034E-08  -4.73460258E-08  -4.85617709E-08   5.80188883E-11   2.27657554E-17  -2.24547216E-10  -5.65456288E-15  -5.87136238E-15   4.73497065E-18
   1.48750000E+03   5.00000000E-01   5.00000000E-01  -3.45807880E-07  -8.40697570E-08   2.71270066E-07  -1.98984021E-10  -5.52146974E-11  -1.21195908E-07  -7.80126180E-08   1.55545246E-07   2.40560521E-08   1.44309180E-12  -1.65057303E-08  -4.73461592E-08  -4.85617709E-08   1.32184245E-10   1.42121813E-17  -2.24575666E-10  -5.65456288E-15  -5.87137325E-15   4.53133753E-18
   1.52250000E+03   5.00000000E-01   5.00000000E-01  -3.45811192E-07  -7.55593237E-08   3.05443681E-07  -1.98900919E-10  -5.57816555E-11  -1.21195035E-07  -9.76293733E-08   1.25057996E-07   4.16705438E-08   1.18069573E-12  -1.72491071E-08  -4.73466925E-08  -4.85617709E-08   3.15896114E-10   6.00132247E-18  -2.24675970E-10  -5.65456288E-15  -5.87138218E-15   4.28479739E-18
   1.55750000E+03   5.00000000E-01   5.00000000E-01  -3.45814578E-07  -6.67320838E-08   3.32023205E-07  -1.98812641E-10  -5.65122415E-11  -1.21194240E-07  -1.17706227E-07   1.00291807E-07   5.72069340E-08   8.81639280E-13  -1.80362202E-08  -4.73478994E-08  -4.85617709E-08   7.93993668E-10   3.76267242E-18  -2.24797358E-10  -5.65456288E-15  -5.87139018E-15   4.02745871E-18
   1.59250000E+03   5.00000000E-01   5.00000000E-01  -3.45818018E-07  -6.02464073E-08   3.46974292E-07  -1.98721958E-10  -5.75168084E-11  -1.21193321E-07  -1.34646635E-07   8.56145598E-08   6.78333236E-08   6.31638622E-13  -1.86839184E-08  -4.73487289E-08  -4.85617709E-08   2.10408901E-09   7.10153903E-18  -2.24898815E-10  -5.65456288E-15  -5.87139788E-15   3.78857776E-18
   1.62750000E+03   5.00000000E-01   5.00000000E-01  -3.45821577E-07  -5.67516355E-08   3.54558484E-07  -1.98630030E-10  -5.87498620E-11  -1.21192154E-07  -1.47814130E-07   7.80768659E-08   7.44876830E-08   4.48877172E-13  -1.91615664E-08  -4.73489331E-08  -4.85617709E-08   5.89095604E-09   1.24976573E-17  -2.24969705E-10  -5.65456288E-15  -5.87140540E-15   3.57821737E-18
   1.66250000E+03   5.00000000E-01   5.00000000E-01  -3.45825141E-07  -5.56334832E-08   3.59031888E-07  -1.98536878E-10  -6.01065390E-11  -1.21190688E-07  -1.57907113E-07   7.41208019E-08   7.87792357E-08   3.20936965E-13  -1.95040401E-08  -4.73488483E-08  -4.85617709E-08   1.74455094E-08   1.74185951E-17  -2.25014605E-10  -5.65456288E-15  -5.87141259E-15   3.39432945E-18
   1.69750000E+03   5.00000000E-01   5.00000000E-01  -3.45828687E-07  -5.59400672E-08   3.62562077E-07  -1.98442094E-10  -6.14882172E-11  -1.21188908E-07  -1.65803304E-07   7.16104431E-08   8.18324107E-08   2.31361935E-13  -1.97538812E-08  -4.73486244E-08  -4.85617709E-08   5.45657534E-08   2.04587841E-17  -2.25041859E-10  -5.65456288E-15  -5.87141930E-15   3.23120918E-18
   1.73250000E+03   5.00000000E-01   5.00000000E-01  -3.45832371E-07  -5.68230141E-08   3.65760072E-07  -1.98345260E-10  -6.28179469E-11  -1.21186847E-07  -1.72157438E-07   6.96128788E-08   8.42409984E-08   1.67709351E-13  -1.99422127E-08  -4.73483662E-08  -4.85617709E-08   1.78470903E-07   1.98294187E-17  -2.25060845E-10  -5.65456288E-15  -5.87142546E-15   3.08376224E-18
   1.76750000E+03   5.00000000E-01   5.00000000E-01  -3.45836173E-07  -5.75398836E-08   3.68455627E-07  -1.98246102E-10  -6.40231074E-11  -1.21184694E-07  -1.77355487E-07   6.77111132E-08   8.63336898E-08   1.21924222E-13  -2.00872844E-08  -4.73481771E-08  -4.85617709E-08   5.87601856E-07   1.00843473E-17  -2.25087018E-10  -5.65456288E-15  -5.87143102E-15   2.94868071E-18
   1.80250000E+03   5.00000000E-01   5.00000000E-01  -3.45839952E-07  -5.72898837E-08   3.70209360E-07  -1.98144493E-10  -6.50132794E-11  -1.21183122E-07  -1.81581952E-07   6.53346590E-08   8.84843872E-08   8.88781720E-14  -2.01987630E-08  -4.73481232E-08  -4.85617709E-08   1.73249257E-06  -2.44602910E-17  -2.25154036E-10  -5.65456288E-15  -5.87143602E-15   2.82414249E-18
   1.83750000E+03   5.00000000E-01   5.00000000E-01  -3.45843497E-07  -5.58327350E-08   3.71017541E-07  -1.98040308E-10  -6.57713618E-11  -1.21183271E-07  -1.84967476E-07   6.19298572E-08   9.10070791E-08   6.49603802E-14  -2.02838294E-08  -4.73483985E-08  -4.85617709E-08   3.63829894E-06  -1.10231864E-16  -2.25300171E-10  -5.65456288E-15  -5.87144051E-15   2.70876907E-18
   1.87250000E+03   5.00000000E-01   5.00000000E-01  -3.45846594E-07  -5.45911633E-08   3.72537437E-07  -1.97933109E-10  -6.65100389E-11  -1.21185115E-07  -1.87825152E-07   5.82048633E-08   9.34912650E-08   4.70842523E-14  -2.03548722E-08  -4.73491200E-08  -4.85617709E-08   4.64093014E-06  -2.49904621E-16  -2.25494679E-10  -5.65456288E-15  -5.87144461E-15   2.60000824E-18
   1.90750000E+03   5.00000000E-01   5.00000000E-01  -3.45849286E-07  -5.47106868E-08   3.75775206E-07  -1.97822453E-10  -6.73982390E-11  -1.21187172E-07  -1.90448873E-07   5.53781260E-08   9.53199621E-08   3.31680744E-14  -2.04220322E-08  -4.73498308E-08  -4.85617709E-08   3.95397779E-06  -3.84817373E-16  -2.25663071E-10  -5.65456288E-15  -5.87144836E-15   2.49556334E-18
   1.94250000E+03   5.00000000E-01   5.00000000E-01  -3.45851766E-07  -5.57317569E-08   3.79410494E-07  -1.97708297E-10  -6.83767313E-11  -1.21188418E-07  -1.92880846E-07   5.36961141E-08   9.64924493E-08   2.22713216E-14  -2.04858378E-08  -4.73500674E-08  -4.85617709E-08   2.72705190E-06  -4.20389881E-16  -2.25776147E-10  -5.65456288E-15  -5.87145175E-15   2.39500680E-18
   1.97750000E+03   5.00000000E-01   5.00000000E-01  -3.45854126E-07  -5.67481367E-08   3.82335673E-07  -1.97590740E-10  -6.93229101E-11  -1.21188660E-07  -1.95056376E-07   5.26990105E-08   9.73150807E-08   1.38662972E-14  -2.05434212E-08  -4.73498814E-08  -4.85617709E-08   1.75184378E-06  -3.23030560E-16  -2.25842542E-10  -5.65456288E-15  -5.87145479E-15   2.29872770E-18
   2.01250000E+03   5.00000000E-01   5.00000000E-01  -3.45856385E-07  -5.71186881E-08   3.84405529E-07  -1.97469811E-10  -7.01521076E-11  -1.21188025E-07  -1.96929419E-07   5.18464267E-08   9.80581823E-08   7.48086178E-15  -2.05932387E-08  -4.73494742E-08  -4.85617709E-08   1.13669046E-06  -1.58324478E-16  -2.25878148E-10  -5.65456288E-15  -5.87145749E-15   2.20696364E-18
   2.04750000E+03   5.00000000E-01   5.00000000E-01  -3.45858538E-07  -5.65010039E-08   3.85820526E-07  -1.97345464E-10  -7.08227851E-11  -1.21186654E-07  -1.98491496E-07   5.07914247E-08   9.88762218E-08   2.67317029E-15  -2.06354521E-08  -4.73489794E-08  -4.85617709E-08   7.76095571E-07  -5.12450330E-18  -2.25894785E-10  -5.65456288E-15  -5.87145990E-15   2.11962917E-18
   2.08250000E+03   5.00000000E-01   5.00000000E-01  -3.45860571E-07  -5.47331354E-08   3.86766253E-07  -1.97217613E-10  -7.13194883E-11  -1.21184623E-07  -1.99755514E-07   4.93682016E-08   9.98401022E-08  -9.33071949E-16  -2.06710789E-08  -4.73484629E-08  -4.85617709E-08   5.65620891E-07   1.02701865E-16  -2.25899550E-10  -5.65456288E-15  -5.87146203E-15   2.03644891E-18
   2.11750000E+03   5.00000000E-01   5.00000000E-01  -3.45862467E-07  -5.17476051E-08   3.87341116E-07  -1.97086159E-10  -7.16399890E-11  -1.21181942E-07  -2.00740006E-07   4.75204370E-08   1.00974831E-07  -3.63324709E-15  -2.07012641E-08  -4.73479554E-08  -4.85617709E-08   4.39513923E-07   1.65196605E-16  -2.25896422E-10  -5.65456288E-15  -5.87146393E-15   1.95710522E-18
   2.15250000E+03   5.00000000E-01   5.00000000E-01  -3.45864213E-07  -4.75253732E-08   3.87593028E-07  -1.96951001E-10  -7.17885693E-11  -1.21178571E-07  -2.01462836E-07   4.52358431E-08   1.02287460E-07  -5.65154792E-15  -2.07270769E-08  -4.73474725E-08  -4.85617709E-08   3.61297270E-07   1.93527310E-16  -2.25887619E-10  -5.65456288E-15  -5.87146563E-15   1.88129895E-18
   2.18750000E+03   5.00000000E-01   5.00000000E-01  -3.45865797E-07  -4.20753710E-08   3.87550451E-07  -1.96812037E-10  -7.17731322E-11  -1.21174432E-07  -2.01939829E-07   4.25173128E-08   1.03778530E-07  -7.15732125E-15  -2.07494973E-08  -4.73470222E-08  -4.85617709E-08   3.11012760E-07   1.99150289E-16  -2.25874379E-10  -5.65456288E-15  -5.87146715E-15   1.80876078E-18
   2.22250000E+03   5.00000000E-01   5.00000000E-01  -3.45867214E-07  -3.54283636E-08   3.87227528E-07  -1.96669168E-10  -7.16041347E-11  -1.21169409E-07  -2.02183865E-07   3.93845351E-08   1.05440549E-07  -8.27749617E-15  -2.07693153E-08  -4.73466089E-08  -4.85617709E-08   2.76685465E-07   1.91089344E-16  -2.25857331E-10  -5.65456288E-15  -5.87146851E-15   1.73925796E-18
   2.25750000E+03   5.00000000E-01   5.00000000E-01  -3.45868465E-07  -2.76359155E-08   3.86636322E-07  -1.96522293E-10  -7.12942911E-11  -1.21163341E-07  -2.02205554E-07   3.58656702E-08   1.07261270E-07  -9.10707319E-15  -2.07871043E-08  -4.73462337E-08  -4.85617709E-08   2.51188102E-07   1.75439238E-16  -2.25836725E-10  -5.65456288E-15  -5.87146974E-15   1.67258628E-18
   2.29250000E+03   5.00000000E-01   5.00000000E-01  -3.45869554E-07  -1.87739622E-08   3.85778798E-07  -1.96371319E-10  -7.08585951E-11  -1.21156027E-07  -2.02012500E-07   3.20081407E-08   1.09218720E-07  -9.71474895E-15  -2.08030794E-08  -4.73458957E-08  -4.85617709E-08   2.29917099E-07   1.56157736E-16  -2.25812542E-10  -5.65456288E-15  -5.87147084E-15   1.60857664E-18
   2.32750000E+03   5.00000000E-01   5.00000000E-01  -3.45870488E-07  -8.94685287E-09   3.84656283E-07  -1.96216158E-10  -7.03144602E-11  -1.21147213E-07  -2.01609931E-07   2.78702638E-08   1.11284824E-07  -1.01503156E-14  -2.08172817E-08  -4.73455925E-08  -4.85617709E-08   2.10627653E-07   1.35592922E-16  -2.25784616E-10  -5.65456288E-15  -5.87147184E-15   1.54709172E-18
   2.36250000E+03   5.00000000E-01   5.00000000E-01  -3.45871276E-07   1.70991719E-09   3.83291238E-07  -1.96056714E-10  -6.96819706E-11  -1.21136603E-07  -2.01003619E-07   2.35021140E-08   1.13434070E-07  -1.04539927E-14  -2.08299901E-08  -4.73453205E-08  -4.85617709E-08   1.93292812E-07   1.15104080E-16  -2.25752785E-10  -5.65456288E-15  -5.87147275E-15   1.48800104E-18
   2.39750000E+03   5.00000000E-01   5.00000000E-01  -3.45871925E-07   1.30289499E-08   3.81716627E-07  -1.95892887E-10  -6.89836934E-11  -1.21123851E-07  -2.00200430E-07   1.89599113E-08   1.15637317E-07  -1.06592274E-14  -2.08416665E-08  -4.73450754E-08  -4.85617709E-08   1.78158511E-07   9.57020908E-17  -2.25716912E-10  -5.65456288E-15  -5.87147358E-15   1.43117328E-18
   2.43250000E+03   5.00000000E-01   5.00000000E-01  -3.45872446E-07   2.48160845E-08   3.79960914E-07  -1.95724577E-10  -6.82436821E-11  -1.21108548E-07  -1.99206915E-07   1.43204117E-08   1.17855348E-07  -1.07911447E-14  -2.08526116E-08  -4.73448526E-08  -4.85617709E-08   1.64731640E-07   7.81406646E-17  -2.25676833E-10  -5.65456288E-15  -5.87147435E-15   1.37648402E-18
   2.46750000E+03   5.00000000E-01   5.00000000E-01  -3.45872845E-07   3.68616508E-08   3.78048078E-07  -1.95551685E-10  -6.74860084E-11  -1.21090206E-07  -1.98028415E-07   9.67479003E-09   1.20041591E-07  -1.08659623E-14  -2.08627576E-08  -4.73446476E-08  -4.85617709E-08   1.52158329E-07   6.28273517E-17  -2.25632324E-10  -5.65456288E-15  -5.87147505E-15   1.32381907E-18
   2.50250000E+03   5.00000000E-01   5.00000000E-01  -3.45873130E-07   4.89518574E-08   3.76001679E-07  -1.95374111E-10  -6.67335145E-11  -1.21068251E-07  -1.96669068E-07   5.11408892E-09   1.22149150E-07  -1.08941352E-14  -2.08718719E-08  -4.73444562E-08  -4.85617709E-08   1.40173602E-07   4.98393636E-17  -2.25583134E-10  -5.65456288E-15  -5.87147569E-15   1.27307416E-18
   2.53750000E+03   5.00000000E-01   5.00000000E-01  -3.45873308E-07   6.08794140E-08   3.73843079E-07  -1.95191755E-10  -6.60067754E-11  -1.21042017E-07  -1.95131607E-07   7.23210646E-10   1.24134079E-07  -1.08845678E-14  -2.08799028E-08  -4.73442744E-08  -4.85617709E-08   1.29138999E-07   3.90607293E-17  -2.25529028E-10  -5.65456288E-15  -5.87147629E-15   1.22415698E-18
   2.57250000E+03   5.00000000E-01   5.00000000E-01  -3.45873385E-07   7.24572318E-08   3.71588643E-07  -1.95004519E-10  -6.53229151E-11  -1.21010726E-07  -1.93416701E-07  -3.41973852E-09   1.25955788E-07  -1.08457947E-14  -2.08870156E-08  -4.73440990E-08  -4.85617709E-08   1.19318830E-07   3.02919381E-17  -2.25469769E-10  -5.65456288E-15  -5.87147684E-15   1.17698748E-18
   2.60750000E+03   5.00000000E-01   5.00000000E-01  -3.45873370E-07   8.35326371E-08   3.69249551E-07  -1.94812306E-10  -6.46945858E-11  -1.20973461E-07  -1.91522537E-07  -7.24718158E-09   1.27578712E-07  -1.07848175E-14  -2.08933904E-08  -4.73439275E-08  -4.85617709E-08   1.10554906E-07   2.32879671E-17  -2.25405073E-10  -5.65456288E-15  -5.87147735E-15   1.13149384E-18
   2.64250000E+03   5.00000000E-01   5.00000000E-01  -3.45873273E-07   9.39957090E-08   3.66832578E-07  -1.94615022E-10  -6.41296521E-11  -1.20929136E-07  -1.89444915E-07  -1.07070867E-08   1.28974672E-07  -1.07060769E-14  -2.08990522E-08  -4.73437581E-08  -4.85617709E-08   1.02452309E-07   1.77793389E-17  -2.25334581E-10  -5.65456288E-15  -5.87147783E-15   1.08760707E-18
   2.67750000E+03   5.00000000E-01   5.00000000E-01  -3.45873106E-07   1.03778393E-07   3.64341080E-07  -1.94412566E-10  -6.36317526E-11  -1.20876467E-07  -1.87177721E-07  -1.37655542E-08   1.30124170E-07  -1.06115008E-14  -2.09038343E-08  -4.73435901E-08  -4.85617709E-08   9.46992026E-08   1.34975743E-17  -2.25257860E-10  -5.65456288E-15  -5.87147827E-15   1.04525707E-18
   2.71250000E+03   5.00000000E-01   5.00000000E-01  -3.45872885E-07   1.12846073E-07   3.61774434E-07  -1.94204836E-10  -6.32014296E-11  -1.20813944E-07  -1.84713324E-07  -1.64042806E-08   1.31015300E-07  -1.05014843E-14  -2.09074610E-08  -4.73434241E-08  -4.85617709E-08   8.72433410E-08   1.01978862E-17  -2.25174429E-10  -5.65456288E-15  -5.87147868E-15   1.00437261E-18