 TITLE = "Mineral Rate (mol/m^3/sec)" 
VARIABLES = "X"          "Y"              "Z"            "Forsterite"     "Enstatite(alph" "Anorthite"      "Ferropargasite" "Anhydrite"      "Clinochlore"    "Albite(low)"   
 ZONE I=          35 , J=           1 , K=           1  F=POINT
   5.00000000E+01   5.00000000E-01   5.00000000E-01   1.75333160E-11   1.41563917E-12  -9.99994787E-13  -9.99999986E-14  -8.33234186E-13   1.65032864E-12  -9.99999972E-13
   1.50000000E+02   5.00000000E-01   5.00000000E-01   5.52751007E-12   1.81129368E-13  -9.99994787E-13  -9.99999986E-14  -8.10144762E-13   1.64999477E-12  -9.99999972E-13
   2.50000000E+02   5.00000000E-01   5.00000000E-01   1.07602991E-12  -6.74938440E-14  -9.99994787E-13  -9.99999986E-14  -7.82940783E-13   1.64999477E-12  -9.99999972E-13
   3.50000000E+02   5.00000000E-01   5.00000000E-01   7.41190020E-13  -8.69816036E-14  -9.99994787E-13  -9.99999986E-14  -7.51016065E-13   1.64999477E-12  -9.99999972E-13
   4.50000000E+02   5.00000000E-01   5.00000000E-01   7.42290994E-13  -9.25171286E-14  -9.99994787E-13  -9.99999986E-14  -7.13688407E-13   1.64999477E-12  -9.99999972E-13
   5.50000000E+02   5.00000000E-01   5.00000000E-01   7.45464984E-13  -9.55683267E-14  -9.99994787E-13  -9.99999986E-14  -6.70182016E-13   1.64999477E-12  -9.99999972E-13
   6.50000000E+02   5.00000000E-01   5.00000000E-01   7.47258842E-13  -9.73036900E-14  -9.99994787E-13  -9.99999986E-14  -6.19613734E-13   1.64999477E-12  -9.99999972E-13
   7.50000000E+02   5.00000000E-01   5.00000000E-01   7.48293900E-13  -9.83129016E-14  -9.99994787E-13  -9.99999986E-14  -5.60980193E-13   1.64999477E-12  -9.99999972E-13
   8.50000000E+02   5.00000000E-01   5.00000000E-01   7.48907129E-13  -9.89142116E-14  -9.99994787E-13  -9.99999986E-14  -4.93143574E-13   1.64999477E-12  -9.99999972E-13
   9.50000000E+02   5.00000000E-01   5.00000000E-01   7.49280214E-13  -9.92815591E-14  -9.99994787E-13  -9.99999986E-14  -4.14815618E-13   1.64999477E-12  -9.99999972E-13
   1.05000000E+03   5.00000000E-01   5.00000000E-01   7.49513199E-13  -9.95116618E-14  -9.99994787E-13  -9.99999986E-14  -3.24539691E-13   1.64999477E-12  -9.99999972E-13
   1.15000000E+03   5.00000000E-01   5.00000000E-01   7.49662422E-13  -9.96593768E-14  -9.99994787E-13  -9.99999986E-14  -2.20670720E-13   1.64999477E-12  -9.99999972E-13
   1.25000000E+03   5.00000000E-01   5.00000000E-01   7.49760347E-13  -9.97564843E-14  -9.99994787E-13  -9.99999986E-14  -1.01352870E-13   1.64999478E-12  -9.99999972E-13
   1.35000000E+03   5.00000000E-01   5.00000000E-01   7.49826113E-13  -9.98217978E-14  -9.99994787E-13  -9.99999986E-14   3.55049470E-14   1.64999478E-12  -9.99999972E-13
   1.45000000E+03   5.00000000E-01   5.00000000E-01   7.49871256E-13  -9.98666984E-14  -9.99994787E-13  -9.99999986E-14   1.92255349E-13   1.64999479E-12  -9.99999972E-13
   1.55000000E+03   5.00000000E-01   5.00000000E-01   7.49902879E-13  -9.98982185E-14  -9.99994787E-13  -9.99999986E-14   3.71539637E-13   1.64999482E-12  -9.99999972E-13
   1.65000000E+03   5.00000000E-01   5.00000000E-01   7.49925434E-13  -9.99207936E-14  -9.99994787E-13  -9.99999986E-14   5.76314262E-13   1.64999486E-12  -9.99999972E-13
   1.75000000E+03   5.00000000E-01   5.00000000E-01   7.49941750E-13  -9.99372773E-14  -9.99994787E-13  -9.99999986E-14   8.09874257E-13   1.64999494E-12  -9.99999972E-13
   1.85000000E+03   5.00000000E-01   5.00000000E-01   7.49953630E-13  -9.99495405E-14  -9.99994787E-13  -9.99999986E-14   1.07587036E-12   1.64999508E-12  -9.99999972E-13
   1.95000000E+03   5.00000000E-01   5.00000000E-01   7.49962194E-13  -9.99588317E-14  -9.99994787E-13  -9.99999986E-14   1.37831569E-12   1.64999534E-12  -9.99999972E-13
   2.05000000E+03   5.00000000E-01   5.00000000E-01   7.49968072E-13  -9.99659987E-14  -9.99994787E-13  -9.99999986E-14   1.72157694E-12   1.64999577E-12  -9.99999972E-13
   2.15000000E+03   5.00000000E-01   5.00000000E-01   7.49971506E-13  -9.99716261E-14  -9.99994787E-13  -9.99999986E-14   2.11034441E-12   1.64999651E-12  -9.99999972E-13
   2.25000000E+03   5.00000000E-01   5.00000000E-01   7.49972376E-13  -9.99761226E-14  -9.99994787E-13  -9.99999986E-14   2.54957447E-12   1.64999772E-12  -9.99999972E-13
   2.35000000E+03   5.00000000E-01   5.00000000E-01   7.49970181E-13  -9.99797780E-14  -9.99994787E-13  -9.99999986E-14   3.04439827E-12   1.64999968E-12  -9.99999972E-13
   2.45000000E+03   5.00000000E-01   5.00000000E-01   7.49963971E-13  -9.99827993E-14  -9.99994787E-13  -9.99999986E-14   3.59999056E-12   1.65000276E-12  -9.99999972E-13
   2.55000000E+03   5.00000000E-01   5.00000000E-01   7.49952243E-13  -9.99853360E-14  -9.99994787E-13  -9.99999986E-14   4.22139435E-12   1.65000752E-12  -9.99999972E-13
   2.65000000E+03   5.00000000E-01   5.00000000E-01   7.49932796E-13  -9.99874960E-14  -9.99994787E-13  -9.99999986E-14   4.91330006E-12   1.65001472E-12  -9.99999972E-13
   2.75000000E+03   5.00000000E-01   5.00000000E-01   7.49902581E-13  -9.99893571E-14  -9.99994787E-13  -9.99999986E-14   5.67978258E-12   1.65002541E-12  -9.99999972E-13
   2.85000000E+03   5.00000000E-01   5.00000000E-01   7.49857860E-13  -9.99909750E-14  -9.99994787E-13  -9.99999986E-14   6.52400673E-12   1.65004086E-12  -9.99999972E-13
   2.95000000E+03   5.00000000E-01   5.00000000E-01   7.49799627E-13  -9.99923892E-14  -9.99994787E-13  -9.99999986E-14   7.44791978E-12   1.65006074E-12  -9.99999972E-13
   3.05000000E+03   5.00000000E-01   5.00000000E-01   7.49790632E-13  -9.99936269E-14  -9.99994787E-13  -9.99999986E-14   8.45195815E-12   1.65006416E-12  -9.99999972E-13
   3.15000000E+03   5.00000000E-01   5.00000000E-01   7.50301183E-13  -9.99947047E-14  -9.99994787E-13  -9.99999986E-14   9.53480208E-12   1.64989433E-12  -9.99999972E-13
   3.25000000E+03   5.00000000E-01   5.00000000E-01   7.53319226E-13  -9.99956286E-14  -9.99994787E-13  -9.99999986E-14   1.06932144E-11   1.64888863E-12  -9.99999972E-13
   3.35000000E+03   5.00000000E-01   5.00000000E-01   7.63779565E-13  -9.99963962E-14  -9.99994787E-13  -9.99999986E-14   1.19219955E-11   1.64540211E-12  -9.99999972E-13
   3.45000000E+03   5.00000000E-01   5.00000000E-01   7.88990953E-13  -9.99970094E-14  -9.99994787E-13  -9.99999986E-14   1.32131532E-11   1.63699851E-12  -9.99999972E-13
