 TITLE = "Mineral Rate (mol/m^3/sec)" 
VARIABLES = "X"          "Y"              "Z"            "Forsterite"     "Fayalite"       "Brucite"        "Lizardite"      "Chrysotile"     "Hematite"       "Magnetite(am)"  "Saponite(Ca)"   "Saponite(K)"    "Saponite(Mg)"   "Saponite(Na)"   "Beidellite(Ca)" "Beidellite(K)"  "Beidellite(Mg)" "Beidellite(Na)" "Enstatite(alph" "Ferrosilite(al" "Anorthite"      "Albite(low)"    "Clinochlore"    "Sudoite"        "Montmor(MgCa)"  "Montmor(MgK)"   "Montmor(MgMg)"  "Montmor(MgNa)"  "Kaolinite"      "Tremolite"      "Pargasite"      "Anhydrite"      "Epidote"        "Scolecite"      "Pyrite"         "FeS(am)"        "Quartz(alpha)"  "Titanite"       "Rutile"         "Barite"         "Fluorite"       "Spessartine(al" "Andradite"      "Celestite"      "Zincite"        "Chalcocyanite"  "Chalcocite(alp"
 ZONE I=         200 , J=           1 , K=           1  F=POINT
   8.75000000E+00   5.00000000E-01   5.00000000E-01  -1.31411917E-07  -4.79002359E-08  -1.25266272E-15  -1.11788568E-15  -1.05049799E-15   1.46029475E-08  -1.31473624E-16   2.02328689E-17   3.11453468E-14   1.29111330E-16   2.27038871E-08  -3.66154121E-17  -3.81165728E-18  -3.74671936E-17  -3.71598451E-17  -1.99895368E-10  -1.70267509E-10  -1.16854322E-07  -2.90441145E-08   2.30413066E-07   0.00000000E+00  -8.07120716E-18  -8.28963185E-19  -8.25483688E-18  -8.18565101E-18  -3.42616193E-11  -4.55493201E-08  -4.66644571E-08   0.00000000E+00  -2.92058175E-08  -1.97718495E-16  -7.00340439E-16  -6.86703377E-16   1.02174564E-17  -2.69906563E-14   1.73874681E-14   1.46441300E-10  -2.32497321E-14  -3.51254712E-09  -3.85413474E-14  -3.89293037E-15  -5.65759533E-10  -3.90435198E-15   1.82934271E-13
   2.62500000E+01   5.00000000E-01   5.00000000E-01  -1.31411928E-07  -4.78925694E-08  -1.25267549E-15  -1.08769412E-15  -1.02853529E-15   1.46029474E-08  -1.31486116E-16   6.58553857E-18   2.70350582E-14   5.79539754E-17   4.04553099E-08  -3.66146920E-17  -3.81064895E-18  -3.74638230E-17  -3.71511243E-17  -2.00158574E-10  -1.68563634E-10  -1.16854322E-07  -2.35317245E-08   2.24694359E-07   0.00000000E+00  -8.05566594E-18  -7.91730345E-19  -8.18749026E-18  -7.91922647E-18  -3.42562172E-11  -4.55726803E-08  -4.66644571E-08   0.00000000E+00  -2.92058175E-08  -1.97717341E-16  -7.00340439E-16  -6.86703377E-16   1.59025254E-17  -3.01472259E-14   1.94382992E-14   5.42652737E-11  -2.35832438E-14  -3.51254712E-09  -3.85413528E-14  -3.89417964E-15  -5.65801008E-10  -3.90435198E-15   1.73721404E-15
   4.37500000E+01   5.00000000E-01   5.00000000E-01  -1.31411929E-07  -4.78639455E-08  -1.25267781E-15  -1.02833033E-15  -9.85486641E-16   1.46029474E-08  -1.31494224E-16   5.64104619E-18   2.94561614E-14   5.49128906E-17   4.03727335E-08  -3.66081441E-17  -3.80192523E-18  -3.74332148E-17  -3.70740012E-17  -2.00198812E-10  -1.66069340E-10  -1.16854322E-07  -1.07095712E-08   2.18296882E-07   0.00000000E+00  -7.97314287E-18  -6.04978044E-19  -7.83021523E-18  -6.54840225E-18  -3.42310616E-11  -4.55876413E-08  -4.66644571E-08   0.00000000E+00  -2.92058175E-08  -1.97712756E-16  -7.00340439E-16  -6.86703377E-16   2.07776780E-17  -3.07004631E-14   2.13820227E-14   1.81162337E-11  -2.38886923E-14  -3.51254712E-09  -3.85413533E-14  -3.89531472E-15  -5.65803506E-10  -3.90435198E-15   1.73721404E-15
   6.12500000E+01   5.00000000E-01   5.00000000E-01  -1.31411930E-07  -4.78219205E-08  -1.25267853E-15  -9.95844550E-16  -9.61675200E-16   1.46029474E-08  -1.31501187E-16   6.05970197E-18   3.31940207E-14   5.97849825E-17   4.98119619E-08  -3.65899076E-17  -3.77899911E-18  -3.73480968E-17  -3.68660049E-17  -2.00200264E-10  -1.63282957E-10  -1.16854322E-07   5.99823982E-09   2.08385459E-07   0.00000000E+00  -7.79813484E-18  -2.34355960E-19  -7.07321345E-18  -3.74447221E-18  -3.41866296E-11  -4.55999592E-08  -4.66644571E-08   0.00000000E+00  -2.92058174E-08  -1.97704980E-16  -7.00340439E-16  -6.86703377E-16   2.44122889E-17  -3.08187184E-14   2.32013609E-14   2.85823397E-12  -2.41687789E-14  -3.51254712E-09  -3.85413535E-14  -3.89633600E-15  -5.65796477E-10  -3.90435198E-15   1.73721404E-15
   7.87500000E+01   5.00000000E-01   5.00000000E-01  -1.31411930E-07  -4.77735788E-08  -1.25267885E-15  -9.79490754E-16  -9.49695116E-16   1.46029474E-08  -1.31508236E-16   6.27983084E-18   3.64340931E-14   6.36781106E-17   6.28110995E-08  -3.65571425E-17  -3.74028636E-18  -3.71953989E-17  -3.65048308E-17  -2.00196752E-10  -1.60639420E-10  -1.16854322E-07   2.32426473E-08   1.97618337E-07   0.00000000E+00  -7.54219124E-18   2.69638949E-19  -5.96697927E-18   1.99556275E-19  -3.41265843E-11  -4.56158006E-08  -4.66644571E-08   0.00000000E+00  -2.92058174E-08  -1.97694823E-16  -7.00340439E-16  -6.86703377E-16   2.67824004E-17  -3.08915592E-14   2.48865812E-14  -4.04996365E-12  -2.44259374E-14  -3.51254712E-09  -3.85413536E-14  -3.89724880E-15  -5.65786880E-10  -3.90435198E-15   1.73721404E-15
   9.62500000E+01   5.00000000E-01   5.00000000E-01  -1.31411930E-07  -4.77196370E-08  -1.25267897E-15  -9.70915414E-16  -9.43486625E-16   1.46029473E-08  -1.31515715E-16   6.25051318E-18   3.86449118E-14   6.61304510E-17   7.46477008E-08  -3.65119610E-17  -3.69039903E-18  -3.69851624E-17  -3.60248976E-17  -2.00191901E-10  -1.58188364E-10  -1.16854322E-07   3.81854547E-08   1.88193825E-07   0.00000000E+00  -7.24715091E-18   8.03931862E-19  -4.69266065E-18   4.54968963E-18  -3.40579437E-11  -4.56360624E-08  -4.66644571E-08   0.00000000E+00  -2.92058173E-08  -1.97683644E-16  -7.00340439E-16  -6.86703377E-16   2.81277694E-17  -3.09597213E-14   2.64300623E-14  -7.44243050E-12  -2.46623439E-14  -3.51254712E-09  -3.85413536E-14  -3.89805963E-15  -5.65775628E-10  -3.90435198E-15   1.73721404E-15
   1.13750000E+02   5.00000000E-01   5.00000000E-01  -1.31411930E-07  -4.76579518E-08  -1.25267896E-15  -9.66036192E-16  -9.40037495E-16   1.46029473E-08  -1.31523697E-16   6.15802529E-18   3.97667145E-14   6.81511012E-17   8.33776036E-08  -3.64617189E-17  -3.63917870E-18  -3.67517813E-17  -3.55138063E-17  -2.00184576E-10  -1.55839697E-10  -1.16854322E-07   4.92005554E-08   1.81245774E-07   0.00000000E+00  -6.96511414E-18   1.26339627E-18  -3.47544287E-18   8.48616657E-18  -3.39916019E-11  -4.56594228E-08  -4.66644571E-08   0.00000000E+00  -2.92058173E-08  -1.97673129E-16  -7.00340439E-16  -6.86703377E-16   2.87639942E-17  -3.10119270E-14   2.78253783E-14  -9.28814675E-12  -2.48799306E-14  -3.51254712E-09  -3.85413537E-14  -3.89877482E-15  -5.65762653E-10  -3.90435198E-15   1.73721404E-15
   1.31250000E+02   5.00000000E-01   5.00000000E-01  -1.31411930E-07  -4.75867106E-08  -1.25267886E-15  -9.63050900E-16  -9.38007682E-16   1.46029473E-08  -1.31532211E-16   6.10572724E-18   3.98748243E-14   7.03350905E-17   8.89985427E-08  -3.64136120E-17  -3.59473507E-18  -3.65287668E-17  -3.50494749E-17  -2.00174301E-10  -1.53521951E-10  -1.16854322E-07   5.62580356E-08   1.76789522E-07   0.00000000E+00  -6.72711912E-18   1.59945265E-18  -2.44931860E-18   1.15765585E-17  -3.39352471E-11  -4.56842245E-08  -4.66644571E-08   0.00000000E+00  -2.92058172E-08  -1.97664281E-16  -7.00340439E-16  -6.86703377E-16   2.89618388E-17  -3.10449179E-14   2.90674235E-14  -1.04258763E-11  -2.50804130E-14  -3.51254712E-09  -3.85413537E-14  -3.89940015E-15  -5.65748096E-10  -3.90435198E-15   1.73721404E-15
   1.48750000E+02   5.00000000E-01   5.00000000E-01  -1.31411929E-07  -4.75048426E-08  -1.25267869E-15  -9.61172647E-16  -9.36810937E-16   1.46029473E-08  -1.31541288E-16   6.12970155E-18   3.91456985E-14   7.29188394E-17   9.22222520E-08  -3.63713945E-17  -3.56029889E-18  -3.63335176E-17  -3.46674734E-17  -2.00161182E-10  -1.51197078E-10  -1.16854322E-07   6.01844385E-08   1.74294365E-07   0.00000000E+00  -6.53923704E-18   1.81586892E-18  -1.64036312E-18   1.37892354E-17  -3.38913545E-11  -4.57091976E-08  -4.66644571E-08   0.00000000E+00  -2.92058172E-08  -1.97657298E-16  -7.00340439E-16  -6.86703377E-16   2.89122904E-17  -3.10616674E-14   3.01525259E-14  -1.12271773E-11  -2.52653182E-14  -3.51254712E-09  -3.85413537E-14  -3.89994087E-15  -5.65732223E-10  -3.90435198E-15   1.73721404E-15
   1.66250000E+02   5.00000000E-01   5.00000000E-01  -1.31411929E-07  -4.74117638E-08  -1.25267848E-15  -9.60033246E-16  -9.36173615E-16   1.46029472E-08  -1.31550958E-16   6.23630372E-18   3.77943403E-14   7.59726019E-17   9.38242523E-08  -3.63357778E-17  -3.53551527E-18  -3.61692532E-17  -3.43696452E-17  -2.00145495E-10  -1.48847719E-10  -1.16854322E-07   6.19431531E-08   1.73150645E-07   0.00000000E+00  -6.39405379E-18   1.93906958E-18  -1.01640448E-18   1.52870847E-17  -3.38590311E-11  -4.57335115E-08  -4.66644571E-08   0.00000000E+00  -2.92058171E-08  -1.97651935E-16  -7.00340439E-16  -6.86703377E-16   2.87353404E-17  -3.10666996E-14   3.10784588E-14  -1.18625262E-11  -2.54360086E-14  -3.51254712E-09  -3.85413537E-14  -3.90040175E-15  -5.65715304E-10  -3.90435198E-15   1.73721404E-15
   1.83750000E+02   5.00000000E-01   5.00000000E-01  -1.31411929E-07  -4.73071907E-08  -1.25267824E-15  -9.59436877E-16  -9.35950875E-16   1.46029472E-08  -1.31561253E-16   6.42016644E-18   3.60185327E-14   7.94904089E-17   9.44171526E-08  -3.63058951E-17  -3.51851827E-18  -3.60318646E-17  -3.41421181E-17  -2.00127530E-10  -1.46468269E-10  -1.16854322E-07   6.23187386E-08   1.72865001E-07   0.00000000E+00  -6.28050959E-18   1.99765589E-18  -5.29551234E-19   1.62699996E-17  -3.38360612E-11  -4.57566305E-08  -4.66644571E-08   0.00000000E+00  -2.92058171E-08  -1.97647818E-16  -7.00340439E-16  -6.86703377E-16   2.85004767E-17  -3.10643522E-14   3.18443931E-14  -1.24126481E-11  -2.55937026E-14  -3.51254712E-09  -3.85413537E-14  -3.90078714E-15  -5.65697563E-10  -3.90435198E-15   1.73721404E-15
   2.01250000E+02   5.00000000E-01   5.00000000E-01  -1.31411929E-07  -4.71910389E-08  -1.25267798E-15  -9.59264980E-16  -9.36055468E-16   1.46029472E-08  -1.31572195E-16   6.67193458E-18   3.39788453E-14   8.34317830E-17   9.44208395E-08  -3.62803954E-17  -3.50723386E-18  -3.59150195E-17  -3.39675126E-17  -2.00107546E-10  -1.44059740E-10  -1.16854322E-07   6.18601711E-08   1.73093661E-07   0.00000000E+00  -6.18860073E-18   2.01448653E-18  -1.36507534E-19   1.69068185E-17  -3.38200990E-11  -4.57782029E-08  -4.66644571E-08   0.00000000E+00  -2.92058171E-08  -1.97644595E-16  -7.00340439E-16  -6.86703377E-16   2.82452126E-17  -3.10582917E-14   3.24508191E-14  -1.29168434E-11  -2.57394909E-14  -3.51254712E-09  -3.85413537E-14  -3.90110101E-15  -5.65679175E-10  -3.90435198E-15   1.73721404E-15
   2.18750000E+02   5.00000000E-01   5.00000000E-01  -1.31411928E-07  -4.70633604E-08  -1.25267769E-15  -9.59438890E-16  -9.36429804E-16   1.46029472E-08  -1.31583806E-16   6.98163021E-18   3.17990962E-14   8.77438154E-17   9.41006958E-08  -3.62579887E-17  -3.49991755E-18  -3.58126901E-17  -3.38304474E-17  -2.00085754E-10  -1.41626651E-10  -1.16854322E-07   6.09214947E-08   1.73615812E-07   0.00000000E+00  -6.11073506E-18   2.00556332E-18   1.95574519E-19   1.73202943E-17  -3.38091583E-11  -4.57980057E-08  -4.66644571E-08   0.00000000E+00  -2.92058170E-08  -1.97641991E-16  -7.00340439E-16  -6.86703377E-16   2.79882512E-17  -3.10514354E-14   3.28994485E-14  -1.33946906E-11  -2.58743518E-14  -3.51254712E-09  -3.85413537E-14  -3.90134699E-15  -5.65660268E-10  -3.90435198E-15   1.73721404E-15
   2.36250000E+02   5.00000000E-01   5.00000000E-01  -1.31411928E-07  -4.69242998E-08  -1.25267739E-15  -9.59903359E-16  -9.37033670E-16   1.46029472E-08  -1.31596107E-16   7.34008393E-18   2.95724857E-14   9.23733338E-17   9.36154743E-08  -3.62376352E-17  -3.49527169E-18  -3.57200293E-17  -3.37190984E-17  -2.00062322E-10  -1.39175085E-10  -1.16854322E-07   5.97197168E-08   1.74296756E-07   0.00000000E+00  -6.04164164E-18   1.98130636E-18   4.89492163E-19   1.75928727E-17  -3.38017243E-11  -4.58159191E-08  -4.66644571E-08   0.00000000E+00  -2.92058170E-08  -1.97639802E-16  -7.00340439E-16  -6.86703377E-16   2.77378326E-17  -3.10460063E-14   3.31931036E-14  -1.38561052E-11  -2.59991637E-14  -3.51254712E-09  -3.85413537E-14  -3.90152835E-15  -5.65640936E-10  -3.90435198E-15   1.73721404E-15
   2.53750000E+02   5.00000000E-01   5.00000000E-01  -1.31411927E-07  -4.67740577E-08  -1.25267708E-15  -9.60617861E-16  -9.37837757E-16   1.46029471E-08  -1.31609117E-16   7.73949402E-18   2.73676776E-14   9.72734898E-17   9.30556948E-08  -3.62185685E-17  -3.49239566E-18  -3.56334712E-17  -3.36250550E-17  -2.00037378E-10  -1.36711465E-10  -1.16854322E-07   5.83828410E-08   1.75057552E-07   0.00000000E+00  -5.97786264E-18   1.94819078E-18   7.60194159E-19   1.77771985E-17  -3.37967103E-11  -4.58319106E-08  -4.66644571E-08   0.00000000E+00  -2.92058169E-08  -1.97637890E-16  -7.00340439E-16  -6.86703377E-16   2.74966949E-17  -3.10436249E-14   3.33355994E-14  -1.43061420E-11  -2.61147170E-14  -3.51254712E-09  -3.85413537E-14  -3.90164810E-15  -5.65621241E-10  -3.90435198E-15   1.73721404E-15
   2.71250000E+02   5.00000000E-01   5.00000000E-01  -1.31411927E-07  -4.66128594E-08  -1.25267675E-15  -9.61551727E-16  -9.38820046E-16   1.46029471E-08  -1.31622863E-16   8.17358567E-18   2.52336757E-14   1.02407021E-16   9.24700941E-08  -3.62002582E-17  -3.49069379E-18  -3.55505518E-17  -3.35426540E-17  -2.00011012E-10  -1.34241790E-10  -1.16854321E-07   5.69835859E-08   1.75853801E-07   0.00000000E+00  -5.91723671E-18   1.91009028E-18   1.01701854E-18   1.79055323E-17  -3.37933700E-11  -4.58460209E-08  -4.66644571E-08   0.00000000E+00  -2.92058168E-08  -1.97636165E-16  -7.00340439E-16  -6.86703377E-16   2.72648950E-17  -3.10454075E-14   3.33316200E-14  -1.47473526E-11  -2.62217236E-14  -3.51254712E-09  -3.85413536E-14  -3.90170896E-15  -5.65601225E-10  -3.90435198E-15   1.73721404E-15
   2.88750000E+02   5.00000000E-01   5.00000000E-01  -1.31411926E-07  -4.64409283E-08  -1.25267640E-15  -9.62681735E-16  -9.39964054E-16   1.46029471E-08  -1.31637371E-16   8.63758621E-18   2.32037046E-14   1.07747487E-16   9.18825758E-08  -3.61823593E-17  -3.48978890E-18  -3.54696719E-17  -3.34682769E-17  -1.99983285E-10  -1.31771200E-10  -1.16854321E-07   5.55613202E-08   1.76661872E-07   0.00000000E+00  -5.85849059E-18   1.86922934E-18   1.26546119E-18   1.79967601E-17  -3.37912110E-11  -4.58583485E-08  -4.66644571E-08   0.00000000E+00  -2.92058168E-08  -1.97634568E-16  -7.00340439E-16  -6.86703377E-16   2.70413520E-17  -3.10520591E-14   3.31865956E-14  -1.51809729E-11  -2.63208260E-14  -3.51254712E-09  -3.85413536E-14  -3.90171342E-15  -5.65580910E-10  -3.90435198E-15   1.73721404E-15
   3.06250000E+02   5.00000000E-01   5.00000000E-01  -1.31411925E-07  -4.62584638E-08  -1.25267605E-15  -9.63991349E-16  -9.41258344E-16   1.46029470E-08  -1.31652676E-16   9.12811291E-18   2.12984370E-14   1.13279222E-16   9.13026831E-08  -3.61646669E-17  -3.48945419E-18  -3.53898839E-17  -3.33997653E-17  -1.99954228E-10  -1.29303754E-10  -1.16854321E-07   5.41357988E-08   1.77470314E-07   0.00000000E+00  -5.80094537E-18   1.82681544E-18   1.50844802E-18   1.80612252E-17  -3.37899229E-11  -4.58690344E-08  -4.66644571E-08   0.00000000E+00  -2.92058167E-08  -1.97633064E-16  -7.00340439E-16  -6.86703377E-16   2.68246530E-17  -3.10639569E-14   3.29065797E-14  -1.56075370E-11  -2.64126046E-14  -3.51254712E-09  -3.85413536E-14  -3.90166372E-15  -5.65560302E-10  -3.90435198E-15   1.73721404E-15
   3.23750000E+02   5.00000000E-01   5.00000000E-01  -1.31411925E-07  -4.60656245E-08  -1.25267568E-15  -9.65470827E-16  -9.42696725E-16   1.46029470E-08  -1.31668819E-16   9.64301253E-18   1.95287675E-14   1.18996442E-16   9.07319740E-08  -3.61470790E-17  -3.48956307E-18  -3.53107171E-17  -3.33359719E-17  -1.99923849E-10  -1.26842375E-10  -1.16854321E-07   5.27156072E-08   1.78274576E-07   0.00000000E+00  -5.74431197E-18   1.78344715E-18   1.74722021E-18   1.81039597E-17  -3.37893215E-11  -4.58782464E-08  -4.66644571E-08   0.00000000E+00  -2.92058167E-08  -1.97631636E-16  -7.00340439E-16  -6.86703377E-16   2.66134444E-17  -3.10812248E-14   3.24981309E-14  -1.60272004E-11  -2.64975844E-14  -3.51254712E-09  -3.85413536E-14  -3.90156190E-15  -5.65539398E-10  -3.90435198E-15   1.73721404E-15
   3.41250000E+02   5.00000000E-01   5.00000000E-01  -1.31411924E-07  -4.58625204E-08  -1.25267530E-15  -9.67117478E-16  -9.44278565E-16   1.46029470E-08  -1.31685844E-16   1.01811674E-17   1.78982165E-14   1.24901752E-16   9.01679031E-08  -3.61295664E-17  -3.49005287E-18  -3.52320389E-17  -3.32764216E-17  -1.99892137E-10  -1.24388929E-10  -1.16854321E-07   5.13033233E-08   1.79073790E-07   0.00000000E+00  -5.68854855E-18   1.73937551E-18   1.98195182E-18   1.81268356E-17  -3.37893071E-11  -4.58861650E-08  -4.66644571E-08   0.00000000E+00  -2.92058166E-08  -1.97630275E-16  -7.00340439E-16  -6.86703377E-16   2.64065925E-17  -3.11037995E-14   3.19682006E-14  -1.64399147E-11  -2.65762412E-14  -3.51254712E-09  -3.85413535E-14  -3.90140979E-15  -5.65518184E-10  -3.90435198E-15   1.73721403E-15
   3.58750000E+02   5.00000000E-01   5.00000000E-01  -1.31411923E-07  -4.56492125E-08  -1.25267490E-15  -9.68935538E-16  -9.46008802E-16   1.46029469E-08  -1.31703805E-16   1.07422758E-17   1.64049833E-14   1.31004275E-16   8.96061992E-08  -3.61121490E-17  -3.49089869E-18  -3.51539413E-17  -3.32210532E-17  -1.99859065E-10  -1.21944413E-10  -1.16854321E-07   4.98986678E-08   1.79868799E-07   0.00000000E+00  -5.63375831E-18   1.69467176E-18   2.21219157E-18   1.81300138E-17  -3.37898322E-11  -4.58929711E-08  -4.66644571E-08   0.00000000E+00  -2.92058165E-08  -1.97628981E-16  -7.00340439E-16  -6.86703377E-16   2.62032231E-17  -3.11314883E-14   3.13240278E-14  -1.68455232E-11  -2.66490066E-14  -3.51254712E-09  -3.85413535E-14  -3.90120905E-15  -5.65496642E-10  -3.90435198E-15   1.73721403E-15
   3.76250000E+02   5.00000000E-01   5.00000000E-01  -1.31411922E-07  -4.54257221E-08  -1.25267449E-15  -9.70935554E-16  -9.47897552E-16   1.46029469E-08  -1.31722760E-16   1.13266210E-17   1.50436556E-14   1.37317646E-16   8.90422894E-08  -3.60948746E-17  -3.49209446E-18  -3.50766466E-17  -3.31700222E-17  -1.99824595E-10  -1.19509202E-10  -1.16854321E-07   4.85003999E-08   1.80660979E-07   0.00000000E+00  -5.58011512E-18   1.64933399E-18   2.43718468E-18   1.81129215E-17  -3.37908774E-11  -4.58988350E-08  -4.66644571E-08   0.00000000E+00  -2.92058164E-08  -1.97627755E-16  -7.00340439E-16  -6.86703377E-16   2.60026984E-17  -3.11640190E-14   3.05730423E-14  -1.72438136E-11  -2.67162726E-14  -3.51254712E-09  -3.85413535E-14  -3.90096118E-15  -5.65474748E-10  -3.90435198E-15   1.73721403E-15
   3.93750000E+02   5.00000000E-01   5.00000000E-01  -1.31411921E-07  -4.51920456E-08  -1.25267406E-15  -9.73133442E-16  -9.49959423E-16   1.46029468E-08  -1.31742772E-16   1.19348580E-17   1.38065780E-14   1.43858186E-16   8.84720379E-08  -3.60778038E-17  -3.49364014E-18  -3.50004325E-17  -3.31235575E-17  -1.99788681E-10  -1.17083322E-10  -1.16854321E-07   4.71073830E-08   1.81451580E-07   0.00000000E+00  -5.52781101E-18   1.60335088E-18   2.65609929E-18   1.80748787E-17  -3.37924341E-11  -4.59039107E-08  -4.66644571E-08   0.00000000E+00  -2.92058163E-08  -1.97626600E-16  -7.00340439E-16  -6.86703377E-16   2.58045710E-17  -3.12010778E-14   2.97227775E-14  -1.76345482E-11  -2.67783955E-14  -3.51254712E-09  -3.85413534E-14  -3.90066750E-15  -5.65452476E-10  -3.90435198E-15   1.73721403E-15
   4.11250000E+02   5.00000000E-01   5.00000000E-01  -1.31411919E-07  -4.49481693E-08  -1.25267361E-15  -9.75549482E-16  -9.52212779E-16   1.46029468E-08  -1.31763909E-16   1.25678513E-17   1.26848930E-14   1.50643578E-16   8.78919461E-08  -3.60609980E-17  -3.49553442E-18  -3.49255819E-17  -3.30818730E-17  -1.99751274E-10  -1.14666668E-10  -1.16854321E-07   4.57190593E-08   1.82241459E-07   0.00000000E+00  -5.47702456E-18   1.55673291E-18   2.86816312E-18   1.80154361E-17  -3.37944949E-11  -4.59083330E-08  -4.66644571E-08   0.00000000E+00  -2.92058162E-08  -1.97625521E-16  -7.00340439E-16  -6.86703377E-16   2.56085358E-17  -3.12423365E-14   2.87807919E-14  -1.80174804E-11  -2.68356998E-14  -3.51254712E-09  -3.85413534E-14  -3.90032921E-15  -5.65429799E-10  -3.90435198E-15   1.73721403E-15
   4.28750000E+02   5.00000000E-01   5.00000000E-01  -1.31411918E-07  -4.46940798E-08  -1.25267315E-15  -9.78207474E-16  -9.54679097E-16   1.46029467E-08  -1.31786244E-16   1.32265917E-17   1.16692799E-14   1.57692227E-16   8.72989674E-08  -3.60445152E-17  -3.49777205E-18  -3.48523599E-17  -3.30451322E-17  -1.99712319E-10  -1.12259115E-10  -1.16854320E-07   4.43355132E-08   1.83031076E-07   0.00000000E+00  -5.42790859E-18   1.50951937E-18   3.07271637E-18   1.79344750E-17  -3.37970490E-11  -4.59122183E-08  -4.66644571E-08  -1.30971505E-32  -2.92058161E-08  -1.97624519E-16  -7.00340439E-16  -6.86703377E-16   2.54143938E-17  -3.12874653E-14   2.77546007E-14  -1.83923643E-11  -2.68884810E-14  -3.51254712E-09  -3.85413534E-14  -3.89994734E-15  -5.65406692E-10  -3.90435198E-15   1.73721403E-15
   4.46250000E+02   5.00000000E-01   5.00000000E-01  -1.31411916E-07  -4.44297644E-08  -1.25267267E-15  -9.81134109E-16  -9.57382497E-16   1.46029467E-08  -1.31809853E-16   1.39121901E-17   1.07504393E-14   1.65023207E-16   8.66901516E-08  -3.60284096E-17  -3.50034459E-18  -3.47810136E-17  -3.30134532E-17  -1.99671761E-10  -1.09860528E-10  -1.16854320E-07   4.29572994E-08   1.83820641E-07   0.00000000E+00  -5.38059277E-18   1.46177074E-18   3.26920059E-18   1.78321490E-17  -3.38000830E-11  -4.59156680E-08  -4.66644571E-08   0.00000000E+00  -2.92058160E-08  -1.97623595E-16  -7.00340439E-16  -6.86703377E-16   2.52220287E-17  -3.13361375E-14   2.66516160E-14  -1.87589603E-11  -2.69370087E-14  -3.51254712E-09  -3.85413533E-14  -3.89952282E-15  -5.65383128E-10  -3.90435198E-15   1.73721403E-15
   4.63750000E+02   5.00000000E-01   5.00000000E-01  -1.31411914E-07  -4.41552059E-08  -1.25267218E-15  -9.84358608E-16  -9.60349480E-16   1.46029466E-08  -1.31834818E-16   1.46259188E-17   9.91938336E-15   1.72656499E-16   8.60623482E-08  -3.60127347E-17  -3.50324236E-18  -3.47117856E-17  -3.29869322E-17  -1.99629541E-10  -1.07470695E-10  -1.16854320E-07   4.15852103E-08   1.84610276E-07   0.00000000E+00  -5.33519309E-18   1.41355678E-18   3.45711801E-18   1.77087655E-17  -3.38035834E-11  -4.59187716E-08  -4.66644571E-08  -8.71062366E-19  -2.92058159E-08  -1.97622752E-16  -7.00340439E-16  -6.86703377E-16   2.50313948E-17  -3.13880285E-14   2.54790962E-14  -1.91170380E-11  -2.69815287E-14  -3.51254712E-09  -3.85413533E-14  -3.89905645E-15  -5.65359081E-10  -3.90435198E-15   1.73721403E-15
   4.81250000E+02   5.00000000E-01   5.00000000E-01  -1.31411912E-07  -4.38703753E-08  -1.25267166E-15  -9.87912632E-16  -9.63608877E-16   1.46029466E-08  -1.31861228E-16   1.53692526E-17   9.16759759E-15   1.80613116E-16   8.54121254E-08  -3.59975453E-17  -3.50645594E-18  -3.46449247E-17  -3.29656622E-17  -1.99585594E-10  -1.05089270E-10  -1.16854320E-07   4.02201165E-08   1.85400113E-07   0.00000000E+00  -5.29181943E-18   1.36494827E-18   3.63599900E-18   1.75646983E-17  -3.38075381E-11  -4.59216081E-08  -4.66644571E-08  -5.16835207E-18  -2.92058158E-08  -1.97621991E-16  -7.00340439E-16  -6.86703377E-16   2.48425087E-17  -3.14428159E-14   2.42441040E-14  -1.94663780E-11  -2.70222658E-14  -3.51254712E-09  -3.85413532E-14  -3.89854892E-15  -5.65334524E-10  -3.90435198E-15   1.73721402E-15
   4.98750000E+02   5.00000000E-01   5.00000000E-01  -1.31411910E-07  -4.35752308E-08  -1.25267113E-15  -9.91830497E-16  -9.67192062E-16   1.46029465E-08  -1.31889174E-16   1.61438716E-17   8.48712839E-15   1.88914846E-16   8.47359317E-08  -3.59828980E-17  -3.50997599E-18  -3.45806849E-17  -3.29497310E-17  -1.99539848E-10  -1.02715764E-10  -1.16854320E-07   3.88629400E-08   1.86190277E-07   0.00000000E+00  -5.25057538E-18   1.31601641E-18   3.80540304E-18   1.74003821E-17  -3.38119360E-11  -4.59242452E-08  -4.66644571E-08  -1.11349649E-17  -2.92058157E-08  -1.97621314E-16  -7.00340439E-16  -6.86703377E-16   2.46554390E-17  -3.15001826E-14   2.29534721E-14  -1.98067722E-11  -2.70594252E-14  -3.51254712E-09  -3.85413532E-14  -3.89800081E-15  -5.65309426E-10  -3.90435198E-15   1.73721401E-15
   5.16250000E+02   5.00000000E-01   5.00000000E-01  -1.31411908E-07  -4.32697263E-08  -1.25267058E-15  -9.96149707E-16  -9.71133419E-16   1.46029464E-08  -1.31918757E-16   1.69516075E-17   7.87063457E-15   1.97583584E-16   8.40304032E-08  -3.59688465E-17  -3.51379160E-18  -3.45193082E-17  -3.29391976E-17  -1.99492230E-10  -1.00349633E-10  -1.16854319E-07   3.75147379E-08   1.86980795E-07   0.00000000E+00  -5.21154926E-18   1.26683873E-18   3.96495730E-18   1.72163860E-17  -3.38167651E-11  -4.59267370E-08  -4.66644571E-08  -1.93294965E-17  -2.92058155E-08  -1.97620721E-16  -7.00340439E-16  -6.86703377E-16   2.44702921E-17  -3.15598240E-14   2.16137769E-14  -2.01380245E-11  -2.70931946E-14  -3.51254712E-09  -3.85413531E-14  -3.89741261E-15  -5.65283759E-10  -3.90435198E-15   1.73721400E-15
   5.33750000E+02   5.00000000E-01   5.00000000E-01  -1.31411905E-07  -4.29538292E-08  -1.25267001E-15  -1.00091179E-15  -9.75471091E-16   1.46029464E-08  -1.31950084E-16   1.77943487E-17   7.31141959E-15   2.06640485E-16   8.32926579E-08  -3.59554368E-17  -3.51788795E-18  -3.44609977E-17  -3.29340565E-17  -1.99442661E-10  -9.79904278E-11  -1.16854319E-07   3.61768251E-08   1.87771484E-07   0.00000000E+00  -5.17480025E-18   1.21750711E-18   4.11441586E-18   1.70135195E-17  -3.38220081E-11  -4.59291212E-08  -4.66644571E-08  -3.04884822E-17  -2.92058154E-08  -1.97620214E-16  -7.00340439E-16  -6.86703377E-16   2.42871957E-17  -3.16214559E-14   2.02313182E-14  -2.04599495E-11  -2.71237456E-14  -3.51254712E-09  -3.85413531E-14  -3.89678469E-15  -5.65257494E-10  -3.90435198E-15   1.73721398E-15
   5.51250000E+02   5.00000000E-01   5.00000000E-01  -1.31411902E-07  -4.26275430E-08  -1.25266941E-15  -1.00616341E-15  -9.80247940E-16   1.46029463E-08  -1.31983272E-16   1.86739417E-17   6.80344754E-15   2.16105319E-16   8.25204214E-08  -3.59427007E-17  -3.52224466E-18  -3.44058931E-17  -3.29342098E-17  -1.99391063E-10  -9.56379453E-11  -1.16854319E-07   3.48508439E-08   1.88561899E-07   0.00000000E+00  -5.14034662E-18   1.16813262E-18   4.25370986E-18   1.67929081E-17  -3.38276408E-11  -4.59314184E-08  -4.66644571E-08  -4.55797940E-17  -2.92058152E-08  -1.97619791E-16  -7.00340439E-16  -6.86703377E-16   2.41062824E-17  -3.16848208E-14   1.88121061E-14  -2.07723727E-11  -2.71512351E-14  -3.51254712E-09  -3.85413530E-14  -3.89611735E-15  -5.65230605E-10  -3.90435198E-15   1.73721395E-15
   5.68750000E+02   5.00000000E-01   5.00000000E-01  -1.31411899E-07  -4.22909233E-08  -1.25266880E-15  -1.01195759E-15  -9.85512667E-16   1.46029462E-08  -1.32018445E-16   1.95921378E-17   6.34133806E-15   2.25996366E-16   8.17119120E-08  -3.59306542E-17  -3.52683586E-18  -3.43540606E-17  -3.29394615E-17  -1.99337360E-10  -9.32923203E-11  -1.16854319E-07   3.35387223E-08   1.89351369E-07   0.00000000E+00  -5.10816271E-18   1.11884331E-18   4.38296025E-18   1.65559853E-17  -3.38336312E-11  -4.59336333E-08  -4.66644571E-08  -6.58696668E-17  -2.92058151E-08  -1.97619450E-16  -7.00340439E-16  -6.86703377E-16   2.39276784E-17  -3.17496896E-14   1.73618518E-14  -2.10751297E-11  -2.71758068E-14  -3.51254712E-09  -3.85413530E-14  -3.89541082E-15  -5.65203064E-10  -3.90435198E-15   1.73721390E-15
   5.86250000E+02   5.00000000E-01   5.00000000E-01  -1.31411895E-07  -4.19440818E-08  -1.25266817E-15  -1.01835504E-15  -9.91320996E-16   1.46029461E-08  -1.32055738E-16   2.05506148E-17   5.92033626E-15   2.36331015E-16   8.08655247E-08  -3.59192998E-17  -3.53163216E-18  -3.43055036E-17  -3.29495415E-17  -1.99281474E-10  -9.09539999E-11  -1.16854318E-07   3.22425084E-08   1.90139136E-07   0.00000000E+00  -5.07818779E-18   1.06977460E-18   4.50243908E-18   1.63043855E-17  -3.38399423E-11  -4.59357596E-08  -4.66644571E-08  -9.30048888E-17  -2.92058149E-08  -1.97619188E-16  -7.00340439E-16  -6.86703377E-16   2.37515006E-17  -3.18158572E-14   1.58859641E-14  -2.13680660E-11  -2.71975920E-14  -3.51254712E-09  -3.85413529E-14  -3.89466521E-15  -5.65174850E-10  -3.90435198E-15   1.73721383E-15
   6.03750000E+02   5.00000000E-01   5.00000000E-01  -1.31411891E-07  -4.15871724E-08  -1.25266751E-15  -1.02542550E-15  -9.97736890E-16   1.46029460E-08  -1.32095298E-16   2.15510808E-17   5.53625881E-15   2.47126909E-16   7.99794504E-08  -3.59086328E-17  -3.53660407E-18  -3.42601944E-17  -3.29641529E-17  -1.99223327E-10  -8.86236026E-11  -1.16854318E-07   3.09641297E-08   1.90924533E-07   0.00000000E+00  -5.05034529E-18   1.02105518E-18   4.61248719E-18   1.60397657E-17  -3.38465366E-11  -4.59377854E-08  -4.66644571E-08  -1.29110036E-16  -2.92058147E-08  -1.97619000E-16  -7.00340439E-16  -6.86703377E-16   2.35778599E-17  -3.18831347E-14   1.43895483E-14  -2.16510378E-11  -2.72167108E-14  -3.51254712E-09  -3.85413528E-14  -3.89388057E-15  -5.65145938E-10  -3.90435198E-15   1.73721372E-15
   6.21250000E+02   5.00000000E-01   5.00000000E-01  -1.31411887E-07  -4.12203655E-08  -1.25266684E-15  -1.03324910E-15  -1.00483383E-15   1.46029459E-08  -1.32137285E-16   2.25954286E-17   5.18542411E-15   2.58403287E-16   7.90513957E-08  -3.58986510E-17  -3.54172556E-18  -3.42181143E-17  -3.29830272E-17  -1.99162837E-10  -8.63017054E-11  -1.16854317E-07   2.97051551E-08   1.91707156E-07   0.00000000E+00  -5.02456630E-18   9.72793019E-19   4.71341369E-18   1.57636138E-17  -3.38533808E-11  -4.59396988E-08  -4.66644571E-08  -1.76895872E-16  -2.92058145E-08  -1.97618883E-16  -7.00340439E-16  -6.86703377E-16   2.34068687E-17  -3.19513406E-14   1.28774094E-14  -2.19239118E-11  -2.72332731E-14  -3.51254712E-09  -3.85413528E-14  -3.89305690E-15  -5.65116307E-10  -3.90435198E-15   1.73721355E-15