 TITLE = "Mineral Rate (mol/m^3/sec)" 
VARIABLES = "X"          "Y"              "Z"            "Forsterite"     "Fayalite"       "Saponite(Mg)"   "Enstatite(alph" "Ferrosilite(al" "Anorthite"      "Albite(low)"    "Clinochlore"    "Sudoite"        "Montmorillonit" "Kaolinite"      "Tremolite"      "Pargasite"      "Anhydrite"      "Epidote"        "Scolecite"      "Pyrite"         "FeS(am)"        "Quartz(alpha)" 
 ZONE I=         100 , J=           1 , K=           1  F=POINT
   1.75000000E+01   5.00000000E-01   5.00000000E-01  -3.47322838E-07  -4.52259188E-07   3.84054431E-07  -2.00432751E-10  -1.45727905E-10  -1.21890380E-07  -2.12227985E-07   2.58671229E-07  -2.19477445E-16  -2.15273904E-15  -2.24206833E-08  -4.76240380E-08  -4.88613808E-08  -5.67646799E-15  -6.16324961E-16  -2.26595224E-10  -5.98214249E-15  -6.11699952E-15   9.41667433E-18
   5.25000000E+01   5.00000000E-01   5.00000000E-01  -3.47322838E-07  -4.14684245E-07   3.87061830E-07  -2.00427793E-10  -1.20362282E-10  -1.21890380E-07  -1.54178242E-07   2.29073611E-07  -1.17131379E-16  -2.24246811E-15  -2.23759667E-08  -4.76239979E-08  -4.88613808E-08  -5.70713874E-15   1.46981287E-16  -2.26583228E-10  -5.98214249E-15  -6.11585918E-15   1.08048603E-17
   8.75000000E+01   5.00000000E-01   5.00000000E-01  -3.47322838E-07  -3.64574228E-07   3.68993066E-07  -2.00416640E-10  -9.86097469E-11  -1.21890380E-07  -1.28439462E-07   2.19242807E-07  -9.61969863E-17  -2.25107287E-15  -2.23428717E-08  -4.76238534E-08  -4.88613808E-08  -5.74060030E-15   2.14621220E-17  -2.26574267E-10  -5.98214249E-15  -6.11498363E-15   1.10367875E-17
   1.22500000E+02   5.00000000E-01   5.00000000E-01  -3.47322837E-07  -3.11950074E-07   3.44216489E-07  -2.00404021E-10  -8.09813751E-11  -1.21890380E-07  -1.09517476E-07   2.13959710E-07  -9.28291753E-17  -2.21929393E-15  -2.23087594E-08  -4.76237821E-08  -4.88613808E-08  -5.77698388E-15   3.28599929E-18  -2.26564877E-10  -5.98214249E-15  -6.11441303E-15   1.10738711E-17
   1.57500000E+02   5.00000000E-01   5.00000000E-01  -3.47322837E-07  -2.63342786E-07   3.20414194E-07  -2.00390500E-10  -6.72121678E-11  -1.21890380E-07  -9.26858223E-08   2.09551122E-07  -9.44355094E-17  -2.12996178E-15  -2.22696196E-08  -4.76237866E-08  -4.88613808E-08  -5.81635456E-15  -3.53895876E-18  -2.26554103E-10  -5.98214249E-15  -6.11410797E-15   1.10468372E-17
   1.92500000E+02   5.00000000E-01   5.00000000E-01  -3.47322836E-07  -2.21435964E-07   2.99736785E-07  -2.00376077E-10  -5.67120946E-11  -1.21890379E-07  -7.80370153E-08   2.05697717E-07  -9.80201273E-17  -1.96032060E-15  -2.22254716E-08  -4.76237597E-08  -4.88613808E-08  -5.85869821E-15  -9.05374067E-18  -2.26541981E-10  -5.98214249E-15  -6.11400545E-15   1.09694405E-17
   2.27500000E+02   5.00000000E-01   5.00000000E-01  -3.47322835E-07  -1.86726598E-07   2.82584034E-07  -2.00360713E-10  -4.88551141E-11  -1.21890379E-07  -6.58976348E-08   2.02495508E-07  -1.02855549E-16  -1.69091508E-15  -2.21770000E-08  -4.76236753E-08  -4.88613808E-08  -5.90389672E-15  -1.39072176E-17  -2.26528694E-10  -5.98214249E-15  -6.11404777E-15   1.08478741E-17
   2.62500000E+02   5.00000000E-01   5.00000000E-01  -3.47322834E-07  -1.58693498E-07   2.68736936E-07  -2.00344385E-10  -4.30810764E-11  -1.21890379E-07  -5.62582326E-08   1.99977537E-07  -1.08838869E-16  -1.30540510E-15  -2.21247396E-08  -4.76236407E-08  -4.88613808E-08  -5.95168954E-15  -1.79490523E-17  -2.26514381E-10  -5.98214249E-15  -6.11418914E-15   1.06905414E-17
   2.97500000E+02   5.00000000E-01   5.00000000E-01  -3.47322833E-07  -1.36420330E-07   2.57757675E-07  -2.00327082E-10  -3.89221096E-11  -1.21890378E-07  -4.88816526E-08   1.98099954E-07  -1.16080614E-16  -7.88956569E-16  -2.20689895E-08  -4.76236506E-08  -4.88613808E-08  -6.00162176E-15  -2.11360500E-17  -2.26499111E-10  -5.98214249E-15  -6.11439504E-15   1.05062270E-17
   3.32500000E+02   5.00000000E-01   5.00000000E-01  -3.47322831E-07  -1.18910419E-07   2.49159267E-07  -2.00308793E-10  -3.60016213E-11  -1.21890378E-07  -4.34383784E-08   1.96780882E-07  -1.24799189E-16  -1.26422264E-16  -2.20098436E-08  -4.76236581E-08  -4.88613808E-08  -6.05297066E-15  -2.35090838E-17  -2.26482898E-10  -5.98214249E-15  -6.11464021E-15   1.03027063E-17
   3.67500000E+02   5.00000000E-01   5.00000000E-01  -3.47322830E-07  -1.05236295E-07   2.42482338E-07  -2.00289508E-10  -3.40235433E-11  -1.21890377E-07  -3.95872039E-08   1.95927746E-07  -1.35300131E-16   6.99169289E-16  -2.19472374E-08  -4.76237001E-08  -4.88613808E-08  -6.10464163E-15  -2.51334152E-17  -2.26465709E-10  -5.98214249E-15  -6.11490645E-15   1.00863337E-17
   4.02500000E+02   5.00000000E-01   5.00000000E-01  -3.47322828E-07  -9.46001475E-08   2.37326058E-07  -2.00269214E-10  -3.27589182E-11  -1.21890376E-07  -3.70135064E-08   1.95451213E-07  -1.47992989E-16   1.70793368E-15  -2.18810074E-08  -4.76237801E-08  -4.88613808E-08  -6.15502625E-15  -2.60728239E-17  -2.26447485E-10  -5.98214249E-15  -6.11518093E-15   9.86209516E-18
   4.37500000E+02   5.00000000E-01   5.00000000E-01  -3.47322825E-07  -8.63470787E-08   2.33355783E-07  -2.00247896E-10  -3.20326706E-11  -1.21890374E-07  -3.54433454E-08   1.95270963E-07  -1.63417277E-16   2.92440862E-15  -2.18109157E-08  -4.76238853E-08  -4.88613808E-08  -6.20180486E-15  -2.63843168E-17  -2.26428139E-10  -5.98214249E-15  -6.11545473E-15   9.63382410E-18
   4.72500000E+02   5.00000000E-01   5.00000000E-01  -3.47322823E-07  -7.99558438E-08   2.30299575E-07  -2.00225538E-10  -3.17119837E-11  -1.21890372E-07  -3.46452834E-08   1.95317209E-07  -1.82281943E-16   4.37889751E-15  -2.17366637E-08  -4.76240109E-08  -4.88613808E-08  -6.24167088E-15  -2.61187061E-17  -2.26407569E-10  -5.98214249E-15  -6.11572176E-15   9.40443797E-18
   5.07500000E+02   5.00000000E-01   5.00000000E-01  -3.47322820E-07  -7.50205484E-08   2.27940156E-07  -2.00202122E-10  -3.16966714E-11  -1.21890369E-07  -3.44268579E-08   1.95530308E-07  -2.05523037E-16   6.10909021E-15  -2.16579025E-08  -4.76241528E-08  -4.88613808E-08  -6.26994424E-15  -2.53231064E-17  -2.26385654E-10  -5.98214249E-15  -6.11597804E-15   9.17614483E-18
   5.42500000E+02   5.00000000E-01   5.00000000E-01  -3.47322816E-07  -7.12301957E-08   2.26105834E-07  -2.00177629E-10  -3.19114633E-11  -1.21890365E-07  -3.46293900E-08   1.95859709E-07  -2.34381301E-16   8.16206429E-15  -2.15742355E-08  -4.76243067E-08  -4.88613808E-08  -6.28002580E-15  -2.40440817E-17  -2.26362256E-10  -5.98214249E-15  -6.11622102E-15   8.95060833E-18
   5.77500000E+02   5.00000000E-01   5.00000000E-01  -3.47322812E-07  -6.83494070E-08   2.24662104E-07  -2.00152038E-10  -3.22999686E-11  -1.21890360E-07  -3.51228841E-08   1.96262838E-07  -2.70504745E-16   1.05967430E-14  -2.14852191E-08  -4.76244691E-08  -4.88613808E-08  -6.26262155E-15  -2.23298433E-17  -2.26337225E-10  -5.98214249E-15  -6.11644926E-15   8.72907215E-18
   6.12500000E+02   5.00000000E-01   5.00000000E-01  -3.47322808E-07  -6.62016146E-08   2.23504550E-07  -2.00125329E-10  -3.28200259E-11  -1.21890354E-07  -3.58017395E-08   1.96704155E-07  -3.16077854E-16   1.34868339E-14  -2.13903642E-08  -4.76246378E-08  -4.88613808E-08  -6.20463118E-15  -2.02320284E-17  -2.26310393E-10  -5.98214249E-15  -6.11666203E-15   8.51245085E-18
   6.47500000E+02   5.00000000E-01   5.00000000E-01  -3.47322803E-07  -6.46550343E-08   2.22553130E-07  -2.00097481E-10  -3.34401552E-11  -1.21890345E-07  -3.65814278E-08   1.97154471E-07  -3.73968334E-16   1.69242120E-14  -2.12891399E-08  -4.76248114E-08  -4.88613808E-08  -6.08754233E-15  -1.78062928E-17  -2.26281576E-10  -5.98214249E-15  -6.11685916E-15   8.30139464E-18
   6.82500000E+02   5.00000000E-01   5.00000000E-01  -3.47322799E-07  -6.36112798E-08   2.21747695E-07  -2.00068470E-10  -3.41368696E-11  -1.21890334E-07  -3.73960056E-08   1.97590475E-07  -4.47852505E-16   2.10226499E-14  -2.11809820E-08  -4.76249893E-08  -4.88613808E-08  -5.88508990E-15  -1.51121257E-17  -2.26250582E-10  -5.98214249E-15  -6.11704085E-15   8.09633577E-18
   7.17500000E+02   5.00000000E-01   5.00000000E-01  -3.47322794E-07  -6.29963289E-08   2.21044475E-07  -2.00038274E-10  -3.48926482E-11  -1.21890320E-07  -3.81962113E-08   1.97994391E-07  -5.42203472E-16   2.59217192E-14  -2.10653062E-08  -4.76251718E-08  -4.88613808E-08  -5.55981129E-15  -1.22117680E-17  -2.26217205E-10  -5.98214249E-15  -6.11720755E-15   7.89752272E-18
   7.52500000E+02   5.00000000E-01   5.00000000E-01  -3.47322789E-07  -6.27535131E-08   2.20413256E-07  -2.00006866E-10  -3.56944132E-11  -1.21890302E-07  -3.89478739E-08   1.98353682E-07  -6.61835967E-16   3.17905907E-14  -2.09415261E-08  -4.76253590E-08  -4.88613808E-08  -5.05792479E-15  -9.16831255E-18  -2.26181237E-10  -5.98214249E-15  -6.11735988E-15   7.70504738E-18
   7.87500000E+02   5.00000000E-01   5.00000000E-01  -3.47322786E-07  -6.28382266E-08   2.19835019E-07  -1.99974221E-10  -3.65323901E-11  -1.21890278E-07  -3.96303917E-08   1.98660713E-07  -8.10240174E-16   3.88313345E-14  -2.08090754E-08  -4.76255512E-08  -4.88613808E-08  -4.30163152E-15  -6.04345670E-18  -2.26142469E-10  -5.98214249E-15  -6.11749860E-15   7.51886884E-18
   8.22500000E+02   5.00000000E-01   5.00000000E-01  -3.47322784E-07  -6.32140689E-08   2.19299853E-07  -1.99940308E-10  -3.73992567E-11  -1.21890248E-07  -4.02351084E-08   1.98912318E-07  -9.84825206E-16   4.72811802E-14  -2.06674327E-08  -4.76257475E-08  -4.88613808E-08  -3.17741060E-15  -2.89495342E-18  -2.26100696E-10  -5.98214249E-15  -6.11762451E-15   7.33883622E-18
   8.57500000E+02   5.00000000E-01   5.00000000E-01  -3.47322786E-07  -6.38501565E-08   2.18805039E-07  -1.99905095E-10  -3.82895071E-11  -1.21890210E-07  -4.07634997E-08   1.99109242E-07  -1.16451612E-15   5.74130385E-14  -2.05161466E-08  -4.76259452E-08  -4.88613808E-08  -1.51800180E-15   2.25557690E-19  -2.26055725E-10  -5.98214249E-15  -6.11773848E-15   7.16471168E-18
   8.92500000E+02   5.00000000E-01   5.00000000E-01  -3.47322792E-07  -6.47193502E-08   2.18353244E-07  -1.99868549E-10  -3.91989760E-11  -1.21890161E-07  -4.12251641E-08   1.99255470E-07  -1.27868270E-15   6.95334581E-14  -2.03548584E-08  -4.76261414E-08  -4.88613808E-08   9.25691942E-16   3.27429879E-18  -2.26007376E-10  -5.98214249E-15  -6.11784135E-15   6.99619359E-18
   9.27500000E+02   5.00000000E-01   5.00000000E-01  -3.47322808E-07  -6.57971622E-08   2.17950840E-07  -1.99830632E-10  -4.01244786E-11  -1.21890099E-07  -4.16356827E-08   1.99357458E-07  -1.13067870E-15   8.39771324E-14  -2.01833217E-08  -4.76263348E-08  -4.88613808E-08   4.52903055E-15   6.21615916E-18  -2.25955490E-10  -5.98214249E-15  -6.11793399E-15   6.83293927E-18
   9.62500000E+02   5.00000000E-01   5.00000000E-01  -3.47322837E-07  -6.70611292E-08   2.17606368E-07  -1.99791304E-10  -4.10635365E-11  -1.21890020E-07  -4.20144598E-08   1.99423333E-07  -2.10906487E-16   1.01097166E-13  -2.00014164E-08  -4.76265291E-08  -4.88613808E-08   9.86491397E-15   9.02496446E-18  -2.25899928E-10  -5.98214249E-15  -6.11801723E-15   6.67458620E-18
   9.97500000E+02   5.00000000E-01   5.00000000E-01  -3.47322887E-07  -6.84904722E-08   2.17329196E-07  -1.99750524E-10  -4.20141653E-11  -1.21889922E-07  -4.23826708E-08   1.99462097E-07   2.76007907E-15   1.21250643E-13  -1.98091578E-08  -4.76267322E-08  -4.88613808E-08   1.78199202E-14   1.16827604E-17  -2.25840570E-10  -5.98214249E-15  -6.11809189E-15   6.52077058E-18
   1.03250000E+03   5.00000000E-01   5.00000000E-01  -3.47322969E-07  -7.00659025E-08   2.17128394E-07  -1.99708246E-10  -4.29747098E-11  -1.21889797E-07  -4.27614377E-08   1.99482915E-07   1.09519742E-14   1.44779632E-13  -1.96067026E-08  -4.76269476E-08  -4.88613808E-08   2.97866600E-14   1.41785828E-17  -2.25777319E-10  -5.98214249E-15  -6.11815872E-15   6.37114226E-18
   1.06750000E+03   5.00000000E-01   5.00000000E-01  -3.47323096E-07  -7.17694482E-08   2.17011855E-07  -1.99664424E-10  -4.39437092E-11  -1.21889642E-07  -4.31703316E-08   1.99494505E-07   3.21864945E-14   1.71987898E-13  -1.93943490E-08  -4.76271639E-08  -4.88613808E-08   4.79879267E-14   1.65068988E-17  -2.25710094E-10  -5.98214249E-15  -6.11821847E-15   6.22537573E-18
   1.10250000E+03   5.00000000E-01   5.00000000E-01  -3.47323290E-07  -7.35842028E-08   2.16985679E-07  -1.99619011E-10  -4.49197753E-11  -1.21889448E-07  -4.36262712E-08   1.99504675E-07   8.57814785E-14   2.03113235E-13  -1.91725278E-08  -4.76273628E-08  -4.88613808E-08   7.60330144E-14   1.86658113E-17  -2.25638829E-10  -5.98214249E-15  -6.11827181E-15   6.08317760E-18
   1.13750000E+03   5.00000000E-01   5.00000000E-01  -3.47323583E-07  -7.54939994E-08   2.17053847E-07  -1.99571956E-10  -4.59014852E-11  -1.21889207E-07  -4.41428132E-08   1.99519971E-07   2.19583853E-13   2.38296890E-13  -1.89417888E-08  -4.76275395E-08  -4.88613808E-08   1.19891050E-13   2.06554539E-17  -2.25563466E-10  -5.98214249E-15  -6.11831937E-15   5.94429052E-18
   1.17250000E+03   5.00000000E-01   5.00000000E-01  -3.47324013E-07  -7.74830554E-08   2.17218156E-07  -1.99523209E-10  -4.68872981E-11  -1.21888909E-07  -4.47298037E-08   1.99545418E-07   5.52474822E-13   2.77553747E-13  -1.87027884E-08  -4.76277165E-08  -4.88613808E-08   1.89628848E-13   2.24767725E-17  -2.25483954E-10  -5.98214249E-15  -6.11836174E-15   5.80849380E-18
   1.20750000E+03   5.00000000E-01   5.00000000E-01  -3.47324628E-07  -7.95356081E-08   2.17478404E-07  -1.99472718E-10  -4.78754979E-11  -1.21888541E-07  -4.53933617E-08   1.99584267E-07   1.38058460E-12   3.20748573E-13  -1.84562877E-08  -4.76279283E-08  -4.88613808E-08   3.02580928E-13   2.41306639E-17  -2.25400246E-10  -5.98214249E-15  -6.11839946E-15   5.67560089E-18
   1.24250000E+03   5.00000000E-01   5.00000000E-01  -3.47325480E-07  -8.16355166E-08   2.17832917E-07  -1.99420431E-10  -4.88641618E-11  -1.21888088E-07  -4.61362212E-08   1.99637557E-07   3.44297521E-12   3.67584196E-13  -1.82031677E-08  -4.76281640E-08  -4.88613808E-08   4.89264088E-13   2.56172195E-17  -2.25312288E-10  -5.98214249E-15  -6.11843301E-15   5.54545370E-18
   1.27750000E+03   5.00000000E-01   5.00000000E-01  -3.47326629E-07  -8.37655178E-08   2.18279920E-07  -1.99366293E-10  -4.98510967E-11  -1.21887532E-07  -4.69587066E-08   1.99703061E-07   8.58526232E-12   4.17590226E-13  -1.79444472E-08  -4.76283562E-08  -4.88613808E-08   8.04678187E-13   2.69345894E-17  -2.25220030E-10  -5.98214249E-15  -6.11846284E-15   5.41791419E-18
   1.31250000E+03   5.00000000E-01   5.00000000E-01  -3.47328142E-07  -8.59058584E-08   2.18821032E-07  -1.99310247E-10  -5.08337243E-11  -1.21886854E-07  -4.78608471E-08   1.99772502E-07   2.14058397E-11   4.70099028E-13  -1.76813281E-08  -4.76284569E-08  -4.88613808E-08   1.35044280E-12   2.80772191E-17  -2.25123430E-10  -5.98214249E-15  -6.11848934E-15   5.29285045E-18
   1.34750000E+03   5.00000000E-01   5.00000000E-01  -3.47330083E-07  -8.80319066E-08   2.19469784E-07  -1.99252234E-10  -5.18089413E-11  -1.21886027E-07  -4.88467985E-08   1.99824439E-07   5.32877379E-11   5.24214197E-13  -1.74153801E-08  -4.76285109E-08  -4.88613808E-08   2.31930645E-12   2.90335073E-17  -2.25022501E-10  -5.98214249E-15  -6.11851289E-15   5.17010756E-18
   1.38250000E+03   5.00000000E-01   5.00000000E-01  -3.47332476E-07  -9.01090491E-08   2.20271619E-07  -1.99192177E-10  -5.27728484E-11  -1.21885022E-07  -4.99346947E-08   1.99807019E-07   1.32030139E-10   5.78732986E-13  -1.71490385E-08  -4.76287574E-08  -4.88613808E-08   4.08711017E-12   2.97797181E-17  -2.24917408E-10  -5.98214249E-15  -6.11853379E-15   5.04944451E-18
   1.41750000E+03   5.00000000E-01   5.00000000E-01  -3.47335209E-07  -9.20822150E-08   2.21349998E-07  -1.99129980E-10  -5.37203526E-11  -1.21883808E-07  -5.11782345E-08   1.99597508E-07   3.24243508E-10   6.32055603E-13  -1.68869573E-08  -4.76294172E-08  -4.88613808E-08   7.40831804E-12   3.02685021E-17  -2.24808733E-10  -5.98214249E-15  -6.11855234E-15   4.93039121E-18
   1.45250000E+03   5.00000000E-01   5.00000000E-01  -3.47338124E-07  -9.38523146E-08   2.23013657E-07  -1.99065487E-10  -5.46443745E-11  -1.21882350E-07  -5.27153344E-08   1.98907555E-07   7.87429752E-10   6.82056299E-13  -1.66393468E-08  -4.76299101E-08  -4.88613808E-08   1.38446185E-11   3.04026687E-17  -2.24698085E-10  -5.98214249E-15  -6.11856876E-15   4.81192475E-18
   1.48750000E+03   5.00000000E-01   5.00000000E-01  -3.47341252E-07  -9.52210895E-08   2.25975817E-07  -1.98998400E-10  -5.55328575E-11  -1.21880621E-07  -5.48707487E-08   1.97090733E-07   1.87634441E-09   7.24710826E-13  -1.64281771E-08  -4.76300443E-08  -4.88613808E-08   2.67339665E-11   2.99779284E-17  -2.24589583E-10  -5.98214249E-15  -6.11858327E-15   4.69184501E-18
   1.52250000E+03   5.00000000E-01   5.00000000E-01  -3.47344624E-07  -9.58093877E-08   2.31673263E-07  -1.98928136E-10  -5.63654309E-11  -1.21878621E-07  -5.83102177E-08   1.92859438E-07   4.30136623E-09   7.52345483E-13  -1.62979615E-08  -4.76305809E-08  -4.88613808E-08   5.34528639E-11   2.86503909E-17  -2.24492396E-10  -5.98214249E-15  -6.11859599E-15   4.56579664E-18
   1.55750000E+03   5.00000000E-01   5.00000000E-01  -3.47348084E-07  -9.49938014E-08   2.42415280E-07  -1.98853672E-10  -5.71137969E-11  -1.21876411E-07  -6.41474810E-08   1.84137017E-07   9.22151169E-09   7.53200476E-13  -1.63256861E-08  -4.76317950E-08  -4.88613808E-08   1.10879736E-10   2.60083567E-17  -2.24423328E-10  -5.98214249E-15  -6.11860700E-15   4.42643013E-18
   1.59250000E+03   5.00000000E-01   5.00000000E-01  -3.47351598E-07  -9.20100134E-08   2.60536656E-07  -1.98773596E-10  -5.77542164E-11  -1.21874139E-07  -7.36867754E-08   1.68754054E-07   1.78965083E-08   7.14392122E-13  -1.66059832E-08  -4.76326294E-08  -4.88613808E-08   2.39064543E-10   2.19080800E-17  -2.24404827E-10  -5.98214249E-15  -6.11861639E-15   4.26452710E-18
   1.62750000E+03   5.00000000E-01   5.00000000E-01  -3.47355219E-07  -8.65247853E-08   2.85369747E-07  -1.98686813E-10  -5.83045227E-11  -1.21871981E-07  -8.73169447E-08   1.47048044E-07   3.03294488E-08   6.32007244E-13  -1.71744211E-08  -4.76328349E-08  -4.88613808E-08   5.36672644E-10   1.72348899E-17  -2.24449780E-10  -5.98214249E-15  -6.11862434E-15   4.07542858E-18
   1.66250000E+03   5.00000000E-01   5.00000000E-01  -3.47358827E-07  -7.93164616E-08   3.11375804E-07  -1.98593625E-10  -5.88505576E-11  -1.21869979E-07  -1.03495302E-07   1.23627481E-07   4.42529881E-08   5.21732422E-13  -1.79345866E-08  -4.76327495E-08  -4.88613808E-08   1.25630972E-09   1.38770904E-17  -2.24543666E-10  -5.98214249E-15  -6.11863120E-15   3.86643495E-18
   1.69750000E+03   5.00000000E-01   5.00000000E-01  -3.47362402E-07  -7.19256364E-08   3.32554859E-07  -1.98495566E-10  -5.94951791E-11  -1.21867988E-07  -1.19707915E-07   1.03832225E-07   5.67967101E-08   4.09129337E-13  -1.87227267E-08  -4.76325244E-08  -4.88613808E-08   3.07055380E-09   1.29875244E-17  -2.24654057E-10  -5.98214249E-15  -6.11863737E-15   3.65327345E-18
   1.73250000E+03   5.00000000E-01   5.00000000E-01  -3.47366105E-07  -6.56252125E-08   3.47012934E-07  -1.98394211E-10  -6.02865132E-11  -1.21865792E-07  -1.34162437E-07   8.97387226E-08   6.65771942E-08   3.11660692E-13  -1.94229081E-08  -4.76322646E-08  -4.88613808E-08   7.84176288E-09   1.41051840E-17  -2.24754703E-10  -5.98214249E-15  -6.11864313E-15   3.44976286E-18
   1.76750000E+03   5.00000000E-01   5.00000000E-01  -3.47369922E-07  -6.09345517E-08   3.56026408E-07  -1.98290510E-10  -6.12074540E-11  -1.21863212E-07  -1.46218936E-07   8.06294704E-08   7.36641983E-08   2.34674722E-13  -1.99942796E-08  -4.76320743E-08  -4.88613808E-08   2.09239629E-08   1.60408734E-17  -2.24834034E-10  -5.98214249E-15  -6.11864857E-15   3.26303200E-18
   1.80250000E+03   5.00000000E-01   5.00000000E-01  -3.47373716E-07  -5.77340275E-08   3.61627891E-07  -1.98184797E-10  -6.22034658E-11  -1.21860135E-07  -1.55976785E-07   7.48801364E-08   7.87248531E-08   1.76481198E-13  -2.04427209E-08  -4.76320200E-08  -4.88613808E-08   5.81991144E-08   1.75862616E-17  -2.24891552E-10  -5.98214249E-15  -6.11865368E-15   3.09453132E-18
   1.83750000E+03   5.00000000E-01   5.00000000E-01  -3.47377273E-07  -5.55700968E-08   3.65321315E-07  -1.98077042E-10  -6.32094080E-11  -1.21856546E-07  -1.63805769E-07   7.10612508E-08   8.24497139E-08   1.33197592E-13  -2.07906452E-08  -4.76322968E-08  -4.88613808E-08   1.67343932E-07   1.73977820E-17  -2.24933584E-10  -5.98214249E-15  -6.11865845E-15   2.94277733E-18
   1.87250000E+03   5.00000000E-01   5.00000000E-01  -3.47380385E-07  -5.38729259E-08   3.67897415E-07  -1.97967079E-10  -6.41608600E-11  -1.21852648E-07  -1.70083199E-07   6.80966875E-08   8.54155873E-08   1.01072910E-13  -2.10610823E-08  -4.76330223E-08  -4.88613808E-08   4.84802216E-07   1.29341627E-17  -2.24974400E-10  -5.98214249E-15  -6.11866284E-15   2.80542940E-18
   1.90750000E+03   5.00000000E-01   5.00000000E-01  -3.47383097E-07  -5.20788101E-08   3.69673438E-07  -1.97854739E-10  -6.49989291E-11  -1.21849239E-07  -1.75094969E-07   6.49482793E-08   8.81956785E-08   7.71515459E-14  -2.12724329E-08  -4.76337372E-08  -4.88613808E-08   1.31839502E-06  -1.79261985E-18  -2.25044212E-10  -5.98214249E-15  -6.11866686E-15   2.68031243E-18
   1.94250000E+03   5.00000000E-01   5.00000000E-01  -3.47385603E-07  -4.99829838E-08   3.70789910E-07  -1.97739893E-10  -6.57102252E-11  -1.21847998E-07  -1.79030025E-07   6.06877177E-08   9.12966991E-08   5.92800341E-14  -2.14375021E-08  -4.76339752E-08  -4.88613808E-08   2.90074261E-06  -3.76901782E-17  -2.25187368E-10  -5.98214249E-15  -6.11867052E-15   2.56578012E-18
   1.97750000E+03   5.00000000E-01   5.00000000E-01  -3.47387996E-07  -4.81718193E-08   3.72274070E-07  -1.97622112E-10  -6.63941384E-11  -1.21850025E-07  -1.82190872E-07   5.54845895E-08   9.46310074E-08   4.55913473E-14  -2.15728539E-08  -4.76337883E-08  -4.88613808E-08   4.37310029E-06  -1.02122028E-16  -2.25408698E-10  -5.98214249E-15  -6.11867389E-15   2.45932265E-18
   2.01250000E+03   5.00000000E-01   5.00000000E-01  -3.47390285E-07  -4.71642658E-08   3.75349463E-07  -1.97500668E-10  -6.71498035E-11  -1.21853792E-07  -1.84991139E-07   5.09273865E-08   9.74127843E-08   3.45410597E-14  -2.16981158E-08  -4.76333788E-08  -4.88613808E-08   4.43498318E-06  -1.79877608E-16  -2.25639150E-10  -5.98214249E-15  -6.11867697E-15   2.35760491E-18
   2.04750000E+03   5.00000000E-01   5.00000000E-01  -3.47392463E-07  -4.65186363E-08   3.79074581E-07  -1.97375329E-10  -6.79317304E-11  -1.21856976E-07  -1.87580534E-07   4.80059258E-08   9.92660124E-08   2.54478644E-14  -2.18185663E-08  -4.76328813E-08  -4.88613808E-08   3.44356753E-06  -2.28733649E-16  -2.25817380E-10  -5.98214249E-15  -6.11867976E-15   2.25939915E-18
   2.08250000E+03   5.00000000E-01   5.00000000E-01  -3.47394518E-07  -4.54952319E-08   3.81957201E-07  -1.97246303E-10  -6.86385978E-11  -1.21858495E-07  -1.89880947E-07   4.63501965E-08   1.00479899E-07   1.81042311E-14  -2.19290990E-08  -4.76323617E-08  -4.88613808E-08   2.35222324E-06  -2.09513531E-16  -2.25932893E-10  -5.98214249E-15  -6.11868225E-15   2.16531935E-18
   2.11750000E+03   5.00000000E-01   5.00000000E-01  -3.47396437E-07  -4.35867978E-08   3.83637093E-07  -1.97113771E-10  -6.91998203E-11  -1.21858229E-07  -1.91804824E-07   4.51560395E-08   1.01463131E-07   1.23055533E-14  -2.20255767E-08  -4.76318513E-08  -4.88613808E-08   1.54346364E-06  -1.28264621E-16  -2.25999541E-10  -5.98214249E-15  -6.11868447E-15   2.07603504E-18
   2.15250000E+03   5.00000000E-01   5.00000000E-01  -3.47398206E-07  -4.05322722E-08   3.84394962E-07  -1.96977754E-10  -6.95832914E-11  -1.21856353E-07  -1.93323380E-07   4.38222334E-08   1.02485124E-07   7.78439687E-15  -2.21075270E-08  -4.76313654E-08  -4.88613808E-08   1.02226555E-06  -2.90556251E-17  -2.26033221E-10  -5.98214249E-15  -6.11868645E-15   1.99167413E-18
   2.18750000E+03   5.00000000E-01   5.00000000E-01  -3.47399816E-07  -3.62221836E-08   3.84557003E-07  -1.96838171E-10  -6.97814519E-11  -1.21853035E-07  -1.94450547E-07   4.20426840E-08   1.03675671E-07   4.27006360E-15  -2.21767472E-08  -4.76309125E-08  -4.88613808E-08   7.03646223E-07   5.01791277E-17  -2.26045536E-10  -5.98214249E-15  -6.11868822E-15   1.91196362E-18
   2.22250000E+03   5.00000000E-01   5.00000000E-01  -3.47401262E-07  -3.06331135E-08   3.84319343E-07  -1.96694896E-10  -6.97998728E-11  -1.21848338E-07  -1.95216711E-07   3.97252709E-08   1.05073000E-07   1.53038536E-15  -2.22356509E-08  -4.76304967E-08  -4.88613808E-08   5.10021647E-07   9.78152922E-17  -2.26043690E-10  -5.98214249E-15  -6.11868980E-15   1.83647813E-18
   2.25750000E+03   5.00000000E-01   5.00000000E-01  -3.47402545E-07  -2.37948296E-08   3.83777139E-07  -1.96547795E-10  -6.96511459E-11  -1.21842223E-07  -1.95654323E-07   3.68788463E-08   1.06673795E-07  -6.18285341E-16  -2.22864476E-08  -4.76301192E-08  -4.88613808E-08   3.90010794E-07   1.18587095E-16  -2.26031883E-10  -5.98214249E-15  -6.11869122E-15   1.76478228E-18
   2.29250000E+03   5.00000000E-01   5.00000000E-01  -3.47403670E-07  -1.57787297E-08   3.82955123E-07  -1.96396742E-10  -6.93520849E-11  -1.21834553E-07  -1.95789798E-07   3.35719510E-08   1.08448962E-07  -2.31305459E-15  -2.23306277E-08  -4.76297792E-08  -4.88613808E-08   3.12204075E-07   1.21512396E-16  -2.26012414E-10  -5.98214249E-15  -6.11869250E-15   1.69650922E-18
   2.32750000E+03   5.00000000E-01   5.00000000E-01  -3.47404643E-07  -6.69421779E-09   3.81850924E-07  -1.96241630E-10  -6.89225971E-11  -1.21825111E-07  -1.95642175E-07   2.98938728E-08   1.10359169E-07  -3.65360165E-15  -2.23691130E-08  -4.76294742E-08  -4.88613808E-08   2.59040923E-07   1.14090673E-16  -2.25986498E-10  -5.98214249E-15  -6.11869366E-15   1.63137667E-18
   2.36250000E+03   5.00000000E-01   5.00000000E-01  -3.47405473E-07   3.31589836E-09   3.80488355E-07  -1.96082344E-10  -6.83852725E-11  -1.21813614E-07  -1.95228454E-07   2.59131107E-08   1.12372751E-07  -4.71667836E-15  -2.24029044E-08  -4.76292006E-08  -4.88613808E-08   2.21658855E-07   1.01361345E-16  -2.25954837E-10  -5.98214249E-15  -6.11869471E-15   1.56914085E-18
   2.39750000E+03   5.00000000E-01   5.00000000E-01  -3.47406170E-07   1.40784004E-08   3.78907220E-07  -1.95918767E-10  -6.77649479E-11  -1.21799719E-07  -1.94565611E-07   2.16952751E-08   1.14458145E-07  -5.56392697E-15  -2.24331162E-08  -4.76289540E-08  -4.88613808E-08   1.94779094E-07   8.66469658E-17  -2.25917849E-10  -5.98214249E-15  -6.11869566E-15   1.50957296E-18
   2.43250000E+03   5.00000000E-01   5.00000000E-01  -3.47406742E-07   2.53941324E-08   3.77138161E-07  -1.95750781E-10  -6.70877526E-11  -1.21783003E-07  -1.93668812E-07   1.73268027E-08   1.16573517E-07  -6.24314723E-15  -2.24605715E-08  -4.76287299E-08  -4.88613808E-08   1.74447922E-07   7.20290478E-17  -2.25875708E-10  -5.98214249E-15  -6.11869654E-15   1.45246783E-18
   2.46750000E+03   5.00000000E-01   5.00000000E-01  -3.47407197E-07   3.70479242E-08   3.75202942E-07  -1.95578277E-10  -6.63797214E-11  -1.21762953E-07  -1.92550278E-07   1.29093810E-08   1.18669119E-07  -6.78917146E-15  -2.24855696E-08  -4.76285237E-08  -4.88613808E-08   1.57757780E-07   5.86391333E-17  -2.25828391E-10  -5.98214249E-15  -6.11869734E-15   1.39764880E-18
   2.50250000E+03   5.00000000E-01   5.00000000E-01  -3.47407542E-07   4.88192047E-08   3.73122188E-07  -1.95401146E-10  -6.56656075E-11  -1.21738962E-07  -1.91219580E-07   8.54334133E-09   1.20695130E-07  -7.22711021E-15  -2.25081346E-08  -4.76283311E-08  -4.88613808E-08   1.43293009E-07   4.69484181E-17  -2.25775770E-10  -5.98214249E-15  -6.11869808E-15   1.34496499E-18
   2.53750000E+03   5.00000000E-01   5.00000000E-01  -3.47407785E-07   6.04919037E-08   3.70912688E-07  -1.95219284E-10  -6.49678714E-11  -1.21710321E-07  -1.89683375E-07   4.32350922E-09   1.22604078E-07  -7.57628175E-15  -2.25283925E-08  -4.76281482E-08  -4.88613808E-08   1.30773306E-07   3.70639166E-17  -2.25717693E-10  -5.98214249E-15  -6.11869876E-15   1.29429249E-18
   2.57250000E+03   5.00000000E-01   5.00000000E-01  -3.47407933E-07   7.18681353E-08   3.68583953E-07  -1.95032594E-10  -6.43054436E-11  -1.21676201E-07  -1.87944528E-07   3.39840673E-10   1.24350605E-07  -7.85223537E-15  -2.25466063E-08  -4.76279718E-08  -4.88613808E-08   1.20084169E-07   2.89191745E-17  -2.25653969E-10  -5.98214249E-15  -6.11869939E-15   1.24553418E-18
   2.60750000E+03   5.00000000E-01   5.00000000E-01  -3.47407996E-07   8.27836669E-08   3.66140708E-07  -1.94840986E-10  -6.36925789E-11  -1.21635623E-07  -1.86001895E-07  -3.32851445E-09   1.25894057E-07  -8.06711587E-15  -2.25629835E-08  -4.76277992E-08  -4.88613808E-08   1.10830196E-07   2.23529659E-17  -2.25584331E-10  -5.98214249E-15  -6.11869998E-15   1.19861206E-18
   2.64250000E+03   5.00000000E-01   5.00000000E-01  -3.47407984E-07   9.31180401E-08   3.63586687E-07  -1.94644374E-10  -6.31384361E-11  -1.21587426E-07  -1.83851101E-07  -6.62121932E-09   1.27202274E-07  -8.22982310E-15  -2.25775397E-08  -4.76276288E-08  -4.88613808E-08   1.02461589E-07   1.71512443E-17  -2.25508413E-10  -5.98214249E-15  -6.11870052E-15   1.15345562E-18
   2.67750000E+03   5.00000000E-01   5.00000000E-01  -3.47407911E-07   1.02794906E-07   3.60926885E-07  -1.94442669E-10  -6.26476277E-11  -1.21530238E-07  -1.81485848E-07  -9.50086814E-09   1.28253776E-07  -8.34661764E-15  -2.25901045E-08  -4.76274598E-08  -4.88613808E-08   9.45653377E-08   1.30835979E-17  -2.25425762E-10  -5.98214249E-15  -6.11870103E-15   1.10999194E-18
   2.71250000E+03   5.00000000E-01   5.00000000E-01  -3.47407793E-07   1.11773594E-07   3.58165147E-07  -1.94235774E-10  -6.22214285E-11  -1.21462450E-07  -1.78898781E-07  -1.19491079E-08   1.29036282E-07  -8.42205976E-15  -2.26004260E-08  -4.76272928E-08  -4.88613808E-08   8.70289223E-08   9.93204330E-18  -2.25335878E-10  -5.98214249E-15  -6.11870150E-15   1.06814305E-18