 TITLE = "Mineral Rate (mol/m^3/sec)" 
VARIABLES = "X"          "Y"              "Z"            "Forsterite"     "Fayalite"       "Brucite"        "Lizardite"      "Chrysotile"     "Hematite"       "Magnetite(am)"  "Saponite(Ca)"   "Saponite(K)"    "Saponite(Mg)"   "Saponite(Na)"   "Beidellite(Ca)" "Beidellite(K)"  "Beidellite(Mg)" "Beidellite(Na)" "Enstatite(alph" "Ferrosilite(al" "Anorthite"      "Albite(low)"    "Clinochlore"    "Sudoite"        "Montmor(MgCa)"  "Montmor(MgK)"   "Montmor(MgMg)"  "Montmor(MgNa)"  "Kaolinite"      "Tremolite"      "Pargasite"      "Anhydrite"      "Epidote"        "Scolecite"      "Pyrite"         "FeS(am)"        "Quartz(alpha)"  "Titanite"       "Rutile"         "Barite"         "Fluorite"       "Spessartine(al" "Andradite"      "Celestite"      "Zincite"        "Chalcocyanite"  "Chalcocite(alp"
 ZONE I=         200 , J=           1 , K=           1  F=POINT
   8.75000000E+00   5.00000000E-01   5.00000000E-01  -1.30882354E-07  -4.78495812E-08  -1.21986991E-15  -1.01591493E-15  -9.41631479E-16   1.40773094E-08  -5.22779649E-17   9.41954182E-18   1.93561186E-14   6.95634425E-17   3.08553196E-08  -3.64770611E-17  -3.81017759E-18  -3.73266282E-17  -3.70189617E-17  -2.00045083E-10  -1.71446083E-10  -1.15276327E-07  -2.87231009E-08   2.25119133E-07   0.00000000E+00  -8.06419268E-18  -8.28127733E-19  -8.24670726E-18  -8.17347753E-18  -3.42526205E-11  -4.48997568E-08  -4.59779979E-08   0.00000000E+00  -2.81545415E-08  -1.91922411E-16  -6.90918428E-16  -6.79923069E-16   9.70638515E-18  -2.87559505E-14   1.74147250E-14   1.46798174E-10  -2.32524795E-14  -3.38307426E-09  -3.85412029E-14  -3.89292421E-15  -5.65439445E-10  -3.90435151E-15   1.82913358E-13
   2.62500000E+01   5.00000000E-01   5.00000000E-01  -1.30882360E-07  -4.78363222E-08  -1.21987860E-15  -9.40631939E-16  -8.88218155E-16   1.40773093E-08  -5.22828992E-17   3.25596187E-18   1.94573188E-14   3.81442901E-17   4.19507136E-08  -3.64757370E-17  -3.80831437E-18  -3.73204290E-17  -3.70029253E-17  -2.00218272E-10  -1.69578968E-10  -1.15276327E-07  -2.23941936E-08   2.20090407E-07   0.00000000E+00  -8.04250691E-18  -7.76128480E-19  -8.15272114E-18  -7.80174723E-18  -3.42429970E-11  -4.49210409E-08  -4.59779979E-08   0.00000000E+00  -2.81545415E-08  -1.91920726E-16  -6.90918428E-16  -6.79923069E-16   1.52346069E-17  -3.08527888E-14   1.94775996E-14   5.41243750E-11  -2.35885555E-14  -3.38307426E-09  -3.85412052E-14  -3.89417481E-15  -5.65464754E-10  -3.90435151E-15   1.71630071E-15
   4.37500000E+01   5.00000000E-01   5.00000000E-01  -1.30882361E-07  -4.78093978E-08  -1.21988022E-15  -8.86346923E-16  -8.48892998E-16   1.40773093E-08  -5.22861483E-17   3.08094321E-18   2.26425287E-14   3.90209557E-17   4.32461820E-08  -3.64659886E-17  -3.79527351E-18  -3.72748503E-17  -3.68881651E-17  -2.00241790E-10  -1.67167491E-10  -1.15276327E-07  -8.85946403E-09   2.13109253E-07   0.00000000E+00  -7.94275258E-18  -5.50412320E-19  -7.72074198E-18  -6.14548833E-18  -3.42061846E-11  -4.49357529E-08  -4.59779979E-08   0.00000000E+00  -2.81545415E-08  -1.91915034E-16  -6.90918428E-16  -6.79923069E-16   1.98880756E-17  -3.12054679E-14   2.14304151E-14   1.80121286E-11  -2.38962718E-14  -3.38307426E-09  -3.85412054E-14  -3.89530971E-15  -5.65463571E-10  -3.90435151E-15   1.71630071E-15
   6.12500000E+01   5.00000000E-01   5.00000000E-01  -1.30882361E-07  -4.77736099E-08  -1.21988075E-15  -8.57706142E-16  -8.27912363E-16   1.40773093E-08  -5.22889662E-17   3.42596262E-18   2.56724816E-14   4.28732224E-17   5.38810097E-08  -3.64402905E-17  -3.76284195E-18  -3.71548684E-17  -3.65952332E-17  -2.00241411E-10  -1.64643283E-10  -1.15276327E-07   8.43324335E-09   2.02708090E-07   0.00000000E+00  -7.73979290E-18  -1.20777246E-19  -6.84246268E-18  -2.89431822E-18  -3.41433259E-11  -4.49478909E-08  -4.59779979E-08   0.00000000E+00  -2.81545414E-08  -1.91905673E-16  -6.90918428E-16  -6.79923069E-16   2.32556182E-17  -3.12933582E-14   2.32585010E-14   2.80627453E-12  -2.41783754E-14  -3.38307426E-09  -3.85412055E-14  -3.89633027E-15  -5.65456027E-10  -3.90435151E-15   1.71630071E-15
   7.87500000E+01   5.00000000E-01   5.00000000E-01  -1.30882361E-07  -4.77330028E-08  -1.21988098E-15  -8.43320329E-16  -8.17378103E-16   1.40773093E-08  -5.22918275E-17   3.53883513E-18   2.79831871E-14   4.54415816E-17   6.71109601E-08  -3.63956509E-17  -3.70992178E-18  -3.69467450E-17  -3.61035435E-17  -2.00238315E-10  -1.62289192E-10  -1.15276327E-07   2.58389130E-08   1.91822229E-07   0.00000000E+00  -7.45291152E-18   4.43231707E-19  -5.60168136E-18   1.52602706E-18  -3.40598853E-11  -4.49635036E-08  -4.59779979E-08   0.00000000E+00  -2.81545414E-08  -1.91893719E-16  -6.90918428E-16  -6.79923069E-16   2.53697020E-17  -3.13598616E-14   2.49524876E-14  -4.07326469E-12  -2.44373409E-14  -3.38307426E-09  -3.85412055E-14  -3.89724227E-15  -5.65446444E-10  -3.90435151E-15   1.71630071E-15
   9.62500000E+01   5.00000000E-01   5.00000000E-01  -1.30882361E-07  -4.76869743E-08  -1.21988105E-15  -8.35744018E-16  -8.11892787E-16   1.40773093E-08  -5.22948681E-17   3.49340471E-18   2.95511551E-14   4.71001569E-17   7.84105250E-08  -3.63372856E-17  -3.64543262E-18  -3.66750296E-17  -3.54848864E-17  -2.00233578E-10  -1.60088699E-10  -1.15276327E-07   4.02796003E-08   1.82737366E-07   0.00000000E+00  -7.13824220E-18   1.00965093E-18  -4.24129776E-18   6.15870047E-18  -3.39687709E-11  -4.49834733E-08  -4.59779979E-08   0.00000000E+00  -2.81545413E-08  -1.91881158E-16  -6.90918428E-16  -6.79923069E-16   2.65141199E-17  -3.14174831E-14   2.65046305E-14  -7.45188140E-12  -2.46753737E-14  -3.38307426E-09  -3.85412056E-14  -3.89805236E-15  -5.65435155E-10  -3.90435151E-15   1.71630071E-15
   1.13750000E+02   5.00000000E-01   5.00000000E-01  -1.30882361E-07  -4.76336009E-08  -1.21988100E-15  -8.31418809E-16  -8.08833043E-16   1.40773092E-08  -5.22981192E-17   3.42728090E-18   3.03794970E-14   4.86187480E-17   8.63272039E-08  -3.62758671E-17  -3.58310950E-18  -3.63895792E-17  -3.48631142E-17  -2.00226245E-10  -1.57957002E-10  -1.15276327E-07   5.04049163E-08   1.76368372E-07   0.00000000E+00  -6.85199886E-18   1.46887944E-18  -3.00440762E-18   1.01334760E-17  -3.38851605E-11  -4.50064976E-08  -4.59779979E-08   0.00000000E+00  -2.81545413E-08  -1.91869920E-16  -6.90918428E-16  -6.79923069E-16   2.70167122E-17  -3.14571773E-14   2.79084057E-14  -9.29097773E-12  -2.48944293E-14  -3.38307426E-09  -3.85412056E-14  -3.89876685E-15  -5.65422153E-10  -3.90435151E-15   1.71630071E-15
   1.31250000E+02   5.00000000E-01   5.00000000E-01  -1.30882361E-07  -4.75715560E-08  -1.21988088E-15  -8.28771041E-16  -8.07029745E-16   1.40773092E-08  -5.23015931E-17   3.40238126E-18   3.04897936E-14   5.03509771E-17   9.11897572E-08  -3.62195947E-17  -3.53181316E-18  -3.61285649E-17  -3.43248566E-17  -2.00216163E-10  -1.55839791E-10  -1.15276327E-07   5.65539253E-08   1.72491478E-07   0.00000000E+00  -6.61961438E-18   1.78653581E-18  -2.00098343E-18   1.31149501E-17  -3.38172632E-11  -4.50309434E-08  -4.59779979E-08   0.00000000E+00  -2.81545412E-08  -1.91860844E-16  -6.90918428E-16  -6.79923069E-16   2.71390394E-17  -3.14790631E-14   2.91586735E-14  -1.04254179E-11  -2.50962430E-14  -3.38307426E-09  -3.85412056E-14  -3.89939149E-15  -5.65407670E-10  -3.90435151E-15   1.71630071E-15
   1.48750000E+02   5.00000000E-01   5.00000000E-01  -1.30882361E-07  -4.75001196E-08  -1.21988072E-15  -8.27107719E-16  -8.05966998E-16   1.40773092E-08  -5.23053024E-17   3.43706140E-18   2.99821022E-14   5.24155451E-17   9.38418653E-08  -3.61716097E-17  -3.49368267E-18  -3.59065169E-17  -3.38970184E-17  -2.00203565E-10  -1.53710769E-10  -1.15276327E-07   5.97502902E-08   1.70455647E-07   0.00000000E+00  -6.44047653E-18   1.98030326E-18  -1.22836028E-18   1.51764064E-17  -3.37661905E-11  -4.50555589E-08  -4.59779979E-08   0.00000000E+00  -2.81545412E-08  -1.91853882E-16  -6.90918428E-16  -6.79923069E-16   2.70557823E-17  -3.14872518E-14   3.02517578E-14  -1.12249481E-11  -2.52823603E-14  -3.38307426E-09  -3.85412056E-14  -3.89993151E-15  -5.65392010E-10  -3.90435151E-15   1.71630071E-15
   1.66250000E+02   5.00000000E-01   5.00000000E-01  -1.30882361E-07  -4.74189353E-08  -1.21988052E-15  -8.26101614E-16  -8.05401740E-16   1.40773092E-08  -5.23092598E-17   3.53212760E-18   2.89981541E-14   5.48341696E-17   9.50722315E-08  -3.61316433E-17  -3.46703605E-18  -3.57220833E-17  -3.35698184E-17  -2.00188754E-10  -1.51559338E-10  -1.15276327E-07   6.10012298E-08   1.69627130E-07   0.00000000E+00  -6.30313295E-18   2.08392248E-18  -6.36966798E-19   1.65401657E-17  -3.37294665E-11  -4.50795250E-08  -4.59779979E-08   0.00000000E+00  -2.81545411E-08  -1.91848610E-16  -6.90918428E-16  -6.79923069E-16   2.68716872E-17  -3.14862979E-14   3.11854350E-14  -1.18592199E-11  -2.54541596E-14  -3.38307426E-09  -3.85412056E-14  -3.90039166E-15  -5.65375441E-10  -3.90435151E-15   1.71630071E-15
   1.83750000E+02   5.00000000E-01   5.00000000E-01  -1.30882361E-07  -4.73278703E-08  -1.21988029E-15  -8.25577545E-16  -8.05204422E-16   1.40773091E-08  -5.23134769E-17   3.68184296E-18   2.76772476E-14   5.75858498E-17   9.54574762E-08  -3.60980529E-17  -3.44905757E-18  -3.55675429E-17  -3.33207445E-17  -2.00172010E-10  -1.49383562E-10  -1.15276327E-07   6.10618863E-08   1.69533210E-07   0.00000000E+00  -6.19493848E-18   2.12822129E-18  -1.72055438E-19   1.74270816E-17  -3.37036791E-11  -4.51023139E-08  -4.59779979E-08   0.00000000E+00  -2.81545411E-08  -1.91844563E-16  -6.90918428E-16  -6.79923069E-16   2.66448123E-17  -3.14801804E-14   3.19588783E-14  -1.24085805E-11  -2.56128730E-14  -3.38307426E-09  -3.85412056E-14  -3.90077630E-15  -5.65358178E-10  -3.90435151E-15   1.71630071E-15
   2.01250000E+02   5.00000000E-01   5.00000000E-01  -1.30882360E-07  -4.72269387E-08  -1.21988005E-15  -8.25429143E-16  -8.05296754E-16   1.40773091E-08  -5.23179632E-17   3.87854855E-18   2.61379855E-14   6.06315100E-17   9.53715740E-08  -3.60690080E-17  -3.43713000E-18  -3.54343317E-17  -3.31273384E-17  -2.00153568E-10  -1.47186195E-10  -1.15276327E-07   6.04319243E-08   1.69862347E-07   0.00000000E+00  -6.10568094E-18   2.13579695E-18   2.10597375E-19   1.80066937E-17  -3.36857243E-11  -4.51235787E-08  -4.59779979E-08   0.00000000E+00  -2.81545410E-08  -1.91841353E-16  -6.90918428E-16  -6.79923069E-16   2.64050830E-17  -3.14721017E-14   3.25725750E-14  -1.29121547E-11  -2.57596035E-14  -3.38307426E-09  -3.85412056E-14  -3.90108939E-15  -5.65340380E-10  -3.90435151E-15   1.71630071E-15
   2.18750000E+02   5.00000000E-01   5.00000000E-01  -1.30882360E-07  -4.71162521E-08  -1.21987979E-15  -8.25585809E-16  -8.05627022E-16   1.40773091E-08  -5.23227273E-17   4.11465010E-18   2.44756583E-14   6.39273225E-17   9.50402048E-08  -3.60429634E-17  -3.42924278E-18  -3.53152361E-17  -3.29716692E-17  -2.00133612E-10  -1.44972268E-10  -1.15276327E-07   5.94196735E-08   1.70423136E-07   0.00000000E+00  -6.02812989E-18   2.12156184E-18   5.42306032E-19   1.83948160E-17  -3.36731824E-11  -4.51430995E-08  -4.59779979E-08   0.00000000E+00  -2.81545410E-08  -1.91838694E-16  -6.90918428E-16  -6.79923069E-16   2.61665805E-17  -3.14645179E-14   3.30282277E-14  -1.33894380E-11  -2.58953395E-14  -3.38307426E-09  -3.85412056E-14  -3.90133454E-15  -5.65322160E-10  -3.90435151E-15   1.71630071E-15
   2.36250000E+02   5.00000000E-01   5.00000000E-01  -1.30882360E-07  -4.69959834E-08  -1.21987952E-15  -8.25998016E-16  -8.06159140E-16   1.40773091E-08  -5.23277773E-17   4.38342618E-18   2.27645390E-14   6.74320597E-17   9.45925937E-08  -3.60187621E-17  -3.42398902E-18  -3.52048647E-17  -3.28408398E-17  -2.00112285E-10  -1.42747601E-10  -1.15276327E-07   5.82068969E-08   1.71103372E-07   0.00000000E+00  -5.95752175E-18   2.09478304E-18   8.43700426E-19   1.86655606E-17  -3.36643113E-11  -4.51607583E-08  -4.59779979E-08   0.00000000E+00  -2.81545409E-08  -1.91836394E-16  -6.90918428E-16  -6.79923069E-16   2.59349474E-17  -3.14592362E-14   3.33286441E-14  -1.38503062E-11  -2.60209688E-14  -3.38307426E-09  -3.85412056E-14  -3.90151505E-15  -5.65303598E-10  -3.90435151E-15   1.71630071E-15
   2.53750000E+02   5.00000000E-01   5.00000000E-01  -1.30882359E-07  -4.68663381E-08  -1.21987924E-15  -8.26629508E-16  -8.06866855E-16   1.40773090E-08  -5.23331219E-17   4.67930281E-18   2.10608940E-14   7.11109191E-17   9.40990412E-08  -3.59955961E-17  -3.42043800E-18  -3.50994588E-17  -3.27261362E-17  -2.00089692E-10  -1.40517908E-10  -1.15276327E-07   5.68968030E-08   1.71839848E-07   0.00000000E+00  -5.89087208E-18   2.06098509E-18   1.12770246E-18   1.88642731E-17  -3.36579167E-11  -4.51765230E-08  -4.59779979E-08   0.00000000E+00  -2.81545409E-08  -1.91834323E-16  -6.90918428E-16  -6.79923069E-16   2.57116031E-17  -3.14575247E-14   3.34776198E-14  -1.42997945E-11  -2.61372893E-14  -3.38307426E-09  -3.85412056E-14  -3.90163390E-15  -5.65284744E-10  -3.90435151E-15   1.71630071E-15
   2.71250000E+02   5.00000000E-01   5.00000000E-01  -1.30882359E-07  -4.67275313E-08  -1.21987894E-15  -8.27452926E-16  -8.07730497E-16   1.40773090E-08  -5.23387710E-17   4.99788659E-18   1.94057570E-14   7.49371930E-17   9.35952163E-08  -3.59729314E-17  -3.41799966E-18  -3.49965388E-17  -3.26219524E-17  -2.00065905E-10  -1.38288279E-10  -1.15276327E-07   5.55456491E-08   1.72598552E-07   0.00000000E+00  -5.82640154E-18   2.02333988E-18   1.40201214E-18   1.90175776E-17  -3.36532101E-11  -4.51904337E-08  -4.59779979E-08   0.00000000E+00  -2.81545408E-08  -1.91832402E-16  -6.90918428E-16  -6.79923069E-16   2.54960467E-17  -3.14602145E-14   3.34798167E-14  -1.47404450E-11  -2.62450199E-14  -3.38307426E-09  -3.85412056E-14  -3.90169383E-15  -5.65265630E-10  -3.90435151E-15   1.71630071E-15
   2.88750000E+02   5.00000000E-01   5.00000000E-01  -1.30882358E-07  -4.65797675E-08  -1.21987864E-15  -8.28447626E-16  -8.08735383E-16   1.40773090E-08  -5.23447362E-17   5.33589142E-18   1.78274469E-14   7.88926190E-17   9.30970188E-08  -3.59504365E-17  -3.41631588E-18  -3.48945706E-17  -3.25248732E-17  -2.00040967E-10  -1.36062915E-10  -1.15276326E-07   5.41823843E-08   1.73362383E-07   0.00000000E+00  -5.76312202E-18   1.98358719E-18   1.67090112E-18   1.91403071E-17  -3.36496910E-11  -4.52025875E-08  -4.59779979E-08   0.00000000E+00  -2.81545408E-08  -1.91830581E-16  -6.90918428E-16  -6.79923069E-16   2.52870629E-17  -3.14677909E-14   3.33406405E-14  -1.51734889E-11  -2.63448088E-14  -3.38307426E-09  -3.85412056E-14  -3.90169731E-15  -5.65246269E-10  -3.90435151E-15   1.71630071E-15
   3.06250000E+02   5.00000000E-01   5.00000000E-01  -1.30882358E-07  -4.64232271E-08  -1.21987832E-15  -8.29598934E-16  -8.09871343E-16   1.40773089E-08  -5.23510316E-17   5.69101919E-18   1.63439126E-14   8.29669206E-17   9.26094075E-08  -3.59279269E-17  -3.41518180E-18  -3.47927014E-17  -3.24329831E-17  -2.00014903E-10  -1.33845029E-10  -1.15276326E-07   5.28205009E-08   1.74123778E-07   0.00000000E+00  -5.70055548E-18   1.94261701E-18   1.93643103E-18   1.92400422E-17  -3.36470567E-11  -4.52131235E-08  -4.59779979E-08   0.00000000E+00  -2.81545407E-08  -1.91828834E-16  -6.90918428E-16  -6.79923069E-16   2.50833203E-17  -3.14804711E-14   3.30661202E-14  -1.55994580E-11  -2.64372414E-14  -3.38307426E-09  -3.85412055E-14  -3.90164658E-15  -5.65226664E-10  -3.90435151E-15   1.71630071E-15
   3.23750000E+02   5.00000000E-01   5.00000000E-01  -1.30882357E-07  -4.62580554E-08  -1.21987800E-15  -8.30898197E-16  -8.11132850E-16   1.40773089E-08  -5.23576733E-17   6.06181876E-18   1.49649115E-14   8.71568383E-17   9.21315783E-08  -3.59053215E-17  -3.41449100E-18  -3.46905607E-17  -3.23453679E-17  -1.99987713E-10  -1.31636863E-10  -1.15276326E-07   5.14650805E-08   1.74880328E-07   0.00000000E+00  -5.63854648E-18   1.90083119E-18   2.19926618E-18   1.93200284E-17  -3.36451374E-11  -4.52222070E-08  -4.59779979E-08   0.00000000E+00  -2.81545406E-08  -1.91827148E-16  -6.90918428E-16  -6.79923069E-16   2.48836384E-17  -3.14982707E-14   3.26627906E-14  -1.60185066E-11  -2.65228475E-14  -3.38307426E-09  -3.85412055E-14  -3.90154368E-15  -5.65206808E-10  -3.90435151E-15   1.71630071E-15
   3.41250000E+02   5.00000000E-01   5.00000000E-01  -1.30882356E-07  -4.60843593E-08  -1.21987766E-15  -8.32342956E-16  -8.12519261E-16   1.40773089E-08  -5.23646806E-17   6.44753193E-18   1.36939843E-14   9.14648397E-17   9.16600026E-08  -3.58826110E-17  -3.41419749E-18  -3.45881089E-17  -3.22617557E-17  -1.99959387E-10  -1.29439800E-10  -1.15276326E-07   5.01169623E-08   1.75632196E-07   0.00000000E+00  -5.57713571E-18   1.85836731E-18   2.45922189E-18   1.93810553E-17  -3.36438491E-11  -4.52300162E-08  -4.59779979E-08   0.00000000E+00  -2.81545406E-08  -1.91825519E-16  -6.90918428E-16  -6.79923069E-16   2.46870813E-17  -3.15210599E-14   3.21375812E-14  -1.64305857E-11  -2.66021065E-14  -3.38307426E-09  -3.85412055E-14  -3.90139045E-15  -5.65186687E-10  -3.90435151E-15   1.71630071E-15
   3.58750000E+02   5.00000000E-01   5.00000000E-01  -1.30882355E-07  -4.59022090E-08  -1.21987731E-15  -8.33936811E-16  -8.14034802E-16   1.40773088E-08  -5.23720749E-17   6.84793117E-18   1.25301813E-14   9.58976605E-17   9.11902148E-08  -3.58598320E-17  -3.41428914E-18  -3.44855189E-17  -3.21822521E-17  -1.99929899E-10  -1.27254537E-10  -1.15276326E-07   4.87752005E-08   1.76380591E-07   0.00000000E+00  -5.51647205E-18   1.81523779E-18   2.71564563E-18   1.94226849E-17  -3.36431582E-11  -4.52367290E-08  -4.59779979E-08   0.00000000E+00  -2.81545405E-08  -1.91823947E-16  -6.90918428E-16  -6.79923069E-16   2.44929612E-17  -3.15486122E-14   3.14977120E-14  -1.68355382E-11  -2.66754536E-14  -3.38307426E-09  -3.85412055E-14  -3.90118853E-15  -5.65166281E-10  -3.90435151E-15   1.71630071E-15
   3.76250000E+02   5.00000000E-01   5.00000000E-01  -1.30882355E-07  -4.57116467E-08  -1.21987695E-15  -8.35688857E-16  -8.15688204E-16   1.40773088E-08  -5.23798799E-17   7.26315798E-18   1.14695092E-14   1.00464843E-16   9.07178307E-08  -3.58370464E-17  -3.41476904E-18  -3.43830801E-17  -3.21071432E-17  -1.99899217E-10  -1.25081307E-10  -1.15276326E-07   4.74384855E-08   1.77126892E-07   0.00000000E+00  -5.45675001E-18   1.77141545E-18   2.96768803E-18   1.94440568E-17  -3.36430568E-11  -4.52425138E-08  -4.59779979E-08   0.00000000E+00  -2.81545404E-08  -1.91822437E-16  -6.90918428E-16  -6.79923069E-16   2.43008030E-17  -3.15806434E-14   3.07505971E-14  -1.72331519E-11  -2.67432837E-14  -3.38307426E-09  -3.85412055E-14  -3.90093943E-15  -5.65145569E-10  -3.90435151E-15   1.71630071E-15
   3.93750000E+02   5.00000000E-01   5.00000000E-01  -1.30882354E-07  -4.55126983E-08  -1.21987657E-15  -8.37612852E-16  -8.17492100E-16   1.40773087E-08  -5.23881216E-17   7.69357894E-18   1.05060886E-14   1.05177473E-16   9.02390252E-08  -3.58143257E-17  -3.41564320E-18  -3.42811242E-17  -3.20367566E-17  -1.99867303E-10  -1.22920096E-10  -1.15276326E-07   4.61058953E-08   1.77872190E-07   0.00000000E+00  -5.39816688E-18   1.72688243E-18   3.21448848E-18   1.94443869E-17  -3.36435447E-11  -4.52475222E-08  -4.59779979E-08   0.00000000E+00  -2.81545403E-08  -1.91820993E-16  -6.90918428E-16  -6.79923069E-16   2.41102950E-17  -3.16168419E-14   2.99037576E-14  -1.76231892E-11  -2.68059557E-14  -3.38307426E-09  -3.85412054E-14  -3.90064445E-15  -5.65124527E-10  -3.90435151E-15   1.71630071E-15
   4.11250000E+02   5.00000000E-01   5.00000000E-01  -1.30882352E-07  -4.53053850E-08  -1.21987618E-15  -8.39726334E-16  -8.19462372E-16   1.40773087E-08  -5.23968277E-17   8.13968062E-18   9.63302617E-15   1.10047313E-16   8.97505941E-08  -3.57917398E-17  -3.41691383E-18  -3.41799762E-17  -3.19713780E-17  -1.99834117E-10  -1.20770806E-10  -1.15276326E-07   4.47771831E-08   1.78617138E-07   0.00000000E+00  -5.34089794E-18   1.68165178E-18   3.45528254E-18   1.94232179E-17  -3.36446193E-11  -4.52518872E-08  -4.59779979E-08   0.00000000E+00  -2.81545402E-08  -1.91819618E-16  -6.90918428E-16  -6.79923069E-16   2.39212444E-17  -3.16568889E-14   2.89647437E-14  -1.80054037E-11  -2.68637965E-14  -3.38307426E-09  -3.85412054E-14  -3.90030480E-15  -5.65103133E-10  -3.90435151E-15   1.71630071E-15
   4.28750000E+02   5.00000000E-01   5.00000000E-01  -1.30882351E-07  -4.50897308E-08  -1.21987578E-15  -8.42049887E-16  -8.21617597E-16   1.40773086E-08  -5.24060278E-17   8.60201754E-18   8.84302792E-15   1.15086394E-16   8.92497287E-08  -3.57693532E-17  -3.41857740E-18  -3.40799338E-17  -3.19112221E-17  -1.99799615E-10  -1.18633349E-10  -1.15276325E-07   4.34527513E-08   1.79361998E-07   0.00000000E+00  -5.28508826E-18   1.63576928E-18   3.68943747E-18   1.93804704E-17  -3.36462729E-11  -4.52557236E-08  -4.59779979E-08  -3.53181181E-33  -2.81545401E-08  -1.91818314E-16  -6.90918428E-16  -6.79923069E-16   2.37335444E-17  -3.17004683E-14   2.79410657E-14  -1.83795500E-11  -2.69171036E-14  -3.38307426E-09  -3.85412054E-14  -3.89992150E-15  -5.65081363E-10  -3.90435151E-15   1.71630071E-15
   4.46250000E+02   5.00000000E-01   5.00000000E-01  -1.30882350E-07  -4.48657633E-08  -1.21987536E-15  -8.44606598E-16  -8.23978641E-16   1.40773086E-08  -5.24157532E-17   9.08120980E-18   8.12879594E-15   1.20306997E-16   8.87336843E-08  -3.57472251E-17  -3.42062588E-18  -3.39812700E-17  -3.18564430E-17  -1.99763754E-10  -1.16507643E-10  -1.15276325E-07   4.21334555E-08   1.80106795E-07   0.00000000E+00  -5.23085676E-18   1.58930384E-18   3.91643469E-18   1.93163641E-17  -3.36484929E-11  -4.52591316E-08  -4.59779979E-08   0.00000000E+00  -2.81545400E-08  -1.91817083E-16  -6.90918428E-16  -6.79923069E-16   2.35471547E-17  -3.17472693E-14   2.68401343E-14  -1.87453890E-11  -2.69661485E-14  -3.38307426E-09  -3.85412054E-14  -3.89949548E-15  -5.65059195E-10  -3.90435151E-15   1.71630071E-15
   4.63750000E+02   5.00000000E-01   5.00000000E-01  -1.30882349E-07  -4.46335094E-08  -1.21987493E-15  -8.47421755E-16  -8.26568435E-16   1.40773085E-08  -5.24260374E-17   9.57796885E-18   7.48326468E-15   1.25721779E-16   8.81995264E-08  -3.57254126E-17  -3.42304914E-18  -3.38842480E-17  -3.18071623E-17  -1.99726487E-10  -1.14393561E-10  -1.15276325E-07   4.08203815E-08   1.80851470E-07   0.00000000E+00  -5.17830554E-18   1.54233518E-18   4.13582966E-18   1.92312980E-17  -3.36512658E-11  -4.52621993E-08  -4.59779979E-08  -2.50626078E-19  -2.81545399E-08  -1.91815927E-16  -6.90918428E-16  -6.79923069E-16   2.33620912E-17  -3.17969860E-14   2.56692101E-14  -1.91026911E-11  -2.70111786E-14  -3.38307426E-09  -3.85412054E-14  -3.89902752E-15  -5.65036607E-10  -3.90435151E-15   1.71630070E-15
   4.81250000E+02   5.00000000E-01   5.00000000E-01  -1.30882347E-07  -4.43929914E-08  -1.21987448E-15  -8.50522772E-16  -8.29411942E-16   1.40773085E-08  -5.24369158E-17   1.00931209E-17   6.89973297E-15   1.31343799E-16   8.76440748E-08  -3.57039736E-17  -3.42583665E-18  -3.37891330E-17  -3.17634891E-17  -1.99687762E-10  -1.12290888E-10  -1.15276325E-07   3.95147000E-08   1.81595964E-07   0.00000000E+00  -5.12752681E-18   1.49494581E-18   4.34722205E-18   1.91257657E-17  -3.36545787E-11  -4.52650048E-08  -4.59779979E-08  -1.53963258E-18  -2.81545398E-08  -1.91814847E-16  -6.90918428E-16  -6.79923069E-16   2.31784189E-17  -3.18493176E-14   2.44353610E-14  -1.94512377E-11  -2.70524201E-14  -3.38307426E-09  -3.85412053E-14  -3.89851833E-15  -5.65013575E-10  -3.90435151E-15   1.71630070E-15
   4.98750000E+02   5.00000000E-01   5.00000000E-01  -1.30882345E-07  -4.41442267E-08  -1.21987402E-15  -8.53939380E-16  -8.32536338E-16   1.40773084E-08  -5.24484264E-17   1.06276034E-17   6.37193814E-15   1.37186273E-16   8.70640523E-08  -3.56829662E-17  -3.42897739E-18  -3.36961901E-17  -3.17255187E-17  -1.99647525E-10  -1.10199324E-10  -1.15276324E-07   3.82176364E-08   1.82340202E-07   0.00000000E+00  -5.07860259E-18   1.44722004E-18   4.55025707E-18   1.90003474E-17  -3.36584192E-11  -4.52676149E-08  -4.59779979E-08  -3.43995103E-18  -2.81545396E-08  -1.91813845E-16  -6.90918428E-16  -6.79923069E-16   2.29962434E-17  -3.19039708E-14   2.31454282E-14  -1.97908216E-11  -2.70900796E-14  -3.38307426E-09  -3.85412053E-14  -3.89796846E-15  -5.64990076E-10  -3.90435151E-15   1.71630069E-15
   5.16250000E+02   5.00000000E-01   5.00000000E-01  -1.30882343E-07  -4.38872353E-08  -1.21987355E-15  -8.57704081E-16  -8.35971416E-16   1.40773083E-08  -5.24606098E-17   1.11824267E-17   5.89410137E-15   1.43262097E-16   8.64563473E-08  -3.56624448E-17  -3.43245810E-18  -3.36056663E-17  -3.16933072E-17  -1.99605719E-10  -1.08118549E-10  -1.15276324E-07   3.69305348E-08   1.83084028E-07   0.00000000E+00  -5.03159677E-18   1.39924880E-18   4.74465978E-18   1.88557717E-17  -3.36627726E-11  -4.52700833E-08  -4.59779979E-08  -6.20328911E-18  -2.81545395E-08  -1.91812920E-16  -6.90918428E-16  -6.79923069E-16   2.28156987E-17  -3.19606653E-14   2.18059988E-14  -2.01212475E-11  -2.71243459E-14  -3.38307426E-09  -3.85412053E-14  -3.89737841E-15  -5.64966087E-10  -3.90435151E-15   1.71630068E-15
   5.33750000E+02   5.00000000E-01   5.00000000E-01  -1.30882341E-07  -4.36220534E-08  -1.21987305E-15  -8.61852866E-16  -8.39750221E-16   1.40773083E-08  -5.24735098E-17   1.17586116E-17   5.46095713E-15   1.49583294E-16   8.58182496E-08  -3.56424539E-17  -3.43626098E-18  -3.35177627E-17  -3.16668358E-17  -1.99562286E-10  -1.06048341E-10  -1.15276324E-07   3.56549490E-08   1.83827112E-07   0.00000000E+00  -4.98654321E-18   1.35113614E-18   4.93028605E-18   1.86930039E-17  -3.36676185E-11  -4.52724472E-08  -4.59779979E-08  -1.01822912E-17  -2.81545393E-08  -1.91812072E-16  -6.90918428E-16  -6.79923069E-16   2.26369335E-17  -3.20191399E-14   2.04233862E-14  -2.04423314E-11  -2.71553916E-14  -3.38307426E-09  -3.85412052E-14  -3.89674854E-15  -5.64941584E-10  -3.90435151E-15   1.71630065E-15
   5.51250000E+02   5.00000000E-01   5.00000000E-01  -1.30882339E-07  -4.33487498E-08  -1.21987254E-15  -8.66426148E-16  -8.43909878E-16   1.40773082E-08  -5.24871731E-17   1.23571296E-17   5.06776750E-15   1.56160659E-16   8.51475381E-08  -3.56230225E-17  -3.44036213E-18  -3.34326089E-17  -3.16459834E-17  -1.99517165E-10  -1.03988689E-10  -1.15276323E-07   3.43926855E-08   1.84568915E-07   0.00000000E+00  -4.94343625E-18   1.30300259E-18   5.10716324E-18   1.85133020E-17  -3.36729279E-11  -4.52747272E-08  -4.59779979E-08  -1.58705625E-17  -2.81545392E-08  -1.91811301E-16  -6.90918428E-16  -6.79923069E-16   2.24600977E-17  -3.20791569E-14   1.90036159E-14  -2.07538998E-11  -2.71833749E-14  -3.38307426E-09  -3.85412052E-14  -3.89607916E-15  -5.64916547E-10  -3.90435151E-15   1.71630062E-15
   5.68750000E+02   5.00000000E-01   5.00000000E-01  -1.30882336E-07  -4.30674367E-08  -1.21987202E-15  -8.71469840E-16  -8.48492543E-16   1.40773081E-08  -5.25016505E-17   1.29788740E-17   4.71031731E-15   1.63003798E-16   8.44423664E-08  -3.56041625E-17  -3.44473180E-18  -3.33502548E-17  -3.16305234E-17  -1.99470301E-10  -1.01939849E-10  -1.15276323E-07   3.31457513E-08   1.85308741E-07   0.00000000E+00  -4.90222933E-18   1.25498226E-18   5.27549593E-18   1.83181973E-17  -3.36786635E-11  -4.52769282E-08  -4.59779979E-08  -2.39580344E-17  -2.81545390E-08  -1.91810603E-16  -6.90918428E-16  -6.79923069E-16   2.22853345E-17  -3.21405022E-14   1.75524163E-14  -2.10557900E-11  -2.72084401E-14  -3.38307426E-09  -3.85412052E-14  -3.89537046E-15  -5.64890956E-10  -3.90435151E-15   1.71630057E-15
   5.86250000E+02   5.00000000E-01   5.00000000E-01  -1.30882333E-07  -4.27782709E-08  -1.21987148E-15  -8.77036484E-16  -8.53546434E-16   1.40773080E-08  -5.25169965E-17   1.36246817E-17   4.38488732E-15   1.70121621E-16   8.37009925E-08  -3.55858712E-17  -3.44933675E-18  -3.32706846E-17  -3.16201525E-17  -1.99421635E-10  -9.99023126E-11  -1.15276323E-07   3.19162027E-08   1.86045847E-07   0.00000000E+00  -4.86284429E-18   1.20721348E-18   5.43562541E-18   1.81093865E-17  -3.36847824E-11  -4.52790442E-08  -4.59779979E-08  -3.54069174E-17  -2.81545388E-08  -1.91809973E-16  -6.90918428E-16  -6.79923069E-16   2.21127776E-17  -3.22029822E-14   1.60752147E-14  -2.13478495E-11  -2.72307194E-14  -3.38307426E-09  -3.85412051E-14  -3.89462257E-15  -5.64864793E-10  -3.90435151E-15   1.71630050E-15
   6.03750000E+02   5.00000000E-01   5.00000000E-01  -1.30882330E-07  -4.24814432E-08  -1.21987092E-15  -8.83186416E-16  -8.59126888E-16   1.40773079E-08  -5.25332703E-17   1.42954019E-17   4.08820776E-15   1.77523143E-16   8.29214746E-08  -3.55681395E-17  -3.45414402E-18  -3.31938515E-17  -3.16145436E-17  -1.99371111E-10  -9.78766913E-11  -1.15276322E-07   3.07059375E-08   1.86779606E-07   0.00000000E+00  -4.82518954E-18   1.15982574E-18   5.58795163E-18   1.78885640E-17  -3.36912419E-11  -4.52810639E-08  -4.59779979E-08  -5.15546120E-17  -2.81545386E-08  -1.91809409E-16  -6.90918428E-16  -6.79923069E-16   2.19425553E-17  -3.22664172E-14   1.45771360E-14  -2.16299365E-11  -2.72503338E-14  -3.38307426E-09  -3.85412051E-14  -3.89383553E-15  -5.64838043E-10  -3.90435151E-15   1.71630039E-15
   6.21250000E+02   5.00000000E-01   5.00000000E-01  -1.30882326E-07  -4.21771581E-08  -1.21987035E-15  -8.89988980E-16  -8.65297478E-16   1.40773078E-08  -5.25505359E-17   1.49919940E-17   3.81739970E-15   1.85218321E-16   8.21014692E-08  -3.55509610E-17  -3.45912476E-18  -3.31197226E-17  -3.16134053E-17  -1.99318666E-10  -9.58635511E-11  -1.15276322E-07   2.95164990E-08   1.87509632E-07   0.00000000E+00  -4.78918148E-18   1.11292725E-18   5.73284111E-18   1.76572481E-17  -3.36980045E-11  -4.52829759E-08  -4.59779979E-08  -7.42505353E-17  -2.81545384E-08  -1.91808906E-16  -6.90918428E-16  -6.79923069E-16   2.17747965E-17  -3.23306347E-14   1.30630057E-14  -2.19019201E-11  -2.72673937E-14  -3.38307426E-09  -3.85412050E-14  -3.89300933E-15  -5.64810688E-10  -3.90435151E-15   1.71630021E-15