 TITLE = "Mineral Rate (mol/m^3/sec)" 
VARIABLES = "X"          "Y"              "Z"            "Forsterite"     "Enstatite(alph" "Anorthite"      "Ferropargasite" "Anhydrite"      "Clinochlore"    "Albite(low)"    "Fayalite"       "Epidote"        "Kaolinite"      "Muscovite(orde" "Sudoite"        "Saponite(Mg)"   "Scolecite"      "Pyrite"         "Quartz(alpha)" 
 ZONE I=         100 , J=           1 , K=           1  F=POINT
   1.75000000E+01   5.00000000E-01   5.00000000E-01  -9.99656736E-09  -9.99176743E-10  -9.97788864E-10  -9.99122533E-10   0.00000000E+00   2.03866626E-08  -6.36503395E-08  -9.96333754E-09   2.95911207E-17  -9.63616143E-10   1.28208712E-08   0.00000000E+00   1.32787004E-08  -6.57334605E-09   0.00000000E+00   2.36485277E-10
   5.25000000E+01   5.00000000E-01   5.00000000E-01  -9.99656737E-09  -9.99150843E-10  -9.97788862E-10  -9.99122533E-10  -4.62882106E-06   9.08544383E-09  -4.74859997E-08  -9.96267091E-09   1.24072130E-17  -9.59243673E-10   1.49025574E-08   0.00000000E+00   1.37236469E-08  -6.57358270E-09   0.00000000E+00   3.07688042E-10
   8.75000000E+01   5.00000000E-01   5.00000000E-01  -9.99656737E-09  -9.99113538E-10  -9.97788856E-10  -9.99122533E-10  -2.03549799E-05   5.49930206E-09  -3.92923181E-08  -9.96193637E-09   3.49889717E-17  -9.57177026E-10   1.42241840E-08   0.00000000E+00   1.66750612E-08  -6.57053002E-09   0.00000000E+00   3.46669042E-10
   1.22500000E+02   5.00000000E-01   5.00000000E-01  -9.99656736E-09  -9.99071740E-10  -9.97788853E-10  -9.99122533E-10  -7.22907968E-06   4.18361674E-09  -3.52752237E-08  -9.96095909E-09   9.72590897E-19  -9.55459007E-10   1.35856780E-08   0.00000000E+00   1.82154955E-08  -6.56922574E-09   0.00000000E+00   3.63522115E-10
   1.57500000E+02   5.00000000E-01   5.00000000E-01  -9.99656735E-09  -9.99027408E-10  -9.97788850E-10  -9.99122533E-10  -1.00123907E-06   3.60635105E-09  -3.32736465E-08  -9.95973202E-09  -2.15763406E-18  -9.53629097E-10   1.32082245E-08   0.00000000E+00   1.90413547E-08  -6.56879509E-09   0.00000000E+00   3.68936188E-10
   1.92500000E+02   5.00000000E-01   5.00000000E-01  -9.99656734E-09  -9.98981106E-10  -9.97788847E-10  -9.99122533E-10   5.90650821E-07   3.33021702E-09  -3.23254808E-08  -9.95829415E-09  -3.03970181E-18  -9.51601816E-10   1.30127469E-08   0.00000000E+00   1.95885773E-08  -6.56858318E-09   0.00000000E+00   3.68445782E-10
   2.27500000E+02   5.00000000E-01   5.00000000E-01  -9.99656732E-09  -9.98932978E-10  -9.97788844E-10  -9.99122533E-10   9.54093681E-07   3.20575016E-09  -3.19968283E-08  -9.95667513E-09  -3.50652838E-18  -9.49367440E-10   1.29338049E-08   0.00000000E+00   2.00365247E-08  -6.56841566E-09   0.00000000E+00   3.64609970E-10
   2.62500000E+02   5.00000000E-01   5.00000000E-01  -9.99656730E-09  -9.98883056E-10  -9.97788840E-10  -9.99122533E-10   1.04007671E-06   3.16937434E-09  -3.20610495E-08  -9.95489703E-09  -3.92134323E-18  -9.46926753E-10   1.29310672E-08   0.00000000E+00   2.04482358E-08  -6.56825482E-09   0.00000000E+00   3.58765341E-10
   2.97500000E+02   5.00000000E-01   5.00000000E-01  -9.99656728E-09  -9.98831329E-10  -9.97788835E-10  -9.99122533E-10   1.06140454E-06   3.18934143E-09  -3.23869352E-08  -9.95297839E-09  -4.37736955E-18  -9.44280640E-10   1.29791537E-08   0.00000000E+00   2.08484612E-08  -6.56809390E-09   0.00000000E+00   3.51686674E-10
   3.32500000E+02   5.00000000E-01   5.00000000E-01  -9.99656726E-09  -9.98777774E-10  -9.97788828E-10  -9.99122533E-10   1.06603704E-06   3.24811516E-09  -3.28937254E-08  -9.95093574E-09  -4.90445014E-18  -9.41428526E-10   1.30615647E-08   0.00000000E+00   2.12484088E-08  -6.56793293E-09   0.00000000E+00   3.43850062E-10
   3.67500000E+02   5.00000000E-01   5.00000000E-01  -9.99656723E-09  -9.98722358E-10  -9.97788821E-10  -9.99122533E-10   1.06474020E-06   3.33535757E-09  -3.35295434E-08  -9.94878411E-09  -5.51324315E-18  -9.38368393E-10   1.31672896E-08   0.00000000E+00   2.16534594E-08  -6.56777319E-09   0.00000000E+00   3.35558575E-10
   4.02500000E+02   5.00000000E-01   5.00000000E-01  -9.99656720E-09  -9.98665043E-10  -9.97788813E-10  -9.99122533E-10   1.06004765E-06   3.44469564E-09  -3.42598612E-08  -9.94653718E-09  -6.21355405E-18  -9.35097139E-10   1.32887973E-08   0.00000000E+00   2.20659882E-08  -6.56761600E-09   0.00000000E+00   3.27010162E-10
   4.37500000E+02   5.00000000E-01   5.00000000E-01  -9.99656716E-09  -9.98605790E-10  -9.97788803E-10  -9.99122533E-10   1.05270161E-06   3.57206097E-09  -3.50608737E-08  -9.94420741E-09  -7.01035666E-18  -9.31610934E-10   1.34208003E-08   0.00000000E+00   2.24865504E-08  -6.56746245E-09   0.00000000E+00   3.18337157E-10
   4.72500000E+02   5.00000000E-01   5.00000000E-01  -9.99656712E-09  -9.98544559E-10  -9.97788791E-10  -9.99122533E-10   1.04305659E-06   3.71476551E-09  -3.59155116E-08  -9.94180619E-09  -7.91359857E-18  -9.27905524E-10   1.35594778E-08   0.00000000E+00   2.29144491E-08  -6.56731347E-09   0.00000000E+00   3.09630268E-10
   5.07500000E+02   5.00000000E-01   5.00000000E-01  -9.99656708E-09  -9.98481306E-10  -9.97788777E-10  -9.99122533E-10   1.03137814E-06   3.87095349E-09  -3.68109695E-08  -9.93934396E-09  -8.93393791E-18  -9.23976443E-10   1.37019820E-08   0.00000000E+00   2.33480407E-08  -6.56716983E-09   0.00000000E+00   3.00953507E-10
   5.42500000E+02   5.00000000E-01   5.00000000E-01  -9.99656703E-09  -9.98415990E-10  -9.97788761E-10  -9.99122533E-10   1.01790426E-06   4.03925856E-09  -3.77371408E-08  -9.93683046E-09  -1.00843066E-17  -9.19819164E-10   1.38461251E-08   0.00000000E+00   2.37849208E-08  -6.56703217E-09   0.00000000E+00   2.92353632E-10
   5.77500000E+02   5.00000000E-01   5.00000000E-01  -9.99656697E-09  -9.98348567E-10  -9.97788743E-10  -9.99122533E-10   1.00285711E-06   4.21857918E-09  -3.86856175E-08  -9.93427493E-09  -1.13790575E-17  -9.15429187E-10   1.39901801E-08   0.00000000E+00   2.42220526E-08  -6.56690104E-09   0.00000000E+00   2.83866177E-10
   6.12500000E+02   5.00000000E-01   5.00000000E-01  -9.99656690E-09  -9.98278995E-10  -9.97788721E-10  -9.99122533E-10   9.86444803E-07   4.40792537E-09  -3.96490479E-08  -9.93168630E-09  -1.28363806E-17  -9.10802049E-10   1.41327581E-08   0.00000000E+00   2.46558694E-08  -6.56677687E-09   0.00000000E+00   2.75519313E-10
   6.47500000E+02   5.00000000E-01   5.00000000E-01  -9.99656683E-09  -9.98207230E-10  -9.97788696E-10  -9.99122533E-10   9.68861452E-07   4.60631049E-09  -4.06207302E-08  -9.92907346E-09  -1.44765975E-17  -9.05933300E-10   1.42727339E-08   0.00000000E+00   2.50823677E-08  -6.56666004E-09   0.00000000E+00   2.67336314E-10
   6.82500000E+02   5.00000000E-01   5.00000000E-01  -9.99656675E-09  -9.98133220E-10  -9.97788668E-10  -9.99122533E-10   9.50287092E-07   4.81186614E-09  -4.15969328E-08  -9.92644532E-09  -1.63417721E-17  -9.00827983E-10   1.44061950E-08   3.27991972E-12   2.54975241E-08  -6.56655006E-09   0.00000000E+00   2.59340880E-10
   7.17500000E+02   5.00000000E-01   5.00000000E-01  -9.99656666E-09  -9.98056894E-10  -9.97788635E-10  -9.99122533E-10   9.30887776E-07   5.02131612E-09  -4.25767906E-08  -9.92381119E-09  -1.84986955E-17  -8.95508058E-10   1.45255922E-08   1.72216526E-11   2.58979894E-08  -6.56645204E-09   0.00000000E+00   2.51560423E-10
   7.52500000E+02   5.00000000E-01   5.00000000E-01  -9.99656656E-09  -9.97978244E-10  -9.97788597E-10  -9.99122533E-10   9.10815956E-07   5.23488178E-09  -4.35455636E-08  -9.92118199E-09  -2.08984825E-17  -8.89943751E-10   1.46384400E-08   3.27548003E-11   2.62793198E-08  -6.56636245E-09   0.00000000E+00   2.44006233E-10
   7.87500000E+02   5.00000000E-01   5.00000000E-01  -9.99656645E-09  -9.97897231E-10  -9.97788554E-10  -9.99122533E-10   8.90210664E-07   5.45103014E-09  -4.44979439E-08  -9.91856810E-09  -2.36176584E-17  -8.84130732E-10   1.47444715E-08   5.00000051E-11   2.66358313E-08  -6.56628131E-09   0.00000000E+00   2.36690307E-10
   8.22500000E+02   5.00000000E-01   5.00000000E-01  -9.99656632E-09  -9.97813817E-10  -9.97788505E-10  -9.99122533E-10   8.69198207E-07   5.66799173E-09  -4.54287639E-08  -9.91598058E-09  -2.67058192E-17  -8.78064301E-10   1.48435191E-08   6.90753855E-11   2.69627937E-08  -6.56620856E-09   0.00000000E+00   2.29623864E-10
   8.57500000E+02   5.00000000E-01   5.00000000E-01  -9.99656618E-09  -9.97727965E-10  -9.97788450E-10  -9.99122533E-10   8.47892744E-07   5.88378677E-09  -4.63329893E-08  -9.91343126E-09  -3.02200213E-17  -8.71738946E-10   1.49355849E-08   9.00952824E-11   2.72556497E-08  -6.56614408E-09   0.00000000E+00   2.22817168E-10
   8.92500000E+02   5.00000000E-01   5.00000000E-01  -9.99656603E-09  -9.97639640E-10  -9.97788387E-10  -9.99122533E-10   8.26396954E-07   6.09625103E-09  -4.72057932E-08  -9.91093266E-09  -3.42259901E-17  -8.65148119E-10   1.50208395E-08   1.13168472E-10   2.75101080E-08  -6.56608768E-09   0.00000000E+00   2.16279359E-10
   9.27500000E+02   5.00000000E-01   5.00000000E-01  -9.99656586E-09  -9.97548810E-10  -9.97788316E-10  -9.99122533E-10   8.04802732E-07   6.30307433E-09  -4.80426338E-08  -9.90849800E-09  -3.88030921E-17  -8.58284048E-10   1.50996135E-08   1.38396480E-10   2.77222418E-08  -6.56603909E-09   0.00000000E+00   2.10018263E-10
   9.62500000E+02   5.00000000E-01   5.00000000E-01  -9.99656567E-09  -9.97455444E-10  -9.97788237E-10  -9.99122533E-10   7.83191909E-07   6.50185107E-09  -4.88393315E-08  -9.90614105E-09  -4.40406446E-17  -8.51137597E-10   1.51723805E-08   1.65872061E-10   2.78885832E-08  -6.56599800E-09   0.00000000E+00   2.04040225E-10
   9.97500000E+02   5.00000000E-01   5.00000000E-01  -9.99656546E-09  -9.97359512E-10  -9.97788147E-10  -9.99122533E-10   7.61636970E-07   6.69014178E-09  -4.95921433E-08  -9.90387597E-09  -5.00441621E-17  -8.43698177E-10   1.52397326E-08   1.95677910E-10   2.80062091E-08  -6.56596403E-09   0.00000000E+00   1.98349948E-10
   1.03250000E+03   5.00000000E-01   5.00000000E-01  -9.99656524E-09  -9.97260987E-10  -9.97788047E-10  -9.99122533E-10   7.40201766E-07   6.86554337E-09  -5.02978307E-08  -9.90171713E-09  -5.69368529E-17  -8.35953748E-10   1.53023494E-08   2.27885640E-10   2.80728201E-08  -6.56593680E-09   0.00000000E+00   1.92950359E-10
   1.06750000E+03   5.00000000E-01   5.00000000E-01  -9.99656499E-09  -9.97159843E-10  -9.97787936E-10  -9.99122533E-10   7.18942208E-07   7.02576515E-09  -5.09537214E-08  -9.89967879E-09  -6.48603280E-17  -8.27890898E-10   1.53609605E-08   2.62555047E-10   2.80868073E-08  -6.56591590E-09   0.00000000E+00   1.87842498E-10
   1.10250000E+03   5.00000000E-01   5.00000000E-01  -9.99656471E-09  -9.97056053E-10  -9.97787811E-10  -9.99122533E-10   6.97906928E-07   7.16870684E-09  -5.15577603E-08  -9.89777486E-09  -7.39797175E-17  -8.19495024E-10   1.54163055E-08   2.99733693E-10   2.80473087E-08  -6.56590092E-09   0.00000000E+00   1.83025439E-10
   1.13750000E+03   5.00000000E-01   5.00000000E-01  -9.99656442E-09  -9.96949592E-10  -9.97787673E-10  -9.99122533E-10   6.77137922E-07   7.29253435E-09  -5.21085507E-08  -9.89601859E-09  -8.44852337E-17  -8.10750609E-10   1.54690922E-08   3.39456785E-10   2.79542504E-08  -6.56589149E-09   0.00000000E+00   1.78496245E-10
   1.17250000E+03   5.00000000E-01   5.00000000E-01  -9.99656409E-09  -9.96840433E-10  -9.97787521E-10  -9.99122533E-10   6.56671146E-07   7.39574855E-09  -5.26053823E-08  -9.89442220E-09  -9.65972149E-17  -8.01641580E-10   1.55199576E-08   3.81747392E-10   2.78083721E-08  -6.56588726E-09   0.00000000E+00   1.74249955E-10
   1.20750000E+03   5.00000000E-01   5.00000000E-01  -9.99656374E-09  -9.96728548E-10  -9.97787352E-10  -9.99122533E-10   6.36537087E-07   7.47724292E-09  -5.30482451E-08  -9.89299665E-09  -1.10568546E-16  -7.92151742E-10   1.55694330E-08   4.26616978E-10   2.76112357E-08  -6.56588795E-09   0.00000000E+00   1.70279614E-10
   1.24250000E+03   5.00000000E-01   5.00000000E-01  -9.99656336E-09  -9.96613908E-10  -9.97787166E-10  -9.99122533E-10   6.16761286E-07   7.53634577E-09  -5.34378291E-08  -9.89175129E-09  -1.26690902E-16  -7.82265256E-10   1.56179157E-08   4.74066289E-10   2.73652116E-08  -6.56589331E-09   0.00000000E+00   1.66576343E-10
   1.27750000E+03   5.00000000E-01   5.00000000E-01  -9.99656296E-09  -9.96496482E-10  -9.97786961E-10  -9.99122533E-10   5.97364833E-07   7.57284424E-09  -5.37755072E-08  -9.89069366E-09  -1.45297528E-16  -7.71967138E-10   1.56656503E-08   5.24086607E-10   2.70734447E-08  -6.56590317E-09   0.00000000E+00   1.63129448E-10
   1.31250000E+03   5.00000000E-01   5.00000000E-01  -9.99656251E-09  -9.96376232E-10  -9.97786737E-10  -9.99122533E-10   5.78364817E-07   7.58698801E-09  -5.40633024E-08  -9.88982931E-09  -1.66771124E-16  -7.61243748E-10   1.57127199E-08   5.76661381E-10   2.67397955E-08  -6.56591745E-09   0.00000000E+00   1.59926573E-10
   1.34750000E+03   5.00000000E-01   5.00000000E-01  -9.99656204E-09  -9.96253122E-10  -9.97786491E-10  -9.99122533E-10   5.59774742E-07   7.57947246E-09  -5.43038381E-08  -9.88916168E-09  -1.91547392E-16  -7.50083227E-10   1.57590481E-08   6.31768248E-10   2.63687580E-08  -6.56593609E-09   0.00000000E+00   1.56953892E-10
   1.38250000E+03   5.00000000E-01   5.00000000E-01  -9.99656153E-09  -9.96127108E-10  -9.97786223E-10  -9.99122533E-10   5.41604915E-07   7.55140231E-09  -5.45002744E-08  -9.88869209E-09  -2.20123714E-16  -7.38475875E-10   1.58044103E-08   6.89381395E-10   2.59653550E-08  -6.56595913E-09   0.00000000E+00   1.54196338E-10
   1.41750000E+03   5.00000000E-01   5.00000000E-01  -9.99656099E-09  -9.95998142E-10  -9.97785931E-10  -9.99122533E-10   5.23862790E-07   7.50423840E-09  -5.46562292E-08  -9.88841974E-09  -2.53063762E-16  -7.26414415E-10   1.58484543E-08   7.49474206E-10   2.55350140E-08  -6.56598662E-09   0.00000000E+00   1.51637868E-10
   1.45250000E+03   5.00000000E-01   5.00000000E-01  -9.99656042E-09  -9.95866175E-10  -9.97785613E-10  -9.99122533E-10   5.06553294E-07   7.43973138E-09  -5.47756895E-08  -9.88834184E-09  -2.91007595E-16  -7.13894171E-10   1.58907263E-08   8.12022074E-10   2.50834275E-08  -6.56601868E-09   0.00000000E+00   1.49261742E-10
   1.48750000E+03   5.00000000E-01   5.00000000E-01  -9.99655981E-09  -9.95731151E-10  -9.97785268E-10  -9.99122533E-10   4.89679117E-07   7.35984704E-09  -5.48629150E-08  -9.88845375E-09  -3.34680531E-16  -7.00913109E-10   1.59307023E-08   8.77005233E-10   2.46164067E-08  -6.56605542E-09   0.00000000E+00   1.47050825E-10
   1.52250000E+03   5.00000000E-01   5.00000000E-01  -9.99655916E-09  -9.95593011E-10  -9.97784895E-10  -9.99122533E-10   4.73240984E-07   7.26668823E-09  -5.49223369E-08  -9.88874925E-09  -3.84902183E-16  -6.87471794E-10   1.59678189E-08   9.44411429E-10   2.41397329E-08  -6.56609697E-09   0.00000000E+00   1.44987884E-10
   1.55750000E+03   5.00000000E-01   5.00000000E-01  -9.99655849E-09  -9.95451693E-10  -9.97784492E-10  -9.99122533E-10   4.57237897E-07   7.16241829E-09  -5.49584578E-08  -9.88922069E-09  -4.42599453E-16  -6.73573234E-10   1.60015041E-08   1.01423826E-09   2.36590162E-08  -6.56614347E-09   0.00000000E+00   1.43055883E-10
   1.59250000E+03   5.00000000E-01   5.00000000E-01  -9.99655778E-09  -9.95307132E-10  -9.97784057E-10  -9.99122533E-10   4.41667364E-07   7.04919029E-09  -5.49757556E-08  -9.88985932E-09  -5.08818755E-16  -6.59222670E-10   1.60312042E-08   1.08649504E-09   2.31795692E-08  -6.56619501E-09   0.00000000E+00   1.41238253E-10
   1.62750000E+03   5.00000000E-01   5.00000000E-01  -9.99655704E-09  -9.95159260E-10  -9.97783589E-10  -9.99122533E-10   4.26525602E-07   6.92908533E-09  -5.49785955E-08  -9.89065548E-09  -5.84742643E-16  -6.44427312E-10   1.60564056E-08   1.16120397E-09   2.27063003E-08  -6.56625168E-09   0.00000000E+00   1.39519137E-10
   1.66250000E+03   5.00000000E-01   5.00000000E-01  -9.99655627E-09  -9.95008008E-10  -9.97783087E-10  -9.99122533E-10   4.11807728E-07   6.80406228E-09  -5.49711525E-08  -9.89159891E-09  -6.71705160E-16  -6.29196048E-10   1.60766514E-08   1.23840074E-09   2.22436320E-08  -6.56631352E-09   0.00000000E+00   1.37883587E-10
   1.69750000E+03   5.00000000E-01   5.00000000E-01  -9.99655546E-09  -9.94853304E-10  -9.97782548E-10  -9.99122533E-10   3.97507933E-07   6.67591988E-09  -5.49573481E-08  -9.89267888E-09  -7.71215779E-16  -6.13539169E-10   1.60915508E-08   1.31813433E-09   2.17954460E-08  -6.56638052E-09   0.00000000E+00   1.36317734E-10
   1.73250000E+03   5.00000000E-01   5.00000000E-01  -9.99655461E-09  -9.94695076E-10  -9.97781972E-10  -9.99122533E-10   3.83619635E-07   6.54627125E-09  -5.49408001E-08  -9.89388445E-09  -8.84979723E-16  -5.97468103E-10   1.61007847E-08   1.40046617E-09   2.13650556E-08  -6.56645266E-09   0.00000000E+00   1.34808899E-10
   1.76750000E+03   5.00000000E-01   5.00000000E-01  -9.99655372E-09  -9.94533251E-10  -9.97781356E-10  -9.99122533E-10   3.70135623E-07   6.41652996E-09  -5.49247880E-08  -9.89520459E-09  -1.01492447E-15  -5.80995187E-10   1.61041044E-08   1.48546876E-09   2.09552022E-08  -6.56652985E-09   0.00000000E+00   1.33345669E-10
   1.80250000E+03   5.00000000E-01   5.00000000E-01  -9.99655278E-09  -9.94367753E-10  -9.97780699E-10  -9.99122533E-10   3.57048187E-07   6.28790610E-09  -5.49122324E-08  -9.89662831E-09  -1.16323295E-15  -5.64133487E-10   1.61013282E-08   1.57322380E-09   2.05680749E-08  -6.56661197E-09   0.00000000E+00   1.31917922E-10
   1.83750000E+03   5.00000000E-01   5.00000000E-01  -9.99655177E-09  -9.94198509E-10  -9.97780000E-10  -9.99122533E-10   3.44349231E-07   6.16141064E-09  -5.49056866E-08  -9.89814479E-09  -1.33237476E-15  -5.46896658E-10   1.60923343E-08   1.66382000E-09   2.02053462E-08  -6.56669887E-09   0.00000000E+00   1.30516823E-10
   1.87250000E+03   5.00000000E-01   5.00000000E-01  -9.99655070E-09  -9.94025444E-10  -9.97779256E-10  -9.99122533E-10   3.32030375E-07   6.03786602E-09  -5.49073406E-08  -9.89974340E-09  -1.52514651E-15  -5.29298852E-10   1.60770525E-08   1.75735069E-09   1.98682219E-08  -6.56679035E-09   0.00000000E+00   1.29134787E-10
   1.90750000E+03   5.00000000E-01   5.00000000E-01  -9.99654955E-09  -9.93848483E-10  -9.97778468E-10  -9.99122533E-10   3.20083044E-07   5.91792120E-09  -5.49190330E-08  -9.90141380E-09  -1.74471797E-15  -5.11354666E-10   1.60554547E-08   1.85391142E-09   1.95574988E-08  -6.56688619E-09   0.00000000E+00   1.27765407E-10
   1.94250000E+03   5.00000000E-01   5.00000000E-01  -9.99654831E-09  -9.93667551E-10  -9.97777632E-10  -9.99122533E-10   3.08498546E-07   5.80206936E-09  -5.49422714E-08  -9.90314596E-09  -1.99467798E-15  -4.93079127E-10   1.60275464E-08   1.95359752E-09   1.92736265E-08  -6.56698616E-09   0.00000000E+00   1.26403376E-10
   1.97750000E+03   5.00000000E-01   5.00000000E-01  -9.99654698E-09  -9.93482572E-10  -9.97776748E-10  -9.99122533E-10   2.97268141E-07   5.69066697E-09  -5.49782574E-08  -9.90493018E-09  -2.27909283E-15  -4.74487701E-10   1.59933577E-08   2.05650183E-09   1.90167708E-08  -6.56708999E-09   0.00000000E+00   1.25044388E-10
   2.01250000E+03   5.00000000E-01   5.00000000E-01  -9.99654554E-09  -9.93293470E-10  -9.97775814E-10  -9.99122533E-10   2.86383097E-07   5.58395308E-09  -5.50279146E-08  -9.90675712E-09  -2.60256862E-15  -4.55596329E-10   1.59529364E-08   2.16271262E-09   1.87868745E-08  -6.56719741E-09   0.00000000E+00   1.23685034E-10
   2.04750000E+03   5.00000000E-01   5.00000000E-01  -9.99654399E-09  -9.93100169E-10  -9.97774829E-10  -9.99122533E-10   2.75834734E-07   5.48206792E-09  -5.50919196E-08  -9.90861781E-09  -2.97032090E-15  -4.36421469E-10   1.59063411E-08   2.27231176E-09   1.85837151E-08  -6.56730812E-09   0.00000000E+00   1.22322693E-10
   2.08250000E+03   5.00000000E-01   5.00000000E-01  -9.99654230E-09  -9.92902592E-10  -9.97773793E-10  -9.99122533E-10   2.65614470E-07   5.38507036E-09  -5.51707327E-08  -9.91050366E-09  -3.38825222E-15  -4.16980156E-10   1.58536366E-08   2.38537306E-09   1.84069564E-08  -6.56742183E-09   0.00000000E+00   1.20955426E-10
   2.11750000E+03   5.00000000E-01   5.00000000E-01  -9.99654048E-09  -9.92700663E-10  -9.97772703E-10  -9.99122533E-10   2.55713847E-07   5.29295376E-09  -5.52646281E-08  -9.91240647E-09  -3.86304101E-15  -3.97290059E-10   1.57948900E-08   2.50196093E-09   1.82561955E-08  -6.56753825E-09   0.00000000E+00   1.19581874E-10
   2.15250000E+03   5.00000000E-01   5.00000000E-01  -9.99653851E-09  -9.92494303E-10  -9.97771560E-10  -9.99122533E-10   2.46124558E-07   5.20566020E-09  -5.53737229E-08  -9.91431844E-09  -4.40223661E-15  -3.77369605E-10   1.57301676E-08   2.62212931E-09   1.81310022E-08  -6.56765707E-09   0.00000000E+00   1.18201161E-10
   2.18750000E+03   5.00000000E-01   5.00000000E-01  -9.99653638E-09  -9.92283432E-10  -9.97770362E-10  -9.99122533E-10   2.36838465E-07   5.12309282E-09  -5.54980048E-08  -9.91623217E-09  -5.01436496E-15  -3.57237892E-10   1.56595333E-08   2.74592080E-09   1.80309540E-08  -6.56777800E-09   0.00000000E+00   1.16812804E-10
   2.22250000E+03   5.00000000E-01   5.00000000E-01  -9.99653406E-09  -9.92067972E-10  -9.97769108E-10  -9.99122533E-10   2.27847611E-07   5.04512652E-09  -5.56373568E-08  -9.91814069E-09  -5.70904875E-15  -3.36914797E-10   1.55830475E-08   2.87336599E-09   1.79556642E-08  -6.56790073E-09   0.00000000E+00   1.15416631E-10
   2.25750000E+03   5.00000000E-01   5.00000000E-01  -9.99653157E-09  -9.91847842E-10  -9.97767799E-10  -9.99122533E-10   2.19144231E-07   4.97161702E-09  -5.57915807E-08  -9.92003746E-09  -6.49713388E-15  -3.16421094E-10   1.55007663E-08   3.00448314E-09   1.79048048E-08  -6.56802494E-09   0.00000000E+00   1.14012710E-10
   2.29250000E+03   5.00000000E-01   5.00000000E-01  -9.99652887E-09  -9.91622958E-10  -9.97766433E-10  -9.99122533E-10   2.10720753E-07   4.90240844E-09  -5.59604168E-08  -9.92191637E-09  -7.39083207E-15  -2.95778464E-10   1.54127421E-08   3.13927785E-09   1.78781259E-08  -6.56815034E-09   0.00000000E+00   1.12601285E-10
   2.32750000E+03   5.00000000E-01   5.00000000E-01  -9.99652596E-09  -9.91393238E-10  -9.97765011E-10  -9.99122533E-10   2.02569800E-07   4.83733953E-09  -5.61435619E-08  -9.92377177E-09  -8.40387239E-15  -2.75009543E-10   1.53190234E-08   3.27774304E-09   1.78754689E-08  -6.56827666E-09   0.00000000E+00   1.11182720E-10
   2.36250000E+03   5.00000000E-01   5.00000000E-01  -9.99652283E-09  -9.91158597E-10  -9.97763533E-10  -9.99122533E-10   1.94684189E-07   4.77624876E-09  -5.63406844E-08  -9.92559845E-09  -9.55166878E-15  -2.54137960E-10   1.52196553E-08   3.41985897E-09   1.78967779E-08  -6.56840362E-09   0.00000000E+00   1.09757449E-10
   2.39750000E+03   5.00000000E-01   5.00000000E-01  -9.99651946E-09  -9.90918947E-10  -9.97761998E-10  -9.99122533E-10   1.87056925E-07   4.71897844E-09  -5.65514379E-08  -9.92739168E-09  -1.08514948E-14  -2.33188367E-10   1.51146801E-08   3.56559348E-09   1.79421070E-08  -6.56853094E-09   0.00000000E+00   1.08325941E-10
   2.43250000E+03   5.00000000E-01   5.00000000E-01  -9.99651585E-09  -9.90674201E-10  -9.97760407E-10  -9.99122533E-10   1.79681194E-07   4.66537793E-09  -5.67754723E-08  -9.92914719E-09  -1.23226748E-14  -2.12186452E-10   1.50041383E-08   3.71490221E-09   1.80116245E-08  -6.56865836E-09   0.00000000E+00   1.06888662E-10
   2.46750000E+03   5.00000000E-01   5.00000000E-01  -9.99651200E-09  -9.90424268E-10  -9.97758760E-10  -9.99122533E-10   1.72550355E-07   4.61530618E-09  -5.70124428E-08  -9.93086116E-09  -1.39867812E-14  -1.91158994E-10   1.48880690E-08   3.86772904E-09   1.81056157E-08  -6.56878564E-09   0.00000000E+00   1.05446047E-10
   2.50250000E+03   5.00000000E-01   5.00000000E-01  -9.99650789E-09  -9.90169055E-10  -9.97757058E-10  -9.99122533E-10   1.65657934E-07   4.56863366E-09  -5.72620177E-08  -9.93253025E-09  -1.58678422E-14  -1.70133879E-10   1.47665104E-08   4.02400648E-09   1.82244821E-08  -6.56891254E-09   0.00000000E+00   1.03998482E-10
   2.53750000E+03   5.00000000E-01   5.00000000E-01  -9.99650352E-09  -9.89908468E-10  -9.97755302E-10  -9.99122533E-10   1.58997611E-07   4.52524372E-09  -5.75238843E-08  -9.93415155E-09  -1.79925552E-14  -1.49140125E-10   1.46395010E-08   4.18365620E-09   1.83687399E-08  -6.56903882E-09   0.00000000E+00   1.02546284E-10
   2.57250000E+03   5.00000000E-01   5.00000000E-01  -9.99649890E-09  -9.89642410E-10  -9.97753492E-10  -9.99122533E-10   1.52563208E-07   4.48503364E-09  -5.77977530E-08  -9.93572264E-09  -2.03905017E-14  -1.28207897E-10   1.45070795E-08   4.34658950E-09   1.85390157E-08  -6.56916426E-09   0.00000000E+00   1.01089687E-10
   2.60750000E+03   5.00000000E-01   5.00000000E-01  -9.99649403E-09  -9.89370781E-10  -9.97751629E-10  -9.99122533E-10   1.46348684E-07   4.44791524E-09  -5.80833607E-08  -9.93724148E-09  -2.30943597E-14  -1.07368522E-10   1.43692859E-08   4.51270789E-09   1.87360406E-08  -6.56928867E-09   0.00000000E+00   9.96288366E-11
   2.64250000E+03   5.00000000E-01   5.00000000E-01  -9.99648889E-09  -9.89093479E-10  -9.97749714E-10  -9.99122533E-10   1.40348121E-07   4.41381531E-09  -5.83804729E-08  -9.93870649E-09  -2.61401090E-14  -8.66544972E-11   1.42261618E-08   4.68190363E-09   1.89606422E-08  -6.56941183E-09   0.00000000E+00   9.81637811E-11
   2.67750000E+03   5.00000000E-01   5.00000000E-01  -9.99648349E-09  -9.88810400E-10  -9.97747749E-10  -9.99122533E-10   1.34555715E-07   4.38267569E-09  -5.86888837E-08  -9.94011646E-09  -2.95672197E-14  -6.60994979E-11   1.40777509E-08   4.85406026E-09   1.92137357E-08  -6.56953358E-09   0.00000000E+00   9.66944700E-11
   2.71250000E+03   5.00000000E-01   5.00000000E-01  -9.99647782E-09  -9.88521435E-10  -9.97745733E-10  -9.99122533E-10   1.28965765E-07   4.35445329E-09  -5.90084166E-08  -9.94147058E-09  -3.34188169E-14  -4.57383515E-11   1.39240998E-08   5.02905318E-09   1.94963113E-08  -6.56965374E-09   0.00000000E+00   9.52207539E-11
   2.74750000E+03   5.00000000E-01   5.00000000E-01  -9.99647133E-09  -9.88226473E-10  -9.97743669E-10  -9.99122533E-10   1.23572669E-07   4.32911988E-09  -5.93389224E-08  -9.94276840E-09  -3.77418077E-14  -2.56070332E-11   1.37652581E-08   5.20675009E-09   1.98094208E-08  -6.56977214E-09   0.00000000E+00   9.37423870E-11
   2.78250000E+03   5.00000000E-01   5.00000000E-01  -9.99646435E-09  -9.87925401E-10  -9.97741558E-10  -9.99122533E-10   1.18370908E-07   4.30666174E-09  -5.96802782E-08  -9.94400980E-09  -4.25869663E-14  -5.74263745E-12   1.36012796E-08   5.38701157E-09   2.01541624E-08  -6.56988864E-09   0.00000000E+00   9.22590318E-11
   2.81750000E+03   5.00000000E-01   5.00000000E-01  -9.99645688E-09  -9.87618100E-10  -9.97739401E-10  -9.99122533E-10   1.13355046E-07   4.28707998E-09  -6.00323798E-08  -9.94519494E-09  -4.80088872E-14   1.38046666E-11   1.34322268E-08   5.56969348E-09   2.05316586E-08  -6.57000310E-09   0.00000000E+00   9.07702654E-11
   2.85250000E+03   5.00000000E-01   5.00000000E-01  -9.99644886E-09  -9.87304451E-10  -9.97737198E-10  -9.99122533E-10   1.08519720E-07   4.27038894E-09  -6.03951442E-08  -9.94632430E-09  -5.40660528E-14   3.29891478E-11   1.32581658E-08   5.75464471E-09   2.09430399E-08  -6.57011541E-09   0.00000000E+00   8.92755886E-11
   2.88750000E+03   5.00000000E-01   5.00000000E-01  -9.99644025E-09  -9.86984328E-10  -9.97734951E-10  -9.99122533E-10   1.03859635E-07   4.25661532E-09  -6.07685057E-08  -9.94739859E-09  -6.08206572E-14   5.17743173E-11   1.30791656E-08   5.94170655E-09   2.13894234E-08  -6.57022544E-09   0.00000000E+00   8.77744356E-11
   2.92250000E+03   5.00000000E-01   5.00000000E-01  -9.99643100E-09  -9.86657603E-10  -9.97732661E-10  -9.99122533E-10   9.93695597E-08   4.24579828E-09  -6.11524075E-08  -9.94841873E-09  -6.83382364E-14   7.01204936E-11   1.28953038E-08   6.13071515E-09   2.18718842E-08  -6.57033309E-09   0.00000000E+00   8.62661857E-11
   2.95750000E+03   5.00000000E-01   5.00000000E-01  -9.99642106E-09  -9.86324144E-10  -9.97730329E-10  -9.99122533E-10   9.50443218E-08   4.23798850E-09  -6.15467967E-08  -9.94938587E-09  -7.66873321E-14   8.79874782E-11   1.27066667E-08   6.32150140E-09   2.23914274E-08  -6.57043829E-09   0.00000000E+00   8.47501773E-11
   2.99250000E+03   5.00000000E-01   5.00000000E-01  -9.99641038E-09  -9.85983815E-10  -9.97727955E-10  -9.99122533E-10   9.08788051E-08   4.23324737E-09  -6.19516177E-08  -9.95030132E-09  -8.59389222E-14   1.05334735E-10   1.25133509E-08   6.51389129E-09   2.29489576E-08  -6.57054095E-09   0.00000000E+00   8.32257220E-11
   3.02750000E+03   5.00000000E-01   5.00000000E-01  -9.99639889E-09  -9.85636476E-10  -9.97725540E-10  -9.99122533E-10   8.68679470E-08   4.23164609E-09  -6.23668055E-08  -9.95116654E-09  -9.61656870E-14   1.22121606E-10   1.23154645E-08   6.70770616E-09   2.35452464E-08  -6.57064101E-09   0.00000000E+00   8.16921215E-11
   3.06250000E+03   5.00000000E-01   5.00000000E-01  -9.99638655E-09  -9.85281983E-10  -9.97723085E-10  -9.99122533E-10   8.30067370E-08   4.23326464E-09  -6.27922783E-08  -9.95198311E-09  -1.07441088E-13   1.38307561E-10   1.21131290E-08   6.90276305E-09   2.41808975E-08  -6.57073842E-09   0.00000000E+00   8.01486845E-11
   3.09750000E+03   5.00000000E-01   5.00000000E-01  -9.99637328E-09  -9.84920189E-10  -9.97720589E-10  -9.99122533E-10   7.92902145E-08   4.23819072E-09  -6.32279302E-08  -9.95275270E-09  -1.19838238E-13   1.53852495E-10   1.19064805E-08   7.09887501E-09   2.48563108E-08  -6.57083311E-09   0.00000000E+00   7.85947456E-11
   3.13250000E+03   5.00000000E-01   5.00000000E-01  -9.99635903E-09  -9.84550942E-10  -9.97718052E-10  -9.99122533E-10   7.57134687E-08   4.24651857E-09  -6.36736227E-08  -9.95347709E-09  -1.33428566E-13   1.68717049E-10   1.16956721E-08   7.29585140E-09   2.55716456E-08  -6.57092507E-09   0.00000000E+00   7.70296844E-11
   3.16750000E+03   5.00000000E-01   5.00000000E-01  -9.99634372E-09  -9.84174088E-10  -9.97715475E-10  -9.99122533E-10   7.22716371E-08   4.25834764E-09  -6.41291777E-08  -9.95415808E-09  -1.48280265E-13   1.82862988E-10   1.14808749E-08   7.49349833E-09   2.63267828E-08  -6.57101426E-09   0.00000000E+00   7.54529459E-11