 TITLE = "Mineral Rate (mol/m^3/sec)" 
VARIABLES = "X"          "Y"              "Z"            "Forsterite"     "Enstatite(alph" "Anorthite"      "Tremolite"      "Pargasite"      "Anhydrite"      "Clinochlore"    "Albite(low)"    "Fayalite"       "Epidote"        "Kaolinite"      "Muscovite(orde" "Sudoite"        "Saponite(Mg)"   "Scolecite"      "FeS(am)"        "Quartz(alpha)"  "Montmorillonit"
 ZONE I=         100 , J=           1 , K=           1  F=POINT
   1.75000000E+01   5.00000000E-01   5.00000000E-01  -9.99924684E-09  -9.97589684E-10  -9.99950495E-10  -9.86613787E-08  -9.86598825E-08  -6.86633552E-06   1.80687327E-07  -7.09107127E-08  -9.99345564E-09  -1.25891970E-16  -9.65823290E-09   0.00000000E+00   0.00000000E+00   1.80600617E-07  -9.41374688E-09   0.00000000E+00   6.98148046E-08  -9.46453224E-09
   5.25000000E+01   5.00000000E-01   5.00000000E-01  -9.99924691E-09  -9.97533578E-10  -9.99950495E-10  -9.86601232E-08  -9.86598825E-08  -5.82968403E-06   1.49090773E-07  -2.16779756E-08  -9.99190906E-09   1.24615127E-16  -9.65240893E-09   0.00000000E+00   0.00000000E+00   2.12053032E-07  -9.41317908E-09   0.00000000E+00   9.47606142E-08  -7.52462495E-09
   8.75000000E+01   5.00000000E-01   5.00000000E-01  -9.99924689E-09  -9.97384064E-10  -9.99950495E-10  -9.86584338E-08  -9.86598825E-08  -4.73494918E-06   1.32365601E-07   2.74991227E-09  -9.98947221E-09   2.64621747E-17  -9.64903218E-09   0.00000000E+00   0.00000000E+00   2.31830636E-07  -9.41267027E-09   0.00000000E+00   1.03257920E-07  -6.14492617E-09
   1.22500000E+02   5.00000000E-01   5.00000000E-01  -9.99924685E-09  -9.97235725E-10  -9.99950494E-10  -9.86569761E-08  -9.86598825E-08  -3.66371809E-06   1.25547838E-07   1.21985536E-08  -9.98619224E-09   1.01707087E-17  -9.64703087E-09   0.00000000E+00   0.00000000E+00   2.40482198E-07  -9.41227614E-09   0.00000000E+00   1.05308923E-07  -5.39759940E-09
   1.57500000E+02   5.00000000E-01   5.00000000E-01  -9.99924680E-09  -9.97088884E-10  -9.99950494E-10  -9.86559079E-08  -9.86598825E-08  -2.67635063E-06   1.22910486E-07   1.55025839E-08  -9.98211950E-09   4.24961399E-18  -9.64551797E-09   0.00000000E+00   0.00000000E+00   2.44085414E-07  -9.41195690E-09   0.00000000E+00   1.04947649E-07  -4.95066133E-09
   1.92500000E+02   5.00000000E-01   5.00000000E-01  -9.99924674E-09  -9.96939845E-10  -9.99950494E-10  -9.86552062E-08  -9.86598825E-08  -1.80921027E-06   1.21929362E-07   1.63949338E-08  -9.97729226E-09   1.18319576E-18  -9.64416371E-09   0.00000000E+00   0.00000000E+00   2.45658388E-07  -9.41168711E-09   0.00000000E+00   1.03687267E-07  -4.63027741E-09
   2.27500000E+02   5.00000000E-01   5.00000000E-01  -9.99924667E-09  -9.96786652E-10  -9.99950493E-10  -9.86548081E-08  -9.86598825E-08  -1.07722646E-06   1.21608009E-07   1.63274044E-08  -9.97173931E-09  -7.69233566E-19  -9.64284117E-09   0.00000000E+00   0.00000000E+00   2.46428548E-07  -9.41145280E-09   0.00000000E+00   1.02094987E-07  -4.36204430E-09
   2.62500000E+02   5.00000000E-01   5.00000000E-01  -9.99924660E-09  -9.96628384E-10  -9.99950493E-10  -9.86546481E-08  -9.86598825E-08  -4.79312728E-07   1.21557332E-07   1.58624803E-08  -9.96548203E-09  -2.21007213E-18  -9.64149848E-09   0.00000000E+00   0.00000000E+00   2.46880049E-07  -9.41124583E-09   0.00000000E+00   1.00387411E-07  -4.11525573E-09
   2.97500000E+02   5.00000000E-01   5.00000000E-01  -9.99924651E-09  -9.96464573E-10  -9.99950492E-10  -9.86546668E-08  -9.86598825E-08  -4.29442022E-09   1.21623646E-07   1.52211307E-08  -9.95853652E-09  -3.39781536E-18  -9.64011342E-09   0.00000000E+00   0.00000000E+00   2.47205236E-07  -9.41106085E-09   0.00000000E+00   9.86493440E-08  -3.87729303E-09
   3.32500000E+02   5.00000000E-01   5.00000000E-01  -9.99924641E-09  -9.96294941E-10  -9.99950492E-10  -9.86548133E-08  -9.86598825E-08   3.62710724E-07   1.21745171E-07   1.44919036E-08  -9.95091559E-09  -4.45609771E-18  -9.63867608E-09   0.00000000E+00   0.00000000E+00   2.47481829E-07  -9.41089387E-09   0.00000000E+00   9.69149352E-08  -3.64300023E-09
   3.67500000E+02   5.00000000E-01   5.00000000E-01  -9.99924631E-09  -9.96119288E-10  -9.99950491E-10  -9.86550466E-08  -9.86598825E-08   6.39662937E-07   1.21896712E-07   1.37110131E-08  -9.94262966E-09  -5.45028911E-18  -9.63718196E-09   0.00000000E+00   0.00000000E+00   2.47741681E-07  -9.41074169E-09   0.00000000E+00   9.51982591E-08  -3.41036961E-09
   4.02500000E+02   5.00000000E-01   5.00000000E-01  -9.99924618E-09  -9.95937445E-10  -9.99950490E-10  -9.86553351E-08  -9.86598825E-08   8.45178959E-07   1.22067920E-07   1.28936616E-08  -9.93368664E-09  -6.42302211E-18  -9.63562912E-09   0.00000000E+00   0.00000000E+00   2.47997801E-07  -9.41060179E-09   0.00000000E+00   9.35051684E-08  -3.17876252E-09
   4.37500000E+02   5.00000000E-01   5.00000000E-01  -9.99924604E-09  -9.95749256E-10  -9.99950489E-10  -9.86556556E-08  -9.86598825E-08   9.94804250E-07   1.22254479E-07   1.20466900E-08  -9.92409216E-09  -7.39916572E-18  -9.63401691E-09   0.00000000E+00   0.00000000E+00   2.48255248E-07  -9.41047212E-09   0.00000000E+00   9.18380876E-08  -2.94813701E-09
   4.72500000E+02   5.00000000E-01   5.00000000E-01  -9.99924589E-09  -9.95554570E-10  -9.99950488E-10  -9.86559915E-08  -9.86598825E-08   1.10118490E-06   1.22454489E-07   1.11737164E-08  -9.91384958E-09  -8.39250447E-18  -9.63234531E-09   0.00000000E+00   0.00000000E+00   2.48515592E-07  -9.41035102E-09   0.00000000E+00   9.01979789E-08  -2.71870923E-09
   5.07500000E+02   5.00000000E-01   5.00000000E-01  -9.99924571E-09  -9.95353239E-10  -9.99950487E-10  -9.86563318E-08  -9.86598825E-08   1.17440936E-06   1.22666960E-07   1.02772685E-08  -9.90296005E-09  -9.41000166E-18  -9.63061469E-09   0.00000000E+00   0.00000000E+00   2.48778776E-07  -9.41023711E-09   0.00000000E+00   8.85851768E-08  -2.49079629E-09
   5.42500000E+02   5.00000000E-01   5.00000000E-01  -9.99924552E-09  -9.95145118E-10  -9.99950485E-10  -9.86566693E-08  -9.86598825E-08   1.22240469E-06   1.22891158E-07   9.35968082E-09  -9.89142259E-09  -1.04563469E-17  -9.62882560E-09   0.00000000E+00   0.00000000E+00   2.49043889E-07  -9.41012924E-09   0.00000000E+00   8.69997539E-08  -2.26473740E-09
   5.77500000E+02   5.00000000E-01   5.00000000E-01  -9.99924530E-09  -9.94930064E-10  -9.99950483E-10  -9.86569996E-08  -9.86598825E-08   1.25132485E-06   1.23126333E-07   8.42347091E-09  -9.87923423E-09  -1.15312559E-17  -9.62697865E-09   0.00000000E+00   0.00000000E+00   2.49309499E-07  -9.41002646E-09   0.00000000E+00   8.54416881E-08  -2.04084988E-09
   6.12500000E+02   5.00000000E-01   5.00000000E-01  -9.99924505E-09  -9.94707938E-10  -9.99950481E-10  -9.86573192E-08  -9.86598825E-08   1.26590105E-06   1.23371590E-07   7.47148945E-09  -9.86639025E-09  -1.26345867E-17  -9.62507437E-09   0.00000000E+00   0.00000000E+00   2.49573786E-07  -9.40992793E-09   0.00000000E+00   8.39109404E-08  -1.81940169E-09
   6.47500000E+02   5.00000000E-01   5.00000000E-01  -9.99924478E-09  -9.94478604E-10  -9.99950479E-10  -9.86576252E-08  -9.86598825E-08   1.26974207E-06   1.23625844E-07   6.50696623E-09  -9.85288453E-09  -1.37612233E-17  -9.62311318E-09   0.00000000E+00   0.00000000E+00   2.49834608E-07  -9.40983294E-09   0.00000000E+00   8.24074916E-08  -1.60059264E-09
   6.82500000E+02   5.00000000E-01   5.00000000E-01  -9.99924448E-09  -9.94241933E-10  -9.99950476E-10  -9.86579159E-08  -9.86598825E-08   1.26558335E-06   1.23887805E-07   5.53350546E-09  -9.83870991E-09  -1.49047707E-17  -9.62109523E-09   0.00000000E+00   0.00000000E+00   2.50089528E-07  -9.40974085E-09   0.00000000E+00   8.09313582E-08  -1.38454095E-09
   7.17500000E+02   5.00000000E-01   5.00000000E-01  -9.99924414E-09  -9.93997802E-10  -9.99950473E-10  -9.86581903E-08  -9.86598825E-08   1.25548847E-06   1.24155980E-07   4.55505360E-09  -9.82385871E-09  -1.60584079E-17  -9.61902035E-09   0.00000000E+00   0.00000000E+00   2.50335847E-07  -9.40965106E-09   0.00000000E+00   7.94825970E-08  -1.17127375E-09
   7.52500000E+02   5.00000000E-01   5.00000000E-01  -9.99924376E-09  -9.93746094E-10  -9.99950469E-10  -9.86584484E-08  -9.86598825E-08   1.24100903E-06   1.24428689E-07   3.57584971E-09  -9.80832324E-09  -1.72119740E-17  -9.61688796E-09   0.00000000E+00   0.00000000E+00   2.50570631E-07  -9.40956301E-09   0.00000000E+00   7.80613034E-08  -9.60721103E-10
   7.87500000E+02   5.00000000E-01   5.00000000E-01  -9.99924334E-09  -9.93486703E-10  -9.99950465E-10  -9.86586905E-08  -9.86598825E-08   1.22330968E-06   1.24704088E-07   2.60036310E-09  -9.79209640E-09  -1.83532478E-17  -9.61469701E-09   0.00000000E+00   0.00000000E+00   2.50790750E-07  -9.40947613E-09   0.00000000E+00   7.66676052E-08  -7.52713512E-10
   8.22500000E+02   5.00000000E-01   5.00000000E-01  -9.99924288E-09  -9.93219529E-10  -9.99950460E-10  -9.86589172E-08  -9.86598825E-08   1.20326441E-06   1.24980195E-07   1.63322076E-09  -9.77517224E-09  -1.94687999E-17  -9.61244590E-09   0.00000000E+00   0.00000000E+00   2.50992929E-07  -9.40938987E-09   0.00000000E+00   7.53016532E-08  -5.46983022E-10
   8.57500000E+02   5.00000000E-01   5.00000000E-01  -9.99924236E-09  -9.92944482E-10  -9.99950455E-10  -9.86591293E-08  -9.86598825E-08   1.18153012E-06   1.25254925E-07   6.79126878E-10  -9.75754658E-09  -2.05437089E-17  -9.61013246E-09   0.00000000E+00   0.00000000E+00   2.51173811E-07  -9.40930368E-09   0.00000000E+00   7.39636102E-08  -3.43167930E-10
   8.92500000E+02   5.00000000E-01   5.00000000E-01  -9.99924180E-09  -9.92661480E-10  -9.99950448E-10  -9.86593277E-08  -9.86598825E-08   1.15860204E-06   1.25526126E-07  -2.57216012E-10  -9.73921759E-09  -2.15615614E-17  -9.60775393E-09   0.00000000E+00   0.00000000E+00   2.51330035E-07  -9.40921696E-09   0.00000000E+00   7.26536373E-08  -1.40822065E-10
   9.27500000E+02   5.00000000E-01   5.00000000E-01  -9.99924117E-09  -9.92370451E-10  -9.99950441E-10  -9.86595132E-08  -9.86598825E-08   1.13485515E-06   1.25791602E-07  -1.17116940E-09  -9.72018629E-09  -2.25045936E-17  -9.60530700E-09   0.00000000E+00   0.00000000E+00   2.51458334E-07  -9.40912915E-09   0.00000000E+00   7.13718776E-08   6.05695514E-11
   9.62500000E+02   5.00000000E-01   5.00000000E-01  -9.99924048E-09  -9.92071329E-10  -9.99950432E-10  -9.86596866E-08  -9.86598825E-08   1.11057501E-06   1.26049207E-07  -2.05834422E-09  -9.70045710E-09  -2.33540474E-17  -9.60278775E-09   0.00000000E+00   0.00000000E+00   2.51555579E-07  -9.40903964E-09   0.00000000E+00   7.01184475E-08   2.61583322E-10
   9.97500000E+02   5.00000000E-01   5.00000000E-01  -9.99923971E-09  -9.91764053E-10  -9.99950423E-10  -9.86598487E-08  -9.86598825E-08   1.08598035E-06   1.26296854E-07  -2.91462728E-09  -9.68003822E-09  -2.40909513E-17  -9.60019180E-09   0.00000000E+00   0.00000000E+00   2.51618903E-07  -9.40894781E-09   0.00000000E+00   6.88934219E-08   4.62837699E-10
   1.03250000E+03   5.00000000E-01   5.00000000E-01  -9.99923887E-09  -9.91448568E-10  -9.99950412E-10  -9.86600001E-08  -9.86598825E-08   1.06123969E-06   1.26532559E-07  -3.73627194E-09  -9.65894193E-09  -2.46961915E-17  -9.59751433E-09   0.00000000E+00   0.00000000E+00   2.51645796E-07  -9.40885304E-09   0.00000000E+00   6.76968199E-08   6.64972552E-10
   1.06750000E+03   5.00000000E-01   5.00000000E-01  -9.99923795E-09  -9.91124820E-10  -9.99950399E-10  -9.86601417E-08  -9.86598825E-08   1.03648350E-06   1.26754488E-07  -4.51997689E-09  -9.63718481E-09  -2.51506546E-17  -9.59475023E-09   0.00000000E+00   0.00000000E+00   2.51634195E-07  -9.40875471E-09   0.00000000E+00   6.65285928E-08   8.68626468E-10
   1.10250000E+03   5.00000000E-01   5.00000000E-01  -9.99923693E-09  -9.90792755E-10  -9.99950384E-10  -9.86602738E-08  -9.86598825E-08   1.01181300E-06   1.26960993E-07  -5.26295433E-09  -9.61478775E-09  -2.54367900E-17  -9.59189424E-09   0.00000000E+00   0.00000000E+00   2.51582554E-07  -9.40865220E-09   0.00000000E+00   6.53886126E-08   1.07441397E-09
   1.13750000E+03   5.00000000E-01   5.00000000E-01  -9.99923582E-09  -9.90452316E-10  -9.99950368E-10  -9.86603971E-08  -9.86598825E-08   9.87306664E-07   1.27150649E-07  -5.96298463E-09  -9.59177599E-09  -2.55381843E-17  -9.58894109E-09   0.00000000E+00   0.00000000E+00   2.51489922E-07  -9.40854489E-09   0.00000000E+00   6.42766645E-08   1.28290276E-09
   1.17250000E+03   5.00000000E-01   5.00000000E-01  -9.99923460E-09  -9.90103437E-10  -9.99950348E-10  -9.86605120E-08  -9.86598825E-08   9.63025000E-07   1.27322284E-07  -6.61845541E-09  -9.56817884E-09  -2.54404846E-17  -9.58588569E-09   0.00000000E+00   0.00000000E+00   2.51355980E-07  -9.40843217E-09   0.00000000E+00   6.31924409E-08   1.49459180E-09
   1.20750000E+03   5.00000000E-01   5.00000000E-01  -9.99923327E-09  -9.89746046E-10  -9.99950326E-10  -9.86606188E-08  -9.86598825E-08   9.39014070E-07   1.27475001E-07  -7.22838315E-09  -9.54402944E-09  -2.51303324E-17  -9.58272330E-09   0.00000000E+00   0.00000000E+00   2.51181074E-07  -9.40831345E-09   0.00000000E+00   6.21355386E-08   1.70989124E-09
   1.24250000E+03   5.00000000E-01   5.00000000E-01  -9.99923182E-09  -9.89380057E-10  -9.99950301E-10  -9.86607180E-08  -9.86598825E-08   9.15308181E-07   1.27608196E-07  -7.79241644E-09  -9.51936435E-09  -2.45985620E-17  -9.57944974E-09   0.00000000E+00   0.00000000E+00   2.50966220E-07  -9.40818816E-09   0.00000000E+00   6.11054595E-08   1.92910481E-09
   1.27750000E+03   5.00000000E-01   5.00000000E-01  -9.99923023E-09  -9.89005371E-10  -9.99950272E-10  -9.86608098E-08  -9.86598825E-08   8.91931939E-07   1.27721561E-07  -8.31082037E-09  -9.49422299E-09  -2.38379257E-17  -9.57606153E-09   0.00000000E+00   0.00000000E+00   2.50713085E-07  -9.40805573E-09   0.00000000E+00   6.01016139E-08   2.15241572E-09
   1.31250000E+03   5.00000000E-01   5.00000000E-01  -9.99922850E-09  -9.88621870E-10  -9.99950239E-10  -9.86608945E-08  -9.86598825E-08   8.68901861E-07   1.27815087E-07  -8.78444265E-09  -9.46864712E-09  -2.28447997E-17  -9.57255609E-09   0.00000000E+00   0.00000000E+00   2.50423942E-07  -9.40791564E-09   0.00000000E+00   5.91233274E-08   2.37987636E-09
   1.34750000E+03   5.00000000E-01   5.00000000E-01  -9.99922662E-09  -9.88229419E-10  -9.99950201E-10  -9.86609720E-08  -9.86598825E-08   8.46227674E-07   1.27889053E-07  -9.21466303E-09  -9.44268017E-09  -2.16186157E-17  -9.56893188E-09   0.00000000E+00   0.00000000E+00   2.50101613E-07  -9.40776736E-09   0.00000000E+00   5.81698496E-08   2.61140238E-09
   1.38250000E+03   5.00000000E-01   5.00000000E-01  -9.99922457E-09  -9.87827864E-10  -9.99950157E-10  -9.86610427E-08  -9.86598825E-08   8.23913386E-07   1.27944006E-07  -9.60332784E-09  -9.41636660E-09  -2.01618605E-17  -9.56518848E-09   0.00000000E+00   0.00000000E+00   2.49749383E-07  -9.40761040E-09   0.00000000E+00   5.72403660E-08   2.84677149E-09
   1.41750000E+03   5.00000000E-01   5.00000000E-01  -9.99922234E-09  -9.87417031E-10  -9.99950107E-10  -9.86611066E-08  -9.86598825E-08   8.01958180E-07   1.27980740E-07  -9.95267265E-09  -9.38975118E-09  -1.84807869E-17  -9.56132677E-09   0.00000000E+00   0.00000000E+00   2.49370910E-07  -9.40744426E-09   0.00000000E+00   5.63340104E-08   3.08562666E-09
   1.45250000E+03   5.00000000E-01   5.00000000E-01  -9.99921991E-09  -9.86996724E-10  -9.99950050E-10  -9.86611637E-08  -9.86598825E-08   7.80357193E-07   1.28000260E-07  -1.02652365E-08  -9.36287834E-09  -1.65856268E-17  -9.55734887E-09   0.00000000E+00   0.00000000E+00   2.48970117E-07  -9.40726846E-09   0.00000000E+00   5.54498797E-08   3.32748385E-09
   1.48750000E+03   5.00000000E-01   5.00000000E-01  -9.99921729E-09  -9.86566731E-10  -9.99949984E-10  -9.86612141E-08  -9.86598825E-08   7.59102196E-07   1.28003748E-07  -1.05437715E-08  -9.33579142E-09  -1.44883884E-17  -9.55325825E-09   0.00000000E+00   0.00000000E+00   2.48551090E-07  -9.40708250E-09   0.00000000E+00   5.45870478E-08   3.57174349E-09
   1.52250000E+03   5.00000000E-01   5.00000000E-01  -9.99921443E-09  -9.86126819E-10  -9.99949909E-10  -9.86612578E-08  -9.86598825E-08   7.38182203E-07   1.27992523E-07  -1.07911506E-08  -9.30853203E-09  -1.22054854E-17  -9.54905965E-09   0.00000000E+00   0.00000000E+00   2.48117967E-07  -9.40688588E-09   0.00000000E+00   5.37445803E-08   3.81770528E-09
   1.55750000E+03   5.00000000E-01   5.00000000E-01  -9.99921134E-09  -9.85676741E-10  -9.99949823E-10  -9.86612951E-08  -9.86598825E-08   7.17584030E-07   1.27967997E-07  -1.10102796E-08  -9.28113932E-09  -9.75645763E-18  -9.54475907E-09   0.00000000E+00   0.00000000E+00   2.47674849E-07  -9.40667808E-09   0.00000000E+00   5.29215475E-08   4.06458534E-09
   1.59250000E+03   5.00000000E-01   5.00000000E-01  -9.99920799E-09  -9.85216235E-10  -9.99949724E-10  -9.86613257E-08  -9.86598825E-08   6.97292813E-07   1.27931632E-07  -1.12040126E-08  -9.25364927E-09  -7.16304801E-18  -9.54036366E-09   0.00000000E+00   0.00000000E+00   2.47225702E-07  -9.40645854E-09   0.00000000E+00   5.21170369E-08   4.31153510E-09
   1.62750000E+03   5.00000000E-01   5.00000000E-01  -9.99920436E-09  -9.84745025E-10  -9.99949610E-10  -9.86613495E-08  -9.86598825E-08   6.77292490E-07   1.27884904E-07  -1.13750784E-08  -9.22609392E-09  -4.45069416E-18  -9.53588164E-09   0.00000000E+00   0.00000000E+00   2.46774292E-07  -9.40622665E-09   0.00000000E+00   5.13301636E-08   4.55766062E-09
   1.66250000E+03   5.00000000E-01   5.00000000E-01  -9.99920044E-09  -9.84262825E-10  -9.99949480E-10  -9.86613663E-08  -9.86598825E-08   6.57566272E-07   1.27829258E-07  -1.15260156E-08  -9.19850061E-09  -1.64611276E-18  -9.53132217E-09   0.00000000E+00   0.00000000E+00   2.46324123E-07  -9.40598177E-09   0.00000000E+00   5.05600785E-08   4.80204179E-09
   1.69750000E+03   5.00000000E-01   5.00000000E-01  -9.99919619E-09  -9.83769341E-10  -9.99949331E-10  -9.86613761E-08  -9.86598825E-08   6.38097089E-07   1.27766077E-07  -1.16591197E-08  -9.17089109E-09   1.21978871E-18  -9.52669523E-09   0.00000000E+00   0.00000000E+00   2.45878395E-07  -9.40572316E-09   0.00000000E+00   4.98059757E-08   5.04375056E-09
   1.73250000E+03   5.00000000E-01   5.00000000E-01  -9.99919159E-09  -9.83264270E-10  -9.99949161E-10  -9.86613787E-08  -9.86598825E-08   6.18868033E-07   1.27696652E-07  -1.17764032E-08  -9.14328056E-09   4.11645829E-18  -9.52201148E-09   0.00000000E+00   0.00000000E+00   2.45439982E-07  -9.40545003E-09   0.00000000E+00   4.90670961E-08   5.28186742E-09
   1.76750000E+03   5.00000000E-01   5.00000000E-01  -9.99918663E-09  -9.82747306E-10  -9.99948966E-10  -9.86613741E-08  -9.86598825E-08   5.99862787E-07   1.27622155E-07  -1.18795659E-08  -9.11567672E-09   7.00914882E-18  -9.51728217E-09   0.00000000E+00   0.00000000E+00   2.45011420E-07  -9.40516147E-09   0.00000000E+00   4.83427308E-08   5.51549588E-09
   1.80250000E+03   5.00000000E-01   5.00000000E-01  -9.99918127E-09  -9.82218136E-10  -9.99948742E-10  -9.86613616E-08  -9.86598825E-08   5.81066048E-07   1.27543625E-07  -1.19699771E-08  -9.08807852E-09   9.86432269E-18  -9.51251896E-09   0.00000000E+00   0.00000000E+00   2.44594906E-07  -9.40485650E-09   0.00000000E+00   4.76322216E-08   5.74377442E-09
   1.83750000E+03   5.00000000E-01   5.00000000E-01  -9.99917549E-09  -9.81676443E-10  -9.99948486E-10  -9.86613410E-08  -9.86598825E-08   5.62463945E-07   1.27461947E-07  -1.20486679E-08  -9.06047498E-09   1.26473054E-17  -9.50773391E-09   0.00000000E+00   0.00000000E+00   2.44192316E-07  -9.40453399E-09   0.00000000E+00   4.69349603E-08   5.96588582E-09
   1.87250000E+03   5.00000000E-01   5.00000000E-01  -9.99916925E-09  -9.81121910E-10  -9.99948192E-10  -9.86613118E-08  -9.86598825E-08   5.44044442E-07   1.27377845E-07  -1.21163307E-08  -9.03284378E-09   1.53228541E-17  -9.50293929E-09   0.00000000E+00   0.00000000E+00   2.43805224E-07  -9.40419272E-09   0.00000000E+00   4.62503872E-08   6.18106376E-09
   1.90750000E+03   5.00000000E-01   5.00000000E-01  -9.99916253E-09  -9.80554212E-10  -9.99947856E-10  -9.86612736E-08  -9.86598825E-08   5.25797725E-07   1.27291882E-07  -1.21733259E-08  -9.00514972E-09   1.78568627E-17  -9.49814762E-09   0.00000000E+00   0.00000000E+00   2.43434931E-07  -9.40383132E-09   0.00000000E+00   4.55779877E-08   6.38859711E-09
   1.94250000E+03   5.00000000E-01   5.00000000E-01  -9.99915529E-09  -9.79973025E-10  -9.99947470E-10  -9.86612255E-08  -9.86598825E-08   5.07716563E-07   1.27204450E-07  -1.22196930E-08  -8.97734301E-09   2.02172146E-17  -9.49337155E-09   0.00000000E+00   0.00000000E+00   2.43082495E-07  -9.40344827E-09   0.00000000E+00   4.49172889E-08   6.58783169E-09
   1.97750000E+03   5.00000000E-01   5.00000000E-01  -9.99914751E-09  -9.79378017E-10  -9.99947027E-10  -9.86611666E-08  -9.86598825E-08   4.89796640E-07   1.27115779E-07  -1.22551645E-08  -8.94935740E-09   2.23739960E-17  -9.48862386E-09   0.00000000E+00   0.00000000E+00   2.42748770E-07  -9.40304190E-09   0.00000000E+00   4.42678554E-08   6.77816996E-09
   2.01250000E+03   5.00000000E-01   5.00000000E-01  -9.99913914E-09  -9.78768855E-10  -9.99946520E-10  -9.86610961E-08  -9.86598825E-08   4.72036828E-07   1.27025934E-07  -1.22791820E-08  -8.92110802E-09   2.42996379E-17  -9.48391744E-09   0.00000000E+00   0.00000000E+00   2.42434436E-07  -9.40261035E-09   0.00000000E+00   4.36292849E-08   6.95906894E-09
   2.04750000E+03   5.00000000E-01   5.00000000E-01  -9.99913015E-09  -9.78145196E-10  -9.99945938E-10  -9.86610127E-08  -9.86598825E-08   4.54439416E-07   1.26934826E-07  -1.22909111E-08  -8.89248901E-09   2.59710475E-17  -9.47926532E-09   0.00000000E+00   0.00000000E+00   2.42140033E-07  -9.40215158E-09   0.00000000E+00   4.30012031E-08   7.13003663E-09
   2.08250000E+03   5.00000000E-01   5.00000000E-01  -9.99912051E-09  -9.77506694E-10  -9.99945270E-10  -9.86609147E-08  -9.86598825E-08   4.37010253E-07   1.26842214E-07  -1.22892560E-08  -8.86337072E-09   2.73701062E-17  -9.47468070E-09   0.00000000E+00   0.00000000E+00   2.41866001E-07  -9.40166337E-09   0.00000000E+00   4.23832594E-08   7.29062715E-09
   2.11750000E+03   5.00000000E-01   5.00000000E-01  -9.99911019E-09  -9.76852992E-10  -9.99944502E-10  -9.86608004E-08  -9.86598825E-08   4.19758807E-07   1.26747709E-07  -1.22728714E-08  -8.83359650E-09   2.84822477E-17  -9.47017696E-09   0.00000000E+00   0.00000000E+00   2.41612705E-07  -9.40114323E-09   0.00000000E+00   4.17751223E-08   7.44043493E-09
   2.15250000E+03   5.00000000E-01   5.00000000E-01  -9.99909915E-09  -9.76183723E-10  -9.99943621E-10  -9.86606675E-08  -9.86598825E-08   4.02698128E-07   1.26650785E-07  -1.22401707E-08  -8.80297890E-09   2.92992297E-17  -9.46576777E-09   0.00000000E+00   0.00000000E+00   2.41380466E-07  -9.40058846E-09   0.00000000E+00   4.11764746E-08   7.57908805E-09
   2.18750000E+03   5.00000000E-01   5.00000000E-01  -9.99908735E-09  -9.75498508E-10  -9.99942607E-10  -9.86605133E-08  -9.86598825E-08   3.85844691E-07   1.26550774E-07  -1.21893305E-08  -8.77129512E-09   2.98177838E-17  -9.46146710E-09   0.00000000E+00   0.00000000E+00   2.41169590E-07  -9.39999606E-09   0.00000000E+00   4.05870095E-08   7.70624120E-09
   2.22250000E+03   5.00000000E-01   5.00000000E-01  -9.99907476E-09  -9.74796952E-10  -9.99941441E-10  -9.86603347E-08  -9.86598825E-08   3.69218137E-07   1.26446875E-07  -1.21182893E-08  -8.73828143E-09   3.00411784E-17  -9.45728938E-09   0.00000000E+00   0.00000000E+00   2.40980395E-07  -9.39936275E-09   0.00000000E+00   4.00064261E-08   7.82156800E-09
   2.25750000E+03   5.00000000E-01   5.00000000E-01  -9.99906135E-09  -9.74078645E-10  -9.99940099E-10  -9.86601278E-08  -9.86598825E-08   3.52840888E-07   1.26338146E-07  -1.20247411E-08  -8.70362640E-09   2.99767322E-17  -9.45324955E-09   0.00000000E+00   0.00000000E+00   2.40813232E-07  -9.39868486E-09   0.00000000E+00   3.94344257E-08   7.92475314E-09
   2.29250000E+03   5.00000000E-01   5.00000000E-01  -9.99904707E-09  -9.73343155E-10  -9.99938552E-10  -9.86598879E-08  -9.86598825E-08   3.36737657E-07   1.26223507E-07  -1.19061213E-08  -8.66696232E-09   2.96380165E-17  -9.44936319E-09   0.00000000E+00   0.00000000E+00   2.40668509E-07  -9.39795834E-09   0.00000000E+00   3.88707081E-08   8.01548415E-09
   2.32750000E+03   5.00000000E-01   5.00000000E-01  -9.99903188E-09  -9.72590028E-10  -9.99936770E-10  -9.86596095E-08  -9.86598825E-08   3.20934862E-07   1.26101729E-07  -1.17595850E-08  -8.62785446E-09   2.90432567E-17  -9.44564666E-09   0.00000000E+00   0.00000000E+00   2.40546718E-07  -9.39717869E-09   0.00000000E+00   3.83149676E-08   8.09344286E-09
   2.36250000E+03   5.00000000E-01   5.00000000E-01  -9.99901572E-09  -9.71818781E-10  -9.99934714E-10  -9.86592859E-08  -9.86598825E-08   3.05459964E-07   1.25971420E-07  -1.15819759E-08  -8.58578741E-09   2.82135915E-17  -9.44211724E-09   0.00000000E+00   0.00000000E+00   2.40448450E-07  -9.39634084E-09   0.00000000E+00   3.77668893E-08   8.15829663E-09
   2.39750000E+03   5.00000000E-01   5.00000000E-01  -9.99899855E-09  -9.71028901E-10  -9.99932340E-10  -9.86589091E-08  -9.86598825E-08   2.90340756E-07   1.25831012E-07  -1.13697842E-08  -8.54014744E-09   2.71744582E-17  -9.43879330E-09   0.00000000E+00   0.00000000E+00   2.40374425E-07  -9.39543909E-09   0.00000000E+00   3.72261457E-08   8.20968904E-09
   2.43250000E+03   5.00000000E-01   5.00000000E-01  -9.99898027E-09  -9.70219837E-10  -9.99929595E-10  -9.86584691E-08  -9.86598825E-08   2.75604629E-07   1.25678734E-07  -1.11190908E-08  -8.49019956E-09   2.59532484E-17  -9.43569448E-09   0.00000000E+00   0.00000000E+00   2.40325513E-07  -9.39446698E-09   0.00000000E+00   3.66923923E-08   8.24723010E-09
   2.46750000E+03   5.00000000E-01   5.00000000E-01  -9.99896081E-09  -9.69390995E-10  -9.99926419E-10  -9.86579541E-08  -9.86598825E-08   2.61277851E-07   1.25512580E-07  -1.08254953E-08  -8.43505746E-09   2.45789522E-17  -9.43284194E-09   0.00000000E+00   0.00000000E+00   2.40302764E-07  -9.39341711E-09   0.00000000E+00   3.61652638E-08   8.27048577E-09
   2.50250000E+03   5.00000000E-01   5.00000000E-01  -9.99894004E-09  -9.68541731E-10  -9.99922739E-10  -9.86573490E-08  -9.86598825E-08   2.47384890E-07   1.25330272E-07  -1.04840229E-08  -8.37364367E-09   2.30818031E-17  -9.43025857E-09   0.00000000E+00   0.00000000E+00   2.40307435E-07  -9.39228097E-09   0.00000000E+00   3.56443688E-08   8.27896639E-09
   2.53750000E+03   5.00000000E-01   5.00000000E-01  -9.99891784E-09  -9.67671340E-10  -9.99918468E-10  -9.86566351E-08  -9.86598825E-08   2.33947818E-07   1.25129197E-07  -1.00890051E-08  -8.30463600E-09   2.14911466E-17  -9.42796929E-09   0.00000000E+00   0.00000000E+00   2.40341024E-07  -9.39104866E-09   0.00000000E+00   3.51292847E-08   8.27211394E-09
   2.57250000E+03   5.00000000E-01   5.00000000E-01  -9.99889405E-09  -9.66779050E-10  -9.99913504E-10  -9.86557885E-08  -9.86598825E-08   2.20985797E-07   1.24906343E-07  -9.63392571E-09  -8.22639493E-09   1.98365413E-17  -9.42600142E-09   0.00000000E+00   0.00000000E+00   2.40405312E-07  -9.38970859E-09   0.00000000E+00   3.46195512E-08   8.24928763E-09
   2.60750000E+03   5.00000000E-01   5.00000000E-01  -9.99886849E-09  -9.65864005E-10  -9.99907722E-10  -9.86547780E-08  -9.86598825E-08   2.08514699E-07   1.24658199E-07  -9.11122094E-09  -8.13686371E-09   1.81453430E-17  -9.42438502E-09   0.00000000E+00   0.00000000E+00   2.40502402E-07  -9.38824698E-09   0.00000000E+00   3.41146626E-08   8.20974744E-09
   2.64250000E+03   5.00000000E-01   5.00000000E-01  -9.99884095E-09  -9.64925250E-10  -9.99900972E-10  -9.86535625E-08  -9.86598825E-08   1.96546842E-07   1.24380638E-07  -8.51201775E-09  -8.03342878E-09   1.64439484E-17  -9.42315339E-09   0.00000000E+00   0.00000000E+00   2.40634773E-07  -9.38664736E-09   0.00000000E+00   3.36140587E-08   8.15263499E-09
   2.67750000E+03   5.00000000E-01   5.00000000E-01  -9.99881122E-09  -9.63961713E-10  -9.99893072E-10  -9.86520867E-08  -9.86598825E-08   1.85090856E-07   1.24068746E-07  -7.82578738E-09  -7.91272177E-09   1.47561252E-17  -9.42234360E-09   0.00000000E+00   0.00000000E+00   2.40805333E-07  -9.38488972E-09   0.00000000E+00   3.31171125E-08   8.07695117E-09
   2.71250000E+03   5.00000000E-01   5.00000000E-01  -9.99877904E-09  -9.62972180E-10  -9.99883795E-10  -9.86502756E-08  -9.86598825E-08   1.74151674E-07   1.23716605E-07  -7.03987992E-09  -7.77033318E-09   1.31032252E-17  -9.42199719E-09   0.00000000E+00   0.00000000E+00   2.41017476E-07  -9.38294950E-09   0.00000000E+00   3.26231161E-08   7.98152974E-09
   2.74750000E+03   5.00000000E-01   5.00000000E-01  -9.99874416E-09  -9.61955267E-10  -9.99872860E-10  -9.86480256E-08  -9.86598825E-08   1.63730639E-07   1.23316991E-07  -6.13888916E-09  -7.60039022E-09   1.15042198E-17  -9.42216087E-09   0.00000000E+00   0.00000000E+00   2.41275139E-07  -9.38079614E-09   0.00000000E+00   3.21312615E-08   7.86500625E-09
   2.78250000E+03   5.00000000E-01   5.00000000E-01  -9.99870623E-09  -9.60909382E-10  -9.99859912E-10  -9.86451906E-08  -9.86598825E-08   1.53825705E-07   1.22860954E-07  -5.10376932E-09  -7.39491991E-09   9.97587790E-18  -9.42288750E-09   0.00000000E+00   0.00000000E+00   2.41582839E-07  -9.37839092E-09   0.00000000E+00   3.16406161E-08   7.72578170E-09
   2.81750000E+03   5.00000000E-01   5.00000000E-01  -9.99866497E-09  -9.59832688E-10  -9.99844495E-10  -9.86415604E-08  -9.86598825E-08   1.44431716E-07   1.22337226E-07  -3.91058134E-09  -7.14286385E-09   8.53162874E-18  -9.42423717E-09   0.00000000E+00   0.00000000E+00   2.41945659E-07  -9.37568405E-09   0.00000000E+00   3.11500901E-08   7.56198076E-09
   2.85250000E+03   5.00000000E-01   5.00000000E-01  -9.99861999E-09  -9.58723046E-10  -9.99826018E-10  -9.86368245E-08  -9.86598825E-08   1.35540751E-07   1.21731367E-07  -2.52867004E-09  -6.82851028E-09   7.18401338E-18  -9.42627835E-09   0.00000000E+00   0.00000000E+00   2.42369118E-07  -9.37261019E-09   0.00000000E+00   3.06583933E-08   7.37140636E-09