 TITLE = "Mineral Rate (mol/m^3/sec)" 
VARIABLES = "X"          "Y"              "Z"            "Forsterite"     "Fayalite"       "Brucite"        "Lizardite"      "Chrysotile"     "Hematite"       "Magnetite(am)"  "Saponite(Ca)"   "Saponite(K)"    "Saponite(Mg)"   "Saponite(Na)"   "Beidellite(Ca)" "Beidellite(K)"  "Beidellite(Mg)" "Beidellite(Na)" "Enstatite(alph" "Ferrosilite(al" "Anorthite"      "Albite(low)"    "Clinochlore"    "Sudoite"        "Montmor(MgCa)"  "Montmor(MgK)"   "Montmor(MgMg)"  "Montmor(MgNa)"  "Kaolinite"      "Tremolite"      "Pargasite"      "Anhydrite"      "Epidote"        "Scolecite"      "Pyrite"         "FeS(am)"        "Quartz(alpha)"  "Titanite"       "Rutile"         "Barite"         "Fluorite"       "Spessartine(al" "Andradite"      "Celestite"      "Zincite"        "Chalcocyanite"  "Chalcocite(alp"
 ZONE I=         200 , J=           1 , K=           1  F=POINT
   8.75000000E+00   5.00000000E-01   5.00000000E-01  -1.31047559E-07  -4.78675354E-08  -1.23002063E-15  -1.05321044E-15  -9.78867957E-16   1.42394350E-08  -6.96653995E-17   1.16441391E-17   2.19301226E-14   8.18538124E-17   2.86527927E-08  -3.65202258E-17  -3.81064042E-18  -3.73704857E-17  -3.70629211E-17  -2.00009932E-10  -1.71164685E-10  -1.15766970E-07  -2.88155592E-08   2.26703620E-07   0.00000000E+00  -8.06638406E-18  -8.28390561E-19  -8.24924919E-18  -8.17729145E-18  -3.42554389E-11  -4.51020158E-08  -4.61913465E-08   0.00000000E+00  -2.84787926E-08  -1.93714453E-16  -6.93848050E-16  -6.82033954E-16   9.84852491E-18  -2.83395095E-14   1.74082918E-14   1.46687435E-10  -2.32516217E-14  -3.42299578E-09  -3.85412485E-14  -3.89292587E-15  -5.65541618E-10  -3.90435165E-15   1.82919863E-13
   2.62500000E+01   5.00000000E-01   5.00000000E-01  -1.31047566E-07  -4.78551700E-08  -1.23003028E-15  -9.84727933E-16  -9.30166654E-16   1.42394349E-08  -6.96719827E-17   4.02743452E-18   2.12446217E-14   4.27397260E-17   4.14528181E-08  -3.65190922E-17  -3.80904772E-18  -3.73651787E-17  -3.70491921E-17  -2.00203403E-10  -1.69322308E-10  -1.15766970E-07  -2.26907324E-08   2.21495672E-07   0.00000000E+00  -8.04642541E-18  -7.80546727E-19  -8.16275214E-18  -7.83516067E-18  -3.42471466E-11  -4.51236061E-08  -4.61913465E-08   0.00000000E+00  -2.84787926E-08  -1.93712918E-16  -6.93848050E-16  -6.82033954E-16   1.54271238E-17  -3.06754351E-14   1.94681213E-14   5.41684937E-11  -2.35868990E-14  -3.42299578E-09  -3.85412513E-14  -3.89417619E-15  -5.65570589E-10  -3.90435165E-15   1.72280603E-15
   4.37500000E+01   5.00000000E-01   5.00000000E-01  -1.31047567E-07  -4.78275541E-08  -1.23003207E-15  -9.28581874E-16  -8.89483173E-16   1.42394349E-08  -6.96763005E-17   3.71407296E-18   2.43557410E-14   4.29556699E-17   4.23855320E-08  -3.65103168E-17  -3.79732430E-18  -3.73241520E-17  -3.69458730E-17  -2.00230555E-10  -1.66876564E-10  -1.15766970E-07  -9.32904446E-09   2.14660897E-07   0.00000000E+00  -7.95140666E-18  -5.65556956E-19  -7.75131217E-18  -6.25737658E-18  -3.42139204E-11  -4.51383898E-08  -4.61913465E-08   0.00000000E+00  -2.84787925E-08  -1.93707533E-16  -6.93848050E-16  -6.82033954E-16   2.01470888E-17  -3.10721022E-14   2.14185245E-14   1.80446414E-11  -2.38939068E-14  -3.42299578E-09  -3.85412516E-14  -3.89531120E-15  -5.65570211E-10  -3.90435165E-15   1.72280603E-15
   6.12500000E+01   5.00000000E-01   5.00000000E-01  -1.31047567E-07  -4.77900209E-08  -1.23003265E-15  -8.98737053E-16  -8.67617122E-16   1.42394349E-08  -6.96800357E-17   4.09034038E-18   2.76062883E-14   4.71450196E-17   5.27266408E-08  -3.64869060E-17  -3.76781883E-18  -3.72148610E-17  -3.66789856E-17  -2.00230430E-10  -1.64276000E-10  -1.15766970E-07   7.81972600E-09   2.04380171E-07   0.00000000E+00  -7.75621678E-18  -1.52371180E-19  -6.90677179E-18  -3.13075565E-18  -3.41568363E-11  -4.51505831E-08  -4.61913465E-08   0.00000000E+00  -2.84787925E-08  -1.93698620E-16  -6.93848050E-16  -6.82033954E-16   2.35914396E-17  -3.11654549E-14   2.32442411E-14   2.82250825E-12  -2.41753783E-14  -3.42299578E-09  -3.85412517E-14  -3.89633198E-15  -5.65562748E-10  -3.90435165E-15   1.72280603E-15
   7.87500000E+01   5.00000000E-01   5.00000000E-01  -1.31047567E-07  -4.77473464E-08  -1.23003291E-15  -8.83742912E-16  -8.56636247E-16   1.42394348E-08  -6.96838253E-17   4.23136116E-18   3.01596301E-14   5.00556038E-17   6.59336712E-08  -3.64458524E-17  -3.71920594E-18  -3.70234816E-17  -3.62267101E-17  -2.00227177E-10  -1.61842222E-10  -1.15766970E-07   2.52087822E-08   1.93506406E-07   0.00000000E+00  -7.47761065E-18   3.95571138E-19  -5.70204203E-18   1.16181800E-18  -3.40806412E-11  -4.51662667E-08  -4.61913465E-08   0.00000000E+00  -2.84787925E-08  -1.93687161E-16  -6.93848050E-16  -6.82033954E-16   2.57769398E-17  -3.12331443E-14   2.49358398E-14  -4.06596640E-12  -2.44337761E-14  -3.42299578E-09  -3.85412518E-14  -3.89724423E-15  -5.65553148E-10  -3.90435165E-15   1.72280603E-15
   9.62500000E+01   5.00000000E-01   5.00000000E-01  -1.31047567E-07  -4.76992113E-08  -1.23003299E-15  -8.75855009E-16  -8.50925317E-16   1.42394348E-08  -6.96878503E-17   4.18967619E-18   3.18893641E-14   5.19127290E-17   7.74101076E-08  -3.63913531E-17  -3.65901013E-18  -3.67698050E-17  -3.56486926E-17  -2.00222400E-10  -1.59573555E-10  -1.15766970E-07   3.98160508E-08   1.84309075E-07   0.00000000E+00  -7.16765681E-18   9.54441816E-19  -4.36245562E-18   5.72656000E-18  -3.39963182E-11  -4.51863269E-08  -4.61913465E-08   0.00000000E+00  -2.84787924E-08  -1.93674955E-16  -6.93848050E-16  -6.82033954E-16   2.69759743E-17  -3.12934838E-14   2.64856186E-14  -7.44890158E-12  -2.46712971E-14  -3.42299578E-09  -3.85412518E-14  -3.89805455E-15  -5.65541864E-10  -3.90435165E-15   1.72280603E-15
   1.13750000E+02   5.00000000E-01   5.00000000E-01  -1.31047567E-07  -4.76436088E-08  -1.23003295E-15  -8.71355298E-16  -8.47742651E-16   1.42394348E-08  -6.96921517E-17   4.11731907E-18   3.27913511E-14   5.35611919E-17   8.55646113E-08  -3.63331139E-17  -3.59984136E-18  -3.64991795E-17  -3.50582942E-17  -2.00215057E-10  -1.57382558E-10  -1.15766970E-07   5.02031138E-08   1.77769972E-07   0.00000000E+00  -6.88178487E-18   1.41510857E-18  -3.12766496E-18   9.70162538E-18  -3.39178003E-11  -4.52094554E-08  -4.61913465E-08   0.00000000E+00  -2.84787924E-08  -1.93663879E-16  -6.93848050E-16  -6.82033954E-16   2.75139725E-17  -3.13364117E-14   2.78870828E-14  -9.29006365E-12  -2.48898899E-14  -3.42299578E-09  -3.85412519E-14  -3.89876926E-15  -5.65528865E-10  -3.90435165E-15   1.72280603E-15
   1.31250000E+02   5.00000000E-01   5.00000000E-01  -1.31047567E-07  -4.75790845E-08  -1.23003283E-15  -8.68600817E-16  -8.45867368E-16   1.42394348E-08  -6.96967455E-17   4.08642894E-18   3.29014309E-14   5.54145075E-17   9.06393045E-08  -3.62791070E-17  -3.55042384E-18  -3.62487212E-17  -3.45403591E-17  -2.00204909E-10  -1.55210202E-10  -1.15766970E-07   5.66073254E-08   1.73730477E-07   0.00000000E+00  -6.64724258E-18   1.73877658E-18  -2.11541700E-18   1.27209654E-17  -3.38532354E-11  -4.52340117E-08  -4.61913465E-08   0.00000000E+00  -2.84787923E-08  -1.93654832E-16  -6.93848050E-16  -6.82033954E-16   2.76556780E-17  -3.13611262E-14   2.91351036E-14  -1.04255313E-11  -2.50912840E-14  -3.42299578E-09  -3.85412519E-14  -3.89939411E-15  -5.65514357E-10  -3.90435165E-15   1.72280603E-15
   1.48750000E+02   5.00000000E-01   5.00000000E-01  -1.31047567E-07  -4.75048299E-08  -1.23003267E-15  -8.66869608E-16  -8.44761911E-16   1.42394347E-08  -6.97016482E-17   4.11950752E-18   3.23383086E-14   5.76189773E-17   9.34466582E-08  -3.62327000E-17  -3.51326927E-18  -3.60340191E-17  -3.41248301E-17  -2.00192154E-10  -1.53027125E-10  -1.15766970E-07   6.00028607E-08   1.71569447E-07   0.00000000E+00  -6.46530623E-18   1.93926245E-18  -1.33116633E-18   1.48285024E-17  -3.38042019E-11  -4.52587382E-08  -4.61913465E-08   0.00000000E+00  -2.84787923E-08  -1.93647836E-16  -6.93848050E-16  -6.82033954E-16   2.75805528E-17  -3.13714570E-14   3.02260080E-14  -1.12256149E-11  -2.52770192E-14  -3.42299578E-09  -3.85412519E-14  -3.89993435E-15  -5.65498633E-10  -3.90435165E-15   1.72280603E-15
   1.66250000E+02   5.00000000E-01   5.00000000E-01  -1.31047567E-07  -4.74204317E-08  -1.23003246E-15  -8.65821522E-16  -8.44173583E-16   1.42394347E-08  -6.97068770E-17   4.21859010E-18   3.12617128E-14   6.02073054E-17   9.47752903E-08  -3.61939269E-17  -3.48709812E-18  -3.58551308E-17  -3.38054684E-17  -2.00177092E-10  -1.50820986E-10  -1.15766970E-07   6.13890256E-08   1.70657105E-07   0.00000000E+00  -6.32557850E-18   2.04843980E-18  -7.29889416E-19   1.62311876E-17  -3.37687173E-11  -4.52828125E-08  -4.61913465E-08   0.00000000E+00  -2.84787922E-08  -1.93642520E-16  -6.93848050E-16  -6.82033954E-16   2.73976045E-17  -3.13719638E-14   3.11575736E-14  -1.18602230E-11  -2.54484694E-14  -3.42299578E-09  -3.85412519E-14  -3.90039473E-15  -5.65481964E-10  -3.90435165E-15   1.72280603E-15
   1.83750000E+02   5.00000000E-01   5.00000000E-01  -1.31047567E-07  -4.73257195E-08  -1.23003223E-15  -8.65274743E-16  -8.43967923E-16   1.42394347E-08  -6.97124471E-17   4.37795008E-18   2.98254521E-14   6.31615651E-17   9.52136231E-08  -3.61613698E-17  -3.46936780E-18  -3.57053831E-17  -3.35622492E-17  -2.00160005E-10  -1.48588922E-10  -1.15766970E-07   6.15314329E-08   1.70513551E-07   0.00000000E+00  -6.21578159E-18   2.09666926E-18  -2.58431016E-19   1.71451765E-17  -3.37437270E-11  -4.53057040E-08  -4.61913465E-08   0.00000000E+00  -2.84787922E-08  -1.93638440E-16  -6.93848050E-16  -6.82033954E-16   2.71679975E-17  -3.13667279E-14   3.19289748E-14  -1.24098205E-11  -2.56068625E-14  -3.42299578E-09  -3.85412519E-14  -3.90077960E-15  -5.65464567E-10  -3.90435165E-15   1.72280603E-15
   2.01250000E+02   5.00000000E-01   5.00000000E-01  -1.31047566E-07  -4.72206834E-08  -1.23003198E-15  -8.65118951E-16  -8.44063736E-16   1.42394347E-08  -6.97183715E-17   4.58945874E-18   2.81586577E-14   6.64418872E-17   9.51490544E-08  -3.61333316E-17  -3.45761072E-18  -3.55768315E-17  -3.33741122E-17  -2.00141133E-10  -1.46333262E-10  -1.15766970E-07   6.09443605E-08   1.70817724E-07   0.00000000E+00  -6.12571010E-18   2.10671621E-18   1.27392823E-19   1.77405566E-17  -3.37263467E-11  -4.53270645E-08  -4.61913465E-08   0.00000000E+00  -2.84787921E-08  -1.93635217E-16  -6.93848050E-16  -6.82033954E-16   2.69236745E-17  -3.13590793E-14   3.25407008E-14  -1.29135871E-11  -2.57532977E-14  -3.42299578E-09  -3.85412519E-14  -3.90109294E-15  -5.65446605E-10  -3.90435165E-15   1.72280603E-15
   2.18750000E+02   5.00000000E-01   5.00000000E-01  -1.31047566E-07  -4.71054214E-08  -1.23003172E-15  -8.65280929E-16  -8.44407398E-16   1.42394346E-08  -6.97246613E-17   4.84489916E-18   2.63638810E-14   7.00018719E-17   9.48183852E-08  -3.61083345E-17  -3.44988598E-18  -3.54625765E-17  -3.32237928E-17  -2.00120671E-10  -1.44058933E-10  -1.15766970E-07   5.99490252E-08   1.71369940E-07   0.00000000E+00  -6.04800364E-18   2.09384552E-18   4.59448292E-19   1.81354755E-17  -3.37142789E-11  -4.53466731E-08  -4.61913465E-08   0.00000000E+00  -2.84787921E-08  -1.93632567E-16  -6.93848050E-16  -6.82033954E-16   2.66799198E-17  -3.13515992E-14   3.29944579E-14  -1.33910443E-11  -2.58887605E-14  -3.42299578E-09  -3.85412519E-14  -3.90133834E-15  -5.65428195E-10  -3.90435165E-15   1.72280603E-15
   2.36250000E+02   5.00000000E-01   5.00000000E-01  -1.31047565E-07  -4.69801005E-08  -1.23003144E-15  -8.65709297E-16  -8.44961482E-16   1.42394346E-08  -6.97313275E-17   5.13692252E-18   2.45203016E-14   7.37971016E-17   9.43588991E-08  -3.60852503E-17  -3.44481290E-18  -3.53573610E-17  -3.30986502E-17  -2.00098766E-10  -1.41771854E-10  -1.15766970E-07   5.87368592E-08   1.72051830E-07   0.00000000E+00  -5.97774276E-18   2.06766668E-18   7.59030907E-19   1.84065510E-17  -3.37058433E-11  -4.53644111E-08  -4.61913465E-08   0.00000000E+00  -2.84787920E-08  -1.93630293E-16  -6.93848050E-16  -6.82033954E-16   2.64430352E-17  -3.13462069E-14   3.32930583E-14  -1.38520802E-11  -2.60141356E-14  -3.42299578E-09  -3.85412519E-14  -3.90151911E-15  -5.65409422E-10  -3.90435165E-15   1.72280603E-15
   2.53750000E+02   5.00000000E-01   5.00000000E-01  -1.31047565E-07  -4.68449267E-08  -1.23003115E-15  -8.66366423E-16  -8.45698747E-16   1.42394346E-08  -6.97383815E-17   5.45938996E-18   2.26874699E-14   7.77896328E-17   9.38463037E-08  -3.60632797E-17  -3.44146588E-18  -3.52574658E-17  -3.29900215E-17  -2.00075531E-10  -1.39477948E-10  -1.15766970E-07   5.74177410E-08   1.72795962E-07   0.00000000E+00  -5.91180508E-18   2.03397571E-18   1.03965303E-18   1.86012292E-17  -3.36998733E-11  -4.53802466E-08  -4.61913465E-08   0.00000000E+00  -2.84787920E-08  -1.93628262E-16  -6.93848050E-16  -6.82033954E-16   2.62147625E-17  -3.13442643E-14   3.34403031E-14  -1.43017364E-11  -2.61302189E-14  -3.42299578E-09  -3.85412519E-14  -3.90163823E-15  -5.65390338E-10  -3.90435165E-15   1.72280603E-15
   2.71250000E+02   5.00000000E-01   5.00000000E-01  -1.31047565E-07  -4.67001193E-08  -1.23003084E-15  -8.67223889E-16  -8.46598769E-16   1.42394346E-08  -6.97458363E-17   5.80743467E-18   2.09085821E-14   8.19500456E-17   9.33196972E-08  -3.60418873E-17  -3.43925106E-18  -3.51604049E-17  -3.28922608E-17  -2.00051041E-10  -1.37182563E-10  -1.15766970E-07   5.60522799E-08   1.73565578E-07   0.00000000E+00  -5.84830321E-18   1.99613997E-18   1.30947784E-18   1.87477127E-17  -3.36955905E-11  -4.53942195E-08  -4.61913465E-08   0.00000000E+00  -2.84787919E-08  -1.93626391E-16  -6.93848050E-16  -6.82033954E-16   2.59947264E-17  -3.13466782E-14   3.34408603E-14  -1.47425578E-11  -2.62377270E-14  -3.42299578E-09  -3.85412518E-14  -3.90169845E-15  -5.65370979E-10  -3.90435165E-15   1.72280603E-15
   2.88750000E+02   5.00000000E-01   5.00000000E-01  -1.31047564E-07  -4.65458890E-08  -1.23003053E-15  -8.68260231E-16  -8.47646292E-16   1.42394345E-08  -6.97537074E-17   6.17739876E-18   1.92133243E-14   8.62579983E-17   9.27970358E-08  -3.60207363E-17  -3.43780351E-18  -3.50646190E-17  -3.28018805E-17  -2.00025347E-10  -1.34890158E-10  -1.15766970E-07   5.46721314E-08   1.74341888E-07   0.00000000E+00  -5.78617016E-18   1.95603138E-18   1.57311558E-18   1.88619461E-17  -3.36924946E-11  -4.54064277E-08  -4.61913465E-08   0.00000000E+00  -2.84787919E-08  -1.93624628E-16  -6.93848050E-16  -6.82033954E-16   2.57817308E-17  -3.13539914E-14   3.33001417E-14  -1.51757773E-11  -2.63373061E-14  -3.42299578E-09  -3.85412518E-14  -3.90170222E-15  -5.65351359E-10  -3.90435165E-15   1.72280603E-15
   3.06250000E+02   5.00000000E-01   5.00000000E-01  -1.31047563E-07  -4.63824223E-08  -1.23003020E-15  -8.69460188E-16  -8.48830741E-16   1.42394345E-08  -6.97620132E-17   6.56671396E-18   1.76204334E-14   9.07018551E-17   9.22844236E-08  -3.59996354E-17  -3.43691136E-18  -3.49692238E-17  -3.27168871E-17  -1.99998472E-10  -1.32604178E-10  -1.15766970E-07   5.32923787E-08   1.75116344E-07   0.00000000E+00  -5.72487348E-18   1.91462477E-18   1.83286210E-18   1.89522527E-17  -3.36902797E-11  -4.54170105E-08  -4.61913465E-08   0.00000000E+00  -2.84787918E-08  -1.93622945E-16  -6.93848050E-16  -6.82033954E-16   2.55744105E-17  -3.13664623E-14   3.30241825E-14  -1.56019271E-11  -2.64295403E-14  -3.42299578E-09  -3.85412518E-14  -3.90165181E-15  -5.65331483E-10  -3.90435165E-15   1.72280603E-15
   3.23750000E+02   5.00000000E-01   5.00000000E-01  -1.31047563E-07  -4.62098691E-08  -1.23002986E-15  -8.70814760E-16  -8.50146375E-16   1.42394345E-08  -6.97707752E-17   6.97375430E-18   1.61400251E-14   9.52777198E-17   9.17816191E-08  -3.59784971E-17  -3.43646207E-18  -3.48738181E-17  -3.26362956E-17  -1.99970421E-10  -1.30327049E-10  -1.15766969E-07   5.19189658E-08   1.75886011E-07   0.00000000E+00  -5.66422238E-18   1.87237324E-18   2.08953445E-18   1.90223474E-17  -3.36887713E-11  -4.54261343E-08  -4.61913465E-08   0.00000000E+00  -2.84787917E-08  -1.93621326E-16  -6.93848050E-16  -6.82033954E-16   2.53715310E-17  -3.13841342E-14   3.26195231E-14  -1.60211622E-11  -2.65149577E-14  -3.42299578E-09  -3.85412518E-14  -3.90154923E-15  -5.65311344E-10  -3.90435165E-15   1.72280603E-15
   3.41250000E+02   5.00000000E-01   5.00000000E-01  -1.31047562E-07  -4.60283380E-08  -1.23002951E-15  -8.72321406E-16  -8.51592547E-16   1.42394344E-08  -6.97800186E-17   7.39767097E-18   1.47756806E-14   9.99880833E-17   9.12853019E-08  -3.59573063E-17  -3.43640478E-18  -3.47783350E-17  -3.25597745E-17  -1.99941181E-10  -1.28060284E-10  -1.15766969E-07   5.05531349E-08   1.76650818E-07   0.00000000E+00  -5.60423644E-18   1.82944289E-18   2.34303984E-18   1.90732948E-17  -3.36878803E-11  -4.54339780E-08  -4.61913465E-08   0.00000000E+00  -2.84787917E-08  -1.93619767E-16  -6.93848050E-16  -6.82033954E-16   2.51720986E-17  -3.14068938E-14   3.20930983E-14  -1.64334335E-11  -2.65940366E-14  -3.42299578E-09  -3.85412518E-14  -3.90139634E-15  -5.65290929E-10  -3.90435165E-15   1.72280603E-15
   3.58750000E+02   5.00000000E-01   5.00000000E-01  -1.31047561E-07  -4.58378979E-08  -1.23002915E-15  -8.73983910E-16  -8.53173691E-16   1.42394344E-08  -6.97897718E-17   7.83821499E-18   1.35262601E-14   1.04840252E-16   9.07910174E-08  -3.59360948E-17  -3.43672374E-18  -3.46829245E-17  -3.24873820E-17  -1.99910729E-10  -1.25804662E-10  -1.15766969E-07   4.91940694E-08   1.77411907E-07   0.00000000E+00  -5.54505356E-18   1.78585998E-18   2.59277437E-18   1.91048012E-17  -3.36875692E-11  -4.54407202E-08  -4.61913465E-08   0.00000000E+00  -2.84787916E-08  -1.93618269E-16  -6.93848050E-16  -6.82033954E-16   2.49753728E-17  -3.14345224E-14   3.14521320E-14  -1.68385842E-11  -2.66672110E-14  -3.42299578E-09  -3.85412517E-14  -3.90119478E-15  -5.65270218E-10  -3.90435165E-15   1.72280603E-15
   3.76250000E+02   5.00000000E-01   5.00000000E-01  -1.31047560E-07  -4.56385867E-08  -1.23002877E-15  -8.75811801E-16  -8.54898950E-16   1.42394344E-08  -6.98000662E-17   8.29555801E-18   1.23874223E-14   1.09844745E-16   9.02943017E-08  -3.59149207E-17  -3.43741954E-18  -3.45878576E-17  -3.24193684E-17  -1.99879030E-10  -1.23560457E-10  -1.15766969E-07   4.78404415E-08   1.78170679E-07   0.00000000E+00  -5.48686407E-18   1.74160240E-18   2.83790842E-18   1.91160672E-17  -3.36878264E-11  -4.54465301E-08  -4.61913465E-08   0.00000000E+00  -2.84787915E-08  -1.93616833E-16  -6.93848050E-16  -6.82033954E-16   2.47808332E-17  -3.14667379E-14   3.07040416E-14  -1.72364019E-11  -2.67348747E-14  -3.42299578E-09  -3.85412517E-14  -3.90094604E-15  -5.65249188E-10  -3.90435165E-15   1.72280603E-15
   3.93750000E+02   5.00000000E-01   5.00000000E-01  -1.31047559E-07  -4.54304238E-08  -1.23002838E-15  -8.77819480E-16  -8.56781550E-16   1.42394343E-08  -6.98109361E-17   8.77013098E-18   1.13528393E-14   1.15013893E-16   8.97912268E-08  -3.58938527E-17  -3.43849663E-18  -3.44934520E-17  -3.23560348E-17  -1.99846044E-10  -1.21327667E-10  -1.15766969E-07   4.64912448E-08   1.78928286E-07   0.00000000E+00  -5.42986512E-18   1.69665260E-18   3.07758370E-18   1.91063228E-17  -3.36886496E-11  -4.54515600E-08  -4.61913465E-08   0.00000000E+00  -2.84787914E-08  -1.93615465E-16  -6.93848050E-16  -6.82033954E-16   2.45881310E-17  -3.15032273E-14   2.98563507E-14  -1.76266490E-11  -2.67973860E-14  -3.42299578E-09  -3.85412517E-14  -3.90065145E-15  -5.65227817E-10  -3.90435165E-15   1.72280603E-15
   4.11250000E+02   5.00000000E-01   5.00000000E-01  -1.31047558E-07  -4.52134227E-08  -1.23002798E-15  -8.80025308E-16  -8.58838115E-16   1.42394343E-08  -6.98224181E-17   9.26250524E-18   1.04151152E-14   1.20360852E-16   8.92784965E-08  -3.58729587E-17  -3.43995637E-18  -3.44000220E-17  -3.22976484E-17  -1.99811727E-10  -1.19106196E-10  -1.15766969E-07   4.51461303E-08   1.79685445E-07   0.00000000E+00  -5.37423407E-18   1.65102181E-18   3.31102872E-18   1.90751008E-17  -3.36900349E-11  -4.54559435E-08  -4.61913465E-08   0.00000000E+00  -2.84787913E-08  -1.93614168E-16  -6.93848050E-16  -6.82033954E-16   2.43970430E-17  -3.15436685E-14   2.89166107E-14  -1.80090789E-11  -2.68550707E-14  -3.42299578E-09  -3.85412517E-14  -3.90031219E-15  -5.65206080E-10  -3.90435165E-15   1.72280603E-15
   4.28750000E+02   5.00000000E-01   5.00000000E-01  -1.31047557E-07  -4.49875990E-08  -1.23002756E-15  -8.82450831E-16  -8.61088093E-16   1.42394342E-08  -6.98345513E-17   9.77333282E-18   9.56643422E-15   1.25899143E-16   8.87532299E-08  -3.58523015E-17  -3.44179492E-18  -3.43078576E-17  -3.22444115E-17  -1.99776036E-10  -1.16895948E-10  -1.15766969E-07   4.38054017E-08   1.80442480E-07   0.00000000E+00  -5.32011914E-18   1.60475317E-18   3.53759897E-18   1.90223010E-17  -3.36919738E-11  -4.54597959E-08  -4.61913465E-08  -5.30964510E-33  -2.84787912E-08  -1.93612944E-16  -6.93848050E-16  -6.82033954E-16   2.42074376E-17  -3.15877410E-14   2.78923321E-14  -1.83834461E-11  -2.69082258E-14  -3.42299578E-09  -3.85412516E-14  -3.89992932E-15  -5.65183954E-10  -3.90435165E-15   1.72280603E-15
   4.46250000E+02   5.00000000E-01   5.00000000E-01  -1.31047555E-07  -4.47529712E-08  -1.23002712E-15  -8.85120217E-16  -8.63553324E-16   1.42394342E-08  -6.98473772E-17   1.03033432E-17   8.79898113E-15   1.31642625E-16   8.82126211E-08  -3.58319393E-17  -3.44400426E-18  -3.42172262E-17  -3.21964700E-17  -1.99738922E-10  -1.14696832E-10  -1.15766968E-07   4.24698246E-08   1.81199471E-07   0.00000000E+00  -5.26764314E-18   1.55791264E-18   3.75676086E-18   1.89481168E-17  -3.36944537E-11  -4.54632177E-08  -4.61913465E-08   0.00000000E+00  -2.84787911E-08  -1.93611796E-16  -6.93848050E-16  -6.82033954E-16   2.40192543E-17  -3.16351289E-14   2.67909252E-14  -1.87495114E-11  -2.69571220E-14  -3.42299578E-09  -3.85412516E-14  -3.89950374E-15  -5.65161414E-10  -3.90435165E-15   1.72280602E-15
   4.63750000E+02   5.00000000E-01   5.00000000E-01  -1.31047554E-07  -4.45095564E-08  -1.23002667E-15  -8.88059934E-16  -8.66257811E-16   1.42394341E-08  -6.98609401E-17   1.08533725E-17   8.10519194E-15   1.37605646E-16   8.76536736E-08  -3.58119287E-17  -3.44657457E-18  -3.41283870E-17  -3.21539406E-17  -1.99700336E-10  -1.12508702E-10  -1.15766968E-07   4.11403996E-08   1.81956412E-07   0.00000000E+00  -5.21691291E-18   1.51057668E-18   3.96805134E-18   1.88529144E-17  -3.36974613E-11  -4.54662975E-08  -4.61913465E-08  -3.69332774E-19  -2.84787910E-08  -1.93610723E-16  -6.93848050E-16  -6.82033954E-16   2.38324925E-17  -3.16855208E-14   2.56196492E-14  -1.91070447E-11  -2.70020063E-14  -3.42299578E-09  -3.85412516E-14  -3.89903625E-15  -5.65138438E-10  -3.90435165E-15   1.72280602E-15
   4.81250000E+02   5.00000000E-01   5.00000000E-01  -1.31047552E-07  -4.42573651E-08  -1.23002621E-15  -8.91298673E-16  -8.69227679E-16   1.42394340E-08  -6.98752869E-17   1.14243913E-17   7.47789426E-15   1.43803084E-16   8.70731369E-08  -3.57923272E-17  -3.44949581E-18  -3.40416027E-17  -3.21169304E-17  -1.99660223E-10  -1.10331313E-10  -1.15766968E-07   3.98182122E-08   1.82713298E-07   0.00000000E+00  -5.16802644E-18   1.46282414E-18   4.17104712E-18   1.87371478E-17  -3.37009840E-11  -4.54691138E-08  -4.61913465E-08  -2.24469395E-18  -2.84787908E-08  -1.93609729E-16  -6.93848050E-16  -6.82033954E-16   2.36472045E-17  -3.17386094E-14   2.43855698E-14  -1.94558272E-11  -2.70431043E-14  -3.42299578E-09  -3.85412516E-14  -3.89852754E-15  -5.65115001E-10  -3.90435165E-15   1.72280601E-15
   4.98750000E+02   5.00000000E-01   5.00000000E-01  -1.31047550E-07  -4.39964013E-08  -1.23002573E-15  -8.94867543E-16  -8.72491365E-16   1.42394340E-08  -6.98904678E-17   1.20175018E-17   6.91038531E-15   1.50250104E-16   8.64676590E-08  -3.57731930E-17  -3.45275759E-18  -3.39571379E-17  -3.20855354E-17  -1.99618525E-10  -1.08164319E-10  -1.15766968E-07   3.85044032E-08   1.83470109E-07   0.00000000E+00  -5.12107260E-18   1.41473538E-18   4.36536590E-18   1.86013510E-17  -3.37050101E-11  -4.54717335E-08  -4.61913465E-08  -4.95929734E-18  -2.84787907E-08  -1.93608813E-16  -6.93848050E-16  -6.82033954E-16   2.34634860E-17  -3.17940946E-14   2.30955251E-14  -1.97956515E-11  -2.70806221E-14  -3.42299578E-09  -3.85412515E-14  -3.89797819E-15  -5.65091079E-10  -3.90435165E-15   1.72280601E-15
   5.16250000E+02   5.00000000E-01   5.00000000E-01  -1.31047548E-07  -4.37266696E-08  -1.23002523E-15  -8.98800552E-16  -8.76080045E-16   1.42394339E-08  -6.99065367E-17   1.26338953E-17   6.39647922E-15   1.56961622E-16   8.58340605E-08  -3.57545810E-17  -3.45634752E-18  -3.38752409E-17  -3.20598153E-17  -1.99575179E-10  -1.06007348E-10  -1.15766967E-07   3.72002386E-08   1.84226740E-07   0.00000000E+00  -5.07612289E-18   1.36639736E-18   4.55070195E-18   1.84462030E-17  -3.37095259E-11  -4.54742106E-08  -4.61913465E-08  -8.83869047E-18  -2.84787906E-08  -1.93607978E-16  -6.93848050E-16  -6.82033954E-16   2.32814640E-17  -3.18516890E-14   2.17560989E-14  -2.01263220E-11  -2.71147481E-14  -3.42299578E-09  -3.85412515E-14  -3.89738867E-15  -5.65066645E-10  -3.90435165E-15   1.72280599E-15
   5.33750000E+02   5.00000000E-01   5.00000000E-01  -1.31047546E-07  -4.34481908E-08  -1.23002472E-15  -9.03135360E-16  -8.80028299E-16   1.42394338E-08  -6.99235513E-17   1.32747825E-17   5.93053754E-15   1.63951684E-16   8.51695863E-08  -3.57365367E-17  -3.46024882E-18  -3.37961163E-17  -3.20397584E-17  -1.99530124E-10  -1.03860124E-10  -1.15766967E-07   3.59072078E-08   1.84982898E-07   0.00000000E+00  -5.03321899E-18   1.31791061E-18   4.72687942E-18   1.82726214E-17  -3.37145121E-11  -4.54765825E-08  -4.61913465E-08  -1.43307856E-17  -2.84787904E-08  -1.93607223E-16  -6.93848050E-16  -6.82033954E-16   2.31012815E-17  -3.19111250E-14   2.03736002E-14  -2.04476542E-11  -2.71456547E-14  -3.42299578E-09  -3.85412515E-14  -3.89675937E-15  -5.65041677E-10  -3.90435165E-15   1.72280597E-15
   5.51250000E+02   5.00000000E-01   5.00000000E-01  -1.31047543E-07  -4.31610189E-08  -1.23002418E-15  -9.07914259E-16  -8.84374976E-16   1.42394337E-08  -6.99415740E-17   1.39413237E-17   5.50748430E-15   1.71233043E-16   8.44720024E-08  -3.57190907E-17  -3.46443874E-18  -3.37198998E-17  -3.20252529E-17  -1.99483295E-10  -1.01722591E-10  -1.15766967E-07   3.46270743E-08   1.85738071E-07   0.00000000E+00  -4.99236264E-18   1.26939295E-18   4.89389577E-18   1.80818240E-17  -3.37199413E-11  -4.54788698E-08  -4.61913465E-08  -2.20508793E-17  -2.84787903E-08  -1.93606547E-16  -6.93848050E-16  -6.82033954E-16   2.29230839E-17  -3.19721591E-14   1.89540498E-14  -2.07594742E-11  -2.71734995E-14  -3.42299578E-09  -3.85412514E-14  -3.89609057E-15  -5.65016151E-10  -3.90435165E-15   1.72280594E-15
   5.68750000E+02   5.00000000E-01   5.00000000E-01  -1.31047540E-07  -4.28652538E-08  -1.23002364E-15  -9.13185299E-16  -8.89164200E-16   1.42394337E-08  -6.99606717E-17   1.46345950E-17   5.12280109E-15   1.78817168E-16   8.37394807E-08  -3.57022567E-17  -3.46888877E-18  -3.36466489E-17  -3.20160835E-17  -1.99434629E-10  -9.95949812E-11  -1.15766966E-07   3.33618258E-08   1.86491566E-07   0.00000000E+00  -4.95351376E-18   1.22097679E-18   5.05192930E-18   1.78753120E-17  -3.37257779E-11  -4.54810772E-08  -4.61913465E-08  -3.28423224E-17  -2.84787901E-08  -1.93605946E-16  -6.93848050E-16  -6.82033954E-16   2.27470098E-17  -3.20345727E-14   1.75031711E-14  -2.10616189E-11  -2.71984266E-14  -3.42299578E-09  -3.85412514E-14  -3.89538250E-15  -5.64990047E-10  -3.90435165E-15   1.72280589E-15
   5.86250000E+02   5.00000000E-01   5.00000000E-01  -1.31047537E-07  -4.25610431E-08  -1.23002307E-15  -9.19003476E-16  -8.94446442E-16   1.42394336E-08  -6.99809170E-17   1.53556099E-17   4.77249940E-15   1.86714765E-16   8.29703158E-08  -3.56860342E-17  -3.47356688E-18  -3.35763564E-17  -3.20119590E-17  -1.99384066E-10  -9.74777795E-11  -1.15766966E-07   3.21135179E-08   1.87242638E-07   0.00000000E+00  -4.91659972E-18   1.17279968E-18   5.20129906E-18   1.76547621E-17  -3.37319810E-11  -4.54831989E-08  -4.61913465E-08  -4.78573585E-17  -2.84787899E-08  -1.93605418E-16  -6.93848050E-16  -6.82033954E-16   2.25731884E-17  -3.20981688E-14   1.60263860E-14  -2.13539352E-11  -2.72205679E-14  -3.42299578E-09  -3.85412513E-14  -3.89463526E-15  -5.64963345E-10  -3.90435165E-15   1.72280582E-15
   6.03750000E+02   5.00000000E-01   5.00000000E-01  -1.31047534E-07  -4.22485702E-08  -1.23002249E-15  -9.25431950E-16  -9.00279628E-16   1.42394335E-08  -7.00023882E-17   1.61053972E-17   4.45307206E-15   1.94936668E-16   8.21625993E-08  -3.56704160E-17  -3.47844119E-18  -3.35089840E-17  -3.20125632E-17  -1.99331543E-10  -9.53716047E-11  -1.15766966E-07   3.08840578E-08   1.87990647E-07   0.00000000E+00  -4.88153386E-18   1.12499087E-18   5.34238528E-18   1.74218557E-17  -3.37385094E-11  -4.54852232E-08  -4.61913465E-08  -6.86630440E-17  -2.84787897E-08  -1.93604958E-16  -6.93848050E-16  -6.82033954E-16   2.24017434E-17  -3.21627645E-14   1.45288139E-14  -2.16362807E-11  -2.72400441E-14  -3.42299578E-09  -3.85412513E-14  -3.89384892E-15  -5.64936027E-10  -3.90435165E-15   1.72280571E-15
   6.21250000E+02   5.00000000E-01   5.00000000E-01  -1.31047530E-07  -4.19280331E-08  -1.23002189E-15  -9.32543301E-16  -9.06730304E-16   1.42394334E-08  -7.00251705E-17   1.68851117E-17   4.16143145E-15   2.03494792E-16   8.13139977E-08  -3.56553978E-17  -3.48348377E-18  -3.34445064E-17  -3.20176138E-17  -1.99276992E-10  -9.32770300E-11  -1.15766965E-07   2.96749960E-08   1.88735203E-07   0.00000000E+00  -4.84823751E-18   1.07765846E-18   5.47553476E-18   1.71780991E-17  -3.37453271E-11  -4.54871389E-08  -4.61913465E-08  -9.73765293E-17  -2.84787895E-08  -1.93604562E-16  -6.93848050E-16  -6.82033954E-16   2.22327993E-17  -3.22281846E-14   1.30152744E-14  -2.19085236E-11  -2.72569655E-14  -3.42299578E-09  -3.85412512E-14  -3.89302344E-15  -5.64908075E-10  -3.90435165E-15   1.72280553E-15