 TITLE = "Mineral Rate (mol/m^3/sec)" 
VARIABLES = "X"          "Y"              "Z"            "Forsterite"     "Fayalite"       "Brucite"        "Lizardite"      "Chrysotile"     "Hematite"       "Magnetite(am)"  "Saponite(Ca)"   "Saponite(K)"    "Saponite(Mg)"   "Saponite(Na)"   "Beidellite(Ca)" "Beidellite(K)"  "Beidellite(Mg)" "Beidellite(Na)" "Enstatite(alph" "Ferrosilite(al" "Anorthite"      "Albite(low)"    "Clinochlore"    "Sudoite"        "Montmor(MgCa)"  "Montmor(MgK)"   "Montmor(MgMg)"  "Montmor(MgNa)"  "Kaolinite"      "Tremolite"      "Pargasite"      "Anhydrite"      "Epidote"        "Scolecite"      "Pyrite"         "FeS(am)"        "Quartz(alpha)"  "Titanite"       "Rutile"         "Barite"         "Fluorite"       "Spessartine(al" "Andradite"      "Celestite"      "Zincite"        "Chalcocyanite"  "Chalcocite(alp"
 ZONE I=         200 , J=           1 , K=           1  F=POINT
   8.75000000E+00   5.00000000E-01   5.00000000E-01  -1.30827332E-07  -4.78433470E-08  -1.21650494E-15  -1.00312540E-15  -9.29082051E-16   1.40236788E-08  -4.75064422E-17   8.80413540E-18   1.86261667E-14   6.61589228E-17   3.15278284E-08  -3.64626842E-17  -3.81002321E-18  -3.73120201E-17  -3.70043191E-17  -2.00055357E-10  -1.71528998E-10  -1.15113242E-07  -2.86936601E-08   2.24603552E-07   0.00000000E+00  -8.06346250E-18  -8.28040463E-19  -8.24586072E-18  -8.17220898E-18  -3.42516797E-11  -4.48325154E-08  -4.59071009E-08   0.00000000E+00  -2.80472803E-08  -1.91328756E-16  -6.89944639E-16  -6.79220893E-16   9.66089573E-18  -2.88779786E-14   1.74166651E-14   1.46834339E-10  -2.32527742E-14  -3.36987082E-09  -3.85411876E-14  -3.89292370E-15  -5.65405112E-10  -3.90435146E-15   1.82911195E-13
   2.62500000E+01   5.00000000E-01   5.00000000E-01  -1.30827338E-07  -4.78298769E-08  -1.21651334E-15  -9.26324204E-16  -8.74622236E-16   1.40236787E-08  -4.75109249E-17   3.03112976E-18   1.89313467E-14   3.68042040E-17   4.21064000E-08  -3.64612969E-17  -3.80807008E-18  -3.73055250E-17  -3.69875177E-17  -2.00222738E-10  -1.69656703E-10  -1.15113242E-07  -2.23060595E-08   2.19630755E-07   0.00000000E+00  -8.04124094E-18  -7.74751085E-19  -8.14955105E-18  -7.79129617E-18  -3.42416124E-11  -4.48537206E-08  -4.59071009E-08   0.00000000E+00  -2.80472803E-08  -1.91327023E-16  -6.89944639E-16  -6.79220893E-16   1.51711846E-17  -3.09063238E-14   1.94805366E-14   5.41090578E-11  -2.35891307E-14  -3.36987082E-09  -3.85411897E-14  -3.89417437E-15  -5.65429367E-10  -3.90435146E-15   1.71413785E-15
   4.37500000E+01   5.00000000E-01   5.00000000E-01  -1.30827339E-07  -4.78031932E-08  -1.21651492E-15  -8.72681471E-16  -8.35765243E-16   1.40236787E-08  -4.75138802E-17   2.89077493E-18   2.21224443E-14   3.78383338E-17   4.35091838E-08  -3.64512334E-17  -3.79460140E-18  -3.72584717E-17  -3.68690518E-17  -2.00245245E-10  -1.67257666E-10  -1.15113242E-07  -8.72675108E-09   2.12609604E-07   0.00000000E+00  -7.94006280E-18  -5.45806227E-19  -7.71139402E-18  -6.11143775E-18  -3.42036209E-11  -4.48684092E-08  -4.59071009E-08   0.00000000E+00  -2.80472802E-08  -1.91321238E-16  -6.89944639E-16  -6.79220893E-16   1.98016594E-17  -3.12467001E-14   2.14341947E-14   1.80008738E-11  -2.38971036E-14  -3.36987082E-09  -3.85411900E-14  -3.89530922E-15  -5.65427956E-10  -3.90435146E-15   1.71413785E-15
   6.12500000E+01   5.00000000E-01   5.00000000E-01  -1.30827339E-07  -4.77679524E-08  -1.21651544E-15  -8.44437689E-16  -8.15076412E-16   1.40236787E-08  -4.75164454E-17   3.22445553E-18   2.50787284E-14   4.15765952E-17   5.42215005E-08  -3.64247962E-17  -3.76122176E-18  -3.71350348E-17  -3.65677042E-17  -2.00244823E-10  -1.64758233E-10  -1.15113242E-07   8.59781057E-09   2.02179725E-07   0.00000000E+00  -7.73481174E-18  -1.11313212E-19  -6.82315552E-18  -2.82349707E-18  -3.41388520E-11  -4.48805289E-08  -4.59071009E-08   0.00000000E+00  -2.80472802E-08  -1.91311739E-16  -6.89944639E-16  -6.79220893E-16   2.31432847E-17  -3.13333066E-14   2.32631369E-14   2.80059587E-12  -2.41794433E-14  -3.36987082E-09  -3.85411901E-14  -3.89632969E-15  -5.65420392E-10  -3.90435146E-15   1.71413785E-15
   7.87500000E+01   5.00000000E-01   5.00000000E-01  -1.30827339E-07  -4.77279829E-08  -1.21651566E-15  -8.30251786E-16  -8.04688878E-16   1.40236787E-08  -4.75190507E-17   3.32832688E-18   2.73133837E-14   4.40379535E-17   6.74411828E-08  -3.63790171E-17  -3.70692890E-18  -3.69215880E-17  -3.60634897E-17  -2.00241786E-10  -1.62429498E-10  -1.15113242E-07   2.59912628E-08   1.91301665E-07   0.00000000E+00  -7.44564181E-18   4.57130756E-19  -5.57237948E-18   1.63224657E-18  -3.40530391E-11  -4.48961181E-08  -4.59071009E-08   0.00000000E+00  -2.80472802E-08  -1.91299639E-16  -6.89944639E-16  -6.79220893E-16   2.52336298E-17  -3.13995722E-14   2.49580071E-14  -4.07586455E-12  -2.44386273E-14  -3.36987082E-09  -3.85411901E-14  -3.89724160E-15  -5.65410813E-10  -3.90435146E-15   1.71413785E-15
   9.62500000E+01   5.00000000E-01   5.00000000E-01  -1.30827339E-07  -4.76826051E-08  -1.21651572E-15  -8.22778294E-16  -7.99278016E-16   1.40236786E-08  -4.75218198E-17   3.28137371E-18   2.88306278E-14   4.56334954E-17   7.86702388E-08  -3.63194572E-17  -3.64111082E-18  -3.66442952E-17  -3.54322890E-17  -2.00237069E-10  -1.60250748E-10  -1.15113242E-07   4.03625476E-08   1.82263135E-07   0.00000000E+00  -7.12993478E-18   1.02510457E-18  -4.20735922E-18   6.27974861E-18  -3.39597402E-11  -4.49160577E-08  -4.59071009E-08   0.00000000E+00  -2.80472801E-08  -1.91286981E-16  -6.89944639E-16  -6.79220893E-16   2.63600135E-17  -3.14564381E-14   2.65110455E-14  -7.45297878E-12  -2.46768632E-14  -3.36987082E-09  -3.85411901E-14  -3.89805160E-15  -5.65399520E-10  -3.90435146E-15   1.71413785E-15
   1.13750000E+02   5.00000000E-01   5.00000000E-01  -1.30827339E-07  -4.76299242E-08  -1.21651567E-15  -8.18510891E-16  -7.96259028E-16   1.40236786E-08  -4.75247811E-17   3.21664171E-18   2.96349235E-14   4.71089231E-17   8.65013663E-08  -3.62570910E-17  -3.57784995E-18  -3.63544200E-17  -3.48012029E-17  -2.00229747E-10  -1.58138131E-10  -1.15113242E-07   5.03924258E-08   1.75955974E-07   0.00000000E+00  -6.84403472E-18   1.48310863E-18  -2.97177302E-18   1.02479993E-17  -3.38745242E-11  -4.49390475E-08  -4.59071009E-08   0.00000000E+00  -2.80472801E-08  -1.91275708E-16  -6.89944639E-16  -6.79220893E-16   2.68508867E-17  -3.14952203E-14   2.79157178E-14  -9.29134813E-12  -2.48961079E-14  -3.36987082E-09  -3.85411902E-14  -3.89876600E-15  -5.65386515E-10  -3.90435146E-15   1.71413785E-15
   1.31250000E+02   5.00000000E-01   5.00000000E-01  -1.30827339E-07  -4.75686522E-08  -1.21651555E-15  -8.15898524E-16  -7.94479657E-16   1.40236786E-08  -4.75279459E-17   3.19301783E-18   2.97437013E-14   4.88001187E-17   9.12899778E-08  -3.62001713E-17  -3.52602719E-18  -3.60903827E-17  -3.42572155E-17  -2.00219695E-10  -1.56038792E-10  -1.15113242E-07   5.64522469E-08   1.72135874E-07   0.00000000E+00  -6.61272926E-18   1.79828127E-18  -1.97282868E-18   1.32123097E-17  -3.38055990E-11  -4.49634566E-08  -4.59071009E-08   0.00000000E+00  -2.80472800E-08  -1.91266639E-16  -6.89944639E-16  -6.79220893E-16   2.69666855E-17  -3.15163205E-14   2.91668790E-14  -1.04254225E-11  -2.50980985E-14  -3.36987082E-09  -3.85411902E-14  -3.89939055E-15  -5.65372038E-10  -3.90435146E-15   1.71413785E-15
   1.48750000E+02   5.00000000E-01   5.00000000E-01  -1.30827339E-07  -4.74980958E-08  -1.21651538E-15  -8.14257713E-16  -7.93431123E-16   1.40236786E-08  -4.75313256E-17   3.22764632E-18   2.92515723E-14   5.08177569E-17   9.38884612E-08  -3.61517545E-17  -3.48764884E-18  -3.58663170E-17  -3.38261291E-17  -2.00207153E-10  -1.53927359E-10  -1.15113242E-07   5.95801541E-08   1.70143119E-07   0.00000000E+00  -6.43479877E-18   1.98952505E-18  -1.20525022E-18   1.52553154E-17  -3.37539124E-11  -4.49880351E-08  -4.59071009E-08   0.00000000E+00  -2.80472800E-08  -1.91259699E-16  -6.89944639E-16  -6.79220893E-16   2.68805115E-17  -3.15239331E-14   3.02608497E-14  -1.12247539E-11  -2.52843817E-14  -3.36987082E-09  -3.85411902E-14  -3.89993048E-15  -5.65356395E-10  -3.90435146E-15   1.71413785E-15
   1.66250000E+02   5.00000000E-01   5.00000000E-01  -1.30827338E-07  -4.74179154E-08  -1.21651518E-15  -8.13265515E-16  -7.92873555E-16   1.40236785E-08  -4.75349319E-17   3.32097540E-18   2.82948966E-14   5.31803724E-17   9.50845755E-08  -3.61114708E-17  -3.46090092E-18  -3.56804013E-17  -3.34969937E-17  -2.00192429E-10  -1.51793755E-10  -1.15113242E-07   6.07847061E-08   1.69343447E-07   0.00000000E+00  -6.29847427E-18   2.09112196E-18  -6.18101320E-19   1.66038800E-17  -3.37168248E-11  -4.50119654E-08  -4.59071009E-08   0.00000000E+00  -2.80472799E-08  -1.91254452E-16  -6.89944639E-16  -6.79220893E-16   2.66957310E-17  -3.15226099E-14   3.11954044E-14  -1.18589045E-11  -2.54563371E-14  -3.36987082E-09  -3.85411902E-14  -3.90039054E-15  -5.65339855E-10  -3.90435146E-15   1.71413785E-15
   1.83750000E+02   5.00000000E-01   5.00000000E-01  -1.30827338E-07  -4.73279897E-08  -1.21651496E-15  -8.12748962E-16  -7.92679045E-16   1.40236785E-08  -4.75387751E-17   3.46726637E-18   2.70085707E-14   5.58660852E-17   9.54505563E-08  -3.60776064E-17  -3.44288215E-18  -3.55245822E-17  -3.32465146E-17  -2.00175800E-10  -1.49636327E-10  -1.15113242E-07   6.08169185E-08   1.69266928E-07   0.00000000E+00  -6.19101559E-18   2.13399884E-18  -1.56221634E-19   1.74799942E-17  -3.36908088E-11  -4.50347201E-08  -4.59071009E-08   0.00000000E+00  -2.80472799E-08  -1.91250423E-16  -6.89944639E-16  -6.79220893E-16   2.64694058E-17  -3.15162984E-14   3.19697136E-14  -1.24081798E-11  -2.56151981E-14  -3.36987082E-09  -3.85411902E-14  -3.90077508E-15  -5.65322631E-10  -3.90435146E-15   1.71413785E-15
   2.01250000E+02   5.00000000E-01   5.00000000E-01  -1.30827338E-07  -4.72283396E-08  -1.21651472E-15  -8.12603008E-16  -7.92770275E-16   1.40236785E-08  -4.75428641E-17   3.65899945E-18   2.55079547E-14   5.88360716E-17   9.53557443E-08  -3.60482905E-17  -3.43093059E-18  -3.53901080E-17  -3.30518147E-17  -2.00157498E-10  -1.47457954E-10  -1.15113242E-07   6.01713348E-08   1.69605346E-07   0.00000000E+00  -6.10222542E-18   2.14066436E-18   2.24551562E-19   1.80527578E-17  -3.36726908E-11  -4.50559531E-08  -4.59071009E-08   0.00000000E+00  -2.80472798E-08  -1.91247224E-16  -6.89944639E-16  -6.79220893E-16   2.62308177E-17  -3.15081615E-14   3.25842617E-14  -1.29116851E-11  -2.57620685E-14  -3.36987082E-09  -3.85411902E-14  -3.90108807E-15  -5.65304881E-10  -3.90435146E-15   1.71413785E-15
   2.18750000E+02   5.00000000E-01   5.00000000E-01  -1.30827338E-07  -4.71190809E-08  -1.21651446E-15  -8.12757935E-16  -7.93096173E-16   1.40236785E-08  -4.75472064E-17   3.88876451E-18   2.38860668E-14   6.20472763E-17   9.50220870E-08  -3.60219587E-17  -3.42301630E-18  -3.52696758E-17  -3.28947769E-17  -2.00137708E-10  -1.45263696E-10  -1.15113242E-07   5.91519223E-08   1.70170093E-07   0.00000000E+00  -6.02492643E-18   2.12589664E-18   5.55306729E-19   1.84370680E-17  -3.36600137E-11  -4.50754447E-08  -4.59071009E-08   0.00000000E+00  -2.80472798E-08  -1.91244570E-16  -6.89944639E-16  -6.79220893E-16   2.59936652E-17  -3.15006170E-14   3.30407484E-14  -1.33889066E-11  -2.58979376E-14  -3.36987082E-09  -3.85411902E-14  -3.90133311E-15  -5.65286717E-10  -3.90435146E-15   1.71413785E-15
   2.36250000E+02   5.00000000E-01   5.00000000E-01  -1.30827337E-07  -4.70003878E-08  -1.21651419E-15  -8.13164834E-16  -7.93621102E-16   1.40236785E-08  -4.75518096E-17   4.15002547E-18   2.22156170E-14   6.54594214E-17   9.45761490E-08  -3.59974467E-17  -3.41772625E-18  -3.51578609E-17  -3.27624441E-17  -2.00116569E-10  -1.43059340E-10  -1.15113242E-07   5.79372290E-08   1.70851010E-07   0.00000000E+00  -5.95441223E-18   2.09884076E-18   8.56429329E-19   1.87061324E-17  -3.36510170E-11  -4.50930771E-08  -4.59071009E-08   0.00000000E+00  -2.80472797E-08  -1.91242268E-16  -6.89944639E-16  -6.79220893E-16   2.57633807E-17  -3.14954379E-14   3.33419779E-14  -1.38497153E-11  -2.60236940E-14  -3.36987082E-09  -3.85411902E-14  -3.90151350E-15  -5.65268217E-10  -3.90435146E-15   1.71413785E-15
   2.53750000E+02   5.00000000E-01   5.00000000E-01  -1.30827337E-07  -4.68724656E-08  -1.21651391E-15  -8.13787909E-16  -7.94319140E-16   1.40236784E-08  -4.75566816E-17   4.43737484E-18   2.05518068E-14   6.90386333E-17   9.40864677E-08  -3.59739456E-17  -3.41412966E-18  -3.50508994E-17  -3.26461014E-17  -2.00094184E-10  -1.40850535E-10  -1.15113241E-07   5.66282714E-08   1.71586280E-07   0.00000000E+00  -5.88774705E-18   2.06492749E-18   1.14063278E-18   1.89045650E-17  -3.36444987E-11  -4.51088183E-08  -4.59071009E-08   0.00000000E+00  -2.80472797E-08  -1.91240191E-16  -6.89944639E-16  -6.79220893E-16   2.55412807E-17  -3.14938632E-14   3.34917421E-14  -1.42991443E-11  -2.61401363E-14  -3.36987082E-09  -3.85411902E-14  -3.90163223E-15  -5.65249431E-10  -3.90435146E-15   1.71413785E-15
   2.71250000E+02   5.00000000E-01   5.00000000E-01  -1.30827336E-07  -4.67355277E-08  -1.21651362E-15  -8.14600156E-16  -7.95170867E-16   1.40236784E-08  -4.75618313E-17   4.74655829E-18   1.89349551E-14   7.27589991E-17   9.35876064E-08  -3.59509227E-17  -3.41163873E-18  -3.49463192E-17  -3.25401665E-17  -2.00070623E-10  -1.38642290E-10  -1.15113241E-07   5.52798905E-08   1.72342778E-07   0.00000000E+00  -5.82318895E-18   2.02726260E-18   1.41545692E-18   1.90584519E-17  -3.36396683E-11  -4.51227083E-08  -4.59071009E-08   0.00000000E+00  -2.80472796E-08  -1.91238261E-16  -6.89944639E-16  -6.79220893E-16   2.53268237E-17  -3.14967010E-14   3.34946991E-14  -1.47397343E-11  -2.62479838E-14  -3.36987082E-09  -3.85411901E-14  -3.90169204E-15  -5.65230388E-10  -3.90435146E-15   1.71413785E-15
   2.88750000E+02   5.00000000E-01   5.00000000E-01  -1.30827336E-07  -4.65897765E-08  -1.21651332E-15  -8.15581200E-16  -7.96161794E-16   1.40236784E-08  -4.75672695E-17   5.07439834E-18   1.73929190E-14   7.66028576E-17   9.30948106E-08  -3.59280496E-17  -3.40989818E-18  -3.48425984E-17  -3.24412549E-17  -2.00045929E-10  -1.36438727E-10  -1.15113241E-07   5.39201642E-08   1.73103949E-07   0.00000000E+00  -5.75977671E-18   1.98754189E-18   1.68505793E-18   1.91822536E-17  -3.36360252E-11  -4.51348441E-08  -4.59071009E-08   0.00000000E+00  -2.80472796E-08  -1.91236429E-16  -6.89944639E-16  -6.79220893E-16   2.51187876E-17  -3.15044188E-14   3.33562510E-14  -1.51727163E-11  -2.63478855E-14  -3.36987082E-09  -3.85411901E-14  -3.90169538E-15  -5.65211104E-10  -3.90435146E-15   1.71413785E-15
   3.06250000E+02   5.00000000E-01   5.00000000E-01  -1.30827335E-07  -4.64353899E-08  -1.21651301E-15  -8.16716565E-16  -7.97281882E-16   1.40236783E-08  -4.75730088E-17   5.41867508E-18   1.59433731E-14   8.05603146E-17   9.26126815E-08  -3.59051441E-17  -3.40870580E-18  -3.47388971E-17  -3.23474805E-17  -2.00020125E-10  -1.34242984E-10  -1.15113241E-07   5.25620786E-08   1.73862540E-07   0.00000000E+00  -5.69705067E-18   1.94662764E-18   1.95141836E-18   1.92833063E-17  -3.36332686E-11  -4.51453644E-08  -4.59071009E-08   0.00000000E+00  -2.80472795E-08  -1.91234670E-16  -6.89944639E-16  -6.79220893E-16   2.49158509E-17  -3.15172210E-14   3.30824228E-14  -1.55986214E-11  -2.64404272E-14  -3.36987082E-09  -3.85411901E-14  -3.90164452E-15  -5.65191579E-10  -3.90435146E-15   1.71413785E-15
   3.23750000E+02   5.00000000E-01   5.00000000E-01  -1.30827335E-07  -4.62725118E-08  -1.21651269E-15  -8.17997712E-16  -7.98525679E-16   1.40236783E-08  -4.75790641E-17   5.77798707E-18   1.45959407E-14   8.46282742E-17   9.21402457E-08  -3.58821279E-17  -3.40795731E-18  -3.46348565E-17  -3.22579545E-17  -1.99993213E-10  -1.32057247E-10  -1.15113241E-07   5.12104469E-08   1.74616306E-07   0.00000000E+00  -5.63486722E-18   1.90490538E-18   2.21515156E-18   1.93647045E-17  -3.36312303E-11  -4.51544345E-08  -4.59071009E-08   0.00000000E+00  -2.80472794E-08  -1.91232970E-16  -6.89944639E-16  -6.79220893E-16   2.47168499E-17  -3.15351147E-14   3.26797462E-14  -1.60176040E-11  -2.65261391E-14  -3.36987082E-09  -3.85411901E-14  -3.90154148E-15  -5.65171805E-10  -3.90435146E-15   1.71413785E-15
   3.41250000E+02   5.00000000E-01   5.00000000E-01  -1.30827334E-07  -4.61012478E-08  -1.21651236E-15  -8.19422210E-16  -7.99892542E-16   1.40236783E-08  -4.75854528E-17   6.15160075E-18   1.33541334E-14   8.88091697E-17   9.16739180E-08  -3.58589937E-17  -3.40760837E-18  -3.45304471E-17  -3.21724251E-17  -1.99965179E-10  -1.29882856E-10  -1.15113241E-07   4.98659883E-08   1.75365478E-07   0.00000000E+00  -5.57327402E-18   1.86250393E-18   2.47604257E-18   1.94271525E-17  -3.36298281E-11  -4.51622322E-08  -4.59071009E-08   0.00000000E+00  -2.80472794E-08  -1.91231326E-16  -6.89944639E-16  -6.79220893E-16   2.45208661E-17  -3.15579651E-14   3.21551476E-14  -1.64296151E-11  -2.66055010E-14  -3.36987082E-09  -3.85411901E-14  -3.90138810E-15  -5.65151770E-10  -3.90435146E-15   1.71413785E-15
   3.58750000E+02   5.00000000E-01   5.00000000E-01  -1.30827333E-07  -4.59216681E-08  -1.21651201E-15  -8.20993601E-16  -8.01386631E-16   1.40236782E-08  -4.75921945E-17   6.53929269E-18   1.22170482E-14   9.31095381E-17   9.12092388E-08  -3.58357799E-17  -3.40764800E-18  -3.44258500E-17  -3.20910133E-17  -1.99936001E-10  -1.27720485E-10  -1.15113241E-07   4.85277242E-08   1.76111281E-07   0.00000000E+00  -5.51242347E-18   1.81943180E-18   2.73342323E-18   1.94701705E-17  -3.36290297E-11  -4.51689352E-08  -4.59071009E-08   0.00000000E+00  -2.80472793E-08  -1.91229740E-16  -6.89944639E-16  -6.79220893E-16   2.43272285E-17  -3.15855431E-14   3.15158442E-14  -1.68344975E-11  -2.66789484E-14  -3.36987082E-09  -3.85411901E-14  -3.90118604E-15  -5.65131453E-10  -3.90435146E-15   1.71413785E-15
   3.76250000E+02   5.00000000E-01   5.00000000E-01  -1.30827332E-07  -4.57338155E-08  -1.21651165E-15  -8.22720839E-16  -8.03016544E-16   1.40236782E-08  -4.75993108E-17   6.94119320E-18   1.11807918E-14   9.75386021E-17   9.07418576E-08  -3.58125497E-17  -3.40808002E-18  -3.43213609E-17  -3.20140167E-17  -1.99905646E-10  -1.25570350E-10  -1.15113241E-07   4.71943590E-08   1.76855081E-07   0.00000000E+00  -5.45251138E-18   1.77566075E-18   2.98643813E-18   1.94928838E-17  -3.36288283E-11  -4.51747116E-08  -4.59071009E-08   0.00000000E+00  -2.80472792E-08  -1.91228216E-16  -6.89944639E-16  -6.79220893E-16   2.41354758E-17  -3.16175638E-14   3.07692477E-14  -1.72320391E-11  -2.67468766E-14  -3.36987082E-09  -3.85411900E-14  -3.90093677E-15  -5.65110832E-10  -3.90435146E-15   1.71413785E-15
   3.93750000E+02   5.00000000E-01   5.00000000E-01  -1.30827331E-07  -4.55377173E-08  -1.21651128E-15  -8.24617473E-16  -8.04794719E-16   1.40236781E-08  -4.76068254E-17   7.35764759E-18   1.02396182E-14   1.02107051E-16   9.02679895E-08  -3.57893755E-17  -3.40891087E-18  -3.42173163E-17  -3.19417704E-17  -1.99874076E-10  -1.23432431E-10  -1.15113240E-07   4.58650042E-08   1.77597947E-07   0.00000000E+00  -5.39373498E-18   1.73117335E-18   3.23422640E-18   1.94945090E-17  -3.36292244E-11  -4.51797128E-08  -4.59071009E-08   0.00000000E+00  -2.80472791E-08  -1.91226756E-16  -6.89944639E-16  -6.79220893E-16   2.39453080E-17  -3.16537161E-14   2.99228776E-14  -1.76220023E-11  -2.68096448E-14  -3.36987082E-09  -3.85411900E-14  -3.90064163E-15  -5.65089886E-10  -3.90435146E-15   1.71413785E-15
   4.11250000E+02   5.00000000E-01   5.00000000E-01  -1.30827330E-07  -4.53333963E-08  -1.21651090E-15  -8.26700775E-16  -8.06736801E-16   1.40236781E-08  -4.76147634E-17   7.78911522E-18   9.38678588E-15   1.06826203E-16   8.97844663E-08  -3.57663281E-17  -3.41014295E-18  -3.41140447E-17  -3.18745654E-17  -1.99841253E-10  -1.21306629E-10  -1.15113240E-07   4.45394517E-08   1.78340505E-07   0.00000000E+00  -5.33626879E-18   1.68598367E-18   3.47602634E-18   1.94745971E-17  -3.36302159E-11  -4.51840716E-08  -4.59071009E-08   0.00000000E+00  -2.80472790E-08  -1.91225365E-16  -6.89944639E-16  -6.79220893E-16   2.37565417E-17  -3.16936820E-14   2.89842825E-14  -1.80041408E-11  -2.68675800E-14  -3.36987082E-09  -3.85411900E-14  -3.90030180E-15  -5.65068591E-10  -3.90435146E-15   1.71413785E-15
   4.28750000E+02   5.00000000E-01   5.00000000E-01  -1.30827329E-07  -4.51208781E-08  -1.21651050E-15  -8.28991016E-16  -8.08861083E-16   1.40236780E-08  -4.76231519E-17   8.23611965E-18   8.61516012E-15   1.11707618E-16   8.92885089E-08  -3.57434724E-17  -3.41177275E-18  -3.40118465E-17  -3.18126193E-17  -1.99807133E-10  -1.19192854E-10  -1.15113240E-07   4.32181400E-08   1.79082995E-07   0.00000000E+00  -5.28025676E-18   1.64013874E-18   3.71120951E-18   1.94330796E-17  -3.36317949E-11  -4.51879027E-08  -4.59071009E-08  -3.08302469E-33  -2.80472789E-08  -1.91224046E-16  -6.89944639E-16  -6.79220893E-16   2.35690778E-17  -3.17371467E-14   2.79609717E-14  -1.83782094E-11  -2.69209802E-14  -3.36987082E-09  -3.85411900E-14  -3.89991832E-15  -5.65046924E-10  -3.90435146E-15   1.71413785E-15
   4.46250000E+02   5.00000000E-01   5.00000000E-01  -1.30827328E-07  -4.49001921E-08  -1.21651009E-15  -8.31510933E-16  -8.11188114E-16   1.40236780E-08  -4.76320195E-17   8.69924648E-18   7.91760171E-15   1.16763080E-16   8.87773984E-08  -3.57208679E-17  -3.41379214E-18  -3.39109964E-17  -3.17560882E-17  -1.99771674E-10  -1.17091025E-10  -1.15113240E-07   4.19019578E-08   1.79825421E-07   0.00000000E+00  -5.22581643E-18   1.59370873E-18   3.93926268E-18   1.93701893E-17  -3.36339492E-11  -4.51913059E-08  -4.59071009E-08   0.00000000E+00  -2.80472788E-08  -1.91222799E-16  -6.89944639E-16  -6.79220893E-16   2.33828824E-17  -3.17838010E-14   2.68603555E-14  -1.87439690E-11  -2.69701169E-14  -3.36987082E-09  -3.85411900E-14  -3.89949210E-15  -5.65024863E-10  -3.90435146E-15   1.71413785E-15
   4.63750000E+02   5.00000000E-01   5.00000000E-01  -1.30827326E-07  -4.46713672E-08  -1.21650966E-15  -8.34285429E-16  -8.13740478E-16   1.40236779E-08  -4.76413964E-17   9.17916805E-18   7.28719853E-15   1.22004715E-16   8.82482266E-08  -3.56985719E-17  -3.41619080E-18  -3.38117588E-17  -3.17050938E-17  -1.99734829E-10  -1.15001018E-10  -1.15113240E-07   4.05920224E-08   1.80567705E-07   0.00000000E+00  -5.17304825E-18   1.54677476E-18   4.15974799E-18   1.92863401E-17  -3.36366649E-11  -4.51943695E-08  -4.59071009E-08  -2.20243279E-19  -2.80472787E-08  -1.91221627E-16  -6.89944639E-16  -6.79220893E-16   2.31979766E-17  -3.18333408E-14   2.56896942E-14  -1.91011903E-11  -2.70152378E-14  -3.36987082E-09  -3.85411899E-14  -3.89902395E-15  -5.65002386E-10  -3.90435146E-15   1.71413784E-15
   4.81250000E+02   5.00000000E-01   5.00000000E-01  -1.30827325E-07  -4.44344282E-08  -1.21650922E-15  -8.37341507E-16  -8.16542761E-16   1.40236779E-08  -4.76513151E-17   9.67666558E-18   6.71739494E-15   1.27445011E-16   8.76978422E-08  -3.56766424E-17  -3.41895793E-18  -3.37143992E-17  -3.16597448E-17  -1.99696549E-10  -1.12922626E-10  -1.15113239E-07   3.92895351E-08   1.81309764E-07   0.00000000E+00  -5.12204236E-18   1.49942082E-18   4.37227343E-18   1.91820427E-17  -3.36399289E-11  -4.51971713E-08  -4.59071009E-08  -1.35783554E-18  -2.80472785E-08  -1.91220531E-16  -6.89944639E-16  -6.79220893E-16   2.30144294E-17  -3.18854670E-14   2.44560560E-14  -1.94496546E-11  -2.70565693E-14  -3.36987082E-09  -3.85411899E-14  -3.89851455E-15  -5.64979470E-10  -3.90435146E-15   1.71413784E-15
   4.98750000E+02   5.00000000E-01   5.00000000E-01  -1.30827323E-07  -4.41893955E-08  -1.21650876E-15  -8.40708447E-16  -8.19621727E-16   1.40236778E-08  -4.76618102E-17   1.01926254E-17   6.20206453E-15   1.33096577E-16   8.71229985E-08  -3.56551373E-17  -3.42208220E-18  -3.36191824E-17  -3.16201345E-17  -1.99656781E-10  -1.10855557E-10  -1.15113239E-07   3.79957519E-08   1.82051509E-07   0.00000000E+00  -5.07287834E-18   1.45173278E-18   4.57649422E-18   1.90578972E-17  -3.36437285E-11  -4.51997781E-08  -4.59071009E-08  -3.04516029E-18  -2.80472784E-08  -1.91219511E-16  -6.89944639E-16  -6.79220893E-16   2.28323494E-17  -3.19398884E-14   2.31662826E-14  -1.97891550E-11  -2.70943181E-14  -3.36987082E-09  -3.85411899E-14  -3.89796447E-15  -5.64956092E-10  -3.90435146E-15   1.71413783E-15
   5.16250000E+02   5.00000000E-01   5.00000000E-01  -1.30827321E-07  -4.39362922E-08  -1.21650829E-15  -8.44418262E-16  -8.23006722E-16   1.40236777E-08  -4.76729186E-17   1.07280018E-17   5.73555472E-15   1.38971678E-16   8.65206115E-08  -3.56341107E-17  -3.42554995E-18  -3.35263544E-17  -3.15863161E-17  -1.99615468E-10  -1.08799508E-10  -1.15113239E-07   3.67120451E-08   1.82792760E-07   0.00000000E+00  -5.02561733E-18   1.40380313E-18   4.77214660E-18   1.89146526E-17  -3.36480486E-11  -4.52022435E-08  -4.59071009E-08  -5.51296289E-18  -2.80472783E-08  -1.91218568E-16  -6.89944639E-16  -6.79220893E-16   2.26518730E-17  -3.19963272E-14   2.18269621E-14  -2.01194965E-11  -2.71286732E-14  -3.36987082E-09  -3.85411899E-14  -3.89737419E-15  -5.64932228E-10  -3.90435146E-15   1.71413782E-15
   5.33750000E+02   5.00000000E-01   5.00000000E-01  -1.30827319E-07  -4.36751584E-08  -1.21650781E-15  -8.48506402E-16  -8.26730293E-16   1.40236776E-08  -4.76846800E-17   1.12837570E-17   5.31271580E-15   1.45081708E-16   8.58879915E-08  -3.56136065E-17  -3.42934295E-18  -3.34361140E-17  -3.15582669E-17  -1.99572554E-10  -1.06754269E-10  -1.15113238E-07   3.54399914E-08   1.83533173E-07   0.00000000E+00  -4.98029039E-18   1.35573728E-18   4.95909794E-18   1.87532935E-17  -3.36528683E-11  -4.52046047E-08  -4.59071009E-08  -9.08645284E-18  -2.80472781E-08  -1.91217702E-16  -6.89944639E-16  -6.79220893E-16   2.24731504E-17  -3.20545241E-14   2.04444090E-14  -2.04404950E-11  -2.71598074E-14  -3.36987082E-09  -3.85411898E-14  -3.89674408E-15  -5.64907858E-10  -3.90435146E-15   1.71413780E-15
   5.51250000E+02   5.00000000E-01   5.00000000E-01  -1.30827317E-07  -4.34060655E-08  -1.21650731E-15  -8.53012670E-16  -8.30829001E-16   1.40236776E-08  -4.76971373E-17   1.18608040E-17   4.92891493E-15   1.51436851E-16   8.52229275E-08  -3.55936532E-17  -3.43343683E-18  -3.33485882E-17  -3.15358612E-17  -1.99527981E-10  -1.04719841E-10  -1.15113238E-07   3.41814131E-08   1.84272202E-07   0.00000000E+00  -4.93688927E-18   1.30765679E-18   5.13738638E-18   1.85750949E-17  -3.36581580E-11  -4.52068821E-08  -4.59071009E-08  -1.42236544E-17  -2.80472780E-08  -1.91216912E-16  -6.89944639E-16  -6.79220893E-16   2.22963331E-17  -3.21142431E-14   1.90246503E-14  -2.07519775E-11  -2.71878789E-14  -3.36987082E-09  -3.85411898E-14  -3.89607445E-15  -5.64882959E-10  -3.90435146E-15   1.71413776E-15
   5.68750000E+02   5.00000000E-01   5.00000000E-01  -1.30827314E-07  -4.31291282E-08  -1.21650679E-15  -8.57982283E-16  -8.35344368E-16   1.40236775E-08  -4.77103363E-17   1.24599797E-17   4.58003118E-15   1.58046135E-16   8.45235733E-08  -3.55742617E-17  -3.43780135E-18  -3.32638236E-17  -3.15188671E-17  -1.99481692E-10  -1.02696482E-10  -1.15113238E-07   3.29383248E-08   1.85009145E-07   0.00000000E+00  -4.89536507E-18   1.25969641E-18   5.30722595E-18   1.83816005E-17  -3.36638794E-11  -4.52090807E-08  -4.59071009E-08  -2.15688991E-17  -2.80472778E-08  -1.91216194E-16  -6.89944639E-16  -6.79220893E-16   2.21215657E-17  -3.21752717E-14   1.75734161E-14  -2.10537813E-11  -2.72130323E-14  -3.36987082E-09  -3.85411898E-14  -3.89536549E-15  -5.64857513E-10  -3.90435146E-15   1.71413771E-15
   5.86250000E+02   5.00000000E-01   5.00000000E-01  -1.30827311E-07  -4.28445047E-08  -1.21650626E-15  -8.63466987E-16  -8.40323877E-16   1.40236774E-08  -4.77243270E-17   1.30820659E-17   4.26242898E-15   1.64917904E-16   8.37881823E-08  -3.55554288E-17  -3.44240282E-18  -3.31818008E-17  -3.15069762E-17  -1.99433633E-10  -1.00684686E-10  -1.15113237E-07   3.17127840E-08   1.85743260E-07   0.00000000E+00  -4.85563769E-18   1.21199481E-18   5.46896607E-18   1.81745162E-17  -3.36699894E-11  -4.52111946E-08  -4.59071009E-08  -3.20268875E-17  -2.80472776E-08  -1.91215544E-16  -6.89944639E-16  -6.79220893E-16   2.19489832E-17  -3.22374174E-14   1.60961354E-14  -2.13457542E-11  -2.72353999E-14  -3.36987082E-09  -3.85411897E-14  -3.89461733E-15  -5.64831502E-10  -3.90435146E-15   1.71413764E-15
   6.03750000E+02   5.00000000E-01   5.00000000E-01  -1.30827308E-07  -4.25523864E-08  -1.21650571E-15  -8.69526203E-16  -8.45822026E-16   1.40236773E-08  -4.77391629E-17   1.37278560E-17   3.97291234E-15   1.72060600E-16   8.30148093E-08  -3.55371441E-17  -3.44720785E-18  -3.31024695E-17  -3.14998565E-17  -1.99383748E-10  -9.86850587E-11  -1.15113237E-07   3.05066872E-08   1.86473921E-07   0.00000000E+00  -4.81761372E-18   1.16468160E-18   5.62301415E-18   1.79555434E-17  -3.36764442E-11  -4.52132125E-08  -4.59071009E-08  -4.68640865E-17  -2.80472774E-08  -1.91214959E-16  -6.89944639E-16  -6.79220893E-16   2.17787156E-17  -3.23005015E-14   1.45979353E-14  -2.16277547E-11  -2.72551026E-14  -3.36987082E-09  -3.85411897E-14  -3.89383002E-15  -5.64804912E-10  -3.90435146E-15   1.71413753E-15
   6.21250000E+02   5.00000000E-01   5.00000000E-01  -1.30827305E-07  -4.22529785E-08  -1.21650514E-15  -8.76228222E-16  -8.51901423E-16   1.40236772E-08  -4.77549026E-17   1.43982478E-17   3.70866718E-15   1.79483563E-16   8.22011159E-08  -3.55194007E-17  -3.45218725E-18  -3.30257929E-17  -3.14972120E-17  -1.99331976E-10  -9.66981625E-11  -1.15113236E-07   2.93215772E-08   1.87200741E-07   0.00000000E+00  -4.78120761E-18   1.11786518E-18   5.76974465E-18   1.77262075E-17  -3.36832060E-11  -4.52151230E-08  -4.59071009E-08  -6.78452012E-17  -2.80472772E-08  -1.91214433E-16  -6.89944639E-16  -6.79220893E-16   2.16108931E-17  -3.23643525E-14   1.30836435E-14  -2.18996521E-11  -2.72722512E-14  -3.36987082E-09  -3.85411896E-14  -3.89300352E-15  -5.64777724E-10  -3.90435146E-15   1.71413735E-15