 TITLE = "Mineral Rate (mol/m^3/sec)" 
VARIABLES = "X"          "Y"              "Z"            "Forsterite"     "Enstatite(alph" "Anorthite"      "Ferropargasite" "Anhydrite"      "Clinochlore"    "Albite(low)"   
 ZONE I=          35 , J=           1 , K=           1  F=POINT
   5.00000000E+01   5.00000000E-01   5.00000000E-01   5.17249395E-11   3.81372480E-12  -9.99997338E-13  -9.99999993E-14  -8.33288167E-13   1.65033119E-12  -9.99999986E-13
   1.50000000E+02   5.00000000E-01   5.00000000E-01   3.20851191E-11   1.40675923E-12  -9.99997338E-13  -9.99999993E-14  -8.10198877E-13   1.64999733E-12  -9.99999986E-13
   2.50000000E+02   5.00000000E-01   5.00000000E-01   1.01577391E-11   1.76696709E-13  -9.99997338E-13  -9.99999993E-14  -7.82992595E-13   1.64999733E-12  -9.99999986E-13
   3.50000000E+02   5.00000000E-01   5.00000000E-01   1.64944923E-12  -7.33974396E-14  -9.99997338E-13  -9.99999993E-14  -7.51073497E-13   1.64999733E-12  -9.99999986E-13
   4.50000000E+02   5.00000000E-01   5.00000000E-01   7.69391453E-13  -9.24049262E-14  -9.99997338E-13  -9.99999993E-14  -7.13755392E-13   1.64999733E-12  -9.99999986E-13
   5.50000000E+02   5.00000000E-01   5.00000000E-01   7.45831810E-13  -9.56375209E-14  -9.99997338E-13  -9.99999993E-14  -6.70260603E-13   1.64999733E-12  -9.99999986E-13
   6.50000000E+02   5.00000000E-01   5.00000000E-01   7.47300660E-13  -9.73451446E-14  -9.99997338E-13  -9.99999993E-14  -6.19706144E-13   1.64999733E-12  -9.99999986E-13
   7.50000000E+02   5.00000000E-01   5.00000000E-01   7.48316967E-13  -9.83378488E-14  -9.99997338E-13  -9.99999993E-14  -5.61089077E-13   1.64999733E-12  -9.99999986E-13
   8.50000000E+02   5.00000000E-01   5.00000000E-01   7.48920353E-13  -9.89296471E-14  -9.99997338E-13  -9.99999993E-14  -4.93272093E-13   1.64999733E-12  -9.99999986E-13
   9.50000000E+02   5.00000000E-01   5.00000000E-01   7.49287678E-13  -9.92913878E-14  -9.99997338E-13  -9.99999993E-14  -4.14967523E-13   1.64999733E-12  -9.99999986E-13
   1.05000000E+03   5.00000000E-01   5.00000000E-01   7.49517201E-13  -9.95181040E-14  -9.99997338E-13  -9.99999993E-14  -3.24719412E-13   1.64999733E-12  -9.99999986E-13
   1.15000000E+03   5.00000000E-01   5.00000000E-01   7.49664289E-13  -9.96637223E-14  -9.99997338E-13  -9.99999993E-14  -2.20883443E-13   1.64999733E-12  -9.99999986E-13
   1.25000000E+03   5.00000000E-01   5.00000000E-01   7.49760862E-13  -9.97594986E-14  -9.99997338E-13  -9.99999993E-14  -1.01604605E-13   1.64999733E-12  -9.99999986E-13
   1.35000000E+03   5.00000000E-01   5.00000000E-01   7.49825750E-13  -9.98239460E-14  -9.99997338E-13  -9.99999993E-14   3.52073383E-14   1.64999734E-12  -9.99999986E-13
   1.45000000E+03   5.00000000E-01   5.00000000E-01   7.49870310E-13  -9.98682694E-14  -9.99997338E-13  -9.99999993E-14   1.91904182E-13   1.64999735E-12  -9.99999986E-13
   1.55000000E+03   5.00000000E-01   5.00000000E-01   7.49901534E-13  -9.98993955E-14  -9.99997338E-13  -9.99999993E-14   3.71126535E-13   1.64999738E-12  -9.99999986E-13
   1.65000000E+03   5.00000000E-01   5.00000000E-01   7.49923811E-13  -9.99216955E-14  -9.99997338E-13  -9.99999993E-14   5.75830444E-13   1.64999742E-12  -9.99999986E-13
   1.75000000E+03   5.00000000E-01   5.00000000E-01   7.49939928E-13  -9.99379828E-14  -9.99997338E-13  -9.99999993E-14   8.09311044E-13   1.64999750E-12  -9.99999986E-13
   1.85000000E+03   5.00000000E-01   5.00000000E-01   7.49951660E-13  -9.99501024E-14  -9.99997338E-13  -9.99999993E-14   1.07522000E-12   1.64999764E-12  -9.99999986E-13
   1.95000000E+03   5.00000000E-01   5.00000000E-01   7.49960111E-13  -9.99592867E-14  -9.99997338E-13  -9.99999993E-14   1.37757262E-12   1.64999790E-12  -9.99999986E-13
   2.05000000E+03   5.00000000E-01   5.00000000E-01   7.49965899E-13  -9.99663721E-14  -9.99997338E-13  -9.99999993E-14   1.72073959E-12   1.64999834E-12  -9.99999986E-13
   2.15000000E+03   5.00000000E-01   5.00000000E-01   7.49969255E-13  -9.99719359E-14  -9.99997338E-13  -9.99999993E-14   2.10941773E-12   1.64999908E-12  -9.99999986E-13
   2.25000000E+03   5.00000000E-01   5.00000000E-01   7.49970051E-13  -9.99763818E-14  -9.99997338E-13  -9.99999993E-14   2.54857340E-12   1.65000030E-12  -9.99999986E-13
   2.35000000E+03   5.00000000E-01   5.00000000E-01   7.49967776E-13  -9.99799960E-14  -9.99997338E-13  -9.99999993E-14   3.04335217E-12   1.65000227E-12  -9.99999986E-13
   2.45000000E+03   5.00000000E-01   5.00000000E-01   7.49961473E-13  -9.99829832E-14  -9.99997338E-13  -9.99999993E-14   3.59894896E-12   1.65000537E-12  -9.99999986E-13
   2.55000000E+03   5.00000000E-01   5.00000000E-01   7.49949703E-13  -9.99854911E-14  -9.99997338E-13  -9.99999993E-14   4.22043396E-12   1.65001013E-12  -9.99999986E-13
   2.65000000E+03   5.00000000E-01   5.00000000E-01   7.49931428E-13  -9.99876263E-14  -9.99997338E-13  -9.99999993E-14   4.91253307E-12   1.65001693E-12  -9.99999986E-13
   2.75000000E+03   5.00000000E-01   5.00000000E-01   7.49916050E-13  -9.99894658E-14  -9.99997338E-13  -9.99999993E-14   5.67936604E-12   1.65002268E-12  -9.99999986E-13
   2.85000000E+03   5.00000000E-01   5.00000000E-01   7.49990785E-13  -9.99910639E-14  -9.99997338E-13  -9.99999993E-14   6.52415263E-12   1.64999830E-12  -9.99999986E-13
   2.95000000E+03   5.00000000E-01   5.00000000E-01   7.50611068E-13  -9.99924560E-14  -9.99997338E-13  -9.99999993E-14   7.44890507E-12   1.64979200E-12  -9.99999986E-13
   3.05000000E+03   5.00000000E-01   5.00000000E-01   7.53353601E-13  -9.99936602E-14  -9.99997338E-13  -9.99999993E-14   8.45413370E-12   1.64887823E-12  -9.99999986E-13
   3.15000000E+03   5.00000000E-01   5.00000000E-01   7.61880503E-13  -9.99946810E-14  -9.99997338E-13  -9.99999993E-14   9.53859920E-12   1.64603628E-12  -9.99999986E-13
   3.25000000E+03   5.00000000E-01   5.00000000E-01   7.81928941E-13  -9.99955210E-14  -9.99997338E-13  -9.99999993E-14   1.06991471E-11   1.63935375E-12  -9.99999986E-13
   3.35000000E+03   5.00000000E-01   5.00000000E-01   8.19799705E-13  -9.99961939E-14  -9.99997338E-13  -9.99999993E-14   1.19306580E-11   1.62673038E-12  -9.99999986E-13
   3.45000000E+03   5.00000000E-01   5.00000000E-01   8.80867366E-13  -9.99967264E-14  -9.99997338E-13  -9.99999993E-14   1.32256739E-11   1.60637467E-12  -9.99999986E-13
