 TITLE = "Mineral Rate (mol/m^3/sec)" 
VARIABLES = "X"          "Y"              "Z"            "Forsterite"     "Enstatite(alph" "Anorthite"      "Ferropargasite" "Anhydrite"      "Clinochlore"    "Albite(low)"    "Fayalite"       "Epidote"        "Kaolinite"      "Muscovite(orde"
 ZONE I=          10 , J=           1 , K=           1  F=POINT
   1.75000000E+02   5.00000000E-01   5.00000000E-01  -9.99808572E-09  -6.01838842E-10  -9.90859287E-10  -9.99745782E-10   3.23882083E-10   5.33086636E-09  -5.68077661E-09   2.10979883E-09  -1.29316569E-18   0.00000000E+00   0.00000000E+00
   5.25000000E+02   5.00000000E-01   5.00000000E-01  -9.99795632E-09  -6.95515746E-10  -9.90859287E-10  -9.99745782E-10   1.68978108E-09   5.28518744E-09  -5.58941896E-09   2.21125678E-09  -3.62276553E-18   0.00000000E+00   0.00000000E+00
   8.75000000E+02   5.00000000E-01   5.00000000E-01  -9.99780182E-09  -7.57630727E-10  -9.90859287E-10  -9.99745782E-10   2.03220278E-09   5.20368776E-09  -5.42641959E-09   2.37520080E-09  -7.86676920E-18   0.00000000E+00   0.00000000E+00
   1.22500000E+03   5.00000000E-01   5.00000000E-01  -9.99760336E-09  -7.98695843E-10  -9.90859287E-10  -9.99745782E-10   2.17144045E-09   5.09354681E-09  -5.20613765E-09   2.63293152E-09  -1.37723089E-17   0.00000000E+00   0.00000000E+00
   1.57500000E+03   5.00000000E-01   5.00000000E-01  -9.99734027E-09  -8.25755636E-10  -9.90859287E-10  -9.99745782E-10   2.28285786E-09   4.92670698E-09  -4.87245795E-09   3.01673881E-09  -2.11714189E-17   0.00000000E+00   0.00000000E+00
   1.92500000E+03   5.00000000E-01   5.00000000E-01  -9.99692484E-09  -8.40175459E-10  -9.90859287E-10  -9.99745782E-10   2.39118034E-09   4.70203295E-09  -4.42310971E-09   3.49346031E-09  -2.83377390E-17   0.00000000E+00   0.00000000E+00
   2.27500000E+03   5.00000000E-01   5.00000000E-01  -9.99616459E-09  -8.41562428E-10  -9.90859287E-10  -9.99745782E-10   2.49548851E-09   4.48877130E-09  -3.99658601E-09   3.92234058E-09  -2.27663511E-17   0.00000000E+00   0.00000000E+00
   2.62500000E+03   5.00000000E-01   5.00000000E-01  -9.99473073E-09  -8.30159818E-10  -9.90859287E-10  -9.99745782E-10   2.59350861E-09   4.37370709E-09  -3.76645680E-09   4.13294545E-09   4.00259381E-17   0.00000000E+00   0.00000000E+00
   2.97500000E+03   5.00000000E-01   5.00000000E-01  -9.99208973E-09  -8.06975914E-10  -9.90859287E-10  -9.99745782E-10   2.67957807E-09   4.39083523E-09  -3.80071179E-09   4.05263583E-09   2.52958010E-16   0.00000000E+00   0.00000000E+00
   3.32500000E+03   5.00000000E-01   5.00000000E-01  -9.98740974E-09  -7.73562135E-10  -9.90859287E-10  -9.99745782E-10   2.74838857E-09   4.48796552E-09  -3.99497002E-09   3.77253601E-09   6.49749055E-16   0.00000000E+00   0.00000000E+00
