 TITLE = "Mineral Rate (mol/m^3/sec)" 
VARIABLES = "X"          "Y"              "Z"            "Forsterite"     "Enstatite(alph" "Anorthite"      "Ferropargasite" "Anhydrite"      "Clinochlore"    "Albite(low)"    "Fayalite"       "Epidote"        "Kaolinite"      "Muscovite(orde"
 ZONE I=          10 , J=           1 , K=           1  F=POINT
   1.75000000E+02   5.00000000E-01   5.00000000E-01  -9.99964112E-09  -9.42339830E-10  -9.97221029E-10  -9.99922779E-10  -2.06317884E-08   4.91221356E-09  -4.83021653E-09   3.07194601E-09  -1.19370754E-18   0.00000000E+00   0.00000000E+00
   5.25000000E+02   5.00000000E-01   5.00000000E-01  -9.99961585E-09  -9.47955503E-10  -9.97221029E-10  -9.99922779E-10  -8.04901788E-09   4.64265338E-09  -4.29109634E-09   3.55224026E-09  -5.17396436E-18   0.00000000E+00   0.00000000E+00
   8.75000000E+02   5.00000000E-01   5.00000000E-01  -9.99957296E-09  -9.49417040E-10  -9.97221029E-10  -9.99922779E-10  -6.04126139E-10   4.44130661E-09  -3.88840275E-09   3.95469774E-09  -1.66338036E-17   0.00000000E+00   0.00000000E+00
   1.22500000E+03   5.00000000E-01   5.00000000E-01  -9.99950641E-09  -9.48751589E-10  -9.97221029E-10  -9.99922779E-10   2.00680713E-09   4.38236256E-09  -3.77051448E-09   4.12643340E-09  -4.03271838E-17   0.00000000E+00   0.00000000E+00
   1.57500000E+03   5.00000000E-01   5.00000000E-01  -9.99940196E-09  -9.46457430E-10  -9.97221029E-10  -9.99922779E-10   2.37013022E-09   4.74794531E-09  -4.50167944E-09   3.43278055E-09  -6.85022159E-17   0.00000000E+00   0.00000000E+00
   1.92500000E+03   5.00000000E-01   5.00000000E-01  -9.99924078E-09  -9.43239418E-10  -9.97221029E-10  -9.99922779E-10   2.37412620E-09   6.11570204E-09  -7.23719074E-09   6.98009444E-10  -2.97054810E-17   0.00000000E+00   0.00000000E+00
   2.27500000E+03   5.00000000E-01   5.00000000E-01  -9.99903193E-09  -9.41551304E-10  -9.97221029E-10  -9.99922779E-10   2.49054163E-09   8.43332409E-09  -1.18724229E-08  -3.98285006E-09   3.18894422E-16   0.00000000E+00   0.00000000E+00
   2.62500000E+03   5.00000000E-01   5.00000000E-01  -9.99882892E-09  -9.43158874E-10  -9.97221029E-10  -9.99922779E-10   2.69473207E-09   1.02313074E-08  -1.54683296E-08  -7.73327863E-09   1.31823619E-15   0.00000000E+00   0.00000000E+00
   2.97500000E+03   5.00000000E-01   5.00000000E-01  -9.99868790E-09  -9.47233945E-10  -9.97221029E-10  -9.99922779E-10   2.97506683E-09   1.03068872E-08  -1.15989383E-08  -9.34845533E-09  -7.92533467E-15   0.00000000E+00  -1.34000378E-09
   3.32500000E+03   5.00000000E-01   5.00000000E-01  -9.99843948E-09  -9.46678952E-10  -9.97221029E-10  -9.99922779E-10   2.92021984E-09   9.41737412E-09   6.70827852E-09  -9.80036889E-09   1.80480181E-14   0.00000000E+00  -6.84959997E-09
