 TITLE = "Mineral Rate (mol/m^3/sec)" 
VARIABLES = "X"          "Y"              "Z"            "Forsterite"     "Fayalite"       "Brucite"        "Lizardite"      "Chrysotile"     "Hematite"       "Magnetite(am)"  "Saponite(Ca)"   "Saponite(K)"    "Saponite(Mg)"   "Saponite(Na)"   "Beidellite(Ca)" "Beidellite(K)"  "Beidellite(Mg)" "Beidellite(Na)" "Enstatite(alph" "Ferrosilite(al" "Anorthite"      "Albite(low)"    "Clinochlore"    "Sudoite"        "Montmor(MgCa)"  "Montmor(MgK)"   "Montmor(MgMg)"  "Montmor(MgNa)"  "Kaolinite"      "Tremolite"      "Pargasite"      "Anhydrite"      "Epidote"        "Scolecite"      "Pyrite"         "FeS(am)"        "Quartz(alpha)" 
 ZONE I=         200 , J=           1 , K=           1  F=POINT
   8.75000000E+00   5.00000000E-01   5.00000000E-01  -1.31408262E-07  -4.78976600E-08   0.00000000E+00   0.00000000E+00   0.00000000E+00   1.45682406E-08   0.00000000E+00   2.19466944E-18   2.23728123E-08   1.59115741E-16   2.58442699E-09  -3.66145159E-17  -3.81165395E-18  -3.74662843E-17  -3.71589129E-17  -1.99883513E-10  -1.70185198E-10  -1.16817097E-07  -2.89548201E-08   2.26350994E-07  -4.93558756E-15  -8.07110851E-18  -8.25758974E-18  -8.25444054E-18  -8.18406970E-18  -3.42615842E-11  -4.55402044E-08  -4.66467717E-08   0.00000000E+00  -2.91364810E-08  -1.97411569E-16  -7.00119028E-16  -6.86566778E-16   1.01002078E-17
   2.62500000E+01   5.00000000E-01   5.00000000E-01  -1.31408274E-07  -4.79105971E-08   0.00000000E+00   0.00000000E+00   0.00000000E+00   1.45682405E-08   0.00000000E+00   3.41352240E-19   4.62366675E-08   4.35168269E-17   5.03707948E-09  -3.66122230E-17  -3.80844656E-18  -3.74555511E-17  -3.71311418E-17  -2.00223494E-10  -1.69627391E-10  -1.16817097E-07  -2.06616405E-08   2.17828640E-07  -3.92114297E-15  -8.03901722E-18  -7.49202537E-18  -8.11536952E-18  -7.63378583E-18  -3.42460354E-11  -4.55651747E-08  -4.66467717E-08   0.00000000E+00  -2.91364810E-08  -1.97408716E-16  -7.00119028E-16  -6.86564852E-16   1.51928619E-17
   4.37500000E+01   5.00000000E-01   5.00000000E-01  -1.31408275E-07  -4.78909888E-08   0.00000000E+00   0.00000000E+00   0.00000000E+00   1.45682405E-08   0.00000000E+00   2.25081465E-19   4.56835075E-08   3.64665754E-17   5.69241821E-09  -3.65912731E-17  -3.78055920E-18  -3.73576139E-17  -3.68843750E-17  -2.00266215E-10  -1.67705712E-10  -1.16817097E-07  -2.56331638E-09   2.08762541E-07  -2.62937951E-15  -7.87520687E-18  -3.80293829E-18  -7.40608350E-18  -4.91232369E-18  -3.41714721E-11  -4.55757567E-08  -4.66467717E-08   0.00000000E+00  -2.91364809E-08  -1.97397514E-16  -7.00119028E-16  -6.86562094E-16   1.94017716E-17
   6.12500000E+01   5.00000000E-01   5.00000000E-01  -1.31408276E-07  -4.78572180E-08   0.00000000E+00   0.00000000E+00   0.00000000E+00   1.45682404E-08   0.00000000E+00   2.38137558E-19   5.42451841E-08   3.84010795E-17   7.88831397E-09  -3.65436046E-17  -3.72092340E-18  -3.71351141E-17  -3.63418767E-17  -2.00266819E-10  -1.65372427E-10  -1.16817097E-07   1.75327462E-08   1.96939399E-07  -1.49603047E-15  -7.58741698E-18   2.23525079E-18  -6.16089501E-18  -3.11371463E-19  -3.40614370E-11  -4.55841824E-08  -4.66467717E-08   0.00000000E+00  -2.91364809E-08  -1.97381728E-16  -7.00119028E-16  -6.86559205E-16   2.22984201E-17
   7.87500000E+01   5.00000000E-01   5.00000000E-01  -1.31408276E-07  -4.78161215E-08   0.00000000E+00   0.00000000E+00   0.00000000E+00   1.45682404E-08   0.00000000E+00   2.45949157E-19   6.40973687E-08   4.03372134E-17   1.09483919E-08  -3.64745738E-17  -3.64039911E-18  -3.68134123E-17  -3.55856058E-17  -2.00261841E-10  -1.63098900E-10  -1.16817097E-07   3.52023364E-08   1.85973955E-07  -8.54136386E-16  -7.24018757E-18   8.95256222E-18  -4.65937768E-18   5.00394831E-18  -3.39380846E-11  -4.55983401E-08  -4.66467717E-08   0.00000000E+00  -2.91364808E-08  -1.97364515E-16  -7.00119028E-16  -6.86556727E-16   2.39920364E-17
   9.62500000E+01   5.00000000E-01   5.00000000E-01  -1.31408276E-07  -4.77674989E-08   0.00000000E+00   0.00000000E+00   0.00000000E+00   1.45682404E-08   0.00000000E+00   2.47459974E-19   7.06700260E-08   4.20646443E-17   1.42589289E-08  -3.63979342E-17  -3.55807856E-18  -3.64568687E-17  -3.47823726E-17  -2.00254240E-10  -1.60899540E-10  -1.16817097E-07   4.81499627E-08   1.77869299E-07  -5.65240705E-16  -6.90806015E-18   1.47528924E-17  -3.22397673E-18   9.82205501E-18  -3.38225759E-11  -4.56161119E-08  -4.66467717E-08   0.00000000E+00  -2.91364807E-08  -1.97348713E-16  -7.00119028E-16  -6.86554590E-16   2.48413225E-17
   1.13750000E+02   5.00000000E-01   5.00000000E-01  -1.31408275E-07  -4.77092438E-08   0.00000000E+00   0.00000000E+00   0.00000000E+00   1.45682403E-08   0.00000000E+00   2.52573510E-19   7.34255685E-08   4.41851612E-17   1.75436213E-08  -3.63287815E-17  -3.49146072E-18  -3.61358405E-17  -3.40979952E-17  -2.00243364E-10  -1.58693991E-10  -1.16817097E-07   5.61123017E-08   1.72891400E-07  -4.37705654E-16  -6.64024891E-18   1.87891128E-17  -2.06750958E-18   1.34263512E-17  -3.37326825E-11  -4.56353156E-08  -4.66467717E-08   0.00000000E+00  -2.91364807E-08  -1.97336314E-16  -7.00119028E-16  -6.86552711E-16   2.51901752E-17
   1.31250000E+02   5.00000000E-01   5.00000000E-01  -1.31408275E-07  -4.76396436E-08   0.00000000E+00   0.00000000E+00   0.00000000E+00   1.45682403E-08   0.00000000E+00   2.65240901E-19   7.33082614E-08   4.70020753E-17   2.07520343E-08  -3.62743794E-17  -3.44669830E-18  -3.58840049E-17  -3.36009130E-17  -2.00229156E-10  -1.56430683E-10  -1.16817097E-07   6.01783532E-08   1.70348283E-07  -3.78641553E-16  -6.44515462E-18   2.11089443E-17  -1.22626524E-18   1.57716879E-17  -3.36731278E-11  -4.56546512E-08  -4.66467717E-08   0.00000000E+00  -2.91364806E-08  -1.97327612E-16  -7.00119028E-16  -6.86551076E-16   2.52777941E-17
   1.48750000E+02   5.00000000E-01   5.00000000E-01  -1.31408275E-07  -4.75574828E-08   0.00000000E+00   0.00000000E+00   0.00000000E+00   1.45682403E-08   0.00000000E+00   2.86195018E-19   7.13443701E-08   5.06533941E-17   2.39185141E-08  -3.62348966E-17  -3.42149496E-18  -3.57019528E-17  -3.32804646E-17  -2.00211878E-10  -1.54085598E-10  -1.16817097E-07   6.16686900E-08   1.69404654E-07  -3.50057445E-16  -6.30919523E-18   2.21513660E-17  -6.41417814E-19   1.71385225E-17  -3.36398707E-11  -4.56734491E-08  -4.66467717E-08   0.00000000E+00  -2.91364806E-08  -1.97321958E-16  -7.00119028E-16  -6.86549694E-16   2.52462814E-17
   1.66250000E+02   5.00000000E-01   5.00000000E-01  -1.31408275E-07  -4.74621230E-08   0.00000000E+00   0.00000000E+00   0.00000000E+00   1.45682403E-08   0.00000000E+00   3.14541922E-19   6.83380921E-08   5.51547092E-17   2.70870687E-08  -3.62068541E-17  -3.41016808E-18  -3.55733406E-17  -3.30901795E-17  -2.00191964E-10  -1.51657712E-10  -1.16817097E-07   6.16554077E-08   1.69384505E-07  -3.35828940E-16  -6.21309253E-18   2.23918615E-17  -2.29461267E-19   1.78656887E-17  -3.36253527E-11  -4.56913357E-08  -4.66467717E-08   0.00000000E+00  -2.91364805E-08  -1.97318418E-16  -7.00119028E-16  -6.86548577E-16   2.51692425E-17
   1.83750000E+02   5.00000000E-01   5.00000000E-01  -1.31408274E-07  -4.73535700E-08   0.00000000E+00   0.00000000E+00   0.00000000E+00   1.45682402E-08   0.00000000E+00   3.48563330E-19   6.48353869E-08   6.04156883E-17   3.02842161E-08  -3.61858429E-17  -3.40693845E-18  -3.54775677E-17  -3.29784087E-17  -2.00169938E-10  -1.49163657E-10  -1.16817097E-07   6.08741779E-08   1.69825533E-07  -3.28646529E-16  -6.13963807E-18   2.22036221E-17   8.41612482E-20   1.82347664E-17  -3.36219343E-11  -4.57080802E-08  -4.66467717E-08   0.00000000E+00  -2.91364805E-08  -1.97316118E-16  -7.00119028E-16  -6.86547730E-16   2.50785751E-17
   2.01250000E+02   5.00000000E-01   5.00000000E-01  -1.31408274E-07  -4.72316197E-08   0.00000000E+00   0.00000000E+00   0.00000000E+00   1.45682402E-08   0.00000000E+00   3.87489254E-19   6.10786234E-08   6.64326938E-17   3.34993663E-08  -3.61692372E-17  -3.40848317E-18  -3.54023755E-17  -3.29149488E-17  -2.00146036E-10  -1.46611857E-10  -1.16817097E-07   5.97034876E-08   1.70500248E-07  -3.25002204E-16  -6.07927363E-18   2.17863299E-17   3.40869397E-19   1.83994187E-17  -3.36252586E-11  -4.57238291E-08  -4.66467717E-08   0.00000000E+00  -2.91364804E-08  -1.97314575E-16  -7.00119028E-16  -6.86547140E-16   2.49882780E-17
   2.18750000E+02   5.00000000E-01   5.00000000E-01  -1.31408274E-07  -4.70957016E-08   0.00000000E+00   0.00000000E+00   0.00000000E+00   1.45682402E-08   0.00000000E+00   4.31299971E-19   5.71887811E-08   7.32859667E-17   3.67050010E-08  -3.61558514E-17  -3.41321096E-18  -3.53422199E-17  -3.28855929E-17  -2.00120281E-10  -1.44001859E-10  -1.16817097E-07   5.83186215E-08   1.71305583E-07  -3.23159117E-16  -6.02763159E-18   2.12334168E-17   5.59595728E-19   1.84313572E-17  -3.36332517E-11  -4.57390878E-08  -4.66467717E-08   0.00000000E+00  -2.91364804E-08  -1.97313566E-16  -7.00119028E-16  -6.86546779E-16   2.49048409E-17
   2.36250000E+02   5.00000000E-01   5.00000000E-01  -1.31408273E-07  -4.69458096E-08   0.00000000E+00   0.00000000E+00   0.00000000E+00   1.45682402E-08   0.00000000E+00   4.79280717E-19   5.32993877E-08   8.09343633E-17   3.98969235E-08  -3.61441998E-17  -3.41949989E-18  -3.52901877E-17  -3.28745782E-17  -2.00092845E-10  -1.41345422E-10  -1.16817097E-07   5.68563938E-08   1.72151790E-07  -3.22237071E-16  -5.98030300E-18   2.06249889E-17   7.59435669E-19   1.83965799E-17  -3.36436369E-11  -4.57543388E-08  -4.66467717E-08   0.00000000E+00  -2.91364803E-08  -1.97312848E-16  -7.00119028E-16  -6.86546631E-16   2.48281057E-17
   2.53750000E+02   5.00000000E-01   5.00000000E-01  -1.31408273E-07  -4.67813737E-08   0.00000000E+00   0.00000000E+00   0.00000000E+00   1.45682401E-08   0.00000000E+00   5.31536625E-19   4.94429898E-08   8.94033336E-17   4.30312946E-08  -3.61339844E-17  -3.42691540E-18  -3.52448820E-17  -3.28780614E-17  -2.00063689E-10  -1.38642472E-10  -1.16817097E-07   5.53523121E-08   1.73022977E-07  -3.21789175E-16  -5.93637799E-18   1.99819220E-17   9.44338462E-19   1.83112801E-17  -3.36557852E-11  -4.57700184E-08  -4.66467717E-08   0.00000000E+00  -2.91364803E-08  -1.97312363E-16  -7.00119028E-16  -6.86546665E-16   2.47577577E-17
   2.71250000E+02   5.00000000E-01   5.00000000E-01  -1.31408272E-07  -4.66017671E-08   0.00000000E+00   0.00000000E+00   0.00000000E+00   1.45682401E-08   0.00000000E+00   5.88234245E-19   4.56619397E-08   9.87058234E-17   4.60751940E-08  -3.61250576E-17  -3.43519644E-18  -3.52056068E-17  -3.28938188E-17  -2.00032754E-10  -1.35892487E-10  -1.16817096E-07   5.38237150E-08   1.73908919E-07  -3.21586707E-16  -5.89546375E-18   1.93154059E-17   1.11601138E-18   1.81839066E-17  -3.36692969E-11  -4.57863036E-08  -4.66467717E-08   0.00000000E+00  -2.91364802E-08  -1.97312080E-16  -7.00119028E-16  -6.86546860E-16   2.46930220E-17
   2.88750000E+02   5.00000000E-01   5.00000000E-01  -1.31408271E-07  -4.64065404E-08   0.00000000E+00   0.00000000E+00   0.00000000E+00   1.45682401E-08   0.00000000E+00   6.49387468E-19   4.19977581E-08   1.08823111E-16   4.90041235E-08  -3.61171808E-17  -3.44404676E-18  -3.51712466E-17  -3.29190152E-17  -2.00000014E-10  -1.33097991E-10  -1.16817096E-07   5.22873639E-08   1.74798425E-07  -3.21511619E-16  -5.85699757E-18   1.86371522E-17   1.27689166E-18   1.80242382E-17  -3.36837109E-11  -4.58030224E-08  -4.66467717E-08   0.00000000E+00  -2.91364802E-08  -1.97311956E-16  -7.00119028E-16  -6.86547192E-16   2.46325555E-17
   3.06250000E+02   5.00000000E-01   5.00000000E-01  -1.31408270E-07  -4.61955194E-08   0.00000000E+00   0.00000000E+00   0.00000000E+00   1.45682401E-08   0.00000000E+00   7.14831910E-19   3.84854221E-08   1.19715394E-16   5.17996146E-08  -3.61100277E-17  -3.45314723E-18  -3.51402874E-17  -3.29503102E-17  -1.99965485E-10  -1.30264955E-10  -1.16817096E-07   5.07599070E-08   1.75680447E-07  -3.21502365E-16  -5.82023934E-18   1.79592501E-17   1.43017796E-18   1.78432979E-17  -3.36985278E-11  -4.58197272E-08  -4.66467717E-08   0.00000000E+00  -2.91364801E-08  -1.97311940E-16  -7.00119028E-16  -6.86547647E-16   2.45745718E-17
   3.23750000E+02   5.00000000E-01   5.00000000E-01  -1.31408269E-07  -4.59688309E-08   0.00000000E+00   0.00000000E+00   0.00000000E+00   1.45682400E-08   0.00000000E+00   7.84254684E-19   3.51518315E-08   1.31337767E-16   5.44475647E-08  -3.61032379E-17  -3.46219940E-18  -3.51110609E-17  -3.29843504E-17  -1.99929209E-10  -1.27402164E-10  -1.16817096E-07   4.92559422E-08   1.76545575E-07  -3.21526768E-16  -5.78439114E-18   1.72926018E-17   1.57931337E-18   1.76518179E-17  -3.37132769E-11  -4.58358726E-08  -4.66467717E-08   0.00000000E+00  -2.91364801E-08  -1.97311979E-16  -7.00119028E-16  -6.86548209E-16   2.45170541E-17
   3.41250000E+02   5.00000000E-01   5.00000000E-01  -1.31408268E-07  -4.57268587E-08   0.00000000E+00   0.00000000E+00   0.00000000E+00   1.45682400E-08   0.00000000E+00   8.57257007E-19   3.20154138E-08   1.43654325E-16   5.69366141E-08  -3.60964775E-17  -3.47096549E-18  -3.50820283E-17  -3.30182704E-17  -1.99891244E-10  -1.24519962E-10  -1.16817096E-07   4.77861122E-08   1.77387320E-07  -3.21567771E-16  -5.74873990E-18   1.66454753E-17   1.72736964E-18   1.74586485E-17  -3.37275778E-11  -4.58509782E-08  -4.66467717E-08   0.00000000E+00  -2.91364800E-08  -1.97312028E-16  -7.00119028E-16  -6.86548866E-16   2.44580010E-17
   3.58750000E+02   5.00000000E-01   5.00000000E-01  -1.31408267E-07  -4.54700620E-08   0.00000000E+00   0.00000000E+00   0.00000000E+00   1.45682400E-08   0.00000000E+00   9.33494055E-19   2.90854764E-08   1.56657204E-16   5.92542240E-08  -3.60895349E-17  -3.47932044E-18  -3.50522174E-17  -3.30503956E-17  -1.99851634E-10  -1.21627752E-10  -1.16817096E-07   4.63540786E-08   1.78204384E-07  -3.21616546E-16  -5.71289112E-18   1.60214756E-17   1.87604135E-18   1.72683929E-17  -3.37412197E-11  -4.58647307E-08  -4.66467717E-08   0.00000000E+00  -2.91364799E-08  -1.97312059E-16  -7.00119028E-16  -6.86549605E-16   2.43957525E-17
   3.76250000E+02   5.00000000E-01   5.00000000E-01  -1.31408266E-07  -4.51988993E-08   0.00000000E+00   0.00000000E+00   0.00000000E+00   1.45682399E-08   0.00000000E+00   1.01270916E-18   2.63654549E-08   1.70368168E-16   6.13896589E-08  -3.60823071E-17  -3.48722557E-18  -3.50211597E-17  -3.30800254E-17  -1.99810398E-10  -1.18733356E-10  -1.16817096E-07   4.49587292E-08   1.78998528E-07  -3.21668618E-16  -5.67672039E-18   1.54208526E-17   2.02585740E-18   1.70823693E-17  -3.37541244E-11  -4.58769944E-08  -4.66467717E-08   0.00000000E+00  -2.91364798E-08  -1.97312060E-16  -7.00119028E-16  -6.86550414E-16   2.43290890E-17
   3.93750000E+02   5.00000000E-01   5.00000000E-01  -1.31408264E-07  -4.49136849E-08   0.00000000E+00   0.00000000E+00   0.00000000E+00   1.45682399E-08   0.00000000E+00   1.09480821E-18   2.38533830E-08   1.84845278E-16   6.33322368E-08  -3.60748173E-17  -3.49472407E-18  -3.49889671E-17  -3.31074660E-17  -1.99767515E-10  -1.15841812E-10  -1.16817096E-07   4.35945390E-08   1.79774602E-07  -3.21721989E-16  -5.64041098E-18   1.48407553E-17   2.17602192E-18   1.68985699E-17  -3.37663403E-11  -4.58877878E-08  -4.66467717E-08   0.00000000E+00  -2.91364798E-08  -1.97312037E-16  -7.00119028E-16  -6.86551281E-16   2.42573222E-17
   4.11250000E+02   5.00000000E-01   5.00000000E-01  -1.31408263E-07  -4.46145285E-08   0.00000000E+00   0.00000000E+00   0.00000000E+00   1.45682398E-08   0.00000000E+00   1.17987182E-18   2.15437987E-08   2.00181270E-16   6.50732661E-08  -3.60671864E-17  -3.50191049E-18  -3.49561994E-17  -3.31337214E-17  -1.99722926E-10  -1.12955306E-10  -1.16817096E-07   4.22536620E-08   1.80538863E-07  -3.21776013E-16  -5.60437307E-18   1.42765714E-17   2.32476516E-18   1.67128443E-17  -3.37779977E-11  -4.58972439E-08  -4.66467717E-08   0.00000000E+00  -2.91364797E-08  -1.97312005E-16  -7.00119028E-16  -6.86552194E-16   2.41802628E-17
   4.28750000E+02   5.00000000E-01   5.00000000E-01  -1.31408261E-07  -4.43013311E-08   0.00000000E+00   0.00000000E+00   0.00000000E+00   1.45682398E-08   0.00000000E+00   1.26813518E-18   1.94289085E-08   2.16497728E-16   6.66073197E-08  -3.60595938E-17  -3.50889976E-18  -3.49236822E-17  -3.31601389E-17  -1.99676539E-10  -1.10073652E-10  -1.16817095E-07   4.09279478E-08   1.81297569E-07  -3.21830714E-16  -5.56913751E-18   1.37232341E-17   2.46980248E-18   1.65201954E-17  -3.37892625E-11  -4.59055705E-08  -4.66467717E-08   0.00000000E+00  -2.91364796E-08  -1.97311989E-16  -7.00119028E-16  -6.86553143E-16   2.40981227E-17
   4.46250000E+02   5.00000000E-01   5.00000000E-01  -1.31408259E-07  -4.39737335E-08   0.00000000E+00   0.00000000E+00   0.00000000E+00   1.45682397E-08   0.00000000E+00   1.36000251E-18   1.74988716E-08   2.33944210E-16   6.79307232E-08  -3.60522703E-17  -3.51581899E-18  -3.48924744E-17  -3.31883242E-17  -1.99628223E-10  -1.07194244E-10  -1.16817095E-07   3.96092510E-08   1.82057023E-07  -3.21886498E-16  -5.53533893E-18   1.31755009E-17   2.60840874E-18   1.63150488E-17  -3.38003233E-11  -4.59130265E-08  -4.66467717E-08   0.00000000E+00  -2.91364795E-08  -1.97312015E-16  -7.00119028E-16  -6.86554118E-16   2.40114492E-17
   4.63750000E+02   5.00000000E-01   5.00000000E-01  -1.31408257E-07  -4.36311120E-08   0.00000000E+00   0.00000000E+00   0.00000000E+00   1.45682397E-08   0.00000000E+00   1.45603695E-18   1.57426525E-08   2.52693837E-16   6.90420543E-08  -3.60454783E-17  -3.52279407E-18  -3.48637740E-17  -3.32199725E-17  -1.99577816E-10  -1.04312421E-10  -1.16817095E-07   3.82901364E-08   1.82822997E-07  -3.21943930E-16  -5.50366451E-18   1.26284582E-17   2.73763996E-18   1.60918171E-17  -3.38113706E-11  -4.59199020E-08  -4.66467717E-08   0.00000000E+00  -2.91364794E-08  -1.97312115E-16  -7.00119028E-16  -6.86555109E-16   2.39210373E-17
   4.81250000E+02   5.00000000E-01   5.00000000E-01  -1.31408254E-07  -4.32725973E-08   0.00000000E+00   0.00000000E+00   0.00000000E+00   1.45682396E-08   0.00000000E+00   1.55694190E-18   1.41485959E-08   2.72937115E-16   6.99422306E-08  -3.60394899E-17  -3.52993819E-18  -3.48388201E-17  -3.32567104E-17  -1.99525124E-10  -1.01421981E-10  -1.16817095E-07   3.69644320E-08   1.83600351E-07  -3.22003575E-16  -5.47480187E-18   1.20779246E-17   2.85455788E-18   1.58454036E-17  -3.38225790E-11  -4.59265010E-08  -4.66467717E-08   0.00000000E+00  -2.91364793E-08  -1.97312318E-16  -7.00119028E-16  -6.86556108E-16   2.38278409E-17
   4.98750000E+02   5.00000000E-01   5.00000000E-01  -1.31408251E-07  -4.28907786E-08   0.00000000E+00   0.00000000E+00   0.00000000E+00   1.45682396E-08   0.00000000E+00   1.66702090E-18   1.26885323E-08   2.95503565E-16   7.04865728E-08  -3.60364125E-17  -3.53821678E-18  -3.48272251E-17  -3.33122487E-17  -1.99469154E-10  -9.84633245E-11  -1.16817095E-07   3.55635673E-08   1.84451889E-07  -3.22072957E-16  -5.45431554E-18   1.14834101E-17   2.93533986E-18   1.55267462E-17  -3.38353495E-11  -4.59331259E-08  -4.66467717E-08   0.00000000E+00  -2.91364791E-08  -1.97312872E-16  -7.00119028E-16  -6.86557097E-16   2.37359119E-17
   5.16250000E+02   5.00000000E-01   5.00000000E-01  -1.31408248E-07  -4.24886852E-08   0.00000000E+00   0.00000000E+00   0.00000000E+00   1.45682395E-08   0.00000000E+00   1.78488335E-18   1.13836500E-08   3.20268043E-16   7.08918996E-08  -3.60349132E-17  -3.54688988E-18  -3.48228739E-17  -3.33767753E-17  -1.99410205E-10  -9.54669243E-11  -1.16817095E-07   3.41463013E-08   1.85308962E-07  -3.22145558E-16  -5.43846481E-18   1.08783305E-17   2.99605718E-18   1.51738855E-17  -3.38486536E-11  -4.59401556E-08  -4.66467717E-08   0.00000000E+00  -2.91364790E-08  -1.97313608E-16  -7.00119028E-16  -6.86558080E-16   2.36447552E-17
   5.33750000E+02   5.00000000E-01   5.00000000E-01  -1.31408244E-07  -4.20659647E-08   0.00000000E+00   0.00000000E+00   0.00000000E+00   1.45682395E-08   0.00000000E+00   1.91099760E-18   1.02108753E-08   3.47336359E-16   7.11222981E-08  -3.60348335E-17  -3.55582976E-18  -3.48250241E-17  -3.34487241E-17  -1.99348152E-10  -9.24342329E-11  -1.16817094E-07   3.27231673E-08   1.86176034E-07  -3.22220236E-16  -5.42677407E-18   1.02686035E-17   3.03878296E-18   1.47933504E-17  -3.38623207E-11  -4.59478125E-08  -4.66467717E-08   0.00000000E+00  -2.91364789E-08  -1.97314501E-16  -7.00119028E-16  -6.86559056E-16   2.35547518E-17
   5.51250000E+02   5.00000000E-01   5.00000000E-01  -1.31408240E-07  -4.16206709E-08   0.00000000E+00   0.00000000E+00   0.00000000E+00   1.45682394E-08   0.00000000E+00   2.04670386E-18   9.15459720E-09   3.76946198E-16   7.11600443E-08  -3.60364252E-17  -3.56509852E-18  -3.48348033E-17  -3.35292135E-17  -1.99282674E-10  -8.93548079E-11  -1.16817094E-07   3.12893916E-08   1.87060994E-07  -3.22297318E-16  -5.41991096E-18   9.65163950E-18   3.06069990E-18   1.43814085E-17  -3.38764482E-11  -4.59562420E-08  -4.66467717E-08   0.00000000E+00  -2.91364788E-08  -1.97315577E-16  -7.00119028E-16  -6.86560020E-16   2.34667376E-17
   5.68750000E+02   5.00000000E-01   5.00000000E-01  -1.31408235E-07  -4.11507486E-08   0.00000000E+00   0.00000000E+00   0.00000000E+00   1.45682393E-08   0.00000000E+00   2.19346078E-18   8.20392702E-09   4.09351842E-16   7.10103424E-08  -3.60398777E-17  -3.57472274E-18  -3.48530516E-17  -3.36188858E-17  -1.99213432E-10  -8.62185057E-11  -1.16817094E-07   2.98423788E-08   1.87966076E-07  -3.22376750E-16  -5.41839157E-18   9.02626519E-18   3.05964628E-18   1.39359357E-17  -3.38910833E-11  -4.59654858E-08  -4.66467717E-08   0.00000000E+00  -2.91364787E-08  -1.97316854E-16  -7.00119028E-16  -6.86560967E-16   2.33815271E-17
   5.86250000E+02   5.00000000E-01   5.00000000E-01  -1.31408230E-07  -4.06543691E-08   0.00000000E+00   0.00000000E+00   0.00000000E+00   1.45682393E-08   0.00000000E+00   2.35270222E-18   7.34939527E-09   4.44805227E-16   7.06844112E-08  -3.60452545E-17  -3.58467324E-18  -3.48800316E-17  -3.37175613E-17  -1.99140103E-10  -8.30177519E-11  -1.16817094E-07   2.83833066E-08   1.88890403E-07  -3.22457994E-16  -5.42241097E-18   8.39357039E-18   3.03483820E-18   1.34576569E-17  -3.39061927E-11  -4.59754668E-08  -4.66467717E-08   0.00000000E+00  -2.91364785E-08  -1.97318335E-16  -7.00119028E-16  -6.86561897E-16   2.32997866E-17
   6.03750000E+02   5.00000000E-01   5.00000000E-01  -1.31408224E-07  -4.01300459E-08   0.00000000E+00   0.00000000E+00   0.00000000E+00   1.45682392E-08   0.00000000E+00   2.52580577E-18   6.58232788E-09   4.83560016E-16   7.01956384E-08  -3.60525022E-17  -3.59487755E-18  -3.49154744E-17  -3.38243703E-17  -1.99062384E-10  -7.97479658E-11  -1.16817093E-07   2.69162687E-08   1.89831150E-07  -3.22540172E-16  -5.43187081E-18   7.75635784E-18   2.98674784E-18   1.29496455E-17  -3.39216799E-11  -4.59860008E-08  -4.66467717E-08   0.00000000E+00  -2.91364784E-08  -1.97320011E-16  -7.00119028E-16  -6.86562806E-16   2.32219976E-17
   6.21250000E+02   5.00000000E-01   5.00000000E-01  -1.31408217E-07  -3.95766875E-08   0.00000000E+00   0.00000000E+00   0.00000000E+00   1.45682391E-08   0.00000000E+00   2.71409013E-18   5.89466587E-09   5.25881512E-16   6.95580583E-08  -3.60614760E-17  -3.60523665E-18  -3.49586980E-17  -3.39379647E-17  -1.98979998E-10  -7.64074935E-11  -1.16817093E-07   2.54471775E-08   1.90784376E-07  -3.22622228E-16  -5.44644458E-18   7.11845524E-18   2.91682069E-18   1.24165743E-17  -3.39374076E-11  -4.59968317E-08  -4.66467717E-08  -2.12703037E-32  -2.91364783E-08  -1.97321864E-16  -7.00119028E-16  -6.86563696E-16   2.31484564E-17
   6.38750000E+02   5.00000000E-01   5.00000000E-01  -1.31408209E-07  -3.89935869E-08   0.00000000E+00   0.00000000E+00   0.00000000E+00   1.45682391E-08   0.00000000E+00   2.91883863E-18   5.27885954E-09   5.72058814E-16   6.87850115E-08  -3.60719737E-17  -3.61564181E-18  -3.50087604E-17  -3.40567553E-17  -1.98892685E-10  -7.29971529E-11  -1.16817093E-07   2.39826682E-08   1.91745807E-07  -3.22703082E-16  -5.46566137E-18   6.48404116E-18   2.82711532E-18   1.18639036E-17  -3.39532222E-11  -4.60076750E-08  -4.66467717E-08  -4.04153009E-32  -2.91364781E-08  -1.97323868E-16  -7.00119028E-16  -6.86564565E-16   2.30793013E-17
   6.56250000E+02   5.00000000E-01   5.00000000E-01  -1.31408201E-07  -3.83803486E-08   0.00000000E+00   0.00000000E+00   0.00000000E+00   1.45682390E-08   0.00000000E+00   3.14134955E-18   4.72781222E-09   6.22417718E-16   6.78879822E-08  -3.60837706E-17  -3.62598934E-18  -3.50646230E-17  -3.41791359E-17  -1.98800195E-10  -6.95194645E-11  -1.16817093E-07   2.25291060E-08   1.92711536E-07  -3.22781750E-16  -5.48899606E-18   5.85705914E-18   2.71991683E-18   1.12971112E-17  -3.39689745E-11  -4.60182602E-08  -4.66467717E-08  -7.62978213E-32  -2.91364780E-08  -1.97325998E-16  -7.00119028E-16  -6.86565414E-16   2.30145555E-17
   6.73750000E+02   5.00000000E-01   5.00000000E-01  -1.31408191E-07  -3.77367859E-08   0.00000000E+00   0.00000000E+00   0.00000000E+00   1.45682389E-08   0.00000000E+00   3.38299802E-18   4.23488120E-09   6.77331417E-16   6.68761360E-08  -3.60966487E-17  -3.63619029E-18  -3.51252809E-17  -3.43036468E-17  -1.98702270E-10  -6.59778327E-11  -1.16817092E-07   2.10919015E-08   1.93678442E-07  -3.22857430E-16  -5.51594296E-18   5.24083264E-18   2.59742262E-18   1.07211314E-17  -3.39845350E-11  -4.60283605E-08  -4.66467717E-08  -1.42923282E-31  -2.91364778E-08  -1.97328229E-16  -7.00119028E-16  -6.86566243E-16   2.29541726E-17
   6.91250000E+02   5.00000000E-01   5.00000000E-01  -1.31408179E-07  -3.70627610E-08   0.00000000E+00   0.00000000E+00   0.00000000E+00   1.45682389E-08   0.00000000E+00   3.64532700E-18   3.79388407E-09   7.37233445E-16   6.57556138E-08  -3.61104220E-17  -3.64617714E-18  -3.51898762E-17  -3.44290999E-17  -1.98598632E-10  -6.23755344E-11  -1.16817092E-07   1.96749502E-08   1.94644583E-07  -3.22929537E-16  -5.54608435E-18   4.63778466E-18   2.46145080E-18   1.01398967E-17  -3.39998031E-11  -4.60378088E-08  -4.66467717E-08  -2.65195869E-31  -2.91364777E-08  -1.97330540E-16  -7.00119028E-16  -6.86567051E-16   2.28980830E-17
   7.08750000E+02   5.00000000E-01   5.00000000E-01  -1.31408166E-07  -3.63580919E-08   0.00000000E+00   0.00000000E+00   0.00000000E+00   1.45682388E-08   0.00000000E+00   3.93011051E-18   3.39916006E-09   8.02623053E-16   6.45305663E-08  -3.61249418E-17  -3.65590298E-18  -3.52577242E-17  -3.45545896E-17  -1.98488964E-10  -5.87152249E-11  -1.16817092E-07   1.82806385E-08   1.95609016E-07  -3.22997694E-16  -5.57910798E-18   4.04947272E-18   2.31336727E-18   9.55629800E-18  -3.40147073E-11  -4.60465007E-08  -4.66467717E-08  -8.62240595E-17  -2.91364776E-08  -1.97332917E-16  -7.00119028E-16  -6.86567839E-16   2.28462214E-17
   7.26250000E+02   5.00000000E-01   5.00000000E-01  -1.31408152E-07  -3.56224755E-08   0.00000000E+00   0.00000000E+00   0.00000000E+00   1.45682387E-08   0.00000000E+00   4.23941507E-18   3.04557675E-09   8.74068104E-16   6.32035960E-08  -3.61400966E-17  -3.66533861E-18  -3.53283099E-17  -3.46794662E-17  -1.98372912E-10  -5.49986086E-11  -1.16817091E-07   1.69099937E-08   1.96571644E-07  -3.23061701E-16  -5.61480807E-18   3.47670540E-18   2.15408268E-18   8.97226803E-18  -3.40292014E-11  -4.60543886E-08  -4.66467717E-08  -3.01763994E-16  -2.91364774E-08  -1.97335347E-16  -7.00119028E-16  -6.86568607E-16   2.27985426E-17
   7.43750000E+02   5.00000000E-01   5.00000000E-01  -1.31408136E-07  -3.48554298E-08   0.00000000E+00   0.00000000E+00   0.00000000E+00   1.45682386E-08   0.00000000E+00   4.57565955E-18   2.72852220E-09   9.52205735E-16   6.17762063E-08  -3.61558070E-17  -3.67446877E-18  -3.54012653E-17  -3.48032908E-17  -1.98250067E-10  -5.12262588E-11  -1.16817091E-07   1.55629092E-08   1.97533033E-07  -3.23121491E-16  -5.65307538E-18   2.91969674E-18   1.98409636E-18   8.38893408E-18  -3.40432589E-11  -4.60614722E-08  -4.66467717E-08  -6.04513719E-16  -2.91364773E-08  -1.97337823E-16  -7.00119028E-16  -6.86569355E-16   2.27550285E-17
   7.61250000E+02   5.00000000E-01   5.00000000E-01  -1.31408117E-07  -3.40562613E-08   0.00000000E+00   0.00000000E+00   0.00000000E+00   1.45682386E-08   0.00000000E+00   4.94167091E-18   2.44388503E-09   1.03774002E-15   6.02492916E-08  -3.61720184E-17  -3.68328796E-18  -3.54763339E-17  -3.49257789E-17  -1.98119964E-10  -4.73975983E-11  -1.16817091E-07   1.42384198E-08   1.98494197E-07  -3.23177098E-16  -5.69387850E-18   2.37823786E-18   1.80357667E-18   7.80681500E-18  -3.40568682E-11  -4.60677852E-08  -4.66467717E-08  -9.83933672E-16  -2.91364772E-08  -1.97340341E-16  -7.00119028E-16  -6.86570081E-16   2.27156873E-17
   7.78750000E+02   5.00000000E-01   5.00000000E-01  -1.31408096E-07  -3.32240684E-08   0.00000000E+00   0.00000000E+00   0.00000000E+00   1.45682385E-08   0.00000000E+00   5.34073213E-18   2.18802590E-09   1.13143566E-15   5.86236471E-08  -3.61886907E-17  -3.69179643E-18  -3.55533273E-17  -3.50467403E-17  -1.97982075E-10  -4.35110506E-11  -1.16817091E-07   1.29350045E-08   1.99456365E-07  -3.23228620E-16  -5.73723858E-18   1.85187119E-18   1.61246939E-18   7.22604287E-18  -3.40700257E-11  -4.60733804E-08  -4.66467717E-08  -1.39962024E-15  -2.91364770E-08  -1.97342898E-16  -7.00119028E-16  -6.86570786E-16   2.26805469E-17
   7.96250000E+02   5.00000000E-01   5.00000000E-01  -1.31408072E-07  -3.23577925E-08   0.00000000E+00   0.00000000E+00   0.00000000E+00   1.45682384E-08   0.00000000E+00   5.77661432E-18   1.95774488E-09   1.23410613E-15   5.69005389E-08  -3.62057882E-17  -3.69999642E-18  -3.56320762E-17  -3.51660189E-17  -1.97835817E-10  -3.95643990E-11  -1.16817090E-07   1.16509171E-08   2.00420730E-07  -3.23276191E-16  -5.78319769E-18   1.34006251E-18   1.41063201E-18   6.64660264E-18  -3.40827317E-11  -4.60783121E-08  -4.66467717E-08  -1.76017398E-15  -2.91364769E-08  -1.97345492E-16  -7.00119028E-16  -6.86571469E-16   2.26496421E-17