 TITLE = "Mineral Rate (mol/m^3/sec)" 
VARIABLES = "X"          "Y"              "Z"            "Forsterite"     "Fayalite"       "Saponite(Mg)"   "Enstatite(alph" "Ferrosilite(al" "Anorthite"      "Albite(low)"    "Clinochlore"    "Sudoite"        "Montmorillonit" "Kaolinite"      "Tremolite"      "Pargasite"      "Anhydrite"      "Epidote"        "Scolecite"      "Pyrite"         "FeS(am)"        "Quartz(alpha)" 
 ZONE I=         100 , J=           1 , K=           1  F=POINT
   1.75000000E+01   5.00000000E-01   5.00000000E-01  -3.51207359E-07  -4.59189260E-07   3.81588847E-07  -2.00434851E-10  -1.45219404E-10  -1.23631874E-07  -2.07830384E-07   2.66716632E-07  -6.89016870E-15  -4.69997475E-15  -2.93614321E-08  -4.83451607E-08  -4.96227768E-08  -1.51191138E-14  -5.65550265E-16  -2.27297607E-10  -6.89271729E-15  -6.78538551E-15   9.74492503E-18
   5.25000000E+01   5.00000000E-01   5.00000000E-01  -3.51207359E-07  -4.19615556E-07   3.85804441E-07  -2.00429332E-10  -1.19374829E-10  -1.23631874E-07  -1.45498968E-07   2.34723605E-07  -3.60398382E-15  -4.22083181E-15  -2.92675441E-08  -4.83451201E-08  -4.96227768E-08  -1.50555841E-14   1.26219448E-16  -2.27284730E-10  -6.89271729E-15  -6.78385272E-15   1.10526065E-17
   8.75000000E+01   5.00000000E-01   5.00000000E-01  -3.51207359E-07  -3.67135384E-07   3.66422954E-07  -2.00417932E-10  -9.73138991E-11  -1.23631874E-07  -1.19254670E-07   2.24830069E-07  -2.90794536E-15  -3.85764318E-15  -2.92013151E-08  -4.83449733E-08  -4.96227768E-08  -1.49825379E-14   1.62143781E-17  -2.27275335E-10  -6.89271729E-15  -6.78264857E-15   1.12434856E-17
   1.22500000E+02   5.00000000E-01   5.00000000E-01  -3.51207358E-07  -3.12591110E-07   3.40617901E-07  -2.00405171E-10  -7.95481755E-11  -1.23631874E-07  -9.98286917E-08   2.19435092E-07  -2.74844154E-15  -3.46501554E-15  -2.91324787E-08  -4.83449009E-08  -4.96227768E-08  -1.48985003E-14   8.09903311E-19  -2.27265411E-10  -6.89271729E-15  -6.78184500E-15   1.12595081E-17
   1.57500000E+02   5.00000000E-01   5.00000000E-01  -3.51207358E-07  -2.62715724E-07   3.16191445E-07  -2.00391534E-10  -6.57605318E-11  -1.23631874E-07  -8.25929070E-08   2.14890997E-07  -2.72340290E-15  -2.99301887E-15  -2.90537917E-08  -4.83449055E-08  -4.96227768E-08  -1.48017892E-14  -5.30822326E-18  -2.27254027E-10  -6.89271729E-15  -6.78139742E-15   1.12166570E-17
   1.92500000E+02   5.00000000E-01   5.00000000E-01  -3.51207357E-07  -2.20118233E-07   2.95200421E-07  -2.00377006E-10  -5.53154835E-11  -1.23631873E-07  -6.77352100E-08   2.10942550E-07  -2.73675833E-15  -2.44241649E-15  -2.89657326E-08  -4.83448782E-08  -4.96227768E-08  -1.46904705E-14  -1.04391075E-17  -2.27241252E-10  -6.89271729E-15  -6.78122587E-15   1.11255498E-17
   2.27500000E+02   5.00000000E-01   5.00000000E-01  -3.51207356E-07  -1.85143778E-07   2.77952876E-07  -2.00361544E-10  -4.75530695E-11  -1.23631873E-07  -5.55574632E-08   2.07689762E-07  -2.76328248E-15  -1.82455326E-15  -2.88697511E-08  -4.83447925E-08  -4.96227768E-08  -1.45622989E-14  -1.49743929E-17  -2.27227281E-10  -6.89271729E-15  -6.78125485E-15   1.09919698E-17
   2.62500000E+02   5.00000000E-01   5.00000000E-01  -3.51207355E-07  -1.57120665E-07   2.64151667E-07  -2.00345122E-10  -4.18894550E-11  -1.23631873E-07  -4.59964089E-08   2.05152571E-07  -2.79606806E-15  -1.15050947E-15  -2.87668990E-08  -4.83447574E-08  -4.96227768E-08  -1.44146490E-14  -1.87462599E-17  -2.27212251E-10  -6.89271729E-15  -6.78142314E-15   1.08242503E-17
   2.97500000E+02   5.00000000E-01   5.00000000E-01  -3.51207354E-07  -1.35014458E-07   2.53300065E-07  -2.00327726E-10  -3.78421198E-11  -1.23631872E-07  -3.87673150E-08   2.03273612E-07  -2.83323407E-15  -4.28519281E-16  -2.86577323E-08  -4.83447674E-08  -4.96227768E-08  -1.42444412E-14  -2.17115876E-17  -2.27196228E-10  -6.89271729E-15  -6.78168390E-15   1.06310303E-17
   3.32500000E+02   5.00000000E-01   5.00000000E-01  -3.51207352E-07  -1.17746677E-07   2.44870340E-07  -2.00309344E-10  -3.50263152E-11  -1.23631872E-07  -3.35069980E-08   2.01961173E-07  -2.87426966E-15   3.36351586E-16  -2.85424188E-08  -4.83447750E-08  -4.96227768E-08  -1.40480539E-14  -2.39101180E-17  -2.27179215E-10  -6.89271729E-15  -6.78200241E-15   1.04198922E-17
   3.67500000E+02   5.00000000E-01   5.00000000E-01  -3.51207351E-07  -1.04337758E-07   2.38376898E-07  -2.00289964E-10  -3.31419320E-11  -1.23631871E-07  -2.98528815E-08   2.01116414E-07  -2.91893909E-15   1.14174520E-15  -2.84208539E-08  -4.83448177E-08  -4.96227768E-08  -1.38212140E-14  -2.54048501E-17  -2.27161177E-10  -6.89271729E-15  -6.78235343E-15   1.01970057E-17
   4.02500000E+02   5.00000000E-01   5.00000000E-01  -3.51207348E-07  -9.39604558E-08   2.33404417E-07  -2.00269573E-10  -3.19588506E-11  -1.23631869E-07  -2.74778825E-08   2.00646118E-07  -2.96706742E-15   1.98751074E-15  -2.82927585E-08  -4.83448989E-08  -4.96227768E-08  -1.35588684E-14  -2.62543865E-17  -2.27142045E-10  -6.89271729E-15  -6.78271893E-15   9.96717080E-18
   4.37500000E+02   5.00000000E-01   5.00000000E-01  -3.51207346E-07  -8.59449602E-08   2.29610922E-07  -2.00248155E-10  -3.13023709E-11  -1.23631868E-07  -2.61017037E-08   2.00467873E-07  -3.01837067E-15   2.87526041E-15  -2.81577331E-08  -4.83450057E-08  -4.96227768E-08  -1.32550290E-14  -2.65120933E-17  -2.27121730E-10  -6.89271729E-15  -6.78308626E-15   9.73405265E-18
   4.72500000E+02   5.00000000E-01   5.00000000E-01  -3.51207343E-07  -7.97638400E-08   2.26721455E-07  -2.00225694E-10  -3.10407703E-11  -1.23631865E-07  -2.54902978E-08   2.00510908E-07  -3.07232522E-15   3.80806944E-15  -2.80152886E-08  -4.83451332E-08  -4.96227768E-08  -1.29025806E-14  -2.62258139E-17  -2.27100124E-10  -6.89271729E-15  -6.78344666E-15   9.50042614E-18
   5.07500000E+02   5.00000000E-01   5.00000000E-01  -3.51207340E-07  -7.50101158E-08   2.24518341E-07  -2.00202169E-10  -3.10752639E-11  -1.23631862E-07  -2.54507453E-08   2.00715206E-07  -3.12805311E-15   4.79034583E-15  -2.78648630E-08  -4.83452773E-08  -4.96227768E-08  -1.24930477E-14  -2.54397533E-17  -2.27077106E-10  -6.89271729E-15  -6.78379428E-15   9.26837980E-18
   5.42500000E+02   5.00000000E-01   5.00000000E-01  -3.51207337E-07  -7.13743922E-08   2.22830867E-07  -2.00177563E-10  -3.13320285E-11  -1.23631858E-07  -2.58251021E-08   2.01030187E-07  -3.18414318E-15   5.82778591E-15  -2.77058281E-08  -4.83454335E-08  -4.96227768E-08  -1.20163052E-14  -2.41976299E-17  -2.27052537E-10  -6.89271729E-15  -6.78412530E-15   9.03947881E-18
   5.77500000E+02   5.00000000E-01   5.00000000E-01  -3.51207333E-07  -6.86241518E-08   2.21526167E-07  -2.00151855E-10  -3.17560336E-11  -1.23631853E-07  -2.64847133E-08   2.01413420E-07  -3.23838937E-15   6.92736931E-15  -2.75374928E-08  -4.83455984E-08  -4.96227768E-08  -1.14602216E-14  -2.25447826E-17  -2.27026269E-10  -6.89271729E-15  -6.78443743E-15   8.81488713E-18
   6.12500000E+02   5.00000000E-01   5.00000000E-01  -3.51207328E-07  -6.65861639E-08   2.20501731E-07  -2.00125023E-10  -3.23063370E-11  -1.23631846E-07  -2.73255914E-08   2.01829588E-07  -3.28740618E-15   8.09733708E-15  -2.73591081E-08  -4.83457696E-08  -4.96227768E-08  -1.08102149E-14  -2.05294894E-17  -2.26998137E-10  -6.89271729E-15  -6.78472941E-15   8.59545566E-18
   6.47500000E+02   5.00000000E-01   5.00000000E-01  -3.51207324E-07  -6.51320581E-08   2.19679488E-07  -2.00097045E-10  -3.29525242E-11  -1.23631837E-07  -2.82649177E-08   2.02249757E-07  -3.32606165E-15   9.34710273E-15  -2.71698777E-08  -4.83459458E-08  -4.96227768E-08  -1.00486978E-14  -1.82035727E-17  -2.26967966E-10  -6.89271729E-15  -6.78500079E-15   8.38178464E-18
   6.82500000E+02   5.00000000E-01   5.00000000E-01  -3.51207319E-07  -6.41667665E-08   2.19001217E-07  -2.00067899E-10  -3.36720281E-11  -1.23631825E-07  -2.92384672E-08   2.02650884E-07  -3.34664461E-15   1.06870607E-14  -2.69689752E-08  -4.83461265E-08  -4.96227768E-08  -9.15438211E-15  -1.56219671E-17  -2.26935575E-10  -6.89271729E-15  -6.78525162E-15   8.17426798E-18
   7.17500000E+02   5.00000000E-01   5.00000000E-01  -3.51207314E-07  -6.36194405E-08   2.18424988E-07  -2.00037561E-10  -3.44481192E-11  -1.23631810E-07  -3.01986637E-08   2.03015478E-07  -3.33764662E-15   1.21282700E-14  -2.67555709E-08  -4.83463116E-08  -4.96227768E-08  -8.10140231E-15  -1.28415833E-17  -2.26900776E-10  -6.89271729E-15  -6.78548237E-15   7.97312579E-18
   7.52500000E+02   5.00000000E-01   5.00000000E-01  -3.51207309E-07  -6.34364553E-08   2.17922325E-07  -2.00006004E-10  -3.52684038E-11  -1.23631791E-07  -3.11129653E-08   2.03331309E-07  -3.28198796E-15   1.36820067E-14  -2.65288650E-08  -4.83465017E-08  -4.96227768E-08  -6.85820539E-15  -9.91951697E-18  -2.26863380E-10  -6.89271729E-15  -6.78569376E-15   7.77843008E-18
   7.87500000E+02   5.00000000E-01   5.00000000E-01  -3.51207305E-07  -6.35761579E-08   2.17475840E-07  -1.99973202E-10  -3.61237047E-11  -1.23631766E-07  -3.19623258E-08   2.03591078E-07  -3.15444505E-15   1.53591891E-14  -2.62881272E-08  -4.83466968E-08  -4.96227768E-08  -5.38613940E-15  -6.91084608E-18  -2.26823206E-10  -6.89271729E-15  -6.78588668E-15   7.59012725E-18
   8.22500000E+02   5.00000000E-01   5.00000000E-01  -3.51207303E-07  -6.40050519E-08   2.17077147E-07  -1.99939124E-10  -3.70072289E-11  -1.23631734E-07  -3.27395554E-08   2.03791994E-07  -2.91793606E-15   1.71696971E-14  -2.60327379E-08  -4.83468961E-08  -4.96227768E-08  -3.63764914E-15  -3.86641742E-18  -2.26780085E-10  -6.89271729E-15  -6.78606214E-15   7.40805970E-18
   8.57500000E+02   5.00000000E-01   5.00000000E-01  -3.51207305E-07  -6.46951359E-08   2.16724941E-07  -1.99903739E-10  -3.79139464E-11  -1.23631693E-07  -3.34474921E-08   2.03935224E-07  -2.51818319E-15   1.91216145E-14  -2.57622270E-08  -4.83470968E-08  -4.96227768E-08  -1.55395868E-15  -8.30865906E-19  -2.26733866E-10  -6.89271729E-15  -6.78622124E-15   7.23198763E-18
   8.92500000E+02   5.00000000E-01   5.00000000E-01  -3.51207312E-07  -6.56221332E-08   2.16423182E-07  -1.99867013E-10  -3.88401239E-11  -1.23631642E-07  -3.40969792E-08   2.04025230E-07  -1.87608938E-15   2.12204338E-14  -2.54763086E-08  -4.83472960E-08  -4.96227768E-08   9.37920587E-16   2.15880835E-18  -2.26684419E-10  -6.89271729E-15  -6.78636507E-15   7.06161131E-18
   9.27500000E+02   5.00000000E-01   5.00000000E-01  -3.51207327E-07  -6.67643817E-08   2.16179389E-07  -1.99828908E-10  -3.97829690E-11  -1.23631576E-07  -3.47047179E-08   2.04069004E-07  -8.76942828E-16   2.34682790E-14  -2.51749062E-08  -4.83474923E-08  -4.96227768E-08   3.92907260E-15   5.07381277E-18  -2.26631646E-10  -6.89271729E-15  -6.78649477E-15   6.89659303E-18
   9.62500000E+02   5.00000000E-01   5.00000000E-01  -3.51207356E-07  -6.81021923E-08   2.16003110E-07  -1.99789384E-10  -4.07403605E-11  -1.23631494E-07  -3.52911018E-08   2.04075263E-07   6.44709869E-16   2.58632137E-14  -2.48581683E-08  -4.83476895E-08  -4.96227768E-08   7.53374149E-15   7.89369593E-18  -2.26575474E-10  -6.89271729E-15  -6.78661144E-15   6.73657764E-18
   9.97500000E+02   5.00000000E-01   5.00000000E-01  -3.51207407E-07  -6.96175345E-08   2.15904623E-07  -1.99748400E-10  -4.17106508E-11  -1.23631391E-07  -3.58781615E-08   2.04053649E-07   2.92603171E-15   2.83987263E-14  -2.45264721E-08  -4.83478957E-08  -4.96227768E-08   1.18959743E-14   1.06055645E-17  -2.26515864E-10  -6.89271729E-15  -6.78671615E-15   6.58120989E-18
   1.03250000E+03   5.00000000E-01   5.00000000E-01  -3.51207488E-07  -7.12939368E-08   2.15893937E-07  -1.99705911E-10  -4.26925325E-11  -1.23631262E-07  -3.64877366E-08   2.04013971E-07   6.30475928E-15   3.10634922E-14  -2.41804154E-08  -4.83481143E-08  -4.96227768E-08   1.71983827E-14   1.32031522E-17  -2.26452804E-10  -6.89271729E-15  -6.78680995E-15   6.43014745E-18
   1.06750000E+03   5.00000000E-01   5.00000000E-01  -3.51207617E-07  -7.31163714E-08   2.15979969E-07  -1.99661871E-10  -4.36849271E-11  -1.23631101E-07  -3.71400036E-08   2.03965596E-07   1.12587040E-14   3.38413781E-14  -2.38207988E-08  -4.83483339E-08  -4.96227768E-08   2.36737715E-14   1.56850855E-17  -2.26386310E-10  -6.89271729E-15  -6.78689382E-15   6.28307022E-18
   1.10250000E+03   5.00000000E-01   5.00000000E-01  -3.51207813E-07  -7.50708593E-08   2.16169734E-07  -1.99616233E-10  -4.46868367E-11  -1.23630901E-07  -3.78524434E-08   2.03917046E-07   1.84586835E-14   3.67114838E-14  -2.34486058E-08  -4.83485358E-08  -4.96227768E-08   3.16206621E-14   1.80526587E-17  -2.26316418E-10  -6.89271729E-15  -6.78696867E-15   6.13968844E-18
   1.13750000E+03   5.00000000E-01   5.00000000E-01  -3.51208108E-07  -7.71439770E-08   2.16467806E-07  -1.99568949E-10  -4.56971945E-11  -1.23630655E-07  -3.86391650E-08   2.03875733E-07   2.88370908E-14   3.96482962E-14  -2.30649820E-08  -4.83487152E-08  -4.96227768E-08   4.14241374E-14   2.03082553E-17  -2.26243187E-10  -6.89271729E-15  -6.78703540E-15   5.99974880E-18
   1.17250000E+03   5.00000000E-01   5.00000000E-01  -3.51208542E-07  -7.93225344E-08   2.16876233E-07  -1.99519966E-10  -4.67147755E-11  -1.23630351E-07  -3.95104919E-08   2.03847743E-07   4.36741220E-14   4.26222347E-14  -2.26712114E-08  -4.83488950E-08  -4.96227768E-08   5.35839901E-14   2.24544292E-17  -2.26166688E-10  -6.89271729E-15  -6.78709479E-15   5.86303645E-18
   1.20750000E+03   5.00000000E-01   5.00000000E-01  -3.51209163E-07  -8.15935547E-08   2.17394876E-07  -1.99469234E-10  -4.77382047E-11  -1.23629979E-07  -4.04727611E-08   2.03837641E-07   6.47060022E-14   4.56008500E-14  -2.22686843E-08  -4.83491099E-08  -4.96227768E-08   6.87529795E-14   2.44938555E-17  -2.26087004E-10  -6.89271729E-15  -6.78714760E-15   5.72937128E-18
   1.24250000E+03   5.00000000E-01   5.00000000E-01  -3.51210024E-07  -8.39445493E-08   2.18022057E-07  -1.99416701E-10  -4.87660604E-11  -1.23629524E-07  -4.15283036E-08   2.03848311E-07   9.42694429E-14   4.85508382E-14  -2.18588516E-08  -4.83493492E-08  -4.96227768E-08   8.77892360E-14   2.64293599E-17  -2.26004214E-10  -6.89271729E-15  -6.78719451E-15   5.59859861E-18
   1.27750000E+03   5.00000000E-01   5.00000000E-01  -3.51211185E-07  -8.63629017E-08   2.18754200E-07  -1.99362315E-10  -4.97968009E-11  -1.23628970E-07  -4.26759550E-08   2.03881241E-07   1.35485033E-13   5.14389820E-14  -2.14431994E-08  -4.83495443E-08  -4.96227768E-08   1.11828565E-13   2.82614416E-17  -2.25918394E-10  -6.89271729E-15  -6.78723614E-15   5.47058442E-18
   1.31250000E+03   5.00000000E-01   5.00000000E-01  -3.51212714E-07  -8.88344084E-08   2.19584829E-07  -1.99306025E-10  -5.08284835E-11  -1.23628298E-07  -4.39118517E-08   2.03937107E-07   1.92444886E-13   5.42313122E-14  -2.10232609E-08  -4.83496466E-08  -4.96227768E-08   1.42384744E-13   2.99861759E-17  -2.25829616E-10  -6.89271729E-15  -6.78727305E-15   5.34521965E-18
   1.34750000E+03   5.00000000E-01   5.00000000E-01  -3.51214677E-07  -9.13425467E-08   2.20504611E-07  -1.99247775E-10  -5.18586070E-11  -1.23627486E-07  -4.52298292E-08   2.04015967E-07   2.70365391E-13   5.68929223E-14  -2.06006247E-08  -4.83497014E-08  -4.96227768E-08   1.81489371E-13   3.15968352E-17  -2.25737951E-10  -6.89271729E-15  -6.78730576E-15   5.22242381E-18
   1.38250000E+03   5.00000000E-01   5.00000000E-01  -3.51217095E-07  -9.38675928E-08   2.21501084E-07  -1.99187501E-10  -5.28839125E-11  -1.23626506E-07  -4.66219175E-08   2.04117594E-07   3.75553902E-13   5.93870478E-14  -2.01769699E-08  -4.83499516E-08  -4.96227768E-08   2.31887483E-13   3.30837597E-17  -2.25643477E-10  -6.89271729E-15  -6.78733473E-15   5.10215060E-18
   1.41750000E+03   5.00000000E-01   5.00000000E-01  -3.51219858E-07  -9.63896482E-08   2.22562529E-07  -1.99125138E-10  -5.39010336E-11  -1.23625328E-07  -4.80772766E-08   2.04240152E-07   5.15500221E-13   6.16826674E-14  -1.97539330E-08  -4.83506214E-08  -4.96227768E-08   2.97314031E-13   3.44427479E-17  -2.25546248E-10  -6.89271729E-15  -6.78736038E-15   4.98436693E-18
   1.45250000E+03   5.00000000E-01   5.00000000E-01  -3.51222805E-07  -9.88975774E-08   2.23687651E-07  -1.99060656E-10  -5.49085952E-11  -1.23623917E-07  -4.95793033E-08   2.04376576E-07   7.01002761E-13   6.37788014E-14  -1.93325903E-08  -4.83511218E-08  -4.96227768E-08   3.82894884E-13   3.56866845E-17  -2.25446177E-10  -6.89271729E-15  -6.78738307E-15   4.86897576E-18
   1.48750000E+03   5.00000000E-01   5.00000000E-01  -3.51225969E-07  -1.01369800E-07   2.24861835E-07  -1.98994006E-10  -5.59034325E-11  -1.23622230E-07  -5.11156136E-08   2.04524443E-07   9.45192066E-13   6.56597419E-14  -1.89142948E-08  -4.83512580E-08  -4.96227768E-08   4.95718211E-13   3.67895205E-17  -2.25343225E-10  -6.89271729E-15  -6.78740315E-15   4.75590031E-18
   1.52250000E+03   5.00000000E-01   5.00000000E-01  -3.51229383E-07  -1.03769944E-07   2.26055504E-07  -1.98925098E-10  -5.68792198E-11  -1.23620218E-07  -5.26778454E-08   2.04686538E-07   1.25912985E-12   6.72787194E-14  -1.85010563E-08  -4.83518027E-08  -4.96227768E-08   6.45645366E-13   3.77174751E-17  -2.25237479E-10  -6.89271729E-15  -6.78742090E-15   4.64515897E-18
   1.55750000E+03   5.00000000E-01   5.00000000E-01  -3.51232892E-07  -1.06069827E-07   2.27253198E-07  -1.98853858E-10  -5.78310048E-11  -1.23617825E-07  -5.42498522E-08   2.04858806E-07   1.65457279E-12   6.86200365E-14  -1.80943447E-08  -4.83530352E-08  -4.96227768E-08   8.46499503E-13   3.84802713E-17  -2.25128893E-10  -6.89271729E-15  -6.78743661E-15   4.53676435E-18
   1.59250000E+03   5.00000000E-01   5.00000000E-01  -3.51236469E-07  -1.08256935E-07   2.28459057E-07  -1.98780277E-10  -5.87573795E-11  -1.23614984E-07  -5.58072214E-08   2.05028448E-07   2.15566318E-12   6.97277756E-14  -1.76943891E-08  -4.83538823E-08  -4.96227768E-08   1.11784863E-12   3.90995598E-17  -2.25017124E-10  -6.89271729E-15  -6.78745049E-15   4.43061659E-18
   1.62750000E+03   5.00000000E-01   5.00000000E-01  -3.51240177E-07  -1.10299218E-07   2.29651072E-07  -1.98704309E-10  -5.96536205E-11  -1.23611618E-07  -5.73361111E-08   2.05193221E-07   2.78721077E-12   7.06018490E-14  -1.73022555E-08  -4.83540910E-08  -4.96227768E-08   1.48760557E-12   3.95360713E-17  -2.24901984E-10  -6.89271729E-15  -6.78746277E-15   4.32664677E-18
   1.66250000E+03   5.00000000E-01   5.00000000E-01  -3.51243896E-07  -1.12153023E-07   2.30796071E-07  -1.98625868E-10  -6.05125591E-11  -1.23607636E-07  -5.88254442E-08   2.05354706E-07   3.56584359E-12   7.12150978E-14  -1.69195450E-08  -4.83540043E-08  -4.96227768E-08   1.99587365E-12   3.97667560E-17  -2.24783382E-10  -6.89271729E-15  -6.78747363E-15   4.22485724E-18
   1.69750000E+03   5.00000000E-01   5.00000000E-01  -3.51247607E-07  -1.13782233E-07   2.31876040E-07  -1.98544893E-10  -6.13284236E-11  -1.23602935E-07  -6.02566347E-08   2.05507347E-07   4.51323594E-12   7.15761520E-14  -1.65470830E-08  -4.83537758E-08  -4.96227768E-08   2.70071629E-12   3.98011011E-17  -2.24661027E-10  -6.89271729E-15  -6.78748323E-15   4.12523931E-18
   1.73250000E+03   5.00000000E-01   5.00000000E-01  -3.51251469E-07  -1.15151359E-07   2.32875994E-07  -1.98461341E-10  -6.20959000E-11  -1.23597391E-07  -6.16093054E-08   2.05643723E-07   5.66020523E-12   7.17099032E-14  -1.61852765E-08  -4.83535121E-08  -4.96227768E-08   3.68682838E-12   3.96384131E-17  -2.24534496E-10  -6.89271729E-15  -6.78749172E-15   4.02775946E-18
   1.76750000E+03   5.00000000E-01   5.00000000E-01  -3.51255462E-07  -1.16215496E-07   2.33768618E-07  -1.98375143E-10  -6.28080640E-11  -1.23590862E-07  -6.28666494E-08   2.05760663E-07   7.02836054E-12   7.16212305E-14  -1.58349021E-08  -4.83533189E-08  -4.96227768E-08   5.07866299E-12   3.92651128E-17  -2.24403403E-10  -6.89271729E-15  -6.78749923E-15   3.93240508E-18
   1.80250000E+03   5.00000000E-01   5.00000000E-01  -3.51259447E-07  -1.16925819E-07   2.34523915E-07  -1.98286222E-10  -6.34572792E-11  -1.23583182E-07  -6.40111471E-08   2.05855094E-07   8.62529032E-12   7.13128131E-14  -1.54967297E-08  -4.83532639E-08  -4.96227768E-08   7.06041211E-12   3.86783778E-17  -2.24267318E-10  -6.89271729E-15  -6.78750588E-15   3.83918482E-18
   1.83750000E+03   5.00000000E-01   5.00000000E-01  -3.51263207E-07  -1.17232252E-07   2.35113702E-07  -1.98194499E-10  -6.40358193E-11  -1.23574155E-07  -6.50229856E-08   2.05922234E-07   1.04452867E-11   7.07960251E-14  -1.51712781E-08  -4.83535449E-08  -4.96227768E-08   9.90646080E-12   3.78819021E-17  -2.24125694E-10  -6.89271729E-15  -6.78751176E-15   3.74811460E-18
   1.87250000E+03   5.00000000E-01   5.00000000E-01  -3.51266533E-07  -1.17084920E-07   2.35512913E-07  -1.98099907E-10  -6.45362958E-11  -1.23563552E-07  -6.58796482E-08   2.05954953E-07   1.24797042E-11   7.00963852E-14  -1.48586287E-08  -4.83542815E-08  -4.96227768E-08   1.40281142E-11   3.68831836E-17  -2.23977822E-10  -6.89271729E-15  -6.78751696E-15   3.65920094E-18
   1.90750000E+03   5.00000000E-01   5.00000000E-01  -3.51269470E-07  -1.16437993E-07   2.35704032E-07  -1.98002421E-10  -6.49525843E-11  -1.23551100E-07  -6.65544085E-08   2.05941698E-07   1.47632532E-11   6.92660407E-14  -1.45579640E-08  -4.83550072E-08  -4.96227768E-08   2.00460693E-11   3.56951868E-17  -2.23822692E-10  -6.89271729E-15  -6.78752158E-15   3.57241054E-18
   1.94250000E+03   5.00000000E-01   5.00000000E-01  -3.51272217E-07  -1.15240488E-07   2.35663638E-07  -1.97902027E-10  -6.52782653E-11  -1.23536470E-07  -6.70218303E-08   2.05872318E-07   1.73630428E-11   6.83514974E-14  -1.42683328E-08  -4.83552486E-08  -4.96227768E-08   2.89026672E-11   3.43234416E-17  -2.23659158E-10  -6.89271729E-15  -6.78752566E-15   3.48769112E-18
   1.97750000E+03   5.00000000E-01   5.00000000E-01  -3.51274872E-07  -1.13430250E-07   2.35354850E-07  -1.97798680E-10  -6.55053612E-11  -1.23519281E-07  -6.72601291E-08   2.05741291E-07   2.03213827E-11   6.73707664E-14  -1.39893070E-08  -4.83550586E-08  -4.96227768E-08   4.20356249E-11   3.27722189E-17  -2.23486088E-10  -6.89271729E-15  -6.78752928E-15   3.40501294E-18
   2.01250000E+03   5.00000000E-01   5.00000000E-01  -3.51277454E-07  -1.10938815E-07   2.34734406E-07  -1.97692309E-10  -6.56250038E-11  -1.23499080E-07  -6.72476349E-08   2.05544506E-07   2.36313977E-11   6.63267394E-14  -1.37206976E-08  -4.83546426E-08  -4.96227768E-08   6.16484461E-11   3.10545143E-17  -2.23302297E-10  -6.89271729E-15  -6.78753250E-15   3.32437999E-18
   2.04750000E+03   5.00000000E-01   5.00000000E-01  -3.51279959E-07  -1.07697451E-07   2.33760879E-07  -1.97582835E-10  -6.56285546E-11  -1.23475333E-07  -6.69598425E-08   2.05275900E-07   2.72508214E-11   6.52256243E-14  -1.34621036E-08  -4.83541373E-08  -4.96227768E-08   9.11316904E-11   2.91916861E-17  -2.23106423E-10  -6.89271729E-15  -6.78753535E-15   3.24581636E-18
   2.08250000E+03   5.00000000E-01   5.00000000E-01  -3.51282377E-07  -1.03640882E-07   2.32399044E-07  -1.97470195E-10  -6.55084509E-11  -1.23447400E-07  -6.63687812E-08   2.04926033E-07   3.11405143E-11   6.40860194E-14  -1.32126507E-08  -4.83536098E-08  -4.96227768E-08   1.35718233E-10   2.72099671E-17  -2.22896838E-10  -6.89271729E-15  -6.78753788E-15   3.16934562E-18
   2.11750000E+03   5.00000000E-01   5.00000000E-01  -3.51284695E-07  -9.87072868E-08   2.30617582E-07  -1.97354333E-10  -6.52583271E-11  -1.23414519E-07  -6.54451260E-08   2.04483693E-07   3.52754735E-11   6.29326378E-14  -1.29711850E-08  -4.83530914E-08  -4.96227768E-08   2.03501617E-10   2.51370994E-17  -2.22671683E-10  -6.89271729E-15  -6.78754013E-15   3.09498238E-18
   2.15250000E+03   5.00000000E-01   5.00000000E-01  -3.51286900E-07  -9.28391999E-08   2.28387909E-07  -1.97235200E-10  -6.48731637E-11  -1.23375778E-07  -6.41600907E-08   2.03937263E-07   3.96402503E-11   6.17899219E-14  -1.27365072E-08  -4.83525981E-08  -4.96227768E-08   3.07015413E-10   2.30026884E-17  -2.22428917E-10  -6.89271729E-15  -6.78754214E-15   3.02273141E-18
   2.18750000E+03   5.00000000E-01   5.00000000E-01  -3.51288988E-07  -8.59866275E-08   2.25685884E-07  -1.97112744E-10  -6.43497295E-11  -1.23330097E-07  -6.24866780E-08   2.03275169E-07   4.42270049E-11   6.06797186E-14  -1.25075139E-08  -4.83521382E-08  -4.96227768E-08   4.65673523E-10   2.08385943E-17  -2.22166368E-10  -6.89271729E-15  -6.78754393E-15   2.95258698E-18
   2.22250000E+03   5.00000000E-01   5.00000000E-01  -3.51290956E-07  -7.81117326E-08   2.22494869E-07  -1.96986910E-10  -6.36872117E-11  -1.23276192E-07  -6.04010290E-08   2.02486136E-07   4.90367789E-11   5.96205622E-14  -1.22833190E-08  -4.83517159E-08  -4.96227768E-08   7.09521472E-10   1.86785385E-17  -2.21881792E-10  -6.89271729E-15  -6.78754552E-15   2.88453042E-18
   2.25750000E+03   5.00000000E-01   5.00000000E-01  -3.51292810E-07  -6.91946722E-08   2.18809379E-07  -1.96857638E-10  -6.28879473E-11  -1.23212557E-07  -5.78842160E-08   2.01559567E-07   5.40814130E-11   5.86271766E-14  -1.20633970E-08  -4.83513326E-08  -4.96227768E-08   1.08496465E-09   1.65569285E-17  -2.21572972E-10  -6.89271729E-15  -6.78754695E-15   2.81852612E-18
   2.29250000E+03   5.00000000E-01   5.00000000E-01  -3.51294560E-07  -5.92403085E-08   2.14639002E-07  -1.96724858E-10  -6.19581852E-11  -1.23137431E-07  -5.49245031E-08   2.00486156E-07   5.93845458E-11   5.77098732E-14  -1.18477530E-08  -4.83509873E-08  -4.96227768E-08   1.66344224E-09   1.45075479E-17  -2.21237851E-10  -6.89271729E-15  -6.78754823E-15   2.75451666E-18
   2.32750000E+03   5.00000000E-01   5.00000000E-01  -3.51296217E-07  -4.82853069E-08   2.10012181E-07  -1.96588488E-10  -6.09087922E-11  -1.23048783E-07  -5.15199423E-08   1.99258705E-07   6.49808232E-11   5.68738580E-14  -1.16371062E-08  -4.83506775E-08  -4.96227768E-08   2.55442620E-09   1.25618938E-17  -2.20874721E-10  -6.89271729E-15  -6.78754938E-15   2.69241796E-18
   2.36250000E+03   5.00000000E-01   5.00000000E-01  -3.51297796E-07  -3.64047694E-08   2.04979239E-07  -1.96448428E-10  -5.97557758E-11  -1.22944304E-07  -4.76810235E-08   1.97873112E-07   7.09127519E-11   5.61185510E-14  -1.14330606E-08  -4.83503994E-08  -4.96227768E-08   3.92465743E-09   1.07475681E-17  -2.20482457E-10  -6.89271729E-15  -6.78755042E-15   2.63211530E-18
   2.39750000E+03   5.00000000E-01   5.00000000E-01  -3.51299311E-07  -2.37171784E-08   1.99613822E-07  -1.96304556E-10  -5.85204719E-11  -1.22821417E-07  -4.34329442E-08   1.96329394E-07   7.72248179E-11   5.54370614E-14  -1.12382249E-08  -4.83501489E-08  -4.96227768E-08   6.02617725E-09   9.08662837E-18  -2.20060780E-10  -6.89271729E-15  -6.78755136E-15   2.57346175E-18
   2.43250000E+03   5.00000000E-01   5.00000000E-01  -3.51300776E-07  -1.03862010E-08   1.94011839E-07  -1.96156729E-10  -5.72292446E-11  -1.22677309E-07  -3.88169210E-08   1.94632604E-07   8.39547206E-11   5.48159926E-14  -1.10562380E-08  -4.83499210E-08  -4.96227768E-08   9.23641426E-09   7.59433087E-18  -2.19610527E-10  -6.89271729E-15  -6.78755221E-15   2.51627998E-18
   2.46750000E+03   5.00000000E-01   5.00000000E-01  -3.51302204E-07   3.38192941E-09   1.88287221E-07  -1.96004777E-10  -5.59125970E-11  -1.22508982E-07  -3.38899197E-08   1.92793377E-07   9.11219611E-11   5.42357656E-14  -1.08916525E-08  -4.83497114E-08  -4.96227768E-08   1.41141885E-08   6.27839950E-18  -2.19133895E-10  -6.89271729E-15  -6.78755298E-15   2.46036869E-18
   2.50250000E+03   5.00000000E-01   5.00000000E-01  -3.51303607E-07   1.73460165E-08   1.82564337E-07  -1.95848509E-10  -5.46037065E-11  -1.22313341E-07  -2.87222985E-08   1.90827859E-07   9.87146469E-11   5.36716252E-14  -1.07496455E-08  -4.83495154E-08  -4.96227768E-08   2.14756642E-08   5.13893826E-18  -2.18634606E-10  -6.89271729E-15  -6.78755369E-15   2.40551413E-18
   2.53750000E+03   5.00000000E-01   5.00000000E-01  -3.51304997E-07   3.12417465E-08   1.76967832E-07  -1.95687718E-10  -5.33365600E-11  -1.22087299E-07  -2.33931947E-08   1.88756796E-07   1.06676265E-10   5.30954104E-14  -1.06355554E-08  -4.83493294E-08  -4.96227768E-08   3.24933980E-08   4.16905096E-18  -2.18117969E-10  -6.89271729E-15  -6.78755434E-15   2.35150606E-18
   2.57250000E+03   5.00000000E-01   5.00000000E-01  -3.51306386E-07   4.47954532E-08   1.71611540E-07  -1.95522190E-10  -5.21440306E-11  -1.21827903E-07  -1.79839937E-08   1.86603709E-07   1.14895158E-10   5.24780303E-14  -1.05542842E-08  -4.83491498E-08  -4.96227768E-08   4.88186211E-08   3.35625156E-18  -2.17590829E-10  -6.89271729E-15  -6.78755494E-15   2.29815666E-18
   2.60750000E+03   5.00000000E-01   5.00000000E-01  -3.51307787E-07   5.77362279E-08   1.66588751E-07  -1.95351714E-10  -5.10563393E-11  -1.21532490E-07  -1.25707627E-08   1.84392268E-07   1.23200128E-10   5.17924167E-14  -1.05096443E-08  -4.83489741E-08  -4.96227768E-08   7.27201091E-08   2.68407646E-18  -2.17061434E-10  -6.89271729E-15  -6.78755549E-15   2.24531994E-18
   2.64250000E+03   5.00000000E-01   5.00000000E-01  -3.51309214E-07   6.98025792E-08   1.61966053E-07  -1.95176096E-10  -5.01003108E-11  -1.21198885E-07  -7.21689298E-09   1.82143247E-07   1.31365341E-10   5.10165606E-14  -1.05037531E-08  -4.83488006E-08  -4.96227768E-08   1.07220168E-07   2.13397139E-18  -2.16539295E-10  -6.89271729E-15  -6.78755600E-15   2.19290886E-18
   2.67750000E+03   5.00000000E-01   5.00000000E-01  -3.51310684E-07   8.07411084E-08   1.57782200E-07  -1.94995170E-10  -4.92996496E-11  -1.20825658E-07  -1.96722641E-09   1.79871541E-07   1.39126040E-10   5.01361481E-14  -1.05365758E-08  -4.83486285E-08  -4.96227768E-08   1.56187047E-07   1.68699415E-18  -2.16035095E-10  -6.89271729E-15  -6.78755647E-15   2.14090786E-18
   2.71250000E+03   5.00000000E-01   5.00000000E-01  -3.51312221E-07   9.02973759E-08   1.54052195E-07  -1.94808805E-10  -4.86761511E-11  -1.20412468E-07   3.15536497E-09   1.77583829E-07   1.46203488E-10   4.91463087E-14  -1.06056914E-08  -4.83484584E-08  -4.96227768E-08   2.24312654E-07   1.32513649E-18  -2.15560715E-10  -6.89271729E-15  -6.78755690E-15   2.08937899E-18