 TITLE = "Mineral Saturation State" 
VARIABLES = "X"          "Y"              "Z"            "Forsterite"     "Fayalite"       "Brucite"        "Lizardite"      "Chrysotile"     "Hematite"       "Magnetite(am)"  "Saponite(Ca)"   "Saponite(K)"    "Saponite(Mg)"   "Saponite(Na)"   "Beidellite(Ca)" "Beidellite(K)"  "Beidellite(Mg)" "Beidellite(Na)" "Enstatite(alph" "Ferrosilite(al" "Anorthite"      "Albite(low)"    "Clinochlore"    "Sudoite"        "Montmor(MgCa)"  "Montmor(MgK)"   "Montmor(MgMg)"  "Montmor(MgNa)"  "Kaolinite"      "Tremolite"      "Pargasite"      "Anhydrite"      "Epidote"        "Scolecite"      "Pyrite"         "FeS(am)"        "Quartz(alpha)" 
 ZONE I=         200 , J=           1 , K=           1  F=POINT
   8.75000000E+00   5.00000000E-01   5.00000000E-01  -7.17875855E+00  -3.07928476E+00  -4.80129086E+00  -1.46634662E+00  -1.58383492E+00   8.94496334E-03  -5.42032732E+00   4.61341863E-01   2.28786562E+00   1.12230725E+00   2.16659978E+00  -6.13826575E+00  -4.99028263E+00  -5.47729764E+00  -5.05035110E+00  -2.59752365E+00  -1.60994239E+00  -1.13726389E+01  -1.44230821E+00   1.74926427E-01  -6.15161134E+00  -3.88825291E+00  -2.49935638E+00  -3.26081431E+00  -2.64843246E+00  -4.82809412E+00  -5.35491320E+00  -3.25319056E+01  -9.80375249E-01  -1.02168759E+01  -6.17176829E+00  -3.29639721E+01  -4.55769067E+00   6.98339296E-01
   2.62500000E+01   5.00000000E-01   5.00000000E-01  -7.71927640E+00  -3.01282280E+00  -5.15375769E+00  -2.27081485E+00  -2.38626852E+00   8.94496333E-03  -5.44378635E+00   9.88558078E-02   1.89846797E+00   7.59277370E-01   1.78645690E+00  -3.95166882E+00  -2.82386344E+00  -3.29125014E+00  -2.87478032E+00  -2.79420290E+00  -1.49860310E+00  -9.96235236E+00  -4.59565424E-01   1.73605873E-01  -3.61060811E+00  -2.26374648E+00  -8.96308466E-01  -1.63666703E+00  -1.03576170E+00  -3.09740744E+00  -6.68528362E+00  -3.17283959E+01  -9.62586376E-01  -9.04308523E+00  -4.65254029E+00  -3.24678633E+01  -4.48026684E+00   8.52594848E-01
   4.37500000E+01   5.00000000E-01   5.00000000E-01  -7.86830289E+00  -2.84606708E+00  -5.28011492E+00  -2.51778333E+00  -2.63122422E+00   8.94496332E-03  -5.38694447E+00   6.99013198E-02   1.84587088E+00   7.29825764E-01   1.74301067E+00  -3.06133687E+00  -1.95348701E+00  -2.40142049E+00  -1.99535575E+00  -2.82547113E+00  -1.36749331E+00  -9.39850980E+00  -2.11930966E-02   1.71379508E-01  -2.70020009E+00  -1.55594962E+00  -2.09734643E-01  -9.29184861E-01  -3.39673193E-01  -2.43887708E+00  -6.91790082E+00  -3.12461154E+01  -9.44578978E-01  -8.55018256E+00  -4.04017312E+00  -3.21527942E+01  -4.42041314E+00   9.46113078E-01
   6.12500000E+01   5.00000000E-01   5.00000000E-01  -7.90889107E+00  -2.68308916E+00  -5.33199729E+00  -2.62173079E+00  -2.73318039E+00   8.94496331E-03  -5.31194323E+00   8.64732066E-02   1.83951646E+00   7.45933993E-01   1.74572128E+00  -2.60223731E+00  -1.51414291E+00  -1.94278938E+00  -1.54704836E+00  -2.82274612E+00  -1.25853942E+00  -9.09411213E+00   2.06735131E-01   1.68823962E-01  -2.26677547E+00  -1.18187332E+00   1.43331746E-01  -5.55391990E-01   2.28183645E-02  -2.11394631E+00  -6.95233289E+00  -3.09020205E+01  -9.26353151E-01  -8.28251471E+00  -3.72745228E+00  -3.19031396E+01  -4.37229632E+00   9.99112404E-01
   7.87500000E+01   5.00000000E-01   5.00000000E-01  -7.91475950E+00  -2.54487409E+00  -5.35379053E+00  -2.68571591E+00  -2.79519538E+00   8.94496330E-03  -5.23679921E+00   9.32071075E-02   1.82351786E+00   7.52229688E-01   1.73870410E+00  -2.31864942E+00  -1.25011518E+00  -1.65964411E+00  -1.27413994E+00  -2.81536023E+00  -1.17470639E+00  -8.88547459E+00   3.36164392E-01   1.67065171E-01  -1.99812572E+00  -9.56261507E-01   3.48141790E-01  -3.30040316E-01   2.36966400E-01  -1.91459094E+00  -6.97877467E+00  -3.06273122E+01  -9.07915317E-01  -8.10568811E+00  -3.53564119E+00  -3.16869968E+01  -4.33544729E+00   1.02664766E+00
   9.62500000E+01   5.00000000E-01   5.00000000E-01  -7.89937093E+00  -2.42253743E+00  -5.35762500E+00  -2.72454101E+00  -2.83207116E+00   8.94496329E-03  -5.16246679E+00   9.60496317E-02   1.80385008E+00   7.54654429E-01   1.72792833E+00  -2.13950002E+00  -1.09032650E+00  -1.48091655E+00  -1.10555918E+00  -2.80464536E+00  -1.10615196E+00  -8.73437660E+00   4.07799522E-01   1.66549545E-01  -1.82868030E+00  -8.18260285E-01   4.65553384E-01  -1.92280914E-01   3.63622825E-01  -1.79048892E+00  -6.99570791E+00  -3.03928914E+01  -8.89274705E-01  -7.98279036E+00  -3.41572242E+00  -3.14917348E+01  -4.30581005E+00   1.03951861E+00
   1.13750000E+02   5.00000000E-01   5.00000000E-01  -7.86867377E+00  -2.31020695E+00  -5.34989386E+00  -2.74371688E+00  -2.84931819E+00   8.94496329E-03  -5.08942647E+00   1.01659858E-01   1.78722042E+00   7.59862856E-01   1.72009517E+00  -2.02774549E+00  -9.97728630E-01  -1.36956754E+00  -1.00426418E+00  -2.79015637E+00  -1.04652004E+00  -8.62231421E+00   4.44567202E-01   1.66999296E-01  -1.72833482E+00  -7.34480797E-01   5.28959776E-01  -1.08729326E-01   4.36174654E-01  -1.71676864E+00  -6.99314140E+00  -3.01824312E+01  -8.70441155E-01  -7.89485196E+00  -3.34235532E+00  -3.13108012E+01  -4.28131108E+00   1.04456491E+00
   1.31250000E+02   5.00000000E-01   5.00000000E-01  -7.82765452E+00  -2.20582085E+00  -5.33506827E+00  -2.74875234E+00  -2.85244496E+00   8.94496328E-03  -5.01862293E+00   1.12032395E-01   1.77563723E+00   7.69845900E-01   1.71720898E+00  -1.95799798E+00  -9.46931412E-01  -1.30021292E+00  -9.44868899E-01  -2.77240817E+00  -9.92800810E-01  -8.53585517E+00   4.61093711E-01   1.67875762E-01  -1.67423700E+00  -6.83099897E-01   5.60186262E-01  -5.75660422E-02   4.76443098E-01  -1.67554778E+00  -6.97069529E+00  -2.99862534E+01  -8.51424531E-01  -7.82893959E+00  -3.29815301E+00  -3.11403488E+01  -4.26119558E+00   1.04574407E+00
   1.48750000E+02   5.00000000E-01   5.00000000E-01  -7.78001270E+00  -2.10856556E+00  -5.31606970E+00  -2.74413194E+00  -2.84593572E+00   8.94496328E-03  -4.95071880E+00   1.27069096E-01   1.76899910E+00   7.84502654E-01   1.71916632E+00  -1.91379327E+00  -9.21470417E-01  -1.25639125E+00  -9.10911043E-01  -2.75217848E+00  -9.43514891E-01  -8.46582938E+00   4.66248741E-01   1.68770251E-01  -1.65023539E+00  -6.50565714E-01   5.72784723E-01  -2.52419099E-02   4.97977974E-01  -1.65475057E+00  -6.93165235E+00  -2.97987678E+01  -8.32234622E-01  -7.77665013E+00  -3.27180330E+00  -3.09779674E+01  -4.24505780E+00   1.04520106E+00
   1.66250000E+02   5.00000000E-01   5.00000000E-01  -7.72846669E+00  -2.01810657E+00  -5.29478545E+00  -2.73341199E+00  -2.83334643E+00   8.94496328E-03  -4.88607265E+00   1.45683357E-01   1.76620707E+00   8.02744483E-01   1.72486764E+00  -1.88444759E+00  -9.10663268E-01  -1.22742081E+00  -8.91708874E-01  -2.73029805E+00  -8.97966008E-01  -8.40590052E+00   4.65310411E-01   1.69494422E-01  -1.64475011E+00  -6.28550525E-01   5.75081330E-01  -3.43119489E-03   5.09104871E-01  -1.64616496E+00  -6.88076199E+00  -2.96167301E+01  -8.12881105E-01  -7.73247151E+00  -3.25591500E+00  -3.08220632E+01  -4.23259116E+00   1.04399360E+00
   1.83750000E+02   5.00000000E-01   5.00000000E-01  -7.67501047E+00  -1.93428104E+00  -5.27243372E+00  -2.71936899E+00  -2.81745331E+00   8.94496327E-03  -4.82482204E+00   1.66434394E-01   1.76580429E+00   8.23129090E-01   1.73285647E+00  -1.86298204E+00  -9.07533436E-01  -1.20632424E+00  -8.80285526E-01  -2.70754234E+00  -8.55850672E-01  -8.35163701E+00   4.61376688E-01   1.70021143E-01  -1.64939072E+00  -6.11955987E-01   5.72171873E-01   1.29629708E-02   5.14919974E-01  -1.64414975E+00  -6.82300625E+00  -2.94382521E+01  -7.93373519E-01  -7.69274401E+00  -3.24561545E+00  -3.06715345E+01  -4.22352147E+00   1.04256558E+00
   2.01250000E+02   5.00000000E-01   5.00000000E-01  -7.62063345E+00  -1.85650948E+00  -5.24960349E+00  -2.70339948E+00  -2.79965260E+00   8.94496327E-03  -4.76676925E+00   1.88549892E-01   1.76700798E+00   8.44883026E-01   1.74235079E+00  -1.84597022E+00  -9.08657288E-01  -1.18967626E+00  -8.73216611E-01  -2.68431152E+00  -8.16784071E-01  -8.30082111E+00   4.55930651E-01   1.70375115E-01  -1.65993583E+00  -5.98315460E-01   5.66520047E-01   2.64061310E-02   5.17887790E-01  -1.64590466E+00  -6.76099833E+00  -2.92623841E+01  -7.73721267E-01  -7.65564863E+00  -3.23849983E+00  -3.05255944E+01  -4.21746324E+00   1.04110689E+00
   2.18750000E+02   5.00000000E-01   5.00000000E-01  -7.56575793E+00  -1.78403587E+00  -5.22654794E+00  -2.68610148E+00  -2.78054203E+00   8.94496326E-03  -4.71157611E+00   2.11708094E-01   1.76948989E+00   8.67683618E-01   1.75302329E+00  -1.83190416E+00  -9.12529805E-01  -1.17596985E+00  -8.68996144E-01  -2.66077447E+00  -7.80345394E-01  -8.25247100E+00   4.49628511E-01   1.70585393E-01  -1.67452865E+00  -5.86539225E-01   5.59212465E-01   3.79871271E-02   5.19095958E-01  -1.65019991E+00  -6.69583912E+00  -2.90886664E+01  -7.53933567E-01  -7.62037216E+00  -3.23350372E+00  -3.03836576E+01  -4.21400688E+00   1.03970288E+00
   2.36250000E+02   5.00000000E-01   5.00000000E-01  -7.51088264E+00  -1.71644295E+00  -5.20351239E+00  -2.66823366E+00  -2.76087997E+00   8.94496326E-03  -4.65902779E+00   2.35317426E-01   1.77264952E+00   8.90938465E-01   1.76427472E+00  -1.81931971E+00  -9.17689972E-01  -1.16374170E+00  -8.66161900E-01  -2.63718436E+00  -7.46329296E-01  -8.20553205E+00   4.42978648E-01   1.70693926E-01  -1.69107344E+00  -5.75694957E-01   5.51178155E-01   4.86374930E-02   5.19474768E-01  -1.65574026E+00  -6.62931255E+00  -2.89167670E+01  -7.34019392E-01  -7.58611333E+00  -3.22958206E+00  -3.02452748E+01  -4.21287200E+00   1.03834672E+00
   2.53750000E+02   5.00000000E-01   5.00000000E-01  -7.45611385E+00  -1.65311889E+00  -5.18054638E+00  -2.64996543E+00  -2.74083555E+00   8.94496325E-03  -4.60881261E+00   2.59241087E-01   1.77634518E+00   9.14510062E-01   1.77596465E+00  -1.80788006E+00  -9.23804105E-01  -1.15265572E+00  -8.64378922E-01  -2.61359773E+00  -7.14432772E-01  -8.15974730E+00   4.36092324E-01   1.70730188E-01  -1.70906896E+00  -5.65572708E-01   5.42623766E-01   5.85665059E-02   5.19232197E-01  -1.66222335E+00  -6.56182647E+00  -2.87465701E+01  -7.13987484E-01  -7.55267253E+00  -3.22648664E+00  -3.01100939E+01  -4.21374553E+00   1.03703239E+00
   2.71250000E+02   5.00000000E-01   5.00000000E-01  -7.40151741E+00  -1.59355234E+00  -5.15767633E+00  -2.63140843E+00  -2.72052016E+00   8.94496325E-03  -4.56066628E+00   2.83375969E-01   1.78046923E+00   9.38294651E-01   1.78798677E+00  -1.79739256E+00  -9.30682726E-01  -1.14251991E+00  -8.63456373E-01  -2.59005382E+00  -6.84405964E-01  -8.11495705E+00   4.29020732E-01   1.70713547E-01  -1.72820192E+00  -5.56063960E-01   5.33654499E-01   6.78820705E-02   5.18474858E-01  -1.66946682E+00  -6.49367381E+00  -2.85780072E+01  -6.93846324E-01  -7.51993032E+00  -3.22407229E+00  -2.99778323E+01  -4.21636887E+00   1.03574801E+00
   2.88750000E+02   5.00000000E-01   5.00000000E-01  -7.34718476E+00  -1.53736311E+00  -5.13493781E+00  -2.61271625E+00  -2.70008709E+00   8.94496324E-03  -4.51438644E+00   3.07573868E-01   1.78486856E+00   9.62143418E-01   1.80018943E+00  -1.78762001E+00  -9.38091817E-01  -1.13309770E+00  -8.63158788E-01  -2.56660836E+00  -6.56068300E-01  -8.07096311E+00   4.21819614E-01   1.70658657E-01  -1.74807402E+00  -5.47042515E-01   5.24393205E-01   7.67098070E-02   5.17327103E-01  -1.67724060E+00  -6.42527055E+00  -2.84110204E+01  -6.73604124E-01  -7.48774545E+00  -3.22216278E+00  -2.98482604E+01  -4.22054224E+00   1.03447431E+00
   3.06250000E+02   5.00000000E-01   5.00000000E-01  -7.29322626E+00  -1.48427140E+00  -5.11237311E+00  -2.59407354E+00  -2.67972075E+00   8.94496323E-03  -4.46981824E+00   3.31653321E-01   1.78935656E+00   9.85874330E-01   1.81238750E+00  -1.77829151E+00  -9.45763680E-01  -1.12411878E+00  -8.63216956E-01  -2.54332928E+00  -6.29292154E-01  -8.02753835E+00   4.14548420E-01   1.70577138E-01  -1.76822299E+00  -5.38368557E-01   5.14976348E-01   8.51889931E-02   5.15926961E-01  -1.68527868E+00  -6.35712379E+00  -2.82455581E+01  -6.53268818E-01  -7.45596004E+00  -3.22055834E+00  -2.97211895E+01  -4.22611126E+00   1.03318655E+00
   3.23750000E+02   5.00000000E-01   5.00000000E-01  -7.23975385E+00  -1.43406297E+00  -5.09002418E+00  -2.57566831E+00  -2.65960887E+00   8.94496322E-03  -4.42683848E+00   3.55426160E-01   1.79373986E+00   1.00929869E+00   1.82438918E+00  -1.76914172E+00  -9.53436173E-01  -1.11531832E+00  -8.63367163E-01  -2.52028646E+00  -6.03983844E-01  -7.98445761E+00   4.07261061E-01   1.70478400E-01  -1.78818759E+00  -5.29909338E-01   5.05533329E-01   9.34518805E-02   5.14405454E-01  -1.69331723E+00  -6.28975671E+00  -2.80815772E+01  -6.32848061E-01  -7.42442032E+00  -3.21906352E+00  -2.95964631E+01  -4.23295334E+00   1.03185763E+00
   3.41250000E+02   5.00000000E-01   5.00000000E-01  -7.18686298E+00  -1.38655815E+00  -5.06792528E+00  -2.55766325E+00  -2.63991391E+00   8.94496321E-03  -4.38534183E+00   3.78725307E-01   1.79784643E+00   1.03224893E+00   1.83602404E+00  -1.75995096E+00  -9.60892809E-01  -1.10647718E+00  -8.63391320E-01  -2.49754099E+00  -5.80066443E-01  -7.94152969E+00   3.99996798E-01   1.70370232E-01  -1.80757489E+00  -5.21559982E-01   4.96165697E-01   1.01602887E-01   5.12865784E-01  -1.70113383E+00  -6.22363022E+00  -2.79190437E+01  -6.12349214E-01  -7.39299781E+00  -3.21751569E+00  -2.94739498E+01  -4.24096603E+00   1.03046154E+00
   3.58750000E+02   5.00000000E-01   5.00000000E-01  -7.13460688E+00  -1.34157652E+00  -5.04609236E+00  -2.54015483E+00  -2.62073208E+00   8.94496320E-03  -4.34522544E+00   4.01443561E-01   1.80156466E+00   1.05461741E+00   1.84718205E+00  -1.75060490E+00  -9.68022392E-01  -1.09748146E+00  -8.63176609E-01  -2.47513006E+00  -5.57459876E-01  -7.89864421E+00   3.92765702E-01   1.70258959E-01  -1.82615863E+00  -5.13275393E-01   4.86915258E-01   1.09686692E-01   5.11351429E-01  -1.70860502E+00  -6.15903267E+00  -2.77579366E+01  -5.91779345E-01  -7.36162116E+00  -3.21582751E+00  -2.93535376E+01  -4.25005447E+00   1.02897781E+00
   3.76250000E+02   5.00000000E-01   5.00000000E-01  -7.08300316E+00  -1.29893576E+00  -5.02452689E+00  -2.52318270E+00  -2.60210279E+00   8.94496318E-03  -4.30638880E+00   4.23528031E-01   1.80483776E+00   1.07635082E+00   1.85780803E+00  -1.74107253E+00  -9.74797006E-01  -1.08830057E+00  -8.62693490E-01  -2.45306977E+00  -5.36079828E-01  -7.85575728E+00   3.85557918E-01   1.70149542E-01  -1.84385145E+00  -5.05054673E-01   4.77779668E-01   1.17703811E-01   5.09861716E-01  -1.71568811E+00  -6.09609828E+00  -2.75982425E+01  -5.71145216E-01  -7.33026454E+00  -3.21397147E+00  -2.92351297E+01  -4.26012981E+00   1.02739258E+00
   3.93750000E+02   5.00000000E-01   5.00000000E-01  -7.03203178E+00  -1.25844379E+00  -5.00321531E+00  -2.50672612E+00  -2.58400506E+00   8.94496317E-03  -4.26873039E+00   4.44984530E-01   1.80766820E+00   1.09745460E+00   1.86790608E+00  -1.73140872E+00  -9.81274572E-01  -1.07898977E+00  -8.61998271E-01  -2.43135357E+00  -5.15833307E-01  -7.81289435E+00   3.78344232E-01   1.70045768E-01  -1.86071175E+00  -4.96941336E-01   4.68712232E-01   1.25610389E-01   5.08351612E-01  -1.72242460E+00  -6.03479541E+00  -2.74399542E+01  -5.50453284E-01  -7.29894895E+00  -3.21198181E+00  -2.91186408E+01  -4.27110560E+00   1.02569955E+00
   4.11250000E+02   5.00000000E-01   5.00000000E-01  -6.98164600E+00  -1.21990503E+00  -4.98213417E+00  -2.49072083E+00  -2.56637440E+00   8.94496315E-03  -4.23215042E+00   4.65863366E-01   1.81010341E+00   1.11797873E+00   1.87752518E+00  -1.72172520E+00  -9.87569804E-01  -1.06966113E+00  -8.61204070E-01  -2.40995816E+00  -4.96622150E-01  -7.77012892E+00   3.71085228E-01   1.69950318E-01  -1.87690035E+00  -4.89005741E-01   4.59639474E-01   1.33335754E-01   5.06749284E-01  -1.72891377E+00  -5.97496839E+00  -2.72830665E+01  -5.29709695E-01  -7.26772682E+00  -3.20993394E+00  -2.90039950E+01  -4.28289881E+00   1.02389929E+00
   4.28750000E+02   5.00000000E-01   5.00000000E-01  -6.93178530E+00  -1.18312949E+00  -4.96125578E+00  -2.47507911E+00  -2.54912286E+00   8.94496314E-03  -4.19655455E+00   4.86241305E-01   1.81221757E+00   1.13799966E+00   1.88674106E+00  -1.71215844E+00  -9.93822077E-01  -1.06045144E+00  -8.60448696E-01  -2.38885067E+00  -4.78348365E-01  -7.72755810E+00   3.63740333E-01   1.69864975E-01  -1.89263012E+00  -4.81326720E-01   4.50479522E-01   1.40800795E-01   5.04974469E-01  -1.73528262E+00  -5.91638957E+00  -2.71275724E+01  -5.08920289E-01  -7.23666474E+00  -3.20792159E+00  -2.88911238E+01  -4.29543190E+00   1.02199764E+00
   4.46250000E+02   5.00000000E-01   5.00000000E-01  -6.88237860E+00  -1.14793317E+00  -4.94054934E+00  -2.45969521E+00  -2.53214447E+00   8.94496312E-03  -4.16185364E+00   5.06215840E-01   1.81410584E+00   1.15761461E+00   1.89565040E+00  -1.70286302E+00  -1.00018880E+00  -1.05151557E+00  -8.59888029E-01  -2.36799085E+00  -4.60914805E-01  -7.68529684E+00   3.56268740E-01   1.69790896E-01  -1.90815333E+00  -4.73988715E-01   4.41144966E-01   1.47920816E-01   5.02941336E-01  -1.74167894E+00  -5.85877530E+00  -2.69734635E+01  -4.88090599E-01  -7.20583982E+00  -3.20605200E+00  -2.87799653E+01  -4.30863208E+00   1.02000472E+00
   4.63750000E+02   5.00000000E-01   5.00000000E-01  -6.83335068E+00  -1.11414201E+00  -4.91998348E+00  -2.44445555E+00  -2.51532542E+00   8.94496310E-03  -4.12796503E+00   5.25895297E-01   1.81587437E+00   1.17693165E+00   1.90436084E+00  -1.69399718E+00  -1.00683098E+00  -1.04301201E+00  -8.59681577E-01  -2.34733482E+00  -4.44227801E-01  -7.64346627E+00   3.48632655E-01   1.69728736E-01  -1.92373724E+00  -4.67074310E-01   4.31550333E-01   1.54613008E-01   5.00565951E-01  -1.74825712E+00  -5.80181388E+00  -2.68207287E+01  -4.67225860E-01  -7.17533189E+00  -3.20443558E+00  -2.86704624E+01  -4.32243199E+00   1.01793363E+00
   4.81250000E+02   5.00000000E-01   5.00000000E-01  -6.78462780E+00  -1.08159560E+00  -4.89952848E+00  -2.42924783E+00  -2.49855320E+00   8.94496308E-03  -4.09481384E+00   5.45389802E-01   1.81763122E+00   1.19606069E+00   1.91298189E+00  -1.68571027E+00  -1.01390065E+00  -1.03509035E+00  -8.59979922E-01  -2.32683861E+00  -4.28199627E-01  -7.60218349E+00   3.40799932E-01   1.69678810E-01  -1.93964231E+00  -4.60657938E-01   4.21618387E-01   1.60802742E-01   4.97772573E-01  -1.75516576E+00  -5.74519106E+00  -2.66693538E+01  -4.46331011E-01  -7.14521666E+00  -3.20317691E+00  -2.85625627E+01  -4.33677037E+00   1.01579927E+00
   4.98750000E+02   5.00000000E-01   5.00000000E-01  -6.73568588E+00  -1.04970132E+00  -4.87895219E+00  -2.41326142E+00  -2.48101699E+00   8.94496306E-03  -4.06213183E+00   5.65422818E-01   1.82010309E+00   1.21572514E+00   1.92224160E+00  -1.67929110E+00  -1.02268917E+00  -1.02903943E+00  -8.62073034E-01  -2.30621032E+00  -4.12503735E-01  -7.56241862E+00   3.32402926E-01   1.69644906E-01  -1.95787829E+00  -4.55479779E-01   4.10606252E-01   1.65749820E-01   4.93819765E-01  -1.76360786E+00  -5.68681379E+00  -2.65194565E+01  -4.25410774E-01  -7.11617602E+00  -3.20318815E+00  -2.84561921E+01  -4.35143992E+00   1.01366195E+00
   5.16250000E+02   5.00000000E-01   5.00000000E-01  -6.68688473E+00  -1.01874725E+00  -4.85842872E+00  -2.39704710E+00  -2.46326733E+00   8.94496303E-03  -4.03005545E+00   5.85548053E-01   1.82283708E+00   1.23547840E+00   1.93168848E+00  -1.67375129E+00  -1.03221074E+00  -1.02387122E+00  -8.64973704E-01  -2.28563568E+00  -3.97289623E-01  -7.52346079E+00   3.23771764E-01   1.69614024E-01  -1.97702474E+00  -4.50922852E-01   3.99128228E-01   1.70070924E-01   4.89323264E-01  -1.77270086E+00  -5.62800016E+00  -2.63708768E+01  -4.04469454E-01  -7.08768672E+00  -3.20377181E+00  -2.83513285E+01  -4.36653755E+00   1.01151062E+00
   5.33750000E+02   5.00000000E-01   5.00000000E-01  -6.63824465E+00  -9.88694022E-01  -4.83797074E+00  -2.38063808E+00  -2.44533725E+00   8.94496301E-03  -3.99856576E+00   6.05749210E-01   1.82581396E+00   1.25530400E+00   1.94130460E+00  -1.66899447E+00  -1.04237142E+00  -1.01948950E+00  -8.68586690E-01  -2.26512241E+00  -3.82534780E-01  -7.48524305E+00   3.14947824E-01   1.69592740E-01  -1.99696362E+00  -4.46916887E-01   3.87252011E-01   1.73836180E-01   4.84352132E-01  -1.78236664E+00  -5.56880732E+00  -2.62235643E+01  -3.83511143E-01  -7.05969228E+00  -3.20485772E+00  -2.82479347E+01  -4.38204483E+00   1.00935077E+00
   5.51250000E+02   5.00000000E-01   5.00000000E-01  -6.58969104E+00  -9.59415716E-01  -4.81754695E+00  -2.36392159E+00  -2.42711376E+00   8.94496298E-03  -3.96760407E+00   6.26133510E-01   1.82913918E+00   1.27530907E+00   1.95119668E+00  -1.66517724E+00  -1.05333021E+00  -1.01605099E+00  -8.73069694E-01  -2.24462723E+00  -3.68169939E-01  -7.44788530E+00   3.05893125E-01   1.69584270E-01  -2.01795672E+00  -4.43544147E-01   3.74892847E-01   1.76963249E-01   4.78822934E-01  -1.79275755E+00  -5.50892918E+00  -2.60775085E+01  -3.62539687E-01  -7.03227246E+00  -3.20655557E+00  -2.81459700E+01  -4.39791324E+00   1.00719488E+00
   5.68750000E+02   5.00000000E-01   5.00000000E-01  -6.54117113E+00  -9.30814471E-01  -4.79713658E+00  -2.34681798E+00  -2.40851704E+00   8.94496296E-03  -3.93712531E+00   6.46780722E-01   1.83289059E+00   1.29557328E+00   1.96144381E+00  -1.66240017E+00  -1.06518996E+00  -1.01365634E+00  -8.78524339E-01  -2.22411826E+00  -3.54140283E-01  -7.41146768E+00   2.96587944E-01   1.69589006E-01  -2.04018509E+00  -4.40852412E-01   3.62000545E-01   1.79404296E-01   4.72686753E-01  -1.80397554E+00  -5.44814007E+00  -2.59326942E+01  -3.41558686E-01  -7.00547864E+00  -3.20893612E+00  -2.80453974E+01  -4.41410451E+00   1.00505459E+00
   5.86250000E+02   5.00000000E-01   5.00000000E-01  -6.49266221E+00  -9.02827703E-01  -4.77673264E+00  -2.32929384E+00  -2.38951347E+00   8.94496293E-03  -3.90710087E+00   6.67730764E-01   1.83710592E+00   1.31613651E+00   1.97208491E+00  -1.66068717E+00  -1.07797682E+00  -1.01232953E+00  -8.84975580E-01  -2.20357985E+00  -3.40409880E-01  -7.37601392E+00   2.87035887E-01   1.69606466E-01  -2.06371419E+00  -4.38843932E-01   3.48570508E-01   1.81157029E-01   4.65940232E-01  -1.81605230E+00  -5.38633061E+00  -2.57890981E+01  -3.20571502E-01  -6.97932212E+00  -3.21201618E+00  -2.79461836E+01  -4.43059306E+00   1.00293904E+00
   6.03750000E+02   5.00000000E-01   5.00000000E-01  -6.44416623E+00  -8.75422059E-01  -4.75633909E+00  -2.31135407E+00  -2.37010778E+00   8.94496290E-03  -3.87751536E+00   6.88989392E-01   1.84178856E+00   1.33700446E+00   1.98312451E+00  -1.66000108E+00  -1.09165577E+00  -1.01203345E+00  -8.92387240E-01  -2.18301007E+00  -3.26958819E-01  -7.34150182E+00   2.77257992E-01   1.69635877E-01  -2.08851444E+00  -4.37485800E-01   3.34633371E-01   1.82254332E-01   4.58615205E-01  -1.82896253E+00  -5.32349036E+00  -2.56466911E+01  -2.99581273E-01  -6.95378200E+00  -3.21576939E+00  -2.78482991E+01  -4.44736373E+00   1.00085458E+00
   6.21250000E+02   5.00000000E-01   5.00000000E-01  -6.39570330E+00  -8.48586332E-01  -4.73596765E+00  -2.29303210E+00  -2.35033319E+00   8.94496287E-03  -3.84836320E+00   7.10536077E-01   1.84691542E+00   1.35815659E+00   1.99454065E+00  -1.66026130E+00  -1.10614832E+00  -1.01268751E+00  -9.00679690E-01  -2.16241742E+00  -3.13779590E-01  -7.30787582E+00   2.67286748E-01   1.69676417E-01  -2.11448658E+00  -4.36721037E-01   3.20243905E-01   1.82753184E-01   4.50767607E-01  -1.84263971E+00  -5.25968450E+00  -2.55054408E+01  -2.78590923E-01  -6.92881454E+00  -3.22013869E+00  -2.77517176E+01  -4.46440933E+00   9.98804880E-01
   6.38750000E+02   5.00000000E-01   5.00000000E-01  -6.34730452E+00  -8.22323770E-01  -4.71563448E+00  -2.27437878E+00  -2.33024039E+00   8.94496285E-03  -3.81964495E+00   7.32333368E-01   1.85244645E+00   1.37955543E+00   2.00629436E+00  -1.66136257E+00  -1.12135126E+00  -1.01418647E+00  -9.09748634E-01  -2.14181696E+00  -3.00872990E-01  -7.27506077E+00   2.57160208E-01   1.69727386E-01  -2.14148965E+00  -4.36479918E-01   3.05469691E-01   1.82723326E-01   4.42466148E-01  -1.85699322E+00  -5.19502633E+00  -2.53653139E+01  -2.57603176E-01  -6.90436301E+00  -3.22504954E+00  -2.76564153E+01  -4.48172789E+00   9.96791483E-01
   6.56250000E+02   5.00000000E-01   5.00000000E-01  -6.29900453E+00  -7.96644252E-01  -4.69535678E+00  -2.25545097E+00  -2.30988605E+00   8.94496281E-03  -3.79136384E+00   7.54336906E-01   1.85833466E+00   1.40115666E+00   2.01833972E+00  -1.66319390E+00  -1.13715556E+00  -1.01641932E+00  -9.19483978E-01  -2.12122624E+00  -2.88243866E-01  -7.24297596E+00   2.46916350E-01   1.69788332E-01  -2.16936973E+00  -4.36691074E-01   2.90380014E-01   1.82236169E-01   4.33781213E-01  -1.87192566E+00  -5.12964823E+00  -2.52262787E+01  -2.36620565E-01  -6.88036773E+00  -3.23042331E+00  -2.75623704E+01  -4.49931986E+00   9.94814452E-01
   6.73750000E+02   5.00000000E-01   5.00000000E-01  -6.25083562E+00  -7.71558106E-01  -4.67515019E+00  -2.23630233E+00  -2.28932367E+00   8.94496278E-03  -3.76352291E+00   7.76503579E-01   1.86453441E+00   1.42291720E+00   2.03063211E+00  -1.66565307E+00  -1.15346092E+00  -1.01928381E+00  -9.29784403E-01  -2.10066202E+00  -2.75897681E-01  -7.21154616E+00   2.36588932E-01   1.69859096E-01  -2.19798264E+00  -4.37289874E-01   2.75037484E-01   1.81356412E-01   4.24776477E-01  -1.88734656E+00  -5.06367807E+00  -2.50883061E+01  -2.15645442E-01  -6.85677377E+00  -3.23618755E+00  -2.74695622E+01  -4.51718593E+00   9.92873068E-01
   6.91250000E+02   5.00000000E-01   5.00000000E-01  -6.20282217E+00  -7.47070237E-01  -4.65502637E+00  -2.21697460E+00  -2.26859480E+00   8.94496275E-03  -3.73612251E+00   7.98799425E-01   1.87100933E+00   1.44480317E+00   2.04313616E+00  -1.66866060E+00  -1.17018974E+00  -1.02270037E+00  -9.40571285E-01  -2.08013716E+00  -2.63837244E-01  -7.18071210E+00   2.26203576E-01   1.69939859E-01  -2.22721569E+00  -4.38226368E-01   2.59490079E-01   1.80134091E-01   4.15500959E-01  -1.90318528E+00  -4.99721645E+00  -2.49513714E+01  -1.94679989E-01  -6.83353838E+00  -3.24228593E+00  -2.73779706E+01  -4.53532485E+00   9.90966508E-01
   7.08750000E+02   5.00000000E-01   5.00000000E-01  -6.15497942E+00  -7.23178788E-01  -4.63499252E+00  -2.19749567E+00  -2.24772719E+00   8.94496272E-03  -3.70915973E+00   8.21201589E-01   1.87773431E+00   1.46679181E+00   2.05582773E+00  -1.67216201E+00  -1.18728933E+00  -1.02661443E+00  -9.51790977E-01  -2.05965985E+00  -2.52061863E-01  -7.15043254E+00   2.15777450E-01   1.70031032E-01  -2.25699206E+00  -4.39466287E-01   2.43770156E-01   1.78603592E-01   4.05988029E-01  -1.91939350E+00  -4.93033121E+00  -2.48154539E+01  -1.73726222E-01  -6.81063221E+00  -3.24867983E+00  -2.72875758E+01  -4.55373295E+00   9.89094188E-01
   7.26250000E+02   5.00000000E-01   5.00000000E-01  -6.10731355E+00  -6.99874914E-01  -4.61505155E+00  -2.17787950E+00  -2.22673461E+00   8.94496269E-03  -3.68262841E+00   8.43698723E-01   1.88469590E+00   1.48887189E+00   2.06869433E+00  -1.67612744E+00  -1.20473161E+00  -1.03099605E+00  -9.63414445E-01  -2.03923349E+00  -2.40567144E-01  -7.12068418E+00   2.05319659E-01   1.70133195E-01  -2.28727087E+00  -4.40990544E-01   2.27894937E-01   1.76784133E-01   3.96255898E-01  -1.93594506E+00  -4.86305647E+00  -2.46805371E+01  -1.52786001E-01  -6.78803918E+00  -3.25534815E+00  -2.71983578E+01  -4.57240398E+00   9.87255943E-01
   7.43750000E+02   5.00000000E-01   5.00000000E-01  -6.05982230E+00  -6.77143337E-01  -4.59520237E+00  -2.15812713E+00  -2.20561795E+00   8.94496265E-03  -3.65651945E+00   8.66290254E-01   1.89189156E+00   1.51104296E+00   2.08173436E+00  -1.68054956E+00  -1.22251096E+00  -1.03583771E+00  -9.75435117E-01  -2.01885705E+00  -2.29345238E-01  -7.09146019E+00   1.94832088E-01   1.70247034E-01  -2.31804440E+00  -4.42793785E-01   2.11867958E-01   1.74681224E-01   3.86309068E-01  -1.95283413E+00  -4.79539483E+00  -2.45466082E+01  -1.31861039E-01  -6.76575532E+00  -3.26228578E+00  -2.71102968E+01  -4.59132931E+00   9.85452085E-01
   7.61250000E+02   5.00000000E-01   5.00000000E-01  -6.01249639E+00  -6.54963555E-01  -4.57544063E+00  -2.13822876E+00  -2.18436724E+00   8.94496262E-03  -3.63082139E+00   8.88984715E-01   1.89932799E+00   1.53331373E+00   2.09495541E+00  -1.68543984E+00  -1.24064053E+00  -1.04115077E+00  -9.87865248E-01  -1.99852576E+00  -2.18385473E-01  -7.06276765E+00   1.84310609E-01   1.70373284E-01  -2.34933277E+00  -4.44882128E-01   1.95681334E-01   1.72288920E-01   3.76140599E-01  -1.97007197E+00  -4.72732236E+00  -2.44136569E+01  -1.10952905E-01  -6.74378686E+00  -3.26950102E+00  -2.70233728E+01  -4.61049831E+00   9.83683359E-01
   7.78750000E+02   5.00000000E-01   5.00000000E-01  -5.96532132E+00  -6.33311556E-01  -4.55575954E+00  -2.11816657E+00  -2.16296452E+00   8.94496259E-03  -3.60552117E+00   9.11797332E-01   1.90701868E+00   1.55569959E+00   2.10837187E+00  -1.69082379E+00  -1.25914746E+00  -1.04696057E+00  -1.00073109E+00  -1.97823209E+00  -2.07675264E-01  -7.03462397E+00   1.73746609E-01   1.70512665E-01  -2.38117686E+00  -4.47270239E-01   1.79318672E-01   1.69592740E-01   3.65735022E-01  -1.98768250E+00  -4.65879555E+00  -2.42816760E+01  -9.00630362E-02  -6.72214764E+00  -3.27701219E+00  -2.69375658E+01  -4.62989896E+00   9.81950819E-01
   7.96250000E+02   5.00000000E-01   5.00000000E-01  -5.91827980E+00  -6.12162048E-01  -4.53615094E+00  -2.09791841E+00  -2.14138747E+00   8.94496255E-03  -3.58060520E+00   9.34746885E-01   1.91498076E+00   1.57821949E+00   2.12200173E+00  -1.69673483E+00  -1.27806676E+00  -1.05330033E+00  -1.01406676E+00  -1.95796703E+00  -1.97201332E-01  -7.00705235E+00   1.63128868E-01   1.70665815E-01  -2.41362901E+00  -4.49977689E-01   1.62758718E-01   1.66573312E-01   3.55071990E-01  -2.00569678E+00  -4.58976052E+00  -2.41506593E+01  -6.91927436E-02  -6.70085588E+00  -3.28484329E+00  -2.68528558E+01  -4.64951869E+00   9.80255638E-01