 TITLE = "Mineral Saturation State" 
VARIABLES = "X"          "Y"              "Z"            "Forsterite"     "Fayalite"       "Saponite(Mg)"   "Enstatite(alph" "Ferrosilite(al" "Anorthite"      "Albite(low)"    "Clinochlore"    "Sudoite"        "Montmorillonit" "Kaolinite"      "Tremolite"      "Pargasite"      "Anhydrite"      "Epidote"        "Scolecite"      "Pyrite"         "FeS(am)"        "Quartz(alpha)" 
 ZONE I=         100 , J=           1 , K=           1  F=POINT
   1.75000000E+01   5.00000000E-01   5.00000000E-01  -8.10421871E+00  -1.38581338E+00   9.06257283E-03  -3.05961326E+00  -7.60296661E-01  -9.58069395E+00  -5.53170228E-01   1.08570868E-02  -2.65915121E+00  -1.02417980E+00  -2.59641374E+00  -8.61497651E+00  -3.21632492E+01  -9.70440873E-01  -7.47214105E-07  -4.39768305E+00  -3.14395820E+01  -3.47304421E+00   7.03176892E-01
   5.25000000E+01   5.00000000E-01   5.00000000E-01  -8.11165185E+00  -9.09542537E-01   9.03524950E-03  -3.04694105E+00  -4.96798472E-01  -9.16405531E+00  -3.11425481E-01   1.08854960E-02  -2.13204754E+00  -6.22761805E-01  -2.21171994E+00  -8.68213831E+00  -3.16019722E+01  -9.37172774E-01   1.74009386E-07  -4.02419821E+00  -3.08323986E+01  -3.24682753E+00   7.50011079E-01
   8.75000000E+01   5.00000000E-01   5.00000000E-01  -8.05225731E+00  -6.34619748E-01   9.03993727E-03  -3.02064689E+00  -3.53929276E-01  -8.92804328E+00  -2.38482440E-01   1.08688166E-02  -1.92035160E+00  -4.79892953E-01  -2.05946173E+00  -8.69129499E+00  -3.11641952E+01  -9.02831871E-01   2.45625281E-08  -3.86992625E+00  -3.03779933E+01  -3.12808272E+00   7.56995136E-01
   1.22500000E+02   5.00000000E-01   5.00000000E-01  -7.98398079E+00  -4.61812099E-01   9.02896908E-03  -2.99281416E+00  -2.65178291E-01  -8.72279037E+00  -1.91881159E-01   1.08521666E-02  -1.75818773E+00  -3.77482714E-01  -1.94389695E+00  -8.69340240E+00  -3.07531399E+01  -8.67483657E-01   3.24080679E-09  -3.75123712E+00  -2.99914440E+01  -3.06467295E+00   7.57915236E-01
   1.57500000E+02   5.00000000E-01   5.00000000E-01  -7.91375868E+00  -3.47548798E-01   9.00200667E-03  -2.96487547E+00  -2.06719868E-01  -8.53014488E+00  -1.54436287E-01   1.08318754E-02  -1.61353023E+00  -2.89237441E-01  -1.84142298E+00  -8.69443454E+00  -3.03568691E+01  -8.31214734E-01  -4.92321103E-09  -3.64592416E+00  -2.96455769E+01  -3.03380007E+00   7.56849571E-01
   1.92500000E+02   5.00000000E-01   5.00000000E-01  -7.84219383E+00  -2.69046785E-01   8.96246942E-03  -2.93694259E+00  -1.66968328E-01  -8.34825282E+00  -1.24491991E-01   1.08080154E-02  -1.48337886E+00  -2.12672650E-01  -1.74981049E+00  -8.69468182E+00  -2.99738391E+01  -7.94120923E-01  -1.16254195E-08  -3.55176999E+00  -2.93276247E+01  -3.02342102E+00   7.54184264E-01
   2.27500000E+02   5.00000000E-01   5.00000000E-01  -7.76951019E+00  -2.13602263E-01   8.91497068E-03  -2.90904871E+00  -1.39488718E-01  -8.17621482E+00  -1.01310562E-01   1.07823572E-02  -1.36647425E+00  -1.46728073E-01  -1.66811381E+00  -8.69404600E+00  -2.96030714E+01  -7.56299343E-01  -1.75393112E-08  -3.46773354E+00  -2.90303831E+01  -3.02673051E+00   7.50083383E-01
   2.62500000E+02   5.00000000E-01   5.00000000E-01  -7.69605397E+00  -1.73663146E-01   8.86463614E-03  -2.88125307E+00  -1.20386987E-01  -8.01281848E+00  -8.38549986E-02   1.07564025E-02  -1.26100473E+00  -8.98888499E-02  -1.59498154E+00  -8.69253017E+00  -2.92433831E+01  -7.17843580E-01  -2.24624790E-08  -3.39239022E+00  -2.87493628E+01  -3.03963249E+00   7.44781020E-01
   2.97500000E+02   5.00000000E-01   5.00000000E-01  -7.62219961E+00  -1.44473991E-01   8.81456954E-03  -2.85362190E+00  -1.07160469E-01  -7.85679590E+00  -7.10302915E-02   1.07314779E-02  -1.16503819E+00  -4.05456791E-02  -1.52897551E+00  -8.69018913E+00  -2.88935803E+01  -6.78841153E-01  -2.63394456E-08  -3.32424551E+00  -2.84815909E+01  -3.05951926E+00   7.38525262E-01
   3.32500000E+02   5.00000000E-01   5.00000000E-01  -7.54827961E+00  -1.22902415E-01   8.76666728E-03  -2.82621355E+00  -9.81312578E-02  -7.70701048E+00  -6.18578400E-02   1.07082933E-02  -1.07684374E+00   2.74172975E-03  -1.46880690E+00  -8.68707743E+00  -2.85525893E+01  -6.39372374E-01  -2.92198624E-08  -3.26196214E+00  -2.82250130E+01  -3.08465497E+00   7.31537839E-01
   3.67500000E+02   5.00000000E-01   5.00000000E-01  -7.47456365E+00  -1.06816541E-01   8.72261099E-03  -2.79907383E+00  -9.21407214E-02  -7.56251162E+00  -5.55261500E-02   1.06869194E-02  -9.94986512E-01   4.11678142E-02  -1.41340564E+00  -8.68323170E+00  -2.82194938E+01  -5.99510023E-01  -3.11836158E-08  -3.20442636E+00  -2.79781619E+01  -3.11384418E+00   7.24002535E-01
   4.02500000E+02   5.00000000E-01   5.00000000E-01  -7.40126163E+00  -9.47322506E-02   8.68285079E-03  -2.77223691E+00  -8.83725022E-02  -7.42252598E+00  -5.13841130E-02   1.06673572E-02  -9.18313210E-01   7.56913520E-02  -1.36191036E+00  -8.67867395E+00  -2.78935280E+01  -5.59319476E-01  -3.23085369E-08  -3.15073792E+00  -2.77399594E+01  -3.14624171E+00   7.16066440E-01
   4.37500000E+02   5.00000000E-01   5.00000000E-01  -7.32853302E+00  -8.55997682E-02   8.64727178E-03  -2.74572705E+00  -8.62428463E-02  -7.28643087E+00  -4.89159471E-02   1.06494703E-02  -8.45908315E-01   1.07072622E-01  -1.31363578E+00  -8.67341475E+00  -2.75740557E+01  -5.18859078E-01  -3.26644710E-08  -3.10017761E+00  -2.75095916E+01  -3.18123690E+00   7.07845865E-01
   4.72500000E+02   5.00000000E-01   5.00000000E-01  -7.25649751E+00  -7.86685014E-02   8.61558020E-03  -2.71956073E+00  -8.53298182E-02  -7.15372447E+00  -4.77136154E-02   1.06330247E-02  -7.77045225E-01   1.35914332E-01  -1.26803657E+00  -8.66745739E+00  -2.72605466E+01  -4.78180617E-01  -3.23138446E-08  -3.05217106E+00  -2.72864272E+01  -3.21837996E+00   6.99432745E-01
   5.07500000E+02   5.00000000E-01   5.00000000E-01  -7.18524428E+00  -7.33980986E-02   8.58732956E-03  -2.69374851E+00  -8.53260782E-02  -7.02399959E+00  -4.74527234E-02   1.06177826E-02  -7.11143079E-01   1.62697344E-01  -1.22467551E+00  -8.66080197E+00  -2.69525555E+01  -4.37329857E-01  -3.13146316E-08  -3.00625694E+00  -2.70699634E+01  -3.25733341E+00   6.90900142E-01
   5.42500000E+02   5.00000000E-01   5.00000000E-01  -7.11483926E+00  -6.93979696E-02   8.56203185E-03  -2.66829652E+00  -8.60064632E-02  -6.89692276E+00  -4.78734804E-02   1.06035214E-02  -6.47733087E-01   1.87808760E-01  -1.18319863E+00  -8.65344796E+00  -2.66497058E+01  -3.96347062E-01  -2.97241023E-08  -2.96206182E+00  -2.68597884E+01  -3.29783915E+00   6.82306594E-01
   5.77500000E+02   5.00000000E-01   5.00000000E-01  -7.04533056E+00  -6.63851690E-02   8.53922485E-03  -2.64320755E+00  -8.72053191E-02  -6.77221873E+00  -4.87665321E-02   1.05900411E-02  -5.86433653E-01   2.11562688E-01  -1.14331683E+00  -8.64539567E+00  -2.63516759E+01  -3.55267520E-01  -2.76017426E-08  -2.91928138E+00  -2.66555554E+01  -3.33969560E+00   6.73699334E-01
   6.12500000E+02   5.00000000E-01   5.00000000E-01  -6.97675217E+00  -6.41544626E-02   8.51850088E-03  -2.61848178E+00  -8.88004066E-02  -6.64965926E+00  -4.99629315E-02   1.05771674E-02  -5.26932946E-01   2.34214826E-01  -1.10479299E+00  -8.63664675E+00  -2.60581897E+01  -3.14122031E-01  -2.50110283E-08  -2.87766695E+00  -2.64569647E+01  -3.38274156E+00   6.65116535E-01
   6.47500000E+02   5.00000000E-01   5.00000000E-01  -6.90912645E+00  -6.25566962E-02   8.49951607E-03  -2.59411731E+00  -9.07013329E-02  -6.52905543E+00  -5.13273418E-02   1.05647499E-02  -4.68977304E-01   2.55972200E-01  -1.06743335E+00  -8.62720413E+00  -2.57690095E+01  -2.72937356E-01  -2.20204097E-08  -2.83701638E+00  -2.62637512E+01  -3.42684474E+00   6.56588816E-01
   6.82500000E+02   5.00000000E-01   5.00000000E-01  -6.84246576E+00  -6.14829715E-02   8.48198918E-03  -2.57011042E+00  -9.28411580E-02  -6.41025243E+00  -5.27535587E-02   1.05526597E-02  -4.12363819E-01   2.76999437E-01  -1.03108204E+00  -8.61707127E+00  -2.54839306E+01  -2.31736647E-01  -1.87029473E-08  -2.79716785E+00  -2.60756754E+01  -3.47189329E+00   6.48140199E-01
   7.17500000E+02   5.00000000E-01   5.00000000E-01  -6.77677338E+00  -6.08529948E-02   8.46569499E-03  -2.54645583E+00  -9.51702564E-02  -6.29312597E+00  -5.41615091E-02   1.05407870E-02  -3.56935579E-01   2.97422830E-01  -9.95617576E-01  -8.60625131E+00  -2.52027771E+01  -1.90539823E-01  -1.51348710E-08  -2.75799565E+00  -2.58925172E+01  -3.51778981E+00   6.39788731E-01
   7.52500000E+02   5.00000000E-01   5.00000000E-01  -6.71204429E+00  -6.06065080E-02   8.45045417E-03  -2.52314675E+00  -9.76518075E-02  -6.17757950E+00  -5.54950009E-02   1.05290409E-02  -3.02578235E-01   3.17333300E-01  -9.60950218E-01  -8.59474591E+00  -2.49253989E+01  -1.49363924E-01  -1.13933699E-08  -2.71940698E+00  -2.57140714E+01  -3.56444693E+00   6.31546934E-01
   7.87500000E+02   5.00000000E-01   5.00000000E-01  -6.64826578E+00  -6.06970489E-02   8.43612027E-03  -2.50017510E+00  -1.00258469E-01  -6.06354157E+00  -5.67196503E-02   1.05173504E-02  -2.49216839E-01   3.36789120E-01  -9.27019681E-01  -8.58255438E+00  -2.46516679E+01  -1.08223431E-01  -7.55372043E-09  -2.68133890E+00  -2.55401447E+01  -3.61178421E+00   6.23422213E-01
   8.22500000E+02   5.00000000E-01   5.00000000E-01  -6.58541824E+00  -6.10875037E-02   8.42256591E-03  -2.47753156E+00  -1.02969917E-01  -5.95096311E+00  -5.78205869E-02   1.05056653E-02  -1.96812203E-01   3.55819013E-01  -8.93792413E-01  -8.56967283E+00  -2.43814753E+01  -6.71305653E-02  -3.68631064E-09  -2.64375514E+00  -2.53705541E+01  -3.65972603E+00   6.15417323E-01
   8.57500000E+02   5.00000000E-01   5.00000000E-01  -6.52347608E+00  -6.17470335E-02   8.40967472E-03  -2.45520584E+00  -1.05771020E-01  -5.83981420E+00  -5.87997362E-02   1.04939565E-02  -1.45356429E-01   3.74425933E-01  -8.61258272E-01  -8.55609375E+00  -2.41147279E+01  -2.60955546E-02   1.46068608E-10  -2.60664232E+00  -2.52051245E+01  -3.70820030E+00   6.07530954E-01
   8.92500000E+02   5.00000000E-01   5.00000000E-01  -6.46240888E+00  -6.26490377E-02   8.39734705E-03  -2.43318685E+00  -1.08650468E-01  -5.73008047E+00  -5.96726543E-02   1.04822107E-02  -9.48675553E-02   3.92591578E-01  -8.29426563E-01  -8.54180580E+00  -2.38513450E+01   1.48731035E-02   3.89022655E-09  -2.57000564E+00  -2.50436890E+01  -3.75713771E+00   5.99758418E-01
   9.27500000E+02   5.00000000E-01   5.00000000E-01  -6.40218266E+00  -6.37698694E-02   8.38551916E-03  -2.41146296E+00  -1.11599743E-01  -5.62175920E+00  -6.04650411E-02   1.04704226E-02  -4.53835536E-02   4.10281441E-01  -7.98321578E-01  -8.52679390E+00  -2.35912546E+01   5.57684007E-02   7.50366181E-09  -2.53386422E+00  -2.48860875E+01  -3.80647147E+00   5.92092441E-01
   9.62500000E+02   5.00000000E-01   5.00000000E-01  -6.34276126E+00  -6.50880678E-02   8.37418164E-03  -2.39002228E+00  -1.14612319E-01  -5.51485535E+00  -6.12091480E-02   1.04585859E-02   3.04396665E-03   4.27450078E-01  -7.67977930E-01  -8.51103953E+00  -2.33343901E+01   9.65845851E-02   1.09545963E-08  -2.49824631E+00  -2.47321668E+01  -3.85613736E+00   5.84523979E-01
   9.97500000E+02   5.00000000E-01   5.00000000E-01  -6.28410761E+00  -6.65839186E-02   8.36336365E-03  -2.36885292E+00  -1.17683047E-01  -5.40937777E+00  -6.19403309E-02   1.04466944E-02   5.03559475E-02   4.44046226E-01  -7.38435978E-01  -8.49452140E+00  -2.30806874E+01   1.37316939E-01   1.42212965E-08  -2.46318468E+00  -2.45817802E+01  -3.90607386E+00   5.77043009E-01
   1.03250000E+03   5.00000000E-01   5.00000000E-01  -6.22618499E+00  -6.82391986E-02   8.35304763E-03  -2.34794324E+00  -1.20807683E-01  -5.30533573E+00  -6.26939718E-02   1.04347596E-02   9.64916234E-02   4.60017426E-01  -7.09737626E-01  -8.47721622E+00  -2.28300821E+01   1.77961563E-01   1.72905332E-08  -2.42871257E+00  -2.44347876E+01  -3.95622243E+00   5.69639223E-01
   1.06750000E+03   5.00000000E-01   5.00000000E-01  -6.16895804E+00  -7.00369523E-02   8.34309345E-03  -2.32728212E+00  -1.23982482E-01  -5.20273619E+00  -6.35029626E-02   1.04228250E-02   1.41393269E-01   4.75313836E-01  -6.81922849E-01  -8.45909956E+00  -2.25825076E+01   2.18515171E-01   2.01556010E-08  -2.39486026E+00  -2.42910555E+01  -4.00652770E+00   5.62302599E-01
   1.10250000E+03   5.00000000E-01   5.00000000E-01  -6.11239342E+00  -7.19611614E-02   8.33333462E-03  -2.30685900E+00  -1.27203810E-01  -5.10158185E+00  -6.43958681E-02   1.04109343E-02   1.85009367E-01   4.89890994E-01  -6.55027285E-01  -8.44014608E+00  -2.23378936E+01   2.58974899E-01   2.28141669E-08  -2.36165276E+00  -2.41504565E+01  -4.05693759E+00   5.55023869E-01
   1.13750000E+03   5.00000000E-01   5.00000000E-01  -6.05646022E+00  -7.39963384E-02   8.32375980E-03  -2.28666396E+00  -1.30467766E-01  -5.00187008E+00  -6.53957314E-02   1.03990818E-02   2.27296442E-01   5.03711609E-01  -6.29080775E-01  -8.42032944E+00  -2.20961653E+01   2.99338116E-01   2.52661260E-08  -2.32910837E+00  -2.40128695E+01  -4.10740328E+00   5.47794845E-01
   1.17250000E+03   5.00000000E-01   5.00000000E-01  -6.00113011E+00  -7.61271342E-02   8.31458550E-03  -2.26668770E+00  -1.33769893E-01  -4.90359232E+00  -6.65194149E-02   1.03871954E-02   2.68220178E-01   5.16746582E-01  -6.04106489E-01  -8.39962235E+00  -2.18572428E+01   3.39602258E-01   2.75124844E-08  -2.29723790E+00  -2.38781793E+01  -4.15787915E+00   5.40608611E-01
   1.20750000E+03   5.00000000E-01   5.00000000E-01  -5.94637760E+00  -7.83380164E-02   8.30608044E-03  -2.24692165E+00  -1.37105007E-01  -4.80673361E+00  -6.77773656E-02   1.03751872E-02   3.07756305E-01   5.28975454E-01  -5.80120355E-01  -8.37799726E+00  -2.16210415E+01   3.79764669E-01   2.95543313E-08  -2.26604420E+00  -2.37462766E+01  -4.20832260E+00   5.33459547E-01
   1.24250000E+03   5.00000000E-01   5.00000000E-01  -5.89218014E+00  -8.06130420E-02   8.29808416E-03  -2.22735809E+00  -1.40467146E-01  -4.71127223E+00  -6.91736984E-02   1.03630809E-02   3.45891568E-01   5.40386455E-01  -5.57130587E-01  -8.35542778E+00  -2.13874712E+01   4.19822451E-01   3.13925215E-08  -2.23552196E+00  -2.36170576E+01  -4.25869386E+00   5.26343199E-01
   1.27750000E+03   5.00000000E-01   5.00000000E-01  -5.83851794E+00  -8.29353163E-02   8.29001840E-03  -2.20799011E+00  -1.43849356E-01  -4.61718036E+00  -7.07067762E-02   1.03509944E-02   3.82622653E-01   5.50975651E-01  -5.35138448E-01  -8.33188850E+00  -2.11564377E+01   4.59772327E-01   3.30264347E-08  -2.20565842E+00  -2.34904237E+01  -4.30895563E+00   5.19256160E-01
   1.31250000E+03   5.00000000E-01   5.00000000E-01  -5.78537320E+00  -8.52861285E-02   8.28160273E-03  -2.18881127E+00  -1.47243280E-01  -4.52442580E+00  -7.23701774E-02   1.03389290E-02   4.17952834E-01   5.60745300E-01  -5.14140321E-01  -8.30735281E+00  -2.09278427E+01   4.99610519E-01   3.44531580E-08  -2.17643520E+00  -2.33662812E+01  -4.35907254E+00   5.12196030E-01
   1.34750000E+03   5.00000000E-01   5.00000000E-01  -5.73272947E+00  -8.76442891E-02   8.27336713E-03  -2.16981530E+00  -1.50638874E-01  -4.43297350E+00  -7.41536440E-02   1.03266290E-02   4.51889111E-01   5.69702290E-01  -4.94129538E-01  -8.28179113E+00  -2.07015851E+01   5.39332649E-01   3.56682167E-08  -2.14782990E+00  -2.32445408E+01  -4.40901074E+00   5.05161327E-01
   1.38250000E+03   5.00000000E-01   5.00000000E-01  -5.68057078E+00  -8.99853501E-02   8.26738387E-03  -2.15099573E+00  -1.54024065E-01  -4.34278756E+00  -7.60443342E-02   1.03133714E-02   4.84438267E-01   5.77856041E-01  -4.75098871E-01  -8.25516852E+00  -2.04775618E+01   5.78933642E-01   3.66656152E-08  -2.11981821E+00  -2.31251176E+01  -4.45873732E+00   4.98151379E-01
   1.41750000E+03   5.00000000E-01   5.00000000E-01  -5.62888227E+00  -9.22821393E-02   8.26545156E-03  -2.13234652E+00  -1.57385314E-01  -4.25383006E+00  -7.80274016E-02   1.02984713E-02   5.15609829E-01   5.85218123E-01  -4.57039322E-01  -8.22744949E+00  -2.02556677E+01   6.18407642E-01   3.74409870E-08  -2.09237336E+00  -2.30079302E+01  -4.50822021E+00   4.91165739E-01
   1.45250000E+03   5.00000000E-01   5.00000000E-01  -5.57765339E+00  -9.45073569E-02   8.26236239E-03  -2.11386443E+00  -1.60709739E-01  -4.16605430E+00  -8.00859259E-02   1.02831147E-02   5.45431022E-01   5.91804185E-01  -4.39932663E-01  -8.19861662E+00  -2.00357946E+01   6.57747891E-01   3.79952222E-08  -2.06546100E+00  -2.28929016E+01  -4.55742847E+00   4.84202533E-01
   1.48750000E+03   5.00000000E-01   5.00000000E-01  -5.52686901E+00  -9.66256631E-02   8.25659436E-03  -2.09554441E+00  -1.63980911E-01  -4.07942555E+00  -8.22103096E-02   1.02670042E-02   5.73905026E-01   5.97616599E-01  -4.23776269E-01  -8.16863746E+00  -1.98178396E+01   6.96946692E-01   3.83147602E-08  -2.03905943E+00  -2.27799567E+01  -4.60632862E+00   4.77258950E-01
   1.52250000E+03   5.00000000E-01   5.00000000E-01  -5.47650461E+00  -9.85903011E-02   8.25582867E-03  -2.07737707E+00  -1.67177116E-01  -3.99393223E+00  -8.44036745E-02   1.02467376E-02   6.00988639E-01   6.02634734E-01  -4.08596555E-01  -8.13744743E+00  -1.96017102E+01   7.35995395E-01   3.83825964E-08  -2.01317073E+00  -2.26690219E+01  -4.65488292E+00   4.70331353E-01
   1.55750000E+03   5.00000000E-01   5.00000000E-01  -5.42653204E+00  -1.00348962E-01   8.26443474E-03  -2.05935321E+00  -1.70275893E-01  -3.90957401E+00  -8.66823624E-02   1.02193643E-02   6.26619257E-01   6.06817676E-01  -3.94435828E-01  -8.10498458E+00  -1.93873222E+01   7.74884317E-01   3.81943874E-08  -1.98781209E+00  -2.25600255E+01  -4.70305046E+00   4.63412052E-01
   1.59250000E+03   5.00000000E-01   5.00000000E-01  -5.37691729E+00  -1.01841999E-01   8.27595416E-03  -2.04146530E+00  -1.73255736E-01  -3.82637018E+00  -8.90904293E-02   1.01837902E-02   6.50703625E-01   6.10084071E-01  -3.81364201E-01  -8.07120533E+00  -1.91746097E+01   8.13602636E-01   3.77437009E-08  -1.96302931E+00  -2.24528961E+01  -4.75078366E+00   4.56484121E-01
   1.62750000E+03   5.00000000E-01   5.00000000E-01  -5.32759801E+00  -1.02983851E-01   8.29352563E-03  -2.02369733E+00  -1.76087917E-01  -3.74441421E+00  -9.17313726E-02   1.01338067E-02   6.73011939E-01   6.12258042E-01  -3.69545970E-01  -8.03601709E+00  -1.89635520E+01   8.52138396E-01   3.70001906E-08  -1.93895365E+00  -2.23475580E+01  -4.79801799E+00   4.49519176E-01
   1.66250000E+03   5.00000000E-01   5.00000000E-01  -5.27847632E+00  -1.03659861E-01   8.32981011E-03  -2.00602335E+00  -1.78737001E-01  -3.66389362E+00  -9.47864245E-02   1.00577040E-02   6.93143942E-01   6.13041552E-01  -3.59264396E-01  -7.99927347E+00  -1.87541887E+01   8.90478435E-01   3.59380510E-08  -1.91582586E+00  -2.22439297E+01  -4.84466819E+00   4.42473165E-01
   1.69750000E+03   5.00000000E-01   5.00000000E-01  -5.22941293E+00  -1.03724720E-01   8.39691862E-03  -1.98840880E+00  -1.81164381E-01  -3.58510935E+00  -9.85414224E-02   9.94019444E-03   7.10500762E-01   6.11976481E-01  -3.50947331E-01  -7.96079474E+00  -1.85466388E+01   9.28608173E-01   3.45389908E-08  -1.89402427E+00  -2.21419224E+01  -4.89062302E+00   4.35277728E-01
   1.73250000E+03   5.00000000E-01   5.00000000E-01  -5.18021083E+00  -1.02992655E-01   8.50889416E-03  -1.97080647E+00  -1.83327418E-01  -3.50852017E+00  -1.03424938E-01   9.76050494E-03   7.24207899E-01   6.08386276E-01  -3.45221944E-01  -7.92035081E+00  -1.83411325E+01   9.66511134E-01   3.27851014E-08  -1.87411721E+00  -2.20414358E+01  -4.93573633E+00   4.27832127E-01
   1.76750000E+03   5.00000000E-01   5.00000000E-01  -5.13061697E+00  -1.01245130E-01   8.68552505E-03  -1.95315585E+00  -1.85181864E-01  -3.43473826E+00  -1.10000059E-01   9.49301557E-03   7.33125997E-01   6.01388658E-01  -3.42905659E-01  -7.87765919E+00  -1.81380096E+01   1.00416775E+00   3.06863175E-08  -1.85685577E+00  -2.19423613E+01  -4.97983194E+00   4.20006075E-01
   1.80250000E+03   5.00000000E-01   5.00000000E-01  -5.08036173E+00  -9.82711924E-02   8.94427275E-03  -1.93539375E+00  -1.86692892E-01  -3.36442698E+00  -1.18875913E-01   9.11493202E-03   7.36042438E-01   5.90034596E-01  -3.44872311E-01  -7.83244621E+00  -1.79376572E+01   1.04155237E+00   2.83125800E-08  -1.84305329E+00  -2.18445957E+01  -5.02273214E+00   4.11658043E-01
   1.83750000E+03   5.00000000E-01   5.00000000E-01  -5.02923325E+00  -9.39338503E-02   9.28961447E-03  -1.91747297E+00  -1.87849776E-01  -3.29810680E+00  -1.30535019E-01   8.61771646E-03   7.32028604E-01   5.73576377E-01  -3.51799329E-01  -7.78454692E+00  -1.77403875E+01   1.07862616E+00   2.58027905E-08  -1.83335430E+00  -2.17480657E+01  -5.06430839E+00   4.02672267E-01
   1.87250000E+03   5.00000000E-01   5.00000000E-01  -4.97715761E+00  -8.82334651E-02   9.70533258E-03  -1.89938128E+00  -1.88676525E-01  -3.23594992E+00  -1.45142366E-01   8.01585294E-03   7.20820296E-01   5.51761441E-01  -3.63895302E-01  -7.73400788E+00  -1.75463115E+01   1.11532023E+00   2.33315664E-08  -1.82798698E+00  -2.16527540E+01  -5.10453336E+00   3.93000869E-01
   1.90750000E+03   5.00000000E-01   5.00000000E-01  -4.92420886E+00  -8.13030709E-02   1.01567655E-02  -1.88114278E+00  -1.89225802E-01  -3.17777581E+00  -1.62518317E-01   7.34086984E-03   7.02853399E-01   5.24871076E-01  -3.80869641E-01  -7.68112296E+00  -1.73553602E+01   1.15149524E+00   2.10155897E-08  -1.82675125E+00  -2.15587092E+01  -5.14348296E+00   3.82671352E-01
   1.94250000E+03   5.00000000E-01   5.00000000E-01  -4.87059475E+00  -7.33818950E-02   1.06008606E-02  -1.86281198E+00  -1.89567007E-01  -3.12313536E+00  -1.82161175E-01   6.63419239E-03   6.79189827E-01   4.93680304E-01  -4.01979399E-01  -7.62648683E+00  -1.71673981E+01   1.18684154E+00   1.88792048E-08  -1.82910555E+00  -2.14660634E+01  -5.18132266E+00   3.71783935E-01
   1.97750000E+03   5.00000000E-01   5.00000000E-01  -4.81665942E+00  -6.48027349E-02   1.09953819E-02  -1.84447201E+00  -1.89776732E-01  -3.07141846E+00  -2.03225967E-01   5.94415764E-03   6.51528976E-01   4.59483242E-01  -4.26015695E-01  -7.57120854E+00  -1.69824418E+01   1.22062920E+00   1.68277902E-08  -1.83426800E+00  -2.13750949E+01  -5.21830548E+00   3.60518037E-01
   2.01250000E+03   5.00000000E-01   5.00000000E-01  -4.76284117E+00  -5.59433217E-02   1.13103217E-02  -1.82622232E+00  -1.89923318E-01  -3.02226553E+00  -2.24612224E-01   5.31269763E-03   6.21994343E-01   4.23947905E-01  -4.51449282E-01  -7.51743543E+00  -1.68013239E+01   1.25108751E+00   1.45250858E-08  -1.84164559E+00  -2.12863746E+01  -5.25474135E+00   3.49114515E-01
   2.04750000E+03   5.00000000E-01   5.00000000E-01  -4.70958970E+00  -4.71710263E-02   1.15356547E-02  -1.80815871E+00  -1.90060586E-01  -2.97649560E+00  -2.45156292E-01   4.75685283E-03   5.92722803E-01   3.88810112E-01  -4.76720036E-01  -7.46965872E+00  -1.66272431E+01   1.27394614E+00   1.11862262E-08  -1.85180516E+00  -2.12011325E+01  -5.29095317E+00   3.37832912E-01
   2.08250000E+03   5.00000000E-01   5.00000000E-01  -4.65730406E+00  -3.88834809E-02   1.16793265E-02  -1.79036035E+00  -1.90266200E-01  -2.93763772E+00  -2.63786299E-01   4.25625819E-03   5.65555372E-01   3.55631213E-01  -5.00458689E-01  -7.43737624E+00  -1.64686003E+01   1.27957883E+00   5.26179335E-09  -1.86804079E+00  -2.11220422E+01  -5.32728801E+00   3.26915355E-01
   2.11750000E+03   5.00000000E-01   5.00000000E-01  -4.60629114E+00  -3.16900677E-02   1.17644007E-02  -1.77288201E+00  -1.90745418E-01  -2.91327943E+00  -2.79648515E-01   3.75761037E-03   5.41854004E-01   3.25632072E-01  -5.21625212E-01  -7.43755198E+00  -1.63415746E+01   1.25015874E+00  -5.81649841E-09  -1.89774837E+00  -2.10541264E+01  -5.36420669E+00   3.16560533E-01
   2.15250000E+03   5.00000000E-01   5.00000000E-01  -4.55653487E+00  -2.63343457E-02   1.18419672E-02  -1.75570446E+00  -1.91858067E-01  -2.91248244E+00  -2.92730808E-01   3.21538858E-03   5.21528407E-01   2.98840267E-01  -5.40242309E-01  -7.48812679E+00  -1.62642512E+01   1.16524080E+00  -2.47974799E-08  -1.94997275E+00  -2.10035186E+01  -5.40217447E+00   3.06792182E-01
   2.18750000E+03   5.00000000E-01   5.00000000E-01  -4.50743515E+00  -2.27724595E-02   1.19809016E-02  -1.73868598E+00  -1.93739816E-01  -2.93599449E+00  -3.04537051E-01   2.67174897E-03   5.01987516E-01   2.73120104E-01  -5.58214341E-01  -7.58705449E+00  -1.62362143E+01   1.02210667E+00  -5.09917935E-08  -2.02578378E+00  -2.09719837E+01  -5.44104536E+00   2.97294945E-01
   2.22250000E+03   5.00000000E-01   5.00000000E-01  -4.45838910E+00  -1.96492051E-02   1.21794554E-02  -1.72170502E+00  -1.95892246E-01  -2.97076149E+00  -3.16597076E-01   2.23840930E-03   4.80724062E-01   2.46261376E-01  -5.77448506E-01  -7.70490919E+00  -1.62294190E+01   8.45274979E-01  -7.55846508E-08  -2.11249251E+00  -2.09537579E+01  -5.47985317E+00   2.87710296E-01
   2.25750000E+03   5.00000000E-01   5.00000000E-01  -4.40949790E+00  -1.55147258E-02   1.23512568E-02  -1.70480560E+00  -1.97583144E-01  -2.99931017E+00  -3.28670047E-01   1.96684231E-03   4.58298602E-01   2.18582673E-01  -5.97593273E-01  -7.80765243E+00  -1.62092512E+01   6.67336538E-01  -8.35229319E-08  -2.19261776E+00  -2.09401906E+01  -5.51770346E+00   2.78052647E-01
   2.29250000E+03   5.00000000E-01   5.00000000E-01  -4.36123156E+00  -9.81646609E-03   1.24360447E-02  -1.68809839E+00  -1.98411236E-01  -3.01024710E+00  -3.39559362E-01   1.82164997E-03   4.36807729E-01   1.91799543E-01  -6.17109415E-01  -7.87540722E+00  -1.61544610E+01   5.11262150E-01  -6.59083214E-08  -2.25452259E+00  -2.09244537E+01  -5.55435418E+00   2.68571841E-01
   2.32750000E+03   5.00000000E-01   5.00000000E-01  -4.31394678E+00  -2.72176347E-03   1.24391203E-02  -1.67165281E+00  -1.98350589E-01  -3.00052595E+00  -3.48324739E-01   1.73930462E-03   4.17806935E-01   1.67277431E-01  -6.34815836E-01  -7.90415991E+00  -1.60601337E+01   3.86769516E-01  -3.08298765E-08  -2.29494787E+00  -2.09027940E+01  -5.59000930E+00   2.59486934E-01
   2.36250000E+03   5.00000000E-01   5.00000000E-01  -4.26777352E+00   5.36326230E-03   1.23970296E-02  -1.65548360E+00  -1.97553368E-01  -2.97269594E+00  -3.54594728E-01   1.66617321E-03   4.01846251E-01   1.45567791E-01  -6.50265100E-01  -7.89969881E+00  -1.59318099E+01   2.93284100E-01   4.27665648E-09  -2.31634727E+00  -2.08742728E+01  -5.62497171E+00   2.50899572E-01
   2.39750000E+03   5.00000000E-01   5.00000000E-01  -4.22267735E+00   1.40676934E-02   1.23440299E-02  -1.63957276E+00  -1.96203631E-01  -2.93118155E+00  -3.58430082E-01   1.57104085E-03   3.88763127E-01   1.26600778E-01  -6.63547392E-01  -7.87062027E+00  -1.57782473E+01   2.25319433E-01   2.83018952E-08  -2.32314863E+00  -2.08396701E+01  -5.65947385E+00   2.42812418E-01
   2.43250000E+03   5.00000000E-01   5.00000000E-01  -4.17855209E+00   2.31102183E-02   1.22990843E-02  -1.62389212E+00  -1.94466323E-01  -2.88003086E+00  -3.60096579E-01   1.44378505E-03   3.78098115E-01   1.10016849E-01  -6.74988722E-01  -7.82439882E+00  -1.56072252E+01   1.76715965E-01   3.99654875E-08  -2.31945461E+00  -2.08003260E+01  -5.69366418E+00   2.35176752E-01
   2.46750000E+03   5.00000000E-01   5.00000000E-01  -4.13528161E+00   3.22714327E-02   1.22683332E-02  -1.60841524E+00  -1.92482159E-01  -2.82227619E+00  -3.59904163E-01   1.28715263E-03   3.69363403E-01   9.54015257E-02  -6.84947838E-01  -7.76646030E+00  -1.54244694E+01   1.42414363E-01   4.26304939E-08  -2.30836544E+00  -2.07575072E+01  -5.72764239E+00   2.27930421E-01
   2.50250000E+03   5.00000000E-01   5.00000000E-01  -4.09276539E+00   4.13624429E-02   1.22522260E-02  -1.59312058E+00  -1.90373736E-01  -2.76008149E+00  -3.58133540E-01   1.10900053E-03   3.62148809E-01   8.23906275E-02  -6.93731272E-01  -7.70060523E+00  -1.52340286E+01   1.18467691E-01   4.00537427E-08  -2.29210718E+00  -2.07123142E+01  -5.76148891E+00   2.21016995E-01
   2.53750000E+03   5.00000000E-01   5.00000000E-01  -4.05092624E+00   5.02141456E-02   1.22498154E-02  -1.57799194E+00  -1.88247421E-01  -2.69498240E+00  -3.55009574E-01   9.19013301E-04   3.56153071E-01   7.07058028E-02  -7.01566884E-01  -7.62952283E+00  -1.50387771E+01   1.01712893E-01   3.50296055E-08  -2.27226475E+00  -2.06657231E+01  -5.79527669E+00   2.14392712E-01
   2.57250000E+03   5.00000000E-01   5.00000000E-01  -4.00971162E+00   5.86837931E-02   1.22593847E-02  -1.56301853E+00  -1.86189491E-01  -2.62802987E+00  -3.50693539E-01   7.27786145E-04   3.51188466E-01   6.01614061E-02  -7.08599729E-01  -7.55508363E+00  -1.48407022E+01   8.97060676E-02   2.93159067E-08  -2.24992451E+00  -2.06185438E+01  -5.82906997E+00   2.08027645E-01
   2.60750000E+03   5.00000000E-01   5.00000000E-01  -3.96908971E+00   6.66651164E-02   1.22783877E-02  -1.54819408E+00  -1.84262175E-01  -2.55990206E+00  -3.45290008E-01   5.45574164E-04   3.47160384E-01   5.06500240E-02  -7.14906445E-01  -7.47853664E+00  -1.46411102E+01   8.07285712E-02   2.38583021E-08  -2.22578824E+00  -2.05713624E+01  -5.86291909E+00   2.01903482E-01
   2.64250000E+03   5.00000000E-01   5.00000000E-01  -3.92904125E+00   7.40927429E-02   1.23040337E-02  -1.53351494E+00  -1.82503609E-01  -2.49101815E+00  -3.38865563E-01   3.80789716E-04   3.44027430E-01   4.21123512E-02  -7.20523597E-01  -7.40068383E+00  -1.44408239E+01   7.37023937E-02   1.90668338E-08  -2.20029138E+00  -2.05245368E+01  -5.89685665E+00   1.96009209E-01
   2.67750000E+03   5.00000000E-01   5.00000000E-01  -3.88955055E+00   8.09381645E-02   1.23340393E-02  -1.51897799E+00  -1.80932250E-01  -2.42164475E+00  -3.31471604E-01   2.39047421E-04   3.41758583E-01   3.45035211E-02  -7.25478415E-01  -7.32203539E+00  -1.42403647E+01   6.80130650E-02   1.50499741E-08  -2.17371422E+00  -2.04782478E+01  -5.93089758E+00   1.90336301E-01
   2.71250000E+03   5.00000000E-01   5.00000000E-01  -3.85060006E+00   8.71989822E-02   1.23668762E-02  -1.50457946E+00  -1.79553773E-01  -2.35197433E+00  -3.23159532E-01   1.23464401E-04   3.40309338E-01   2.77727102E-02  -7.29806428E-01  -7.24293435E+00  -1.40400929E+01   6.32993969E-02   1.17723649E-08  -2.14626332E+00  -2.04325779E+01  -5.96504318E+00   1.84875696E-01