 TITLE = "Mineral Saturation State" 
VARIABLES = "X"          "Y"              "Z"            "Forsterite"     "Enstatite(alph" "Anorthite"      "Tremolite"      "Pargasite"      "Anhydrite"      "Clinochlore"    "Albite(low)"    "Fayalite"       "Epidote"        "Kaolinite"      "Muscovite(orde" "Sudoite"        "Saponite(Mg)"   "Scolecite"      "FeS(am)"        "Quartz(alpha)"  "Montmorillonit"
 ZONE I=         100 , J=           1 , K=           1  F=POINT
   1.75000000E+01   5.00000000E-01   5.00000000E-01  -7.42296322E+00  -2.62151247E+00  -1.01987961E+01  -4.96081986E+00  -3.11939212E+01  -7.16483744E-01   4.41110579E-01  -5.61863795E-01  -4.06575505E+00  -7.83123382E-09  -3.62959768E+00  -1.52669313E+00  -4.40596482E+00   1.26985016E+00  -4.80825077E+00  -5.06704583E+00   8.95784464E-01  -1.30568560E+00
   5.25000000E+01   5.00000000E-01   5.00000000E-01  -7.51471024E+00  -2.61252042E+00  -9.59431289E+00  -4.68973688E+00  -3.04497894E+01  -5.21525770E-01   3.90411215E-01  -1.21413627E-01  -3.61605467E+00   6.66767168E-09  -3.07235513E+00  -8.17239650E-01  -3.71706208E+00   1.33487453E+00  -4.14520690E+00  -4.89703568E+00   1.01500701E+00  -6.28312475E-01
   8.75000000E+01   5.00000000E-01   5.00000000E-01  -7.48886844E+00  -2.58695426E+00  -9.33071396E+00  -4.46277821E+00  -2.99840191E+01  -3.77363983E-01   3.60157508E-01  -4.73060304E-04  -3.31181760E+00   1.52602582E-09  -2.91801401E+00  -6.60289065E-01  -3.54590679E+00   1.37233572E+00  -3.90703514E+00  -4.79838824E+00   1.04966740E+00  -4.31368771E-01
   1.22500000E+02   5.00000000E-01   5.00000000E-01  -7.43970822E+00  -2.56287480E+00  -9.15076317E+00  -4.32055487E+00  -2.96103519E+01  -2.68134616E-01   3.46992741E-01   3.90278922E-02  -3.08780501E+00   6.36196908E-10  -2.84698104E+00  -6.14499560E-01  -3.46391294E+00   1.38800714E+00  -3.77835559E+00  -4.73584769E+00   1.05791664E+00  -3.52368436E-01
   1.57500000E+02   5.00000000E-01   5.00000000E-01  -7.38430359E+00  -2.54029067E+00  -9.00512888E+00  -4.23156851E+00  -2.92852967E+01  -1.84937177E-01   3.41724153E-01   5.22500132E-02  -2.91243143E+00   3.02018101E-10  -2.80012928E+00  -5.99709127E-01  -3.40404584E+00   1.39444552E+00  -3.69278481E+00  -4.69533621E+00   1.05681366E+00  -3.11025715E-01
   1.92500000E+02   5.00000000E-01   5.00000000E-01  -7.32710889E+00  -2.51852163E+00  -8.87911880E+00  -4.17617662E+00  -2.89927833E+01  -1.21790557E-01   3.39720358E-01   5.58789938E-02  -2.76888667E+00   1.26544449E-10  -2.76218346E+00  -5.95593063E-01  -3.35186991E+00   1.39725106E+00  -3.62982054E+00  -4.66939616E+00   1.05217547E+00  -2.83683291E-01
   2.27500000E+02   5.00000000E-01   5.00000000E-01  -7.26959183E+00  -2.49723484E+00  -8.76635614E+00  -4.14356843E+00  -2.87242846E+01  -7.42267883E-02   3.39049954E-01   5.57441142E-02  -2.64751151E+00   1.56205618E-11  -2.72815840E+00  -5.95608567E-01  -3.30317921E+00   1.39862195E+00  -3.58095751E+00  -4.65363626E+00   1.04613750E+00  -2.62143836E-01
   2.62500000E+02   5.00000000E-01   5.00000000E-01  -7.21229090E+00  -2.47628927E+00  -8.66328849E+00  -4.12720182E+00  -2.84742530E+01  -3.87399868E-02   3.38936500E-01   5.40342347E-02  -2.54235102E+00  -6.44880484E-11  -2.69620728E+00  -5.97366878E-01  -3.25648895E+00   1.39941873E+00  -3.54182759E+00  -4.64529964E+00   1.03952238E+00  -2.43316936E-01
   2.97500000E+02   5.00000000E-01   5.00000000E-01  -7.15541399E+00  -2.45562476E+00  -8.56760532E+00  -4.12269370E+00  -2.82386990E+01  -1.25388180E-02   3.39066860E-01   5.16077458E-02  -2.44952882E+00  -1.28673684E-10  -2.66558608E+00  -5.99929851E-01  -3.21120379E+00   1.39998496E+00  -3.50979683E+00  -4.64257757E+00   1.03266030E+00  -2.25969550E-01
   3.32500000E+02   5.00000000E-01   5.00000000E-01  -7.09904272E+00  -2.43521388E+00  -8.47765223E+00  -4.12687177E+00  -2.80145922E+01   6.61847169E-03   3.39312532E-01   4.88124326E-02  -2.36641066E+00  -1.84218945E-10  -2.63597047E+00  -6.02908692E-01  -3.16705737E+00   1.40046111E+00  -3.48307909E+00  -4.64424175E+00   1.02568969E+00  -2.09583169E-01
   3.67500000E+02   5.00000000E-01   5.00000000E-01  -7.04320805E+00  -2.41504251E+00  -8.39215738E+00  -4.13728868E+00  -2.77995228E+01   2.05722571E-02   3.39619643E-01   4.57930328E-02  -2.29114519E+00  -2.34536780E-10  -2.60720510E+00  -6.06134182E-01  -3.12391529E+00   1.40090585E+00  -3.46034803E+00  -4.64943490E+00   1.01867168E+00  -1.93926142E-01
   4.02500000E+02   5.00000000E-01   5.00000000E-01  -6.98791785E+00  -2.39510181E+00  -8.31021222E+00  -4.15219537E+00  -2.75917356E+01   3.06691765E-02   3.39965896E-01   4.26091013E-02  -2.22236245E+00  -2.82490856E-10  -2.57921219E+00  -6.09534610E-01  -3.08170719E+00   1.40134347E+00  -3.44067422E+00  -4.65752779E+00   1.01163367E+00  -1.78893015E-01
   4.37500000E+02   5.00000000E-01   5.00000000E-01  -6.93317033E+00  -2.37538534E+00  -8.23115377E+00  -4.17032074E+00  -2.73899333E+01   3.78977735E-02   3.40341956E-01   3.92859135E-02  -2.15901832E+00  -3.29803075E-10  -2.55194780E+00  -6.13078900E-01  -3.04039118E+00   1.40178347E+00  -3.42338819E+00  -4.66804580E+00   1.00458859E+00  -1.64431945E-01
   4.72500000E+02   5.00000000E-01   5.00000000E-01  -6.87895973E+00  -2.35588780E+00  -8.15448754E+00  -4.19072440E+00  -2.71931398E+01   4.29902311E-02   3.40743740E-01   3.58353306E-02  -2.10029778E+00  -3.77516454E-10  -2.52538308E+00  -6.16752743E-01  -2.99993834E+00   1.40222882E+00  -3.40799518E+00  -4.68062273E+00   9.97543063E-01  -1.50514109E-01
   5.07500000E+02   5.00000000E-01   5.00000000E-01  -6.82527882E+00  -2.33660452E+00  -8.07983830E+00  -4.21270221E+00  -2.70006099E+01   4.64917661E-02   3.41169170E-01   3.22645978E-02  -2.04555173E+00  -4.26174103E-10  -2.49949575E+00  -6.20547936E-01  -2.96032536E+00   1.40267947E+00  -3.39412239E+00  -4.69497042E+00   9.90500915E-01  -1.37120253E-01
   5.42500000E+02   5.00000000E-01   5.00000000E-01  -6.77212025E+00  -2.31753138E+00  -8.00691691E+00  -4.23572281E+00  -2.68117679E+01   4.88094833E-02   3.41616770E-01   2.85801471E-02  -1.99425451E+00  -4.76109293E-10  -2.47426593E+00  -6.24457316E-01  -2.92153062E+00   1.40313382E+00  -3.38148421E+00  -4.71085830E+00   9.83464800E-01  -1.24234464E-01
   5.77500000E+02   5.00000000E-01   5.00000000E-01  -6.71947717E+00  -2.29866464E+00  -7.93549718E+00  -4.25938307E+00  -2.66261634E+01   5.02476180E-02   3.42085059E-01   2.47892745E-02  -1.94597463E+00  -5.27408428E-10  -2.44967388E+00  -6.28472201E-01  -2.88353199E+00   1.40358932E+00  -3.36985832E+00  -4.72809921E+00   9.76436957E-01  -1.11841125E-01
   6.12500000E+02   5.00000000E-01   5.00000000E-01  -6.66734361E+00  -2.28000105E+00  -7.86539916E+00  -4.28337621E+00  -2.64434400E+01   5.10334254E-02   3.42572289E-01   2.09008815E-02  -1.90035404E+00  -5.80127052E-10  -2.42569878E+00  -6.32581027E-01  -2.84630547E+00   1.40404275E+00  -3.35906856E+00  -4.74653941E+00   9.69419591E-01  -9.99233393E-02
   6.47500000E+02   5.00000000E-01   5.00000000E-01  -6.61571468E+00  -2.26153776E+00  -7.79647700E+00  -4.30746818E+00  -2.62633117E+01   5.13364441E-02   3.43076334E-01   1.69257858E-02  -1.85709314E+00  -6.34129390E-10  -2.40231801E+00  -6.36768623E-01  -2.80982434E+00   1.40449036E+00  -3.34897262E+00  -4.76605140E+00   9.62415071E-01  -8.84621076E-02
   6.82500000E+02   5.00000000E-01   5.00000000E-01  -6.56458666E+00  -2.24327240E+00  -7.72860985E+00  -4.33148020E+00  -2.60855456E+01   5.12829465E-02   3.43594664E-01   1.28768152E-02  -1.81593968E+00  -6.89224117E-10  -2.37950674E+00  -6.41015879E-01  -2.77405874E+00   1.40492790E+00  -3.33945290E+00  -4.78652857E+00   9.55426030E-01  -7.74359021E-02
   7.17500000E+02   5.00000000E-01   5.00000000E-01  -6.51395708E+00  -2.22520300E+00  -7.66169527E+00  -4.35527555E+00  -2.59099486E+01   5.09668279E-02   3.44124351E-01   8.76878017E-03  -1.77668032E+00  -7.45040933E-10  -2.35723773E+00  -6.45299650E-01  -2.73897539E+00   1.40535069E+00  -3.33040972E+00  -4.80788124E+00   9.48455419E-01  -6.68205026E-02
   7.52500000E+02   5.00000000E-01   5.00000000E-01  -6.46382460E+00  -2.20732802E+00  -7.59564421E+00  -4.37874955E+00  -2.57363578E+01   5.04578216E-02   3.44662106E-01   4.61836253E-03  -1.73913414E+00  -8.01237308E-10  -2.33548140E+00  -6.49592889E-01  -2.70453767E+00   1.40575368E+00  -3.32175646E+00  -4.83003359E+00   9.41506515E-01  -5.65890145E-02
   7.87500000E+02   5.00000000E-01   5.00000000E-01  -6.41418903E+00  -2.18964628E+00  -7.53037745E+00  -4.40182193E+00  -2.55646331E+01   4.98076903E-02   3.45204321E-01   4.43934651E-04  -1.70314752E+00  -8.57273220E-10  -2.31420590E+00  -6.53864941E-01  -2.67070577E+00   1.40613149E+00  -3.31341588E+00  -4.85292122E+00   9.34582917E-01  -4.67120376E-02
   8.22500000E+02   5.00000000E-01   5.00000000E-01  -6.36505122E+00  -2.17215697E+00  -7.46582276E+00  -4.42443112E+00  -2.53946514E+01   4.90548780E-02   3.45747178E-01  -3.73451397E-03  -1.66859003E+00  -9.12596300E-10  -2.29337715E+00  -6.58081601E-01  -2.63743668E+00   1.40647848E+00  -3.30531736E+00  -4.87648938E+00   9.27688538E-01  -3.71576918E-02
   8.57500000E+02   5.00000000E-01   5.00000000E-01  -6.31641244E+00  -2.15485940E+00  -7.40191446E+00  -4.44652867E+00  -2.52263038E+01   4.82279901E-02   3.46286426E-01  -7.89661242E-03  -1.63535057E+00  -9.66533834E-10  -2.27296087E+00  -6.62208061E-01  -2.60468729E+00   1.40678906E+00  -3.29739659E+00  -4.90069110E+00   9.20827431E-01  -2.78935529E-02
   8.92500000E+02   5.00000000E-01   5.00000000E-01  -6.26827480E+00  -2.13775319E+00  -7.33859044E+00  -4.46807723E+00  -2.50594909E+01   4.73483814E-02   3.46817937E-01  -1.20207931E-02  -1.60333515E+00  -1.01836065E-09  -2.25292092E+00  -6.66206562E-01  -2.57241162E+00   1.40705748E+00  -3.28959256E+00  -4.92548624E+00   9.14003860E-01  -1.88852415E-02
   9.27500000E+02   5.00000000E-01   5.00000000E-01  -6.22064081E+00  -2.12083806E+00  -7.27579202E+00  -4.48904713E+00  -2.48941213E+01   4.64320715E-02   3.47337551E-01  -1.60849914E-02  -1.57246419E+00  -1.06727134E-09  -2.23322058E+00  -6.70038238E-01  -2.54056283E+00   1.40727810E+00  -3.28184745E+00  -4.95084035E+00   9.07222223E-01  -1.00975543E-02
   9.62500000E+02   5.00000000E-01   5.00000000E-01  -6.17351310E+00  -2.10411375E+00  -7.21346368E+00  -4.50941396E+00  -2.47301101E+01   4.54911513E-02   3.47841144E-01  -2.00671644E-02  -1.54267045E+00  -1.11241729E-09  -2.21382334E+00  -6.73664285E-01  -2.50909437E+00   1.40744557E+00  -3.27410653E+00  -4.97672367E+00   9.00486961E-01  -1.49527663E-03
   9.97500000E+02   5.00000000E-01   5.00000000E-01  -6.12689410E+00  -2.08757993E+00  -7.15155305E+00  -4.52915680E+00  -2.45673776E+01   4.45348116E-02   3.48324732E-01  -2.39457730E-02  -1.51389711E+00  -1.15290979E-09  -2.19469372E+00  -6.77047003E-01  -2.47796100E+00   1.40755499E+00  -3.26631813E+00  -5.00311042E+00   8.93802465E-01   6.95606293E-03
   1.03250000E+03   5.00000000E-01   5.00000000E-01  -6.08078574E+00  -2.07123610E+00  -7.09001099E+00  -4.54825661E+00  -2.44058490E+01   4.35700899E-02   3.48784540E-01  -2.77003035E-02  -1.48609614E+00  -1.18788170E-09  -2.17579803E+00  -6.80150963E-01  -2.44712001E+00   1.40760203E+00  -3.25843394E+00  -5.02997799E+00   8.87172969E-01   1.52893622E-02
   1.06750000E+03   5.00000000E-01   5.00000000E-01  -6.03518920E+00  -2.05508144E+00  -7.02879183E+00  -4.56669490E+00  -2.42454534E+01   4.26024117E-02   3.49217089E-01  -3.13117618E-02  -1.45922684E+00  -1.21641036E-09  -2.15710518E+00  -6.82944090E-01  -2.41653224E+00   1.40758314E+00  -3.25040927E+00  -5.05730637E+00   8.80602457E-01   2.35351548E-02
   1.10250000E+03   5.00000000E-01   5.00000000E-01  -5.99010456E+00  -2.03911481E+00  -6.96785363E+00  -4.58445275E+00  -2.40861235E+01   4.16359814E-02   3.49619274E-01  -3.47631302E-02  -1.43325449E+00  -1.23765334E-09  -2.13858743E+00  -6.85398669E-01  -2.38616309E+00   1.40749560E+00  -3.24220347E+00  -5.08507758E+00   8.74094563E-01   3.17208758E-02
   1.13750000E+03   5.00000000E-01   5.00000000E-01  -5.94553064E+00  -2.02333459E+00  -6.90715849E+00  -4.60150982E+00  -2.39277955E+01   4.06740651E-02   3.49988425E-01  -3.80397824E-02  -1.40814927E+00  -1.25075894E-09  -2.12022101E+00  -6.87492256E-01  -2.35598349E+00   1.40733771E+00  -3.23378025E+00  -5.11327515E+00   8.67652484E-01   3.98701858E-02
   1.17250000E+03   5.00000000E-01   5.00000000E-01  -5.90146474E+00  -2.00773868E+00  -6.84667274E+00  -4.61784374E+00  -2.37704088E+01   3.97191954E-02   3.50322365E-01  -4.11298334E-02  -1.38388516E+00  -1.25503592E-09  -2.10198672E+00  -6.89208443E-01  -2.32597061E+00   1.40710879E+00  -3.22510801E+00  -5.14188370E+00   8.61278904E-01   4.80023984E-02
   1.20750000E+03   5.00000000E-01   5.00000000E-01  -5.85790250E+00  -1.99232442E+00  -6.78636711E+00  -4.63342946E+00  -2.36139059E+01   3.87733221E-02   3.50619448E-01  -4.40244022E-02  -1.36043908E+00  -1.24981158E-09  -2.08387031E+00  -6.90537425E-01  -2.29610847E+00   1.40680930E+00  -3.21616007E+00  -5.17088856E+00   8.54975930E-01   5.61320410E-02
   1.24250000E+03   5.00000000E-01   5.00000000E-01  -5.81483782E+00  -1.97708855E+00  -6.72621682E+00  -4.64823896E+00  -2.34582318E+01   3.78379229E-02   3.50878587E-01  -4.67177767E-02  -1.33779008E+00  -1.23451503E-09  -2.06586278E+00  -6.91476339E-01  -2.26638827E+00   1.40644081E+00  -3.20691478E+00  -5.20027543E+00   8.48745047E-01   6.42685702E-02
   1.27750000E+03   5.00000000E-01   5.00000000E-01  -5.77226282E+00  -1.96202729E+00  -6.66620147E+00  -4.66224098E+00  -2.33033343E+01   3.69140878E-02   3.51099267E-01  -4.92074689E-02  -1.31591874E+00  -1.20872969E-09  -2.04796044E+00  -6.92029367E-01  -2.23680848E+00   1.40600600E+00  -3.19735546E+00  -5.23003012E+00   8.42587092E-01   7.24162608E-02
   1.31250000E+03   5.00000000E-01   5.00000000E-01  -5.73016788E+00  -1.94713625E+00  -6.60630491E+00  -4.67540103E+00  -2.31491633E+01   3.60025833E-02   3.51281541E-01  -5.14941578E-02  -1.29480658E+00  -1.17217165E-09  -2.03016483E+00  -6.92207572E-01  -2.20737471E+00   1.40550857E+00  -3.18747025E+00  -5.26013831E+00   8.36502250E-01   8.05742714E-02
   1.34750000E+03   5.00000000E-01   5.00000000E-01  -5.68854175E+00  -1.93241056E+00  -6.54651488E+00  -4.68768144E+00  -2.29956706E+01   3.51039039E-02   3.51426011E-01  -5.35815214E-02  -1.27443563E+00  -1.12467736E-09  -2.01248242E+00  -6.92028504E-01  -2.17809926E+00   1.40495319E+00  -3.17725174E+00  -5.29058544E+00   8.30490068E-01   8.87368850E-02
   1.38250000E+03   5.00000000E-01   5.00000000E-01  -5.64737171E+00  -1.91784489E+00  -6.48682259E+00  -4.69904163E+00  -2.28428100E+01   3.42183130E-02   3.51533792E-01  -5.54759688E-02  -1.25478811E+00  -1.06621906E-09  -1.99492419E+00  -6.91515570E-01  -2.14900055E+00   1.40434531E+00  -3.16669657E+00  -5.32135653E+00   8.24549494E-01   9.68939098E-02
   1.41750000E+03   5.00000000E-01   5.00000000E-01  -5.60664377E+00  -1.90343357E+00  -6.42722223E+00  -4.70943845E+00  -2.26905362E+01   3.33458777E-02   3.51606467E-01  -5.71862839E-02  -1.23584614E+00  -9.96957208E-10  -1.97750508E+00  -6.90697227E-01  -2.12010225E+00   1.40369105E+00  -3.15580480E+00  -5.35243618E+00   8.18678929E-01   1.05031219E-01
   1.45250000E+03   5.00000000E-01   5.00000000E-01  -5.56634293E+00  -1.88917061E+00  -6.36771037E+00  -4.71882662E+00  -2.25388050E+01   3.24864981E-02   3.51646024E-01  -5.87232021E-02  -1.21759160E+00  -9.17178784E-10  -1.96024328E+00  -6.89606021E-01  -2.09143235E+00   1.40299703E+00  -3.14457931E+00  -5.38380849E+00   8.12876294E-01   1.13131397E-01
   1.48750000E+03   5.00000000E-01   5.00000000E-01  -5.52645344E+00  -1.87504988E+00  -6.30828533E+00  -4.72715921E+00  -2.23875729E+01   3.16399328E-02   3.51654790E-01  -6.00989428E-02  -1.20000593E+00  -8.27315809E-10  -1.94315950E+00  -6.88277545E-01  -2.06302210E+00   1.40227015E+00  -3.13302503E+00  -5.41545706E+00   8.07139115E-01   1.21174456E-01
   1.52250000E+03   5.00000000E-01   5.00000000E-01  -5.48695912E+00  -1.86106513E+00  -6.24894653E+00  -4.73438818E+00  -2.22367965E+01   3.08058221E-02   3.51635353E-01  -6.13267191E-02  -1.18307005E+00  -7.27911392E-10  -1.92627619E+00  -6.86749352E-01  -2.03490496E+00   1.40151746E+00  -3.12114830E+00  -5.44736504E+00   8.01464600E-01   1.29138589E-01
   1.55750000E+03   5.00000000E-01   5.00000000E-01  -5.44784358E+00  -1.84721016E+00  -6.18969392E+00  -4.74046488E+00  -2.20864323E+01   2.99837090E-02   3.51590481E-01  -6.24202510E-02  -1.16676433E+00  -6.19736995E-10  -1.90961682E+00  -6.85059898E-01  -2.00711548E+00   1.40074600E+00  -3.10895611E+00  -5.47951514E+00   7.95849735E-01   1.37000916E-01
   1.59250000E+03   5.00000000E-01   5.00000000E-01  -5.40909053E+00  -1.83347885E+00  -6.13052739E+00  -4.74534055E+00  -2.19364367E+01   2.91730584E-02   3.51523047E-01  -6.33932994E-02  -1.15106843E+00  -5.03665914E-10  -1.89320511E+00  -6.83247530E-01  -1.97968837E+00   1.39996258E+00  -3.09645548E+00  -5.51188967E+00   7.90291366E-01   1.44738199E-01
   1.62750000E+03   5.00000000E-01   5.00000000E-01  -5.37068400E+00  -1.81986527E+00  -6.07144628E+00  -4.74896678E+00  -2.17867654E+01   2.83732756E-02   3.51435943E-01  -6.42592430E-02  -1.13596133E+00  -3.80670191E-10  -1.87706442E+00  -6.81349596E-01  -1.95265763E+00   1.39917372E+00  -3.08365288E+00  -5.54447056E+00   7.84786281E-01   1.52327482E-01
   1.66250000E+03   5.00000000E-01   5.00000000E-01  -5.33260855E+00  -1.80636373E+00  -6.01244898E+00  -4.75129587E+00  -2.16373735E+01   2.75837242E-02   3.51332013E-01  -6.50307084E-02  -1.12142113E+00  -2.51891588E-10  -1.86121721E+00  -6.79401681E-01  -1.92605573E+00   1.39838552E+00  -3.07055376E+00  -5.57723941E+00   7.79331282E-01   1.59746655E-01
   1.69750000E+03   5.00000000E-01   5.00000000E-01  -5.29484940E+00  -1.79296883E+00  -5.95353261E+00  -4.75228116E+00  -2.14882151E+01   2.68037429E-02   3.51213986E-01  -6.57192627E-02  -1.10742502E+00  -1.18607648E-10  -1.84568459E+00  -6.77436989E-01  -1.89991311E+00   1.39760357E+00  -3.05716217E+00  -5.61017746E+00   7.73923253E-01   1.66974905E-01
   1.73250000E+03   5.00000000E-01   5.00000000E-01  -5.25739257E+00  -1.77967551E+00  -5.89469281E+00  -4.75187729E+00  -2.13392437E+01   2.60326628E-02   3.51084415E-01  -6.63351726E-02  -1.09394910E+00   1.78362006E-11  -1.83048599E+00  -6.75485882E-01  -1.87425774E+00   1.39683293E+00  -3.04348047E+00  -5.64326559E+00   7.68559203E-01   1.73993073E-01
   1.76750000E+03   5.00000000E-01   5.00000000E-01  -5.22022497E+00  -1.76647903E+00  -5.83592360E+00  -4.75004031E+00  -2.11904117E+01   2.52698236E-02   3.50945635E-01  -6.68872290E-02  -1.08096826E+00   1.55986523E-10  -1.81563895E+00  -6.73575580E-01  -1.84911481E+00   1.39607806E+00  -3.02950921E+00  -5.67648429E+00   7.63236313E-01   1.80783893E-01
   1.80250000E+03   5.00000000E-01   5.00000000E-01  -5.18333443E+00  -1.75337502E+00  -5.77721738E+00  -4.74672789E+00  -2.10416707E+01   2.45145911E-02   3.50799722E-01  -6.73826328E-02  -1.06845591E+00   2.94263365E-10  -1.80115903E+00  -6.71729984E-01  -1.82450664E+00   1.39534287E+00  -3.01524704E+00  -5.70981361E+00   7.57951958E-01   1.87332143E-01
   1.83750000E+03   5.00000000E-01   5.00000000E-01  -5.14670968E+00  -1.74035947E+00  -5.71856495E+00  -4.74189926E+00  -2.08929716E+01   2.37663731E-02   3.50648465E-01  -6.78269385E-02  -1.05638384E+00   4.31096031E-10  -1.78705975E+00  -6.69969648E-01  -1.80045270E+00   1.39463069E+00  -3.00069077E+00  -5.74323304E+00   7.52703727E-01   1.93624690E-01
   1.87250000E+03   5.00000000E-01   5.00000000E-01  -5.11034037E+00  -1.72742868E+00  -5.65995559E+00  -4.73551529E+00  -2.07442644E+01   2.30246363E-02   3.50493354E-01  -6.82240433E-02  -1.04472194E+00   5.64833590E-10  -1.77335269E+00  -6.68311840E-01  -1.77696969E+00   1.39394434E+00  -2.98583541E+00  -5.77672149E+00   7.47489425E-01   1.99650464E-01
   1.90750000E+03   5.00000000E-01   5.00000000E-01  -5.07421699E+00  -1.71457926E+00  -5.60137728E+00  -4.72753840E+00  -2.05954989E+01   2.22889225E-02   3.50335563E-01  -6.85762139E-02  -1.03343795E+00   6.93822031E-10  -1.76004759E+00  -6.66770695E-01  -1.75407179E+00   1.39328615E+00  -2.97067438E+00  -5.81025712E+00   7.42307074E-01   2.05400374E-01
   1.94250000E+03   5.00000000E-01   5.00000000E-01  -5.03833080E+00  -1.70180812E+00  -5.54281681E+00  -4.71793250E+00  -2.04466240E+01   2.15588640E-02   3.50175953E-01  -6.88841425E-02  -1.02249718E+00   8.16493740E-10  -1.74715257E+00  -6.65357425E-01  -1.73177086E+00   1.39265803E+00  -2.95519969E+00  -5.84381722E+00   7.37154900E-01   2.10867162E-01
   1.97750000E+03   5.00000000E-01   5.00000000E-01  -5.00267380E+00  -1.68911241E+00  -5.48426003E+00  -4.70666287E+00  -2.02975885E+01   2.08341986E-02   3.50015075E-01  -6.91470230E-02  -1.01186219E+00   9.31284194E-10  -1.73467426E+00  -6.64080583E-01  -1.71007684E+00   1.39206150E+00  -2.93940216E+00  -5.87737808E+00   7.32031318E-01   2.16045225E-01
   2.01250000E+03   5.00000000E-01   5.00000000E-01  -4.96723856E+00  -1.67648948E+00  -5.42569206E+00  -4.69369601E+00  -2.01483409E+01   2.01147834E-02   3.49853174E-01  -6.93626384E-02  -1.00149251E+00   1.03673379E-09  -1.72261813E+00  -6.62946347E-01  -1.68899803E+00   1.39149777E+00  -2.92327165E+00  -5.91091483E+00   7.26934910E-01   2.20930412E-01
   2.04750000E+03   5.00000000E-01   5.00000000E-01  -4.93201821E+00  -1.66393691E+00  -5.36709746E+00  -4.67899944E+00  -1.99988291E+01   1.94006058E-02   3.49690209E-01  -6.95274519E-02  -9.91344290E-01   1.13158041E-09  -1.71098869E+00  -6.61958816E-01  -1.66854151E+00   1.39096781E+00  -2.90679728E+00  -5.94440127E+00   7.21864401E-01   2.25519802E-01
   2.08250000E+03   5.00000000E-01   5.00000000E-01  -4.89700629E+00  -1.65145237E+00  -5.30846047E+00  -4.66254148E+00  -1.98490012E+01   1.86917938E-02   3.49525854E-01  -6.96366972E-02  -9.81369948E-01   1.21467612E-09  -1.69978974E+00  -6.61120310E-01  -1.64871348E+00   1.39047236E+00  -2.88996768E+00  -5.97780968E+00   7.16818634E-01   2.29811480E-01
   2.11750000E+03   5.00000000E-01   5.00000000E-01  -4.86219667E+00  -1.63903369E+00  -5.24976510E+00  -4.64429094E+00  -1.96988045E+01   1.79886217E-02   3.49359522E-01  -6.96844616E-02  -9.71517804E-01   1.28506431E-09  -1.68902469E+00  -6.60431663E-01  -1.62951963E+00   1.39001205E+00  -2.87277114E+00  -6.01111064E+00   7.11796538E-01   2.33804304E-01
   2.15250000E+03   5.00000000E-01   5.00000000E-01  -4.82758346E+00  -1.62667876E+00  -5.19099530E+00  -4.62421674E+00  -1.95481860E+01   1.72915131E-02   3.49190371E-01  -6.96637581E-02  -9.61731671E-01   1.34208306E-09  -1.67869676E+00  -6.59892500E-01  -1.61096556E+00   1.38958737E+00  -2.85519574E+00  -6.04427279E+00   7.06797102E-01   2.37497681E-01
   2.18750000E+03   5.00000000E-01   5.00000000E-01  -4.79316091E+00  -1.61438553E+00  -5.13213499E+00  -4.60228749E+00  -1.93970916E+01   1.66010401E-02   3.49017315E-01  -6.95665828E-02  -9.51950414E-01   1.38524481E-09  -1.66880927E+00  -6.59501497E-01  -1.59305712E+00   1.38919880E+00  -2.83722949E+00  -6.07726263E+00   7.01819341E-01   2.40891342E-01
   2.22250000E+03   5.00000000E-01   5.00000000E-01  -4.75892333E+00  -1.60215197E+00  -5.07316805E+00  -4.57847088E+00  -1.92454663E+01   1.59179170E-02   3.48839034E-01  -6.93839542E-02  -9.42107459E-01   1.41438756E-09  -1.65936590E+00  -6.59256615E-01  -1.57580076E+00   1.38884679E+00  -2.81886032E+00  -6.11004422E+00   6.96862270E-01   2.43985132E-01
   2.25750000E+03   5.00000000E-01   5.00000000E-01  -4.72486498E+00  -1.58997604E+00  -5.01407829E+00  -4.55273303E+00  -1.90932527E+01   1.52429903E-02   3.48653977E-01  -6.91059336E-02  -9.32130244E-01   1.42956530E-09  -1.65037095E+00  -6.59155328E-01  -1.55920395E+00   1.38853182E+00  -2.80007605E+00  -6.14257893E+00   6.91924873E-01   2.46778803E-01
   2.29250000E+03   5.00000000E-01   5.00000000E-01  -4.69098001E+00  -1.57785566E+00  -4.95484929E+00  -4.52503760E+00  -1.89403913E+01   1.45772233E-02   3.48460360E-01  -6.87216222E-02  -9.21939581E-01   1.43110823E-09  -1.64182957E+00  -6.59194810E-01  -1.54327550E+00   1.38825445E+00  -2.78086430E+00  -6.17482508E+00   6.87006069E-01   2.49271805E-01
   2.32750000E+03   5.00000000E-01   5.00000000E-01  -4.65726236E+00  -1.56578870E+00  -4.89546413E+00  -4.49534479E+00  -1.87868187E+01   1.39216758E-02   3.48256164E-01  -6.82191334E-02  -9.11448932E-01   1.41957333E-09  -1.63374806E+00  -6.59372119E-01  -1.52802598E+00   1.38801536E+00  -2.76121228E+00  -6.20673755E+00   6.82104685E-01   2.51463094E-01
   2.36250000E+03   5.00000000E-01   5.00000000E-01  -4.62370567E+00  -1.55377293E+00  -4.83590515E+00  -4.46361005E+00  -1.86324667E+01   1.32774811E-02   3.48039117E-01  -6.75855372E-02  -9.00563544E-01   1.39574287E-09  -1.62613414E+00  -6.59684355E-01  -1.51346812E+00   1.38781534E+00  -2.74110649E+00  -6.23826737E+00   6.77219419E-01   2.53350930E-01
   2.39750000E+03   5.00000000E-01   5.00000000E-01  -4.59030317E+00  -1.54180599E+00  -4.77615347E+00  -4.42978265E+00  -1.84772612E+01   1.26458180E-02   3.47806680E-01  -6.68067737E-02  -8.89179435E-01   1.36060586E-09  -1.61899722E+00  -6.60128808E-01  -1.49961723E+00   1.38765537E+00  -2.72053235E+00  -6.26936119E+00   6.72348813E-01   2.54932672E-01
   2.43250000E+03   5.00000000E-01   5.00000000E-01  -4.55704763E+00  -1.52988539E+00  -4.71618845E+00  -4.39380390E+00  -1.83211197E+01   1.20278820E-02   3.47556014E-01  -6.58675296E-02  -8.77182173E-01   1.31529019E-09  -1.61234879E+00  -6.60703092E-01  -1.48649173E+00   1.38753665E+00  -2.69947369E+00  -6.29996061E+00   6.67491208E-01   2.56204570E-01
   2.46750000E+03   5.00000000E-01   5.00000000E-01  -4.52393119E+00  -1.51800842E+00  -4.65598706E+00  -4.35560499E+00  -1.81639499E+01   1.14248548E-02   3.47283941E-01  -6.47510743E-02  -8.64445412E-01   1.26106413E-09  -1.60620271E+00  -6.61405265E-01  -1.47411363E+00   1.38746062E+00  -2.67791212E+00  -6.33000149E+00   6.62644714E-01   2.57161536E-01
   2.50250000E+03   5.00000000E-01   5.00000000E-01  -4.49094528E+00  -1.50617217E+00  -4.59552306E+00  -4.31510456E+00  -1.80056468E+01   1.08378744E-02   3.46986892E-01  -6.34390445E-02  -8.50829102E-01   1.19923453E-09  -1.60057570E+00  -6.62233954E-01  -1.46250923E+00   1.38742901E+00  -2.65582631E+00  -6.35941304E+00   6.57807156E-01   2.57796893E-01
   2.53750000E+03   5.00000000E-01   5.00000000E-01  -4.45808046E+00  -1.49437344E+00  -4.53476605E+00  -4.27220571E+00  -1.78460897E+01   1.02680067E-02   3.46660834E-01  -6.19111691E-02  -8.36177309E-01   1.13121319E-09  -1.59548777E+00  -6.63188465E-01  -1.45170983E+00   1.38744390E+00  -2.63319103E+00  -6.38811668E+00   6.52976033E-01   2.58102094E-01
   2.57250000E+03   5.00000000E-01   5.00000000E-01  -4.42532629E+00  -1.48260873E+00  -4.47368027E+00  -4.22679240E+00  -1.76851389E+01   9.71622040E-03   3.46301183E-01  -6.01449190E-02  -8.20315525E-01   1.05833781E-09  -1.59096285E+00  -6.64268900E-01  -1.44175260E+00   1.38750775E+00  -2.60997608E+00  -6.41602472E+00   6.48148453E-01   2.58066400E-01
   2.60750000E+03   5.00000000E-01   5.00000000E-01  -4.39267107E+00  -1.47087414E+00  -4.41222327E+00  -4.17872524E+00  -1.75226306E+01   9.18336556E-03   3.45902684E-01  -5.81150610E-02  -8.03047328E-01   9.81987760E-10  -1.58702945E+00  -6.65476268E-01  -1.43268168E+00   1.38762349E+00  -2.58614496E+00  -6.44303870E+00   6.43321066E-01   2.57676497E-01
   2.64250000E+03   5.00000000E-01   5.00000000E-01  -4.36010169E+00  -1.45916532E+00  -4.35034417E+00  -4.12783621E+00  -1.73583723E+01   8.67015688E-03   3.45459257E-01  -5.57930900E-02  -7.84150217E-01   9.03439046E-10  -1.58372152E+00  -6.66812609E-01  -1.42454945E+00   1.38779457E+00  -2.56165324E+00  -6.46904727E+00   6.38489978E-01   2.56916041E-01
   2.67750000E+03   5.00000000E-01   5.00000000E-01  -4.32760330E+00  -1.44747736E+00  -4.28798158E+00  -4.07392233E+00  -1.71921358E+01   8.17716226E-03   3.44963798E-01  -5.31465006E-02  -7.63370362E-01   8.23930634E-10  -1.58107954E+00  -6.68281107E-01  -1.41741819E+00   1.38802506E+00  -2.53644663E+00  -6.49392362E+00   6.33650654E-01   2.55765107E-01
   2.71250000E+03   5.00000000E-01   5.00000000E-01  -4.29515897E+00  -1.43580471E+00  -4.22506102E+00  -4.01673765E+00  -1.70236491E+01   7.70479671E-03   3.44407911E-01  -5.01378456E-02  -7.40415933E-01   7.44574970E-10  -1.57915176E+00  -6.69886213E-01  -1.41136208E+00   1.38831974E+00  -2.51045844E+00  -6.51752213E+00   6.28797784E-01   2.54199509E-01
   2.74750000E+03   5.00000000E-01   5.00000000E-01  -4.26274929E+00  -1.42414103E+00  -4.16149162E+00  -3.95598317E+00  -1.68525857E+01   7.25332122E-03   3.43781559E-01  -4.67235038E-02  -7.14948547E-01   6.66384214E-10  -1.57799592E+00  -6.71633745E-01  -1.40646977E+00   1.38868421E+00  -2.48360652E+00  -6.53967416E+00   6.23925128E-01   2.52189963E-01
   2.78250000E+03   5.00000000E-01   5.00000000E-01  -4.23035181E+00  -1.41247902E+00  -4.09716189E+00  -3.89129398E+00  -1.66785514E+01   6.82284655E-03   3.43072581E-01  -4.28520474E-02  -6.86572181E-01   5.90279492E-10  -1.57768134E+00  -6.73530959E-01  -1.40284767E+00   1.38912504E+00  -2.45578919E+00  -6.56018254E+00   6.19025309E-01   2.49701039E-01
   2.81750000E+03   5.00000000E-01   5.00000000E-01  -4.19794039E+00  -1.40081025E+00  -4.03193412E+00  -3.82222242E+00  -1.65010662E+01   6.41334098E-03   3.42266040E-01  -3.84620439E-02  -6.54818631E-01   5.17004492E-10  -1.57829158E+00  -6.75586523E-01  -1.40062415E+00   1.38964989E+00  -2.42687990E+00  -6.57881440E+00   6.14089554E-01   2.46689841E-01
   2.85250000E+03   5.00000000E-01   5.00000000E-01  -4.16548436E+00  -1.38912488E+00  -3.96563685E+00  -3.74821592E+00  -1.63195415E+01   6.02464154E-03   3.41343301E-01  -3.34790454E-02  -6.19128212E-01   4.47272045E-10  -1.57992800E+00  -6.77810317E-01  -1.39995506E+00   1.39026759E+00  -2.39672009E+00  -6.59529169E+00   6.09107346E-01   2.43104353E-01