 TITLE = "Mineral Saturation State" 
VARIABLES = "X"          "Y"              "Z"            "Forsterite"     "Enstatite(alph" "Anorthite"      "Ferropargasite" "Anhydrite"      "Clinochlore"    "Albite(low)"    "Fayalite"       "Epidote"        "Kaolinite"      "Muscovite(orde" "Sudoite"        "Saponite(Mg)"   "Scolecite"      "Pyrite"         "Quartz(alpha)" 
 ZONE I=         100 , J=           1 , K=           1  F=POINT
   1.75000000E+01   5.00000000E-01   5.00000000E-01  -7.99841039E+00  -3.09734882E+00  -8.76558327E+00  -2.20474223E+01  -9.86287417E-01   1.30238085E+00  -4.96982581E-01  -4.47552019E+00   9.84397808E-10  -1.89404777E+00   1.02546108E+00  -7.57861131E-01   5.85901483E-05  -3.75126348E+00  -2.49670686E+02   5.19558939E-01
   5.25000000E+01   5.00000000E-01   5.00000000E-01  -8.04673210E+00  -3.08415223E+00  -8.68180937E+00  -2.09911872E+01  -9.72356533E-01   9.82766263E-01  -3.22784479E-01  -3.98369029E+00  -2.02363113E-09  -1.76680808E+00   1.10796306E+00  -8.15506319E-01   5.84214705E-05  -3.64394514E+00  -2.47259757E+02   6.03765245E-01
   8.75000000E+01   5.00000000E-01   5.00000000E-01  -8.03526586E+00  -3.06449586E+00  -8.63010339E+00  -2.03718500E+01  -9.57771438E-01   8.00403293E-01  -2.58136983E-01  -3.68982842E+00  -2.37270224E-09  -1.72480333E+00   1.09055691E+00  -8.88511289E-01   7.17831726E-05  -3.61511035E+00  -2.45056536E+02   6.40981621E-01
   1.22500000E+02   5.00000000E-01   5.00000000E-01  -8.00211441E+00  -3.04375419E+00  -8.56703063E+00  -1.99002311E+01  -9.42563381E-01   6.95071337E-01  -2.26620749E-01  -3.47925044E+00  -2.40367798E-09  -1.69191585E+00   1.07104754E+00  -9.17483574E-01   7.76884849E-05  -3.59397563E+00  -2.42951537E+02   6.58564059E-01
   1.57500000E+02   5.00000000E-01   5.00000000E-01  -7.95861650E+00  -3.02283151E+00  -8.49436839E+00  -1.95068846E+01  -9.26764916E-01   6.32714905E-01  -2.10070266E-01  -3.31545262E+00  -2.37905292E-09  -1.65950938E+00   1.05714531E+00  -9.15581445E-01   8.11511963E-05  -3.57279307E+00  -2.40910008E+02   6.66044909E-01
   1.92500000E+02   5.00000000E-01   5.00000000E-01  -7.90958012E+00  -3.00199621E+00  -8.41525079E+00  -1.91638251E+01  -9.10408706E-01   5.96251488E-01  -2.01516417E-01  -3.18195754E+00  -2.35145309E-09  -1.62619114E+00   1.04864051E+00  -8.93400649E-01   8.36639026E-05  -3.55043045E+00  -2.38916367E+02   6.67697546E-01
   2.27500000E+02   5.00000000E-01   5.00000000E-01  -7.85740808E+00  -2.98134279E+00  -8.33202176E+00  -1.88567902E+01  -8.93527074E-01   5.76261564E-01  -1.97709771E-01  -3.06982703E+00  -2.33915907E-09  -1.59200563E+00   1.04428376E+00  -8.57890627E-01   8.57650594E-05  -3.52702279E+00  -2.36962239E+02   6.65737854E-01
   2.62500000E+02   5.00000000E-01   5.00000000E-01  -7.80342844E+00  -2.96090639E+00  -8.24628229E+00  -1.85773538E+01  -8.76151734E-01   5.67177302E-01  -1.96941185E-01  -2.97362703E+00  -2.34708353E-09  -1.55726768E+00   1.04292907E+00  -8.13553877E-01   8.76816238E-05  -3.50291810E+00  -2.35042559E+02   6.61425681E-01
   2.97500000E+02   5.00000000E-01   5.00000000E-01  -7.74842610E+00  -2.94069909E+00  -8.15911044E+00  -1.83200077E+01  -8.58313550E-01   5.65539497E-01  -1.98233994E-01  -2.88978549E+00  -2.37456609E-09  -1.52228798E+00   1.04369777E+00  -7.63346617E-01   8.95204100E-05  -3.47843850E+00  -2.33153993E+02   6.55523749E-01
   3.32500000E+02   5.00000000E-01   5.00000000E-01  -7.69795390E+00  -2.92104462E+00  -7.70288979E+00  -1.74406391E+01  -3.09474983E-01   5.51889904E-01  -1.96670880E-01  -2.86295227E+00   1.70901166E-08  -1.48524061E+00   1.04389350E+00  -7.19008229E-01   8.91949835E-05  -3.08106695E+00  -2.31005376E+02   6.52939392E-01
   3.67500000E+02   5.00000000E-01   5.00000000E-01  -7.64515475E+00  -2.90147104E+00  -7.46264184E+00  -1.69795588E+01  -4.99990221E-02   5.48770119E-01  -1.98468994E-01  -2.82981999E+00   1.99583999E-09  -1.44955337E+00   1.04506492E+00  -6.68737850E-01   9.16619226E-05  -2.90174284E+00  -2.29021563E+02   6.47761338E-01
   4.02500000E+02   5.00000000E-01   5.00000000E-01  -7.58879234E+00  -2.88192730E+00  -7.35796284E+00  -1.67443195E+01  -5.21451351E-03   5.61090005E-01  -2.04139568E-01  -2.77479723E+00  -3.57279464E-11  -1.41506658E+00   1.04907703E+00  -6.08737487E-01   9.49562181E-05  -2.86120132E+00  -2.27199545E+02   6.38857187E-01
   4.37500000E+02   5.00000000E-01   5.00000000E-01  -7.53210593E+00  -2.86259740E+00  -7.27624934E+00  -1.65543509E+01   2.62642122E-03   5.77407004E-01  -2.10598414E-01  -2.71980371E+00  -2.97630025E-10  -1.38077654E+00   1.05447357E+00  -5.46007223E-01   9.70837984E-05  -2.84397227E+00  -2.25426108E+02   6.29100074E-01
   4.72500000E+02   5.00000000E-01   5.00000000E-01  -7.47574735E+00  -2.84348652E+00  -7.19942820E+00  -1.63812307E+01   4.12408655E-03   5.94739969E-01  -2.17409486E-01  -2.66877019E+00  -3.82132883E-10  -1.34703255E+00   1.06007718E+00  -4.83205237E-01   9.89651709E-05  -2.83134567E+00  -2.23680351E+02   6.19133229E-01
   5.07500000E+02   5.00000000E-01   5.00000000E-01  -7.41982773E+00  -2.82458940E+00  -7.12453401E+00  -1.62192182E+01   4.36960263E-03   6.12495893E-01  -2.24494798E-01  -2.62181335E+00  -4.41590999E-10  -1.31392798E+00   1.06561565E+00  -4.20897074E-01   1.00823665E-04  -2.82023893E+00  -2.21958205E+02   6.09080087E-01
   5.42500000E+02   5.00000000E-01   5.00000000E-01  -7.36437138E+00  -2.80590092E+00  -7.05097536E+00  -1.60663131E+01   4.36716987E-03   6.30506159E-01  -2.31822465E-01  -2.57852885E+00  -5.00296169E-10  -1.28148061E+00   1.07101663E+00  -3.59235237E-01   1.02688014E-04  -2.81003061E+00  -2.20258362E+02   5.98976856E-01
   5.77500000E+02   5.00000000E-01   5.00000000E-01  -7.30938688E+00  -2.78741618E+00  -6.97863415E+00  -1.59214230E+01   4.31253606E-03   6.48680949E-01  -2.39368606E-01  -2.53848981E+00  -5.64420087E-10  -1.24969376E+00   1.07624628E+00  -2.98294734E-01   1.04551819E-04  -2.80058866E+00  -2.18580104E+02   5.88843589E-01
   6.12500000E+02   5.00000000E-01   5.00000000E-01  -7.25488168E+00  -2.76913064E+00  -6.90748526E+00  -1.57837630E+01   4.24362118E-03   6.66941846E-01  -2.47108052E-01  -2.50132922E+00  -6.35906838E-10  -1.21856572E+00   1.08128112E+00  -2.38135182E-01   1.06399987E-04  -2.79187576E+00  -2.16922861E+02   5.78698479E-01
   6.47500000E+02   5.00000000E-01   5.00000000E-01  -7.20086510E+00  -2.75104013E+00  -6.83752164E+00  -1.56527120E+01   4.16813594E-03   6.85208310E-01  -2.55012274E-01  -2.46674330E+00  -7.16120367E-10  -1.18809146E+00   1.08610266E+00  -1.78813020E-01   1.08214512E-04  -2.78387159E+00  -2.15286120E+02   5.68560754E-01
   6.82500000E+02   5.00000000E-01   5.00000000E-01  -7.14734892E+00  -2.73314091E+00  -6.76873969E+00  -1.55277645E+01   4.08810022E-03   7.03395160E-01  -2.63048839E-01  -2.43448233E+00  -8.06313528E-10  -1.15826276E+00   1.09069670E+00  -1.20383501E-01   1.09975933E-04  -2.77655751E+00  -2.13669399E+02   5.58451260E-01
   7.17500000E+02   5.00000000E-01   5.00000000E-01  -7.09434746E+00  -2.71542964E+00  -6.70113616E+00  -1.54085067E+01   4.00444730E-03   7.21412488E-01  -2.71181274E-01  -2.40434142E+00  -9.07887296E-10  -1.12906797E+00   1.09505352E+00  -6.29004654E-02   1.11663915E-04  -2.76991351E+00  -2.12072245E+02   5.48392523E-01
   7.52500000E+02   5.00000000E-01   5.00000000E-01  -7.04196616E+00  -2.69804274E+00  -6.63189251E+00  -1.52907021E+01   3.91787320E-03   7.41995167E-01  -2.78341890E-01  -2.37624491E+00  -9.67237408E-10  -1.09772629E+00   1.10333621E+00  -5.93219907E-04   1.13191349E-04  -2.76129265E+00  -2.10494273E+02   5.38218621E-01
   7.87500000E+02   5.00000000E-01   5.00000000E-01  -6.98981209E+00  -2.68054385E+00  -6.56951501E+00  -1.51855678E+01   3.82896532E-03   7.56900364E-01  -2.87830144E-01  -2.34963861E+00  -1.20420275E-09  -1.07271033E+00   1.10280794E+00   4.90064712E-02   1.14640558E-04  -2.75872552E+00  -2.08935049E+02   5.28410840E-01
   8.22500000E+02   5.00000000E-01   5.00000000E-01  -6.93848541E+00  -2.66336502E+00  -6.50579124E+00  -1.50821585E+01   3.73829096E-03   7.73366473E-01  -2.96073721E-01  -2.32499005E+00  -1.30919564E-09  -1.04564526E+00   1.10592480E+00   1.02556759E-01   1.16081929E-04  -2.75426775E+00  -2.07394025E+02   5.18706620E-01
   8.57500000E+02   5.00000000E-01   5.00000000E-01  -6.88775838E+00  -2.64636530E+00  -6.44322539E+00  -1.49834225E+01   3.64632646E-03   7.89254384E-01  -3.04221667E-01  -2.30196242E+00  -1.47903762E-09  -1.01912681E+00   1.10881931E+00   1.54966565E-01   1.17294887E-04  -2.75037336E+00  -2.05870927E+02   5.09161591E-01
   8.92500000E+02   5.00000000E-01   5.00000000E-01  -6.83765064E+00  -2.62954156E+00  -6.38183632E+00  -1.48892421E+01   3.55351592E-03   8.04445043E-01  -3.12236763E-01  -2.28048088E+00  -1.67328865E-09  -9.93155561E-01   1.11146262E+00   2.06145049E-01   1.18337509E-04  -2.74703933E+00  -2.04365385E+02   4.99802967E-01
   9.27500000E+02   5.00000000E-01   5.00000000E-01  -6.78818508E+00  -2.61289253E+00  -6.32161323E+00  -1.47994930E+01   3.46025535E-03   8.18844364E-01  -3.20067390E-01  -2.26048849E+00  -1.89521666E-09  -9.67700117E-01   1.11387336E+00   2.56063179E-01   1.19194134E-04  -2.74423334E+00  -2.02877038E+02   4.90657542E-01
   9.62500000E+02   5.00000000E-01   5.00000000E-01  -6.73938450E+00  -2.59641719E+00  -6.26254297E+00  -1.47140727E+01   3.36689732E-03   8.32362906E-01  -3.27661615E-01  -2.24194073E+00  -2.14919737E-09  -9.42726301E-01   1.11607476E+00   3.04699269E-01   1.19850228E-04  -2.74192129E+00  -2.01405538E+02   4.81751484E-01
   9.97500000E+02   5.00000000E-01   5.00000000E-01  -6.69127084E+00  -2.58011464E+00  -6.20461042E+00  -1.46328965E+01   3.27375441E-03   8.44917418E-01  -3.34968491E-01  -2.22480305E+00  -2.44037797E-09  -9.18198197E-01   1.11809340E+00   3.52038653E-01   1.20293613E-04  -2.74006817E+00  -1.99950547E+02   4.73109787E-01
   1.03250000E+03   5.00000000E-01   5.00000000E-01  -6.64386449E+00  -2.56398410E+00  -6.14779867E+00  -1.45558929E+01   3.18110220E-03   8.56432544E-01  -3.41939291E-01  -2.20904870E+00  -2.77469564E-09  -8.94079041E-01   1.11995819E+00   3.98073718E-01   1.20514790E-04  -2.73863887E+00  -1.98511741E+02   4.64755717E-01
   1.06750000E+03   5.00000000E-01   5.00000000E-01  -6.59718357E+00  -2.54802472E+00  -6.09208938E+00  -1.44830003E+01   3.08918230E-03   8.66842390E-01  -3.48528764E-01  -2.19465677E+00  -3.15908736E-09  -8.70332222E-01   1.12169916E+00   4.42803684E-01   1.20507204E-04  -2.73759902E+00  -1.97088803E+02   4.56710270E-01
   1.10250000E+03   5.00000000E-01   5.00000000E-01  -6.55124327E+00  -2.53223562E+00  -6.03746318E+00  -1.44141638E+01   2.99820510E-03   8.76091931E-01  -3.54696396E-01  -2.18161040E+00  -3.60154240E-09  -8.46922355E-01   1.12334614E+00   4.86234165E-01   1.20267473E-04  -2.73691592E+00  -1.95681429E+02   4.48991657E-01
   1.13750000E+03   5.00000000E-01   5.00000000E-01  -6.50605517E+00  -2.51661568E+00  -5.98390012E+00  -1.43493327E+01   2.90835256E-03   8.84138216E-01  -3.60407596E-01  -2.16989524E+00  -4.11136149E-09  -8.23816369E-01   1.12492748E+00   5.28376569E-01   1.19795547E-04  -2.73655952E+00  -1.94289327E+02   4.41614836E-01
   1.17250000E+03   5.00000000E-01   5.00000000E-01  -6.46162671E+00  -2.50116357E+00  -5.93138016E+00  -1.42884582E+01   2.81978072E-03   8.90951349E-01  -3.65634775E-01  -2.15949802E+00  -4.69928340E-09  -8.00984539E-01   1.12646865E+00   5.69247405E-01   1.19094822E-04  -2.73650324E+00  -1.92912214E+02   4.34591094E-01
   1.20750000E+03   5.00000000E-01   5.00000000E-01  -6.41796068E+00  -2.48587760E+00  -5.87988363E+00  -1.42314917E+01   2.73262215E-03   8.96515212E-01  -3.70358234E-01  -2.15040536E+00  -5.37762373E-09  -7.78401400E-01   1.12799120E+00   6.08867568E-01   1.18172177E-04  -2.73672480E+00  -1.91549820E+02   4.27927730E-01
   1.24250000E+03   5.00000000E-01   5.00000000E-01  -6.37505495E+00  -2.47075573E+00  -5.82939160E+00  -1.41783831E+01   2.64698819E-03   9.00827912E-01  -3.74566832E-01  -2.14260279E+00  -6.16074094E-09  -7.56046474E-01   1.12951173E+00   6.47261669E-01   1.17037924E-04  -2.73720679E+00  -1.90201886E+02   4.21627819E-01
   1.27750000E+03   5.00000000E-01   5.00000000E-01  -6.33290223E+00  -2.45579549E+00  -5.77988612E+00  -1.41290797E+01   2.56297105E-03   9.03901918E-01  -3.78258362E-01  -2.13607395E+00  -7.06495299E-09  -7.33904762E-01   1.13104133E+00   6.84457465E-01   1.15705683E-04  -2.73793710E+00  -1.88868163E+02   4.15690095E-01
   1.31250000E+03   5.00000000E-01   5.00000000E-01  -6.29149007E+00  -2.44099398E+00  -5.73135038E+00  -1.40835250E+01   2.48064575E-03   9.05763875E-01  -3.81439617E-01  -2.13080008E+00  -8.10910207E-09  -7.11966955E-01   1.13258521E+00   7.20485427E-01   1.14192145E-04  -2.73890900E+00  -1.87548413E+02   4.10108964E-01
   1.34750000E+03   5.00000000E-01   5.00000000E-01  -6.25080101E+00  -2.42634790E+00  -5.68376873E+00  -1.40416585E+01   2.40007190E-03   9.06454069E-01  -3.84126134E-01  -2.12675967E+00  -9.31465642E-09  -6.90229368E-01   1.13414281E+00   7.55378445E-01   1.12516748E-04  -2.74012102E+00  -1.86242408E+02   4.04874636E-01
   1.38250000E+03   5.00000000E-01   5.00000000E-01  -6.21081291E+00  -2.41185354E+00  -5.63712653E+00  -1.40034147E+01   2.32129536E-03   9.06025558E-01  -3.86341606E-01  -2.12392837E+00  -1.07062133E-08  -6.68693581E-01   1.13570818E+00   7.89171666E-01   1.10701241E-04  -2.74157660E+00  -1.84949932E+02   3.99973400E-01
   1.41750000E+03   5.00000000E-01   5.00000000E-01  -6.17149942E+00  -2.39750686E+00  -5.59140994E+00  -1.39687234E+01   2.24434971E-03   9.04542960E-01  -3.88117013E-01  -2.12227910E+00  -1.23117429E-08  -6.47365845E-01   1.13727067E+00   8.21902422E-01   1.08769169E-04  -2.74328343E+00  -1.83670776E+02   3.95388007E-01
   1.45250000E+03   5.00000000E-01   5.00000000E-01  -6.13283064E+00  -2.38330353E+00  -5.54660565E+00  -1.39375098E+01   2.16925765E-03   9.02080947E-01  -3.89489499E-01  -2.12178235E+00  -1.41630665E-08  -6.26256287E-01   1.13881587E+00   8.53610196E-01   1.06745286E-04  -2.74525271E+00  -1.82404741E+02   3.91098164E-01
   1.48750000E+03   5.00000000E-01   5.00000000E-01  -6.09477377E+00  -2.36923904E+00  -5.50270054E+00  -1.39096949E+01   2.09603228E-03   8.98722472E-01  -3.90501083E-01  -2.12240660E+00  -1.62962854E-08  -6.05377995E-01   1.14032662E+00   8.84336573E-01   1.04654923E-04  -2.74749825E+00  -1.81151634E+02   3.87081116E-01
   1.52250000E+03   5.00000000E-01   5.00000000E-01  -6.05729399E+00  -2.35530873E+00  -5.45968143E+00  -1.38851962E+01   2.02467818E-03   8.94556812E-01  -3.91197258E-01  -2.12411885E+00  -1.87522993E-08  -5.84746046E-01   1.14178420E+00   9.14125123E-01   1.02523344E-04  -2.75003553E+00  -1.79911270E+02   3.83312271E-01
   1.55750000E+03   5.00000000E-01   5.00000000E-01  -6.02035521E+00  -2.34150792E+00  -5.41753477E+00  -1.38639286E+01   1.95519252E-03   8.89677492E-01  -3.91625576E-01  -2.12688526E+00  -2.15774331E-08  -5.64376555E-01   1.14316927E+00   9.43021185E-01   1.00375131E-04  -2.75288084E+00  -1.78683470E+02   3.79765855E-01
   1.59250000E+03   5.00000000E-01   5.00000000E-01  -5.98392088E+00  -2.32783193E+00  -5.37624654E+00  -1.38458052E+01   1.88756601E-03   8.84180196E-01  -3.91834284E-01  -2.13067169E+00  -2.48240691E-08  -5.44285796E-01   1.14446293E+00   9.71071511E-01   9.82336167E-05  -2.75605043E+00  -1.77468059E+02   3.76415560E-01
   1.62750000E+03   5.00000000E-01   5.00000000E-01  -5.94795475E+00  -2.31427621E+00  -5.33580211E+00  -1.38307391E+01   1.82178379E-03   8.78160730E-01  -3.91871072E-01  -2.13544438E+00  -2.85514740E-08  -5.24489457E-01   1.14564741E+00   9.98323810E-01   9.61204060E-05  -2.75955984E+00  -1.76264869E+02   3.73235152E-01
   1.66250000E+03   5.00000000E-01   5.00000000E-01  -5.91242153E+00  -2.30083635E+00  -5.29618627E+00  -1.38186437E+01   1.75782621E-03   8.71713138E-01  -3.91781993E-01  -2.14117039E+00  -3.28265921E-08  -5.05002041E-01   1.14670668E+00   1.02482616E+00   9.40550052E-05  -2.76342332E+00  -1.75073731E+02   3.70199019E-01
   1.69750000E+03   5.00000000E-01   5.00000000E-01  -5.87728740E+00  -2.28750814E+00  -5.25738331E+00  -1.38094343E+01   1.69566961E-03   8.64928032E-01  -3.91610580E-01  -2.14781812E+00  -3.77251966E-08  -4.85836439E-01   1.14762681E+00   1.05062640E+00   9.20545645E-05  -2.76765348E+00  -1.73894483E+02   3.67282642E-01
   1.73250000E+03   5.00000000E-01   5.00000000E-01  -5.84252053E+00  -2.27428761E+00  -5.21937715E+00  -1.38030289E+01   1.63528696E-03   8.57891185E-01  -3.91397170E-01  -2.15535763E+00  -4.33329660E-08  -4.67003658E-01   1.14839616E+00   1.07577142E+00   9.01337417E-05  -2.77226105E+00  -1.72726964E+02   3.64462969E-01
   1.76750000E+03   5.00000000E-01   5.00000000E-01  -5.80809132E+00  -2.26117101E+00  -5.18215153E+00  -1.37993491E+01   1.57664848E-03   8.50682416E-01  -3.91178443E-01  -2.16376089E+00  -4.97468668E-08  -4.48512703E-01   1.14900538E+00   1.10030655E+00   8.83046777E-05  -2.77725475E+00  -1.71571012E+02   3.61718706E-01
   1.80250000E+03   5.00000000E-01   5.00000000E-01  -5.77397266E+00  -2.24815487E+00  -5.14569023E+00  -1.37983204E+01   1.51972221E-03   8.43374792E-01  -3.90987155E-01  -2.17300190E+00  -5.70767151E-08  -4.30370578E-01   1.14944726E+00   1.12427495E+00   8.65770711E-05  -2.78264135E+00  -1.70426471E+02   3.59030498E-01
   1.83750000E+03   5.00000000E-01   5.00000000E-01  -5.74013998E+00  -2.23523596E+00  -5.10997723E+00  -1.37998732E+01   1.46447446E-03   8.36034110E-01  -3.90852046E-01  -2.18305680E+00  -6.54468768E-08  -4.12582380E-01   1.14971658E+00   1.14771710E+00   8.49583320E-05  -2.78842574E+00  -1.69293184E+02   3.56381043E-01
   1.87250000E+03   5.00000000E-01   5.00000000E-01  -5.70657132E+00  -2.22241131E+00  -5.07499695E+00  -1.38039423E+01   1.41087028E-03   8.28718666E-01  -3.90797886E-01  -2.19390375E+00  -7.49982703E-08  -3.95151468E-01   1.14980975E+00   1.17067042E+00   8.34537970E-05  -2.79461108E+00  -1.68170995E+02   3.53755111E-01
   1.90750000E+03   5.00000000E-01   5.00000000E-01  -5.67324722E+00  -2.20967816E+00  -5.04073435E+00  -1.38104675E+01   1.35887386E-03   8.21479260E-01  -3.90845642E-01  -2.20552291E+00  -8.58906374E-08  -3.78079665E-01   1.14972460E+00   1.19316896E+00   8.20669826E-05  -2.80119902E+00  -1.67059749E+02   3.51139513E-01
   1.94250000E+03   5.00000000E-01   5.00000000E-01  -5.64015059E+00  -2.19703396E+00  -5.00717511E+00  -1.38193932E+01   1.30844881E-03   8.14359401E-01  -3.91012725E-01  -2.21789621E+00  -9.83050804E-08  -3.61367493E-01   1.14945997E+00   1.21524329E+00   8.07998603E-05  -2.80818989E+00  -1.65959293E+02   3.48523009E-01
   1.97750000E+03   5.00000000E-01   5.00000000E-01  -5.60726658E+00  -2.18447637E+00  -4.97430566E+00  -1.38306680E+01   1.25955851E-03   8.07395672E-01  -3.91313292E-01  -2.23100722E+00  -1.12446839E-07  -3.45014400E-01   1.14901552E+00   1.23692036E+00   7.96531365E-05  -2.81558293E+00  -1.64869476E+02   3.45896185E-01
   2.01250000E+03   5.00000000E-01   5.00000000E-01  -5.57458237E+00  -2.17200319E+00  -4.94211326E+00  -1.38442448E+01   1.21216630E-03   8.00618211E-01  -3.91758588E-01  -2.24484088E+00  -1.28548599E-07  -3.29018984E-01   1.14839139E+00   1.25822367E+00   7.86265253E-05  -2.82337645E+00  -1.63790147E+02   3.43251301E-01
   2.04750000E+03   5.00000000E-01   5.00000000E-01  -5.54208695E+00  -2.15961241E+00  -4.91058596E+00  -1.38600799E+01   1.16623572E-03   7.94051279E-01  -3.92357295E-01  -2.25938332E+00  -1.46874014E-07  -3.13379199E-01   1.14758805E+00   1.27917329E+00   7.77190040E-05  -2.83156806E+00  -1.62721155E+02   3.40582121E-01
   2.08250000E+03   5.00000000E-01   5.00000000E-01  -5.50977090E+00  -2.14730212E+00  -4.87971265E+00  -1.38781324E+01   1.12173068E-03   7.87713867E-01  -3.93115880E-01  -2.27462159E+00  -1.67721752E-07  -2.98092540E-01   1.14660604E+00   1.29978611E+00   7.69290470E-05  -2.84015477E+00  -1.61662354E+02   3.37883738E-01
   2.11750000E+03   5.00000000E-01   5.00000000E-01  -5.47762623E+00  -2.13507054E+00  -4.84948296E+00  -1.38983642E+01   1.07861557E-03   7.81620326E-01  -3.94038940E-01  -2.29054349E+00  -1.91429902E-07  -2.83156198E-01   1.14544588E+00   1.32007607E+00   7.62548325E-05  -2.84913313E+00  -1.60613598E+02   3.35152398E-01
   2.15250000E+03   5.00000000E-01   5.00000000E-01  -5.44564610E+00  -2.12291596E+00  -4.81988718E+00  -1.39207389E+01   1.03685536E-03   7.75780998E-01  -3.95129516E-01  -2.30713729E+00  -2.18380953E-07  -2.68567199E-01   1.14410790E+00   1.34005446E+00   7.56944229E-05  -2.85849939E+00  -1.59574742E+02   3.32385330E-01
   2.18750000E+03   5.00000000E-01   5.00000000E-01  -5.41382467E+00  -2.11083679E+00  -4.79091624E+00  -1.39452216E+01   9.96415732E-04   7.70202816E-01  -3.96389388E-01  -2.32439162E+00  -2.49007381E-07  -2.54322515E-01   1.14259223E+00   1.35973015E+00   7.52459173E-05  -2.86824950E+00  -1.58545644E+02   3.29580581E-01
   2.22250000E+03   5.00000000E-01   5.00000000E-01  -5.38215693E+00  -2.09883147E+00  -4.76256156E+00  -1.39717785E+01   9.57263061E-04   7.64889886E-01  -3.97819345E-01  -2.34229522E+00  -2.83797527E-07  -2.40419155E-01   1.14089867E+00   1.37910994E+00   7.49075795E-05  -2.87837923E+00  -1.57526165E+02   3.26736869E-01
   2.25750000E+03   5.00000000E-01   5.00000000E-01  -5.35063851E+00  -2.08689852E+00  -4.73481499E+00  -1.40003759E+01   9.19364498E-04   7.59844020E-01  -3.99419422E-01  -2.36083684E+00  -3.23302439E-07  -2.26854235E-01   1.13902669E+00   1.39819882E+00   7.46779409E-05  -2.88888417E+00  -1.56516167E+02   3.23853439E-01
   2.29250000E+03   5.00000000E-01   5.00000000E-01  -5.31926555E+00  -2.07503650E+00  -4.70766868E+00  -1.40309804E+01   8.82687972E-04   7.55065224E-01  -4.01189111E-01  -2.38000510E+00  -3.68142958E-07  -2.13625042E-01   1.13697540E+00   1.41700027E+00   7.45558833E-05  -2.89975982E+00  -1.55515514E+02   3.20929940E-01
   2.32750000E+03   5.00000000E-01   5.00000000E-01  -5.28803459E+00  -2.06324400E+00  -4.68111503E+00  -1.40635581E+01   8.47202189E-04   7.50552138E-01  -4.03127550E-01  -2.39978835E+00  -4.19017886E-07  -2.00729073E-01   1.13474354E+00   1.43551650E+00   7.45407024E-05  -2.91100154E+00  -1.54524076E+02   3.17966316E-01
   2.36250000E+03   5.00000000E-01   5.00000000E-01  -5.25694240E+00  -2.05151965E+00  -4.65514656E+00  -1.40980745E+01   8.12876625E-04   7.46302431E-01  -4.05233682E-01  -2.42017460E+00  -4.76712311E-07  -1.88164079E-01   1.13232949E+00   1.45374870E+00   7.46321546E-05  -2.92260461E+00  -1.53541720E+02   3.14962702E-01
   2.39750000E+03   5.00000000E-01   5.00000000E-01  -5.22598592E+00  -2.03986210E+00  -4.62975587E+00  -1.41344939E+01   7.79681503E-04   7.42313149E-01  -4.07506400E-01  -2.44115145E+00  -5.42107113E-07  -1.75928088E-01   1.12973125E+00   1.47169723E+00   7.48304896E-05  -2.93456422E+00  -1.52568321E+02   3.11919339E-01
   2.43250000E+03   5.00000000E-01   5.00000000E-01  -5.19516220E+00  -2.02827002E+00  -4.60493550E+00  -1.41727795E+01   7.47587764E-04   7.38581009E-01  -4.09944658E-01  -2.46270601E+00  -6.16188508E-07  -1.64019428E-01   1.12694645E+00   1.48936184E+00   7.51364711E-05  -2.94687544E+00  -1.51603753E+02   3.08836502E-01
   2.46750000E+03   5.00000000E-01   5.00000000E-01  -5.16446826E+00  -2.01674209E+00  -4.58067792E+00  -1.42128931E+01   7.16567037E-04   7.35102669E-01  -4.12547578E-01  -2.48482486E+00  -7.00058649E-07  -1.52436745E-01   1.12397239E+00   1.50674180E+00   7.55513849E-05  -2.95953327E+00  -1.50647896E+02   3.05714433E-01
   2.50250000E+03   5.00000000E-01   5.00000000E-01  -5.13390106E+00  -2.00527699E+00  -4.55697543E+00  -1.42547947E+01   6.86591592E-04   7.31874940E-01  -4.15314533E-01  -2.50749403E+00  -7.94946394E-07  -1.41179019E-01   1.12080601E+00   1.52383610E+00   7.60770382E-05  -2.97253255E+00  -1.49700630E+02   3.02553285E-01
   2.53750000E+03   5.00000000E-01   5.00000000E-01  -5.10345746E+00  -1.99387342E+00  -4.53382011E+00  -1.42984426E+01   6.57634306E-04   7.28894973E-01  -4.18245217E-01  -2.53069899E+00  -9.02218603E-07  -1.30245569E-01   1.11744391E+00   1.54064348E+00   7.67157495E-05  -2.98586805E+00  -1.48761840E+02   2.99353083E-01
   2.57250000E+03   5.00000000E-01   5.00000000E-01  -5.07313417E+00  -1.98253006E+00  -4.51120378E+00  -1.43437932E+01   6.29668615E-04   7.26160413E-01  -4.21339701E-01  -2.55442459E+00  -1.02339136E-06  -1.19636068E-01   1.11388237E+00   1.55716263E+00   7.74703299E-05  -2.99953437E+00  -1.47831414E+02   2.96113678E-01
   2.60750000E+03   5.00000000E-01   5.00000000E-01  -5.04292770E+00  -1.97124563E+00  -4.48911794E+00  -1.43908009E+01   6.02668475E-04   7.23669518E-01  -4.24598481E-01  -2.57865512E+00  -1.16014147E-06  -1.09350549E-01   1.11011736E+00   1.57339217E+00   7.83440553E-05  -3.01352597E+00  -1.46909242E+02   2.92834725E-01
   2.64250000E+03   5.00000000E-01   5.00000000E-01  -5.01283433E+00  -1.96001880E+00  -4.46755374E+00  -1.44394182E+01   5.76608316E-04   7.21421257E-01  -4.28022510E-01  -2.60337428E+00  -1.31431729E-06  -9.93894060E-02   1.10614449E+00   1.58933079E+00   7.93406317E-05  -3.02783714E+00  -1.45995217E+02   2.89515653E-01
   2.67750000E+03   5.00000000E-01   5.00000000E-01  -4.98285012E+00  -1.94884827E+00  -4.44650197E+00  -1.44895954E+01   5.51463007E-04   7.19415376E-01  -4.31613224E-01  -2.62856521E+00  -1.48794906E-06  -8.97534008E-02   1.10195909E+00   1.60497726E+00   8.04641504E-05  -3.04246202E+00  -1.45089237E+02   2.86155654E-01
   2.71250000E+03   5.00000000E-01   5.00000000E-01  -4.95297087E+00  -1.93773271E+00  -4.42595299E+00  -1.45412809E+01   5.27207813E-04   7.17652452E-01  -4.35372557E-01  -2.65421050E+00  -1.68325791E-06  -8.04436628E-02   1.09755618E+00   1.62033046E+00   8.17190353E-05  -3.05739453E+00  -1.44191201E+02   2.82753666E-01
   2.74750000E+03   5.00000000E-01   5.00000000E-01  -4.92319210E+00  -1.92667081E+00  -4.40589675E+00  -1.45944209E+01   5.03818366E-04   7.16133915E-01  -4.39302947E-01  -2.68029223E+00  -1.90266391E-06  -7.14616850E-02   1.09293047E+00   1.63538941E+00   8.31099788E-05  -3.07262841E+00  -1.43301012E+02   2.79308371E-01
   2.78250000E+03   5.00000000E-01   5.00000000E-01  -4.89350910E+00  -1.91566122E+00  -4.38632273E+00  -1.46489596E+01   4.81270630E-04   7.14862057E-01  -4.43407334E-01  -2.70679199E+00  -2.14879033E-06  -6.28093194E-02   1.08807639E+00   1.65015331E+00   8.46418735E-05  -3.08815714E+00  -1.42418577E+02   2.75818193E-01
   2.81750000E+03   5.00000000E-01   5.00000000E-01  -4.86391687E+00  -1.90470262E+00  -4.36721997E+00  -1.47048394E+01   4.59540876E-04   7.13840025E-01  -4.47689146E-01  -2.73369093E+00  -2.42446548E-06  -5.44887666E-02   1.08298807E+00   1.66462149E+00   8.63197263E-05  -3.10397400E+00  -1.41543805E+02   2.72281301E-01
   2.85250000E+03   5.00000000E-01   5.00000000E-01  -4.83441018E+00  -1.89379365E+00  -4.34857702E+00  -1.47620006E+01   4.38605658E-04   7.13071792E-01  -4.52152281E-01  -2.76096979E+00  -2.73272097E-06  -4.65025617E-02   1.07765939E+00   1.67879347E+00   8.81485652E-05  -3.12007199E+00  -1.40676609E+02   2.68695617E-01
   2.88750000E+03   5.00000000E-01   5.00000000E-01  -4.80498355E+00  -1.88293297E+00  -4.33038197E+00  -1.48203819E+01   4.18441798E-04   7.12562112E-01  -4.56801076E-01  -2.78860896E+00  -3.07678506E-06  -3.88535544E-02   1.07208400E+00   1.69266889E+00   9.01333351E-05  -3.13644381E+00  -1.39816904E+02   2.65058834E-01
   2.92250000E+03   5.00000000E-01   5.00000000E-01  -4.77563131E+00  -1.87211923E+00  -4.31262239E+00  -1.48799200E+01   3.99026361E-04   7.12316465E-01  -4.61640270E-01  -2.81658852E+00  -3.46007030E-06  -3.15448823E-02   1.06625531E+00   1.70624758E+00   9.22787816E-05  -3.15308190E+00  -1.38964608E+02   2.61368429E-01
   2.95750000E+03   5.00000000E-01   5.00000000E-01  -4.74634758E+00  -1.86135106E+00  -4.29528539E+00  -1.49405502E+01   3.80336654E-04   7.12340978E-01  -4.66674950E-01  -2.84488830E+00  -3.88615433E-06  -2.45799388E-02   1.06016655E+00   1.71952946E+00   9.45893241E-05  -3.16997831E+00  -1.38119644E+02   2.57621690E-01
   2.99250000E+03   5.00000000E-01   5.00000000E-01  -4.71712635E+00  -1.85062713E+00  -4.27835756E+00  -1.50022063E+01   3.62350212E-04   7.12642340E-01  -4.71910499E-01  -2.87348798E+00  -4.35875283E-06  -1.79623317E-02   1.05381083E+00   1.73251462E+00   9.70689180E-05  -3.18712477E+00  -1.37281936E+02   2.53815741E-01
   3.02750000E+03   5.00000000E-01   5.00000000E-01  -4.68796149E+00  -1.83994608E+00  -4.26182500E+00  -1.50648208E+01   3.45044790E-04   7.13227696E-01  -4.77352520E-01  -2.90236710E+00  -4.88168365E-06  -1.16958350E-02   1.04718115E+00   1.74520325E+00   9.97209075E-05  -3.20451259E+00  -1.36451412E+02   2.49947579E-01
   3.06250000E+03   5.00000000E-01   5.00000000E-01  -4.65884680E+00  -1.82930658E+00  -4.24567333E+00  -1.51283250E+01   3.28398367E-04   7.14104532E-01  -4.83006761E-01  -2.93150518E+00  -5.45882142E-06  -5.78433082E-03   1.04027050E+00   1.75759563E+00   1.02547870E-04  -3.22213266E+00  -1.35628001E+02   2.46014106E-01
   3.09750000E+03   5.00000000E-01   5.00000000E-01  -4.62977608E+00  -1.81870730E+00  -4.22988767E+00  -1.51926493E+01   3.12389139E-04   7.15280539E-01  -4.88879022E-01  -2.96088179E+00  -6.09404164E-06  -2.31743438E-04   1.03307189E+00   1.76969217E+00   1.05551456E-04  -3.23997540E+00  -1.34811637E+02   2.42012176E-01
   3.13250000E+03   5.00000000E-01   5.00000000E-01  -4.60074327E+00  -1.80814701E+00  -4.21445178E+00  -1.52577224E+01   2.96995503E-04   7.16764134E-01  -4.94974605E-01  -2.99047674E+00  -6.79104841E-06   4.95897195E-03   1.02557984E+00   1.78149512E+00   1.08732092E-04  -3.25802983E+00  -1.34002255E+02   2.37938645E-01
   3.16750000E+03   5.00000000E-01   5.00000000E-01  -4.57174226E+00  -1.79762439E+00  -4.19935048E+00  -1.53234740E+01   2.82196123E-04   7.18562449E-01  -5.01299431E-01  -3.02026990E+00  -7.55366684E-06   9.78334114E-03   1.01778666E+00   1.79300375E+00   1.12089146E-04  -3.27628598E+00  -1.33199793E+02   2.33790418E-01