 TITLE = "Mineral Saturation State" 
VARIABLES = "X"          "Y"              "Z"            "Forsterite"     "Fayalite"       "Brucite"        "Lizardite"      "Chrysotile"     "Hematite"       "Magnetite(am)"  "Saponite(Ca)"   "Saponite(K)"    "Saponite(Mg)"   "Saponite(Na)"   "Beidellite(Ca)" "Beidellite(K)"  "Beidellite(Mg)" "Beidellite(Na)" "Enstatite(alph" "Ferrosilite(al" "Anorthite"      "Albite(low)"    "Clinochlore"    "Sudoite"        "Montmor(MgCa)"  "Montmor(MgK)"   "Montmor(MgMg)"  "Montmor(MgNa)"  "Kaolinite"      "Tremolite"      "Pargasite"      "Anhydrite"      "Epidote"        "Scolecite"      "Pyrite"         "FeS(am)"        "Quartz(alpha)"  "Titanite"       "Rutile"         "Barite"         "Fluorite"       "Spessartine(al" "Andradite"      "Celestite"      "Zincite"        "Chalcocyanite"  "Chalcocite(alp"
 ZONE I=         200 , J=           1 , K=           1  F=POINT
   8.75000000E+00   5.00000000E-01   5.00000000E-01  -7.03965197E+00  -2.95068522E+00  -4.74054029E+00  -1.24888402E+00  -1.36637233E+00   9.14580015E-02  -5.28231723E+00   6.32004433E-01   2.46099898E+00   1.29295066E+00   2.33966016E+00  -6.65792444E+00  -5.50988083E+00  -5.99697548E+00  -5.57002449E+00  -2.51916764E+00  -1.53683990E+00  -1.17846343E+01  -1.61313827E+00   2.34260448E-02  -6.99343297E+00  -4.20852690E+00  -2.81956988E+00  -3.58110746E+00  -2.96872115E+00  -5.30095278E+00  -4.78859025E+00  -3.27932601E+01  -9.80306355E-01  -1.05091460E+01  -6.56615823E+00  -5.53363010E+01  -1.94338114E+01   7.15944745E-01  -6.97243437E-01   1.49260657E-01   2.99445187E-01  -5.70053924E-01  -2.63286161E+01  -6.95516369E+00  -1.70344531E+00  -3.61400582E+00  -1.59370330E+01   1.52715030E+00
   2.62500000E+01   5.00000000E-01   5.00000000E-01  -7.54877360E+00  -2.85030406E+00  -5.08168905E+00  -2.00187789E+00  -2.11733156E+00   9.14580014E-02  -5.29319672E+00   3.23582067E-01   2.12619135E+00   9.83961154E-01   2.01400567E+00  -4.53298157E+00  -3.40502589E+00  -3.87260537E+00  -3.45612266E+00  -2.69576873E+00  -1.40416097E+00  -1.04271359E+01  -6.39313161E-01   2.32125214E-02  -4.56704047E+00  -2.61104836E+00  -1.24346004E+00  -1.98401139E+00  -1.38309317E+00  -3.63450949E+00  -5.96937923E+00  -3.19859686E+01  -9.62442334E-01  -9.36792826E+00  -5.09095832E+00  -5.62538296E+01  -2.02908259E+01   8.78960380E-01  -8.81519900E-01   1.63949110E-01   1.37891465E-01  -5.87387867E-01  -2.46309100E+01  -7.53604589E+00  -1.71040717E+00  -3.72331003E+00  -1.58703298E+01   1.16637217E-01
   4.37500000E+01   5.00000000E-01   5.00000000E-01  -7.70820630E+00  -2.69120311E+00  -5.21753602E+00  -2.26016904E+00  -2.37360993E+00   9.14580013E-02  -5.24446885E+00   2.99965732E-01   2.07903758E+00   9.59818275E-01   1.97589854E+00  -3.58523613E+00  -2.47714232E+00  -2.92539166E+00  -2.51929835E+00  -2.72795343E+00  -1.27259193E+00  -9.83185734E+00  -1.68116739E-01   2.28634262E-02  -3.60267985E+00  -1.85417570E+00  -5.07716776E-01  -1.22748284E+00  -6.37942609E-01  -2.93522647E+00  -6.19949229E+00  -3.14781304E+01  -9.44361291E-01  -8.84433294E+00  -4.43858187E+00  -5.54114727E+01  -1.98852818E+01   9.81051868E-01  -9.22567871E-01   1.77415486E-01   5.13339128E-02  -6.03891737E-01  -2.37195491E+01  -7.68375973E+00  -1.71682587E+00  -3.72329415E+00  -1.58038511E+01   1.16637217E-01
   6.12500000E+01   5.00000000E-01   5.00000000E-01  -7.76322645E+00  -2.54071938E+00  -5.28108368E+00  -2.38131515E+00  -2.49276475E+00   9.14580012E-02  -5.18016401E+00   3.17881843E-01   2.07411738E+00   9.77238636E-01   1.97991846E+00  -3.05613654E+00  -1.96768288E+00  -2.39679261E+00  -2.00100429E+00  -2.72799511E+00  -1.16543583E+00  -9.48747903E+00   9.75597168E-02   2.23371725E-02  -3.09857013E+00  -1.42248441E+00  -9.69200840E-02  -7.96107075E-01  -2.17849430E-01  -2.55883854E+00  -6.24401495E+00  -3.11055457E+01  -9.26063827E-01  -8.53926235E+00  -4.07698178E+00  -5.47030459E+01  -1.95387320E+01   1.04294981E+00  -9.32613885E-01   1.89653364E-01   8.47982975E-03  -6.19595205E-01  -2.31074606E+01  -7.73496233E+00  -1.72268115E+00  -3.69409687E+00  -1.57375946E+01   1.16637217E-01
   7.87500000E+01   5.00000000E-01   5.00000000E-01  -7.78394639E+00  -2.41591480E+00  -5.31415239E+00  -2.46372783E+00  -2.57320730E+00   9.14580012E-02  -5.11557494E+00   3.22953416E-01   2.05654980E+00   9.81839556E-01   1.97118558E+00  -2.70586355E+00  -1.63683246E+00  -2.04699468E+00  -1.66142437E+00  -2.72418526E+00  -1.08445834E+00  -9.24000622E+00   2.61765461E-01   2.18203605E-02  -2.76033097E+00  -1.14314051E+00   1.61759642E-01  -5.17055760E-01   5.00170964E-02  -2.30956330E+00  -6.28740790E+00  -3.08057127E+01  -9.07556218E-01  -8.32698566E+00  -3.83863600E+00  -5.40601806E+01  -1.92246381E+01   1.07818448E+00  -9.39890899E-01   2.00692095E-01  -1.24972730E-02  -6.34529564E-01  -2.26414363E+01  -7.77443748E+00  -1.72798157E+00  -3.65895243E+00  -1.56715647E+01   1.16637217E-01
   9.62500000E+01   5.00000000E-01   5.00000000E-01  -7.78443811E+00  -2.30834044E+00  -5.32860936E+00  -2.52369102E+00  -2.63122117E+00   9.14580011E-02  -5.05130602E+00   3.18106585E-01   2.02925990E+00   9.76543532E-01   1.95262676E+00  -2.46537283E+00  -1.41555079E+00  -1.80695721E+00  -1.43151641E+00  -2.71872819E+00  -1.02060270E+00  -9.05145338E+00   3.62815902E-01   2.14495139E-02  -2.52171010E+00  -9.58221096E-01   3.26241093E-01  -3.32409575E-01   2.23577596E-01  -2.13756870E+00  -6.33541148E+00  -3.05519847E+01  -8.88847359E-01  -8.17170610E+00  -3.67589768E+00  -5.34597060E+01  -1.89317160E+01   1.09642013E+00  -9.46553250E-01   2.10564499E-01  -2.32057648E-02  -6.48726040E-01  -2.22666763E+01  -7.80874356E+00  -1.73274463E+00  -3.62099617E+00  -1.56057681E+01   1.16637217E-01
   1.13750000E+02   5.00000000E-01   5.00000000E-01  -7.76917252E+00  -2.21059668E+00  -5.33005578E+00  -2.56455244E+00  -2.67015376E+00   9.14580010E-02  -4.98702084E+00   3.11557184E-01   2.00051503E+00   9.69562710E-01   1.93251159E+00  -2.30175489E+00  -1.27093227E+00  -1.64377441E+00  -1.27837261E+00  -2.71049319E+00  -9.66802349E-01  -8.90605683E+00   4.22054842E-01   2.12724821E-02  -2.35796836E+00  -8.37111267E-01   4.27135072E-01  -2.11557270E-01   3.33445155E-01  -2.02151093E+00  -6.37335084E+00  -3.03285091E+01  -8.69947016E-01  -8.05651328E+00  -3.56627283E+00  -5.28900464E+01  -1.86540083E+01   1.10439001E+00  -9.51420668E-01   2.19302560E-01  -2.91530296E-02  -6.62214738E-01  -2.19554007E+01  -7.83443273E+00  -1.73698951E+00  -3.58101614E+00  -1.55402124E+01   1.16637217E-01
   1.31250000E+02   5.00000000E-01   5.00000000E-01  -7.74224996E+00  -2.11967739E+00  -5.32273701E+00  -2.59027449E+00  -2.69396712E+00   9.14580010E-02  -4.92340918E+00   3.07278274E-01   1.97430893E+00   9.64866517E-01   1.91483592E+00  -2.19024773E+00  -1.17821868E+00  -1.53268793E+00  -1.17723259E+00  -2.69933488E+00  -9.19358068E-01  -8.79121662E+00   4.54561935E-01   2.12563187E-02  -2.24835208E+00  -7.57734100E-01   4.86514535E-01  -1.32425507E-01   4.01694957E-01  -1.94456556E+00  -6.39579007E+00  -3.01244232E+01  -8.50865094E-01  -7.96864615E+00  -3.49277242E+00  -5.23433651E+01  -1.83879406E+01   1.10648610E+00  -9.54298491E-01   2.26938249E-01  -3.28638674E-02  -6.75024509E-01  -2.16892599E+01  -7.85101398E+00  -1.74073506E+00  -3.54031878E+00  -1.54749049E+01   1.16637217E-01
   1.48750000E+02   5.00000000E-01   5.00000000E-01  -7.70720871E+00  -2.03454762E+00  -5.30977244E+00  -2.60482123E+00  -2.70662501E+00   9.14580009E-02  -4.86130152E+00   3.06526986E-01   1.95189993E+00   9.63709016E-01   1.90086001E+00  -2.11277176E+00  -1.11933412E+00  -1.45562127E+00  -1.11001846E+00  -2.68567176E+00  -8.76401189E-01  -8.69717822E+00   4.70614048E-01   2.13403526E-02  -2.17610167E+00  -7.04686764E-01   5.19778464E-01  -7.96144873E-02   4.43728000E-01  -1.89387625E+00  -6.40293669E+00  -2.99325760E+01  -8.31611430E-01  -7.89875616E+00  -3.44294268E+00  -5.18142140E+01  -1.81312032E+01   1.10541051E+00  -9.55558689E-01   2.33504007E-01  -3.54987068E-02  -6.87183071E-01  -2.14556828E+01  -7.85969766E+00  -1.74399969E+00  -3.50009782E+00  -1.54098524E+01   1.16637217E-01
   1.66250000E+02   5.00000000E-01   5.00000000E-01  -7.66670066E+00  -1.95476219E+00  -5.29327740E+00  -2.61138798E+00  -2.71132242E+00   9.14580009E-02  -4.80126239E+00   3.09357094E-01   1.93333515E+00   9.66141584E-01   1.89063270E+00  -2.05711076E+00  -1.08206591E+00  -1.40036062E+00  -1.06451584E+00  -2.67004007E+00  -8.36918849E-01  -8.61707810E+00   4.76798559E-01   2.14716969E-02  -2.12910975E+00  -6.67909642E-01   5.36982744E-01  -4.30669475E-02   4.69601957E-01  -1.86047786E+00  -6.39695164E+00  -2.97485021E+01  -8.12195736E-01  -7.84050732E+00  -3.40834265E+00  -5.12988812E+01  -1.78822212E+01   1.10274353E+00  -9.55694365E-01   2.39032735E-01  -3.76005711E-02  -6.98717053E-01  -2.12461210E+01  -7.86205900E+00  -1.74680134E+00  -3.46113972E+00  -1.53450617E+01   1.16637217E-01
   1.83750000E+02   5.00000000E-01   5.00000000E-01  -7.62259996E+00  -1.88000928E+00  -5.27462828E+00  -2.61235341E+00  -2.71043773E+00   9.14580008E-02  -4.74357293E+00   3.15333798E-01   1.91817045E+00   9.71727590E-01   1.88371139E+00  -2.01533059E+00  -1.05848337E+00  -1.35897369E+00  -1.03279249E+00  -2.65293728E+00  -8.00314986E-01  -8.54629391E+00   4.77181546E-01   2.16156281E-02  -2.09904419E+00  -6.41076067E-01   5.44450409E-01  -1.64580136E-02   4.85641478E-01  -1.83838212E+00  -6.38043111E+00  -2.95695072E+01  -7.92627570E-01  -7.78976930E+00  -3.38347273E+00  -5.07948446E+01  -1.76398735E+01   1.09936520E+00  -9.55162816E-01   2.43557627E-01  -3.94295485E-02  -7.09652012E-01  -2.10547372E+01  -7.85956673E+00  -1.74915754E+00  -3.42386617E+00  -1.52805391E+01   1.16637217E-01
   2.01250000E+02   5.00000000E-01   5.00000000E-01  -7.57620116E+00  -1.80998626E+00  -5.25470358E+00  -2.60943482E+00  -2.70568794E+00   9.14580008E-02  -4.68831083E+00   3.23868849E-01   1.90580782E+00   9.79877366E-01   1.87949950E+00  -1.98236973E+00  -1.04352834E+00  -1.32640039E+00  -1.00978882E+00  -2.63477915E+00  -7.66206233E-01  -8.48176550E+00   4.74215462E-01   2.17533356E-02  -2.08027609E+00  -6.20287602E-01   5.46076364E-01   4.10937117E-03   4.95742959E-01  -1.82365848E+00  -6.35582024E+00  -2.93940022E+01  -7.72916320E-01  -7.74389461E+00  -3.36481176E+00  -5.03003712E+01  -1.74033317E+01   1.09573935E+00  -9.54341911E-01   2.47111957E-01  -4.11131677E-02  -7.20012431E-01  -2.08774884E+01  -7.85345158E+00  -1.75108535E+00  -3.38844744E+00  -1.52162905E+01   1.16637217E-01
   2.18750000E+02   5.00000000E-01   5.00000000E-01  -7.52838928E+00  -1.74437657E+00  -5.23405845E+00  -2.60385368E+00  -2.69829422E+00   9.14580007E-02  -4.63542826E+00   3.34378663E-01   1.89565450E+00   9.90006195E-01   1.87740563E+00  -1.95502734E+00  -1.03400326E+00  -1.29944103E+00  -9.92305893E-01  -2.61589531E+00  -7.34320907E-01  -8.42148045E+00   4.69354415E-01   2.18765459E-02  -2.06903126E+00  -6.03172894E-01   5.44228524E-01   2.10054663E-02   5.02275724E-01  -1.81374585E+00  -6.32520131E+00  -2.92210658E+01  -7.53071180E-01  -7.70119893E+00  -3.35012350E+00  -4.98142476E+01  -1.71719646E+01   1.09209255E+00  -9.53525080E-01   2.49728884E-01  -4.27152479E-02  -7.29821729E-01  -2.07115212E+01  -7.84469071E+00  -1.75260136E+00  -3.35489914E+00  -1.51523216E+01   1.16637217E-01
   2.36250000E+02   5.00000000E-01   5.00000000E-01  -7.47976510E+00  -1.68285456E+00  -5.21304110E+00  -2.59646985E+00  -2.68911616E+00   9.14580007E-02  -4.58480804E+00   3.46352238E-01   1.88719130E+00   1.00160214E+00   1.87691185E+00  -1.93129110E+00  -1.02789900E+00  -1.27608423E+00  -9.78333295E-01  -2.59653810E+00  -7.04447615E-01  -8.36412001E+00   4.63446359E-01   2.19829336E-02  -2.06279063E+00  -5.88305222E-01   5.40330256E-01   3.56560910E-02   5.06664496E-01  -1.80698266E+00  -6.29024747E+00  -2.90501727E+01  -7.33101130E-01  -7.66061536E+00  -3.33799504E+00  -4.93356042E+01  -1.69452781E+01   1.08852170E+00  -9.52929859E-01   2.51441263E-01  -4.42681819E-02  -7.39102285E-01  -2.05547785E+01  -7.83403272E+00  -1.75372162E+00  -3.32314930E+00  -1.50886377E+01   1.16637217E-01
   2.53750000E+02   5.00000000E-01   5.00000000E-01  -7.43073286E+00  -1.62509500E+00  -5.19186783E+00  -2.58788199E+00  -2.67875212E+00   9.14580006E-02  -4.53629958E+00   3.59373041E-01   1.87999450E+00   1.01424787E+00   1.87759573E+00  -1.90990524E+00  -1.02396289E+00  -1.25507505E+00  -9.66617101E-01  -2.57689528E+00  -6.76408877E-01  -8.30882393E+00   4.56975349E-01   2.20731099E-02  -2.05988317E+00  -5.74837749E-01   5.35225128E-01   4.89073153E-02   5.09754160E-01  -1.80229705E+00  -6.25224840E+00  -2.88810285E+01  -7.13014913E-01  -7.62147167E+00  -3.32753937E+00  -4.88638020E+01  -1.67228770E+01   1.08505629E+00  -9.52710374E-01   2.52281486E-01  -4.57884668E-02  -7.47875458E-01  -2.04057451E+01  -7.82203467E+00  -1.75446169E+00  -3.29308078E+00  -1.50252438E+01   1.16637217E-01
   2.71250000E+02   5.00000000E-01   5.00000000E-01  -7.38156069E+00  -1.57078130E+00  -5.17067072E+00  -2.57850059E+00  -2.66761232E+00   9.14580005E-02  -4.48974047E+00   3.73118401E-01   1.87373523E+00   1.02761999E+00   1.87912961E+00  -1.89009620E+00  -1.02142439E+00  -1.23564064E+00  -9.56385537E-01  -2.55710271E+00  -6.50047698E-01  -8.25503619E+00   4.50208820E-01   2.21488997E-02  -2.05921263E+00  -5.62278285E-01   5.29402140E-01   6.12506560E-02   5.12035003E-01  -1.79900505E+00  -6.21216361E+00  -2.87134712E+01  -6.92821014E-01  -7.58334837E+00  -3.31820595E+00  -4.83983585E+01  -1.65044385E+01   1.08169350E+00  -9.52969943E-01   2.52281340E-01  -4.72843705E-02  -7.56161621E-01  -2.02632811E+01  -7.80909941E+00  -1.75483655E+00  -3.26455687E+00  -1.49621447E+01   1.16637217E-01
   2.88750000E+02   5.00000000E-01   5.00000000E-01  -7.33242217E+00  -1.51961119E+00  -5.14952798E+00  -2.56860091E+00  -2.65597176E+00   9.14580005E-02  -4.44496891E+00   3.87349004E-01   1.86816877E+00   1.04147857E+00   1.88127000E+00  -1.87139850E+00  -1.01982101E+00  -1.21731617E+00  -9.47174881E-01  -2.53725561E+00  -6.25220880E-01  -8.20240344E+00   4.43286444E-01   2.22124488E-02  -2.06007385E+00  -5.50350861E-01   5.23134149E-01   7.29614797E-02   5.13781149E-01  -1.79667889E+00  -6.17068211E+00  -2.85474137E+01  -6.72527644E-01  -7.54598838E+00  -3.30966019E+00  -4.79389004E+01  -1.62896948E+01   1.07841723E+00  -9.53772336E-01   2.51471880E-01  -4.87598118E-02  -7.63980195E-01  -2.01265115E+01  -7.79550902E+00  -1.75486067E+00  -3.23743597E+00  -1.48993446E+01   1.16637217E-01
   3.06250000E+02   5.00000000E-01   5.00000000E-01  -7.28342532E+00  -1.47130024E+00  -5.12848335E+00  -2.55836141E+00  -2.64400862E+00   9.14580004E-02  -4.40183034E+00   4.01894960E-01   1.86312055E+00   1.05565313E+00   1.88384350E+00  -1.85354356E+00  -1.01888704E+00  -1.19983366E+00  -9.38718239E-01  -2.51741810E+00  -6.01795861E-01  -8.15070758E+00   4.36273600E-01   2.22658063E-02  -2.06202801E+00  -5.38910503E-01   5.16563090E-01   8.41842116E-02   5.15135778E-01  -1.79506024E+00  -6.12827895E+00  -2.83828094E+01  -6.52142727E-01  -7.50923901E+00  -3.30170615E+00  -4.74851312E+01  -1.60784199E+01   1.07520797E+00  -9.55151315E-01   2.49883320E-01  -5.02163730E-02  -7.71349683E-01  -1.99947517E+01  -7.78145307E+00  -1.75454794E+00  -3.21157998E+00  -1.48368476E+01   1.16637217E-01
   3.23750000E+02   5.00000000E-01   5.00000000E-01  -7.23463301E+00  -1.42558407E+00  -5.10755872E+00  -2.54789209E+00  -2.63183265E+00   9.14580003E-02  -4.36018095E+00   4.16641442E-01   1.85847157E+00   1.07002831E+00   1.88673231E+00  -1.83638751E+00  -1.01848143E+00  -1.18304977E+00  -9.30873384E-01  -2.49763108E+00  -5.79649433E-01  -8.09982019E+00   4.29193652E-01   2.23107603E-02  -2.06481630E+00  -5.27890302E-01   5.09752902E-01   9.49852578E-02   5.16164061E-01  -1.79400208E+00  -6.08526549E+00  -2.82196332E+01  -6.31673890E-01  -7.47301418E+00  -3.29423617E+00  -4.70368095E+01  -1.58704214E+01   1.07204755E+00  -9.57118541E-01   2.47544949E-01  -5.16543654E-02  -7.78287703E-01  -1.98674563E+01  -7.76705211E+00  -1.75391170E+00  -3.18685870E+00  -1.47746572E+01   1.16637217E-01
   3.41250000E+02   5.00000000E-01   5.00000000E-01  -7.18607793E+00  -1.38221973E+00  -5.08676250E+00  -2.53725592E+00  -2.61950658E+00   9.14580002E-02  -4.31988933E+00   4.31515179E-01   1.85414484E+00   1.08453035E+00   1.88986059E+00  -1.81986325E+00  -1.01853983E+00  -1.16689793E+00  -9.23574805E-01  -2.47791871E+00  -5.58667485E-01  -8.04967082E+00   4.22047590E-01   2.23487991E-02  -2.06829849E+00  -5.17267999E-01   5.02722945E-01   1.05386413E-01   5.16886572E-01  -1.79342866E+00  -6.04183295E+00  -2.80578697E+01  -6.11128453E-01  -7.43726922E+00  -3.28719733E+00  -4.65937339E+01  -1.56655327E+01   1.06892103E+00  -9.59670119E-01   2.44485045E-01  -5.30734071E-02  -7.84811028E-01  -1.97441826E+01  -7.75237705E+00  -1.75296477E+00  -3.16315218E+00  -1.47127770E+01   1.16637217E-01
   3.58750000E+02   5.00000000E-01   5.00000000E-01  -7.13777363E+00  -1.34098668E+00  -5.06609538E+00  -2.52648532E+00  -2.60706257E+00   9.14580001E-02  -4.28083712E+00   4.46472308E-01   1.85009309E+00   1.09911491E+00   1.89318220E+00  -1.80394769E+00  -1.01904185E+00  -1.15135549E+00  -9.16800946E-01  -2.45829380E+00  -5.38745314E-01  -8.00022429E+00   4.14826123E-01   2.23811307E-02  -2.07240798E+00  -5.07044447E-01   4.95469531E-01   1.15386394E-01   5.17300820E-01  -1.79330704E+00  -5.99808963E+00  -2.78975071E+01  -5.90513428E-01  -7.40198350E+00  -3.28056831E+00  -4.61557326E+01  -1.54636088E+01   1.06581709E+00  -9.62792010E-01   2.40730819E-01  -5.44727406E-02  -7.90935621E-01  -1.96245643E+01  -7.73746519E+00  -1.75171938E+00  -3.14035185E+00  -1.46512097E+01   1.16637217E-01
   3.76250000E+02   5.00000000E-01   5.00000000E-01  -7.08972297E+00  -1.30168740E+00  -5.04555434E+00  -2.51559487E+00  -2.59451496E+00   9.14580000E-02  -4.24291912E+00   4.61487964E-01   1.84628827E+00   1.11375671E+00   1.89667025E+00  -1.78863910E+00  -1.01998838E+00  -1.13642118E+00  -9.10551585E-01  -2.43876213E+00  -5.19788104E-01  -7.95146437E+00   4.07517114E-01   2.24087255E-02  -2.07711877E+00  -4.97229643E-01   4.87979897E-01   1.24974807E-01   5.17395223E-01  -1.79362679E+00  -5.95409168E+00  -2.77385335E+01  -5.69835517E-01  -7.36714844E+00  -3.27434348E+00  -4.57226547E+01  -1.52645219E+01   1.06272766E+00  -9.66464423E-01   2.36308364E-01  -5.58514107E-02  -7.96676664E-01  -1.95082926E+01  -7.72233329E+00  -1.75018725E+00  -3.11836100E+00  -1.45899581E+01   1.16637217E-01
   3.93750000E+02   5.00000000E-01   5.00000000E-01  -7.04192393E+00  -1.26414731E+00  -5.02513523E+00  -2.50459050E+00  -2.58186944E+00   9.14579999E-02  -4.20604296E+00   4.76548117E-01   1.84271332E+00   1.12844133E+00   1.90030879E+00  -1.77394226E+00  -1.02138676E+00  -1.12210016E+00  -9.04832934E-01  -2.41932580E+00  -5.01711224E-01  -7.90338251E+00   4.00109878E-01   2.24323646E-02  -2.08242228E+00  -4.87834095E-01   4.80240825E-01   1.34140775E-01   5.17157731E-01  -1.79438611E+00  -5.90986680E+00  -2.75809354E+01  -5.49101109E-01  -7.33275955E+00  -3.26852228E+00  -4.52943654E+01  -1.50681585E+01   1.05964724E+00  -9.70665130E-01   2.31242617E-01  -5.72083650E-02  -8.02048600E-01  -1.93951015E+01  -7.70698736E+00  -1.74837957E+00  -3.09709466E+00  -1.45290244E+01   1.16637217E-01
   4.11250000E+02   5.00000000E-01   5.00000000E-01  -6.99437325E+00  -1.22821368E+00  -5.00483429E+00  -2.49347522E+00  -2.56912879E+00   9.14579998E-02  -4.17012820E+00   4.91644113E-01   1.83935667E+00   1.14315975E+00   1.90408735E+00  -1.75986012E+00  -1.02324246E+00  -1.10839578E+00  -8.99649360E-01  -2.39998529E+00  -4.84439989E-01  -7.85597125E+00   3.92597154E-01   2.24526847E-02  -2.08831365E+00  -4.78864445E-01   4.72243029E-01   1.42877320E-01   5.16580208E-01  -1.79558382E+00  -5.86542971E+00  -2.74246966E+01  -5.28316288E-01  -7.29881194E+00  -3.26310330E+00  -4.48707417E+01  -1.48744173E+01   1.05657227E+00  -9.75371611E-01   2.25557332E-01  -5.85425117E-02  -8.07065158E-01  -1.92847587E+01  -7.69142903E+00  -1.74630701E+00  -3.07647886E+00  -1.44684107E+01   1.16637217E-01
   4.28750000E+02   5.00000000E-01   5.00000000E-01  -6.94706789E+00  -1.19375330E+00  -4.98464857E+00  -2.48225151E+00  -2.55629526E+00   9.14579996E-02  -4.13510491E+00   5.06770012E-01   1.83620955E+00   1.15790568E+00   1.90799825E+00  -1.74639113E+00  -1.02555640E+00  -1.09530683E+00  -8.95000684E-01  -2.38074048E+00  -4.67908777E-01  -7.80922182E+00   3.84975344E-01   2.24702150E-02  -2.09478628E+00  -4.70322428E-01   4.63982189E-01   1.51182399E-01   5.15659468E-01  -1.79721643E+00  -5.82078948E+00  -2.72697992E+01  -5.07486830E-01  -7.26529888E+00  -3.25808233E+00  -4.44516701E+01  -1.46832070E+01   1.05350063E+00  -9.80562039E-01   2.19275067E-01  -5.98527528E-02  -8.11739392E-01  -1.91770583E+01  -7.67565846E+00  -1.74397971E+00  -3.05644938E+00  -1.44081186E+01   1.16637217E-01
   4.46250000E+02   5.00000000E-01   5.00000000E-01  -6.90000490E+00  -1.16064944E+00  -4.96457580E+00  -2.47092135E+00  -2.54337061E+00   9.14579995E-02  -4.10091205E+00   5.21922122E-01   1.83326551E+00   1.17267514E+00   1.91203609E+00  -1.73353040E+00  -1.02832605E+00  -1.08282871E+00  -8.90883321E-01  -2.36159069E+00  -4.52059633E-01  -7.76312457E+00   3.77243688E-01   2.24854039E-02  -2.10183249E+00  -4.62206010E-01   4.55457810E-01   1.59057768E-01   5.14396135E-01  -1.79927875E+00  -5.77595047E+00  -2.71162234E+01  -4.86618215E-01  -7.23221233E+00  -3.25345310E+00  -4.40370454E+01  -1.44944448E+01   1.05043133E+00  -9.86215387E-01   2.12417173E-01  -6.11380042E-02  -8.16083705E-01  -1.90718174E+01  -7.65967466E+00  -1.74140733E+00  -3.03695023E+00  -1.43481494E+01   1.16637217E-01
   4.63750000E+02   5.00000000E-01   5.00000000E-01  -6.85318066E+00  -1.12879869E+00  -4.94461386E+00  -2.45948514E+00  -2.53035501E+00   9.14579993E-02  -4.06749572E+00   5.37099605E-01   1.83052105E+00   1.18746701E+00   1.91619845E+00  -1.72127224E+00  -1.03154808E+00  -1.07095603E+00  -8.87292873E-01  -2.34253443E+00  -4.36840749E-01  -7.71767061E+00   3.69403137E-01   2.24986369E-02  -2.10944671E+00  -4.54511262E-01   4.46671348E-01   1.66507106E-01   5.12792769E-01  -1.80176609E+00  -5.73091031E+00  -2.69639487E+01  -4.65715629E-01  -7.19954431E+00  -3.24920914E+00  -4.36267697E+01  -1.43080554E+01   1.04736441E+00  -9.92311118E-01   2.05003792E-01  -6.23972070E-02  -8.20109884E-01  -1.89688731E+01  -7.64347449E+00  -1.73859907E+00  -3.01793198E+00  -1.42885043E+01   1.16637216E-01
   4.81250000E+02   5.00000000E-01   5.00000000E-01  -6.80659032E+00  -1.09810835E+00  -4.92476050E+00  -2.44794086E+00  -2.51724624E+00   9.14579992E-02  -4.03480794E+00   5.52304937E-01   1.82797604E+00   1.20228352E+00   1.92048624E+00  -1.70961207E+00  -1.03522020E+00  -1.05968445E+00  -8.84226000E-01  -2.32356912E+00  -4.22205244E-01  -7.67285310E+00   3.61455558E-01   2.25102471E-02  -2.11762780E+00  -4.47233683E-01   4.37624888E-01   1.73534694E-01   5.10852543E-01  -1.80467572E+00  -5.68565833E+00  -2.68129540E+01  -4.44783974E-01  -7.16728789E+00  -3.24534500E+00  -4.32207520E+01  -1.41239701E+01   1.04430079E+00  -9.98828945E-01   1.97053870E-01  -6.36293348E-02  -8.23829122E-01  -1.88680806E+01  -7.62705203E+00  -1.73556363E+00  -2.99935055E+00  -1.42291839E+01   1.16637216E-01
   4.98750000E+02   5.00000000E-01   5.00000000E-01  -6.76022799E+00  -1.06849507E+00  -4.90501335E+00  -2.43628447E+00  -2.50404004E+00   9.14579990E-02  -4.00280577E+00   5.67543455E-01   1.82563331E+00   1.21712979E+00   1.92490333E+00  -1.69854621E+00  -1.03934097E+00  -1.04901052E+00  -8.81680244E-01  -2.30469126E+00  -4.08110498E-01  -7.62866689E+00   3.53403619E-01   2.25205211E-02  -2.12637841E+00  -4.40368263E-01   4.28321076E-01   1.80145351E-01   5.08579173E-01  -1.80800664E+00  -5.64017680E+00  -2.66632180E+01  -4.23827870E-01  -7.13543703E+00  -3.24185620E+00  -4.28189071E+01  -1.39421254E+01   1.04124217E+00  -1.00574897E+00   1.88585163E-01  -6.48333964E-02  -8.27252054E-01  -1.87693101E+01  -7.61039897E+00  -1.73230930E+00  -2.98116649E+00  -1.41701888E+01   1.16637216E-01
   5.16250000E+02   5.00000000E-01   5.00000000E-01  -6.71408769E+00  -1.03988434E+00  -4.88537033E+00  -2.42451142E+00  -2.49073165E+00   9.14579988E-02  -3.97145108E+00   5.82821843E-01   1.82349713E+00   1.23201233E+00   1.92945497E+00  -1.68806972E+00  -1.04390764E+00  -1.03892950E+00  -8.79651841E-01  -2.28589704E+00  -3.94518040E-01  -7.58510683E+00   3.45251285E-01   2.25297044E-02  -2.13570128E+00  -4.33908348E-01   4.18764254E-01   1.86345569E-01   5.05978060E-01  -1.81175740E+00  -5.59444517E+00  -2.65147190E+01  -4.02851673E-01  -7.10398548E+00  -3.23873759E+00  -4.24211547E+01  -1.37624628E+01   1.03819087E+00  -1.01305224E+00   1.79614265E-01  -6.60084379E-02  -8.30388771E-01  -1.86724446E+01  -7.59350642E+00  -1.72884392E+00  -2.96334471E+00  -1.41115191E+01   1.16637215E-01
   5.33750000E+02   5.00000000E-01   5.00000000E-01  -6.66816472E+00  -1.01221077E+00  -4.86583016E+00  -2.41261880E+00  -2.47731796E+00   9.14579986E-02  -3.94071048E+00   5.98146097E-01   1.82157108E+00   1.24693697E+00   1.93414578E+00  -1.67817327E+00  -1.04891303E+00  -1.02943222E+00  -8.78132590E-01  -2.26718305E+00  -3.81393766E-01  -7.54216526E+00   3.37004572E-01   2.25380066E-02  -2.14559405E+00  -4.27843970E-01   4.08962130E-01   1.92145182E-01   5.03057955E-01  -1.81592305E+00  -5.54844584E+00  -2.63674345E+01  -3.81859474E-01  -7.07292500E+00  -3.23598115E+00  -4.20274181E+01  -1.35849281E+01   1.03514954E+00  -1.02072151E+00   1.70156633E-01  -6.71535416E-02  -8.33248858E-01  -1.85773768E+01  -7.57636723E+00  -1.72517493E+00  -2.94585449E+00  -1.40531748E+01   1.16637214E-01
   5.51250000E+02   5.00000000E-01   5.00000000E-01  -6.62245676E+00  -9.85418122E-01  -4.84639285E+00  -2.40060713E+00  -2.46379930E+00   9.14579984E-02  -3.91055527E+00   6.13519779E-01   1.81985636E+00   1.26190715E+00   1.93897793E+00  -1.66884067E+00  -1.05434301E+00  -1.02050261E+00  -8.77107405E-01  -2.24854706E+00  -3.68708104E-01  -7.49983005E+00   3.28672078E-01   2.25456093E-02  -2.15604508E+00  -4.22160603E-01   3.98927017E-01   1.97558607E-01   4.99832198E-01  -1.82049279E+00  -5.50216908E+00  -2.62213413E+01  -3.60855114E-01  -7.04224412E+00  -3.23357424E+00  -4.16376233E+01  -1.34094709E+01   1.03212096E+00  -1.02874187E+00   1.60226620E-01  -6.82678262E-02  -8.35841405E-01  -1.84840071E+01  -7.55897798E+00  -1.72130938E+00  -2.92866951E+00  -1.39951557E+01   1.16637212E-01
   5.68750000E+02   5.00000000E-01   5.00000000E-01  -6.57696415E+00  -9.59458829E-01  -4.82705973E+00  -2.38848087E+00  -2.45017993E+00   9.14579981E-02  -3.88096109E+00   6.28943359E-01   1.81835112E+00   1.27692322E+00   1.94395053E+00  -1.66004849E+00  -1.06017624E+00  -1.01211736E+00  -8.76553941E-01  -2.22998814E+00  -3.56435823E-01  -7.45808411E+00   3.20264880E-01   2.25526740E-02  -2.16703239E+00  -4.16839152E-01   3.88675849E-01   2.02604857E-01   4.96318735E-01  -1.82544940E+00  -5.45561475E+00  -2.60764156E+01  -3.39842190E-01  -7.01192785E+00  -3.23149927E+00  -4.12516984E+01  -1.32360441E+01   1.02910787E+00  -1.03710094E+00   1.49837514E-01  -6.93504461E-02  -8.38175041E-01  -1.83922417E+01  -7.54133966E+00  -1.71725392E+00  -2.91176748E+00  -1.39374611E+01   1.16637209E-01
   5.86250000E+02   5.00000000E-01   5.00000000E-01  -6.53168918E+00  -9.34292496E-01  -4.80783307E+00  -2.37624735E+00  -2.43646698E+00   9.14579979E-02  -3.85190717E+00   6.44414965E-01   1.81705118E+00   1.29198325E+00   1.94906037E+00  -1.65176832E+00  -1.06638628E+00  -1.00424815E+00  -8.76444825E-01  -2.21150639E+00  -3.44555334E-01  -7.41690695E+00   3.11795683E-01   2.25593512E-02  -2.17852666E+00  -4.11857450E-01   3.78228679E-01   2.07306047E-01   4.92538618E-01  -1.83077116E+00  -5.40878999E+00  -2.59326334E+01  -3.18824070E-01  -6.98195891E+00  -3.22973532E+00  -4.08695740E+01  -1.30646033E+01   1.02611293E+00  -1.04578848E+00   1.39001583E-01  -7.04005922E-02  -8.40257949E-01  -1.83019931E+01  -7.52345665E+00  -1.71301486E+00  -2.89512948E+00  -1.38800903E+01   1.16637205E-01
   6.03750000E+02   5.00000000E-01   5.00000000E-01  -6.48663449E+00  -9.09883771E-01  -4.78871532E+00  -2.36391438E+00  -2.42266809E+00   9.14579976E-02  -3.82337528E+00   6.59932310E-01   1.81595199E+00   1.30708489E+00   1.95430385E+00  -1.64397100E+00  -1.07294593E+00  -9.96865857E-01  -8.76751903E-01  -2.19310211E+00  -3.33047582E-01  -7.37627769E+00   3.03277400E-01   2.25657863E-02  -2.19049736E+00  -4.07192894E-01   3.67606037E-01   2.11684745E-01   4.88513362E-01  -1.83643567E+00  -5.36170348E+00  -2.57899710E+01  -2.97803896E-01  -6.95231990E+00  -3.22826108E+00  -4.04911831E+01  -1.28951073E+01   1.02313876E+00  -1.05479552E+00   1.27730115E-01  -7.14174941E-02  -8.42097889E-01  -1.82131801E+01  -7.50533428E+00  -1.70859817E+00  -2.87873888E+00  -1.38230422E+01   1.16637198E-01
   6.21250000E+02   5.00000000E-01   5.00000000E-01  -6.44180128E+00  -8.86199990E-01  -4.76970825E+00  -2.35148747E+00  -2.40878855E+00   9.14579973E-02  -3.79534859E+00   6.75495060E-01   1.81505102E+00   1.32222778E+00   1.95967937E+00  -1.63663148E+00  -1.07983206E+00  -9.89945476E-01  -8.77451115E-01  -2.17477481E+00  -3.21894816E-01  -7.33617866E+00   2.94721612E-01   2.25721240E-02  -2.20292004E+00  -4.02825409E-01   3.56825978E-01   2.15761024E-01   4.84261991E-01  -1.84242425E+00  -5.31435843E+00  -2.56484062E+01  -2.76784598E-01  -6.92299596E+00  -3.22705832E+00  -4.01164621E+01  -1.27275167E+01   1.02018809E+00  -1.06411335E+00   1.16033472E-01  -7.24004222E-02  -8.43702218E-01  -1.81257290E+01  -7.48697589E+00  -1.70400950E+00  -2.86258028E+00  -1.37663157E+01   1.16637188E-01