 TITLE = "Mineral Saturation State" 
VARIABLES = "X"          "Y"              "Z"            "Forsterite"     "Enstatite(alph" "Anorthite"      "Tremolite"      "Pargasite"      "Anhydrite"      "Clinochlore"    "Albite(low)"    "Fayalite"       "Epidote"        "Kaolinite"      "Muscovite(orde" "Sudoite"        "Saponite(Mg)"   "Scolecite"      "FeS(am)"        "Quartz(alpha)"  "Montmorillonit"
 ZONE I=         100 , J=           1 , K=           1  F=POINT
   1.75000000E+01   5.00000000E-01   5.00000000E-01  -7.42415284E+00  -2.62080473E+00  -1.01735375E+01  -4.91868702E+00  -3.11492366E+01  -6.91431341E-01   4.44098083E-01  -5.52842894E-01  -4.06782199E+00  -6.75173018E-09  -3.61972846E+00  -1.51295154E+00  -4.39262623E+00   1.27416224E+00  -4.78038705E+00  -5.06870570E+00   8.98389572E-01  -1.29242544E+00
   5.25000000E+01   5.00000000E-01   5.00000000E-01  -7.51458204E+00  -2.61138273E+00  -9.57018162E+00  -4.64016331E+00  -3.04025812E+01  -4.91551015E-01   3.92920425E-01  -1.15167725E-01  -3.61778478E+00   6.12259986E-09  -3.06694564E+00  -8.09793146E-01  -3.71040928E+00   1.33972271E+00  -4.11892844E+00  -4.89872672E+00   1.01715420E+00  -6.19397507E-01
   8.75000000E+01   5.00000000E-01   5.00000000E-01  -7.48833423E+00  -2.58577543E+00  -9.30952848E+00  -4.41691397E+00  -2.99412925E+01  -3.49405456E-01   3.62693433E-01   4.57317966E-03  -3.31336671E+00   1.35935301E-09  -2.91407843E+00  -6.54868940E-01  -3.54114831E+00   1.37701516E+00  -3.88402622E+00  -4.79999372E+00   1.05149085E+00  -4.24247812E-01
   1.22500000E+02   5.00000000E-01   5.00000000E-01  -7.43901421E+00  -2.56170878E+00  -9.13308487E+00  -4.28115815E+00  -2.95740785E+01  -2.44660668E-01   3.49622756E-01   4.35467001E-02  -3.08897160E+00   5.49330291E-10  -2.84362901E+00  -6.09832306E-01  -3.45979092E+00   1.39251898E+00  -3.75903926E+00  -4.73724056E+00   1.05955467E+00  -3.46061050E-01
   1.57500000E+02   5.00000000E-01   5.00000000E-01  -7.38352018E+00  -2.53913320E+00  -8.99085351E+00  -4.19870398E+00  -2.92554779E+01  -1.66428579E-01   3.44419479E-01   5.65168951E-02  -2.91305652E+00   2.49546344E-10  -2.79709516E+00  -5.95415614E-01  -3.40025728E+00   1.39886025E+00  -3.67697788E+00  -4.69643978E+00   1.05834521E+00  -3.05157281E-01
   1.92500000E+02   5.00000000E-01   5.00000000E-01  -7.32626863E+00  -2.51736698E+00  -8.86777524E+00  -4.14897866E+00  -2.89685713E+01  -1.07817519E-01   3.42452204E-01   6.00271380E-02  -2.76892539E+00   9.31864334E-11  -2.75934870E+00  -5.91508788E-01  -3.34829821E+00   1.40161356E+00  -3.61700794E+00  -4.67019411E+00   1.05364450E+00  -2.78070271E-01
   2.27500000E+02   5.00000000E-01   5.00000000E-01  -7.26871392E+00  -2.49608008E+00  -8.75735293E+00  -4.12089817E+00  -2.87045592E+01  -6.40051664E-02   3.41799702E-01   5.98412471E-02  -2.64699902E+00  -5.90631279E-12  -2.72545602E+00  -5.91646014E-01  -3.29975975E+00   1.40295667E+00  -3.57052270E+00  -4.65415227E+00   1.04756911E+00  -2.56684903E-01
   2.62500000E+02   5.00000000E-01   5.00000000E-01  -7.21138805E+00  -2.47513338E+00  -8.65605019E+00  -4.10794539E+00  -2.84579116E+01  -3.14250688E-02   3.41693426E-01   5.81154234E-02  -2.54136268E+00  -7.81213242E-11  -2.69359411E+00  -5.93473843E-01  -3.25317758E+00   1.40373847E+00  -3.53318037E+00  -4.64557667E+00   1.04093130E+00  -2.37951860E-01
   2.97500000E+02   5.00000000E-01   5.00000000E-01  -7.15449497E+00  -2.45446770E+00  -8.56163595E+00  -4.10589108E+00  -2.82247873E+01  -7.36810096E-03   3.41825124E-01   5.56911020E-02  -2.44815097E+00  -1.36696888E-10  -2.66303275E+00  -5.96073501E-01  -3.20796828E+00   1.40429616E+00  -3.50243237E+00  -4.64266297E+00   1.03405539E+00  -2.20661095E-01
   3.32500000E+02   5.00000000E-01   5.00000000E-01  -7.09811361E+00  -2.43405602E+00  -8.47255185E+00  -4.11174931E+00  -2.80023388E+01   1.02761190E-02   3.42069126E-01   5.29070817E-02  -2.36472448E+00  -1.87928134E-10  -2.63345676E+00  -5.99067972E-01  -3.16387405E+00   1.40476684E+00  -3.47659211E+00  -4.64417914E+00   1.02707630E+00  -2.04307955E-01
   3.67500000E+02   5.00000000E-01   5.00000000E-01  -7.04227257E+00  -2.41388428E+00  -8.38764591E+00  -4.12330459E+00  -2.77883866E+01   2.31647658E-02   3.42373344E-01   4.99027987E-02  -2.28921176E+00  -2.35104576E-10  -2.60471863E+00  -6.02296983E-01  -3.12076883E+00   1.40520729E+00  -3.45445558E+00  -4.64925669E+00   1.02005267E+00  -1.88671054E-01
   4.02500000E+02   5.00000000E-01   5.00000000E-01  -6.98697842E+00  -2.39394364E+00  -8.30609467E+00  -4.13897311E+00  -2.75813393E+01   3.25105472E-02   3.42716292E-01   4.67355559E-02  -2.22022629E+00  -2.80589973E-10  -2.57674498E+00  -6.05693440E-01  -3.07858717E+00   1.40564083E+00  -3.43517976E+00  -4.65725732E+00   1.01301059E+00  -1.73650352E-01
   4.37500000E+02   5.00000000E-01   5.00000000E-01  -6.93222862E+00  -2.37422763E+00  -8.22729284E+00  -4.15759580E+00  -2.73800112E+01   3.92097309E-02   3.43088985E-01   4.34297204E-02  -2.15671169E+00  -3.25822331E-10  -2.54949447E+00  -6.09228783E-01  -3.03729025E+00   1.40607655E+00  -3.41815354E+00  -4.66769973E+00   1.00596231E+00  -1.59196919E-01
   4.72500000E+02   5.00000000E-01   5.00000000E-01  -6.87801690E+00  -2.35473087E+00  -8.15078581E+00  -4.17830966E+00  -2.71835034E+01   4.39299088E-02   3.43487477E-01   3.99968321E-02  -2.09784383E+00  -3.71610142E-10  -2.52293986E+00  -6.12890145E-01  -2.99685114E+00   1.40651727E+00  -3.40292243E+00  -4.68021281E+00   9.98914088E-01  -1.45283572E-01
   5.07500000E+02   5.00000000E-01   5.00000000E-01  -6.82433574E+00  -2.33544867E+00  -8.07622632E+00  -4.20046475E+00  -2.69911248E+01   4.71706147E-02   3.43909734E-01   3.64440654E-02  -2.04296688E+00  -4.18403938E-10  -2.49705993E+00  -6.16670188E-01  -2.95724791E+00   1.40696290E+00  -3.38914178E+00  -4.69450481E+00   9.91869543E-01  -1.31892017E-01
   5.42500000E+02   5.00000000E-01   5.00000000E-01  -6.77117757E+00  -2.31637683E+00  -8.00334499E+00  -4.22356787E+00  -2.68023378E+01   4.93064443E-02   3.44354282E-01   3.27778770E-02  -1.99155020E+00  -4.66475276E-10  -2.47183549E+00  -6.20562304E-01  -2.91845989E+00   1.40741187E+00  -3.37654588E+00  -4.71034250E+00   9.84831215E-01  -1.19006932E-01
   5.77500000E+02   5.00000000E-01   5.00000000E-01  -6.71853538E+00  -2.29751159E+00  -7.93192966E+00  -4.24724297E+00  -2.66167193E+01   5.06184340E-02   3.44819628E-01   2.90056110E-02  -1.94315863E+00  -5.15916730E-10  -2.44724730E+00  -6.24558199E-01  -2.88046568E+00   1.40786166E+00  -3.36492647E+00  -4.72753678E+00   9.77801278E-01  -1.06613086E-01
   6.12500000E+02   5.00000000E-01   5.00000000E-01  -6.66640308E+00  -2.27884963E+00  -7.86181036E+00  -4.27120231E+00  -2.64339322E+01   5.13172802E-02   3.45304006E-01   2.51362072E-02  -1.89743141E+00  -5.66654241E-10  -2.42327494E+00  -6.28646622E-01  -2.84324185E+00   1.40830914E+00  -3.35411745E+00  -4.74593250E+00   9.70781895E-01  -9.46938654E-02
   6.47500000E+02   5.00000000E-01   5.00000000E-01  -6.61477566E+00  -2.26038809E+00  -7.79284834E+00  -4.29522528E+00  -2.62537039E+01   5.15607243E-02   3.45805277E-01   2.11804963E-02  -1.85406694E+00  -6.18626090E-10  -2.39989610E+00  -6.32812691E-01  -2.80676218E+00   1.40875061E+00  -3.34398363E+00  -4.76540112E+00   9.63775409E-01  -8.32305067E-02
   6.82500000E+02   5.00000000E-01   5.00000000E-01  -6.56364931E+00  -2.24212453E+00  -7.72492782E+00  -4.31914247E+00  -2.60758112E+01   5.14666639E-02   3.46320902E-01   1.71512884E-02  -1.81281149E+00  -6.71523694E-10  -2.37708627E+00  -6.37037586E-01  -2.77099726E+00   1.40918190E+00  -3.33441246E+00  -4.78583528E+00   9.56784432E-01  -7.22017059E-02
   7.17500000E+02   5.00000000E-01   5.00000000E-01  -6.51302144E+00  -2.22405695E+00  -7.65794993E+00  -4.34282358E+00  -2.59000678E+01   5.11230774E-02   3.46847948E-01   1.30633435E-02  -1.77345058E+00  -7.25056983E-10  -2.35481853E+00  -6.41298486E-01  -2.73591429E+00   1.40959843E+00  -3.32530792E+00  -4.80714471E+00   9.49811891E-01  -6.15834754E-02
   7.52500000E+02   5.00000000E-01   5.00000000E-01  -6.46289060E+00  -2.20618376E+00  -7.59182821E+00  -4.36616827E+00  -2.57263152E+01   5.05955427E-02   3.47383127E-01   8.93326111E-03  -1.73580246E+00  -7.78778508E-10  -2.33306359E+00  -6.45568697E-01  -2.70147711E+00   1.40999520E+00  -3.31658593E+00  -4.82925317E+00   9.42861040E-01  -5.13491739E-02
   7.87500000E+02   5.00000000E-01   5.00000000E-01  -6.41325648E+00  -2.18850374E+00  -7.52648525E+00  -4.38909910E+00  -2.55544167E+01   4.99329241E-02   3.47922835E-01   4.77930199E-03  -1.69971281E+00  -8.32246993E-10  -2.31178996E+00  -6.49817959E-01  -2.66764640E+00   1.41036694E+00  -3.30817114E+00  -4.85209594E+00   9.35935451E-01  -4.14696806E-02
   8.22500000E+02   5.00000000E-01   5.00000000E-01  -6.36411972E+00  -2.17101600E+00  -7.46185037E+00  -4.41155611E+00  -2.53842514E+01   4.91716587E-02   3.48463216E-01   6.21147509E-04  -1.66505059E+00  -8.84832927E-10  -2.29096419E+00  -6.54012915E-01  -2.63438014E+00   1.41070812E+00  -3.29999453E+00  -4.87561794E+00   9.29038979E-01  -3.19136981E-02
   8.57500000E+02   5.00000000E-01   5.00000000E-01  -6.31548176E+00  -2.15371992E+00  -7.39785798E+00  -4.43349253E+00  -2.52157111E+01   4.83389735E-02   3.49000231E-01  -3.52039342E-03  -1.63170453E+00  -9.35909880E-10  -2.27055132E+00  -6.58117715E-01  -2.60163408E+00   1.41101309E+00  -3.29199181E+00  -4.89977213E+00   9.22175723E-01  -2.26481607E-02
   8.92500000E+02   5.00000000E-01   5.00000000E-01  -6.26734447E+00  -2.13661500E+00  -7.33444699E+00  -4.45487115E+00  -2.50486976E+01   4.74552848E-02   3.49529629E-01  -7.62408975E-03  -1.59958012E+00  -9.84734165E-10  -2.25051597E+00  -6.62095637E-01  -2.56936349E+00   1.41127628E+00  -3.28410305E+00  -4.92451815E+00   9.15349908E-01  -1.36393266E-02
   9.27500000E+02   5.00000000E-01   5.00000000E-01  -6.21971020E+00  -2.11970092E+00  -7.27155931E+00  -4.47566234E+00  -2.48831201E+01   4.65359781E-02   3.50047253E-01  -1.16681122E-02  -1.56859743E+00  -1.03052506E-09  -2.23082192E+00  -6.65908449E-01  -2.53752223E+00   1.41149215E+00  -3.27627108E+00  -4.94982135E+00   9.08565885E-01  -4.85243948E-03
   9.62500000E+02   5.00000000E-01   5.00000000E-01  -6.17258140E+00  -2.10297735E+00  -7.20913987E+00  -4.49584157E+00  -2.47188938E+01   4.55927198E-02   3.50549001E-01  -1.56306324E-02  -1.53868886E+00  -1.07243396E-09  -2.21143311E+00  -6.69517900E-01  -2.50606437E+00   1.41165544E+00  -3.26844163E+00  -4.97565182E+00   9.01828049E-01   3.74730781E-03
   9.97500000E+02   5.00000000E-01   5.00000000E-01  -6.12596036E+00  -2.08644393E+00  -7.14713663E+00  -4.51538759E+00  -2.45559394E+01   4.46344185E-02   3.51030899E-01  -1.94903312E-02  -1.50979726E+00  -1.10961534E-09  -2.19231448E+00  -6.72886853E-01  -2.47494534E+00   1.41176133E+00  -3.26056343E+00  -5.00198359E+00   8.95140737E-01   1.21939713E-02
   1.03250000E+03   5.00000000E-01   5.00000000E-01  -6.07984888E+00  -2.07010008E+00  -7.08550071E+00  -4.53428095E+00  -2.43941818E+01   4.36679254E-02   3.51489186E-01  -2.32269125E-02  -1.48187430E+00  -1.14119282E-09  -2.17343279E+00  -6.75980429E-01  -2.44412301E+00   1.41180556E+00  -3.25258849E+00  -5.02879392E+00   8.88508136E-01   2.05200368E-02
   1.06750000E+03   5.00000000E-01   5.00000000E-01  -6.03424797E+00  -2.05394497E+00  -7.02418667E+00  -4.55250273E+00  -2.42335500E+01   4.26985439E-02   3.51920398E-01  -2.68215810E-02  -1.45487898E+00  -1.16630854E-09  -2.15475735E+00  -6.78767055E-01  -2.41355879E+00   1.41178464E+00  -3.24447239E+00  -5.05606265E+00   8.81934177E-01   2.87556571E-02
   1.10250000E+03   5.00000000E-01   5.00000000E-01  -5.98915763E+00  -2.03797740E+00  -6.96315270E+00  -4.57003349E+00  -2.40739766E+01   4.17303978E-02   3.52321440E-01  -3.02574973E-02  -1.42877632E+00  -1.18412931E-09  -2.13626077E+00  -6.81219462E-01  -2.38321861E+00   1.41169591E+00  -3.23617466E+00  -5.08377163E+00   8.75422450E-01   3.69279175E-02
   1.13750000E+03   5.00000000E-01   5.00000000E-01  -5.94457654E+00  -2.02219573E+00  -6.90236100E+00  -4.58685245E+00  -2.39153977E+01   4.07667002E-02   3.52689653E-01  -3.35201870E-02  -1.40353621E+00  -1.19386516E-09  -2.11791961E+00  -6.83315593E-01  -2.35307383E+00   1.41153769E+00  -3.22765914E+00  -5.11190426E+00   8.68976107E-01   4.50601706E-02
   1.17250000E+03   5.00000000E-01   5.00000000E-01  -5.90050192E+00  -2.00659783E+00  -6.84177793E+00  -4.60293676E+00  -2.37577523E+01   3.98099485E-02   3.53022867E-01  -3.65978829E-02  -1.37913239E+00  -1.19482794E-09  -2.09971493E+00  -6.85039344E-01  -2.32310199E+00   1.41130934E+00  -3.21889431E+00  -5.14044504E+00   8.62597796E-01   5.31714739E-02
   1.20750000E+03   5.00000000E-01   5.00000000E-01  -5.85692936E+00  -1.99118102E+00  -6.78137420E+00  -4.61826095E+00  -2.36009825E+01   3.88620680E-02   3.53319441E-01  -3.94817835E-02  -1.35554153E+00  -1.18639124E-09  -2.08163267E+00  -6.86381122E-01  -2.29328738E+00   1.41101132E+00  -3.20985350E+00  -5.16937915E+00   8.56289590E-01   6.12761590E-02
   1.24250000E+03   5.00000000E-01   5.00000000E-01  -5.81385272E+00  -1.97594205E+00  -6.72112494E+00  -4.63279660E+00  -2.34450330E+01   3.79245194E-02   3.53578290E-01  -4.21662128E-02  -1.33274249E+00  -1.16806747E-09  -2.06366397E+00  -6.87338181E-01  -2.26362136E+00   1.41064519E+00  -3.20051500E+00  -5.19869218E+00   8.50052948E-01   6.93835531E-02
   1.27750000E+03   5.00000000E-01   5.00000000E-01  -5.77126410E+00  -1.96087713E+00  -6.66100960E+00  -4.64651214E+00  -2.32898511E+01   3.69983798E-02   3.53798898E-01  -4.46486731E-02  -1.31071561E+00  -1.13944006E-09  -2.04580520E+00  -6.87914709E-01  -2.23410248E+00   1.41021362E+00  -3.19086199E+00  -5.22836982E+00   8.43888690E-01   7.74978719E-02
   1.31250000E+03   5.00000000E-01   5.00000000E-01  -5.72915391E+00  -1.94598189E+00  -6.60101181E+00  -4.65937276E+00  -2.31353864E+01   3.60844059E-02   3.53981315E-01  -4.69297865E-02  -1.28944222E+00  -1.10029608E-09  -2.02805787E+00  -6.88121677E-01  -2.20473629E+00   1.40972027E+00  -3.18088240E+00  -5.25839767E+00   8.37796988E-01   8.56182864E-02
   1.34750000E+03   5.00000000E-01   5.00000000E-01  -5.68751094E+00  -1.93125149E+00  -6.54111904E+00  -4.67134056E+00  -2.29815903E+01   3.51830839E-02   3.54126133E-01  -4.90131286E-02  -1.26890418E+00  -1.05049667E-09  -2.01042836E+00  -6.87976436E-01  -2.17553497E+00   1.40916973E+00  -3.17056858E+00  -5.28876106E+00   8.31777389E-01   9.37391613E-02
   1.38250000E+03   5.00000000E-01   5.00000000E-01  -5.64632251E+00  -1.91668062E+00  -6.48132218E+00  -4.68237474E+00  -2.28284158E+01   3.42946705E-02   3.54234457E-01  -5.09049618E-02  -1.24908352E+00  -9.90085025E-10  -1.99292752E+00  -6.87502103E-01  -2.14651669E+00   1.40856741E+00  -3.15991681E+00  -5.31944493E+00   8.25828842E-01   1.01850452E-01
   1.41750000E+03   5.00000000E-01   5.00000000E-01  -5.60557473E+00  -1.90226363E+00  -6.42161505E+00  -4.69243197E+00  -2.26758172E+01   3.34192270E-02   3.54307854E-01  -5.26138839E-02  -1.22996219E+00  -9.19233959E-10  -1.97557005E+00  -6.86726761E-01  -2.11770480E+00   1.40791933E+00  -3.14892679E+00  -5.35043377E+00   8.19949761E-01   1.09938235E-01
   1.45250000E+03   5.00000000E-01   5.00000000E-01  -5.56525270E+00  -1.88799461E+00  -6.36199379E+00  -4.70146681E+00  -2.25237498E+01   3.25566483E-02   3.54348294E-01  -5.41504103E-02  -1.21152185E+00  -8.38279826E-10  -1.95837390E+00  -6.85682515E-01  -2.08912693E+00   1.40723204E+00  -3.13760094E+00  -5.38171162E+00   8.14138084E-01   1.17985346E-01
   1.48750000E+03   5.00000000E-01   5.00000000E-01  -5.52534079E+00  -1.87386743E+00  -6.30245629E+00  -4.70943221E+00  -2.23721694E+01   3.17066893E-02   3.54358080E-01  -5.55265122E-02  -1.19374377E+00  -7.47691677E-10  -1.94135948E+00  -6.84404462E-01  -2.06081390E+00   1.40651235E+00  -3.12594375E+00  -5.41326197E+00   8.08391357E-01   1.25972087E-01
   1.52250000E+03   5.00000000E-01   5.00000000E-01  -5.48582292E+00  -1.85987593E+00  -6.24300152E+00  -4.71627999E+00  -2.22210320E+01   3.08689874E-02   3.54339776E-01  -5.67551342E-02  -1.17660864E+00  -6.48111366E-10  -1.92454895E+00  -6.82929629E-01  -2.03279869E+00   1.40576722E+00  -3.11396108E+00  -5.44506790E+00   8.02706815E-01   1.33876965E-01
   1.55750000E+03   5.00000000E-01   5.00000000E-01  -5.44668283E+00  -1.84601392E+00  -6.18362897E+00  -4.72196134E+00  -2.20702935E+01   3.00430837E-02   3.54296121E-01  -5.78497139E-02  -1.16009655E+00  -5.40301100E-10  -1.90796544E+00  -6.81295927E-01  -2.00511544E+00   1.40500357E+00  -3.10165942E+00  -5.47711198E+00   7.97081471E-01   1.41677423E-01
   1.59250000E+03   5.00000000E-01   5.00000000E-01  -5.40790436E+00  -1.83227535E+00  -6.12433805E+00  -4.72642736E+00  -2.19199097E+01   2.92284431E-02   3.54229955E-01  -5.88237233E-02  -1.14418691E+00  -4.25115657E-10  -1.89163237E+00  -6.79541163E-01  -1.97779840E+00   1.40422816E+00  -3.08904531E+00  -5.50937641E+00   7.91512197E-01   1.49350547E-01
   1.62750000E+03   5.00000000E-01   5.00000000E-01  -5.36947165E+00  -1.81865433E+00  -6.06512767E+00  -4.72962945E+00  -2.17698356E+01   2.84244724E-02   3.54144139E-01  -5.96902516E-02  -1.12885831E+00  -3.03638171E-10  -1.87557282E+00  -6.77702159E-01  -1.95088113E+00   1.40344741E+00  -3.07612474E+00  -5.54184298E+00   7.85995811E-01   1.56873696E-01
   1.66250000E+03   5.00000000E-01   5.00000000E-01  -5.33136934E+00  -1.80514520E+00  -6.00599579E+00  -4.73151971E+00  -2.16200257E+01   2.76305385E-02   3.54041482E-01  -6.04616410E-02  -1.11408847E+00  -1.76991889E-10  -1.85980897E+00  -6.75814005E-01  -1.92439576E+00   1.40266735E+00  -3.06290271E+00  -5.57449309E+00   7.80529141E-01   1.64225048E-01
   1.69750000E+03   5.00000000E-01   5.00000000E-01  -5.29358276E+00  -1.79174260E+00  -5.94693912E+00  -4.73205122E+00  -2.14704335E+01   2.68459862E-02   3.53924676E-01  -6.11491832E-02  -1.09985413E+00  -4.64636111E-11  -1.84436172E+00  -6.73909452E-01  -1.89837242E+00   1.40189350E+00  -3.04938283E+00  -5.60730779E+00   7.75109092E-01   1.71384053E-01
   1.73250000E+03   5.00000000E-01   5.00000000E-01  -5.25609802E+00  -1.77844148E+00  -5.88795293E+00  -4.73117831E+00  -2.13210117E+01   2.60701549E-02   3.53796240E-01  -6.17628817E-02  -1.08613084E+00   8.65858048E-11  -1.82925031E+00  -6.72018459E-01  -1.87283881E+00   1.40113087E+00  -3.03556710E+00  -5.64026771E+00   7.69732695E-01   1.78331777E-01
   1.76750000E+03   5.00000000E-01   5.00000000E-01  -5.21890206E+00  -1.76523715E+00  -5.82903094E+00  -4.72885672E+00  -2.11717122E+01   2.53023959E-02   3.53658471E-01  -6.23112784E-02  -1.07289285E+00   2.20687495E-10  -1.81449216E+00  -6.70167897E-01  -1.84781996E+00   1.40038388E+00  -3.02145571E+00  -5.67335307E+00   7.64397145E-01   1.85051137E-01
   1.80250000E+03   5.00000000E-01   5.00000000E-01  -5.18198275E+00  -1.75212525E+00  -5.77016522E+00  -4.72504369E+00  -2.10224859E+01   2.45420896E-02   3.53513409E-01  -6.28013397E-02  -1.06011290E+00   3.54320136E-10  -1.80010273E+00  -6.68381375E-01  -1.82333811E+00   1.39965640E+00  -3.00704702E+00  -5.70654357E+00   7.59099827E-01   1.91527048E-01
   1.83750000E+03   5.00000000E-01   5.00000000E-01  -5.14532886E+00  -1.73910176E+00  -5.71134633E+00  -4.71969803E+00  -2.08732829E+01   2.37886623E-02   3.53362808E-01  -6.32383997E-02  -1.04776196E+00   4.85894517E-10  -1.78609555E+00  -6.66679215E-01  -1.79941269E+00   1.39895175E+00  -2.99233754E+00  -5.73981835E+00   7.53838335E-01   1.97746471E-01
   1.87250000E+03   5.00000000E-01   5.00000000E-01  -5.10893003E+00  -1.72616299E+00  -5.65256332E+00  -4.71278008E+00  -2.07240528E+01   2.30416027E-02   3.53208119E-01  -6.36261479E-02  -1.03580901E+00   6.13839940E-10  -1.77248221E+00  -6.65078507E-01  -1.77606049E+00   1.39827273E+00  -2.97732209E+00  -5.77315586E+00   7.48610472E-01   2.03698384E-01
   1.90750000E+03   5.00000000E-01   5.00000000E-01  -5.07277673E+00  -1.71330554E+00  -5.59380396E+00  -4.70425169E+00  -2.05747444E+01   2.23004786E-02   3.53050483E-01  -6.39666543E-02  -1.02422077E+00   7.36536337E-10  -1.75927255E+00  -6.63593264E-01  -1.75329580E+00   1.39762168E+00  -2.96199388E+00  -5.80653379E+00   7.43414254E-01   2.09373693E-01
   1.94250000E+03   5.00000000E-01   5.00000000E-01  -5.03686019E+00  -1.70052632E+00  -5.53505487E+00  -4.69407613E+00  -2.04253059E+01   2.15649525E-02   3.52890724E-01  -6.42604214E-02  -1.01296137E+00   8.52462383E-10  -1.74647483E+00  -6.62234625E-01  -1.73113075E+00   1.39700050E+00  -2.94634477E+00  -5.83992885E+00   7.38247892E-01   2.14765097E-01
   1.97750000E+03   5.00000000E-01   5.00000000E-01  -5.00117236E+00  -1.68782246E+00  -5.47630176E+00  -4.68221794E+00  -2.02756854E+01   2.08347965E-02   3.52729355E-01  -6.45064579E-02  -1.00199211E+00   9.60149215E-10  -1.73409588E+00  -6.61011116E-01  -1.70957556E+00   1.39641073E+00  -2.93036542E+00  -5.87331673E+00   7.33109781E-01   2.19866904E-01
   2.01250000E+03   5.00000000E-01   5.00000000E-01  -4.96570574E+00  -1.67519129E+00  -5.41752958E+00  -4.66864278E+00  -2.01258303E+01   2.01099054E-02   3.52566585E-01  -6.47023618E-02  -9.91271063E-01   1.05823906E-09  -1.72214143E+00  -6.59928932E-01  -1.68863893E+00   1.39585363E+00  -2.91404560E+00  -5.90667184E+00   7.27998478E-01   2.24674830E-01
   2.04750000E+03   5.00000000E-01   5.00000000E-01  -4.93045336E+00  -1.66263034E+00  -5.35872275E+00  -4.65331721E+00  -1.99756876E+01   1.93903082E-02   3.52402331E-01  -6.48444072E-02  -9.80752771E-01   1.14551610E-09  -1.71061628E+00  -6.58992221E-01  -1.66832839E+00   1.39533016E+00  -2.89737429E+00  -5.93996720E+00   7.22912676E-01   2.29185783E-01
   2.08250000E+03   5.00000000E-01   5.00000000E-01  -4.89540867E+00  -1.65013729E+00  -5.29986533E+00  -4.63620845E+00  -1.98252043E+01   1.86761768E-02   3.52236228E-01  -6.49276295E-02  -9.70387856E-01   1.22095273E-09  -1.69952461E+00  -6.58203390E-01  -1.64865067E+00   1.39484112E+00  -2.88034000E+00  -5.97317420E+00   7.17851175E-01   2.33397634E-01
   2.11750000E+03   5.00000000E-01   5.00000000E-01  -4.86056541E+00  -1.63770990E+00  -5.24094115E+00  -4.61728401E+00  -1.96743263E+01   1.79678317E-02   3.52067641E-01  -6.49459040E-02  -9.60122628E-01   1.28373739E-09  -1.68887024E+00  -6.57563384E-01  -1.62961211E+00   1.39438717E+00  -2.86293086E+00  -6.00626242E+00   7.12812861E-01   2.37308987E-01
   2.15250000E+03   5.00000000E-01   5.00000000E-01  -4.82591755E+00  -1.62534602E+00  -5.18193390E+00  -4.59651133E+00  -1.95229990E+01   1.72657442E-02   3.51895678E-01  -6.48920120E-02  -9.49898657E-01   1.33326834E-09  -1.67865687E+00  -6.57071968E-01  -1.61121901E+00   1.39396886E+00  -2.84513477E+00  -6.03919942E+00   7.07796666E-01   2.40918954E-01
   2.18750000E+03   5.00000000E-01   5.00000000E-01  -4.79145919E+00  -1.61304357E+00  -5.12282717E+00  -4.57385722E+00  -1.93711668E+01   1.65705333E-02   3.51719199E-01  -6.47576917E-02  -9.39652294E-01   1.36920458E-09  -1.66888837E+00  -6.56727976E-01  -1.59347802E+00   1.39358670E+00  -2.82693947E+00  -6.07195042E+00   7.02801545E-01   2.44226932E-01
   2.22250000E+03   5.00000000E-01   5.00000000E-01  -4.75718445E+00  -1.60080044E+00  -5.06360446E+00  -4.54928729E+00  -1.92187721E+01   1.58829595E-02   3.51536818E-01  -6.45336712E-02  -9.29314146E-01   1.39145200E-09  -1.65956904E+00  -6.56529555E-01  -1.57639651E+00   1.39324121E+00  -2.80833255E+00  -6.10447811E+00   6.97826444E-01   2.47232385E-01
   2.25750000E+03   5.00000000E-01   5.00000000E-01  -4.72308741E+00  -1.58861455E+00  -5.00424905E+00  -4.52276515E+00  -1.90657553E+01   1.52039127E-02   3.51346914E-01  -6.42096801E-02  -9.18808473E-01   1.40016797E-09  -1.65070385E+00  -6.56474373E-01  -1.55998297E+00   1.39293293E+00  -2.78930141E+00  -6.13674228E+00   6.92870266E-01   2.49934637E-01
   2.29250000E+03   5.00000000E-01   5.00000000E-01  -4.68916197E+00  -1.57648376E+00  -4.94474382E+00  -4.49425148E+00  -1.89120537E+01   1.45343951E-02   3.51147618E-01  -6.37744385E-02  -9.08052503E-01   1.39577990E-09  -1.64229874E+00  -6.56559824E-01  -1.54424736E+00   1.39266250E+00  -2.76983306E+00  -6.16869944E+00   6.87931842E-01   2.52332660E-01
   2.32750000E+03   5.00000000E-01   5.00000000E-01  -4.65540184E+00  -1.56440583E+00  -4.88507102E+00  -4.46370292E+00  -1.87576003E+01   1.38755006E-02   3.50936813E-01  -6.32156176E-02  -8.96955627E-01   1.37891728E-09  -1.63436090E+00  -6.56783197E-01  -1.52920156E+00   1.39243065E+00  -2.74991395E+00  -6.20030249E+00   6.83009897E-01   2.54424873E-01
   2.36250000E+03   5.00000000E-01   5.00000000E-01  -4.62180036E+00  -1.55237847E+00  -4.82521190E+00  -4.43107070E+00  -1.86023225E+01   1.32283897E-02   3.50712112E-01  -6.25197724E-02  -8.85418459E-01   1.35042874E-09  -1.62689902E+00  -6.57141844E-01  -1.51485977E+00   1.39223827E+00  -2.72952963E+00  -6.23150014E+00   6.78103017E-01   2.56208930E-01
   2.39750000E+03   5.00000000E-01   5.00000000E-01  -4.58835045E+00  -1.54039923E+00  -4.76514621E+00  -4.39629901E+00  -1.84461410E+01   1.25942608E-02   3.50470840E-01  -6.16722387E-02  -8.73331708E-01   1.31132796E-09  -1.61992367E+00  -6.57633324E-01  -1.50123901E+00   1.39208644E+00  -2.70866429E+00  -6.26223639E+00   6.73209614E-01   2.57681514E-01
   2.43250000E+03   5.00000000E-01   5.00000000E-01  -4.55504450E+00  -1.52846548E+00  -4.70485164E+00  -4.35932308E+00  -1.82889671E+01   1.19743209E-02   3.50209996E-01  -6.06569921E-02  -8.60574836E-01   1.26277677E-09  -1.61344761E+00  -6.58255534E-01  -1.48835960E+00   1.39197644E+00  -2.68730020E+00  -6.29244983E+00   6.68327884E-01   2.58838107E-01
   2.46750000E+03   5.00000000E-01   5.00000000E-01  -4.52187425E+00  -1.51657442E+00  -4.64430309E+00  -4.32006688E+00  -1.81307010E+01   1.13697548E-02   3.49926207E-01  -5.94564591E-02  -8.47014422E-01   1.20604192E-09  -1.60748622E+00  -6.59006844E-01  -1.47624580E+00   1.39190986E+00  -2.66541709E+00  -6.32207281E+00   6.63455768E-01   2.59672746E-01
   2.50250000E+03   5.00000000E-01   5.00000000E-01  -4.48883064E+00  -1.50472297E+00  -4.58347176E+00  -4.27844036E+00  -1.79712287E+01   1.07816947E-02   3.49615668E-01  -5.80512739E-02  -8.32502181E-01   1.14243951E-09  -1.60205790E+00  -6.59886207E-01  -1.46492648E+00   1.39188854E+00  -2.64299126E+00  -6.35103043E+00   6.58590903E-01   2.60177757E-01
   2.53750000E+03   5.00000000E-01   5.00000000E-01  -4.45590369E+00  -1.49290779E+00  -4.52232414E+00  -4.23433622E+00  -1.78104188E+01   1.02111932E-02   3.49274062E-01  -5.64199651E-02  -8.16872516E-01   1.07334891E-09  -1.59718468E+00  -6.60893285E-01  -1.45443593E+00   1.39191472E+00  -2.61999459E+00  -6.37923933E+00   6.53730564E-01   2.60343449E-01
   2.57250000E+03   5.00000000E-01   5.00000000E-01  -4.42308230E+00  -1.48112516E+00  -4.46082067E+00  -4.18762594E+00  -1.76481185E+01   9.65919783E-03   3.48896455E-01  -5.45385575E-02  -7.99939510E-01   1.00009397E-09  -1.59289283E+00  -6.62028556E-01  -1.44481487E+00   1.39199105E+00  -2.59639333E+00  -6.40660617E+00   6.48871604E-01   2.60157753E-01
   2.60750000E+03   5.00000000E-01   5.00000000E-01  -4.39035403E+00  -1.46937097E+00  -4.39891423E+00  -4.13815505E+00  -1.74841486E+01   9.12653152E-03   3.48477159E-01  -5.23800632E-02  -7.81493166E-01   9.23993879E-10  -1.58921362E+00  -6.63293434E-01  -1.43611158E+00   1.39212064E+00  -2.57214662E+00  -6.43302576E+00   6.44010371E-01   2.59605808E-01
   2.64250000E+03   5.00000000E-01   5.00000000E-01  -4.35770488E+00  -1.45764059E+00  -4.33654824E+00  -4.08573729E+00  -1.73182974E+01   8.61387658E-03   3.48009558E-01  -4.99138310E-02  -7.61294704E-01   8.46299945E-10  -1.58618429E+00  -6.64690380E-01  -1.42838345E+00   1.39230718E+00  -2.54720468E+00  -6.45837870E+00   6.39142618E-01   2.58669457E-01
   2.67750000E+03   5.00000000E-01   5.00000000E-01  -4.32511895E+00  -1.44592882E+00  -4.27365427E+00  -4.03014742E+00  -1.71503138E+01   8.12176489E-03   3.47485871E-01  -4.71047071E-02  -7.39070599E-01   7.68164734E-10  -1.58384924E+00  -6.66223014E-01  -1.42169871E+00   1.39255500E+00  -2.52150659E+00  -6.48252843E+00   6.34263387E-01   2.57326628E-01
   2.71250000E+03   5.00000000E-01   5.00000000E-01  -4.29257807E+00  -1.43422971E+00  -4.21014910E+00  -3.97111220E+00  -1.69798970E+01   7.65057301E-03   3.46896843E-01  -4.39119417E-02  -7.14504982E-01   6.90657494E-10  -1.58226147E+00  -6.67896212E-01  -1.41613876E+00   1.39286917E+00  -2.49497745E+00  -6.50531748E+00   6.29366862E-01   2.55550585E-01
   2.74750000E+03   5.00000000E-01   5.00000000E-01  -4.26006131E+00  -1.42253650E+00  -4.14593094E+00  -3.90829885E+00  -1.68066851E+01   7.20052257E-03   3.46231331E-01  -4.02877494E-02  -6.87229826E-01   6.14742551E-10  -1.58148451E+00  -6.69716168E-01  -1.41180109E+00   1.39325564E+00  -2.46752479E+00  -6.52656258E+00   6.24446188E-01   2.53308986E-01
   2.78250000E+03   5.00000000E-01   5.00000000E-01  -4.22754443E+00  -1.41084137E+00  -4.08087447E+00  -3.84130024E+00  -1.66302396E+01   6.77168515E-03   3.45475733E-01  -3.61753818E-02  -6.56812174E-01   5.41229940E-10  -1.58159475E+00  -6.71690391E-01  -1.40880297E+00   1.39372132E+00  -2.43903384E+00  -6.54604836E+00   6.19493237E-01   2.50562719E-01
   2.81750000E+03   5.00000000E-01   5.00000000E-01  -4.19499909E+00  -1.39913523E+00  -4.01482423E+00  -3.76961538E+00  -1.64500241E+01   6.36399125E-03   3.44613201E-01  -3.15065098E-02  -6.22737264E-01   4.70881867E-10  -1.58268453E+00  -6.73827545E-01  -1.40728627E+00   1.39427421E+00  -2.40936126E+00  -6.56351909E+00   6.14498301E-01   2.47264425E-01
   2.85250000E+03   5.00000000E-01   5.00000000E-01  -4.16239201E+00  -1.38740753E+00  -3.94758567E+00  -3.69262348E+00  -1.62653772E+01   5.97724236E-03   3.43622529E-01  -2.61975967E-02  -5.84385994E-01   4.04330929E-10  -1.58486614E+00  -6.76136996E-01  -1.40742367E+00   1.39492346E+00  -2.37832656E+00  -6.57866751E+00   6.09449691E-01   2.43356667E-01