 TITLE = "Mineral Saturation State" 
VARIABLES = "X"          "Y"              "Z"            "Forsterite"     "Fayalite"       "Brucite"        "Lizardite"      "Chrysotile"     "Saponite(Mg)"   "Enstatite(alph" "Ferrosilite(al" "Anorthite"      "Albite(low)"    "Clinochlore"    "Sudoite"        "Montmorillonit" "Kaolinite"      "Tremolite"      "Pargasite"      "Anhydrite"      "Epidote"        "Scolecite"      "Pyrite"         "FeS(am)"        "Quartz(alpha)" 
 ZONE I=         100 , J=           1 , K=           1  F=POINT
   1.75000000E+01   5.00000000E-01   5.00000000E-01  -6.61213913E+00  -3.98834043E-01  -4.83158232E+00  -3.40844800E-01  -4.57313032E-01   2.96680058E+00  -2.00493051E+00   4.18359715E-02  -1.19357255E+01  -5.06090800E-01   2.19065115E-03  -8.02751647E+00  -1.69130132E+00  -5.40935024E+00  -5.73894990E-01  -3.16464231E+01  -9.50542031E-01  -3.51205538E-06  -6.13542863E+00  -3.17813714E+01  -3.49327029E+00   1.32046282E+00
   5.25000000E+01   5.00000000E-01   5.00000000E-01  -6.61815913E+00  -1.39420872E-01  -4.91625116E+00  -4.18763265E-01  -5.31205841E-01   3.15972063E+00  -1.94347948E+00   2.44977575E-01  -1.14114177E+01  -2.66125822E-02   2.10471575E-03  -7.41014956E+00  -9.72782497E-01  -4.88408688E+00  -1.74530151E-01  -3.08659622E+01  -9.00390700E-01   1.30014961E-06  -5.55813022E+00  -3.12968506E+01  -3.41757130E+00   1.46344151E+00
   8.75000000E+01   5.00000000E-01   5.00000000E-01  -6.55120148E+00  -5.21381009E-02  -4.91060041E+00  -4.38583500E-01  -5.47085732E-01   3.22481907E+00  -1.89925029E+00   3.08180230E-01  -1.11517650E+01   1.07564215E-01   2.02775355E-03  -7.20051967E+00  -7.50126150E-01  -4.70833631E+00  -8.79409446E-03  -3.03563431E+01  -8.51565929E-01   2.33133583E-07  -5.35191056E+00  -3.09539586E+01  -3.41391582E+00   1.49873250E+00
   1.22500000E+02   5.00000000E-01   5.00000000E-01  -6.47421429E+00  -2.28429380E-02  -4.88408119E+00  -4.56808160E-01  -5.61452632E-01   3.24018772E+00  -1.86573626E+00   3.26500941E-01  -1.09523950E+01   1.50107784E-01   1.99855576E-03  -7.07057167E+00  -6.55418816E-01  -4.61058288E+00   4.93176159E-02  -2.99285306E+01  -8.03375773E-01   4.37078625E-08  -5.23645245E+00  -3.06548160E+01  -3.43341958E+00   1.50230454E+00
   1.57500000E+02   5.00000000E-01   5.00000000E-01  -6.39644635E+00  -1.33115420E-02  -4.85211961E+00  -4.76564932E-01  -5.77431619E-01   3.23804165E+00  -1.83675694E+00   3.29861127E-01  -1.07719052E+01   1.64676556E-01   1.99142510E-03  -6.96153571E+00  -5.99662677E-01  -4.53515715E+00   6.68801118E-02  -2.95318427E+01  -7.55466547E-01  -7.38147149E-09  -5.14875970E+00  -3.03739229E+01  -3.46130130E+00   1.49577430E+00
   1.92500000E+02   5.00000000E-01   5.00000000E-01  -6.32662180E+00  -1.26044072E-02  -4.82346215E+00  -5.06610382E-01  -6.03776761E-01   3.22566886E+00  -1.81228735E+00   3.28122083E-01  -1.05832252E+01   1.82129379E-01   2.00402943E-03  -6.82953652E+00  -5.37607285E-01  -4.44693690E+00   5.41178388E-02  -2.91426304E+01  -7.07579730E-01   8.13584403E-09  -5.05300388E+00  -3.01005878E+01  -3.49295189E+00   1.48792271E+00
   2.27500000E+02   5.00000000E-01   5.00000000E-01  -6.30231428E+00  -2.76427680E-02  -4.82216349E+00  -5.98090617E-01  -6.91631772E-01   3.18041802E+00  -1.80584426E+00   3.23097522E-01  -1.02993588E+01   2.66542850E-01   2.08794361E-03  -6.51343374E+00  -3.65597973E-01  -4.23597852E+00  -7.09432641E-02  -2.87184624E+01  -6.59078932E-01   1.84422228E-07  -4.85166450E+00  -2.98183123E+01  -3.52824942E+00   1.48929637E+00
   2.62500000E+02   5.00000000E-01   5.00000000E-01  -6.29712578E+00  -4.20623475E-02  -4.83131839E+00  -7.15166987E-01  -8.05155710E-01   3.11810713E+00  -1.80793310E+00   3.19269278E-01  -9.98082027E+00   3.72795574E-01   2.16491320E-03  -6.12618874E+00  -1.56386666E-01  -3.97932591E+00  -2.50110007E-01  -2.82882471E+01  -6.10088385E-01   2.30712285E-07  -4.61268027E+00  -2.95335879E+01  -3.56210888E+00   1.49249275E+00
   2.97500000E+02   5.00000000E-01   5.00000000E-01  -6.23720946E+00  -2.86959633E-02  -4.80920305E+00  -7.51920453E-01  -8.38427339E-01   3.10523975E+00  -1.78642943E+00   3.25425935E-01  -9.78598284E+00   4.02921434E-01   2.14905243E-03  -5.97276886E+00  -7.63528562E-02  -3.87594114E+00  -2.70485063E-01  -2.79104513E+01  -5.61258593E-01   4.12638710E-08  -4.50403766E+00  -2.92703393E+01  -3.59070430E+00   1.48792004E+00
   3.32500000E+02   5.00000000E-01   5.00000000E-01  -6.16003191E+00  -1.71170046E-02  -4.77619292E+00  -7.62958297E-01  -8.46051834E-01   3.10486836E+00  -1.75842330E+00   3.28427846E-01  -9.63615020E+00   4.02897827E-01   2.13235365E-03  -5.89965363E+00  -4.61227290E-02  -3.82700290E+00  -2.48015235E-01  -2.75587544E+01  -5.12721962E-01  -2.04287078E-08  -4.44376907E+00  -2.90231725E+01  -3.62267741E+00   1.47887064E+00
   3.67500000E+02   5.00000000E-01   5.00000000E-01  -6.07983488E+00  -1.10878870E-02  -4.74063993E+00  -7.68460440E-01  -8.48207094E-01   3.10533715E+00  -1.72980376E+00   3.27629285E-01  -9.49992117E+00   3.93316934E-01   2.12548944E-03  -5.84721311E+00  -3.14224983E-02  -3.79307197E+00  -2.20933727E-01  -2.72201573E+01  -4.64500026E-01  -3.61595701E-08  -4.39802455E+00  -2.87865441E+01  -3.65813582E+00   1.46781389E+00
   4.02500000E+02   5.00000000E-01   5.00000000E-01  -5.99968198E+00  -8.22899416E-03  -4.70462179E+00  -7.72523434E-01  -8.48987730E-01   3.10522862E+00  -1.70155620E+00   3.24770006E-01  -9.36975150E+00   3.80087985E-01   2.12426446E-03  -5.80193622E+00  -2.29256867E-02  -3.76472993E+00  -1.94737057E-01  -2.68903099E+01  -4.16593713E-01  -3.97087457E-08  -4.35818168E+00  -2.85576376E+01  -3.69570172E+00   1.45584820E+00
   4.37500000E+02   5.00000000E-01   5.00000000E-01  -5.92045234E+00  -6.89719014E-03  -4.66880163E+00  -7.76288288E-01  -8.49532889E-01   3.10437739E+00  -1.67389637E+00   3.20898783E-01  -9.24318258E+00   3.65287606E-01   2.12576128E-03  -5.75969779E+00  -1.74431464E-02  -3.73899019E+00  -1.70313928E-01  -2.65674205E+01  -3.68998739E-01  -3.86316367E-08  -4.32134865E+00  -2.83350987E+01  -3.73453761E+00   1.44342654E+00
   4.72500000E+02   5.00000000E-01   5.00000000E-01  -5.84248881E+00  -6.28296666E-03  -4.63344420E+00  -7.80220677E-01  -8.50306452E-01   3.10272294E+00  -1.64690236E+00   3.16516972E-01  -9.11912787E+00   3.49787607E-01   2.12857399E-03  -5.71878091E+00  -1.36371220E-02  -3.71460072E+00  -1.47919859E-01  -2.62505786E+01  -3.21709303E-01  -3.51583544E-08  -4.28626641E+00  -2.81182482E+01  -3.77422823E+00   1.43074079E+00
   5.07500000E+02   5.00000000E-01   5.00000000E-01  -5.76594427E+00  -6.01057028E-03  -4.59866891E+00  -7.84550478E-01  -8.51536578E-01   3.10022581E+00  -1.62060779E+00   3.11858398E-01  -8.99700486E+00   3.34009224E-01   2.13207658E-03  -5.67833312E+00  -1.08562474E-02  -3.69093911E+00  -1.27637443E-01  -2.59392219E+01  -2.74719288E-01  -3.01730469E-08  -4.25228078E+00  -2.79067122E+01  -3.81457303E+00   1.41788157E+00
   5.42500000E+02   5.00000000E-01   5.00000000E-01  -5.69088208E+00  -5.90453265E-03  -4.56453091E+00  -7.89391715E-01  -8.53335637E-01   3.09687359E+00  -1.59502127E+00   3.07036916E-01  -8.87646518E+00   3.18181365E-01   2.13599552E-03  -5.63790353E+00  -8.74634639E-03  -3.66766912E+00  -1.09435611E-01  -2.56329443E+01  -2.28022694E-01  -2.41313425E-08  -4.21901092E+00  -2.77002575E+01  -3.85547210E+00   1.40489992E+00
   5.77500000E+02   5.00000000E-01   5.00000000E-01  -5.61731752E+00  -5.88088843E-03  -4.53105319E+00  -7.94793236E-01  -8.55750881E-01   3.09267837E+00  -1.57013558E+00   3.02112270E-01  -8.75728539E+00   3.02440885E-01   2.14020112E-03  -5.59725459E+00  -7.09835552E-03  -3.64460293E+00  -9.32042548E-02  -2.53314205E+01  -1.81613784E-01  -1.73280201E-08  -4.18621713E+00  -2.74987170E+01  -3.89687183E+00   1.39183023E+00
   6.12500000E+02   5.00000000E-01   5.00000000E-01  -5.54523928E+00  -5.89872440E-03  -4.49824156E+00  -8.00766899E-01  -8.58792641E-01   3.08766828E+00  -1.54593429E+00   2.97118509E-01  -8.63931352E+00   2.86875832E-01   2.14460484E-03  -5.55626752E+00  -5.78096464E-03  -3.62163462E+00  -7.87882670E-02  -2.50343741E+01  -1.35487073E-01  -9.98976279E-09  -4.15373911E+00  -2.73019547E+01  -3.93873934E+00   1.37869863E+00
   6.47500000E+02   5.00000000E-01   5.00000000E-01  -5.47462188E+00  -5.93828993E-03  -4.46609239E+00  -8.07304606E-01  -8.62451343E-01   3.08187933E+00  -1.52239638E+00   2.92076507E-01  -8.52243993E+00   2.71546062E-01   2.14911833E-03  -5.51488957E+00  -4.70748400E-03  -3.59870449E+00  -6.60144192E-02  -2.47415621E+01  -8.96372753E-02  -2.31140804E-09  -4.12146361E+00  -2.71098490E+01  -3.98105032E+00   1.36552609E+00
   6.82500000E+02   5.00000000E-01   5.00000000E-01  -5.40543284E+00  -5.99063136E-03  -4.43459681E+00  -8.14388446E-01  -8.66707655E-01   3.07534964E+00  -1.49949917E+00   2.86999811E-01  -8.40658069E+00   2.56493940E-01   2.15365778E-03  -5.47310388E+00  -3.81826415E-03  -3.57577893E+00  -5.47089653E-02  -2.44527665E+01  -4.40592185E-02   5.52954311E-09  -4.08930652E+00  -2.69222839E+01  -4.02378304E+00   1.35232980E+00
   7.17500000E+02   5.00000000E-01   5.00000000E-01  -5.33763674E+00  -6.05237232E-03  -4.40374313E+00  -8.21996487E-01  -8.71538279E-01   3.06811599E+00  -1.47721996E+00   2.81897603E-01  -8.29166792E+00   2.41750316E-01   2.15817223E-03  -5.43091225E+00  -3.07085616E-03  -3.55283913E+00  -4.47074556E-02  -2.41677895E+01   1.25222907E-03   1.33675010E-08  -4.05720250E+00  -2.67391444E+01  -4.06691543E+00   1.33912383E+00
   7.52500000E+02   5.00000000E-01   5.00000000E-01  -5.27119732E+00  -6.12288742E-03  -4.37351808E+00  -8.30105700E-01  -8.76918865E-01   3.06021243E+00  -1.45553689E+00   2.76776379E-01  -8.17764432E+00   2.27338057E-01   2.16263282E-03  -5.38832617E+00  -2.43437548E-03  -3.52987492E+00  -3.58585877E-02  -2.38864496E+01   4.63022158E-02   2.10478523E-08  -4.02509904E+00  -2.65603154E+01  -4.11042374E+00   1.32591969E+00
   7.87500000E+02   5.00000000E-01   5.00000000E-01  -5.20607857E+00  -6.20276352E-03  -4.34390763E+00  -8.38693428E-01  -8.82825488E-01   3.05166975E+00  -1.43442922E+00   2.71640941E-01  -8.06445991E+00   2.13274389E-01   2.16702465E-03  -5.34536179E+00  -1.88594356E-03  -3.50688123E+00  -2.80249936E-02  -2.36085792E+01   9.10959416E-02   2.84287313E-08  -3.99295270E+00  -2.63856802E+01  -4.15428207E+00   1.31272675E+00
   8.22500000E+02   5.00000000E-01   5.00000000E-01  -5.14224529E+00  -6.29291541E-03  -4.31489740E+00  -8.47738033E-01  -8.89235284E-01   3.04251563E+00  -1.41387743E+00   2.66495036E-01  -7.95206986E+00   1.99572550E-01   2.17134382E-03  -5.30203731E+00  -1.40834278E-03  -3.48385612E+00  -2.10822851E-02  -2.33340214E+01   1.35638671E-01   3.53836553E-08  -3.96072656E+00  -2.62151211E+01  -4.19846233E+00   1.29955264E+00
   8.57500000E+02   5.00000000E-01   5.00000000E-01  -5.07966333E+00  -6.39406489E-03  -4.28647295E+00  -8.57219142E-01  -8.96126695E-01   3.03277485E+00  -1.39386316E+00   2.61341774E-01  -7.84043298E+00   1.86242984E-01   2.17560033E-03  -5.25837153E+00  -9.88436714E-04  -3.46079958E+00  -1.49174270E-02  -2.30626286E+01   1.79935728E-01   4.18037926E-08  -3.92838848E+00  -2.60485196E+01  -4.24293454E+00   1.28640357E+00
   8.92500000E+02   5.00000000E-01   5.00000000E-01  -5.01829965E+00  -6.50642137E-03  -4.25861992E+00  -8.67117701E-01  -9.03479528E-01   3.02246966E+00  -1.37436917E+00   2.56183910E-01  -7.72951068E+00   1.73294237E-01   2.17981522E-03  -5.21438311E+00  -6.16088178E-04  -3.43771281E+00  -9.42688288E-03  -2.27942600E+01   2.23992476E-01   4.75999005E-08  -3.89590971E+00  -2.58857573E+01  -4.28766710E+00   1.27328456E+00
   9.27500000E+02   5.00000000E-01   5.00000000E-01  -4.95812247E+00  -6.62950437E-03  -4.23132415E+00  -8.77416069E-01  -9.11275039E-01   3.01161988E+00  -1.35537929E+00   2.51024015E-01  -7.61926587E+00   1.60733642E-01   2.18402155E-03  -5.17008996E+00  -2.83377541E-04  -3.41459773E+00  -4.51511632E-03  -2.25287799E+01   2.67814282E-01   5.27031245E-08  -3.86326374E+00  -2.57267163E+01  -4.33262721E+00   1.26019959E+00
   9.62500000E+02   5.00000000E-01   5.00000000E-01  -4.89910133E+00  -6.76203796E-03  -4.20457180E+00  -8.88098142E-01  -9.19496062E-01   3.00024298E+00  -1.33687843E+00   2.45864573E-01  -7.50966208E+00   1.48567850E-01   2.18826577E-03  -5.12550866E+00   1.59711769E-05  -3.39145646E+00  -9.34426613E-05  -2.22660559E+01   3.11406478E-01   5.70652049E-08  -3.83042528E+00  -2.55712800E+01  -4.37778120E+00   1.24715173E+00
   9.97500000E+02   5.00000000E-01   5.00000000E-01  -4.84120717E+00  -6.90188502E-03  -4.17834935E+00  -8.99149538E-01  -9.28127187E-01   2.98835392E+00  -1.31885264E+00   2.40708033E-01  -7.40066253E+00   1.36803249E-01   2.19260832E-03  -5.08065383E+00   2.87019355E-04  -3.36829096E+00   3.92082303E-03  -2.20059576E+01   3.54774308E-01   6.06573478E-08  -3.79736932E+00  -2.54193342E+01  -4.42309490E+00   1.23414314E+00
   1.03250000E+03   5.00000000E-01   5.00000000E-01  -4.78441260E+00  -7.04602966E-03  -4.15264371E+00  -9.10557897E-01  -9.37155058E-01   2.97596489E+00  -1.30128914E+00   2.35556809E-01  -7.29222914E+00   1.25446301E-01   2.19712218E-03  -5.03553740E+00   5.33957738E-04  -3.34510252E+00   7.60468810E-03  -2.17483548E+01   3.97922877E-01   6.34689101E-08  -3.76407018E+00  -2.52707671E+01  -4.46853386E+00   1.22117504E+00
   1.06750000E+03   5.00000000E-01   5.00000000E-01  -4.72869205E+00  -7.19059395E-03  -4.12744232E+00  -9.22313359E-01  -9.46568858E-01   2.96308474E+00  -1.28417660E+00   2.30413223E-01  -7.18432154E+00   1.14503801E-01   2.20191173E-03  -4.99016746E+00   7.60400018E-04  -3.32189115E+00   1.10291132E-02  -2.14931163E+01   4.40857095E-01   6.55053351E-08  -3.73050056E+00  -2.51254703E+01  -4.51406363E+00   1.20824765E+00
   1.10250000E+03   5.00000000E-01   5.00000000E-01  -4.67402274E+00  -7.33087101E-03  -4.10273331E+00  -9.34410126E-01  -9.56361860E-01   2.94971709E+00  -1.26750571E+00   2.25279278E-01  -7.07689498E+00   1.03982908E-01   2.20713934E-03  -4.94454505E+00   9.69666818E-04  -3.29865395E+00   1.42550465E-02  -2.12401090E+01   4.83581635E-01   6.67859558E-08  -3.69663001E+00  -2.49833387E+01  -4.55964972E+00   1.19535976E+00
   1.13750000E+03   5.00000000E-01   5.00000000E-01  -5.92984098E+00  -9.18227493E-01  -4.37956499E+00  -3.26469969E+00  -3.28438465E+00   6.76209682E-03  -2.25966613E+00  -5.88895142E-01  -5.05328753E+00  -3.63486784E-01  -1.26540009E-02  -3.97910277E-01   1.96426235E-02  -1.07761735E+00  -7.70897286E+00  -2.17226926E+01   5.25764893E-01   7.07748067E-07  -2.45314941E+00  -2.47622914E+01  -4.67816250E+00   4.75171248E-01
   1.17250000E+03   5.00000000E-01   5.00000000E-01  -5.50650313E+00  -3.51498716E-01  -4.26608549E+00  -2.62577319E+00  -2.64322752E+00   8.05670561E-01  -1.96286778E+00  -2.14949254E-01  -5.46442031E+00  -2.49885608E-01   2.69945963E-03  -1.61265036E+00  -2.44787097E-03  -1.67884239E+00  -5.51366833E+00  -2.12112880E+01   5.68126155E-01  -1.97887831E-08  -2.74505302E+00  -2.45083156E+01  -4.54702397E+00   6.53621471E-01
   1.20750000E+03   5.00000000E-01   5.00000000E-01  -5.27235791E+00  -1.01269649E-01  -4.20152032E+00  -2.31512836E+00  -2.33038735E+00   1.20147028E+00  -1.80623552E+00  -4.48945441E-02  -5.61259911E+00  -1.86770286E-01   2.55026633E-03  -2.19661974E+00   3.86177518E-05  -1.96196566E+00  -4.40054933E+00  -2.08292332E+01   6.10896116E-01   6.28000896E-09  -2.86455714E+00  -2.43339958E+01  -4.52301649E+00   7.40812107E-01
   1.24250000E+03   5.00000000E-01   5.00000000E-01  -5.10817731E+00   7.85312648E-03  -4.15303096E+00  -2.12717293E+00  -2.14027105E+00   1.44165642E+00  -1.70338157E+00   3.57410387E-02  -5.66564690E+00  -1.50957043E-01   2.44633353E-03  -2.54200304E+00   1.62737637E-03  -2.12912911E+00  -3.70844691E+00  -2.05019499E+01   6.53837822E-01   1.21597958E-08  -2.92594643E+00  -2.42004020E+01  -4.54840718E+00   7.90293400E-01
   1.27750000E+03   5.00000000E-01   5.00000000E-01  -4.97641366E+00   5.11058373E-02  -4.11208962E+00  -1.99536388E+00  -2.00633482E+00   1.61054923E+00  -1.62528773E+00   7.48214596E-02  -5.67563973E+00  -1.27513711E-01   2.41156152E-03  -2.77837286E+00   2.69211464E-03  -2.24338787E+00  -3.20889509E+00  -2.02010059E+01   6.96737616E-01   1.45615297E-08  -2.96081732E+00  -2.40873380E+01  -4.59692396E+00   8.22556637E-01
   1.31250000E+03   5.00000000E-01   5.00000000E-01  -4.86491900E+00   6.34229704E-02  -4.07610247E+00  -1.89802307E+00  -1.90689974E+00   1.73606941E+00  -1.56240157E+00   9.32938719E-02  -5.65763767E+00  -1.10138485E-01   2.42231617E-03  -2.94733199E+00   4.67260111E-03  -2.32464463E+00  -2.82362379E+00  -1.99129872E+01   7.39593457E-01   1.85379933E-08  -2.97728186E+00  -2.39838830E+01  -4.65505366E+00   8.44561235E-01
   1.34750000E+03   5.00000000E-01   5.00000000E-01  -4.76747666E+00   6.26395547E-02  -4.04349250E+00  -1.82431749E+00  -1.83113209E+00   1.83150689E+00  -1.51008510E+00   1.01606841E-01  -5.61956092E+00  -9.67394192E-02   2.48639540E-03  -3.07059502E+00   6.70922599E-03  -2.38379042E+00  -2.51437044E+00  -1.96313868E+01   7.82450236E-01   2.25985525E-08  -2.98020972E+00  -2.38844496E+01  -4.71567585E+00   8.59368914E-01
   1.38250000E+03   5.00000000E-01   5.00000000E-01  -5.52785726E+00  -5.03480592E-01  -4.20885035E+00  -3.26722052E+00  -3.27200451E+00   1.27699735E-02  -2.11752001E+00  -4.03652728E-01  -4.30712558E+00  -3.69619514E-01  -1.32516813E-03  -2.35454985E-01   3.16530651E-02  -9.97164342E-01  -7.22962127E+00  -1.97865584E+01   8.24079552E-01   1.36593719E-07  -2.16991831E+00  -2.37363282E+01  -4.81605875E+00   4.12389296E-01
   1.41750000E+03   5.00000000E-01   5.00000000E-01  -5.46375369E+00  -3.10823222E-01  -4.18011963E+00  -3.25419649E+00  -3.25698065E+00   2.06737904E-02  -2.09445726E+00  -3.11330887E-01  -4.19878311E+00  -3.71029575E-01   2.45027574E-03  -2.49950954E-01   1.44391194E-02  -1.01173407E+00  -7.08656999E+00  -1.94642740E+01   8.65959481E-01   2.43139815E-08  -2.12667648E+00  -2.35484817E+01  -4.76882979E+00   4.01815677E-01
   1.45250000E+03   5.00000000E-01   5.00000000E-01  -5.39356039E+00  -1.66014561E-01  -4.15361765E+00  -3.22573860E+00  -3.22655304E+00   5.66863478E-02  -2.06297563E+00  -2.37621038E-01  -4.09830117E+00  -3.54645304E-01   2.54040107E-03  -2.88741815E-01   1.67439785E-02  -1.03138098E+00  -6.87271590E+00  -1.91328980E+01   9.08099204E-01   1.66349139E-08  -2.08002327E+00  -2.33900474E+01  -4.75022687E+00   4.01887137E-01
   1.48750000E+03   5.00000000E-01   5.00000000E-01  -5.21465130E+00   3.23912947E-03  -4.10224504E+00  -3.00371525E+00  -3.00258940E+00   3.36888762E-01  -1.94755012E+00  -1.22163083E-01  -4.16560794E+00  -3.03550778E-01   2.94704026E-03  -7.05834873E-01   1.51991962E-02  -1.23598421E+00  -6.02530234E+00  -1.87586724E+01   9.50622353E-01   7.33079878E-09  -2.14147096E+00  -2.32607434E+01  -4.74950277E+00   4.61029814E-01
   1.52250000E+03   5.00000000E-01   5.00000000E-01  -5.09992641E+00   6.82794203E-02  -4.06669707E+00  -2.89325170E+00  -2.89021438E+00   4.78466701E-01  -1.88038710E+00  -7.50413865E-02  -4.14245799E+00  -2.71687987E-01   2.89794194E-03  -9.02620003E-01   1.99284417E-02  -1.33128824E+00  -5.55196055E+00  -1.84275997E+01   9.93244795E-01   6.55626640E-09  -2.14429476E+00  -2.31579820E+01  -4.78307625E+00   4.87733091E-01
   1.55750000E+03   5.00000000E-01   5.00000000E-01  -5.01592383E+00   9.03026289E-02  -4.03819043E+00  -2.83622753E+00  -2.83130694E+00   5.51944375E-01  -1.83680961E+00  -5.77106070E-02  -4.07490077E+00  -2.50288464E-01   2.93253978E-03  -9.95908270E-01   2.41900112E-02  -1.37652472E+00  -5.25530538E+00  -1.81127555E+01   1.03578521E+00   5.68713581E-09  -2.11865987E+00  -2.30669899E+01  -4.82913295E+00   4.97891033E-01
   1.59250000E+03   5.00000000E-01   5.00000000E-01  -4.95681446E+00   9.26701932E-02  -4.01557951E+00  -2.82214979E+00  -2.81537353E+00   5.71104628E-01  -1.81213583E+00  -5.67215833E-02  -3.96759130E+00  -2.34595570E-01   3.02336253E-03  -1.00547243E+00   2.97534152E-02  -1.38094753E+00  -5.09216523E+00  -1.78013242E+01   1.07808787E+00   4.94534582E-09  -2.06569432E+00  -2.29806139E+01  -4.87805186E+00   4.95040234E-01
   1.62750000E+03   5.00000000E-01   5.00000000E-01  -4.93246122E+00   8.20979954E-02  -4.00149564E+00  -2.86813207E+00  -2.85952716E+00   5.15337934E-01  -1.81359894E+00  -7.10169932E-02  -3.80166957E+00  -2.24344496E-01   3.17105262E-03  -8.96400715E-01   3.99205220E-02  -1.32676069E+00  -5.11042639E+00  -1.74882476E+01   1.11983910E+00   4.20678671E-09  -1.97114900E+00  -2.28939430E+01  -4.92424910E+00   4.74579178E-01
   1.66250000E+03   5.00000000E-01   5.00000000E-01  -4.95949488E+00   6.10337329E-02  -4.00042283E+00  -3.00297053E+00  -2.99256344E+00   3.50090228E-01  -1.85334730E+00  -1.03204877E-01  -3.54663008E+00  -2.19440356E-01   3.37735301E-03  -6.09771882E-01   6.03568682E-02  -1.18384238E+00  -5.39309823E+00  -1.71681453E+01   1.15998595E+00   3.30445703E-09  -1.81219167E+00  -2.28026601E+01  -4.96271918E+00   4.28843819E-01
   1.69750000E+03   5.00000000E-01   5.00000000E-01  -5.00051826E+00   5.84488797E-02  -4.00343999E+00  -3.16081011E+00  -3.14862675E+00   1.57619973E-01  -1.90290641E+00  -1.29022523E-01  -3.25675209E+00  -2.07162833E-01   3.50547454E-03  -2.75837251E-01   8.84672639E-02  -1.01645356E+00  -5.71922543E+00  -1.68173602E+01   1.19442531E+00   2.04641703E-09  -1.62355689E+00  -2.27099611E+01  -4.98936965E+00   3.77387846E-01
   1.73250000E+03   5.00000000E-01   5.00000000E-01  -5.00747757E+00   8.98758264E-02  -4.00237574E+00  -3.25373236E+00  -3.23979810E+00   5.67476725E-02  -1.92239542E+00  -1.24848757E-01  -3.00349045E+00  -1.57096027E-01   3.47462963E-03  -5.52080604E-02   1.42084525E-01  -8.97207714E-01  -5.79199805E+00  -1.64113807E+01   1.20710028E+00   1.01098239E-09  -1.44499865E+00  -2.26330428E+01  -5.01269694E+00   3.51920968E-01
   1.76750000E+03   5.00000000E-01   5.00000000E-01  -4.98103268E+00   1.31977079E-01  -4.00508635E+00  -3.27521809E+00  -3.25955780E+00   7.66605880E-02  -1.90461951E+00  -9.48265613E-02  -2.78360023E+00  -3.11612835E-02   3.34813784E-03   6.99874550E-02   2.72524687E-01  -8.01778682E-01  -5.57249017E+00  -1.59463416E+01   1.15507504E+00   4.46100966E-10  -1.25822934E+00  -2.26014644E+01  -5.05165644E+00   3.67494472E-01
   1.80250000E+03   5.00000000E-01   5.00000000E-01  -4.94969501E+00   1.58101151E-01  -4.01695555E+00  -3.27692332E+00  -3.25956137E+00   1.48981556E-01  -1.87270788E+00  -6.11542025E-02  -2.55604375E+00   1.57126144E-01   3.23768464E-03   1.96326104E-01   4.73478057E-01  -6.85358802E-01  -5.23716228E+00  -1.54377737E+01   1.00471539E+00   1.96329355E-10  -1.03996502E+00  -2.26345188E+01  -5.11066620E+00   4.06363079E-01
   1.83750000E+03   5.00000000E-01   5.00000000E-01  -4.92065739E+00   1.67538498E-01  -4.01574601E+00  -3.29548753E+00  -3.27644780E+00   1.62558065E-01  -1.85609220E+00  -5.00207641E-02  -2.32578894E+00   2.90287623E-01   3.27046625E-03   3.01216365E-01   5.87615102E-01  -6.07307700E-01  -4.97943360E+00  -1.49164547E+01   7.94389438E-01   8.45337160E-11  -8.46850762E-01  -2.27172158E+01  -5.16571407E+00   4.16857941E-01
   1.87250000E+03   5.00000000E-01   5.00000000E-01  -4.91999088E+00   1.65149700E-01  -4.01331517E+00  -3.37121152E+00  -3.35051740E+00   8.24348118E-02  -1.86898760E+00  -6.01746178E-02  -1.99588691E+00   4.03239133E-01   3.37459010E-03   4.86491519E-01   6.59520375E-01  -5.06022403E-01  -4.80679728E+00  -1.42649641E+01   5.82335725E-01   3.31296625E-11  -5.84303325E-01  -2.28369105E+01  -5.21471544E+00   3.96621519E-01
   1.90750000E+03   5.00000000E-01   5.00000000E-01  -5.04341559E+00   1.40146795E-01  -4.04481468E+00  -3.66039960E+00  -3.63807405E+00  -2.53006858E-01  -1.97196400E+00  -1.09718728E-01  -1.35130370E+00   5.52867393E-01   3.59536379E-03   1.10975359E+00   7.87215563E-01  -1.80251898E-01  -5.07082751E+00  -1.33636258E+01   4.01730210E-01   7.19311134E-12  -6.27148555E-02  -2.29808415E+01  -5.25324288E+00   3.20235633E-01
   1.94250000E+03   5.00000000E-01   5.00000000E-01  -4.92370034E+00   1.45419818E-01  -3.95229211E+00  -3.58655721E+00  -3.56262272E+00  -3.15712887E-01  -1.95574413E+00  -1.46545510E-01  -9.65902780E-01   5.58669640E-01   3.56705920E-03   7.52719209E-01   4.92893128E-01  -4.71420630E-01  -4.03607614E+00  -1.20161133E+01   2.64733283E-01   4.84478112E-13   1.95368307E-01  -2.33312627E+01  -5.31747137E+00   2.39025217E-01
   1.97750000E+03   5.00000000E-01   5.00000000E-01  -4.51861037E+00   5.87694496E-02  -3.72672444E+00  -3.07425285E+00  -3.04873147E+00  -8.53673967E-03  -1.78711768E+00  -2.19660839E-01  -7.05916536E-01   5.38908860E-01   3.46399694E-03  -7.28967938E-01  -1.85624600E-01  -1.44862907E+00  -1.05822749E+00  -9.70725124E+00   1.70325023E-01   7.71461963E-15   3.47893535E-01  -2.42546152E+01  -5.60817567E+00   1.77177639E-01
   2.01250000E+03   5.00000000E-01   5.00000000E-01  -4.34067413E+00   3.62140187E-03  -3.59695325E+00  -2.91971648E+00  -2.89262985E+00  -3.52363019E-02  -1.74977293E+00  -2.94775089E-01  -4.07456810E-01   4.69251605E-01   2.86243219E-03  -1.34084263E+00  -6.34348091E-01  -1.91321955E+00   2.10164695E-01  -8.30246998E+00   1.09284691E-01   3.08584785E-15   5.03894862E-01  -2.48617887E+01  -5.84483729E+00   7.98462492E-02
   2.04750000E+03   5.00000000E-01   5.00000000E-01  -4.26353845E+00   5.22822324E-04  -3.51056807E+00  -2.92266656E+00  -2.89403589E+00  -2.06292637E-01  -1.76976858E+00  -3.50849157E-01  -2.29452464E-01   3.13734890E-01   2.41290367E-03  -1.56544109E+00  -9.98661798E-01  -2.14809860E+00   4.51322348E-01  -7.64151358E+00   7.24066193E-02   9.25754355E-15   5.25966984E-01  -2.51041352E+01  -5.95083347E+00  -3.14380783E-02
   2.08250000E+03   5.00000000E-01   5.00000000E-01  -4.18946533E+00   2.10637016E-04  -3.43354325E+00  -2.92166672E+00  -2.89151285E+00  -3.49240256E-01  -1.78339368E+00  -3.97671836E-01  -1.50801353E-01   1.41448198E-01   2.25164263E-03  -1.76371417E+00  -1.32599879E+00  -2.35291821E+00   5.14332720E-01  -7.24765075E+00   5.14266897E-02   0.00000000E+00   4.64890183E-01  -2.52140516E+01  -6.01792952E+00  -1.26990034E-01
   2.11750000E+03   5.00000000E-01   5.00000000E-01  -4.11613976E+00   1.29126075E-04  -3.36556365E+00  -2.91241572E+00  -2.88075906E+00  -4.58085088E-01  -1.78864968E+00  -4.35679188E-01  -1.11399993E-01  -1.45954082E-02   2.17822851E-03  -1.94359704E+00  -1.60449942E+00  -2.53111316E+00   5.41284221E-01  -6.96128520E+00   3.98271541E-02  -3.08584785E-15   3.82444331E-01  -2.52588262E+01  -6.06835972E+00  -2.05126201E-01
   2.15250000E+03   5.00000000E-01   5.00000000E-01  -4.04496051E+00   9.67887036E-05  -3.30544186E+00  -2.89891189E+00  -2.86577248E+00  -5.41978606E-01  -1.78812414E+00  -4.66849362E-01  -8.90060475E-02  -1.51021923E-01   2.13588149E-03  -2.10334176E+00  -1.84032727E+00  -2.68487829E+00   5.56758374E-01  -6.73139105E+00   3.34437943E-02  -4.62877178E-15   2.97089918E-01  -2.52637597E+01  -6.10888004E+00  -2.69621542E-01
   2.18750000E+03   5.00000000E-01   5.00000000E-01  -3.97620717E+00   8.12734516E-05  -3.25154667E+00  -2.88335858E+00  -2.84875610E+00  -6.08305786E-01  -1.78372913E+00  -4.92970097E-01  -7.50496332E-02  -2.70741418E-01   2.10878085E-03  -2.24536466E+00  -2.04283781E+00  -2.81881871E+00   5.66885318E-01  -6.53615429E+00   2.98803132E-02   6.17169570E-15   2.13846782E-01  -2.52423099E+01  -6.14270813E+00  -3.24019350E-01
   2.22250000E+03   5.00000000E-01   5.00000000E-01  -3.90969333E+00   7.30114425E-05  -3.20246644E+00  -2.86680743E+00  -2.83076120E+00  -6.62108299E-01  -1.77669124E+00  -5.15365236E-01  -6.57310690E-02  -3.77194862E-01   2.09058486E-03  -2.37302284E+00  -2.22000630E+00  -2.93733804E+00   5.73995043E-01  -6.36400672E+00   2.78255392E-02   6.94315766E-15   1.33869711E-01  -2.52027853E+01  -6.17179425E+00  -3.70957901E-01
   2.25750000E+03   5.00000000E-01   5.00000000E-01  -3.84512857E+00   6.83190169E-05  -3.15711196E+00  -2.84977919E+00  -2.81230815E+00  -7.06815752E-01  -1.76781046E+00  -5.34981154E-01  -5.91713972E-02  -4.73261326E-01   2.07803153E-03  -2.48933542E+00  -2.37791167E+00  -3.04397402E+00   5.79225082E-01  -6.20806642E+00   2.65811605E-02   1.62007012E-14   5.71419542E-02  -2.51506205E+01  -6.19742930E+00  -4.12326417E-01
   2.29250000E+03   5.00000000E-01   5.00000000E-01  -3.78223765E+00   6.55496077E-05  -3.11467095E+00  -2.83254788E+00  -2.79367066E+00  -7.44803359E-01  -1.75762516E+00  -5.52493953E-01  -5.43603124E-02  -5.61163169E-01   2.06920440E-03  -2.59672025E+00  -2.52105103E+00  -3.14141781E+00   5.83206945E-01  -6.06394754E+00   2.57806754E-02   2.31438589E-15  -1.66832505E-02  -2.50894919E+01  -6.22050342E+00  -4.49475607E-01
   2.32750000E+03   5.00000000E-01   5.00000000E-01  -3.72079070E+00   6.38885209E-05  -3.07454242E+00  -2.81526662E+00  -2.77500149E+00  -7.77747691E-01  -1.74650765E+00  -5.68390647E-01  -5.07160471E-02  -6.42573869E-01   2.06292482E-03  -2.69703590E+00  -2.65273178E+00  -3.23168106E+00   5.86318817E-01  -5.92871987E+00   2.52290877E-02  -7.71461963E-16  -8.80037325E-02  -2.50219526E+01  -6.24164669E+00  -4.83378833E-01
   2.36250000E+03   5.00000000E-01   5.00000000E-01  -3.66060426E+00   6.29003423E-05  -3.03628087E+00  -2.79802559E+00  -2.75639051E+00  -8.06852476E-01  -1.73472121E+00  -5.83025796E-01  -4.78841099E-02  -7.18746278E-01   2.05846565E-03  -2.79169072E+00  -2.77539368E+00  -3.31626271E+00   5.88798515E-01  -5.80035714E+00   2.48192185E-02  -8.48608159E-15  -1.57179941E-01  -2.49498138E+01  -6.26131400E+00  -5.14744922E-01
   2.39750000E+03   5.00000000E-01   5.00000000E-01  -3.60153423E+00   6.23375558E-05  -2.99955414E+00  -2.78088016E+00  -2.73789276E+00  -8.32994105E-01  -1.72245509E+00  -5.96660199E-01  -4.56381770E-02  -7.90619558E-01   2.05536992E-03  -2.88174846E+00  -2.89084710E+00  -3.39628252E+00   5.90801725E-01  -5.67742089E+00   2.44969728E-02   4.62877178E-15  -2.24513038E-01  -2.48743783E+01  -6.27983904E+00  -5.44095364E-01