 TITLE = "Mineral Saturation State" 
VARIABLES = "X"          "Y"              "Z"            "Forsterite"     "Fayalite"       "Brucite"        "Lizardite"      "Chrysotile"     "Hematite"       "Magnetite(am)"  "Saponite(Ca)"   "Saponite(K)"    "Saponite(Mg)"   "Saponite(Na)"   "Beidellite(Ca)" "Beidellite(K)"  "Beidellite(Mg)" "Beidellite(Na)" "Enstatite(alph" "Ferrosilite(al" "Anorthite"      "Albite(low)"    "Clinochlore"    "Sudoite"        "Montmor(MgCa)"  "Montmor(MgK)"   "Montmor(MgMg)"  "Montmor(MgNa)"  "Kaolinite"      "Tremolite"      "Pargasite"      "Anhydrite"      "Epidote"        "Scolecite"      "Pyrite"         "FeS(am)"        "Quartz(alpha)" 
 ZONE I=         200 , J=           1 , K=           1  F=POINT
   8.75000000E+00   5.00000000E-01   5.00000000E-01  -7.07101026E+00  -2.97982062E+00  -4.75262748E+00  -1.29951343E+00  -1.41700173E+00   9.93069840E-03  -5.37482027E+00   6.09682405E-01   2.43736022E+00   1.27063735E+00   2.31608474E+00  -6.39518357E+00  -5.24720341E+00  -5.73422591E+00  -5.30728181E+00  -2.53843875E+00  -1.55499956E+00  -1.15623392E+01  -1.51635326E+00   1.90239690E-01  -6.54155643E+00  -4.03693067E+00  -2.64803710E+00  -3.40950252E+00  -2.79712311E+00  -5.06651929E+00  -4.93077443E+00  -3.25418511E+01  -9.80303267E-01  -1.03469370E+01  -6.35104709E+00  -3.29753038E+01  -4.53418666E+00   7.08760817E-01
   2.62500000E+01   5.00000000E-01   5.00000000E-01  -7.66939430E+00  -2.96472359E+00  -5.13305915E+00  -2.19174920E+00  -2.30720286E+00   9.93069839E-03  -5.42299353E+00   1.76133888E-01   1.97628306E+00   8.36526520E-01   1.86426192E+00  -4.05072397E+00  -2.92293372E+00  -3.39033422E+00  -2.97386097E+00  -2.76501934E+00  -1.47031098E+00  -1.00387512E+01  -4.80869814E-01   1.88316007E-01  -3.77223120E+00  -2.31403843E+00  -9.46615548E-01  -1.68698791E+00  -1.08607915E+00  -3.19467501E+00  -6.47217333E+00  -3.17139512E+01  -9.62441182E-01  -9.08963749E+00  -4.72045413E+00  -3.24707413E+01  -4.46867515E+00   8.61079871E-01
   4.37500000E+01   5.00000000E-01   5.00000000E-01  -7.83343986E+00  -2.81174787E+00  -5.26691771E+00  -2.46125447E+00  -2.57469536E+00   9.93069838E-03  -5.37303344E+00   1.29703082E-01   1.90605011E+00   7.89582146E-01   1.80317777E+00  -3.11803206E+00  -2.01020737E+00  -2.45816106E+00  -2.05208860E+00  -2.80380530E+00  -1.34609940E+00  -9.44501374E+00  -2.76186013E-02   1.85866077E-01  -2.80221048E+00  -1.57913062E+00  -2.32940811E-01  -9.52411241E-01  -3.62891854E-01  -2.49884518E+00  -6.75723754E+00  -3.12243233E+01  -9.44363913E-01  -8.57426087E+00  -4.07820845E+00  -3.21539408E+01  -4.41245272E+00   9.54581694E-01
   6.12500000E+01   5.00000000E-01   5.00000000E-01  -7.87682175E+00  -2.65122463E+00  -5.32047187E+00  -2.56911758E+00  -2.68056718E+00   9.93069837E-03  -5.29953447E+00   1.44089351E-01   1.89748291E+00   8.03489502E-01   1.80367280E+00  -2.64971321E+00  -1.56165286E+00  -1.99032592E+00  -1.59457369E+00  -2.80220223E+00  -1.23809792E+00  -9.13470886E+00   2.04328331E-01   1.82990699E-01  -2.35770077E+00  -1.19838892E+00   1.26782084E-01  -5.71968234E-01   6.25332848E-03  -2.16642514E+00  -6.79879382E+00  -3.08780218E+01  -9.26070855E-01  -8.30171801E+00  -3.75903055E+00  -3.19037805E+01  -4.36504927E+00   1.00813088E+00
   7.87500000E+01   5.00000000E-01   5.00000000E-01  -7.88392115E+00  -2.51404848E+00  -5.34315695E+00  -2.63467279E+00  -2.74415226E+00   9.93069836E-03  -5.22518626E+00   1.50460030E-01   1.88110962E+00   8.09407248E-01   1.79627832E+00  -2.36130570E+00  -1.29281425E+00  -1.70237576E+00  -1.31685709E+00  -2.79515546E+00  -1.15450800E+00  -8.92326379E+00   3.36233164E-01   1.80938177E-01  -2.08416192E+00  -9.68925293E-01   3.35435222E-01  -3.42779465E-01   2.24241752E-01  -1.96345703E+00  -6.82688349E+00  -3.06018503E+01  -9.07568002E-01  -8.12233636E+00  -3.56385920E+00  -3.16873360E+01  -4.32855455E+00   1.03621884E+00
   9.62500000E+01   5.00000000E-01   5.00000000E-01  -7.86984804E+00  -2.39288154E+00  -5.34783531E+00  -2.67528492E+00  -2.78281507E+00   9.93069835E-03  -5.15162486E+00   1.52498557E-01   1.86062217E+00   8.11013706E-01   1.78468073E+00  -2.17752176E+00  -1.12839995E+00  -1.51902794E+00  -1.14365293E+00  -2.78491217E+00  -1.08635227E+00  -8.76927415E+00   4.10025979E-01   1.80226940E-01  -1.90947357E+00  -8.27438202E-01   4.56323749E-01  -2.01548478E-01   3.54372906E-01  -1.83570350E+00  -6.84657736E+00  -3.03661431E+01  -8.88864398E-01  -7.99693450E+00  -3.44067647E+00  -3.14918459E+01  -4.29929656E+00   1.04946211E+00
   1.13750000E+02   5.00000000E-01   5.00000000E-01  -7.84031213E+00  -2.28160536E+00  -5.34078137E+00  -2.69610608E+00  -2.80170739E+00   9.93069834E-03  -5.07920827E+00   1.57148686E-01   1.84301479E+00   8.15248220E-01   1.77586813E+00  -2.06195547E+00  -1.03199943E+00  -1.40388098E+00  -1.03855703E+00  -2.77090722E+00  -1.02715091E+00  -8.65468112E+00   4.48413364E-01   1.80610382E-01  -1.80442255E+00  -7.40943205E-01   5.22436548E-01  -1.15295200E-01   4.29629379E-01  -1.75885665E+00  -6.84704341E+00  -3.01546442E+01  -8.69969788E-01  -7.90686823E+00  -3.36458556E+00  -3.13107403E+01  -4.27510989E+00   1.05470158E+00
   1.31250000E+02   5.00000000E-01   5.00000000E-01  -7.80012873E+00  -2.17798021E+00  -5.32640932E+00  -2.70235971E+00  -2.80605234E+00   9.93069834E-03  -5.00882082E+00   1.66712131E-01   1.83060582E+00   8.24408794E-01   1.77215473E+00  -1.98957066E+00  -9.78574027E-01  -1.33190245E+00  -9.76535035E-01  -2.75354133E+00  -9.73776549E-01  -8.56636870E+00   4.65977854E-01   1.81518609E-01  -1.74684658E+00  -6.87764161E-01   5.55452064E-01  -6.23471489E-02   4.71685380E-01  -1.71540757E+00  -6.82704491E+00  -2.99576929E+01  -8.50893957E-01  -7.83940610E+00  -3.31845865E+00  -3.11401559E+01  -4.25518978E+00   1.05595196E+00
   1.48750000E+02   5.00000000E-01   5.00000000E-01  -7.75298426E+00  -2.08117153E+00  -5.30766351E+00  -2.69848126E+00  -2.80028504E+00   9.93069833E-03  -4.94114408E+00   1.81214753E-01   1.82341924E+00   8.38518471E-01   1.77356235E+00  -1.94382241E+00  -9.51578494E-01  -1.28655024E+00  -9.41043958E-01  -2.73355624E+00  -9.24709848E-01  -8.49518355E+00   4.71698564E-01   1.82493129E-01  -1.72068731E+00  -6.54218180E-01   5.69053328E-01  -2.90242165E-02   4.94221741E-01  -1.69327470E+00  -6.78955306E+00  -2.97696614E+01  -8.31646615E-01  -7.78612542E+00  -3.29094142E+00  -3.09776679E+01  -4.23913467E+00   1.05541711E+00
   1.66250000E+02   5.00000000E-01   5.00000000E-01  -7.70165754E+00  -1.99089851E+00  -5.28648252E+00  -2.68809662E+00  -2.78803106E+00   9.93069833E-03  -4.87658453E+00   1.99577310E-01   1.82036376E+00   8.56495923E-01   1.77899902E+00  -1.91377355E+00  -9.40076955E-01  -1.25688929E+00  -9.21148636E-01  -2.71179183E+00  -8.79260329E-01  -8.43466383E+00   4.71000633E-01   1.83307791E-01  -1.71415666E+00  -6.31758581E-01   5.71785545E-01  -6.78176482E-03   5.05783011E-01  -1.68406951E+00  -6.73933851E+00  -2.95872469E+01  -8.12237356E-01  -7.74139741E+00  -3.27447501E+00  -3.08216719E+01  -4.22666394E+00   1.05419689E+00
   1.83750000E+02   5.00000000E-01   5.00000000E-01  -7.64822648E+00  -1.90707729E+00  -5.26413815E+00  -2.67409658E+00  -2.77218091E+00   9.93069832E-03  -4.81533084E+00   2.20304721E-01   1.81992783E+00   8.76844507E-01   1.78695356E+00  -1.89215933E+00  -9.36807038E-01  -1.23565644E+00  -9.09586386E-01  -2.68905393E+00  -8.37152378E-01  -8.38020540E+00   4.67114723E-01   1.83916654E-01  -1.71854283E+00  -6.15072512E-01   5.68959034E-01   9.69153476E-03   5.11679877E-01  -1.68192496E+00  -6.68157202E+00  -2.94085004E+01  -7.92675638E-01  -7.70141988E+00  -3.26399101E+00  -3.06710596E+01  -4.21753364E+00   1.05275842E+00
   2.01250000E+02   5.00000000E-01   5.00000000E-01  -7.59372936E+00  -1.82917473E+00  -5.24125002E+00  -2.65794478E+00  -2.75419790E+00   9.93069832E-03  -4.75721471E+00   2.42591854E-01   1.82129560E+00   8.98757925E-01   1.79661085E+00  -1.87538367E+00  -9.38175432E-01  -1.21925678E+00  -9.02763145E-01  -2.66576091E+00  -7.98018123E-01  -8.32948564E+00   4.61601270E-01   1.84338889E-01  -1.72942748E+00  -6.01567402E-01   5.63163415E-01   2.29871259E-02   5.14502769E-01  -1.68390538E+00  -6.61898143E+00  -2.92324308E+01  -7.72970786E-01  -7.66428694E+00  -3.25696721E+00  -3.05250403E+01  -4.21137589E+00   1.05130403E+00
   2.18750000E+02   5.00000000E-01   5.00000000E-01  -7.53860794E+00  -1.75645321E+00  -5.21808467E+00  -2.64026477E+00  -2.73470532E+00   9.93069831E-03  -4.70191078E+00   2.66108807E-01   1.82413054E+00   9.21905339E-01   1.80763536E+00  -1.86186199E+00  -9.42600513E-01  -1.20610668E+00  -8.99096315E-01  -2.64208775E+00  -7.61442333E-01  -8.28147667E+00   4.55153960E-01   1.84603344E-01  -1.74486925E+00  -5.90094199E-01   5.55544619E-01   3.42531601E-02   5.15398649E-01  -1.68872174E+00  -6.55270280E+00  -2.90585539E+01  -7.53131946E-01  -7.62914534E+00  -3.25228594E+00  -3.03830268E+01  -4.20778855E+00   1.04992634E+00
   2.36250000E+02   5.00000000E-01   5.00000000E-01  -7.48339153E+00  -1.68852516E+00  -5.19490363E+00  -2.62186020E+00  -2.71450651E+00   9.93069831E-03  -4.64921996E+00   2.90232449E-01   1.82780031E+00   9.45662771E-01   1.81939596E+00  -1.85003567E+00  -9.48526820E-01  -1.19464838E+00  -8.97029207E-01  -2.61830201E+00  -7.27233608E-01  -8.23505894E+00   4.48317238E-01   1.84753792E-01  -1.76264456E+00  -5.79657319E-01   5.47094905E-01   4.44844131E-02   5.15361058E-01  -1.69499779E+00  -6.48461878E+00  -2.88865161E+01  -7.33168021E-01  -7.59514314E+00  -3.24883536E+00  -3.02445685E+01  -4.20650094E+00   1.04862031E+00
   2.53750000E+02   5.00000000E-01   5.00000000E-01  -7.42819561E+00  -1.62478788E+00  -5.17176124E+00  -2.60291408E+00  -2.69378421E+00   9.93069830E-03  -4.59883536E+00   3.14816741E-01   1.83215385E+00   9.69883467E-01   1.83174288E+00  -1.83953656E+00  -9.55589367E-01  -1.18451447E+00  -8.96195549E-01  -2.59446462E+00  -6.95093283E-01  -8.18995328E+00   4.41214326E-01   1.84823006E-01  -1.78220830E+00  -5.70025853E-01   5.38041859E-01   5.39111113E-02   5.14618925E-01  -1.70240416E+00  -6.41516734E+00  -2.87161907E+01  -7.13087690E-01  -7.56206283E+00  -3.24634464E+00  -3.01093124E+01  -4.20720272E+00   1.04738036E+00
   2.71250000E+02   5.00000000E-01   5.00000000E-01  -7.37309057E+00  -1.56473472E+00  -5.14868610E+00  -2.58354498E+00  -2.67265670E+00   9.93069829E-03  -4.55049492E+00   3.39753256E-01   1.83707810E+00   9.94458340E-01   1.84456442E+00  -1.83015708E+00  -9.63583755E-01  -1.17549803E+00  -8.96389567E-01  -2.57061721E+00  -6.64773965E-01  -8.14598870E+00   4.33901533E-01   1.84832760E-01  -1.80322451E+00  -5.61081857E-01   5.28500087E-01   6.26505759E-02   5.13288281E-01  -1.71074517E+00  -6.34465825E+00  -2.85475041E+01  -6.92899375E-01  -7.52977604E+00  -3.24465757E+00  -2.99769757E+01  -4.20963640E+00   1.04619438E+00
   2.88750000E+02   5.00000000E-01   5.00000000E-01  -7.31817498E+00  -1.50799283E+00  -5.12571679E+00  -2.56391771E+00  -2.65128856E+00   9.93069828E-03  -4.50399944E+00   3.64883693E-01   1.84240976E+00   1.01922847E+00   1.85769874E+00  -1.82164092E+00  -9.72256891E-01  -1.16734338E+00  -8.97356714E-01  -2.54681960E+00  -6.36099291E-01  -8.10295211E+00   4.26439958E-01   1.84799293E-01  -1.82526411E+00  -5.52688235E-01   5.18603320E-01   7.08393163E-02   5.11504366E-01  -1.71977280E+00  -6.27353714E+00  -2.83803940E+01  -6.72611232E-01  -7.49813064E+00  -3.24358404E+00  -2.98473282E+01  -4.21360399E+00   1.04504205E+00
   3.06250000E+02   5.00000000E-01   5.00000000E-01  -7.26357011E+00  -1.45429354E+00  -5.10290015E+00  -2.54423419E+00  -2.62988140E+00   9.93069827E-03  -4.45919869E+00   3.90010463E-01   1.84794592E+00   1.04399570E+00   1.87094443E+00  -1.81369070E+00  -9.81314597E-01  -1.15975374E+00  -8.98801289E-01  -2.52314609E+00  -6.08948108E-01  -8.06059545E+00   4.18895778E-01   1.84735215E-01  -1.84782124E+00  -5.44690734E-01   5.08502444E-01   7.86310416E-02   5.09419640E-01  -1.72919566E+00  -6.20235739E+00  -2.82148059E+01  -6.52231142E-01  -7.46695417E+00  -3.24290522E+00  -2.97201810E+01  -4.21895397E+00   1.04389677E+00
   3.23750000E+02   5.00000000E-01   5.00000000E-01  -7.20940146E+00  -1.40343638E+00  -5.08028362E+00  -2.52470408E+00  -2.60864464E+00   9.93069826E-03  -4.41597509E+00   4.14924665E-01   1.85347231E+00   1.06855058E+00   1.88408878E+00  -1.80600934E+00  -9.90463013E-01  -1.15243256E+00  -9.00427859E-01  -2.49967463E+00  -5.83234911E-01  -8.01866826E+00   4.11330435E-01   1.84650571E-01  -1.87038154E+00  -5.36939825E-01   4.98343628E-01   8.61747770E-02   5.07181897E-01  -1.73871913E+00  -6.13170121E+00  -2.80506938E+01  -6.31766708E-01  -7.43607558E+00  -3.24240290E+00  -2.95953773E+01  -4.22556739E+00   1.04272890E+00
   3.41250000E+02   5.00000000E-01   5.00000000E-01  -7.15577911E+00  -1.35525651E+00  -5.05790728E+00  -2.50551350E+00  -2.58776416E+00   9.93069825E-03  -4.37422922E+00   4.39436353E-01   1.85879382E+00   1.09270267E+00   1.89693826E+00  -1.79834415E+00  -9.99452629E-01  -1.14512767E+00  -9.01985308E-01  -2.47647511E+00  -5.58891686E-01  -7.97695262E+00   4.03790486E-01   1.84553635E-01  -1.89249572E+00  -5.29313693E-01   4.88245351E-01   9.35918719E-02   5.04911270E-01  -1.74808831E+00  -6.06209412E+00  -2.78880215E+01  -6.11225246E-01  -7.40534844E+00  -3.24189075E+00  -2.94727860E+01  -4.23334574E+00   1.04150941E+00
   3.58750000E+02   5.00000000E-01   5.00000000E-01  -7.10276907E+00  -1.30958651E+00  -5.03579190E+00  -2.48677967E+00  -2.56735692E+00   9.93069823E-03  -4.33386314E+00   4.63417348E-01   1.86377766E+00   1.11632335E+00   1.90936170E+00  -1.79055315E+00  -1.00814462E+00  -1.13769754E+00  -9.03333198E-01  -2.45359272E+00  -5.35846430E-01  -7.93531509E+00   3.96291236E-01   1.84451285E-01  -1.91388833E+00  -5.21753920E-01   4.78262740E-01   1.00940324E-01   5.02664553E-01  -1.75715190E+00  -5.99388332E+00  -2.77267672E+01  -5.90613777E-01  -7.37468630E+00  -3.24126151E+00  -2.93522951E+01  -4.24219756E+00   1.04021469E+00
   3.76250000E+02   5.00000000E-01   5.00000000E-01  -7.05039912E+00  -1.26625444E+00  -5.01394253E+00  -2.46855898E+00  -2.54747907E+00   9.93069822E-03  -4.29478006E+00   4.86797157E-01   1.86834932E+00   1.13934171E+00   1.92128618E+00  -1.78258470E+00  -1.01649046E+00  -1.13009097E+00  -9.04421376E-01  -2.43105009E+00  -5.14021508E-01  -7.89369385E+00   3.88825821E-01   1.84349087E-01  -1.93443320E+00  -5.14250561E-01   4.68402498E-01   1.08229693E-01   5.00450115E-01  -1.76584569E+00  -5.92725191E+00  -2.75669174E+01  -5.69939021E-01  -7.34405191E+00  -3.24047272E+00  -2.92338082E+01  -4.25203660E+00   1.03882790E+00
   3.93750000E+02   5.00000000E-01   5.00000000E-01  -6.99865572E+00  -1.22507500E+00  -4.99234757E+00  -2.45084175E+00  -2.52812069E+00   9.93069820E-03  -4.25688056E+00   5.09568966E-01   1.87249853E+00   1.16175056E+00   1.93270302E+00  -1.77448217E+00  -1.02453653E+00  -1.12235170E+00  -9.05294633E-01  -2.40884525E+00  -4.93328622E-01  -7.85210321E+00   3.81365361E-01   1.84251522E-01  -1.95416389E+00  -5.06843374E-01   4.58621688E-01   1.15419874E-01   4.98226669E-01  -1.77419812E+00  -5.86220276E+00  -2.74084658E+01  -5.49207394E-01  -7.31345970E+00  -3.23955009E+00  -2.91172402E+01  -4.26277798E+00   1.03734013E+00
   4.11250000E+02   5.00000000E-01   5.00000000E-01  -6.94749508E+00  -1.18585584E+00  -4.97098399E+00  -2.43356916E+00  -2.50922273E+00   9.93069819E-03  -4.22006537E+00   5.31775616E-01   1.87626519E+00   1.18359240E+00   1.94365369E+00  -1.76635442E+00  -1.03239469E+00  -1.11458894E+00  -9.06063226E-01  -2.38695742E+00  -4.73672282E-01  -7.81061216E+00   3.73868445E-01   1.84162007E-01  -1.97323014E+00  -4.99603806E-01   4.48845755E-01   1.22439107E-01   4.95921289E-01  -1.78230358E+00  -5.79859990E+00  -2.72514086E+01  -5.28425003E-01  -7.28296009E+00  -3.23856664E+00  -2.90025154E+01  -4.27433919E+00   1.03574985E+00
   4.28750000E+02   5.00000000E-01   5.00000000E-01  -6.89685667E+00  -1.14840735E+00  -4.94982329E+00  -2.41665434E+00  -2.49069808E+00   9.93069817E-03  -4.18423958E+00   5.53490803E-01   1.87972039E+00   1.20494061E+00   1.95421080E+00  -1.75834176E+00  -1.04020813E+00  -1.10694332E+00  -9.06868817E-01  -2.36535453E+00  -4.54955472E-01  -7.76931866E+00   3.66290903E-01   1.84083029E-01  -1.99184489E+00  -4.92615339E-01   4.38988180E-01   1.29203625E-01   4.93449055E-01  -1.79029067E+00  -5.73622292E+00  -2.70957413E+01  -5.07597651E-01  -7.25262128E+00  -3.23761849E+00  -2.88895659E+01  -4.28664235E+00   1.03406129E+00
   4.46250000E+02   5.00000000E-01   5.00000000E-01  -6.84666683E+00  -1.11254332E+00  -4.92883285E+00  -2.39998815E+00  -2.47243741E+00   9.93069815E-03  -4.14931238E+00   5.74813031E-01   1.88296030E+00   1.22589342E+00   1.96447206E+00  -1.75060856E+00  -1.04814405E+00  -1.09957950E+00  -9.07877079E-01  -2.34399556E+00  -4.37080480E-01  -7.72834320E+00   3.58586975E-01   1.84016441E-01  -2.01027052E+00  -4.85970149E-01   4.28953828E-01   1.35621000E-01   4.90716399E-01  -1.79831462E+00  -5.67478382E+00  -2.69414575E+01  -4.86730836E-01  -7.22252519E+00  -3.23681955E+00  -2.87783294E+01  -4.29961360E+00   1.03228352E+00
   4.63750000E+02   5.00000000E-01   5.00000000E-01  -6.79684558E+00  -1.07808540E+00  -4.90797863E+00  -2.38345020E+00  -2.45432007E+00   9.93069813E-03  -4.11519869E+00   5.95855073E-01   1.88609559E+00   1.24656335E+00   1.97454957E+00  -1.74332756E+00  -1.05637795E+00  -1.09267047E+00  -9.09262018E-01  -2.32283457E+00  -4.19951792E-01  -7.68781636E+00   3.50712956E-01   1.83963557E-01  -2.02879257E+00  -4.79760892E-01   4.18647164E-01   1.41598348E-01   4.87629309E-01  -1.80654193E+00  -5.61395696E+00  -2.67885490E+01  -4.65829758E-01  -7.19275898E+00  -3.23629026E+00  -2.86687492E+01  -4.31318391E+00   1.03042904E+00
   4.81250000E+02   5.00000000E-01   5.00000000E-01  -6.74731288E+00  -1.04486744E+00  -4.88722767E+00  -2.36691881E+00  -2.43622418E+00   9.93069810E-03  -4.08182068E+00   6.16734110E-01   1.88924142E+00   1.26706736E+00   1.98455995E+00  -1.73666584E+00  -1.06507958E+00  -1.08638355E+00  -9.11191956E-01  -2.30182450E+00  -4.03478896E-01  -7.64786743E+00   3.42630237E-01   1.83925292E-01  -2.04769570E+00  -4.74073570E-01   4.07979388E-01   1.47049472E-01   4.84100469E-01  -1.81513661E+00  -5.55340679E+00  -2.66370040E+01  -4.44899324E-01  -7.16340752E+00  -3.23614754E+00  -2.85607726E+01  -4.32728989E+00   1.02851257E+00
   4.98750000E+02   5.00000000E-01   5.00000000E-01  -6.69749941E+00  -1.01225320E+00  -4.86632644E+00  -2.34951423E+00  -2.41726979E+00   9.93069808E-03  -4.04888951E+00   6.38231778E-01   1.89318314E+00   1.28818705E+00   1.99528991E+00  -1.73202828E+00  -1.07565638E+00  -1.08212366E+00  -9.15072944E-01  -2.28064960E+00  -3.87312192E-01  -7.60955033E+00   3.33934243E-01   1.83909710E-01  -2.06915962E+00  -4.69718891E-01   3.96137107E-01   1.51163659E-01   4.79317915E-01  -1.82540679E+00  -5.49087084E+00  -2.64869517E+01  -4.23944227E-01  -7.13521267E+00  -3.23738489E+00  -2.84543240E+01  -4.34170922E+00   1.02659692E+00
   5.16250000E+02   5.00000000E-01   5.00000000E-01  -6.64777369E+00  -9.80540193E-01  -4.84545383E+00  -2.33179992E+00  -2.39802015E+00   9.93069806E-03  -4.01654681E+00   6.59892660E-01   1.89745869E+00   1.30946669E+00   2.00627875E+00  -1.72840374E+00  -1.08709977E+00  -1.07887999E+00  -9.19895019E-01  -2.25949954E+00  -3.71605467E-01  -7.57213979E+00   3.24963993E-01   1.83899871E-01  -2.09173596E+00  -4.66064406E-01   3.83750091E-01   1.54573051E-01   4.73912846E-01  -1.83645073E+00  -5.42769392E+00  -2.63382319E+01  -4.02968742E-01  -7.10764071E+00  -3.23928955E+00  -2.83493813E+01  -4.35654216E+00   1.02467187E+00
   5.33750000E+02   5.00000000E-01   5.00000000E-01  -6.59816102E+00  -9.49694800E-01  -4.82462499E+00  -2.31381657E+00  -2.37851573E+00   9.93069803E-03  -3.98477648E+00   6.81694707E-01   1.90204301E+00   1.33088405E+00   2.01750275E+00  -1.72568136E+00  -1.09930133E+00  -1.07654184E+00  -9.25548435E-01  -2.23838453E+00  -3.56339106E-01  -7.53555849E+00   3.15765969E-01   1.83902761E-01  -2.11528599E+00  -4.63030557E-01   3.70895326E-01   1.57357063E-01   4.67963609E-01  -1.84817752E+00  -5.36395066E+00  -2.61907911E+01  -3.81976923E-01  -7.08062729E+00  -3.24178103E+00  -2.82459075E+01  -4.37177226E+00   1.02274289E+00
   5.51250000E+02   5.00000000E-01   5.00000000E-01  -6.54858150E+00  -9.19586902E-01  -4.80380613E+00  -2.29544334E+00  -2.35863551E+00   9.93069800E-03  -3.95351787E+00   7.03751992E-01   1.90704848E+00   1.35255311E+00   2.02907553E+00  -1.72403083E+00  -1.11243312E+00  -1.07527901E+00  -9.32203989E-01  -2.21725852E+00  -3.41441589E-01  -7.49993575E+00   3.06298066E-01   1.83922469E-01  -2.14009059E+00  -4.60707514E-01   3.57480156E-01   1.59425449E-01   4.61378861E-01  -1.86075137E+00  -5.29931523E+00  -2.60446194E+01  -3.60972587E-01  -7.05425878E+00  -3.24497813E+00  -2.81438619E+01  -4.38734943E+00   1.02082276E+00
   5.68750000E+02   5.00000000E-01   5.00000000E-01  -6.49897405E+00  -8.90111562E-01  -4.78297259E+00  -2.27658782E+00  -2.33828688E+00   9.93069798E-03  -3.92272266E+00   7.26155129E-01   1.91256388E+00   1.37456442E+00   2.04108709E+00  -1.72357415E+00  -1.12661945E+00  -1.07521359E+00  -9.39984745E-01  -2.19608518E+00  -3.26854286E-01  -7.46536735E+00   2.96533847E-01   1.83959848E-01  -2.16636264E+00  -4.59155969E-01   3.43441474E-01   1.60717464E-01   4.54096769E-01  -1.87429377E+00  -5.23353030E+00  -2.58997043E+01  -3.39959301E-01  -7.02859780E+00  -3.24896670E+00  -2.80432071E+01  -4.40323281E+00   1.01892367E+00
   5.86250000E+02   5.00000000E-01   5.00000000E-01  -6.44930847E+00  -8.61200115E-01  -4.76211393E+00  -2.25720507E+00  -2.31742470E+00   9.93069795E-03  -3.89235950E+00   7.48953920E-01   1.91863691E+00   1.39696770E+00   2.05358635E+00  -1.72435458E+00  -1.14190580E+00  -1.07638891E+00  -9.48935001E-01  -2.17484482E+00  -3.12537926E-01  -7.43189130E+00   2.86470963E-01   1.84014541E-01  -2.19419668E+00  -4.58389718E-01   3.28763140E-01   1.61219272E-01   4.46102428E-01  -1.88885409E+00  -5.16645766E+00  -2.57560249E+01  -3.18940397E-01  -7.00366589E+00  -3.25377723E+00  -2.79439095E+01  -4.41939451E+00   1.01705536E+00
   6.03750000E+02   5.00000000E-01   5.00000000E-01  -6.39958142E+00  -8.32815418E-01  -4.74123172E+00  -2.23729183E+00  -2.29604553E+00   9.93069792E-03  -3.86241134E+00   7.72161176E-01   1.92527806E+00   1.41977573E+00   2.06658493E+00  -1.72634870E+00  -1.15827092E+00  -1.07878158E+00  -9.59032336E-01  -2.15353263E+00  -2.98470467E-01  -7.39949563E+00   2.76126267E-01   1.84085653E-01  -2.22358406E+00  -4.58384010E-01   3.13467632E-01   1.60955608E-01   4.37419513E-01  -1.90441968E+00  -5.09806630E+00  -2.56135537E+01  -2.97918979E-01  -6.97944954E+00  -3.25939314E+00  -2.78459393E+01  -4.43581788E+00   1.01522464E+00
   6.21250000E+02   5.00000000E-01   5.00000000E-01  -6.34981017E+00  -8.04945008E-01  -4.72033638E+00  -2.21687711E+00  -2.27417819E+00   9.93069789E-03  -3.83287209E+00   7.95760152E-01   1.93246807E+00   1.44297176E+00   2.08006469E+00  -1.72948350E+00  -1.17564388E+00  -1.08231861E+00  -9.70204713E-01  -2.13215556E+00  -2.84643634E-01  -7.36813051E+00   2.65529932E-01   1.84172081E-01  -2.25443719E+00  -4.59086369E-01   2.97605217E-01   1.59978948E-01   4.28099454E-01  -1.92093100E+00  -5.02841024E+00  -2.54722600E+01  -2.76897938E-01  -6.95590918E+00  -3.26576279E+00  -2.77492701E+01  -4.45249513E+00   1.01343547E+00
   6.38750000E+02   5.00000000E-01   5.00000000E-01  -6.30002515E+00  -7.77593103E-01  -4.69944376E+00  -2.19601075E+00  -2.25187236E+00   9.93069786E-03  -3.80374285E+00   8.19714185E-01   1.94016767E+00   1.46651911E+00   2.09398747E+00  -1.73365594E+00  -1.19392370E+00  -1.08689698E+00  -9.82350038E-01  -2.11072831E+00  -2.71058689E-01  -7.33772245E+00   2.54719246E-01   1.84272760E-01  -2.28661846E+00  -4.60428453E-01   2.81242089E-01   1.58357653E-01   4.18209577E-01  -1.93829937E+00  -4.95760031E+00  -2.53321113E+01  -2.55879964E-01  -6.93298943E+00  -3.27281329E+00  -2.76538783E+01  -4.46942442E+00   1.01168942E+00
   6.56250000E+02   5.00000000E-01   5.00000000E-01  -6.25026192E+00  -7.50772185E-01  -4.67857143E+00  -2.17475109E+00  -2.22918617E+00   9.93069783E-03  -3.77502803E+00   8.43977428E-01   1.94832840E+00   1.49037197E+00   2.10830583E+00  -1.73875335E+00  -1.21299968E+00  -1.09240399E+00  -9.95356564E-01  -2.08926897E+00  -2.57721870E-01  -7.30818948E+00   2.43732469E-01   1.84386873E-01  -2.31997117E+00  -4.62338115E-01   2.64448311E-01   1.56163917E-01   4.07821041E-01  -1.95642576E+00  -4.88577294E+00  -2.51930762E+01  -2.34867557E-01  -6.91062987E+00  -3.28046489E+00  -2.75597422E+01  -4.48660696E+00   1.00998638E+00
   6.73750000E+02   5.00000000E-01   5.00000000E-01  -6.20055461E+00  -7.24496122E-01  -4.65773578E+00  -2.15315471E+00  -2.20617605E+00   9.93069781E-03  -3.74673229E+00   8.68503884E-01   1.95690168E+00   1.51448438E+00   2.12297224E+00  -1.74466978E+00  -1.23276778E+00  -1.09873364E+00  -1.00911922E+00  -2.06779541E+00  -2.44640589E-01  -7.27945336E+00   2.32604123E-01   1.84513947E-01  -2.35434480E+00  -4.64748846E-01   2.47288365E-01   1.53464316E-01   3.96999396E-01  -1.97521594E+00  -4.81306405E+00  -2.50551261E+01  -2.13863032E-01  -6.88877372E+00  -3.28864255E+00  -2.74668418E+01  -4.50404451E+00   1.00832527E+00
   6.91250000E+02   5.00000000E-01   5.00000000E-01  -6.15092953E+00  -6.98773532E-01  -4.63694919E+00  -2.13126650E+00  -2.18288671E+00   9.93069778E-03  -3.71885757E+00   8.93256334E-01   1.96584787E+00   1.53881921E+00   2.13794806E+00  -1.75132184E+00  -1.25314650E+00  -1.10580248E+00  -1.02355550E+00  -2.04632170E+00  -2.31819749E-01  -7.25145163E+00   2.21360472E-01   1.84653958E-01  -2.38961974E+00  -4.67608902E-01   2.29812023E-01   1.50310688E-01   3.85795457E-01  -1.99459534E+00  -4.73958325E+00  -2.49182365E+01  -1.92868537E-01  -6.86737624E+00  -3.29728718E+00  -2.73751573E+01  -4.52173695E+00   1.00670479E+00
   7.08750000E+02   5.00000000E-01   5.00000000E-01  -6.10140351E+00  -6.73605920E-01  -4.61621939E+00  -2.10911697E+00  -2.15934850E+00   9.93069775E-03  -3.69140238E+00   9.18209032E-01   1.97513894E+00   1.56335081E+00   2.15320623E+00  -1.75865240E+00  -1.27408051E+00  -1.11355327E+00  -1.03860909E+00  -2.02485707E+00  -2.19260608E-01  -7.22414063E+00   2.10018820E-01   1.84807213E-01  -2.42571371E+00  -4.70883071E-01   2.12052579E-01   1.46738360E-01   3.74243530E-01  -2.01451265E+00  -4.66540629E+00  -2.47823874E+01  -1.71886051E-01  -6.84640673E+00  -3.30635828E+00  -2.72846694E+01  -4.53968160E+00   1.00512383E+00
   7.26250000E+02   5.00000000E-01   5.00000000E-01  -6.05198352E+00  -6.48987139E-01  -4.59554939E+00  -2.08672159E+00  -2.13557670E+00   9.93069772E-03  -3.66436164E+00   9.43348569E-01   1.98475936E+00   1.58806588E+00   2.16873218E+00  -1.76663094E+00  -1.29554107E+00  -1.12195539E+00  -1.05425029E+00  -2.00340562E+00  -2.06960399E-01  -7.19749597E+00   1.98587685E-01   1.84974278E-01  -2.46258313E+00  -4.74552627E-01   1.94026893E-01   1.42766200E-01   3.62361463E-01  -2.03494050E+00  -4.59057269E+00  -2.46475629E+01  -1.50917401E-01  -6.82584877E+00  -3.31583424E+00  -2.71953588E+01  -4.55787297E+00   1.00358166E+00
   7.43750000E+02   5.00000000E-01   5.00000000E-01  -6.00266724E+00  -6.24903805E-01  -4.57493783E+00  -2.06408154E+00  -2.11157236E+00   9.93069769E-03  -3.63772694E+00   9.68673408E-01   1.99470561E+00   1.61296305E+00   2.18452332E+00  -1.77525182E+00  -1.31752425E+00  -1.13100305E+00  -1.07047426E+00  -1.98196653E+00  -1.94912484E-01  -7.17151152E+00   1.87067559E-01   1.85155907E-01  -2.50022094E+00  -4.78614067E-01   1.75736648E-01   1.38397870E-01   3.50151908E-01  -2.05587396E+00  -4.51508728E+00  -2.45137514E+01  -1.29964263E-01  -6.80569931E+00  -3.32571113E+00  -2.71072060E+01  -4.57630291E+00   1.00207806E+00
   7.61250000E+02   5.00000000E-01   5.00000000E-01  -5.95344438E+00  -6.01336497E-01  -4.55437960E+00  -2.04118578E+00  -2.08732426E+00   9.93069767E-03  -3.61148710E+00   9.94192279E-01   2.00498459E+00   1.63805119E+00   2.20058745E+00  -1.78453069E+00  -1.34004738E+00  -1.14071173E+00  -1.08729739E+00  -1.96053479E+00  -1.83106972E-01  -7.14619672E+00   1.75452142E-01   1.85352950E-01  -2.53865152E+00  -4.83076836E-01   1.57170626E-01   1.33624106E-01   3.37604592E-01  -2.07732740E+00  -4.43892492E+00  -2.43809440E+01  -1.09028172E-01  -6.78596675E+00  -3.33600014E+00  -2.70201915E+01  -4.59496098E+00   1.00061330E+00
   7.78750000E+02   5.00000000E-01   5.00000000E-01  -5.90429867E+00  -5.78261602E-01  -4.53386680E+00  -2.01801401E+00  -2.06281196E+00   9.93069765E-03  -3.58562905E+00   1.01992166E+00   2.01561105E+00   1.66334697E+00   2.21694023E+00  -1.79449927E+00  -1.36314381E+00  -1.15111298E+00  -1.10475217E+00  -1.93910217E+00  -1.71531696E-01  -7.12157292E+00   1.63729985E-01   1.85566273E-01  -2.57792305E+00  -4.87960196E-01   1.38307837E-01   1.28425840E-01   3.24699450E-01  -2.09932974E+00  -4.36203786E+00  -2.42491351E+01  -8.81105314E-02  -6.76666826E+00  -3.34672396E+00  -2.69342957E+01  -4.61383510E+00   9.99188003E-01
   7.96250000E+02   5.00000000E-01   5.00000000E-01  -5.85521045E+00  -5.55653817E-01  -4.51338993E+00  -1.99454072E+00  -2.03800979E+00   9.93069763E-03  -3.56013901E+00   1.04588231E+00   2.02660413E+00   1.68887135E+00   2.23360165E+00  -1.80519863E+00  -1.38685622E+00  -1.16224769E+00  -1.12288038E+00  -1.91765869E+00  -1.60173555E-01  -7.09766834E+00   1.51886609E-01   1.85796652E-01  -2.61809740E+00  -4.93289145E-01   1.19121596E-01   1.22778286E-01   3.11410706E-01  -2.12191832E+00  -4.28436578E+00  -2.41183206E+01  -6.72126167E-02  -6.74782613E+00  -3.35791196E+00  -2.68494992E+01  -4.63291250E+00   9.97802962E-01