 TITLE = "Mineral Saturation State" 
VARIABLES = "X"          "Y"              "Z"            "Forsterite"     "Fayalite"       "Brucite"        "Lizardite"      "Chrysotile"     "Hematite"       "Magnetite(am)"  "Saponite(Ca)"   "Saponite(K)"    "Saponite(Mg)"   "Saponite(Na)"   "Beidellite(Ca)" "Beidellite(K)"  "Beidellite(Mg)" "Beidellite(Na)" "Enstatite(alph" "Ferrosilite(al" "Anorthite"      "Albite(low)"    "Clinochlore"    "Sudoite"        "Montmor(MgCa)"  "Montmor(MgK)"   "Montmor(MgMg)"  "Montmor(MgNa)"  "Kaolinite"      "Tremolite"      "Pargasite"      "Anhydrite"      "Epidote"        "Scolecite"      "Pyrite"         "FeS(am)"        "Quartz(alpha)"  "Titanite"       "Rutile"         "Barite"         "Fluorite"       "Spessartine(al" "Andradite"      "Celestite"      "Zincite"        "Chalcocyanite"  "Chalcocite(alp"
 ZONE I=         200 , J=           1 , K=           1  F=POINT
   8.75000000E+00   5.00000000E-01   5.00000000E-01  -7.07812622E+00  -2.98616614E+00  -4.75786285E+00  -1.30850996E+00  -1.42599827E+00   8.77319379E-02  -5.30186919E+00   5.79580647E-01   2.40814342E+00   1.24053168E+00   2.28680444E+00  -6.56127380E+00  -5.41322473E+00  -5.90032004E+00  -5.47336855E+00  -2.54031933E+00  -1.55649492E+00  -1.17125366E+01  -1.58473211E+00   2.24326013E-02  -6.84535199E+00  -4.15208413E+00  -2.76312165E+00  -3.52465988E+00  -2.91227309E+00  -5.21150429E+00  -4.94053771E+00  -3.27832265E+01  -9.80336571E-01  -1.04600914E+01  -6.49788969E+00  -5.53175106E+01  -1.94323335E+01   7.12115616E-01  -7.18386181E-01   1.49297859E-01   2.99289739E-01  -5.70085333E-01  -2.63059158E+01  -7.02242959E+00  -1.70343908E+00  -3.63136922E+00  -1.59370308E+01   1.52713903E+00
   2.62500000E+01   5.00000000E-01   5.00000000E-01  -7.57189757E+00  -2.87247043E+00  -5.09149916E+00  -2.03831572E+00  -2.15376939E+00   8.77319378E-02  -5.30625408E+00   2.89609566E-01   2.09195061E+00   9.50000647E-01   1.97976470E+00  -4.47892796E+00  -3.35096158E+00  -3.81853976E+00  -3.40205859E+00  -2.70908260E+00  -1.41699603E+00  -1.03854283E+01  -6.25436132E-01   2.22465380E-02  -4.47998034E+00  -2.58144403E+00  -1.21384502E+00  -1.95439506E+00  -1.35347839E+00  -3.58292120E+00  -6.06622115E+00  -3.19830088E+01  -9.62502461E-01  -9.34146807E+00  -5.05275445E+00  -5.62439555E+01  -2.02906272E+01   8.75456616E-01  -8.94852241E-01   1.64001184E-01   1.37766477E-01  -5.87450429E-01  -2.46231955E+01  -7.57992520E+00  -1.71040214E+00  -3.73317819E+00  -1.58703268E+01   1.16356842E-01
   4.37500000E+01   5.00000000E-01   5.00000000E-01  -7.72596991E+00  -2.70854454E+00  -5.22456584E+00  -2.28866644E+00  -2.40210732E+00   8.77319377E-02  -5.25501364E+00   2.71808117E-01   2.05066731E+00   9.31679412E-01   1.94752792E+00  -3.54699736E+00  -2.43888787E+00  -2.88713413E+00  -2.48104425E+00  -2.73868722E+00  -1.28311462E+00  -9.80109848E+00  -1.60100159E-01   2.19093292E-02  -3.53723756E+00  -1.83499076E+00  -4.88516154E-01  -1.20827915E+00  -6.18742348E-01  -2.89732748E+00  -6.27855335E+00  -3.14783183E+01  -9.44449748E-01  -8.82628121E+00  -4.41152697E+00  -5.54046309E+01  -1.98853442E+01   9.77347910E-01  -9.33349583E-01   1.77477867E-01   5.12639868E-02  -6.03983911E-01  -2.37173650E+01  -7.72001807E+00  -1.71682041E+00  -3.73039458E+00  -1.58038470E+01   1.16356842E-01
   6.12500000E+01   5.00000000E-01   5.00000000E-01  -7.77990304E+00  -2.55714989E+00  -5.28733996E+00  -2.40841206E+00  -2.51986166E+00   8.77319377E-02  -5.19002331E+00   2.90067328E-01   2.04609888E+00   9.49449244E-01   1.95189946E+00  -3.02233880E+00  -1.93386467E+00  -2.36296974E+00  -1.96718661E+00  -2.73841542E+00  -1.17573311E+00  -9.45936774E+00   1.03345933E-01   2.14070900E-02  -3.03788795E+00  -1.40679633E+00  -8.12115512E-02  -7.80393877E-01  -2.02141418E-01  -2.52432319E+00  -6.32141675E+00  -3.11072414E+01  -9.26179222E-01  -8.52358220E+00  -4.05303453E+00  -5.46970520E+01  -1.95388767E+01   1.03878577E+00  -9.43110161E-01   1.89725189E-01   8.44543115E-03  -6.19715612E-01  -2.31067793E+01  -7.77039270E+00  -1.72267468E+00  -3.70043415E+00  -1.57375895E+01   1.16356842E-01
   7.87500000E+01   5.00000000E-01   5.00000000E-01  -7.80018415E+00  -2.43201130E+00  -5.31993878E+00  -2.49041696E+00  -2.59989643E+00   8.77319376E-02  -5.12501676E+00   2.94649888E-01   2.02804364E+00   9.53567321E-01   1.94267875E+00  -2.67478172E+00  -1.60572560E+00  -2.01588156E+00  -1.63031820E+00  -2.73463663E+00  -1.09483908E+00  -9.21328046E+00   2.65869982E-01   2.09196483E-02  -2.70184632E+00  -1.12990105E+00   1.75024137E-01  -5.03785003E-01   6.32809048E-02  -2.27686707E+00  -6.36560063E+00  -3.08086634E+01  -9.07697349E-01  -8.31275839E+00  -3.81657522E+00  -5.40546951E+01  -1.92248294E+01   1.07351950E+00  -9.50445427E-01   2.00773017E-01  -1.25137330E-02  -6.34677001E-01  -2.26416473E+01  -7.81006989E+00  -1.72797400E+00  -3.66482975E+00  -1.56715583E+01   1.16356842E-01
   9.62500000E+01   5.00000000E-01   5.00000000E-01  -7.80004674E+00  -2.32389183E+00  -5.33387237E+00  -2.54964525E+00  -2.65717540E+00   8.77319375E-02  -5.06026648E+00   2.89700716E-01   2.00065571E+00   9.48174932E-01   1.92402177E+00  -2.43729878E+00  -1.38744732E+00  -1.77884589E+00  -1.40341377E+00  -2.72907380E+00  -1.03091969E+00  -9.02640993E+00   3.65256522E-01   2.05775389E-02  -2.46610215E+00  -9.47499446E-01   3.36992157E-01  -3.21650657E-01   2.34327834E-01  -2.10704300E+00  -6.41335178E+00  -3.05561175E+01  -8.89013158E-01  -8.15909051E+00  -3.65593682E+00  -5.34547721E+01  -1.89319436E+01   1.09133754E+00  -9.57028498E-01   2.10654086E-01  -2.32139221E-02  -6.48899403E-01  -2.22678898E+01  -7.84416413E+00  -1.73273603E+00  -3.62635977E+00  -1.56057606E+01   1.16356842E-01
   1.13750000E+02   5.00000000E-01   5.00000000E-01  -7.78408617E+00  -2.22551806E+00  -5.33482306E+00  -2.58961247E+00  -2.69521378E+00   8.77319374E-02  -4.99551805E+00   2.83365367E-01   1.97213154E+00   9.41413890E-01   1.90412721E+00  -2.27652164E+00  -1.24566540E+00  -1.61849817E+00  -1.25310667E+00  -2.72063957E+00  -9.76952589E-01  -8.88271199E+00   4.23065228E-01   2.04220451E-02  -2.30539374E+00  -8.28629691E-01   4.35650271E-01  -2.03032696E-01   3.41959429E-01  -1.99314590E+00  -6.45026042E+00  -3.03336222E+01  -8.70136498E-01  -8.04543077E+00  -3.54830710E+00  -5.28856277E+01  -1.86542631E+01   1.09901091E+00  -9.61722178E-01   2.19400352E-01  -2.91574469E-02  -6.62412989E-01  -2.19575702E+01  -7.86935670E+00  -1.73697993E+00  -3.58589310E+00  -1.55402038E+01   1.16356842E-01
   1.31250000E+02   5.00000000E-01   5.00000000E-01  -7.75654762E+00  -2.13402994E+00  -5.32710366E+00  -2.61450315E+00  -2.71819578E+00   8.77319374E-02  -4.93152934E+00   2.79428874E-01   1.94627527E+00   9.37065583E-01   1.88680130E+00  -2.16730954E+00  -1.15524283E+00  -1.50970128E+00  -1.15425771E+00  -2.70926589E+00  -9.29316521E-01  -8.76930944E+00   4.54494705E-01   2.04176499E-02  -2.19840316E+00  -7.50986258E-01   4.93300045E-01  -1.25629199E-01   4.08479487E-01  -1.91800664E+00  -6.47144167E+00  -3.01302660E+01  -8.51077340E-01  -7.95881810E+00  -3.47642960E+00  -5.23393589E+01  -1.83882143E+01   1.10092174E+00  -9.64409001E-01   2.27043839E-01  -3.28666077E-02  -6.75246680E-01  -2.16922062E+01  -7.88538834E+00  -1.74072453E+00  -3.54480355E+00  -1.54748952E+01   1.16356842E-01
   1.48750000E+02   5.00000000E-01   5.00000000E-01  -7.72101778E+00  -2.04844440E+00  -5.31384435E+00  -2.62836746E+00  -2.73017123E+00   8.77319373E-02  -4.86914335E+00   2.79038899E-01   1.92423487E+00   9.36274623E-01   1.87319397E+00  -2.09152433E+00  -1.09804513E+00  -1.43432015E+00  -1.08873048E+00  -2.69540892E+00  -8.86182206E-01  -8.67637668E+00   4.69803611E-01   2.05048519E-02  -2.12820166E+00  -6.99166695E-01   5.25340097E-01  -7.40407252E-02   4.49288626E-01  -1.86868696E+00  -6.47739372E+00  -2.99389255E+01  -8.31845577E-01  -7.88987065E+00  -3.42780639E+00  -5.18105082E+01  -1.81314890E+01   1.09974527E+00  -9.65498629E-01   2.33617065E-01  -3.55006943E-02  -6.87428261E-01  -2.14592042E+01  -7.89358272E+00  -1.74398818E+00  -3.50429571E+00  -1.54098418E+01   1.16356842E-01
   1.66250000E+02   5.00000000E-01   5.00000000E-01  -7.68014790E+00  -1.96831918E+00  -5.29714625E+00  -2.63441361E+00  -2.73434806E+00   8.77319373E-02  -4.80891218E+00   2.82195083E-01   1.90600293E+00   9.39038286E-01   1.86329950E+00  -2.03703161E+00  -1.06194144E+00  -1.38022276E+00  -1.04439238E+00  -2.67961846E+00  -8.46552116E-01  -8.59707680E+00   4.75510451E-01   2.06334177E-02  -2.08270686E+00  -6.63202910E-01   5.41734796E-01  -3.83015025E-02   4.74352999E-01  -1.83626234E+00  -6.47040066E+00  -2.97551880E+01  -8.12450977E-01  -7.83229281E+00  -3.39405088E+00  -5.12953796E+01  -1.78825143E+01   1.09703399E+00  -9.65497853E-01   2.39153008E-01  -3.76022211E-02  -6.98984432E-01  -2.12500421E+01  -7.89555635E+00  -1.74678883E+00  -3.46514196E+00  -1.53450500E+01   1.16356842E-01
   1.83750000E+02   5.00000000E-01   5.00000000E-01  -7.63579467E+00  -1.89332773E+00  -5.27836579E+00  -2.63500531E+00  -2.73308964E+00   8.77319372E-02  -4.75109838E+00   2.88438666E-01   1.89111117E+00   9.44896014E-01   1.85665115E+00  -1.99601101E+00  -1.03911484E+00  -1.33959055E+00  -1.01342496E+00  -2.66239447E+00  -8.09834046E-01  -8.52684247E+00   4.75608927E-01   2.07711860E-02  -2.05367392E+00  -6.36872664E-01   5.48702758E-01  -1.21910551E-02   4.89892826E-01  -1.81481931E+00  -6.45309886E+00  -2.95764095E+01  -7.92903149E-01  -7.78201194E+00  -3.36974097E+00  -5.07914719E+01  -1.76401700E+01   1.09364552E+00  -9.64866571E-01   2.43684923E-01  -3.94310476E-02  -7.09940810E-01  -2.10589200E+01  -7.89278594E+00  -1.74914399E+00  -3.42774419E+00  -1.52805264E+01   1.16356842E-01
   2.01250000E+02   5.00000000E-01   5.00000000E-01  -7.58923166E+00  -1.82314840E+00  -5.25836303E+00  -2.63183635E+00  -2.72808948E+00   8.77319372E-02  -4.69576217E+00   2.97174310E-01   1.87895448E+00   9.53251077E-01   1.85264521E+00  -1.96350598E+00  -1.02461214E+00  -1.30746839E+00  -9.90873599E-01  -2.64415019E+00  -7.75643096E-01  -8.46266967E+00   4.72491578E-01   2.09012301E-02  -2.03556990E+00  -6.16367181E-01   5.50049239E-01   8.09804277E-03   4.99714847E-01  -1.80050172E+00  -6.42793206E+00  -2.94010406E+01  -7.73211530E-01  -7.73643433E+00  -3.35142752E+00  -5.02970715E+01  -1.74036288E+01   1.09002776E+00  -9.63980246E-01   2.47246136E-01  -4.11145986E-02  -7.20321936E-01  -2.08818303E+01  -7.88649518E+00  -1.75107074E+00  -3.39225432E+00  -1.52162767E+01   1.16356842E-01
   2.18750000E+02   5.00000000E-01   5.00000000E-01  -7.54132433E+00  -1.75744645E+00  -5.23767817E+00  -2.62610406E+00  -2.72054461E+00   8.77319372E-02  -4.64284146E+00   3.07820693E-01   1.86894240E+00   9.63521043E-01   1.85069258E+00  -1.93640080E+00  -1.01532087E+00  -1.28074167E+00  -9.73624469E-01  -2.62521064E+00  -7.43703656E-01  -8.40259439E+00   4.67567630E-01   2.10164597E-02  -2.02470683E+00  -5.99384186E-01   5.48073082E-01   2.48669929E-02   5.06119313E-01  -1.79081173E+00  -6.39696095E+00  -2.92281891E+01  -7.53385361E-01  -7.69391957E+00  -3.33693305E+00  -4.98109804E+01  -1.71722600E+01   1.08639694E+00  -9.63127800E-01   2.49869839E-01  -4.27166452E-02  -7.30151282E-01  -2.07159483E+01  -7.87764780E+00  -1.75258563E+00  -3.35867310E+00  -1.51523068E+01   1.16356842E-01
   2.36250000E+02   5.00000000E-01   5.00000000E-01  -7.49265690E+00  -1.69588054E+00  -5.21664802E+00  -2.61864655E+00  -2.71129286E+00   8.77319371E-02  -4.59220811E+00   3.19873771E-01   1.86056276E+00   9.75200950E-01   1.85028239E+00  -1.91274806E+00  -1.00929681E+00  -1.25746391E+00  -9.59732064E-01  -2.60582299E+00  -7.13799596E-01  -8.34533667E+00   4.61653211E-01   2.11152032E-02  -2.01863685E+00  -5.84547308E-01   5.44147311E-01   3.94912806E-02   5.10480600E-01  -1.78413785E+00  -6.36182882E+00  -2.90573496E+01  -7.33433664E-01  -7.65343450E+00  -3.32488968E+00  -4.93323408E+01  -1.69455700E+01   1.08284371E+00  -9.62521661E-01   2.51588912E-01  -4.42695573E-02  -7.39451271E-01  -2.05592392E+01  -7.86697714E+00  -1.75370475E+00  -3.32691721E+00  -1.50886218E+01   1.16356842E-01
   2.53750000E+02   5.00000000E-01   5.00000000E-01  -7.44362025E+00  -1.63811265E+00  -5.19548048E+00  -2.61004413E+00  -2.70091425E+00   8.77319370E-02  -4.54370342E+00   3.32925760E-01   1.85340070E+00   9.87882220E-01   1.85100101E+00  -1.89133979E+00  -1.00533509E+00  -1.23642796E+00  -9.47990244E-01  -2.58617002E+00  -6.85748752E-01  -8.29006617E+00   4.55210622E-01   2.11983815E-02  -2.01574516E+00  -5.71045135E-01   5.39080078E-01   5.27815642E-02   5.13608173E-01  -1.77944644E+00  -6.32379410E+00  -2.88882410E+01  -7.13365221E-01  -7.61433189E+00  -3.31444371E+00  -4.88605221E+01  -1.67231637E+01   1.07939419E+00  -9.62311045E-01   2.52435761E-01  -4.57898209E-02  -7.48243303E-01  -2.04102041E+01  -7.85502557E+00  -1.75444363E+00  -3.29686120E+00  -1.50252269E+01   1.16356842E-01
   2.71250000E+02   5.00000000E-01   5.00000000E-01  -7.39447213E+00  -1.58381621E+00  -5.17430164E+00  -2.60069255E+00  -2.68980428E+00   8.77319370E-02  -4.49715920E+00   3.46662782E-01   1.84713620E+00   1.00125028E+00   1.85252968E+00  -1.87143661E+00  -1.00269937E+00  -1.21689514E+00  -9.37661434E-01  -2.56638322E+00  -6.59389946E-01  -8.23624920E+00   4.48492897E-01   2.12679261E-02  -2.01497840E+00  -5.58409695E-01   5.33336169E-01   6.52051522E-02   5.15968108E-01  -1.77608180E+00  -6.28378746E+00  -2.87207097E+01  -6.93188555E-01  -7.57621026E+00  -3.30506854E+00  -4.83950482E+01  -1.65047186E+01   1.07604391E+00  -9.62594950E-01   2.52442178E-01  -4.72856984E-02  -7.56547790E-01  -2.02677149E+01  -7.84218301E+00  -1.75481727E+00  -3.26836235E+00  -1.49621267E+01   1.16356842E-01
   2.88750000E+02   5.00000000E-01   5.00000000E-01  -7.34537835E+00  -1.53268139E+00  -5.15318555E+00  -2.59085568E+00  -2.67822653E+00   8.77319369E-02  -4.45240956E+00   3.60853418E-01   1.84153254E+00   1.01507309E+00   1.85463288E+00  -1.85259688E+00  -1.00095094E+00  -1.19842446E+00  -9.28305723E-01  -2.54655420E+00  -6.34576489E-01  -8.18354857E+00   4.41630494E-01   2.13259784E-02  -2.01566312E+00  -5.46381088E-01   5.27172379E-01   7.70213508E-02   5.17818464E-01  -1.77363645E+00  -6.24247328E+00  -2.85546737E+01  -6.72911908E-01  -7.53882514E+00  -3.29644634E+00  -4.79355499E+01  -1.62899669E+01   1.07277621E+00  -9.63433585E-01   2.51639218E-01  -4.87611055E-02  -7.64384183E-01  -2.01309049E+01  -7.82872084E+00  -1.75484012E+00  -3.24127491E+00  -1.48993256E+01   1.16356842E-01
   3.06250000E+02   5.00000000E-01   5.00000000E-01  -7.29644127E+00  -1.48441827E+00  -5.13217314E+00  -2.58070352E+00  -2.66635073E+00   8.77319368E-02  -4.40929722E+00   3.75334336E-01   1.83642174E+00   1.02918673E+00   1.85714381E+00  -1.83456805E+00  -9.99840138E-01  -1.18076393E+00  -9.19672245E-01  -2.52674426E+00  -6.11173064E-01  -8.13175756E+00   4.34683167E-01   2.13745295E-02  -2.01738315E+00  -5.34824595E-01   5.20720391E-01   8.83643365E-02   5.19292172E-01  -1.77186621E+00  -6.20030690E+00  -2.83900893E+01  -6.52543234E-01  -7.50203240E+00  -3.28839251E+00  -4.74817336E+01  -1.60786828E+01   1.06957159E+00  -9.64857924E-01   2.50057091E-01  -5.02176225E-02  -7.71771014E-01  -1.99990951E+01  -7.81482027E+00  -1.75452608E+00  -3.21545799E+00  -1.48368275E+01   1.16356842E-01
   3.23750000E+02   5.00000000E-01   5.00000000E-01  -7.24771987E+00  -1.43875864E+00  -5.11128447E+00  -2.57034005E+00  -2.65428061E+00   8.77319368E-02  -4.36767662E+00   3.89995830E-01   1.83169000E+00   1.04348097E+00   1.85994986E+00  -1.81721654E+00  -9.99236212E-01  -1.16378054E+00  -9.11629071E-01  -2.50699219E+00  -5.89054396E-01  -8.08075536E+00   4.27671081E-01   2.14152872E-02  -2.01989520E+00  -5.23679490E-01   5.14037968E-01   9.92943374E-02   5.20448223E-01  -1.77063347E+00  -6.15758467E+00  -2.82269331E+01  -6.32090187E-01  -7.46575153E+00  -3.28080671E+00  -4.70333598E+01  -1.58706738E+01   1.06641219E+00  -9.66877562E-01   2.47725078E-01  -5.16555595E-02  -7.78725929E-01  -1.98717434E+01  -7.80059562E+00  -1.75388849E+00  -3.19077958E+00  -1.47746361E+01   1.16356842E-01
   3.41250000E+02   5.00000000E-01   5.00000000E-01  -7.19924424E+00  -1.39545702E+00  -5.09052688E+00  -2.55982416E+00  -2.64207483E+00   8.77319367E-02  -4.32741526E+00   4.04768410E-01   1.82726412E+00   1.05788583E+00   1.86297899E+00  -1.80048146E+00  -9.99081003E-01  -1.14741388E+00  -9.04116878E-01  -2.48732065E+00  -5.68104907E-01  -8.03047638E+00   4.20593632E-01   2.14496555E-02  -2.02306908E+00  -5.12926911E-01   5.07141075E-01   1.09829755E-01   5.21303798E-01  -1.76986835E+00  -6.11448704E+00  -2.80651902E+01  -6.11560110E-01  -7.42994124E+00  -3.27364044E+00  -4.65902282E+01  -1.56657734E+01   1.06328347E+00  -9.69487143E-01   2.44671448E-01  -5.30745333E-02  -7.85265723E-01  -1.97484093E+01  -7.78611339E+00  -1.75294017E+00  -3.16711863E+00  -1.47127547E+01   1.16356842E-01
   3.58750000E+02   5.00000000E-01   5.00000000E-01  -7.15102638E+00  -1.35429129E+00  -5.06990048E+00  -2.54918571E+00  -2.62976296E+00   8.77319366E-02  -4.28839421E+00   4.19610874E-01   1.82309954E+00   1.07235966E+00   1.86618778E+00  -1.78434306E+00  -9.99357462E-01  -1.13164469E+00  -8.97117468E-01  -2.46774144E+00  -5.48218895E-01  -7.98088830E+00   4.13440945E-01   2.14787627E-02  -2.02684429E+00  -5.02569283E-01   5.00024457E-01   1.19967738E-01   5.21854838E-01  -1.76954137E+00  -6.07111487E+00  -2.79048489E+01  -5.90960039E-01  -7.39458277E+00  -3.26687487E+00  -4.61521675E+01  -1.54638366E+01   1.06017455E+00  -9.72671655E-01   2.40923404E-01  -5.44737854E-02  -7.91406378E-01  -1.96287277E+01  -7.77140794E+00  -1.75169334E+00  -3.14436602E+00  -1.46511864E+01   1.16356842E-01
   3.76250000E+02   5.00000000E-01   5.00000000E-01  -7.10306819E+00  -1.31506303E+00  -5.04940197E+00  -2.53843768E+00  -2.61735777E+00   8.77319365E-02  -4.25050802E+00   4.34500168E-01   1.81917002E+00   1.08687897E+00   1.86955112E+00  -1.76880118E+00  -1.00006804E+00  -1.11647321E+00  -8.90632160E-01  -2.44825972E+00  -5.29300895E-01  -7.93197644E+00   4.06200889E-01   2.15035083E-02  -2.03119826E+00  -4.92617055E-01   4.92674899E-01   1.29697441E-01   5.22089311E-01  -1.76964387E+00  -6.02751941E+00  -2.77458973E+01  -5.70296693E-01  -7.35966846E+00  -3.26050549E+00  -4.57190272E+01  -1.52647356E+01   1.05707771E+00  -9.76410685E-01   2.36507026E-01  -5.58523597E-02  -7.97163096E-01  -1.95123901E+01  -7.75649412E+00  -1.75015973E+00  -3.12242477E+00  -1.45899336E+01   1.16356842E-01
   3.93750000E+02   5.00000000E-01   5.00000000E-01  -7.05536718E+00  -1.27759714E+00  -5.02902714E+00  -2.52758510E+00  -2.60486404E+00   8.77319364E-02  -4.21366422E+00   4.49423485E-01   1.81545975E+00   1.10143056E+00   1.87305433E+00  -1.75386106E+00  -1.00122056E+00  -1.10190511E+00  -8.84667654E-01  -2.42887715E+00  -5.11265853E-01  -7.88373295E+00   3.98863083E-01   2.15246125E-02  -2.03612420E+00  -4.83080590E-01   4.85079335E-01   1.39008140E-01   5.21995318E-01  -1.77017488E+00  -5.98372518E+00  -2.75883214E+01  -5.49576481E-01  -7.32519414E+00  -3.25453216E+00  -4.52906725E+01  -1.50683568E+01   1.05398780E+00  -9.80681616E-01   2.31447243E-01  -5.72092029E-02  -8.02550335E-01  -1.93991308E+01  -7.74137675E+00  -1.74835052E+00  -3.10120980E+00  -1.45289989E+01   1.16356842E-01
   4.11250000E+02   5.00000000E-01   5.00000000E-01  -7.00791983E+00  -1.24174058E+00  -5.00877222E+00  -2.51663044E+00  -2.59228401E+00   8.77319363E-02  -4.17778235E+00   4.64373032E-01   1.81195803E+00   1.11600629E+00   1.87668781E+00  -1.73952563E+00  -1.00282045E+00  -1.08794368E+00  -8.79228276E-01  -2.40959394E+00  -4.94038798E-01  -7.83615073E+00   3.91420688E-01   2.15426604E-02  -2.04161811E+00  -4.73966106E-01   4.77228903E-01   1.47893280E-01   5.21565147E-01  -1.77113348E+00  -5.93974473E+00  -2.74321048E+01  -5.28805502E-01  -7.29115498E+00  -3.24895349E+00  -4.48669803E+01  -1.48745991E+01   1.05090155E+00  -9.85461676E-01   2.25767800E-01  -5.85432224E-02  -8.07581842E-01  -1.92887170E+01  -7.72605669E+00  -1.74627637E+00  -3.08064716E+00  -1.44683841E+01   1.16356842E-01
   4.28750000E+02   5.00000000E-01   5.00000000E-01  -6.96072294E+00  -1.20736000E+00  -4.98863432E+00  -2.50557586E+00  -2.57961961E+00   8.77319361E-02  -4.14279255E+00   4.79343502E-01   1.80865673E+00   1.13060050E+00   1.88044450E+00  -1.72579307E+00  -1.00486833E+00  -1.07458744E+00  -8.74313568E-01  -2.39040978E+00  -4.77553904E-01  -7.78922106E+00   3.83870551E-01   2.15581376E-02  -2.04767379E+00  -4.65274821E-01   4.69119801E-01   1.56351337E-01   5.20796131E-01  -1.77251621E+00  -5.89558556E+00  -2.72772292E+01  -5.07989548E-01  -7.25754416E+00  -3.24376512E+00  -4.44478372E+01  -1.46833709E+01   1.04781708E+00  -9.90728871E-01   2.19491245E-01  -5.98533196E-02  -8.12270680E-01  -1.91809430E+01  -7.71053356E+00  -1.74394744E+00  -3.06067269E+00  -1.44080909E+01   1.16356842E-01
   4.46250000E+02   5.00000000E-01   5.00000000E-01  -6.91377353E+00  -1.17433857E+00  -4.96861124E+00  -2.49442315E+00  -2.56687241E+00   8.77319360E-02  -4.10863381E+00   4.94331666E-01   1.80554985E+00   1.14520967E+00   1.88431950E+00  -1.71265805E+00  -1.00736127E+00  -1.06183136E+00  -8.69919511E-01  -2.37132387E+00  -4.61753066E-01  -7.74293425E+00   3.76212362E-01   2.15714550E-02  -2.05428362E+00  -4.57004137E-01   4.60752103E-01   1.64384633E-01   5.19689462E-01  -1.77431774E+00  -5.85125095E+00  -2.71236746E+01  -4.87134113E-01  -7.22435346E+00  -3.23896052E+00  -4.40331378E+01  -1.44945896E+01   1.04473360E+00  -9.96462063E-01   2.12638920E-01  -6.11384098E-02  -8.16629267E-01  -1.90756254E+01  -7.69480600E+00  -1.74137337E+00  -3.04123047E+00  -1.43481207E+01   1.16356842E-01
   4.63750000E+02   5.00000000E-01   5.00000000E-01  -6.86706800E+00  -1.14257288E+00  -4.94870099E+00  -2.48317268E+00  -2.55404255E+00   8.77319358E-02  -4.07525234E+00   5.09336988E-01   1.80263421E+00   1.15983300E+00   1.88831066E+00  -1.70011427E+00  -1.01029533E+00  -1.04966945E+00  -8.66041110E-01  -2.35233464E+00  -4.46584388E-01  -7.69728120E+00   3.68447535E-01   2.15829653E-02  -2.06144179E+00  -4.49149495E-01   4.52127894E-01   1.71997479E-01   5.18248329E-01  -1.77653304E+00  -5.80673787E+00  -2.69714201E+01  -4.66244394E-01  -7.19157465E+00  -3.23453281E+00  -4.36227841E+01  -1.43081799E+01   1.04165133E+00  -1.00264066E+00   2.05230963E-01  -6.23974336E-02  -8.20669399E-01  -1.89726012E+01  -7.67887070E+00  -1.73856336E+00  -3.02227117E+00  -1.42884745E+01   1.16356842E-01
   4.81250000E+02   5.00000000E-01   5.00000000E-01  -6.82060165E+00  -1.11197033E+00  -4.92890143E+00  -2.47182258E+00  -2.54112795E+00   8.77319357E-02  -4.04260026E+00   5.24362074E-01   1.79990982E+00   1.17447283E+00   1.89241905E+00  -1.68815636E+00  -1.01366740E+00  -1.03809657E+00  -8.62674216E-01  -2.33343951E+00  -4.32000959E-01  -7.65225468E+00   3.60578438E-01   2.15929724E-02  -2.06914651E+00  -4.41705669E-01   4.43249989E-01   1.79194883E-01   5.16476633E-01  -1.77915887E+00  -5.76203551E+00  -2.68204443E+01  -4.45325305E-01  -7.15920039E+00  -3.23047604E+00  -4.32166850E+01  -1.41240729E+01   1.03857133E+00  -1.00924440E+00   1.97286310E-01  -6.36293642E-02  -8.24402280E-01  -1.88717250E+01  -7.66272176E+00  -1.73552611E+00  -3.00375087E+00  -1.42291530E+01   1.16356842E-01
   4.98750000E+02   5.00000000E-01   5.00000000E-01  -6.77436882E+00  -1.08244773E+00  -4.90921041E+00  -2.46036907E+00  -2.52812464E+00   8.77319355E-02  -4.01063481E+00   5.39412226E-01   1.79737948E+00   1.18913427E+00   1.89664849E+00  -1.67677963E+00  -1.01747505E+00  -1.02710824E+00  -8.59815360E-01  -2.31463504E+00  -4.17960188E-01  -7.60784898E+00   3.52608271E-01   2.16017373E-02  -2.07739939E+00  -4.34666829E-01   4.34121852E-01   1.85982485E-01   5.14378913E-01  -1.78219344E+00  -5.71712642E+00  -2.66707257E+01  -4.24381479E-01  -7.12722416E+00  -3.22678501E+00  -4.28147550E+01  -1.39422052E+01   1.03549545E+00  -1.01625343E+00   1.88822713E-01  -6.48332102E-02  -8.27838553E-01  -1.87728668E+01  -7.64635107E+00  -1.73226991E+00  -2.98563029E+00  -1.41701569E+01   1.16356841E-01
   5.16250000E+02   5.00000000E-01   5.00000000E-01  -6.72836383E+00  -1.05393083E+00  -4.88962601E+00  -2.44880802E+00  -2.51502825E+00   8.77319353E-02  -3.97931800E+00   5.54493987E-01   1.79504729E+00   1.20382366E+00   1.90100411E+00  -1.66597801E+00  -1.02171439E+00  -1.01669861E+00  -8.57459648E-01  -2.29591750E+00  -4.04423674E-01  -7.56405827E+00   3.44541545E-01   2.16094830E-02  -2.08620194E+00  -4.28025453E-01   4.24748698E-01   1.92367647E-01   5.11961439E-01  -1.78563443E+00  -5.67199063E+00  -2.65222421E+01  -4.03417279E-01  -7.09563914E+00  -3.22345381E+00  -4.24169136E+01  -1.37625183E+01   1.03242609E+00  -1.02364893E+00   1.79856761E-01  -6.60080173E-02  -8.30988320E-01  -1.86759090E+01  -7.62975004E+00  -1.72880260E+00  -2.96787454E+00  -1.41114862E+01   1.16356840E-01
   5.33750000E+02   5.00000000E-01   5.00000000E-01  -6.68258229E+00  -1.02635447E+00  -4.87014718E+00  -2.43713693E+00  -2.50183609E+00   8.77319351E-02  -3.94861663E+00   5.69613169E-01   1.79291668E+00   1.21854667E+00   1.90549031E+00  -1.65574106E+00  -1.02637711E+00  -1.00685738E+00  -8.55597771E-01  -2.27728361E+00  -3.91357387E-01  -7.52087423E+00   3.36384793E-01   2.16164003E-02  -2.09555052E+00  -4.21770740E-01   4.15139066E-01   1.98361036E-01   5.09233793E-01  -1.78947604E+00  -5.62661122E+00  -2.63749708E+01  -3.82436808E-01  -7.06443653E+00  -3.22047367E+00  -4.20230838E+01  -1.35849579E+01   1.02936600E+00  -1.03141376E+00   1.70403906E-01  -6.71528679E-02  -8.33861169E-01  -1.85807439E+01  -7.61291186E+00  -1.72513161E+00  -2.95045309E+00  -1.40531409E+01   1.16356839E-01
   5.51250000E+02   5.00000000E-01   5.00000000E-01  -6.63702213E+00  -9.99662599E-01  -4.85077407E+00  -2.42535665E+00  -2.48854882E+00   8.77319349E-02  -3.91850211E+00   5.84773202E-01   1.79098870E+00   1.23330660E+00   1.91010917E+00  -1.64605165E+00  -1.03144818E+00  -9.97567566E-01  -8.54213707E-01  -2.25873120E+00  -3.78731805E-01  -7.47828417E+00   3.28147058E-01   2.16226550E-02  -2.10543244E+00  -4.15887453E-01   4.05305983E-01   2.03977782E-01   5.06210030E-01  -1.79370671E+00  -5.58097898E+00  -2.62288885E+01  -3.61443915E-01  -7.03360439E+00  -3.21783128E+00  -4.16331915E+01  -1.34094735E+01   1.02631803E+00  -1.03953311E+00   1.60478499E-01  -6.82668806E-02  -8.36466202E-01  -1.84872714E+01  -7.59583340E+00  -1.72126398E+00  -2.93333980E+00  -1.39951208E+01   1.16356837E-01
   5.68750000E+02   5.00000000E-01   5.00000000E-01  -6.59168384E+00  -9.73807735E-01  -4.83150815E+00  -2.41347183E+00  -2.47517089E+00   8.77319347E-02  -3.88895018E+00   5.99974527E-01   1.78926147E+00   1.24810378E+00   1.91485974E+00  -1.63688570E+00  -1.03690556E+00  -9.88805177E-01  -8.53284437E-01  -2.24025941E+00  -3.66521702E-01  -7.43627061E+00   3.19839769E-01   2.16283958E-02  -2.11582504E+00  -4.10355955E-01   3.95266928E-01   2.09237443E-01   5.02908640E-01  -1.79830873E+00  -5.53509401E+00  -2.60839709E+01  -3.40442207E-01  -7.00312741E+00  -3.21550863E+00  -4.12471647E+01  -1.32360180E+01   1.02328501E+00  -1.04799465E+00   1.50093826E-01  -6.93492101E-02  -8.38812052E-01  -1.83953976E+01  -7.57851579E+00  -1.71720638E+00  -2.91651248E+00  -1.39374252E+01   1.16356834E-01
   5.86250000E+02   5.00000000E-01   5.00000000E-01  -6.54656978E+00  -9.48749480E-01  -4.81235175E+00  -2.40148987E+00  -2.46170950E+00   8.77319344E-02  -3.85994011E+00   6.15215360E-01   1.78773091E+00   1.26293636E+00   1.91973892E+00  -1.62821435E+00  -1.04272241E+00  -9.80541466E-01  -8.52782172E-01  -2.22186831E+00  -3.54705445E-01  -7.39481289E+00   3.11475895E-01   2.16337621E-02  -2.12669867E+00  -4.05153694E-01   3.85042335E-01   2.14162515E-01   4.99351058E-01  -1.80326011E+00  -5.48896329E+00  -2.59401940E+01  -3.19435060E-01  -6.97298811E+00  -3.21348450E+00  -4.08649338E+01  -1.30645472E+01   1.02026969E+00  -1.05678814E+00   1.39262152E-01  -7.03990480E-02  -8.40906907E-01  -1.83050346E+01  -7.56096340E+00  -1.71296511E+00  -2.89995230E+00  -1.38800534E+01   1.16356830E-01
   6.03750000E+02   5.00000000E-01   5.00000000E-01  -6.50168260E+00  -9.24452414E-01  -4.79330737E+00  -2.38941854E+00  -2.44817225E+00   8.77319342E-02  -3.83145366E+00   6.30493573E-01   1.78639262E+00   1.27780215E+00   1.92474325E+00  -1.62000820E+00  -1.04887126E+00  -9.72747061E-01  -8.52678496E-01  -2.20355816E+00  -3.43263904E-01  -7.35389003E+00   3.03068565E-01   2.16388893E-02  -2.13802273E+00  -4.00257783E-01   3.74653023E-01   2.18775857E-01   4.95559086E-01  -1.80853830E+00  -5.44259515E+00  -2.57975341E+01  -2.98425623E-01  -6.94316898E+00  -3.21173741E+00  -4.04864317E+01  -1.28950195E+01   1.01727476E+00  -1.06590457E+00   1.27994765E-01  -7.14156246E-02  -8.42758536E-01  -1.82161012E+01  -7.54318146E+00  -1.70854613E+00  -2.88364267E+00  -1.38230044E+01   1.16356823E-01
   6.21250000E+02   5.00000000E-01   5.00000000E-01  -6.45702350E+00  -9.00883815E-01  -4.77437683E+00  -2.37726332E+00  -2.43456441E+00   8.77319339E-02  -3.80347404E+00   6.45808986E-01   1.78524423E+00   1.29270096E+00   1.92987131E+00  -1.61224193E+00  -1.05532870E+00  -9.65396672E-01  -8.52949071E-01  -2.18532845E+00  -3.32179253E-01  -7.31348426E+00   2.94629578E-01   2.16439113E-02  -2.14977263E+00  -3.95647849E-01   3.64117345E-01   2.23097837E-01   4.91552046E-01  -1.81412448E+00  -5.39599250E+00  -2.56559686E+01  -2.77416835E-01  -6.91365502E+00  -3.21024897E+00  -4.01115948E+01  -1.27273957E+01   1.01430304E+00  -1.07533522E+00   1.16302025E-01  -7.23982114E-02  -8.44374301E-01  -1.81285236E+01  -7.52517321E+00  -1.70395509E+00  -2.86756824E+00  -1.37662771E+01   1.16356813E-01