 TITLE = "Mineral Saturation State" 
VARIABLES = "X"          "Y"              "Z"            "Forsterite"     "Fayalite"       "Saponite(Mg)"   "Enstatite(alph" "Ferrosilite(al" "Anorthite"      "Albite(low)"    "Clinochlore"    "Sudoite"        "Montmorillonit" "Kaolinite"      "Tremolite"      "Pargasite"      "Anhydrite"      "Epidote"        "Scolecite"      "Pyrite"         "FeS(am)"        "Quartz(alpha)" 
 ZONE I=         100 , J=           1 , K=           1  F=POINT
   1.75000000E+01   5.00000000E-01   5.00000000E-01  -8.11035003E+00  -1.38321587E+00   1.84370809E-02  -3.05901925E+00  -7.55338236E-01  -9.54958042E+00  -5.23041253E-01   2.21591572E-02  -2.60470247E+00  -9.79250276E-01  -2.55880438E+00  -8.60304011E+00  -3.21280845E+01  -9.70329691E-01  -7.06568582E-07  -4.35925019E+00  -3.14270972E+01  -3.46771302E+00   7.10496229E-01
   5.25000000E+01   5.00000000E-01   5.00000000E-01  -8.11389876E+00  -9.04294937E-01   1.83777438E-02  -3.04554342E+00  -4.91653585E-01  -9.14284795E+00  -2.90869297E-01   2.21500442E-02  -2.09548867E+00  -5.92508095E-01  -2.18727488E+00  -8.66649900E+00  -3.15729823E+01  -9.36953287E-01   1.57691744E-07  -3.99794867E+00  -3.08152605E+01  -3.23652554E+00   7.55053253E-01
   8.75000000E+01   5.00000000E-01   5.00000000E-01  -8.05309115E+00  -6.29188623E-01   1.83315518E-02  -3.01896582E+00  -3.49115727E-01  -8.91040190E+00  -2.21463886E-01   2.20975559E-02  -1.89036278E+00  -4.55055579E-01  -2.03985442E+00  -8.67423359E+00  -3.11373649E+01  -9.02506470E-01   2.02573691E-08  -3.84808889E+00  -3.03572451E+01  -3.11481630E+00   7.61191108E-01
   1.22500000E+02   5.00000000E-01   5.00000000E-01  -7.98418869E+00  -4.56981409E-01   1.82250703E-02  -2.99102444E+00  -2.60869274E-01  -8.70675008E+00  -1.76539651E-01   2.20312646E-02  -1.73121059E+00  -3.55188091E-01  -1.92651709E+00  -8.67577089E+00  -3.07273008E+01  -8.67055038E-01   1.01184951E-09  -3.73140949E+00  -2.99679078E+01  -3.04940789E+00   7.61702581E-01
   1.57500000E+02   5.00000000E-01   5.00000000E-01  -7.91355007E+00  -3.43462810E-01   1.80676641E-02  -2.96302892E+00  -2.02934626E-01  -8.51522196E+00  -1.40315572E-01   2.19467341E-02  -1.58865045E+00  -2.68767778E-01  -1.82560290E+00  -8.67654261E+00  -3.03317899E+01  -8.30686256E-01  -6.63180796E-09  -3.62751674E+00  -2.96198351E+01  -3.01702654E+00   7.60334067E-01
   1.92500000E+02   5.00000000E-01   5.00000000E-01  -7.84166257E+00  -2.65687484E-01   1.78747755E-02  -2.93506420E+00  -1.63675926E-01  -8.33424188E+00  -1.11398940E-01   2.18509074E-02  -1.46019262E+00  -1.93719726E-01  -1.73525750E+00  -8.67669752E+00  -2.99494402E+01  -7.93496638E-01  -1.30420582E-08  -3.53453355E+00  -2.93000836E+01  -3.00544183E+00   7.57409767E-01
   2.27500000E+02   5.00000000E-01   5.00000000E-01  -7.76872613E+00  -2.10906252E-01   1.76647076E-02  -2.90715529E+00  -1.36639323E-01  -8.16295381E+00  -8.90889666E-02   2.17511643E-02  -1.34467010E+00  -1.29046838E-01  -1.65460099E+00  -8.67607420E+00  -2.95792753E+01  -7.55583831E-01  -1.87081995E-08  -3.45146975E+00  -2.90013312E+01  -3.00775374E+00   7.53086161E-01
   2.62500000E+02   5.00000000E-01   5.00000000E-01  -7.69507322E+00  -1.71550927E-01   1.74559991E-02  -2.87935530E+00  -1.17923490E-01  -8.00016655E+00  -7.23623985E-02   2.16521986E-02  -1.24032137E+00  -7.32610136E-02  -1.58231547E+00  -8.67462530E+00  -2.92201060E+01  -7.17041803E-01  -2.34205669E-08  -3.37692350E+00  -2.87190124E+01  -3.01980797E+00   7.47595795E-01
   2.97500000E+02   5.00000000E-01   5.00000000E-01  -7.62106722E+00  -1.42863685E-01   1.72582088E-02  -2.85172667E+00  -1.05026284E-01  -7.84463230E+00  -6.01411318E-02   2.15580062E-02  -1.14525667E+00  -2.47818067E-02  -1.51699288E+00  -8.67237683E+00  -2.88707398E+01  -6.77958413E-01  -2.71252877E-08  -3.30942384E+00  -2.84501039E+01  -3.03895893E+00   7.41183326E-01
   3.32500000E+02   5.00000000E-01   5.00000000E-01  -7.54703097E+00  -1.21716558E-01   1.70760077E-02  -2.82432507E+00  -9.62741725E-02  -7.69523575E+00  -5.14657271E-02   2.14705102E-02  -1.05778554E+00   1.78003461E-02  -1.45737381E+00  -8.66936683E+00  -2.85301118E+01  -6.38414401E-01  -2.98720132E-08  -3.24765909E+00  -2.81925183E+01  -3.06344593E+00   7.34066153E-01
   3.67500000E+02   5.00000000E-01   5.00000000E-01  -7.47322538E+00  -1.05984929E-01   1.69134685E-02  -2.79719388E+00  -9.05141054E-02  -7.55104829E+00  -4.55432097E-02   2.13894796E-02  -9.76512873E-01   5.56506733E-02  -1.40241634E+00  -8.66561904E+00  -2.81973186E+01  -5.98483185E-01  -3.17394510E-08  -3.19054141E+00  -2.79447670E+01  -3.09205759E+00   7.26424155E-01
   4.02500000E+02   5.00000000E-01   5.00000000E-01  -7.39985398E+00  -9.41940440E-02   1.67704643E-02  -2.77036607E+00  -8.69363890E-02  -7.41131479E+00  -4.17389976E-02   2.13146601E-02  -9.00315179E-01   8.97029603E-02  -1.35128115E+00  -8.66115374E+00  -2.78716085E+01  -5.58231107E-01  -3.28008161E-08  -3.13719271E+00  -2.77057585E+01  -3.12393907E+00   7.18400460E-01
   4.37500000E+02   5.00000000E-01   5.00000000E-01  -7.32707143E+00  -8.53035728E-02   1.66452331E-02  -2.74386530E+00  -8.49637932E-02  -7.27542853E+00  -3.95517980E-02   2.12454430E-02  -8.28300816E-01   1.20696161E-01  -1.30330092E+00  -8.65598533E+00  -2.75523605E+01  -5.17717890E-01  -3.31227811E-08  -3.08691337E+00  -2.74746710E+01  -3.15847442E+00   7.10107775E-01
   4.72500000E+02   5.00000000E-01   5.00000000E-01  -7.25499357E+00  -7.85715569E-02   1.65357631E-02  -2.71770764E+00  -8.41802239E-02  -7.14290230E+00  -3.85859764E-02   2.11809476E-02  -7.59762893E-01   1.49215093E-01  -1.25794513E+00  -8.65012374E+00  -2.72390604E+01  -4.76997186E-01  -3.27651190E-08  -3.03914664E+00  -2.72508697E+01  -3.19521170E+00   7.01634989E-01
   5.07500000E+02   5.00000000E-01   5.00000000E-01  -7.18370663E+00  -7.34653152E-02   1.64398041E-02  -2.69190346E+00  -8.42834631E-02  -7.01334205E+00  -3.85276212E-02   2.11203330E-02  -6.94136124E-01   1.75725911E-01  -1.21478841E+00  -8.64357852E+00  -2.69312796E+01  -4.36117144E-01  -3.17830571E-08  -2.99344695E+00  -2.70338516E+01  -3.23381369E+00   6.93052588E-01
   5.42500000E+02   5.00000000E-01   5.00000000E-01  -7.11327426E+00  -6.96008672E-02   1.63551879E-02  -2.66645882E+00  -8.50527200E-02  -6.88642658E+00  -3.91258098E-02   2.10628419E-02  -6.30964087E-01   2.00603662E-01  -1.17348625E+00  -8.63636073E+00  -2.66286585E+01  -3.95120962E-01  -3.02312151E-08  -2.94945526E+00  -2.68232068E+01  -3.27402444E+00   6.84416978E-01
   5.77500000E+02   5.00000000E-01   5.00000000E-01  -7.04374275E+00  -6.67008774E-02   1.62800040E-02  -2.64137648E+00  -8.63260127E-02  -6.76189230E+00  -4.01787055E-02   2.10078111E-02  -5.69875029E-01   2.24152636E-01  -1.13375711E+00  -8.62848397E+00  -2.63308936E+01  -3.54047391E-01  -2.81662367E-08  -2.90688063E+00  -2.66185928E+01  -3.31564597E+00   6.75773655E-01
   6.12500000E+02   5.00000000E-01   5.00000000E-01  -6.97514471E+00  -6.45648620E-02   1.62126522E-02  -2.61665661E+00  -8.79841669E-02  -6.63952232E+00  -4.15237509E-02   2.09546712E-02  -5.10564878E-01   2.46620606E-01  -1.09536980E+00  -8.61996477E+00  -2.60377278E+01  -3.12931194E-01  -2.56484379E-08  -2.86548712E+00  -2.64197155E+01  -3.35852192E+00   6.67159414E-01
   6.47500000E+02   5.00000000E-01   5.00000000E-01  -6.90750145E+00  -6.30477214E-02   1.61518389E-02  -2.59229731E+00  -8.99393506E-02  -6.51913881E+00  -4.30310471E-02   2.09029350E-02  -4.52785950E-01   2.68208315E-01  -1.05813518E+00  -8.61082228E+00  -2.57489431E+01  -2.71803542E-01  -2.27425629E-08  -2.82508477E+00  -2.62263166E+01  -3.40252568E+00   6.58603806E-01
   6.82500000E+02   5.00000000E-01   5.00000000E-01  -6.84082455E+00  -6.20440785E-02   1.60965478E-02  -2.56829488E+00  -9.21267775E-02  -6.40059790E+00  -4.45990060E-02   2.08521863E-02  -3.96339733E-01   2.89075556E-01  -1.02190074E+00  -8.60107754E+00  -2.54643557E+01  -2.30692356E-01  -1.95172440E-08  -2.78552345E+00  -2.60381640E+01  -3.44755189E+00   6.50130067E-01
   7.17500000E+02   5.00000000E-01   5.00000000E-01  -6.77511683E+00  -6.14767748E-02   1.60459985E-02  -2.54464406E+00  -9.44986576E-02  -6.28378600E+00  -4.61514427E-02   2.08020714E-02  -3.41072239E-01   3.09345108E-01  -9.86547204E-01  -8.59075236E+00  -2.51838114E+01  -1.89622602E-01  -1.60435822E-08  -2.74668871E+00  -2.58550457E+01  -3.49351007E+00   6.41755709E-01
   7.52500000E+02   5.00000000E-01   5.00000000E-01  -6.71037305E+00  -6.12884284E-02   1.59995988E-02  -2.52133813E+00  -9.70197631E-02  -6.16861696E+00  -4.76353959E-02   2.07522991E-02  -2.86870649E-01   3.29105592E-01  -9.51986032E-01  -8.57986807E+00  -2.49071820E+01  -1.48616535E-01  -1.23929100E-08  -2.70849843E+00  -2.56767646E+01  -3.54032008E+00   6.33492944E-01
   7.87500000E+02   5.00000000E-01   5.00000000E-01  -6.64658058E+00  -6.14353014E-02   1.59568895E-02  -2.49836907E+00  -9.96641691E-02  -6.05502936E+00  -4.90191159E-02   2.07026458E-02  -2.33660196E-01   3.48414095E-01  -9.18157107E-01  -8.56844441E+00  -2.46343620E+01  -1.07693915E-01  -8.63403873E-09  -2.67089983E+00  -2.55031356E+01  -3.58790885E+00   6.25349065E-01
   8.22500000E+02   5.00000000E-01   5.00000000E-01  -6.58372010E+00  -6.18829348E-02   1.59174900E-02  -2.47572771E+00  -1.02412849E-01  -5.94298364E+00  -5.02898359E-02   2.06529628E-02  -1.81400598E-01   3.67299168E-01  -8.85026111E-01  -8.55649851E+00  -2.43652652E+01  -6.68721881E-02  -4.83049365E-09  -2.63386610E+00  -2.53339830E+01  -3.63620807E+00   6.17326892E-01
   8.57500000E+02   5.00000000E-01   5.00000000E-01  -6.52176655E+00  -6.26031316E-02   1.58810640E-02  -2.45340390E+00  -1.05251889E-01  -5.83245884E+00  -5.14511319E-02   2.06031767E-02  -1.30081717E-01   3.85764463E-01  -8.52581317E-01  -8.54404416E+00  -2.40998209E+01  -2.61666564E-02  -1.03803910E-09  -2.59739260E+00  -2.51691391E+01  -3.68515270E+00   6.09425314E-01
   8.92500000E+02   5.00000000E-01   5.00000000E-01  -6.46069023E+00  -6.35719476E-02   1.58473361E-02  -2.43138675E+00  -1.08171149E-01  -5.72344896E+00  -5.25198500E-02   2.05532741E-02  -7.97184632E-02   4.03793075E-01  -8.20829792E-01  -8.53109119E+00  -2.38379702E+01   1.44093659E-02   2.69709891E-09  -2.56149258E+00  -2.50084431E+01  -3.73468014E+00   6.01639965E-01
   9.27500000E+02   5.00000000E-01   5.00000000E-01  -6.40045795E+00  -6.47684139E-02   1.58161553E-02  -2.40966483E+00  -1.11163239E-01  -5.61595909E+00  -5.35227224E-02   2.05032721E-02  -3.03451372E-02   4.21352391E-01  -7.89793172E-01  -8.51764518E+00  -2.35796626E+01   5.48443991E-02   6.33894865E-09  -2.52619256E+00  -2.48517402E+01  -3.78472979E+00   5.93963993E-01
   9.62500000E+02   5.00000000E-01   5.00000000E-01  -6.34103438E+00  -6.61737750E-02   1.57875581E-02  -2.38822640E+00  -1.14222734E-01  -5.51000153E+00  -5.44928778E-02   2.04531891E-02   1.79905084E-02   4.38399154E-01  -7.59503224E-01  -8.50370726E+00  -2.33248520E+01   9.51286430E-02   9.86195931E-09  -2.49152761E+00  -2.46988815E+01  -3.83524299E+00   5.86388857E-01
   9.97500000E+02   5.00000000E-01   5.00000000E-01  -6.28238326E+00  -6.77710893E-02   1.57617125E-02  -2.36705970E+00  -1.17345597E-01  -5.40559193E+00  -5.54664834E-02   2.04030464E-02   6.52333155E-02   4.54884422E-01  -7.29997399E-01  -8.48927462E+00  -2.30734939E+01   1.35253819E-01   1.32500228E-08  -2.45753678E+00  -2.45497236E+01  -3.88616311E+00   5.78905080E-01
   1.03250000E+03   5.00000000E-01   5.00000000E-01  -6.22446876E+00  -6.95450725E-02   1.57386233E-02  -2.34615330E+00  -1.20528794E-01  -5.30274567E+00  -5.64797396E-02   2.03529340E-02   1.11326727E-01   4.70758103E-01  -7.01314536E-01  -8.47434163E+00  -2.28255421E+01   1.75213004E-01   1.64953102E-08  -2.42425886E+00  -2.44041286E+01  -3.93743572E+00   5.71502874E-01
   1.06750000E+03   5.00000000E-01   5.00000000E-01  -6.16725652E+00  -7.14819395E-02   1.57178673E-02  -2.32549634E+00  -1.23769957E-01  -5.20147491E+00  -5.75664500E-02   2.03030622E-02   1.56217721E-01   4.85972658E-01  -6.73491343E-01  -8.45890101E+00  -2.25809471E+01   2.15000464E-01   1.95961059E-08  -2.39172895E+00  -2.42619636E+01  -3.98900884E+00   5.64172637E-01
   1.10250000E+03   5.00000000E-01   5.00000000E-01  -6.11071412E+00  -7.35689546E-02   1.56989208E-02  -2.30507856E+00  -1.27066920E-01  -5.10178708E+00  -5.87563148E-02   2.02536502E-02   1.99859156E-01   5.00485567E-01  -6.46560470E-01  -8.44294326E+00  -2.23396543E+01   2.54611476E-01   2.25540268E-08  -2.35997641E+00  -2.41231011E+01  -4.04083291E+00   5.56905442E-01
   1.13750000E+03   5.00000000E-01   5.00000000E-01  -6.05481123E+00  -7.57938717E-02   1.56817881E-02  -2.28489016E+00  -1.30417225E-01  -5.00368424E+00  -6.00738067E-02   2.02047471E-02   2.42210449E-01   5.14260869E-01  -6.20549649E-01  -8.42645516E+00  -2.21016034E+01   2.94042157E-01   2.53720509E-08  -2.32902391E+00  -2.39874185E+01  -4.09286080E+00   5.49693459E-01
   1.17250000E+03   5.00000000E-01   5.00000000E-01  -5.99951978E+00  -7.81445550E-02   1.56672605E-02  -2.26492174E+00  -1.33817810E-01  -4.90716262E+00  -6.15374608E-02   2.01561710E-02   2.83238357E-01   5.27270200E-01  -5.95480984E-01  -8.40941939E+00  -2.18667279E+01   3.33289293E-01   2.80533687E-08  -2.29888661E+00  -2.38547984E+01  -4.14504777E+00   5.42530197E-01
   1.20750000E+03   5.00000000E-01   5.00000000E-01  -5.94481431E+00  -8.06089273E-02   1.56563202E-02  -2.24516455E+00  -1.37265009E-01  -4.81221162E+00  -6.31594932E-02   2.01076868E-02   3.22919074E-01   5.39493569E-01  -5.71369706E-01  -8.39181639E+00  -2.16349546E+01   3.72350166E-01   3.06013225E-08  -2.26957131E+00  -2.37251280E+01  -4.19735146E+00   5.35410455E-01
   1.24250000E+03   5.00000000E-01   5.00000000E-01  -5.89067291E+00  -8.31752528E-02   1.56484807E-02  -2.22561110E+00  -1.40754879E-01  -4.71881207E+00  -6.49456899E-02   2.00594646E-02   3.61242154E-01   5.50920016E-01  -5.48222165E-01  -8.37362913E+00  -2.14062036E+01   4.11222377E-01   3.30194422E-08  -2.24107506E+00  -2.35982992E+01  -4.24973183E+00   5.28329944E-01
   1.27750000E+03   5.00000000E-01   5.00000000E-01  -5.83707678E+00  -8.58314412E-02   1.56417866E-02  -2.20625505E+00  -1.44282934E-01  -4.62693710E+00  -6.68961670E-02   2.00120394E-02   3.98209075E-01   5.61546473E-01  -5.26036848E-01  -8.35484297E+00  -2.11803888E+01   4.49903680E-01   3.53083513E-08  -2.21338619E+00  -2.34742084E+01  -4.30215074E+00   5.21285128E-01
   1.31250000E+03   5.00000000E-01   5.00000000E-01  -5.78400867E+00  -8.85633746E-02   1.56352326E-02  -2.18709025E+00  -1.47843150E-01  -4.53655594E+00  -6.90066147E-02   1.99656064E-02   4.33825569E-01   5.71375227E-01  -5.04808714E-01  -8.33543868E+00  -2.09574195E+01   4.88391825E-01   3.74631464E-08  -2.18648783E+00  -2.33527560E+01  -4.35457134E+00   5.14273536E-01
   1.34750000E+03   5.00000000E-01   5.00000000E-01  -5.73145173E+00  -9.13539868E-02   1.56305205E-02  -2.16811005E+00  -1.51427346E-01  -4.44763626E+00  -7.12688582E-02   1.99195635E-02   4.68096786E-01   5.80412633E-01  -4.84531816E-01  -8.31538761E+00  -2.07372008E+01   5.26684417E-01   3.94754216E-08  -2.16035990E+00  -2.32338463E+01  -4.40695771E+00   5.07294081E-01
   1.38250000E+03   5.00000000E-01   5.00000000E-01  -5.67938808E+00  -9.41821308E-02   1.56345418E-02  -2.14930632E+00  -1.55024395E-01  -4.36014747E+00  -7.36715877E-02   1.98718633E-02   5.01020564E-01   5.88667360E-01  -4.65202953E-01  -8.29464477E+00  -2.05196355E+01   5.64778781E-01   4.13331082E-08  -2.13498200E+00  -2.31173874E+01  -4.45927453E+00   5.00347500E-01
   1.41750000E+03   5.00000000E-01   5.00000000E-01  -5.62780253E+00  -9.70258701E-02   1.56531318E-02  -2.13067188E+00  -1.58622413E-01  -4.27405236E+00  -7.61983485E-02   1.98208852E-02   5.32605236E-01   5.96155226E-01  -4.46811953E-01  -8.27316705E+00  -2.03046207E+01   6.02671821E-01   4.30309571E-08  -2.11032613E+00  -2.30032913E+01  -4.51148803E+00   4.93435273E-01
   1.45250000E+03   5.00000000E-01   5.00000000E-01  -5.57669590E+00  -9.98728854E-02   1.56676623E-02  -2.11220943E+00  -1.62216248E-01  -4.18927810E+00  -7.88221849E-02   1.97720456E-02   5.62931432E-01   6.02913688E-01  -4.29308695E-01  -8.25097963E+00  -2.00920400E+01   6.40359829E-01   4.45850673E-08  -2.08633229E+00  -2.28914746E+01  -4.56356873E+00   4.86555042E-01
   1.48750000E+03   5.00000000E-01   5.00000000E-01  -5.52606098E+00  -1.02698577E-01   1.56706544E-02  -2.09391714E+00  -1.65794119E-01  -4.10577046E+00  -8.15230429E-02   1.97270589E-02   5.92039506E-01   6.08965336E-01  -4.12666546E-01  -8.22807089E+00  -1.98817823E+01   6.77838417E-01   4.59628937E-08  -2.06295784E+00  -2.27818552E+01  -4.61548327E+00   4.79705450E-01
   1.52250000E+03   5.00000000E-01   5.00000000E-01  -5.47587358E+00  -1.05460273E-01   1.56847159E-02  -2.07578180E+00  -1.69332347E-01  -4.02351249E+00  -8.42876656E-02   1.96789063E-02   6.19888380E-01   6.14313076E-01  -3.96902687E-01  -8.20434081E+00  -1.96737460E+01   7.15102475E-01   4.71222298E-08  -2.04019148E+00  -2.26743524E+01  -4.66719377E+00   4.72890864E-01
   1.55750000E+03   5.00000000E-01   5.00000000E-01  -5.42612169E+00  -1.08123684E-01   1.57192196E-02  -2.05779632E+00  -1.72811538E-01  -3.94245865E+00  -8.70884485E-02   1.96249203E-02   6.46492388E-01   6.18984462E-01  -3.82001007E-01  -8.17972873E+00  -1.94678151E+01   7.52146025E-01   4.80752244E-08  -2.01799330E+00  -2.25688910E+01  -4.71866765E+00   4.66115484E-01
   1.59250000E+03   5.00000000E-01   5.00000000E-01  -5.37681967E+00  -1.10672542E-01   1.57414473E-02  -2.03997031E+00  -1.76224822E-01  -3.86250453E+00  -8.98819560E-02   1.95746253E-02   6.71987210E-01   6.23041515E-01  -3.67878844E-01  -8.15429266E+00  -1.92638524E+01   7.88962031E-01   4.88489314E-08  -1.99627129E+00  -2.24654008E+01  -4.76987894E+00   4.59376492E-01
   1.62750000E+03   5.00000000E-01   5.00000000E-01  -5.32796277E+00  -1.13067258E-01   1.57434111E-02  -2.02230290E+00  -1.79552807E-01  -3.78358986E+00  -9.26429231E-02   1.95296246E-02   6.96416250E-01   6.26510199E-01  -3.54507806E-01  -8.12801166E+00  -1.90617362E+01   8.25542424E-01   4.93942886E-08  -1.97497566E+00  -2.23638101E+01  -4.82079249E+00   4.52672804E-01
   1.66250000E+03   5.00000000E-01   5.00000000E-01  -5.27953328E+00  -1.15253360E-01   1.57404308E-02  -2.00478447E+00  -1.82766390E-01  -3.70568249E+00  -9.53506140E-02   1.94847502E-02   7.19760588E-01   6.29401983E-01  -3.41892873E-01  -8.10079570E+00  -1.88613508E+01   8.61878076E-01   4.96825006E-08  -1.95408001E+00  -2.22640488E+01  -4.87136928E+00   4.46007885E-01
   1.69750000E+03   5.00000000E-01   5.00000000E-01  -5.23152639E+00  -1.17184812E-01   1.57328462E-02  -1.98741210E+00  -1.85840998E-01  -3.62871986E+00  -9.79698903E-02   1.94395446E-02   7.42060159E-01   6.31753305E-01  -3.30004043E-01  -8.07259826E+00  -1.86625653E+01   8.97958711E-01   4.97254186E-08  -1.93352792E+00  -2.21660513E+01  -4.92157520E+00   4.39384588E-01
   1.73250000E+03   5.00000000E-01   5.00000000E-01  -5.18394332E+00  -1.18816367E-01   1.57116168E-02  -1.97018670E+00  -1.88753259E-01  -3.55262548E+00  -1.00461433E-01   1.93962454E-02   7.63381377E-01   6.33608177E-01  -3.18796930E-01  -8.04339653E+00  -1.84652417E+01   9.33772862E-01   4.95221661E-08  -1.91325049E+00  -2.20697551E+01  -4.97137680E+00   4.32804156E-01
   1.76750000E+03   5.00000000E-01   5.00000000E-01  -5.13677702E+00  -1.20091016E-01   1.56798657E-02  -1.95310428E+00  -1.91473214E-01  -3.47734125E+00  -1.02791836E-01   1.93533372E-02   7.83750018E-01   6.34996839E-01  -3.08250438E-01  -8.01312820E+00  -1.82692459E+01   9.69307882E-01   4.90557773E-08  -1.89319557E+00  -2.19750981E+01  -5.02073657E+00   4.26269262E-01
   1.80250000E+03   5.00000000E-01   5.00000000E-01  -5.09001851E+00  -1.20946853E-01   1.56460974E-02  -1.93615910E+00  -1.93967680E-01  -3.40281242E+00  -1.04925841E-01   1.93077599E-02   8.03181292E-01   6.35949608E-01  -2.98348411E-01  -7.98171338E+00  -1.80744415E+01   1.00454993E+00   4.83227341E-08  -1.87331264E+00  -2.18820207E+01  -5.06961629E+00   4.19784127E-01
   1.83750000E+03   5.00000000E-01   5.00000000E-01  -5.04366105E+00  -1.21321138E-01   1.56179453E-02  -1.91934618E+00  -1.96202732E-01  -3.32897821E+00  -1.06823431E-01   1.92568143E-02   8.21699395E-01   6.36503085E-01  -2.89068655E-01  -7.94907304E+00  -1.78806864E+01   1.03948399E+00   4.73276562E-08  -1.85354434E+00  -2.17904663E+01  -5.11797854E+00   4.13353642E-01
   1.87250000E+03   5.00000000E-01   5.00000000E-01  -4.99770297E+00  -1.21152800E-01   1.55968191E-02  -1.90266330E+00  -1.98145527E-01  -3.25576571E+00  -1.08439103E-01   1.91997051E-02   8.39350776E-01   6.36702730E-01  -2.80376049E-01  -7.91514404E+00  -1.76878311E+01   1.07409387E+00   4.60799090E-08  -1.83382144E+00  -2.17003812E+01  -5.16578731E+00   4.06982201E-01
   1.90750000E+03   5.00000000E-01   5.00000000E-01  -4.95215428E+00  -1.20387862E-01   1.55662247E-02  -1.88611545E+00  -1.99768161E-01  -3.18307516E+00  -1.09719113E-01   1.91408637E-02   8.56235129E-01   6.36610199E-01  -2.72205994E-01  -7.87991211E+00  -1.74957143E+01   1.10836223E+00   4.45956872E-08  -1.81405053E+00  -2.16117153E+01  -5.21300948E+00   4.00671424E-01
   1.94250000E+03   5.00000000E-01   5.00000000E-01  -4.90702515E+00  -1.18969164E-01   1.55070112E-02  -1.86970840E+00  -2.01041862E-01  -3.11080690E+00  -1.10612244E-01   1.90851897E-02   8.72450969E-01   6.36282732E-01  -2.64496071E-01  -7.84336599E+00  -1.73041739E+01   1.14227066E+00   4.28818999E-08  -1.79413953E+00  -2.15244201E+01  -5.25961042E+00   3.94421494E-01
   1.97750000E+03   5.00000000E-01   5.00000000E-01  -4.86231610E+00  -1.16829863E-01   1.54138996E-02  -1.85344227E+00  -2.01932226E-01  -3.03888346E+00  -1.11074886E-01   1.90332188E-02   8.88049941E-01   6.35761300E-01  -2.57210734E-01  -7.80545137E+00  -1.71130552E+01   1.17579982E+00   4.09438825E-08  -1.77401685E+00  -2.14384479E+01  -5.30555217E+00   3.88234178E-01
   2.01250000E+03   5.00000000E-01   5.00000000E-01  -4.81802187E+00  -1.13900051E-01   1.52930782E-02  -1.83731303E+00  -2.02402041E-01  -2.96724098E+00  -1.11064770E-01   1.89820571E-02   9.03055139E-01   6.35081475E-01  -2.50329251E-01  -7.76608207E+00  -1.69222080E+01   1.20892953E+00   3.87978713E-08  -1.75362175E+00  -2.13537536E+01  -5.35079718E+00   3.82113799E-01
   2.04750000E+03   5.00000000E-01   5.00000000E-01  -4.77413798E+00  -1.10115295E-01   1.51533235E-02  -1.82131613E+00  -2.02415998E-01  -2.89581507E+00  -1.10535738E-01   1.89281301E-02   9.17491924E-01   6.34284543E-01  -2.43827890E-01  -7.72516871E+00  -1.67314836E+01   1.24163883E+00   3.64705511E-08  -1.73289119E+00  -2.12702967E+01  -5.39531203E+00   3.76066358E-01
   2.08250000E+03   5.00000000E-01   5.00000000E-01  -4.73066467E+00  -1.05422481E-01   1.49987334E-02  -1.80544933E+00  -2.01944371E-01  -2.82453332E+00  -1.09437012E-01   1.88693651E-02   9.31406701E-01   6.33421324E-01  -2.37670059E-01  -7.68264161E+00  -1.65407348E+01   1.27390608E+00   3.39946959E-08  -1.71175373E+00  -2.11880420E+01  -5.43906951E+00   3.70098014E-01
   2.11750000E+03   5.00000000E-01   5.00000000E-01  -4.68760491E+00  -9.97807289E-02   1.48296787E-02  -1.78971196E+00  -2.00963809E-01  -2.75332178E+00  -1.07717863E-01   1.88048777E-02   9.44857501E-01   6.32545689E-01  -2.31812701E-01  -7.63844980E+00  -1.63498226E+01   1.30570903E+00   3.14049652E-08  -1.69013684E+00  -2.11069595E+01  -5.48204874E+00   3.64214411E-01
   2.15250000E+03   5.00000000E-01   5.00000000E-01  -4.64496180E+00  -9.31629108E-02   1.46453764E-02  -1.77410374E+00  -1.99458165E-01  -2.68211309E+00  -1.05331902E-01   1.87341931E-02   9.57902120E-01   6.31708523E-01  -2.26213617E-01  -7.59255677E+00  -1.61586245E+01   1.33702487E+00   2.87383460E-08  -1.66797503E+00  -2.10270248E+01  -5.52423583E+00   3.58420551E-01
   2.18750000E+03   5.00000000E-01   5.00000000E-01  -4.60273734E+00  -8.55592329E-02   1.44450660E-02  -1.75862420E+00  -1.97420334E-01  -2.61085193E+00  -1.02240076E-01   1.86569238E-02   9.70592337E-01   6.30954352E-01  -2.20835101E-01  -7.54494175E+00  -1.59670415E+01   1.36783022E+00   2.60346426E-08  -1.64521548E+00  -2.09482196E+01  -5.56562557E+00   3.52720682E-01
   2.22250000E+03   5.00000000E-01   5.00000000E-01  -4.56093157E+00  -7.69817658E-02   1.42284166E-02  -1.74327239E+00  -1.94854658E-01  -2.53949999E+00  -9.84136558E-02   1.85727093E-02   9.82970275E-01   6.30318416E-01  -2.15646429E-01  -7.49560398E+00  -1.57750074E+01   1.39810103E+00   2.33359845E-08  -1.62182328E+00  -2.08705328E+01  -5.60622353E+00   3.47118032E-01
   2.25750000E+03   5.00000000E-01   5.00000000E-01  -4.51954176E+00  -6.74690932E-02   1.39957183E-02  -1.72804665E+00  -1.91779452E-01  -2.46804140E+00  -9.38377513E-02   1.84812398E-02   9.95064568E-01   6.29823205E-01  -2.10626611E-01  -7.44456823E+00  -1.55824975E+01   1.42781231E+00   2.06853585E-08  -1.59778724E+00  -2.07939612E+01  -5.64604815E+00   3.41614399E-01
   2.29250000E+03   5.00000000E-01   5.00000000E-01  -4.47856134E+00  -5.70904639E-02   1.37480394E-02  -1.71294438E+00  -1.88229334E-01  -2.39648862E+00  -8.85152004E-02   1.83823077E-02   1.00688596E+00   6.29474414E-01  -2.05767607E-01  -7.39189041E+00  -1.53895390E+01   1.45693770E+00   1.81249719E-08  -1.57312631E+00  -2.07185101E+01  -5.68513251E+00   3.36209643E-01
   2.32750000E+03   5.00000000E-01   5.00000000E-01  -4.43797889E+00  -4.59487611E-02   1.34873747E-02  -1.69796176E+00  -1.84256983E-01  -2.32488825E+00  -8.24704120E-02   1.82758717E-02   1.01842270E+00   6.29256797E-01  -2.01077688E-01  -7.33766292E+00  -1.51962205E+01   1.48544863E+00   1.56941755E-08  -1.54789596E+00  -2.06441939E+01  -5.72352558E+00   3.30901145E-01
   2.36250000E+03   5.00000000E-01   5.00000000E-01  -4.39777718E+00  -3.41814820E-02   1.32167672E-02  -1.68309355E+00  -1.79933865E-01  -2.25332590E+00  -7.57525060E-02   1.81621256E-02   1.02963652E+00   6.29130585E-01  -1.96584386E-01  -7.28201867E+00  -1.50026994E+01   1.51331320E+00   1.34274536E-08  -1.52219349E+00  -2.05710355E+01  -5.76129243E+00   3.25683323E-01
   2.39750000E+03   5.00000000E-01   5.00000000E-01  -4.35793263E+00  -2.19589068E-02   1.29403586E-02  -1.66833295E+00  -1.75349476E-01  -2.18192897E+00  -6.84369362E-02   1.80415648E-02   1.04046023E+00   6.29029392E-01  -1.92336290E-01  -7.22513353E+00  -1.48092056E+01   1.54049435E+00   1.13523636E-08  -1.49616114E+00  -2.04990661E+01  -5.79851317E+00   3.20547327E-01
   2.43250000E+03   5.00000000E-01   5.00000000E-01  -4.31841537E+00  -9.47886086E-03   1.26633245E-02  -1.65367162E+00  -1.70608719E-01  -2.11086638E+00  -6.06247433E-02   1.79150373E-02   1.05079804E+00   6.28860593E-01  -1.88402832E-01  -7.16722625E+00  -1.46160412E+01   1.56694726E+00   9.48796612E-09  -1.46998583E+00  -2.04283236E+01  -5.83528038E+00   3.15481041E-01
   2.46750000E+03   5.00000000E-01   5.00000000E-01  -4.27919013E+00   3.04199910E-03   1.23916523E-02  -1.63909995E+00  -1.65827336E-01  -2.04034449E+00  -5.24387525E-02   1.77837601E-02   1.06052975E+00   6.28509045E-01  -1.84871328E-01  -7.10855626E+00  -1.44235732E+01   1.59261565E+00   7.84391086E-09  -1.44389466E+00  -2.03588511E+01  -5.87169501E+00   3.10469502E-01
   2.50250000E+03   5.00000000E-01   5.00000000E-01  -4.24021815E+00   1.53796168E-02   1.21317497E-02  -1.62460754E+00  -1.61125734E-01  -1.97059917E+00  -4.40164776E-02   1.76492830E-02   1.06951922E+00   6.27844589E-01  -1.81840859E-01  -7.04941974E+00  -1.42322216E+01   1.61742659E+00   6.42032786E-09  -1.41814603E+00  -2.02906947E+01  -5.90786110E+00   3.05495824E-01
   2.53750000E+03   5.00000000E-01   5.00000000E-01  -4.20146006E+00   2.73149767E-02   1.18899174E-02  -1.61018391E+00  -1.56622059E-01  -1.90188520E+00  -3.55001740E-02   1.75133839E-02   1.07762696E+00   6.26733059E-01  -1.79413141E-01  -6.99014606E+00  -1.40424446E+01   1.64128333E+00   5.20860143E-09  -1.39301766E+00  -2.02239032E+01  -5.94388034E+00   3.00542604E-01
   2.57250000E+03   5.00000000E-01   5.00000000E-01  -4.16287934E+00   3.86450820E-02   1.16717681E-02  -1.59581937E+00  -1.52425826E-01  -1.83446496E+00  -2.70252396E-02   1.73778933E-02   1.08472560E+00   6.25049701E-01  -1.77681265E-01  -6.93109681E+00  -1.38547241E+01   1.66405567E+00   4.19313222E-09  -1.36879355E+00  -2.01585273E+01  -5.97984743E+00   2.95593684E-01
   2.60750000E+03   5.00000000E-01   5.00000000E-01  -4.12444607E+00   4.91897950E-02   1.14817154E-02  -1.58150595E+00  -1.48633530E-01  -1.76859951E+00  -1.87087237E-02   1.72444618E-02   1.09071622E+00   6.22693221E-01  -1.76717733E-01  -6.87267050E+00  -1.36695579E+01   1.68556759E+00   3.35335151E-09  -1.34575308E+00  -2.00946224E+01  -6.01584768E+00   2.90636094E-01
   2.64250000E+03   5.00000000E-01   5.00000000E-01  -4.08614029E+00   5.87924700E-02   1.13226605E-02  -1.56723812E+00  -1.45327410E-01  -1.70454457E+00  -1.06398300E-02   1.71143036E-02   1.09554329E+00   6.19598423E-01  -1.76563477E-01  -6.81531482E+00  -1.34874619E+01   1.70558188E+00   2.66607862E-09  -1.32416513E+00  -2.00322533E+01  -6.05195750E+00   2.85661880E-01
   2.67750000E+03   5.00000000E-01   5.00000000E-01  -4.04795460E+00   6.73137178E-02   1.11959640E-02  -1.55301336E+00  -1.42577812E-01  -1.64255304E+00  -2.87391090E-03   1.69879606E-02   1.09920595E+00   6.15745660E-01  -1.77219383E-01  -6.75954688E+00  -1.33089840E+01   1.72378258E+00   2.10764816E-09  -1.30428918E+00  -1.99715011E+01  -6.08824827E+00   2.80669624E-01
   2.71250000E+03   5.00000000E-01   5.00000000E-01  -4.00989556E+00   7.46195822E-02   1.11017246E-02  -1.53883235E+00  -1.40448610E-01  -1.58288375E+00   4.56928354E-03   1.68651289E-02   1.10176443E+00   6.11165880E-01  -1.78641402E-01  -6.70597852E+00  -1.31347287E+01   1.73975733E+00   1.65556161E-09  -1.28638301E+00  -1.99124714E+01  -6.12479265E+00   2.75665422E-01