 TITLE = "Mineral Saturation State" 
VARIABLES = "X"          "Y"              "Z"            "Forsterite"     "Fayalite"       "Brucite"        "Lizardite"      "Chrysotile"     "Saponite(Mg)"   "Enstatite(alph" "Ferrosilite(al" "Anorthite"      "Albite(low)"    "Clinochlore"    "Sudoite"        "Montmorillonit" "Kaolinite"      "Tremolite"      "Pargasite"      "Anhydrite"      "Epidote"        "Scolecite"      "Pyrite"         "FeS(am)"        "Quartz(alpha)" 
 ZONE I=         100 , J=           1 , K=           1  F=POINT
   1.75000000E+01   5.00000000E-01   5.00000000E-01  -6.68969029E+00  -4.28119721E-01  -4.87176112E+00  -4.55768315E-01  -5.72236547E-01   2.88246665E+00  -2.04230287E+00   2.85963533E-02  -1.17749073E+01  -4.21099830E-01   2.42944598E-03  -7.71402781E+00  -1.54051110E+00  -5.21102389E+00  -8.27353929E-01  -3.15960310E+01  -9.48622552E-01  -2.99942493E-06  -5.97180408E+00  -3.17491637E+01  -3.49029186E+00   1.32326926E+00
   5.25000000E+01   5.00000000E-01   5.00000000E-01  -6.65325980E+00  -1.40287031E-01  -4.93418736E+00  -4.71028388E-01  -5.83470964E-01   3.12057658E+00  -1.96064394E+00   2.44930369E-01  -1.13353383E+01   1.09861181E-02   2.32205591E-03  -7.26854047E+00  -9.05992577E-01  -4.79496025E+00  -2.84131523E-01  -3.08363043E+01  -8.96689971E-01   9.79924569E-07  -5.48127901E+00  -3.12728877E+01  -3.40745475E+00   1.46421326E+00
   8.75000000E+01   5.00000000E-01   5.00000000E-01  -6.57741819E+00  -5.04670086E-02  -4.92374214E+00  -4.77875185E-01  -5.86377417E-01   3.19457638E+00  -1.91232526E+00   3.09049159E-01  -1.10921412E+01   1.34664795E-01   2.23853077E-03  -7.09516451E+00  -7.01806533E-01  -4.64248361E+00  -8.64264616E-02  -3.03283478E+01  -8.46266135E-01   2.01130453E-07  -5.29221999E+00  -3.09320964E+01  -3.40292064E+00   1.49879926E+00
   1.22500000E+02   5.00000000E-01   5.00000000E-01  -6.49872036E+00  -2.18237543E-02  -4.89628216E+00  -4.93619334E-01  -5.98263806E-01   3.21158927E+00  -1.87804136E+00   3.26958469E-01  -1.08944863E+01   1.75235227E-01   2.20923250E-03  -6.97223015E+00  -6.10725685E-01  -4.54926321E+00  -1.93422796E-02  -2.98978135E+01  -7.96654488E-01   5.16451199E-08  -5.17864792E+00  -3.06329292E+01  -3.42202383E+00   1.50220041E+00
   1.57500000E+02   5.00000000E-01   5.00000000E-01  -6.42870871E+00  -1.52797055E-02  -4.86912772E+00  -5.24081537E-01  -6.24948224E-01   3.20414558E+00  -1.85201119E+00   3.29753976E-01  -1.06946994E+01   2.02393355E-01   2.21541878E-03  -6.83028443E+00  -5.34593262E-01  -4.45164647E+00  -1.67394830E-02  -2.94895037E+01  -7.47364577E-01   3.80547806E-08  -5.06980013E+00  -3.03482847E+01  -3.44963814E+00   1.49752817E+00
   1.92500000E+02   5.00000000E-01   5.00000000E-01  -6.40969062E+00  -3.03867510E-02  -4.87082970E+00  -6.25380468E-01  -7.22546847E-01   3.15257586E+00  -1.84798862E+00   3.25064049E-01  -1.03917891E+01   2.95653847E-01   2.30367080E-03  -6.48499570E+00  -3.46936989E-01  -4.22146580E+00  -1.57459797E-01  -2.90495089E+01  -6.97637342E-01   1.96271310E-07  -4.84990157E+00  -3.00549558E+01  -3.48210498E+00   1.49958898E+00
   2.27500000E+02   5.00000000E-01   5.00000000E-01  -6.40214069E+00  -4.24572210E-02  -4.87770401E+00  -7.42202902E-01  -8.35744057E-01   3.08706438E+00  -1.85013014E+00   3.21317620E-01  -1.00730351E+01   3.95696516E-01   2.37170128E-03  -6.10230595E+00  -1.45843836E-01  -3.96924678E+00  -3.39424930E-01  -2.86143006E+01  -6.47648069E-01   2.02387855E-07  -4.61408621E+00  -2.97622777E+01  -3.51252412E+00   1.50055102E+00
   2.62500000E+02   5.00000000E-01   5.00000000E-01  -6.33996576E+00  -2.82233893E-02  -4.85351300E+00  -7.78652333E-01  -8.68641056E-01   3.07152816E+00  -1.82857847E+00   3.26963382E-01  -9.87776406E+00   4.20449907E-01   2.35546915E-03  -5.95289845E+00  -7.28131118E-02  -3.86971153E+00  -3.61805427E-01  -2.82313239E+01  -5.97922121E-01   3.60623227E-08  -4.50807481E+00  -2.94923971E+01  -3.53884716E+00   1.49404200E+00
   2.97500000E+02   5.00000000E-01   5.00000000E-01  -6.26191183E+00  -1.67765179E-02  -4.81950072E+00  -7.91027505E-01  -8.77534391E-01   3.06844478E+00  -1.80083412E+00   3.29332149E-01  -9.72419498E+00   4.18319532E-01   2.34164756E-03  -5.87768124E+00  -4.46163002E-02  -3.82015317E+00  -3.42829792E-01  -2.78725631E+01  -5.48550037E-01  -1.34927216E-08  -4.44635682E+00  -2.92388126E+01  -3.56925777E+00   1.48381303E+00
   3.32500000E+02   5.00000000E-01   5.00000000E-01  -6.18067100E+00  -1.06961230E-02  -4.78312482E+00  -7.97304592E-01  -8.80398129E-01   3.06747895E+00  -1.77213050E+00   3.28250637E-01  -9.58426681E+00   4.07740076E-01   2.33698813E-03  -5.82346328E+00  -3.05981840E-02  -3.78536348E+00  -3.16389183E-01  -2.75262877E+01  -4.99542408E-01  -2.66681008E-08  -4.39866097E+00  -2.89960595E+01  -3.60338863E+00   1.47209534E+00
   3.67500000E+02   5.00000000E-01   5.00000000E-01  -6.09917339E+00  -7.67042299E-03  -4.74629228E+00  -8.01485111E-01  -8.81231765E-01   3.06695320E+00  -1.74348992E+00   3.25321110E-01  -9.45090503E+00   3.93963909E-01   2.33731069E-03  -5.77746925E+00  -2.23655922E-02  -3.75656460E+00  -2.88448437E-01  -2.71886286E+01  -4.50894657E-01  -2.99446108E-08  -4.35704222E+00  -2.87613624E+01  -3.63981396E+00   1.45978008E+00
   4.02500000E+02   5.00000000E-01   5.00000000E-01  -6.01840127E+00  -6.16727692E-03  -4.70964982E+00  -8.04933984E-01  -8.81398280E-01   3.06631109E+00  -1.71524746E+00   3.21469252E-01  -9.32156946E+00   3.78831261E-01   2.33997160E-03  -5.73529087E+00  -1.69908553E-02  -3.73071083E+00  -2.60857131E-01  -2.68579970E+01  -4.02598303E-01  -2.92687855E-08  -4.31866286E+00  -2.85333369E+01  -3.67766870E+00   1.44718497E+00
   4.37500000E+02   5.00000000E-01   5.00000000E-01  -5.93880233E+00  -5.41887695E-03  -4.67347193E+00  -8.08317973E-01  -8.81562573E-01   3.06519976E+00  -1.68757606E+00   3.17133241E-01  -9.19503558E+00   3.63107342E-01   2.34373609E-03  -5.69487128E+00  -1.32258885E-02  -3.70641133E+00  -2.34604303E-01  -2.65335762E+01  -3.54643934E-01  -2.64596826E-08  -4.28221104E+00  -2.83112520E+01  -3.71649999E+00   1.43441715E+00
   4.72500000E+02   5.00000000E-01   5.00000000E-01  -5.86060394E+00  -5.05316005E-03  -4.63788891E+00  -8.12006232E-01  -8.82092008E-01   3.06338752E+00  -1.66057278E+00   3.12519018E-01  -9.07061020E+00   3.47158797E-01   2.34806634E-03  -5.65510711E+00  -1.04554292E-02  -3.68293197E+00  -2.10251277E-01  -2.62148454E+01  -3.07022245E-01  -2.22725512E-08  -4.24697445E+00  -2.80946863E+01  -3.75607148E+00   1.42151508E+00
   5.07500000E+02   5.00000000E-01   5.00000000E-01  -5.78391636E+00  -4.88494643E-03  -4.60296350E+00  -8.16200085E-01  -8.83186185E-01   3.06074367E+00  -1.63428530E+00   3.07729747E-01  -8.94786862E+00   3.31185164E-01   2.35273055E-03  -5.61538635E+00  -8.34174728E-03  -3.65986260E+00  -1.88054316E-01  -2.59014113E+01  -2.59724407E-01  -1.71137758E-08  -4.21252747E+00  -2.78833712E+01  -3.79625556E+00   1.40849864E+00
   5.42500000E+02   5.00000000E-01   5.00000000E-01  -5.70878185E+00  -4.81843132E-03  -4.56872308E+00  -8.20999074E-01  -8.84942995E-01   3.05721184E+00  -1.60872886E+00   3.02822253E-01  -8.82653785E+00   3.15307832E-01   2.35763261E-03  -5.57537663E+00  -6.68367427E-03  -3.63697121E+00  -1.68061012E-01  -2.55929452E+01  -2.12742173E-01  -1.12530780E-08  -4.17859901E+00  -2.76771166E+01  -3.83697975E+00   1.39538449E+00
   5.77500000E+02   5.00000000E-01   5.00000000E-01  -5.63520292E+00  -4.80266824E-03  -4.53517547E+00  -8.26441751E-01  -8.87399397E-01   3.05278388E+00  -1.58389869E+00   2.97830965E-01  -8.70643479E+00   2.99607380E-01   2.36272552E-03  -5.53490878E+00  -5.35375120E-03  -3.61412815E+00  -1.50190681E-01  -2.52891575E+01  -1.66067848E-01  -4.89987585E-09  -4.14500737E+00  -2.74757733E+01  -3.87819963E+00   1.38218940E+00
   6.12500000E+02   5.00000000E-01   5.00000000E-01  -5.56315969E+00  -4.81052222E-03  -4.50231750E+00  -8.32531788E-01  -8.90557530E-01   3.04747916E+00  -1.55977877E+00   2.92778337E-01  -8.58743065E+00   2.84140707E-01   2.36795902E-03  -5.49390772E+00  -4.26728219E-03  -3.59126306E+00  -1.34293691E-01  -2.49897873E+01  -1.19694202E-01   1.76573140E-09  -4.11162479E+00  -2.72792132E+01  -3.91988467E+00   1.36893008E+00
   6.47500000E+02   5.00000000E-01   5.00000000E-01  -5.49262047E+00  -4.82806419E-03  -4.47013981E+00  -8.39254366E-01  -8.94401103E-01   3.04133060E+00  -1.53634756E+00   2.87679741E-01  -8.46942958E+00   2.68949753E-01   2.37325987E-03  -5.45235070E+00  -3.36570500E-03  -3.56833952E+00  -1.20190800E-01  -2.46945961E+01  -7.36143687E-02   8.58016909E-09  -4.07835701E+00  -2.70873182E+01  -3.96201042E+00   1.35562233E+00
   6.82500000E+02   5.00000000E-01   5.00000000E-01  -5.42354813E+00  -4.84882261E-03  -4.43862975E+00  -8.46586079E-01  -8.98905288E-01   3.03437581E+00  -1.51358151E+00   2.82546011E-01  -8.35235576E+00   2.54066347E-01   2.37854896E-03  -5.41024236E+00  -2.60713002E-03  -3.54533994E+00  -1.07697034E-01  -2.44033643E+01  -2.78217310E-02   1.53911661E-08  -4.04513099E+00  -2.68999741E+01  -4.00455426E+00   1.34228039E+00
   7.17500000E+02   5.00000000E-01   5.00000000E-01  -5.35590377E+00  -4.87047636E-03  -4.40777301E+00  -8.54500665E-01  -9.04042457E-01   3.02665212E+00  -1.49145711E+00   2.77384916E-01  -8.23614565E+00   2.39515095E-01   2.38378023E-03  -5.36760019E+00  -1.96075864E-03  -3.52225686E+00  -9.66350340E-02  -2.41158892E+01   1.76901655E-02   2.20567116E-08  -4.01188751E+00  -2.67170678E+01  -4.04749310E+00   1.32891656E+00
   7.52500000E+02   5.00000000E-01   5.00000000E-01  -5.28964861E+00  -4.89280658E-03  -4.37755447E+00  -8.62971897E-01  -9.09785062E-01   3.01819416E+00  -1.46995179E+00   2.72202164E-01  -8.12074359E+00   2.25315253E-01   2.38893038E-03  -5.32444691E+00  -1.40356322E-03  -3.49908815E+00  -8.68407192E-02  -2.38319818E+01   6.29276859E-02   2.84457806E-08  -3.97857683E+00  -2.65384850E+01  -4.09080215E+00   1.31554118E+00
   7.87500000E+02   5.00000000E-01   5.00000000E-01  -5.22474496E+00  -4.91648279E-03  -4.34795881E+00  -8.71975039E-01  -9.16107099E-01   3.00903289E+00  -1.44904444E+00   2.67002063E-01  -8.00609900E+00   2.11482094E-01   2.39399040E-03  -5.28080632E+00  -9.18077675E-04  -3.47583433E+00  -7.81651496E-02  -2.35514653E+01   1.07897154E-01   3.44406819E-08  -3.94515582E+00  -2.63641106E+01  -4.13445454E+00   1.30216271E+00
   8.22500000E+02   5.00000000E-01   5.00000000E-01  -5.16115667E+00  -4.94229875E-03  -4.31897074E+00  -8.81487443E-01  -9.22984693E-01   2.99919539E+00  -1.42871546E+00   2.61787996E-01  -7.89216458E+00   1.98027987E-01   2.39896273E-03  -5.23670128E+00  -4.90884650E-04  -3.45249712E+00  -7.04740237E-02  -2.32741725E+01   1.52604876E-01   3.99393480E-08  -3.91158599E+00  -2.61938281E+01  -4.17842124E+00   1.28878794E+00
   8.57500000E+02   5.00000000E-01   5.00000000E-01  -5.09884930E+00  -4.97071548E-03  -4.29057523E+00  -8.91488811E-01  -9.30396364E-01   2.98870492E+00  -1.40894685E+00   2.56562743E-01  -7.77889506E+00   1.84963230E-01   2.40386518E-03  -5.19215250E+00  -1.11551996E-04  -3.42907849E+00  -6.36464516E-02  -2.29999441E+01   1.97057149E-01   4.48573285E-08  -3.87783197E+00  -2.60275206E+01  -4.22267131E+00   1.27542216E+00
   8.92500000E+02   5.00000000E-01   5.00000000E-01  -5.03779026E+00  -5.00155794E-03  -4.26275759E+00  -9.01961247E-01  -9.38323074E-01   2.97758111E+00  -1.38972210E+00   2.51328714E-01  -7.66624608E+00   1.72296726E-01   2.40872794E-03  -5.14717809E+00   2.28116933E-04  -3.40558025E+00  -5.75732334E-02  -2.27286268E+01   2.41260252E-01   4.91291942E-08  -3.84386036E+00  -2.58650710E+01  -4.26717217E+00   1.26206930E+00
   9.27500000E+02   5.00000000E-01   5.00000000E-01  -4.97794889E+00  -5.03387112E-03  -4.23550358E+00  -9.12889475E-01  -9.46748446E-01   2.96583982E+00  -1.37102628E+00   2.46088050E-01  -7.55417313E+00   1.60036520E-01   2.41359546E-03  -5.10179271E+00   5.34660025E-04  -3.38200346E+00  -5.21558298E-02  -2.24600711E+01   2.85220419E-01   5.27088734E-08  -3.80963857E+00  -2.57063632E+01  -4.31188993E+00   1.24873203E+00
   9.62500000E+02   5.00000000E-01   5.00000000E-01  -4.91929665E+00  -5.06582401E-03  -4.20879945E+00  -9.24261132E-01  -9.55659052E-01   2.95349292E+00  -1.35284610E+00   2.40842672E-01  -7.44263045E+00   1.48190226E-01   2.41852885E-03  -5.05600687E+00   8.13389186E-04  -3.35834792E+00  -4.73056655E-02  -2.21941295E+01   3.28943814E-01   5.55694081E-08  -3.77513367E+00  -2.55512826E+01  -4.35678972E+00   1.23541172E+00
   9.97500000E+02   5.00000000E-01   5.00000000E-01  -4.86180727E+00  -5.09462016E-03  -4.18263205E+00  -9.36067025E-01  -9.65044673E-01   2.94054805E+00  -1.33517003E+00   2.35594320E-01  -7.33156993E+00   1.36765402E-01   2.42360691E-03  -5.00982615E+00   1.06871856E-03  -3.33461176E+00  -4.29434242E-02  -2.19306550E+01   3.72436491E-01   5.77015808E-08  -3.74031142E+00  -2.53997167E+01  -4.40183599E+00   1.22210845E+00
   1.03250000E+03   5.00000000E-01   5.00000000E-01  -4.80545705E+00  -5.11648422E-03  -4.15698887E+00  -9.48301643E-01  -9.74898804E-01   2.92700799E+00  -1.31798844E+00   2.30344509E-01  -7.22093991E+00   1.25769860E-01   2.42892533E-03  -4.96325014E+00   1.30446545E-03  -3.31079081E+00  -3.89991756E-02  -2.16694993E+01   4.15704352E-01   5.91123440E-08  -3.70513508E+00  -2.52515559E+01  -4.44699270E+00   1.20882089E+00
   1.06750000E+03   5.00000000E-01   5.00000000E-01  -4.75022536E+00  -5.12672817E-03  -4.13185819E+00  -9.60964121E-01  -9.85219620E-01   2.91286952E+00  -1.30129404E+00   2.25094369E-01  -7.11068349E+00   1.15211887E-01   2.43462062E-03  -4.91627035E+00   1.52414324E-03  -3.28687751E+00  -3.54140304E-02  -2.14105109E+01   4.58753104E-01   5.98228204E-08  -3.66956409E+00  -2.51066941E+01  -4.49222353E+00   1.19554608E+00
   1.10250000E+03   5.00000000E-01   5.00000000E-01  -4.69609615E+00  -5.11989202E-03  -4.10722946E+00  -9.74060786E-01  -9.96012520E-01   2.89812028E+00  -1.28508297E+00   2.19844213E-01  -7.00073555E+00   1.05100214E-01   2.44090459E-03  -4.86886502E+00   1.73132299E-03  -3.26285834E+00  -3.21469230E-02  -2.11535341E+01   5.01588234E-01   5.98662506E-08  -3.63355169E+00  -2.49650285E+01  -4.53749174E+00   1.18227865E+00
   1.13750000E+03   5.00000000E-01   5.00000000E-01  -5.92802752E+00  -8.79791413E-01  -4.37843632E+00  -3.26220143E+00  -3.28188639E+00   8.69688708E-03  -2.25898134E+00  -5.69899036E-01  -5.00540913E+00  -3.51223485E-01  -8.45123523E-03  -3.97202470E-01   2.28012500E-02  -1.07861405E+00  -7.60913028E+00  -2.16096050E+01   5.43728822E-01   5.23187315E-07  -2.40571487E+00  -2.47364684E+01  -4.64421544E+00   4.74727380E-01
   1.17250000E+03   5.00000000E-01   5.00000000E-01  -5.52316925E+00  -3.29433148E-01  -4.26929489E+00  -2.65589603E+00  -2.67335036E+00   7.65992352E-01  -1.97632450E+00  -2.09040134E-01  -5.39083134E+00  -2.44382833E-01   2.97401286E-03  -1.55568411E+00  -1.14324036E-03  -1.65227353E+00  -5.51765372E+00  -2.11082611E+01   5.86078441E-01  -8.86975122E-09  -2.68171138E+00  -2.44845737E+01  -4.51617451E+00   6.43374143E-01
   1.20750000E+03   5.00000000E-01   5.00000000E-01  -5.29923364E+00  -8.94948556E-02  -4.20698006E+00  -2.36342009E+00  -2.37867907E+00   1.13858361E+00  -1.82765152E+00  -4.69852732E-02  -5.52205769E+00  -1.84218121E-01   2.79803731E-03  -2.10457752E+00   1.27446279E-03  -1.91846294E+00  -4.46142066E+00  -2.07268962E+01   6.28836157E-01   9.61153967E-09  -2.78997197E+00  -2.43123603E+01  -4.49432596E+00   7.24855855E-01
   1.24250000E+03   5.00000000E-01   5.00000000E-01  -5.14233450E+00   1.32558209E-02  -4.16008246E+00  -2.18843582E+00  -2.20153393E+00   1.36216680E+00  -1.73048727E+00   2.84152887E-02  -5.56229798E+00  -1.50206593E-01   2.68498411E-03  -2.42495116E+00   2.85828403E-03  -2.07357876E+00  -3.80854081E+00  -2.03983122E+01   6.71750280E-01   1.28218645E-08  -2.84265171E+00  -2.41801403E+01  -4.52075083E+00   7.70239206E-01
   1.27750000E+03   5.00000000E-01   5.00000000E-01  -5.01708466E+00   5.27471109E-02  -4.12058678E+00  -2.06820873E+00  -2.07917966E+00   1.51629552E+00  -1.65746157E+00   6.38037566E-02  -5.56026169E+00  -1.28004720E-01   2.65416527E-03  -2.63888032E+00   4.16020746E-03  -2.17698278E+00  -3.34284844E+00  -2.00948112E+01   7.14609337E-01   1.41089407E-08  -2.86911596E+00  -2.40676244E+01  -4.56925334E+00   7.98879957E-01
   1.31250000E+03   5.00000000E-01   5.00000000E-01  -4.91170719E+00   6.33325479E-02  -4.08601820E+00  -1.98168372E+00  -1.99056039E+00   1.62819375E+00  -1.59927402E+00   7.97703016E-02  -5.53028637E+00  -1.11215911E-01   2.67240235E-03  -2.78663577E+00   6.86519672E-03  -2.24785914E+00  -2.98772460E+00  -1.98027672E+01   7.57419978E-01   1.64445573E-08  -2.87688728E+00  -2.39641230E+01  -4.62655048E+00   8.17604517E-01
   1.34750000E+03   5.00000000E-01   5.00000000E-01  -4.81898329E+00   6.27688720E-02  -4.05446710E+00  -1.91635616E+00  -1.92317076E+00   1.71298428E+00  -1.55061714E+00   8.68927812E-02  -5.48191036E+00  -9.78826341E-02   2.74749805E-03  -2.89360372E+00   9.42023129E-03  -2.29909889E+00  -2.69978487E+00  -1.95153762E+01   8.00236054E-01   1.83997597E-08  -2.87211661E+00  -2.38644917E+01  -4.68576195E+00   8.29811476E-01
   1.38250000E+03   5.00000000E-01   5.00000000E-01  -5.52393938E+00  -4.41347985E-01  -4.20786384E+00  -3.26037127E+00  -3.26515526E+00   2.12901716E-02  -2.11458864E+00  -3.71613990E-01  -4.24279631E+00  -3.44401660E-01  -7.06499240E-04  -2.47944290E-01   3.96602699E-02  -1.00342307E+00  -7.06795381E+00  -1.96205324E+01   8.41897312E-01   8.43952448E-08  -2.10364417E+00  -2.37107862E+01  -4.77147344E+00   4.14334164E-01
   1.41750000E+03   5.00000000E-01   5.00000000E-01  -5.44424494E+00  -2.39133323E-01  -4.17487232E+00  -3.22042629E+00  -3.22321045E+00   6.12996572E-02  -2.08019581E+00  -2.70978867E-01  -4.15422856E+00  -3.41569626E-01   2.78894412E-03  -3.18294485E-01   1.81611397E-02  -1.04664607E+00  -6.82928723E+00  -1.92807896E+01   8.83868182E-01   1.56353492E-08  -2.07310778E+00  -2.35267380E+01  -4.72343059E+00   4.10829818E-01
   1.45250000E+03   5.00000000E-01   5.00000000E-01  -5.26097544E+00  -3.52463240E-02  -4.12222284E+00  -2.99196351E+00  -2.99277794E+00   3.49500846E-01  -1.96178548E+00  -1.37339250E-01  -4.22087835E+00  -2.87176666E-01   3.26528861E-03  -7.47836496E-01   1.70284600E-02  -1.25742545E+00  -5.95044456E+00  -1.88891647E+01   9.26298081E-01   7.31916977E-09  -2.13280510E+00  -2.33830971E+01  -4.70705939E+00   4.71682477E-01
   1.48750000E+03   5.00000000E-01   5.00000000E-01  -5.15292815E+00   4.42863258E-02  -4.08813903E+00  -2.89437496E+00  -2.89324911E+00   4.75219002E-01  -1.89993298E+00  -8.48839152E-02  -4.18069596E+00  -2.54945653E-01   3.20718435E-03  -9.18696027E-01   2.36540049E-02  -1.33976522E+00  -5.50929722E+00  -1.85465271E+01   9.68901741E-01   6.35524810E-09  -2.12304784E+00  -2.32714971E+01  -4.73199281E+00   4.94540954E-01
   1.52250000E+03   5.00000000E-01   5.00000000E-01  -5.08190378E+00   7.19888552E-02  -4.06255158E+00  -2.86135192E+00  -2.85831460E+00   5.18798576E-01  -1.86650995E+00  -6.83208399E-02  -4.08645526E+00  -2.35142661E-01   3.24865165E-03  -9.64277455E-01   3.00463373E-02  -1.36139662E+00  -5.28115761E+00  -1.82226269E+01   1.01149331E+00   5.26608576E-09  -2.07856037E+00  -2.31737519E+01  -4.77202218E+00   4.97464749E-01
   1.55750000E+03   5.00000000E-01   5.00000000E-01  -5.04065261E+00   7.66261435E-02  -4.04402384E+00  -2.87985168E+00  -2.87493109E+00   4.97337676E-01  -1.85570498E+00  -7.10798277E-02  -3.94415562E+00  -2.22016920E-01   3.35593234E-03  -9.09208327E-01   3.82867159E-02  -1.33387231E+00  -5.21278261E+00  -1.79020416E+01   1.05396838E+00   4.32166048E-09  -2.00097668E+00  -2.30810063E+01  -4.81533080E+00   4.84829076E-01
   1.59250000E+03   5.00000000E-01   5.00000000E-01  -5.03901385E+00   6.73990773E-02  -4.03532678E+00  -2.96680130E+00  -2.96002504E+00   3.90855797E-01  -1.87458795E+00  -9.07095689E-02  -3.73383425E+00  -2.14185897E-01   3.52410600E-03  -7.18378233E-01   5.27702532E-02  -1.23900559E+00  -5.34891017E+00  -1.75770363E+01   1.09624312E+00   3.41310973E-09  -1.87464212E+00  -2.29875633E+01  -4.85528653E+00   4.52335378E-01
   1.62750000E+03   5.00000000E-01   5.00000000E-01  -5.07862261E+00   5.50397355E-02  -4.03750512E+00  -3.12444537E+00  -3.11584046E+00   1.98340124E-01  -1.92375085E+00  -1.21617338E-01  -3.44681691E+00  -2.06384422E-01   3.71716144E-03  -3.84805368E-01   7.88330097E-02  -1.07202475E+00  -5.68337979E+00  -1.72334985E+01   1.13820789E+00   2.38091677E-09  -1.69043877E+00  -2.28905887E+01  -4.88698265E+00   4.00436748E-01
   1.66250000E+03   5.00000000E-01   5.00000000E-01  -5.09853634E+00   7.38648748E-02  -4.03638807E+00  -3.24508821E+00  -3.23468112E+00   5.53166125E-02  -1.95642352E+00  -1.30344793E-01  -3.17284071E+00  -1.78173921E-01   3.76159374E-03  -1.19948527E-01   1.13987201E-01  -9.36520942E-01  -5.85687638E+00  -1.68375936E+01   1.17959089E+00   1.28267432E-09  -1.50551327E+00  -2.27974521E+01  -4.91036555E+00   3.61732844E-01
   1.69750000E+03   5.00000000E-01   5.00000000E-01  -5.07791174E+00   1.14177821E-01  -4.02972890E+00  -3.28930815E+00  -3.27712478E+00   1.84895546E-02  -1.95401097E+00  -1.13565873E-01  -2.93925006E+00  -1.10299449E-01   3.67691680E-03   9.26390017E-03   1.74513519E-01  -8.60021885E-01  -5.72705445E+00  -1.63718958E+01   1.21911115E+00   5.94082799E-10  -1.33087051E+00  -2.27219388E+01  -4.93850953E+00   3.52572203E-01
   1.73250000E+03   5.00000000E-01   5.00000000E-01  -5.04957509E+00   1.44738790E-01  -4.04250222E+00  -3.29780092E+00  -3.28386666E+00   8.38557374E-02  -1.92436646E+00  -7.83395555E-02  -2.65924892E+00   7.56686853E-02   3.54441848E-03   1.51477031E-01   3.78200403E-01  -7.34660971E-01  -5.32399736E+00  -1.57750302E+01   1.25157460E+00   2.65879737E-10  -1.06260168E+00  -2.26785702E+01  -4.99449518E+00   3.90076406E-01
   1.76750000E+03   5.00000000E-01   5.00000000E-01  -5.01385902E+00   1.62076954E-01  -4.04637868E+00  -3.29957845E+00  -3.28391816E+00   1.37628772E-01  -1.89615352E+00  -5.48974643E-02  -2.38930751E+00   2.40296412E-01   3.51100870E-03   2.51376884E-01   5.36911414E-01  -6.44912478E-01  -4.90603225E+00  -1.51585757E+01   1.25854867E+00   8.99678941E-11  -8.14178305E-01  -2.26670903E+01  -5.05383733E+00   4.17252790E-01
   1.80250000E+03   5.00000000E-01   5.00000000E-01  -4.99426077E+00   1.64962404E-01  -4.04125901E+00  -3.34175138E+00  -3.32438943E+00   1.05387259E-01  -1.89297018E+00  -5.57029945E-02  -2.09418576E+00   3.59528576E-01   3.59103642E-03   3.79337011E-01   6.18507506E-01  -5.67529306E-01  -4.63829331E+00  -1.45226575E+01   1.19714677E+00   2.74378162E-11  -5.74065877E-01  -2.27068210E+01  -5.10751226E+00   4.10404242E-01
   1.83750000E+03   5.00000000E-01   5.00000000E-01  -5.08556351E+00   1.45366859E-01  -4.06483522E+00  -3.57621054E+00  -3.55717081E+00  -1.61434356E-01  -1.97190910E+00  -9.44704241E-02  -1.55379503E+00   5.04320291E-01   3.78078809E-03   8.95133779E-01   7.39299419E-01  -2.94623617E-01  -4.84008149E+00  -1.37342029E+01   1.04129911E+00   6.83361006E-12  -1.41584542E-01  -2.28146527E+01  -5.15212447E+00   3.50130261E-01
   1.87250000E+03   5.00000000E-01   5.00000000E-01  -5.07598731E+00   1.40885177E-01  -4.02340981E+00  -3.67310973E+00  -3.65241562E+00  -3.68698464E-01  -2.01488938E+00  -1.40210450E-01  -1.07197973E+00   5.61111687E-01   3.83806440E-03   9.75597039E-01   6.07575942E-01  -3.19278570E-01  -4.46940093E+00  -1.26222067E+01   8.29039614E-01   7.19002549E-13   2.03796717E-01  -2.30939644E+01  -5.20380537E+00   2.60814378E-01
   1.90750000E+03   5.00000000E-01   5.00000000E-01  -4.74743629E+00   8.24775809E-02  -3.83088510E+00  -3.28237057E+00  -3.26004502E+00  -1.72083432E-01  -1.88991428E+00  -2.04493270E-01  -7.87233994E-01   5.45900532E-01   3.76225400E-03  -2.05709727E-01   1.98455245E-02  -1.11785308E+00  -2.05287676E+00  -1.05810136E+01   6.11610749E-01   2.77726307E-14   3.69474976E-01  -2.39113067E+01  -5.43045782E+00   1.88355763E-01
   1.94250000E+03   5.00000000E-01   5.00000000E-01  -4.46806796E+00   8.29230383E-03  -3.65821586E+00  -2.96936869E+00  -2.94543419E+00  -5.09278858E-02  -1.79418800E+00  -2.81369324E-01  -5.13806402E-01   5.00930128E-01   3.36976338E-03  -1.20272504E+00  -5.29854336E-01  -1.80947906E+00  -4.55461822E-02  -8.78781676E+00   4.19991655E-01   6.17169570E-15   5.14944571E-01  -2.47866863E+01  -5.74346315E+00   1.06505103E-01
   1.97750000E+03   5.00000000E-01   5.00000000E-01  -4.37531947E+00   7.69124062E-04  -3.56117425E+00  -2.95322123E+00  -2.92769985E+00  -2.16184250E-01  -1.80937697E+00  -3.42565740E-01  -2.77111629E-01   3.65670875E-01   2.73397791E-03  -1.49140108E+00  -9.22845371E-01  -2.08930057E+00   4.06000465E-01  -7.90781662E+00   2.70317038E-01   0.00000000E+00   5.88888966E-01  -2.51997440E+01  -5.89343247E+00  -1.06318373E-02
   2.01250000E+03   5.00000000E-01   5.00000000E-01  -4.29862705E+00   2.35910189E-04  -3.47752582E+00  -2.95504975E+00  -2.92796312E+00  -3.78174504E-01  -1.82715328E+00  -3.94871720E-01  -1.71024741E-01   1.86380071E-01   2.47803819E-03  -1.70660749E+00  -1.28109106E+00  -2.31393329E+00   5.07131265E-01  -7.43086172E+00   1.67355216E-01  -1.54292393E-14   5.43519161E-01  -2.53999271E+01  -5.97834344E+00  -1.16961521E-01
   2.04750000E+03   5.00000000E-01   5.00000000E-01  -4.22275037E+00   1.30489724E-04  -3.40418760E+00  -2.94747088E+00  -2.91884021E+00  -5.01210849E-01  -1.83536098E+00  -4.37031761E-01  -1.21563130E-01   1.86606024E-02   2.37549206E-03  -1.90064110E+00  -1.58587083E+00  -2.50806552E+00   5.43154233E-01  -7.10729325E+00   1.03814728E-01   4.62877178E-15   4.61883442E-01  -2.54958576E+01  -6.03793055E+00  -2.03410954E-01
   2.08250000E+03   5.00000000E-01   5.00000000E-01  -4.14920271E+00   9.44330186E-05  -3.34024120E+00  -2.93444354E+00  -2.90428966E+00  -5.93743260E-01  -1.83643311E+00  -4.70900675E-01  -9.50498319E-02  -1.27088916E-01   2.32161044E-03  -2.07096618E+00  -1.83977076E+00  -2.67301700E+00   5.61811771E-01  -6.85771932E+00   6.75361058E-02  -3.08584785E-15   3.74300229E-01  -2.55290750E+01  -6.08369891E+00  -2.73331509E-01
   2.11750000E+03   5.00000000E-01   5.00000000E-01  -4.07844775E+00   7.86039852E-05  -3.28377302E+00  -2.91882235E+00  -2.88716568E+00  -6.64863209E-01  -1.83274831E+00  -4.98649080E-01  -7.91980608E-02  -2.53188040E-01   2.28872770E-03  -2.22003332E+00  -2.05353752E+00  -2.81406657E+00   5.73433967E-01  -6.65124730E+00   4.77621395E-02   1.54292393E-15   2.88757002E-01  -2.55221602E+01  -6.12058010E+00  -3.31015463E-01
   2.15250000E+03   5.00000000E-01   5.00000000E-01  -4.01027473E+00   7.06914425E-05  -3.23301267E+00  -2.90196950E+00  -2.86883010E+00  -7.20964226E-01  -1.82586755E+00  -5.21948705E-01  -6.89132263E-02  -3.63704492E-01   2.26718898E-03  -2.35199487E+00  -2.23711566E+00  -2.93672033E+00   5.81393316E-01  -6.47250178E+00   3.72072618E-02  -1.54292393E-15   2.07010150E-01  -2.54890563E+01  -6.15137797E+00  -3.79794132E-01
   2.18750000E+03   5.00000000E-01   5.00000000E-01  -3.94431609E+00   6.64209807E-05  -3.18658485E+00  -2.88453824E+00  -2.84993576E+00  -7.66372500E-01  -1.81679988E+00  -5.41993806E-01  -6.18102904E-02  -4.62200598E-01   2.25255047E-03  -2.47067399E+00  -2.39815860E+00  -3.04545149E+00   5.87178134E-01  -6.31268729E+00   3.15795440E-02   7.71461963E-15   1.29053560E-01  -2.54385723E+01  -6.17787391E+00  -4.22051915E-01
   2.22250000E+03   5.00000000E-01   5.00000000E-01  -3.88022301E+00   6.40155330E-05  -3.14347203E+00  -2.86686120E+00  -2.83081496E+00  -8.04048716E-01  -1.80621532E+00  -5.59628982E-01  -5.66630167E-02  -5.51438207E-01   2.24243843E-03  -2.57911893E+00  -2.54229076E+00  -3.14363974E+00   5.91558628E-01  -6.16635312E+00   2.85291292E-02  -2.31438589E-15   5.44192672E-02  -2.53763602E+01  -6.20125767E+00  -4.59476397E-01
   2.25750000E+03   5.00000000E-01   5.00000000E-01  -3.81770702E+00   6.26442694E-05  -3.10292991E+00  -2.84911815E+00  -2.81164711E+00  -8.36055701E-01  -1.79457097E+00  -5.75455273E-01  -5.27914775E-02  -6.33484754E-01   2.23542773E-03  -2.67964938E+00  -2.67360520E+00  -3.23378433E+00   5.94975318E-01  -6.02993404E+00   2.68186554E-02   3.85730981E-15  -1.74206885E-02  -2.53061284E+01  -6.22235006E+00  -4.93268980E-01
   2.29250000E+03   5.00000000E-01   5.00000000E-01  -3.75654060E+00   6.18829645E-05  -3.06441373E+00  -2.83141099E+00  -2.79253377E+00  -8.63853952E-01  -1.78218532E+00  -5.89904482E-01  -4.97937112E-02  -7.09871594E-01   2.23056535E-03  -2.77400314E+00  -2.79508416E+00  -3.31772517E+00   5.97701854E-01  -5.90100390E+00   2.58098613E-02  -3.85730981E-15  -8.69340397E-02  -2.52303732E+01  -6.24173142E+00  -5.24292998E-01
   2.32750000E+03   5.00000000E-01   5.00000000E-01  -3.69654762E+00   6.14990118E-05  -3.02752266E+00  -2.81380021E+00  -2.77353508E+00  -8.88492676E-01  -1.76928433E+00  -6.03290056E-01  -4.74186542E-02  -7.81732188E-01   2.22721828E-03  -2.86347608E+00  -2.90891208E+00  -3.39681912E+00   5.99917069E-01  -5.77786276E+00   2.51730571E-02  -7.71461963E-16  -1.54502767E-01  -2.51508177E+01  -6.25981986E+00  -5.53175261E-01
   2.36250000E+03   5.00000000E-01   5.00000000E-01  -3.63759254E+00   6.13571936E-05  -2.99195973E+00  -2.79632329E+00  -2.75468821E+00  -9.10735358E-01  -1.75603062E+00  -6.15841840E-01  -4.55022557E-02  -8.49908694E-01   2.22499103E-03  -2.94903508E+00  -3.01670009E+00  -3.47207130E+00   6.01740693E-01  -5.65929328E+00   2.47351633E-02  -6.94315766E-15  -2.20428632E-01  -2.50686777E+01  -6.27692110E+00  -5.80375467E-01
   2.39750000E+03   5.00000000E-01   5.00000000E-01  -3.57957084E+00   6.13749659E-05  -2.95750334E+00  -2.77900417E+00  -2.73601676E+00  -9.31142971E-01  -1.74254249E+00  -6.27729778E-01  -4.39333108E-02  -9.15029774E-01   2.22363949E-03  -3.03140369E+00  -3.11964406E+00  -3.54423003E+00   6.03254883E-01  -5.54440888E+00   2.44102350E-02  -6.17169570E-15  -2.84946367E-01  -2.49848223E+01  -6.29326138E+00  -6.06233559E-01