 TITLE = "Mineral Saturation State" 
VARIABLES = "X"          "Y"              "Z"            "Forsterite"     "Fayalite"       "Saponite(Mg)"   "Enstatite(alph" "Ferrosilite(al" "Anorthite"      "Albite(low)"    "Clinochlore"    "Sudoite"        "Montmorillonit" "Kaolinite"      "Tremolite"      "Pargasite"      "Anhydrite"      "Epidote"        "Scolecite"      "Pyrite"         "FeS(am)"        "Quartz(alpha)" 
 ZONE I=         100 , J=           1 , K=           1  F=POINT
   1.75000000E+01   5.00000000E-01   5.00000000E-01  -7.96479830E+00  -1.34593619E+00   2.70665798E-01  -2.97641610E+00  -7.26871111E-01  -9.56354573E+00  -4.89974510E-01   2.82606861E-01  -2.64635940E+00  -9.62785309E-01  -2.63275413E+00  -8.01109174E+00  -3.17775497E+01  -9.71659936E-01  -5.85700371E-07  -4.35356092E+00  -3.14903325E+01  -3.48648744E+00   7.30150804E-01
   5.25000000E+01   5.00000000E-01   5.00000000E-01  -7.96374602E+00  -9.57313969E-01   2.68145025E-01  -2.96219144E+00  -5.09887490E-01  -9.18642391E+00  -2.76788493E-01   2.73051067E-01  -2.17774635E+00  -6.03304964E-01  -2.28692886E+00  -8.08792938E+00  -3.12626452E+01  -9.41926761E-01  -1.44892653E-08  -4.02497340E+00  -3.09435747E+01  -3.31329139E+00   7.71604476E-01
   8.75000000E+01   5.00000000E-01   5.00000000E-01  -7.89584224E+00  -7.77259397E-01   2.64905392E-01  -2.93475765E+00  -4.17567398E-01  -8.98996754E+00  -2.32866645E-01   2.68814717E-01  -2.01475666E+00  -5.01132343E-01  -2.16950838E+00  -8.11951380E+00  -3.08749146E+01  -9.13421008E-01  -1.05863504E-07  -3.91648710E+00  -3.05661870E+01  -3.26027626E+00   7.72358540E-01
   1.22500000E+02   5.00000000E-01   5.00000000E-01  -7.81616813E+00  -6.92796414E-01   2.62375893E-01  -2.90506919E+00  -3.76831805E-01  -8.83308125E+00  -2.21645373E-01   2.66184139E-01  -1.91109715E+00  -4.48406516E-01  -2.09658071E+00  -8.14685992E+00  -3.05228541E+01  -8.85717399E-01  -1.27920181E-07  -3.85385071E+00  -3.02627823E+01  -3.26508792E+00   7.65592522E-01
   1.57500000E+02   5.00000000E-01   5.00000000E-01  -7.73296478E+00  -6.55990376E-01   2.61125966E-01  -2.87464825E+00  -3.61110386E-01  -8.69345745E+00  -2.21945863E-01   2.64235123E-01  -1.83023881E+00  -4.13361386E-01  -2.04051368E+00  -8.17276052E+00  -3.01899858E+01  -8.58326277E-01  -1.43387185E-07  -3.80957618E+00  -2.99993972E+01  -3.30001778E+00   7.56510113E-01
   1.92500000E+02   5.00000000E-01   5.00000000E-01  -7.64855478E+00  -6.43681860E-01   2.60401094E-01  -2.84415344E+00  -3.58316247E-01  -8.56422482E+00  -2.28628717E-01   2.62915306E-01  -1.76178126E+00  -3.88264821E-01  -1.99389198E+00  -8.19869941E+00  -2.98704995E+01  -8.30854357E-01  -1.58991738E-07  -3.77580276E+00  -2.97595237E+01  -3.35079347E+00   7.46123501E-01
   2.27500000E+02   5.00000000E-01   5.00000000E-01  -7.56383486E+00  -6.43972488E-01   2.59788050E-01  -2.81385945E+00  -3.62322237E-01  -8.44239978E+00  -2.39732652E-01   2.62137390E-01  -1.70176232E+00  -3.70232849E-01  -1.95389232E+00  -8.22480305E+00  -2.95614375E+01  -8.03039169E-01  -1.75568647E-07  -3.74921531E+00  -2.95343631E+01  -3.40976558E+00   7.34786569E-01
   2.62500000E+02   5.00000000E-01   5.00000000E-01  -7.47901180E+00  -6.50510571E-01   2.59523364E-01  -2.78373022E+00  -3.69808937E-01  -8.32683831E+00  -2.54279503E-01   2.61714006E-01  -1.64925468E+00  -3.57974832E-01  -1.91962408E+00  -8.24965993E+00  -2.92611239E+01  -7.74736354E-01  -1.91569688E-07  -3.72840652E+00  -2.93191473E+01  -3.47281001E+00   7.22784546E-01
   2.97500000E+02   5.00000000E-01   5.00000000E-01  -7.39432623E+00  -6.60140159E-01   2.59340033E-01  -2.75387240E+00  -3.79180745E-01  -8.21658503E+00  -2.71834504E-01   2.61657095E-01  -1.60305489E+00  -3.50829287E-01  -1.89029494E+00  -8.27350416E+00  -2.89685222E+01  -7.45887458E-01  -2.04519621E-07  -3.71240902E+00  -2.91112784E+01  -3.53773738E+00   7.10150879E-01
   3.32500000E+02   5.00000000E-01   5.00000000E-01  -7.30986298E+00  -6.71195956E-01   2.58929729E-01  -2.72437279E+00  -3.89645583E-01  -8.11120067E+00  -2.92418715E-01   2.62017982E-01  -1.56262597E+00  -3.48784252E-01  -1.86564144E+00  -8.29679028E+00  -2.86831276E+01  -7.16486112E-01  -2.11918750E-07  -3.70088744E+00  -2.89093433E+01  -3.60335223E+00   6.96802729E-01
   3.67500000E+02   5.00000000E-01   5.00000000E-01  -7.22540959E+00  -6.82623338E-01   2.58423550E-01  -2.69514236E+00  -4.00689685E-01  -8.01096019E+00  -3.16279745E-01   2.62755033E-01  -1.52875766E+00  -3.52273467E-01  -1.84615938E+00  -8.31883743E+00  -2.84047915E+01  -6.86556387E-01  -2.09372814E-07  -3.69416606E+00  -2.87125865E+01  -3.66897984E+00   6.82711405E-01
   4.02500000E+02   5.00000000E-01   5.00000000E-01  -7.14081490E+00  -6.93884492E-01   2.57783508E-01  -2.66614970E+00  -4.12084785E-01  -7.91607630E+00  -3.43728375E-01   2.63869568E-01  -1.50196802E+00  -3.61768757E-01  -1.83223346E+00  -8.33950936E+00  -2.81334841E+01  -6.56138777E-01  -1.90038903E-07  -3.69256057E+00  -2.85205907E+01  -3.73425602E+00   6.67794117E-01
   4.37500000E+02   5.00000000E-01   5.00000000E-01  -7.05590815E+00  -7.04650952E-01   2.56942426E-01  -2.63736717E+00  -4.23720993E-01  -7.82685646E+00  -3.75169214E-01   2.65364003E-01  -1.48288385E+00  -3.77871379E-01  -1.82434110E+00  -8.35877124E+00  -2.78693000E+01  -6.25280414E-01  -1.44837188E-07  -3.69650832E+00  -2.83331053E+01  -3.79895375E+00   6.51940755E-01
   4.72500000E+02   5.00000000E-01   5.00000000E-01  -6.97046906E+00  -7.14666603E-01   2.55898079E-01  -2.60873986E+00  -4.35522226E-01  -7.74374550E+00  -4.11061166E-01   2.67215694E-01  -1.47238041E+00  -4.01280436E-01  -1.82310511E+00  -8.37641817E+00  -2.76124240E+01  -5.94029342E-01  -6.09927517E-08  -3.70657880E+00  -2.81499584E+01  -3.86290564E+00   6.35046031E-01
   5.07500000E+02   5.00000000E-01   5.00000000E-01  -6.88427198E+00  -7.23733477E-01   2.54662182E-01  -2.58020800E+00  -4.47439410E-01  -7.66722238E+00  -4.51868870E-01   2.69386249E-01  -1.47138664E+00  -4.32706354E-01  -1.82917473E+00  -8.39222043E+00  -2.73630822E+01  -5.62431622E-01   7.93293811E-08  -3.72337102E+00  -2.79710105E+01  -3.92597703E+00   6.17008856E-01
   5.42500000E+02   5.00000000E-01   5.00000000E-01  -6.79709534E+00  -7.31690720E-01   2.53258366E-01  -2.55170943E+00  -4.59437710E-01  -7.59777273E+00  -4.98040930E-01   2.71822163E-01  -1.48084125E+00  -4.72837845E-01  -1.84319442E+00  -8.40593009E+00  -2.71215198E+01  -5.30530023E-01   3.00398688E-07  -3.74748154E+00  -2.77961314E+01  -3.98804961E+00   5.97736851E-01
   5.77500000E+02   5.00000000E-01   5.00000000E-01  -6.70873120E+00  -7.38407508E-01   2.51723695E-01  -2.52318122E+00  -4.71489841E-01  -7.53586073E+00  -5.49983771E-01   2.74455652E-01  -1.50164658E+00  -5.22302753E-01  -1.86576968E+00  -8.41728243E+00  -2.68879788E+01  -4.98363551E-01   6.34825832E-07  -3.77947008E+00  -2.76251900E+01  -4.04901680E+00   5.77152629E-01
   6.12500000E+02   5.00000000E-01   5.00000000E-01  -6.61899982E+00  -7.43787308E-01   2.50105815E-01  -2.49456353E+00  -4.83574758E-01  -7.48188904E+00  -6.08028079E-01   2.77207444E-01  -1.53459763E+00  -5.81616138E-01  -1.89741736E+00  -8.42601391E+00  -2.66626695E+01  -4.65967448E-01   1.12593867E-06  -3.81981258E+00  -2.74580519E+01  -4.10878715E+00   5.55200679E-01
   6.47500000E+02   5.00000000E-01   5.00000000E-01  -6.52776711E+00  -7.47777630E-01   2.48458444E-01  -2.46580457E+00  -4.95678740E-01  -7.43615081E+00  -6.72389749E-01   2.79991298E-01  -1.58029546E+00  -6.51119346E-01  -1.93850597E+00  -8.43188763E+00  -2.64457375E+01  -4.33373396E-01   1.83069065E-06  -3.86884564E+00  -2.72945809E+01  -4.16729212E+00   5.31854936E-01
   6.82500000E+02   5.00000000E-01   5.00000000E-01  -6.43496286E+00  -7.50381547E-01   2.46836220E-01  -2.43686591E+00  -5.07797382E-01  -7.39877869E+00  -7.43129368E-01   2.82720170E-01  -1.63905427E+00  -7.30916478E-01  -1.98919259E+00  -8.43472177E+00  -2.62372287E+01  -4.00609833E-01   2.82322769E-06  -3.92670799E+00  -2.71346422E+01  -4.22449575E+00   5.07126325E-01
   7.17500000E+02   5.00000000E-01   5.00000000E-01  -6.34059667E+00  -7.51667639E-01   2.45289394E-01  -2.40772743E+00  -5.19937542E-01  -7.36969879E+00  -8.20117132E-01   2.85313568E-01  -1.71081678E+00  -8.20818993E-01  -2.04936646E+00  -8.43441702E+00  -2.60370562E+01  -3.67702276E-01   4.19926543E-06  -3.99328840E+00  -2.69781075E+01  -4.28040375E+00   4.81068804E-01
   7.52500000E+02   5.00000000E-01   5.00000000E-01  -6.24476831E+00  -7.51775228E-01   2.43858595E-01  -2.37839115E+00  -5.32118553E-01  -7.34859917E+00  -9.03011529E-01   2.87704922E-01  -1.79509516E+00  -9.20311321E-01  -2.11861144E+00  -8.43097909E+00  -2.58449768E+01  -3.34673642E-01   6.08143883E-06  -4.06819142E+00  -2.68248593E+01  -4.33506972E+00   4.53782163E-01
   7.87500000E+02   5.00000000E-01   5.00000000E-01  -6.14766960E+00  -7.50912450E-01   2.42569819E-01  -2.34888304E+00  -5.44372201E-01  -7.33492142E+00  -9.91258946E-01   2.89847529E-01  -1.89095327E+00  -1.02854859E+00  -2.19619805E+00  -8.42453323E+00  -2.56605842E+01  -3.01544517E-01   8.62574163E-06  -4.15073081E+00  -2.66747933E+01  -4.38859635E+00   4.25410151E-01
   8.22500000E+02   5.00000000E-01   5.00000000E-01  -6.04957624E+00  -7.49345819E-01   2.41430513E-01  -2.31925247E+00  -5.56740989E-01  -7.32788062E+00  -1.08411766E+00   2.91717689E-01  -1.99703998E+00  -1.14439211E+00  -2.28111113E+00  -8.41532646E+00  -2.54833209E+01  -2.68333359E-01   1.20290812E-05  -4.23995647E+00  -2.65278203E+01  -4.44113055E+00   3.96133495E-01
   8.57500000E+02   5.00000000E-01   5.00000000E-01  -5.95082904E+00  -7.47381295E-01   2.40429493E-01  -2.28956829E+00  -5.69274119E-01  -7.32651418E+00  -1.18070420E+00   2.93314024E-01  -2.11167637E+00  -1.26648036E+00  -2.37211370E+00  -8.40371091E+00  -2.53125109E+01  -2.35056617E-01   1.65379782E-05  -4.33471423E+00  -2.63838643E+01  -4.49285279E+00   3.66159017E-01
   8.92500000E+02   5.00000000E-01   5.00000000E-01  -5.85180639E+00  -7.45339376E-01   2.39544139E-01  -2.25991100E+00  -5.82021030E-01  -7.32975386E+00  -1.28005341E+00   2.94652640E-01  -2.23298742E+00  -1.39332302E+00  -2.46783852E+00  -8.39010176E+00  -2.51474049E+01  -2.01728842E-01   2.24586915E-05  -4.43372981E+00  -2.62428602E+01  -4.54396271E+00   3.35707632E-01
   9.27500000E+02   5.00000000E-01   5.00000000E-01  -5.75289347E+00  -7.43530133E-01   2.38754781E-01  -2.23036241E+00  -5.95023921E-01  -7.33650562E+00  -1.38117842E+00   2.95759250E-01  -2.35905075E+00  -1.52339695E+00  -2.56688786E+00  -8.37491567E+00  -2.49872281E+01  -1.68362908E-01   3.01693327E-05  -4.53569873E+00  -2.61047512E+01  -4.59466478E+00   3.05004350E-01
   9.62500000E+02   5.00000000E-01   5.00000000E-01  -5.65445708E+00  -7.42236013E-01   2.38059710E-01  -2.20099625E+00  -6.08312352E-01  -7.34571535E+00  -1.48311627E+00   2.96660959E-01  -2.48802011E+00  -1.65522022E+00  -2.66791418E+00  -8.35851324E+00  -2.48312205E+01  -1.34970447E-01   4.01341164E-05  -4.63935842E+00  -2.59694868E+01  -4.64515824E+00   2.74271859E-01
   9.97500000E+02   5.00000000E-01   5.00000000E-01  -5.55683645E+00  -7.41709217E-01   2.37475099E-01  -2.17187610E+00  -6.21904456E-01  -7.35639713E+00  -1.58495188E+00   2.97382286E-01  -2.61817503E+00  -1.78738897E+00  -2.76965456E+00  -8.34119140E+00  -2.46786593E+01  -1.01562405E-01   5.29171728E-05  -4.74352156E+00  -2.58370229E+01  -4.69563331E+00   2.43725491E-01
   1.03250000E+03   5.00000000E-01   5.00000000E-01  -5.46035560E+00  -7.42183437E-01   2.37001471E-01  -2.14306656E+00  -6.35817809E-01  -7.36761354E+00  -1.68582827E+00   2.97950113E-01  -2.74787121E+00  -1.91858411E+00  -2.87090975E+00  -8.32327221E+00  -2.45288652E+01  -6.81492518E-02   6.91873249E-05  -4.84706640E+00  -2.57073195E+01  -4.74627095E+00   2.13563207E-01
   1.06750000E+03   5.00000000E-01   5.00000000E-01  -5.36533274E+00  -7.43875702E-01   2.36586656E-01  -2.11464485E+00  -6.50077237E-01  -7.37846268E+00  -1.78496800E+00   2.98400633E-01  -2.87550307E+00  -2.04759425E+00  -2.97053443E+00  -8.30519532E+00  -2.43812127E+01  -3.47404466E-02   8.97078623E-05  -4.94893751E+00  -2.55803364E+01  -4.79723635E+00   1.83951840E-01
   1.10250000E+03   5.00000000E-01   5.00000000E-01  -5.27204806E+00  -7.46953536E-01   2.36160256E-01  -2.08668502E+00  -6.64698707E-01  -7.38815044E+00  -1.88171110E+00   2.98770729E-01  -2.99964991E+00  -2.17338346E+00  -3.06752703E+00  -8.28740618E+00  -2.42351582E+01  -1.34363484E-03   1.15328684E-04  -5.04821877E+00  -2.54560256E+01  -4.84866340E+00   1.55026449E-01
   1.13750000E+03   5.00000000E-01   5.00000000E-01  -5.18070208E+00  -7.51506488E-01   2.35717687E-01  -2.05922736E+00  -6.79665315E-01  -7.39607407E+00  -1.97551769E+00   2.99078664E-01  -3.11926191E+00  -2.29511805E+00  -3.16112397E+00  -8.27012289E+00  -2.40902508E+01   3.20352350E-02   1.46999802E-04  -5.14419730E+00  -2.53343323E+01  -4.90065025E+00   1.26909897E-01
   1.17250000E+03   5.00000000E-01   5.00000000E-01  -5.09142010E+00  -7.57567560E-01   2.35368669E-01  -2.03226661E+00  -6.94924024E-01  -7.40179821E+00  -2.06589935E+00   2.99313440E-01  -3.23363522E+00  -2.41207433E+00  -3.25075703E+00  -8.25323110E+00  -2.39460962E+01   6.53903049E-02   1.85788193E-04  -5.23631162E+00  -2.52152068E+01  -4.95328067E+00   9.97407757E-02
   1.20750000E+03   5.00000000E-01   5.00000000E-01  -5.00432615E+00  -7.65186955E-01   2.35274291E-01  -2.00578391E+00  -7.10417462E-01  -7.40488379E+00  -2.15231232E+00   2.99449963E-01  -3.34207591E+00  -2.52345763E+00  -3.33583816E+00  -8.23650124E+00  -2.38022801E+01   9.87138368E-02   2.32825276E-04  -5.32397036E+00  -2.50986165E+01  -5.00666081E+00   7.36835765E-02
   1.24250000E+03   5.00000000E-01   5.00000000E-01  -4.91967015E+00  -7.74522096E-01   2.35428523E-01  -1.97983030E+00  -7.26148884E-01  -7.40462091E+00  -2.23410418E+00   2.99499248E-01  -3.44333048E+00  -2.62826179E+00  -3.41545102E+00  -8.22020860E+00  -2.36583042E+01   1.31996820E-01   2.89055201E-04  -5.40632506E+00  -2.49845446E+01  -5.06094033E+00   4.88887784E-02
   1.27750000E+03   5.00000000E-01   5.00000000E-01  -4.83779606E+00  -7.85772307E-01   2.35618170E-01  -1.95453052E+00  -7.42169199E-01  -7.40011792E+00  -2.31063926E+00   2.99516507E-01  -3.53573653E+00  -2.72545122E+00  -3.48848167E+00  -8.20518731E+00  -2.35136556E+01   1.65232588E-01   3.54925551E-04  -5.48239868E+00  -2.48729639E+01  -5.11626486E+00   2.54534644E-02
   1.31250000E+03   5.00000000E-01   5.00000000E-01  -4.75892838E+00  -7.98994144E-01   2.35721640E-01  -1.92996049E+00  -7.58468914E-01  -7.39076261E+00  -2.38146748E+00   2.99533744E-01  -3.61818007E+00  -2.81430080E+00  -3.55417243E+00  -8.19193804E+00  -2.33679486E+01   1.98419031E-01   4.30381641E-04  -5.55151526E+00  -2.47638175E+01  -5.17270757E+00   3.45277765E-03
   1.34750000E+03   5.00000000E-01   5.00000000E-01  -4.68305925E+00  -8.14061216E-01   2.35991252E-01  -1.90605030E+00  -7.74917446E-01  -7.37643310E+00  -2.44626547E+00   2.99499967E-01  -3.69058530E+00  -2.89438099E+00  -3.61234207E+00  -8.17988091E+00  -2.32209229E+01   2.31555128E-01   5.15103985E-04  -5.61342971E+00  -2.46570442E+01  -5.23028875E+00  -1.69788912E-02
   1.38250000E+03   5.00000000E-01   5.00000000E-01  -4.60983805E+00  -8.30683459E-01   2.37474013E-01  -1.88245190E+00  -7.91195649E-01  -7.35766774E+00  -2.50460659E+00   2.99197639E-01  -3.75436920E+00  -2.96531570E+00  -3.66351403E+00  -8.16631456E+00  -2.30723587E+01   2.64628753E-01   6.09248163E-04  -5.66834345E+00  -2.45526437E+01  -5.28905795E+00  -3.54936803E-02
   1.41750000E+03   5.00000000E-01   5.00000000E-01  -4.53911927E+00  -8.49011672E-01   2.41335261E-01  -1.85883049E+00  -8.07115554E-01  -7.33444647E+00  -2.55541715E+00   2.98412084E-01  -3.80994588E+00  -3.02576139E+00  -3.70742962E+00  -8.14851443E+00  -2.29216431E+01   2.97608373E-01   7.12897872E-04  -5.71572073E+00  -2.44508009E+01  -5.34935828E+00  -5.15652074E-02
   1.45250000E+03   5.00000000E-01   5.00000000E-01  -4.47274477E+00  -8.70908329E-01   2.45356353E-01  -1.83614612E+00  -8.23646225E-01  -7.30264812E+00  -2.59678438E+00   2.97631788E-01  -3.84897810E+00  -3.07217848E+00  -3.73906353E+00  -8.13336697E+00  -2.27672606E+01   3.30474366E-01   8.18634897E-04  -5.75152682E+00  -2.43518521E+01  -5.41204377E+00  -6.52694671E-02
   1.48750000E+03   5.00000000E-01   5.00000000E-01  -4.41111867E+00  -8.96574084E-01   2.48251802E-01  -1.81481394E+00  -8.41099827E-01  -7.26158757E+00  -2.62922333E+00   2.97094865E-01  -3.86973003E+00  -3.10500968E+00  -3.75775838E+00  -8.12421318E+00  -2.26094045E+01   3.63232779E-01   9.19085959E-04  -5.77551086E+00  -2.42556924E+01  -5.47703622E+00  -7.70304593E-02
   1.52250000E+03   5.00000000E-01   5.00000000E-01  -4.35143948E+00  -9.23520261E-01   2.53505166E-01  -1.79334479E+00  -8.58142387E-01  -7.21731212E+00  -2.65539915E+00   2.96158183E-01  -3.88444957E+00  -3.12926001E+00  -3.77084880E+00  -8.11054311E+00  -2.24500824E+01   3.95872201E-01   1.02287197E-03  -5.79355122E+00  -2.41619234E+01  -5.54328724E+00  -8.66692288E-02
   1.55750000E+03   5.00000000E-01   5.00000000E-01  -4.29233000E+00  -9.51229376E-01   2.63732954E-01  -1.77077668E+00  -8.74240591E-01  -7.17242565E+00  -2.67549665E+00   2.94464230E-01  -3.89874816E+00  -3.14587807E+00  -3.78126954E+00  -8.08528475E+00  -2.22895530E+01   4.28346634E-01   1.14501554E-03  -5.80771272E+00  -2.40707445E+01  -5.61084323E+00  -9.36369303E-02
   1.59250000E+03   5.00000000E-01   5.00000000E-01  -4.23720864E+00  -9.83360743E-01   2.74269603E-01  -1.74902950E+00  -8.91433636E-01  -7.11962679E+00  -2.68670165E+00   2.92874163E-01  -3.89758726E+00  -3.14929279E+00  -3.78020102E+00  -8.06237711E+00  -2.21256430E+01   4.60639958E-01   1.27372296E-03  -5.81112298E+00  -2.39828662E+01  -5.68125219E+00  -9.83529354E-02
   1.62750000E+03   5.00000000E-01   5.00000000E-01  -4.18662102E+00  -1.02025574E+00   2.82916813E-01  -1.72877925E+00  -9.10294280E-01  -7.05825829E+00  -2.69031703E+00   2.91664671E-01  -3.87897516E+00  -3.14092595E+00  -3.76716886E+00  -8.04729161E+00  -2.19591081E+01   4.92782444E-01   1.39653313E-03  -5.80393856E+00  -2.38981278E+01  -5.75431163E+00  -1.01621665E-01
   1.66250000E+03   5.00000000E-01   5.00000000E-01  -4.13772411E+00  -1.05945213E+00   2.92385441E-01  -1.70873235E+00  -9.29718252E-01  -6.99459022E+00  -2.69001232E+00   2.90421315E-01  -3.85530793E+00  -3.12711071E+00  -3.75003667E+00  -8.03117785E+00  -2.17923609E+01   5.24814289E-01   1.53565332E-03  -5.79269269E+00  -2.38160275E+01  -5.82874798E+00  -1.03697063E-01
   1.69750000E+03   5.00000000E-01   5.00000000E-01  -4.08976420E+00  -1.10067901E+00   3.03205186E-01  -1.68859427E+00  -9.49651362E-01  -6.93029113E+00  -2.68696454E+00   2.89086618E-01  -3.82982100E+00  -3.10977966E+00  -3.73095225E+00  -8.01213483E+00  -2.16261034E+01   5.56756851E-01   1.70960654E-03  -5.77922573E+00  -2.37365563E+01  -5.90436128E+00  -1.04741948E-01
   1.73250000E+03   5.00000000E-01   5.00000000E-01  -4.04356266E+00  -1.14425972E+00   3.13161933E-01  -1.66910202E+00  -9.70580580E-01  -6.86405258E+00  -2.68182507E+00   2.87921040E-01  -3.79930297E+00  -3.08935647E+00  -3.70854072E+00  -7.99597358E+00  -2.14607431E+01   5.88602654E-01   1.89593523E-03  -5.76288887E+00  -2.36594648E+01  -5.98098060E+00  -1.05407133E-01
   1.76750000E+03   5.00000000E-01   5.00000000E-01  -3.99776480E+00  -1.18791132E+00   3.22543411E-01  -1.64989687E+00  -9.91682065E-01  -6.79923207E+00  -2.67753640E+00   2.86872088E-01  -3.76985877E+00  -3.07043357E+00  -3.68715834E+00  -7.98084917E+00  -2.12982423E+01   6.20322447E-01   2.08381277E-03  -5.74768378E+00  -2.35838088E+01  -6.05717715E+00  -1.06328135E-01
   1.80250000E+03   5.00000000E-01   5.00000000E-01  -3.94984751E+00  -1.22877963E+00   3.33960101E-01  -1.62978362E+00  -1.01159409E+00  -6.74127247E+00  -2.67706759E+00   2.85669657E-01  -3.75219895E+00  -3.05823451E+00  -3.67354407E+00  -7.95862489E+00  -2.11405457E+01   6.51875821E-01   2.31510763E-03  -5.73919274E+00  -2.35087635E+01  -6.13148651E+00  -1.07635912E-01
   1.83750000E+03   5.00000000E-01   5.00000000E-01  -3.89723433E+00  -1.26491454E+00   3.51188136E-01  -1.60726133E+00  -1.02912794E+00  -6.69525808E+00  -2.68208380E+00   2.84001976E-01  -3.75677419E+00  -3.05626260E+00  -3.67377583E+00  -7.91856526E+00  -2.09886889E+01   6.83208687E-01   2.69426338E-03  -5.74208123E+00  -2.34340614E+01  -6.20315478E+00  -1.08903384E-01
   1.87250000E+03   5.00000000E-01   5.00000000E-01  -3.83798117E+00  -1.29572679E+00   3.77849095E-01  -1.58100575E+00  -1.04363587E+00  -6.66463179E+00  -2.69286489E+00   2.81695708E-01  -3.79095112E+00  -3.06583156E+00  -3.69179460E+00  -7.85097146E+00  -2.08427202E+01   7.14255498E-01   3.40873294E-03  -5.75909422E+00  -2.33599858E+01  -6.27222894E+00  -1.09424499E-01
   1.90750000E+03   5.00000000E-01   5.00000000E-01  -3.77475358E+00  -1.32502251E+00   4.11342948E-01  -1.55224059E+00  -1.05691098E+00  -6.64350952E+00  -2.70601529E+00   2.79125285E-01  -3.84304982E+00  -3.08102825E+00  -3.72019980E+00  -7.76437183E+00  -2.07004330E+01   7.44973115E-01   4.61226524E-03  -5.78413586E+00  -2.32876829E+01  -6.34066169E+00  -1.08979553E-01
   1.94250000E+03   5.00000000E-01   5.00000000E-01  -3.71380385E+00  -1.35876584E+00   4.42944031E-01  -1.52448622E+00  -1.07232867E+00  -6.61950079E+00  -2.71692719E+00   2.76887681E-01  -3.88760619E+00  -3.09256904E+00  -3.74391224E+00  -7.68414136E+00  -2.05592409E+01   7.75360900E-01   6.18476808E-03  -5.80561036E+00  -2.32182515E+01  -6.41097094E+00  -1.08355446E-01
   1.97750000E+03   5.00000000E-01   5.00000000E-01  -3.65891383E+00  -1.39879794E+00   4.65476854E-01  -1.50034484E+00  -1.09151997E+00  -6.58602481E+00  -2.72517800E+00   2.75263001E-01  -3.91030698E+00  -3.09803184E+00  -3.75529774E+00  -7.62969513E+00  -2.04193420E+01   8.05439091E-01   7.77602246E-03  -5.81836561E+00  -2.31513020E+01  -6.48335104E+00  -1.08973230E-01
   2.01250000E+03   5.00000000E-01   5.00000000E-01  -3.60860212E+00  -1.44144690E+00   4.78462130E-01  -1.47962278E+00  -1.11319509E+00  -6.54708070E+00  -2.73497182E+00   2.74160038E-01  -3.91830714E+00  -3.10378802E+00  -3.75975951E+00  -7.60056750E+00  -2.02834855E+01   8.35224915E-01   9.16399491E-03  -5.82750072E+00  -2.30851637E+01  -6.55545701E+00  -1.11925453E-01
   2.04750000E+03   5.00000000E-01   5.00000000E-01  -3.55874491E+00  -1.48150947E+00   4.86113052E-01  -1.46038944E+00  -1.13488293E+00  -6.51135154E+00  -2.75117920E+00   2.73326767E-01  -3.92882275E+00  -3.11839131E+00  -3.76822145E+00  -7.58344018E+00  -2.01544806E+01   8.64721522E-01   1.03996574E-02  -5.84196735E+00  -2.30182492E+01  -6.62459807E+00  -1.17473337E-01
   2.08250000E+03   5.00000000E-01   5.00000000E-01  -3.50681085E+00  -1.51651015E+00   4.91898905E-01  -1.44123595E+00  -1.15520174E+00  -6.48378615E+00  -2.77569473E+00   2.72573005E-01  -3.95202839E+00  -3.14562471E+00  -3.78674159E+00  -7.56821858E+00  -2.00332919E+01   8.93911943E-01   1.16285986E-02  -5.86643364E+00  -2.29500091E+01  -6.68969094E+00  -1.25329063E-01
   2.11750000E+03   5.00000000E-01   5.00000000E-01  -3.45225878E+00  -1.54651117E+00   4.97319900E-01  -1.42166744E+00  -1.17395757E+00  -6.46512385E+00  -2.80797781E+00   2.71806805E-01  -3.98978026E+00  -3.18503129E+00  -3.81606174E+00  -7.55110456E+00  -1.99194883E+01   9.22762814E-01   1.29618113E-02  -5.90119601E+00  -2.28806688E+01  -6.75098199E+00  -1.35042683E-01
   2.15250000E+03   5.00000000E-01   5.00000000E-01  -3.39537733E+00  -1.57248716E+00   5.02842188E-01  -1.40162429E+00  -1.19143308E+00  -6.45443878E+00  -2.84673442E+00   2.70991297E-01  -4.04054713E+00  -3.23473508E+00  -3.85485605E+00  -7.53140274E+00  -1.98122414E+01   9.51232556E-01   1.44677359E-02  -5.94492629E+00  -2.28106883E+01  -6.80915015E+00  -1.46205018E-01
   2.18750000E+03   5.00000000E-01   5.00000000E-01  -3.33658466E+00  -1.59541842E+00   5.08577911E-01  -1.38116385E+00  -1.20796591E+00  -6.45062522E+00  -2.89078933E+00   2.70111878E-01  -4.10234041E+00  -3.29295334E+00  -3.90160977E+00  -7.50933308E+00  -1.97108254E+01   9.79277601E-01   1.61949402E-02  -5.99622073E+00  -2.27404804E+01  -6.86482829E+00  -1.58511277E-01
   2.22250000E+03   5.00000000E-01   5.00000000E-01  -3.27620814E+00  -1.61602778E+00   5.14543623E-01  -1.36034891E+00  -1.22381590E+00  -6.45284567E+00  -2.93930606E+00   2.69162196E-01  -4.17362096E+00  -3.35840028E+00  -3.95518024E+00  -7.48523974E+00  -1.96147340E+01   1.00685574E+00   1.81874918E-02  -6.05404543E+00  -2.26703363E+01  -6.91847372E+00  -1.71758445E-01
   2.25750000E+03   5.00000000E-01   5.00000000E-01  -3.21446123E+00  -1.63478241E+00   5.20735394E-01  -1.33922388E+00  -1.23915360E+00  -6.46055666E+00  -2.99175087E+00   2.68139326E-01  -4.25337634E+00  -3.43025085E+00  -4.01482231E+00  -7.45939842E+00  -1.95236494E+01   1.03392752E+00   2.04918171E-02  -6.11773747E+00  -2.26004365E+01  -6.97038043E+00  -1.85820581E-01
   2.29250000E+03   5.00000000E-01   5.00000000E-01  -3.15147375E+00  -1.65196403E+00   5.27146059E-01  -1.31781661E+00  -1.25408214E+00  -6.47342444E+00  -3.04779777E+00   2.67042248E-01  -4.34097654E+00  -3.50799920E+00  -4.08007470E+00  -7.43200516E+00  -1.94373789E+01   1.06045668E+00   2.31592574E-02  -6.18689417E+00  -2.25308826E+01  -7.02072637E+00  -2.00622401E-01
   2.32750000E+03   5.00000000E-01   5.00000000E-01  -3.08732548E+00  -1.66773777E+00   5.33768223E-01  -1.29614468E+00  -1.26866112E+00  -6.49123829E+00  -3.10724276E+00   2.65871353E-01  -4.43601923E+00  -3.59132760E+00  -4.15064462E+00  -7.40320155E+00  -1.93557999E+01   1.08641006E+00   2.62468528E-02  -6.26126526E+00  -2.24617271E+01  -7.06961775E+00  -2.16118119E-01
   2.36250000E+03   5.00000000E-01   5.00000000E-01  -3.02207062E+00  -1.68220256E+00   5.40595746E-01  -1.27422013E+00  -1.28292427E+00  -6.51384792E+00  -3.16994235E+00   2.64628198E-01  -4.53821728E+00  -3.68001218E+00  -4.22632429E+00  -7.37309501E+00  -1.92788205E+01   1.11175737E+00   2.98174241E-02  -6.34067523E+00  -2.23929948E+01  -7.11712120E+00  -2.32276404E-01
   2.39750000E+03   5.00000000E-01   5.00000000E-01  -2.95575268E+00  -1.69542358E+00   5.47626658E-01  -1.25205176E+00  -1.29689060E+00  -6.54112492E+00  -3.23577378E+00   2.63315287E-01  -4.64732973E+00  -3.77386241E+00  -4.30693883E+00  -7.34176714E+00  -1.92063543E+01   1.13647091E+00   3.39393101E-02  -6.42497467E+00  -2.23246971E+01  -7.16328486E+00  -2.49070252E-01
   2.43250000E+03   5.00000000E-01   5.00000000E-01  -2.88841225E+00  -1.70745177E+00   5.54867483E-01  -1.22964568E+00  -1.31057080E+00  -6.57294125E+00  -3.30461067E+00   2.61935805E-01  -4.76312419E+00  -3.87268466E+00  -4.39231676E+00  -7.30927221E+00  -1.91383054E+01   1.16052533E+00   3.86857785E-02  -6.51401196E+00  -2.22568410E+01  -7.20815135E+00  -2.66470215E-01
   2.46750000E+03   5.00000000E-01   5.00000000E-01  -2.82009073E+00  -1.71833502E+00   5.62338247E-01  -1.20700486E+00  -1.32397045E+00  -6.60915811E+00  -3.37630789E+00   2.60493318E-01  -4.88535795E+00  -3.97626011E+00  -4.48227409E+00  -7.27563014E+00  -1.90745588E+01   1.18389734E+00   4.41339286E-02  -6.60761749E+00  -2.21894350E+01  -7.25176555E+00  -2.84439711E-01
   2.50250000E+03   5.00000000E-01   5.00000000E-01  -2.75083194E+00  -1.72812439E+00   5.70077404E-01  -1.18412813E+00  -1.33709144E+00  -6.64961997E+00  -3.45069159E+00   2.58991455E-01  -5.01376867E+00  -4.08433065E+00  -4.57660531E+00  -7.24081758E+00  -1.90149740E+01   1.20656549E+00   5.03627665E-02  -6.70559422E+00  -2.21224916E+01  -7.29417945E+00  -3.02931572E-01
   2.53750000E+03   5.00000000E-01   5.00000000E-01  -2.68068297E+00  -1.73687740E+00   5.78146308E-01  -1.16100930E+00  -1.34993219E+00  -6.69415069E+00  -3.52755166E+00   2.57433624E-01  -5.14806878E+00  -4.19658831E+00  -4.67507743E+00  -7.20475906E+00  -1.89593807E+01   1.22850992E+00   5.74500620E-02  -6.80771103E+00  -2.20560301E+01  -7.33545508E+00  -3.21885272E-01
   2.57250000E+03   5.00000000E-01   5.00000000E-01  -2.60969477E+00  -1.74465941E+00   5.86633243E-01  -1.13763620E+00  -1.36248718E+00  -6.74255040E+00  -3.60663527E+00   2.55822751E-01  -5.28794115E+00  -4.31266643E+00  -4.77742513E+00  -7.16731871E+00  -1.89075737E+01   1.24971207E+00   6.54676067E-02  -6.91369720E+00  -2.19900775E+01  -7.37566639E+00  -3.41224529E-01
   2.60750000E+03   5.00000000E-01   5.00000000E-01  -2.53792254E+00  -1.75154347E+00   5.95657407E-01  -1.11398977E+00  -1.37474575E+00  -6.79459277E+00  -3.68764103E+00   2.54161103E-01  -5.43303580E+00  -4.43213172E+00  -4.88334668E+00  -7.12829175E+00  -1.88593096E+01   1.27015436E+00   7.44746159E-02  -7.02323751E+00  -2.19246685E+01  -7.41490025E+00  -3.60855079E-01
   2.64250000E+03   5.00000000E-01   5.00000000E-01  -2.46542549E+00  -1.75760866E+00   6.05373443E-01  -1.09004290E+00  -1.38669016E+00  -6.85002336E+00  -3.77021370E+00   2.52450177E-01  -5.58296854E+00  -4.55447735E+00  -4.99250116E+00  -7.08739404E+00  -1.88143017E+01   1.28981983E+00   8.45092590E-02  -7.13596828E+00  -2.18598461E+01  -7.45325672E+00  -3.80662485E-01
   2.67750000E+03   5.00000000E-01   5.00000000E-01  -2.39226577E+00  -1.76293686E+00   6.15977238E-01  -1.06575870E+00  -1.39829286E+00  -6.90855956E+00  -3.85393962E+00   2.50690720E-01  -5.73732337E+00  -4.67911753E+00  -5.10450798E+00  -7.04424800E+00  -1.87722170E+01   1.30869175E+00   9.55786617E-02  -7.25147522E+00  -2.17956604E+01  -7.49084851E+00  -4.00509893E-01
   2.71250000E+03   5.00000000E-01   5.00000000E-01  -2.31850573E+00  -1.76760754E+00   6.27713726E-01  -1.04108799E+00  -1.40951273E+00  -6.96989346E+00  -3.93834342E+00   2.48882903E-01  -5.89566047E+00  -4.80538444E+00  -5.21894989E+00  -6.99836254E+00  -1.87326715E+01   1.32675312E+00   1.07648180E-01  -7.36929385E+00  -2.17321680E+01  -7.52779957E+00  -4.20235697E-01