 TITLE = "Mineral Saturation State" 
VARIABLES = "X"          "Y"              "Z"            "Forsterite"     "Enstatite(alph" "Anorthite"      "Ferropargasite" "Anhydrite"      "Clinochlore"    "Albite(low)"   
 ZONE I=          35 , J=           1 , K=           1  F=POINT
   5.00000000E+01   5.00000000E-01   5.00000000E-01   2.24633399E+00   1.18059582E+00  -2.91319728E+01  -4.12046438E+01  -7.77892987E-01   4.23299729E-01  -1.42571602E+01
   1.50000000E+02   5.00000000E-01   5.00000000E-01   1.75031628E+00   4.48906216E-01  -2.85418541E+01  -4.25099583E+01  -7.21577430E-01   4.23245017E-01  -1.59390073E+01
   2.50000000E+02   5.00000000E-01   5.00000000E-01   1.07041837E+00  -4.88034375E-01  -2.78283268E+01  -4.42545786E+01  -6.63421778E-01   4.23245017E-01  -1.80112619E+01
   3.50000000E+02   5.00000000E-01   5.00000000E-01   9.24894111E-01  -8.85442491E-01  -2.76556440E+01  -4.52005267E+01  -6.03828682E-01   4.23245017E-01  -1.92634973E+01
   4.50000000E+02   5.00000000E-01   5.00000000E-01   9.25462157E-01  -1.12593170E+00  -2.76233862E+01  -4.59000892E+01  -5.43161073E-01   4.23245017E-01  -2.02494579E+01
   5.50000000E+02   5.00000000E-01   5.00000000E-01   9.27095625E-01  -1.35343224E+00  -2.75836169E+01  -4.65641259E+01  -4.81725672E-01   4.23245017E-01  -2.11808942E+01
   6.50000000E+02   5.00000000E-01   5.00000000E-01   9.28016110E-01  -1.56923016E+00  -2.75329122E+01  -4.71917358E+01  -4.19775175E-01   4.23245017E-01  -2.20577234E+01
   7.50000000E+02   5.00000000E-01   5.00000000E-01   9.28546344E-01  -1.77285957E+00  -2.74706979E+01  -4.77806464E+01  -3.57515888E-01   4.23245017E-01  -2.28784737E+01
   8.50000000E+02   5.00000000E-01   5.00000000E-01   9.28860180E-01  -1.96425481E+00  -2.73967992E+01  -4.83300771E+01  -2.95115045E-01   4.23245017E-01  -2.36431682E+01
   9.50000000E+02   5.00000000E-01   5.00000000E-01   9.29051006E-01  -2.14360897E+00  -2.73113585E+01  -4.88402651E+01  -2.32707274E-01   4.23245017E-01  -2.43528563E+01
   1.05000000E+03   5.00000000E-01   5.00000000E-01   9.29170131E-01  -2.31127930E+00  -2.72147579E+01  -4.93121302E+01  -1.70400166E-01   4.23245017E-01  -2.50092736E+01
   1.15000000E+03   5.00000000E-01   5.00000000E-01   9.29246411E-01  -2.46772587E+00  -2.71075513E+01  -4.97470455E+01  -1.08279007E-01   4.23245017E-01  -2.56146035E+01
   1.25000000E+03   5.00000000E-01   5.00000000E-01   9.29296461E-01  -2.61347302E+00  -2.69904143E+01  -5.01466916E+01  -4.64108084E-02   4.23245018E-01  -2.61713189E+01
   1.35000000E+03   5.00000000E-01   5.00000000E-01   9.29330072E-01  -2.74908694E+00  -2.68641128E+01  -5.05129755E+01   1.51521780E-02   4.23245019E-01  -2.66820890E+01
   1.45000000E+03   5.00000000E-01   5.00000000E-01   9.29353141E-01  -2.87516483E+00  -2.67294871E+01  -5.08479998E+01   7.63692797E-02   4.23245021E-01  -2.71497337E+01
   1.55000000E+03   5.00000000E-01   5.00000000E-01   9.29369300E-01  -2.99233147E+00  -2.65874483E+01  -5.11540654E+01   1.37208363E-01   4.23245024E-01  -2.75772125E+01
   1.65000000E+03   5.00000000E-01   5.00000000E-01   9.29380826E-01  -3.10124027E+00  -2.64389812E+01  -5.14336937E+01   1.97642805E-01   4.23245031E-01  -2.79676315E+01
   1.75000000E+03   5.00000000E-01   5.00000000E-01   9.29389163E-01  -3.20257593E+00  -2.62851512E+01  -5.16896552E+01   2.57648403E-01   4.23245044E-01  -2.83242587E+01
   1.85000000E+03   5.00000000E-01   5.00000000E-01   9.29395233E-01  -3.29705707E+00  -2.61271094E+01  -5.19249947E+01   3.17200228E-01   4.23245068E-01  -2.86505373E+01
   1.95000000E+03   5.00000000E-01   5.00000000E-01   9.29399609E-01  -3.38543744E+00  -2.59660968E+01  -5.21430478E+01   3.76269501E-01   4.23245110E-01  -2.89500922E+01
   2.05000000E+03   5.00000000E-01   5.00000000E-01   9.29402612E-01  -3.46850540E+00  -2.58034433E+01  -5.23474427E+01   4.34820617E-01   4.23245181E-01  -2.92267268E+01
   2.15000000E+03   5.00000000E-01   5.00000000E-01   9.29404367E-01  -3.54708150E+00  -2.56405640E+01  -5.25420891E+01   4.92808481E-01   4.23245302E-01  -2.94844114E+01
   2.25000000E+03   5.00000000E-01   5.00000000E-01   9.29404812E-01  -3.62201457E+00  -2.54789514E+01  -5.27311540E+01   5.50176292E-01   4.23245501E-01  -2.97272626E+01
   2.35000000E+03   5.00000000E-01   5.00000000E-01   9.29403690E-01  -3.69417653E+00  -2.53201656E+01  -5.29190253E+01   6.06853916E-01   4.23245821E-01  -2.99595175E+01
   2.45000000E+03   5.00000000E-01   5.00000000E-01   9.29400517E-01  -3.76445594E+00  -2.51658202E+01  -5.31102621E+01   6.62756940E-01   4.23246326E-01  -3.01855007E+01
   2.55000000E+03   5.00000000E-01   5.00000000E-01   9.29394524E-01  -3.83374974E+00  -2.50175652E+01  -5.33095307E+01   7.17786495E-01   4.23247106E-01  -3.04095826E+01
   2.65000000E+03   5.00000000E-01   5.00000000E-01   9.29384588E-01  -3.90295237E+00  -2.48770630E+01  -5.35215213E+01   7.71829917E-01   4.23248286E-01  -3.06361244E+01
   2.75000000E+03   5.00000000E-01   5.00000000E-01   9.29369148E-01  -3.97294105E+00  -2.47459565E+01  -5.37508402E+01   8.24762327E-01   4.23250039E-01  -3.08694041E+01
   2.85000000E+03   5.00000000E-01   5.00000000E-01   9.29346295E-01  -4.04455610E+00  -2.46258269E+01  -5.40018771E+01   8.76449175E-01   4.23252570E-01  -3.11135179E+01
   2.95000000E+03   5.00000000E-01   5.00000000E-01   9.29316536E-01  -4.11857396E+00  -2.45181440E+01  -5.42786442E+01   9.26749781E-01   4.23255829E-01  -3.13722552E+01
   3.05000000E+03   5.00000000E-01   5.00000000E-01   9.29311939E-01  -4.19565030E+00  -2.44242387E+01  -5.45845687E+01   9.75521790E-01   4.23256388E-01  -3.16489170E+01
   3.15000000E+03   5.00000000E-01   5.00000000E-01   9.29572783E-01  -4.27611498E+00  -2.43454357E+01  -5.49220911E+01   1.02262638E+00   4.23228556E-01  -3.19459190E+01
   3.25000000E+03   5.00000000E-01   5.00000000E-01   9.31111531E-01  -4.35938282E+00  -2.42836226E+01  -5.52917731E+01   1.06793391E+00   4.23063699E-01  -3.22638489E+01
   3.35000000E+03   5.00000000E-01   5.00000000E-01   9.36402925E-01  -4.44324542E+00  -2.42419763E+01  -5.56912892E+01   1.11132959E+00   4.22491695E-01  -3.26003802E+01
   3.45000000E+03   5.00000000E-01   5.00000000E-01   9.48897341E-01  -4.52425323E+00  -2.42242118E+01  -5.61154975E+01   1.15269044E+00   4.21109885E-01  -3.29504942E+01
