 TITLE = "Mineral Saturation State" 
VARIABLES = "X"          "Y"              "Z"            "Forsterite"     "Fayalite"       "Brucite"        "Lizardite"      "Chrysotile"     "Saponite(Mg)"   "Enstatite(alph" "Ferrosilite(al" "Anorthite"      "Albite(low)"    "Clinochlore"    "Sudoite"        "Montmorillonit" "Kaolinite"      "Tremolite"      "Pargasite"      "Anhydrite"      "Epidote"        "Scolecite"      "Pyrite"         "FeS(am)"        "Quartz(alpha)" 
 ZONE I=         100 , J=           1 , K=           1  F=POINT
   1.75000000E+01   5.00000000E-01   5.00000000E-01  -6.73492225E+00  -4.46373340E-01  -4.89401767E+00  -5.23975673E-01  -6.40443905E-01   2.82858988E+00  -2.06527827E+00   1.91101190E-02  -1.16837075E+01  -3.77443953E-01   2.56360221E-03  -7.53355053E+00  -1.46041901E+00  -5.09888812E+00  -9.86259294E-01  -3.15718562E+01  -9.47687765E-01  -2.75442257E-06  -5.88132306E+00  -3.17313671E+01  -3.48864119E+00   1.32255041E+00
   5.25000000E+01   5.00000000E-01   5.00000000E-01  -6.67372004E+00  -1.41067445E-01  -4.94393233E+00  -5.02203910E-01  -6.14646486E-01   3.09493288E+00  -1.97135921E+00   2.44055009E-01  -1.12927882E+01   2.93198268E-02   2.44614653E-03  -7.18742161E+00  -8.71802409E-01  -4.74514101E+00  -3.55157093E-01  -3.08226398E+01  -8.94832626E-01   8.24724375E-07  -5.43969920E+00  -3.12594876E+01  -3.40153341E+00   1.46324295E+00
   8.75000000E+01   5.00000000E-01   5.00000000E-01  -6.59254020E+00  -4.94937773E-02  -4.93088609E+00  -5.00975252E-01  -6.09477484E-01   3.17539549E+00  -1.92030333E+00   3.09118714E-01  -1.10590721E+01   1.48080323E-01   2.35930577E-03  -7.03526906E+00  -6.76853592E-01  -4.60580900E+00  -1.36030167E-01  -3.03148786E+01  -8.43571941E-01   1.84059431E-07  -5.25998502E+00  -3.09199685E+01  -3.39663623E+00   1.49796514E+00
   1.22500000E+02   5.00000000E-01   5.00000000E-01  -6.51399118E+00  -2.15719228E-02  -4.90374588E+00  -5.16697260E-01  -6.21341733E-01   3.19321261E+00  -1.88584846E+00   3.26912694E-01  -1.08596213E+01   1.90115078E-01   2.33171020E-03  -6.91124529E+00  -5.83836470E-01  -4.51147874E+00  -6.52467367E-02  -2.98811863E+01  -7.93202203E-01   5.83958194E-08  -5.14412623E+00  -3.06204210E+01  -3.41571244E+00   1.50185703E+00
   1.57500000E+02   5.00000000E-01   5.00000000E-01  -6.46204505E+00  -2.10137461E-02  -4.88757187E+00  -5.72310063E-01  -6.73176750E-01   3.17256946E+00  -1.86690338E+00   3.28662941E-01  -1.06185187E+01   2.45187841E-01   2.36611127E-03  -6.69308571E+00  -4.61797009E-01  -4.36282697E+00  -1.05821952E-01  -2.94533918E+01  -7.43008755E-01   1.00811761E-07  -4.99006739E+00  -3.03284641E+01  -3.44364016E+00   1.50108014E+00
   1.92500000E+02   5.00000000E-01   5.00000000E-01  -6.46970314E+00  -4.31531926E-02  -4.90342277E+00  -7.12812435E-01  -8.09978814E-01   3.09328619E+00  -1.87540806E+00   3.21267642E-01  -1.02594377E+01   3.69186404E-01   2.47622272E-03  -6.23942688E+00  -2.20172906E-01  -4.06350150E+00  -3.30261822E-01  -2.89944364E+01  -6.92389274E-01   2.53673986E-07  -4.71237648E+00  -3.00243023E+01  -3.47494942E+00   1.50476261E+00
   2.27500000E+02   5.00000000E-01   5.00000000E-01  -6.42889463E+00  -3.61770248E-02  -4.89109340E+00  -7.82321400E-01  -8.75862554E-01   3.05609820E+00  -1.86349469E+00   3.24470135E-01  -1.00120807E+01   4.22960503E-01   2.48335836E-03  -5.99504203E+00  -9.68429623E-02  -3.90221301E+00  -4.18331945E-01  -2.85856943E+01  -6.41957462E-01   9.54311902E-08  -4.55310698E+00  -2.97394019E+01  -3.50015686E+00   1.50057585E+00
   2.62500000E+02   5.00000000E-01   5.00000000E-01  -6.35522195E+00  -2.17119529E-02  -4.85966399E+00  -8.03013719E-01  -8.93002442E-01   3.04797088E+00  -1.83768367E+00   3.28741996E-01  -9.84240520E+00   4.28775525E-01   2.46590060E-03  -5.89460705E+00  -5.46567966E-02  -3.83589194E+00  -4.13115498E-01  -2.82136584E+01  -5.91906485E-01   4.58339130E-09  -4.47567016E+00  -2.94750510E+01  -3.52720044E+00   1.49108779E+00
   2.97500000E+02   5.00000000E-01   5.00000000E-01  -6.27443694E+00  -1.31107913E-02  -4.82361509E+00  -8.11963379E-01  -8.98470265E-01   3.04538566E+00  -1.80924488E+00   3.29016815E-01  -9.69514939E+00   4.20650207E-01   2.45833614E-03  -5.83164379E+00  -3.58647405E-02  -3.79516828E+00  -3.89651365E-01  -2.78578800E+01  -5.42257071E-01  -1.81924864E-08  -4.42160763E+00  -2.92240668E+01  -3.55884775E+00   1.47951663E+00
   3.32500000E+02   5.00000000E-01   5.00000000E-01  -6.19221513E+00  -8.68083134E-03  -4.78645536E+00  -8.17062310E-01  -9.00155847E-01   3.04439098E+00  -1.78034408E+00   3.26816758E-01  -9.55723116E+00   4.07754137E-01   2.45752774E-03  -5.78192873E+00  -2.55384964E-02  -3.76370719E+00  -3.61347570E-01  -2.75120639E+01  -4.93003028E-01  -2.46618492E-08  -4.37650838E+00  -2.89825057E+01  -3.59359402E+00   1.46721229E+00
   3.67500000E+02   5.00000000E-01   5.00000000E-01  -6.11019319E+00  -6.42547817E-03  -4.74923105E+00  -8.20585927E-01  -9.00332581E-01   3.04395802E+00  -1.75157094E+00   3.23372460E-01  -9.42462120E+00   3.92956644E-01   2.45996767E-03  -5.73828699E+00  -1.90705753E-02  -3.73660582E+00  -3.31630185E-01  -2.71739243E+01  -4.44132641E-01  -2.56774634E-08  -4.33590064E+00  -2.87483922E+01  -3.63025349E+00   1.45463783E+00
   4.02500000E+02   5.00000000E-01   5.00000000E-01  -6.02907539E+00  -5.26704515E-03  -4.71235692E+00  -8.23575117E-01  -9.00039413E-01   3.04348294E+00  -1.72321448E+00   3.19289406E-01  -9.29553340E+00   3.77346859E-01   2.46389389E-03  -5.69760649E+00  -1.46606840E-02  -3.71179151E+00  -3.02238517E-01  -2.68424169E+01  -3.95633281E-01  -2.40609729E-08  -4.29788672E+00  -2.85206944E+01  -3.66816923E+00   1.44192505E+00
   4.37500000E+02   5.00000000E-01   5.00000000E-01  -5.94923008E+00  -4.67460786E-03  -4.67602736E+00  -8.26618055E-01  -8.99862655E-01   3.04254416E+00  -1.69544839E+00   3.14846931E-01  -9.16898659E+00   3.61405301E-01   2.46853071E-03  -5.65822755E+00  -1.14750231E-02  -3.68819247E+00  -2.74256313E-01  -2.65169378E+01  -3.47492754E-01  -2.08407980E-08  -4.26147894E+00  -2.82988298E+01  -3.70698914E+00   1.42910026E+00
   4.72500000E+02   5.00000000E-01   5.00000000E-01  -5.87085374E+00  -4.38171783E-03  -4.64033897E+00  -8.30055781E-01  -9.00141556E-01   3.04087321E+00  -1.66837252E+00   3.10179898E-01  -9.04438638E+00   3.45375129E-01   2.47354690E-03  -5.61920662E+00  -9.07656335E-03  -3.66520650E+00  -2.48302352E-01  -2.61970568E+01  -2.99699711E-01  -1.65179819E-08  -4.22610032E+00  -2.80824393E+01  -3.74651946E+00   1.41616539E+00
   5.07500000E+02   5.00000000E-01   5.00000000E-01  -5.79404105E+00  -4.24826148E-03  -4.60533797E+00  -8.34074985E-01  -9.01061085E-01   3.03832274E+00  -1.64203552E+00   3.05360221E-01  -8.92135561E+00   3.29396502E-01   2.47880199E-03  -5.58001119E+00  -7.21397943E-03  -3.64248842E+00  -2.24654928E-01  -2.58824217E+01  -2.52243731E-01  -1.14006340E-08  -4.19139020E+00  -2.78712805E+01  -3.78664941E+00   1.40312290E+00
   5.42500000E+02   5.00000000E-01   5.00000000E-01  -5.71882493E+00  -4.19749691E-03  -4.57104272E+00  -8.38765597E-01  -9.02709518E-01   3.03482985E+00  -1.61645230E+00   3.00430826E-01  -8.79964691E+00   3.13559919E-01   2.48424322E-03  -5.54035485E+00  -5.73203030E-03  -3.61984257E+00  -2.03364974E-01  -2.55727222E+01  -2.05115264E-01  -5.71392869E-09  -4.15711187E+00  -2.76651747E+01  -3.82731265E+00   1.38998070E+00
   5.77500000E+02   5.00000000E-01   5.00000000E-01  -5.64520166E+00  -4.18659680E-03  -4.53745567E+00  -8.44159034E-01  -9.05116679E-01   3.03038465E+00  -1.59161723E+00   2.95419830E-01  -8.67909220E+00   2.97928964E-01   2.48984620E-03  -5.50009791E+00  -4.52945823E-03  -3.59716168E+00  -1.84346164E-01  -2.52676764E+01  -1.58305512E-01   3.56440113E-10  -4.12310312E+00  -2.74639779E+01  -3.86846676E+00   1.37675106E+00
   6.12500000E+02   5.00000000E-01   5.00000000E-01  -5.57314682E+00  -4.19194349E-03  -4.50457019E+00  -8.50253349E-01  -9.08279091E-01   3.02500714E+00  -1.56751320E+00   2.90346759E-01  -8.55957186E+00   2.82550867E-01   2.49557224E-03  -5.45918571E+00  -3.53735170E-03  -3.57439023E+00  -1.67439138E-01  -2.49670250E+01  -1.11806279E-01   6.64576833E-09  -4.08924773E+00  -2.72675646E+01  -3.91008157E+00   1.36344835E+00
   6.47500000E+02   5.00000000E-01   5.00000000E-01  -5.50262528E+00  -4.20116046E-03  -4.47237463E+00  -8.57029171E-01  -9.12175907E-01   3.01873181E+00  -1.54411755E+00   2.85225610E-01  -8.44099571E+00   2.67461986E-01   2.50135246E-03  -5.41761042E+00  -2.70708810E-03  -3.55150213E+00  -1.52453269E-01  -2.46705279E+01  -6.56098322E-02   1.30025069E-08  -4.05545831E+00  -2.70758183E+01  -3.95213253E+00   1.35008717E+00
   6.82500000E+02   5.00000000E-01   5.00000000E-01  -5.43359727E+00  -4.20847238E-03  -4.44085471E+00  -8.64459403E-01  -9.16778612E-01   3.01159820E+00  -1.52140570E+00   2.80066571E-01  -8.32329133E+00   2.52690952E-01   2.50710885E-03  -5.37538791E+00  -2.00327572E-03  -3.52848738E+00  -1.39191927E-01  -2.43779625E+01  -1.97087661E-02   1.92853579E-08  -4.02166579E+00  -2.68886262E+01  -3.99459675E+00   1.33668116E+00
   7.17500000E+02   5.00000000E-01   5.00000000E-01  -5.36602190E+00  -4.21188743E-03  -4.40999493E+00  -8.72514983E-01  -9.22056774E-01   3.00364524E+00  -1.49935330E+00   2.74877077E-01  -8.20639682E+00   2.38260593E-01   2.51279816E-03  -5.33254393E+00  -1.39949753E-03  -3.50534394E+00  -1.27466988E-01  -2.40891210E+01   2.59041067E-02   2.53633642E-08  -3.98781294E+00  -2.67058760E+01  -4.03745077E+00   1.32324229E+00
   7.52500000E+02   5.00000000E-01   5.00000000E-01  -5.29985899E+00  -4.21133390E-03  -4.37977938E+00  -8.81167735E-01  -9.27980900E-01   2.99490864E+00  -1.47793726E+00   2.69662627E-01  -8.09025667E+00   2.24189271E-01   2.51840112E-03  -5.28910701E+00  -8.75746384E-04  -3.48207356E+00  -1.17105005E-01  -2.38038088E+01   7.12358376E-02   3.11169121E-08  -3.95385045E+00  -2.65274546E+01  -4.08066947E+00   1.30978063E+00
   7.87500000E+02   5.00000000E-01   5.00000000E-01  -5.23507006E+00  -4.20753319E-03  -4.35019216E+00  -8.90391879E-01  -9.34523940E-01   2.98541966E+00  -1.45713618E+00   2.64427340E-01  -7.97481917E+00   2.10491923E-01   2.52391365E-03  -5.24510449E+00  -4.16665532E-04  -3.45867927E+00  -1.07949544E-01  -2.35218427E+01   1.16293399E-01   3.64400058E-08  -3.91973439E+00  -2.63532478E+01  -4.12422560E+00   1.29630431E+00
   8.22500000E+02   5.00000000E-01   5.00000000E-01  -5.17161869E+00  -4.20125512E-03  -4.32121762E+00  -9.00164607E-01  -9.41661857E-01   2.97520476E+00  -1.43693061E+00   2.59174386E-01  -7.86003469E+00   1.97180940E-01   2.52934390E-03  -5.20056069E+00  -1.03288901E-05  -3.43516408E+00  -9.98608264E-02  -2.32430486E+01   1.61083715E-01   4.12424460E-08  -3.88542436E+00  -2.61831401E+01  -4.16808970E+00   1.28281968E+00
   8.57500000E+02   5.00000000E-01   5.00000000E-01  -5.10947078E+00  -4.19288595E-03  -4.29284057E+00  -9.10466425E-01  -9.49373978E-01   2.96428556E+00  -1.41730299E+00   2.53906257E-01  -7.74585436E+00   1.84266863E-01   2.53471705E-03  -5.15549570E+00   3.52642512E-04  -3.41153015E+00  -9.27148406E-02  -2.29672596E+01   2.05613674E-01   4.54515517E-08  -3.85088208E+00  -2.60170156E+01  -4.21223033E+00   1.26933136E+00
   8.92500000E+02   5.00000000E-01   5.00000000E-01  -5.04859463E+00  -4.18212030E-03  -4.26504632E+00  -9.21281245E-01  -9.57643073E-01   2.95267883E+00  -1.39823773E+00   2.48624980E-01  -7.63222899E+00   1.71758992E-01   2.54007221E-03  -5.10992485E+00   6.79706917E-04  -3.38777835E+00  -8.64017462E-02  -2.26943141E+01   2.49890120E-01   4.90132188E-08  -3.81607018E+00  -2.58547582E+01  -4.25661428E+00   1.25584240E+00
   9.27500000E+02   5.00000000E-01   5.00000000E-01  -4.98896118E+00  -4.16784960E-03  -4.23782083E+00  -9.32596810E-01  -9.66455781E-01   2.94039616E+00  -1.37972132E+00   2.43332162E-01  -7.51910775E+00   1.59665843E-01   2.54546534E-03  -5.06385761E+00   9.76914350E-04  -3.36390756E+00  -8.08254846E-02  -2.24240537E+01   2.93919841E-01   5.18922408E-08  -3.78095098E+00  -2.56962529E+01  -4.30120694E+00   1.24235423E+00
   9.62500000E+02   5.00000000E-01   5.00000000E-01  -4.93054433E+00  -4.14807450E-03  -4.21115074E+00  -9.44405217E-01  -9.75803138E-01   2.92744334E+00  -1.36174250E+00   2.38028989E-01  -7.40643684E+00   1.47995529E-01   2.55097256E-03  -5.01729636E+00   1.24929123E-03  -3.33991393E+00  -7.59037477E-02  -2.21563212E+01   3.37709539E-01   5.40716239E-08  -3.74548517E+00  -2.55413861E+01  -4.34597253E+00   1.22886660E+00
   9.97500000E+02   5.00000000E-01   5.00000000E-01  -4.87332114E+00  -4.11978385E-03  -4.18502350E+00  -9.56703318E-01  -9.85680966E-01   2.91381996E+00  -1.34429245E+00   2.32716254E-01  -7.29415819E+00   1.36756114E-01   2.55669167E-03  -4.97023546E+00   1.50112707E-03  -3.31579044E+00  -7.15675666E-02  -2.18909589E+01   3.81265806E-01   5.55512417E-08  -3.70963064E+00  -2.53900463E+01  -4.39087438E+00   1.21537748E+00
   1.03250000E+03   5.00000000E-01   5.00000000E-01  -4.81727228E+00  -4.07894704E-03  -4.15942747E+00  -9.69493502E-01  -9.96090663E-01   2.89951840E+00  -1.32736506E+00   2.27394264E-01  -7.18220792E+00   1.25955907E-01   2.56274216E-03  -4.92265961E+00   1.73627245E-03  -3.29152596E+00  -6.77621264E-02  -2.16278065E+01   4.24595084E-01   5.63459740E-08  -3.67334112E+00  -2.52421250E+01  -4.43587507E+00   1.20188286E+00
   1.06750000E+03   5.00000000E-01   5.00000000E-01  -4.76238291E+00  -4.02064664E-03  -4.13435210E+00  -9.82785298E-01  -1.00704080E+00   2.88452191E+00  -1.31095767E+00   2.22062547E-01  -7.07051397E+00   1.15603633E-01   2.56929329E-03  -4.87454055E+00   1.95846559E-03  -3.26710357E+00  -6.44502196E-02  -2.13666994E+01   4.67703643E-01   5.64839731E-08  -3.63656430E+00  -2.50975169E+01  -4.48093659E+00   1.18837635E+00
   1.10250000E+03   5.00000000E-01   5.00000000E-01  -4.70864488E+00  -3.93936069E-03  -4.10978851E+00  -9.96599193E-01  -1.01855093E+00   2.86879987E+00  -1.29507265E+00   2.16719165E-01  -6.95899178E+00   1.05708288E-01   2.57660557E-03  -4.82582933E+00   2.17179293E-03  -3.24249676E+00  -6.16227997E-02  -2.11074669E+01   5.10597564E-01   5.60046700E-08  -3.59923854E+00  -2.49561203E+01  -4.52602007E+00   1.17484802E+00
   1.13750000E+03   5.00000000E-01   5.00000000E-01  -5.92704455E+00  -8.58381780E-01  -4.37796901E+00  -3.26070282E+00  -3.28038778E+00   1.01591473E-02  -2.25846569E+00  -5.59170056E-01  -4.98039141E+00  -3.44013858E-01  -7.12269080E-03  -3.98428908E-01   2.47944270E-02  -1.07967042E+00  -7.55425888E+00  -2.15493859E+01   5.52718157E-01   4.43779053E-07  -2.38064883E+00  -2.47235654E+01  -4.62638595E+00   4.74775707E-01
   1.17250000E+03   5.00000000E-01   5.00000000E-01  -5.53340754E+00  -3.17947814E-01  -4.27129527E+00  -2.67437222E+00  -2.69182655E+00   7.41730186E-01  -1.98456240E+00  -2.06416224E-01  -5.34938004E+00  -2.41533483E-01   3.13224642E-03  -1.52065201E+00  -3.86399390E-04  -1.63587585E+00  -5.52744851E+00  -2.10531458E+01   5.95063305E-01  -4.41407391E-09  -2.64649759E+00  -2.44728337E+01  -4.50006614E+00   6.37136628E-01
   1.20750000E+03   5.00000000E-01   5.00000000E-01  -5.31620017E+00  -8.41073389E-02  -4.21047231E+00  -2.39386090E+00  -2.40911989E+00   1.09906260E+00  -1.84112580E+00  -4.92825298E-02  -5.46952995E+00  -1.83325141E-01   2.94164215E-03  -2.04640620E+00   2.02789153E-03  -1.89087604E+00  -4.50885648E+00  -2.06724857E+01   6.37813103E-01   1.05457801E-08  -2.74742627E+00  -2.43016261E+01  -4.47931595E+00   7.14873825E-01
   1.24250000E+03   5.00000000E-01   5.00000000E-01  -5.16453893E+00   1.50244991E-02  -4.16473166E+00  -2.22819547E+00  -2.24129359E+00   1.31075044E+00  -1.74804249E+00   2.28466186E-02  -5.50074467E+00  -1.50654939E-01   2.82474759E-03  -2.34875993E+00   3.65371910E-03  -2.03728695E+00  -3.88451198E+00  -2.03434486E+01   6.80709153E-01   1.27186182E-08  -2.79400441E+00  -2.41698334E+01  -4.50602963E+00   7.57333188E-01
   1.27750000E+03   5.00000000E-01   5.00000000E-01  -5.04483865E+00   5.21908321E-02  -4.12648824E+00  -2.11781525E+00  -2.12878618E+00   1.45238282E+00  -1.67931410E+00   5.55500840E-02  -5.48895803E+00  -1.29675611E-01   2.79862647E-03  -2.54352649E+00   5.20471617E-03  -2.13137993E+00  -3.44856265E+00  -2.00390346E+01   7.23541463E-01   1.36036733E-08  -2.81376336E+00  -2.40571034E+01  -4.55411532E+00   7.82928891E-01
   1.31250000E+03   5.00000000E-01   5.00000000E-01  -4.94492073E+00   6.18250372E-02  -4.09319656E+00  -2.04093245E+00  -2.04980913E+00   1.55216639E+00  -1.62530921E+00   6.95881267E-02  -5.44899498E+00  -1.13713186E-01   2.82212824E-03  -2.67233898E+00   8.50602734E-03  -2.19296081E+00  -3.12168494E+00  -1.97451503E+01   7.66322813E-01   1.51978562E-08  -2.81445273E+00  -2.39529249E+01  -4.61039631E+00   7.98747678E-01
   1.34750000E+03   5.00000000E-01   5.00000000E-01  -4.85591043E+00   6.20373118E-02  -4.06247623E+00  -1.98220130E+00  -1.98901590E+00   1.62856631E+00  -1.57953514E+00   7.60725657E-02  -5.39300215E+00  -1.00683630E-01   2.90140791E-03  -2.76649622E+00   1.13676377E-02  -2.23799045E+00  -2.85150196E+00  -1.94544147E+01   8.09114582E-01   1.61450263E-08  -2.80411726E+00  -2.38526199E+01  -4.66821183E+00   8.08902606E-01
   1.38250000E+03   5.00000000E-01   5.00000000E-01  -5.51916513E+00  -4.00270668E-01  -4.20680773E+00  -3.25187887E+00  -3.25666287E+00   3.21900904E-02  -2.11087050E+00  -3.49744316E-01  -4.21025095E+00  -3.28229071E-01  -3.28015090E-04  -2.63622296E-01   4.49446972E-02  -1.01098716E+00  -6.96115809E+00  -1.95248185E+01   8.50808665E-01   6.34880084E-08  -2.06843678E+00  -2.36967466E+01  -4.74534588E+00   4.16996196E-01
   1.41750000E+03   5.00000000E-01   5.00000000E-01  -5.32434622E+00  -1.29324764E-01  -4.14680230E+00  -3.00869888E+00  -3.01148304E+00   3.27350862E-01  -1.98836712E+00  -1.84195252E-01  -4.29350702E+00  -2.89100346E-01   3.31210382E-03  -7.33084361E-01   1.70173851E-02  -1.25023169E+00  -6.05025343E+00  -1.91272529E+01   8.93009051E-01   9.09166689E-09  -2.14862758E+00  -2.35232451E+01  -4.69506375E+00   4.74588489E-01
   1.45250000E+03   5.00000000E-01   5.00000000E-01  -5.19263709E+00   8.17841996E-04  -4.10689814E+00  -2.87061152E+00  -2.87142596E+00   5.03796393E-01  -1.90877184E+00  -1.00462696E-01  -4.28397675E+00  -2.48782353E-01   3.39513888E-03  -9.83241229E-01   2.24960531E-02  -1.37160805E+00  -5.47014114E+00  -1.87637969E+01   9.35533104E-01   7.18791940E-09  -2.15821457E+00  -2.33953665E+01  -4.70158205E+00   5.09371419E-01
   1.48750000E+03   5.00000000E-01   5.00000000E-01  -5.11522303E+00   4.83854362E-02  -4.07984891E+00  -2.82725485E+00  -2.82612900E+00   5.61029332E-01  -1.87051798E+00  -7.22719276E-02  -4.19613816E+00  -2.25881503E-01   3.40663171E-03  -1.04799276E+00   3.02535341E-02  -1.40214128E+00  -5.20497992E+00  -1.84316859E+01   9.78130709E-01   5.94603228E-09  -2.11736517E+00  -2.32888475E+01  -4.73385114E+00   5.15665819E-01
   1.52250000E+03   5.00000000E-01   5.00000000E-01  -5.07307215E+00   6.15378263E-02  -4.06104188E+00  -2.84519835E+00  -2.84216103E+00   5.40652701E-01  -1.85918801E+00  -7.06402332E-02  -4.05334201E+00  -2.12461463E-01   3.50197952E-03  -9.93285101E-01   3.92686807E-02  -1.37450402E+00  -5.13466990E+00  -1.81087608E+01   1.02066657E+00   4.80738682E-09  -2.03963488E+00  -2.31901863E+01  -4.77336437E+00   5.03276992E-01
   1.55750000E+03   5.00000000E-01   5.00000000E-01  -5.06681050E+00   5.89247397E-02  -4.05097497E+00  -2.92521633E+00  -2.92029574E+00   4.42656403E-01  -1.87491174E+00  -8.60583456E-02  -3.84962217E+00  -2.04802806E-01   3.65350010E-03  -8.16237264E-01   5.26556193E-02  -1.28656347E+00  -5.25113410E+00  -1.77831296E+01   1.06307088E+00   3.72544999E-09  -1.91869886E+00  -2.30925358E+01  -4.81124573E+00   4.72573445E-01
   1.59250000E+03   5.00000000E-01   5.00000000E-01  -5.10157022E+00   4.97615102E-02  -4.05152347E+00  -3.07571735E+00  -3.06894109E+00   2.58319963E-01  -1.92094763E+00  -1.14609843E-01  -3.57117961E+00  -1.98766761E-01   3.84107667E-03  -4.97681797E-01   7.60011933E-02  -1.12754217E+00  -5.56881507E+00  -1.74427210E+01   1.10530109E+00   2.62390414E-09  -1.74215047E+00  -2.29923621E+01  -4.84238587E+00   4.22172398E-01
   1.62750000E+03   5.00000000E-01   5.00000000E-01  -5.13508959E+00   6.13243393E-02  -4.05316683E+00  -3.22171760E+00  -3.21311270E+00   8.28394511E-02  -1.96455611E+00  -1.31046811E-01  -3.27763470E+00  -1.77679132E-01   3.93291726E-03  -1.83649516E-01   1.09950323E-01  -9.68356888E-01  -5.83180804E+00  -1.70578870E+01   1.14735317E+00   1.48803132E-09  -1.54640011E+00  -2.28942744E+01  -4.86544425E+00   3.75293199E-01
   1.66250000E+03   5.00000000E-01   5.00000000E-01  -5.12546114E+00   1.00742682E-01  -4.04835010E+00  -3.28697577E+00  -3.27656868E+00   1.81302386E-02  -1.97138628E+00  -1.18406252E-01  -3.02791382E+00  -1.17351453E-01   3.86649499E-03  -1.50402667E-02   1.67142974E-01  -8.73605139E-01  -5.77667018E+00  -1.66006820E+01   1.18908798E+00   6.95792344E-10  -1.36358711E+00  -2.28115019E+01  -4.89060904E+00   3.58732118E-01
   1.69750000E+03   5.00000000E-01   5.00000000E-01  -5.09613715E+00   1.36579438E-01  -4.05117164E+00  -3.30431624E+00  -3.29213287E+00   4.64341126E-02  -1.95079365E+00  -9.00350383E-02  -2.76708245E+00   1.92484296E-02   3.75061290E-03   1.06972989E-01   3.06738977E-01  -7.77394581E-01  -5.45790707E+00  -1.60417508E+01   1.22975495E+00   3.04679645E-10  -1.13404285E+00  -2.27560499E+01  -4.93534903E+00   3.77232257E-01
   1.73250000E+03   5.00000000E-01   5.00000000E-01  -5.06906975E+00   1.55501499E-01  -4.06362151E+00  -3.31567097E+00  -3.30173671E+00   1.06522417E-01  -1.92274184E+00  -6.15862477E-02  -2.46134673E+00   2.13416807E-01   3.66275555E-03   2.52436275E-01   5.10369862E-01  -6.51690109E-01  -5.01777989E+00  -1.53861818E+01   1.26660293E+00   1.13753609E-10  -8.41955586E-01  -2.27306042E+01  -4.99788446E+00   4.12820313E-01
   1.76750000E+03   5.00000000E-01   5.00000000E-01  -5.03963387E+00   1.63378995E-01  -4.05738841E+00  -3.34011842E+00  -3.32445813E+00   1.00292160E-01  -1.91091864E+00  -5.61241364E-02  -2.15965795E+00   3.38189135E-01   3.71943509E-03   3.51137760E-01   5.99165928E-01  -5.85899999E-01  -4.64984983E+00  -1.47081906E+01   1.28961569E+00   3.22409383E-11  -5.88284129E-01  -2.27366059E+01  -5.05276762E+00   4.13497405E-01
   1.80250000E+03   5.00000000E-01   5.00000000E-01  -5.07028761E+00   1.53938523E-01  -4.05985188E+00  -3.47521219E+00  -3.45785024E+00  -6.00514690E-02  -1.95040415E+00  -8.06354867E-02  -1.70360535E+00   4.61655032E-01   3.86282032E-03   6.45146832E-01   6.69603662E-01  -4.35452079E-01  -4.52498011E+00  -1.38846600E+01   1.26882747E+00   7.47700934E-12  -2.22326568E-01  -2.28005028E+01  -5.10290447E+00   3.71563138E-01
   1.83750000E+03   5.00000000E-01   5.00000000E-01  -5.11105545E+00   1.35544295E-01  -4.04358184E+00  -3.64844782E+00  -3.62940809E+00  -3.26284554E-01  -2.01865443E+00  -1.33381063E-01  -1.12590650E+00   5.62045653E-01   4.00373563E-03   9.29548753E-01   6.28164461E-01  -3.32668870E-01  -4.34593672E+00  -1.27656404E+01   1.16137541E+00   8.17749680E-13   2.18305277E-01  -2.30129708E+01  -5.15913436E+00   2.82131547E-01
   1.87250000E+03   5.00000000E-01   5.00000000E-01  -4.82136330E+00   8.70912034E-02  -3.86784335E+00  -3.31942817E+00  -3.29873406E+00  -1.85775554E-01  -1.91583183E+00  -1.95361892E-01  -8.27122241E-01   5.51635800E-01   3.90742498E-03  -9.92691826E-02   8.74142887E-02  -1.04053259E+00  -2.21141689E+00  -1.08549567E+01   9.71932427E-01   2.31438589E-14   3.92145294E-01  -2.37489604E+01  -5.36541115E+00   2.04305468E-01
   1.90750000E+03   5.00000000E-01   5.00000000E-01  -4.53057359E+00   1.05634209E-02  -3.68885464E+00  -2.99067563E+00  -2.96835008E+00  -5.42812192E-02  -1.81508204E+00  -2.74049453E-01  -5.55349067E-01   5.13678078E-01   3.56174463E-03  -1.14075974E+00  -4.78850788E-01  -1.76100764E+00  -1.30231168E-01  -9.00538803E+00   7.48823547E-01   1.54292393E-15   5.34161698E-01  -2.46698730E+01  -5.69087994E+00   1.21157557E-01
   1.94250000E+03   5.00000000E-01   5.00000000E-01  -4.43210103E+00   9.21537979E-04  -3.58684089E+00  -2.96880980E+00  -2.94487530E+00  -2.21784818E-01  -1.82959604E+00  -3.38446214E-01  -2.99609373E-01   3.86422072E-01   2.89698540E-03  -1.45432134E+00  -8.87152042E-01  -2.06004369E+00   3.86587873E-01  -8.04464926E+00   5.34079970E-01   3.08584785E-15   6.22358586E-01  -2.51631006E+01  -5.86089103E+00  -2.77911397E-04
   1.97750000E+03   5.00000000E-01   5.00000000E-01  -4.35407197E+00   2.55184537E-04  -3.49971521E+00  -2.97218528E+00  -2.94666390E+00  -3.93883858E-01  -1.84958851E+00  -3.93658001E-01  -1.81129911E-01   2.05757371E-01   2.60315052E-03  -1.67832329E+00  -1.26089164E+00  -2.29505601E+00   5.03405302E-01  -7.52584568E+00   3.54807697E-01   1.38863153E-14   5.83200101E-01  -2.54289039E+01  -5.95691631E+00  -1.12302420E-01
   2.01250000E+03   5.00000000E-01   5.00000000E-01  -4.27681435E+00   1.33203591E-04  -3.42352898E+00  -2.96542119E+00  -2.93833456E+00  -5.24370710E-01  -1.85933742E+00  -4.38013571E-01  -1.26665826E-01   3.35056428E-02   2.48532715E-03  -1.88002472E+00  -1.57907522E+00  -2.49772925E+00   5.43977298E-01  -7.18141595E+00   2.23096147E-01   9.25754355E-15   5.01697081E-01  -2.55741882E+01  -6.02270534E+00  -2.03142516E-01
   2.04750000E+03   5.00000000E-01   5.00000000E-01  -4.20201731E+00   9.40205868E-05  -3.35758199E+00  -2.95261037E+00  -2.92397971E+00  -6.21383631E-01  -1.86123353E+00  -4.73289075E-01  -9.80758027E-02  -1.16234634E-01   2.42494677E-03  -2.05595258E+00  -1.84213333E+00  -2.66856594E+00   5.64332513E-01  -6.92076913E+00   1.37081871E-01   3.08584785E-15   4.12892611E-01  -2.56403355E+01  -6.07195111E+00  -2.75889113E-01
   2.08250000E+03   5.00000000E-01   5.00000000E-01  -4.13024667E+00   7.76476801E-05  -3.29983494E+00  -2.93693772E+00  -2.90678384E+00  -6.94837235E-01  -1.85788333E+00  -5.01837313E-01  -8.12883794E-02  -2.45047396E-01   2.38888087E-03  -2.20851229E+00  -2.06129128E+00  -2.81312457E+00   5.76729206E-01  -6.70827876E+00   8.60037966E-02   0.00000000E+00   3.26205191E-01  -2.56527469E+01  -6.11072771E+00  -3.35188000E-01
   2.11750000E+03   5.00000000E-01   5.00000000E-01  -4.06126905E+00   6.97740833E-05  -3.24831895E+00  -2.91991901E+00  -2.88826235E+00  -7.51844424E-01  -1.85102368E+00  -5.25518212E-01  -7.05431835E-02  -3.57131825E-01   2.36557982E-03  -2.34232386E+00  -2.24750116E+00  -2.93753062E+00   5.85106691E-01  -6.52633044E+00   5.75553128E-02   0.00000000E+00   2.43682445E-01  -2.56295627E+01  -6.14247758E+00  -3.84744897E-01
   2.15250000E+03   5.00000000E-01   5.00000000E-01  -3.99466706E+00   6.56552840E-05  -3.20149369E+00  -2.90227315E+00  -2.86913374E+00  -7.97231563E-01  -1.84177886E+00  -5.45666371E-01  -6.31915304E-02  -4.56338865E-01   2.34986433E-03  -2.46169049E+00  -2.40928326E+00  -3.04680227E+00   5.91153129E-01  -6.36496520E+00   4.22610577E-02  -4.62877178E-15   1.65301552E-01  -2.55832025E+01  -6.16934776E+00  -4.27224426E-01
   2.18750000E+03   5.00000000E-01   5.00000000E-01  -3.93004701E+00   6.33966370E-05  -3.15822367E+00  -2.88436127E+00  -2.84975879E+00  -8.34287692E-01  -1.83089198E+00  -5.63221958E-01  -5.78952686E-02  -5.45688994E-01   2.33904350E-03  -2.57003059E+00  -2.55288993E+00  -3.14471761E+00   5.95720074E-01  -6.21808809E+00   3.41439066E-02   7.71461963E-15   9.05153025E-02  -2.55217531E+01  -6.19274173E+00  -4.64505194E-01
   2.22250000E+03   5.00000000E-01   5.00000000E-01  -3.86708632E+00   6.21424786E-05  -3.11768352E+00  -2.86637633E+00  -2.83033009E+00  -8.65291246E-01  -1.81886714E+00  -5.78850080E-01  -5.39242012E-02  -6.27448489E-01   2.33158240E-03  -2.66992771E+00  -2.68284972E+00  -3.23405280E+00   5.99282320E-01  -6.08175901E+00   2.98132945E-02   5.40023374E-15   1.87177604E-02  -2.54503866E+01  -6.21360872E+00  -4.97916720E-01
   2.25750000E+03   5.00000000E-01   5.00000000E-01  -3.80553265E+00   6.14689219E-05  -3.07927255E+00  -2.84842677E+00  -2.81095573E+00  -8.91847254E-01  -1.80605396E+00  -5.93026038E-01  -5.08530451E-02  -7.03295576E-01   2.32649805E-03  -2.76330508E+00  -2.80244692E+00  -3.31683972E+00   6.02126942E-01  -5.95332351E+00   2.74517845E-02   3.85730981E-15  -5.06226110E-02  -2.53724368E+01  -6.23260897E+00  -5.28409335E-01
   2.29250000E+03   5.00000000E-01   5.00000000E-01  -3.74519172E+00   6.11495029E-05  -3.04255126E+00  -2.83057571E+00  -2.79169849E+00  -9.15101890E-01  -1.79269892E+00  -6.06092879E-01  -4.84195580E-02  -7.74468907E-01   2.32308339E-03  -2.85158966E+00  -2.91407515E+00  -3.39456893E+00   6.04441530E-01  -5.83093534E+00   2.61135816E-02  -1.00290055E-14  -1.17935947E-01  -2.52900993E+01  -6.25021247E+00  -5.56669059E-01
   2.32750000E+03   5.00000000E-01   5.00000000E-01  -3.68591482E+00   6.10551853E-05  -3.00719588E+00  -2.81286138E+00  -2.77259625E+00  -9.35884014E-01  -1.77897830E+00  -6.18300656E-01  -4.64538430E-02  -8.41884340E-01   2.32085236E-03  -2.93584077E+00  -3.01949004E+00  -3.46833862E+00   6.06353545E-01  -5.71327942E+00   2.53099330E-02   3.85730981E-15  -1.83558713E-01  -2.52048587E+01  -6.26675989E+00  -5.83196018E-01
   2.36250000E+03   5.00000000E-01   5.00000000E-01  -3.62758799E+00   6.11083628E-05  -2.97296602E+00  -2.79530791E+00  -2.75367282E+00  -9.54799940E-01  -1.76501979E+00  -6.29833403E-01  -4.48413536E-02  -9.06222205E-01   2.31950496E-03  -3.01684712E+00  -3.11998856E+00  -3.53896246E+00   6.07950378E-01  -5.59940185E+00   2.47865655E-02  -2.31438589E-15  -2.47750606E-01  -2.51177457E+01  -6.28250185E+00  -6.08358343E-01
   2.39750000E+03   5.00000000E-01   5.00000000E-01  -3.57012344E+00   6.12601682E-05  -2.93968185E+00  -2.77793086E+00  -2.73494345E+00  -9.72297008E-01  -1.75091658E+00  -6.40827627E-01  -4.35023450E-02  -9.67990224E-01   2.31886290E-03  -3.09519843E+00  -3.21653496E+00  -3.60704669E+00   6.09292918E-01  -5.48860036E+00   2.44164181E-02  -4.62877178E-15  -3.10710985E-01  -2.50294870E+01  -6.29762511E+00  -6.32429142E-01