 TITLE = "Mineral Saturation State" 
VARIABLES = "X"          "Y"              "Z"            "Forsterite"     "Enstatite(alph" "Anorthite"      "Ferropargasite" "Anhydrite"      "Clinochlore"    "Albite(low)"    "Fayalite"       "Epidote"        "Kaolinite"      "Muscovite(orde" "Sudoite"        "Saponite(Mg)"   "Scolecite"      "Pyrite"         "Quartz(alpha)" 
 ZONE I=         100 , J=           1 , K=           1  F=POINT
   1.75000000E+01   5.00000000E-01   5.00000000E-01  -8.02851939E+00  -3.10474220E+00  -8.09668347E+00  -2.09349186E+01  -1.44848324E-01   1.32846952E+00  -4.23216092E-01  -4.55521802E+00   3.74587368E-09  -1.76970327E+00   1.19500570E+00  -5.69925567E-01   5.84517410E-05  -3.06704145E+00  -2.49151380E+02   5.34881164E-01
   5.25000000E+01   5.00000000E-01   5.00000000E-01  -8.07139919E+00  -3.09018722E+00  -7.96918801E+00  -1.98043130E+01  -2.89936275E-02   1.00363989E+00  -2.65191730E-01  -4.07465383E+00  -5.62303195E-11  -1.66537103E+00   1.24389601E+00  -6.62493561E-01   6.13836422E-05  -2.91872666E+00  -2.46680092E+02   6.16362368E-01
   8.75000000E+01   5.00000000E-01   5.00000000E-01  -8.05534594E+00  -3.07020896E+00  -7.90878642E+00  -1.91676410E+01  -3.43344641E-03   8.36134642E-01  -2.07474933E-01  -3.78058883E+00  -9.86854142E-11  -1.62589099E+00   1.22455051E+00  -7.28074433E-01   7.44461436E-05  -2.88513950E+00  -2.44476142E+02   6.49635498E-01
   1.22500000E+02   5.00000000E-01   5.00000000E-01  -8.01849748E+00  -3.04934912E+00  -7.84656461E+00  -1.86940937E+01   2.57876614E-03   7.46083962E-01  -1.80281360E-01  -3.56734084E+00  -1.13040778E-10  -1.59215576E+00   1.20805517E+00  -7.44732864E-01   7.99532311E-05  -2.86831641E+00  -2.42382667E+02   6.63757262E-01
   1.57500000E+02   5.00000000E-01   5.00000000E-01  -7.97211231E+00  -3.02837035E+00  -7.77809849E+00  -1.83048571E+01   4.03714809E-03   6.96509199E-01  -1.66729653E-01  -3.40058948E+00  -1.22329180E-10  -1.55834835E+00   1.19767773E+00  -7.31591472E-01   8.31253748E-05  -2.85410503E+00  -2.40355025E+02   6.68463043E-01
   1.92500000E+02   5.00000000E-01   5.00000000E-01  -7.92085430E+00  -3.00749780E+00  -7.70505731E+00  -1.79696420E+01   4.41993869E-03   6.70019308E-01  -1.60349157E-01  -3.26432772E+00  -1.31852107E-10  -1.52383138E+00   1.19208230E+00  -7.00497303E-01   8.54265383E-05  -2.83996597E+00  -2.38375484E+02   6.67968540E-01
   2.27500000E+02   5.00000000E-01   5.00000000E-01  -7.86699785E+00  -2.98681161E+00  -7.62934000E+00  -1.76733864E+01   4.54154425E-03   6.57485027E-01  -1.58134403E-01  -3.14968049E+00  -1.43652389E-10  -1.48882957E+00   1.18979585E+00  -6.58432521E-01   8.73663694E-05  -2.82568890E+00  -2.36435264E+02   6.64389983E-01
   2.62500000E+02   5.00000000E-01   5.00000000E-01  -7.81176655E+00  -2.96634261E+00  -7.55231022E+00  -1.74071848E+01   4.59135736E-03   6.53747817E-01  -1.58517325E-01  -3.05118655E+00  -1.58402742E-10  -1.45365337E+00   1.18972653E+00  -6.09594729E-01   8.91548617E-05  -2.81148035E+00  -2.34529281E+02   6.58891356E-01
   2.97500000E+02   5.00000000E-01   5.00000000E-01  -7.75586101E+00  -2.94610222E+00  -7.47485763E+00  -1.71651420E+01   4.61342596E-03   6.55744401E-01  -1.60614476E-01  -2.96523328E+00  -1.76374720E-10  -1.41855283E+00   1.19112796E+00  -5.56568525E-01   9.08896917E-05  -2.79755703E+00  -2.32654252E+02   6.52152406E-01
   3.32500000E+02   5.00000000E-01   5.00000000E-01  -7.69969926E+00  -2.92609340E+00  -7.39754759E+00  -1.69430637E+01   4.61851178E-03   6.61589492E-01  -1.63900423E-01  -2.88930074E+00  -1.97741130E-10  -1.38370594E+00   1.19350037E+00  -5.00979833E-01   9.26198363E-05  -2.78407696E+00  -2.30807888E+02   6.44587185E-01
   3.67500000E+02   5.00000000E-01   5.00000000E-01  -7.64353794E+00  -2.90631515E+00  -7.32073721E+00  -1.67378254E+01   4.60988304E-03   6.70089251E-01  -1.68049458E-01  -2.82156042E+00  -2.22613064E-10  -1.34923385E+00   1.19650906E+00  -4.43871889E-01   9.43702501E-05  -2.77114326E+00  -2.28988493E+02   6.36456289E-01
   4.02500000E+02   5.00000000E-01   5.00000000E-01  -7.58753808E+00  -2.88676449E+00  -7.24465191E+00  -1.65470290E+01   4.58914252E-03   6.80467821E-01  -1.72852377E-01  -2.76064622E+00  -2.51249732E-10  -1.31521734E+00   1.19992760E+00  -3.85927500E-01   9.61525293E-05  -2.75881903E+00  -2.27194757E+02   6.27928560E-01
   4.37500000E+02   5.00000000E-01   5.00000000E-01  -7.53180266E+00  -2.86743745E+00  -7.16943407E+00  -1.63687988E+01   4.55751287E-03   6.92207072E-01  -1.78169946E-01  -2.70551546E+00  -2.83928861E-10  -1.28170970E+00   1.20360014E+00  -3.27603526E-01   9.79699561E-05  -2.74714038E+00  -2.25425620E+02   6.19116700E-01
   4.72500000E+02   5.00000000E-01   5.00000000E-01  -7.47639899E+00  -2.84832966E+00  -7.09517357E+00  -1.62016495E+01   4.51610819E-03   7.04949722E-01  -1.83905630E-01  -2.65536002E+00  -3.21033095E-10  -1.24874562E+00   1.20741712E+00  -2.69213789E-01   9.98200884E-05  -2.73612566E+00  -2.23680203E+02   6.10098607E-01
   5.07500000E+02   5.00000000E-01   5.00000000E-01  -7.42137242E+00  -2.82943654E+00  -7.02192710E+00  -1.60443965E+01   4.46598507E-03   7.18439394E-01  -1.89989013E-01  -2.60954669E+00  -3.62957424E-10  -1.21634714E+00   1.21129956E+00  -2.10980916E-01   1.01696199E-04  -2.72578161E+00  -2.21957750E+02   6.00930497E-01
   5.42500000E+02   5.00000000E-01   5.00000000E-01  -7.36675498E+00  -2.81075356E+00  -6.94973040E+00  -1.58960909E+01   4.40814800E-03   7.32482865E-01  -1.96365422E-01  -2.56757549E+00  -4.10220270E-10  -1.18452744E+00   1.21518912E+00  -1.53069108E-01   1.03588155E-04  -2.71610734E+00  -2.20257600E+02   5.91655166E-01
   5.77500000E+02   5.00000000E-01   5.00000000E-01  -7.31257087E+00  -2.79227634E+00  -6.87860599E+00  -1.57559707E+01   4.34354665E-03   7.46926021E-01  -2.02989283E-01  -2.52904937E+00  -4.63475832E-10  -1.15329322E+00   1.21904174E+00  -9.56049709E-02   1.05483019E-04  -2.70709683E+00  -2.18579161E+02   5.82307256E-01
   6.12500000E+02   5.00000000E-01   5.00000000E-01  -7.25883993E+00  -2.77400069E+00  -6.80856804E+00  -1.56234228E+01   4.27307282E-03   7.61638521E-01  -2.09819842E-01  -2.49365159E+00  -5.23452371E-10  -1.12264622E+00   1.22282372E+00  -3.86907034E-02   1.07365514E-04  -2.69874041E+00  -2.16921894E+02   5.72916619E-01
   6.47500000E+02   5.00000000E-01   5.00000000E-01  -7.20557937E+00  -2.75591950E+00  -6.73969277E+00  -1.54980492E+01   4.19755852E-03   7.76432004E-01  -2.16840430E-01  -2.46112758E+00  -5.91760699E-10  -1.09264877E+00   1.22641095E+00   1.74469956E-02   1.09220156E-04  -2.69108717E+00  -2.15285297E+02   5.63516298E-01
   6.82500000E+02   5.00000000E-01   5.00000000E-01  -7.15280885E+00  -2.73802473E+00  -6.67208442E+00  -1.53795983E+01   4.11777527E-03   7.91082775E-01  -2.24039400E-01  -2.43127514E+00  -6.70301698E-10  -1.06338687E+00   1.22964295E+00   7.25237438E-02   1.11033139E-04  -2.68420994E+00  -2.13668895E+02   5.54143562E-01
   7.17500000E+02   5.00000000E-01   5.00000000E-01  -7.10055526E+00  -2.72031993E+00  -6.60561712E+00  -1.52675780E+01   4.03443467E-03   8.05600583E-01  -2.31321387E-01  -2.40393823E+00  -7.57828687E-10  -1.03471953E+00   1.23270194E+00   1.26734153E-01   1.12785377E-04  -2.67796724E+00  -2.12072244E+02   5.44819755E-01
   7.52500000E+02   5.00000000E-01   5.00000000E-01  -7.04883470E+00  -2.70280204E+00  -6.54028975E+00  -1.51617156E+01   3.94818886E-03   8.19891473E-01  -2.38648222E-01  -2.37897996E+00  -8.56946120E-10  -1.00663370E+00   1.23558069E+00   1.80023520E-01   1.14453219E-04  -2.67233994E+00  -2.10494923E+02   5.35568572E-01
   7.87500000E+02   5.00000000E-01   5.00000000E-01  -6.99766476E+00  -2.68546829E+00  -6.47610147E+00  -1.50617888E+01   3.85963286E-03   8.33858924E-01  -2.45979587E-01  -2.35628808E+00  -9.69375900E-10  -9.79114425E-01   1.23827456E+00   2.32338052E-01   1.16015951E-04  -2.66730820E+00  -2.08936527E+02   5.26414618E-01
   8.22500000E+02   5.00000000E-01   5.00000000E-01  -6.94706443E+00  -2.66831624E+00  -6.41305058E+00  -1.49676136E+01   3.76930681E-03   8.47405379E-01  -2.53272866E-01  -2.33576973E+00  -1.09718863E-09  -9.52143916E-01   1.24078296E+00   2.83627236E-01   1.17453097E-04  -2.66285050E+00  -2.07396665E+02   5.17383212E-01
   8.57500000E+02   5.00000000E-01   5.00000000E-01  -6.89705374E+00  -2.65134372E+00  -6.35113428E+00  -1.48790356E+01   3.67769865E-03   8.60433400E-01  -2.60483612E-01  -2.31734723E+00  -1.24276042E-09  -9.25701645E-01   1.24310927E+00   3.33844531E-01   1.18744837E-04  -2.65894374E+00  -2.05874957E+02   5.08500099E-01
   8.92500000E+02   5.00000000E-01   5.00000000E-01  -6.84765336E+00  -2.63454886E+00  -6.29034841E+00  -1.47959226E+01   3.58524710E-03   8.72847046E-01  -2.67566179E-01  -2.30095474E+00  -1.40891172E-09  -8.99764575E-01   1.24526070E+00   3.82948065E-01   1.19872444E-04  -2.65556330E+00  -2.04371032E+02   4.99791084E-01
   9.27500000E+02   5.00000000E-01   5.00000000E-01  -6.79888406E+00  -2.61792998E+00  -6.23068730E+00  -1.47181592E+01   3.49234470E-03   8.84553420E-01  -2.74474500E-01  -2.28653565E+00  -1.59896292E-09  -8.74307503E-01   1.24724797E+00   4.30901284E-01   1.20818718E-04  -2.65268334E+00  -2.02884531E+02   4.91281614E-01
   9.62500000E+02   5.00000000E-01   5.00000000E-01  -6.75076615E+00  -2.60148560E+00  -6.17214366E+00  -1.46456422E+01   3.39934100E-03   8.95464304E-01  -2.81162987E-01  -2.27404033E+00  -1.81674046E-09  -8.49303540E-01   1.24908485E+00   4.77673495E-01   1.21568402E-04  -2.65027715E+00  -2.01415104E+02   4.82996307E-01
   9.97500000E+02   5.00000000E-01   5.00000000E-01  -6.70331887E+00  -2.58521432E+00  -6.11470859E+00  -1.45782767E+01   3.30654570E-03   9.05497825E-01  -2.87587532E-01  -2.26342441E+00  -2.06671265E-09  -8.24724703E-01   1.25078753E+00   5.23240263E-01   1.22108561E-04  -2.64831767E+00  -1.99962409E+02   4.74958461E-01
   1.03250000E+03   5.00000000E-01   5.00000000E-01  -6.65655974E+00  -2.56911481E+00  -6.05837164E+00  -1.45159734E+01   3.21423178E-03   9.14580087E-01  -2.93706573E-01  -2.25464723E+00  -2.35413161E-09  -8.00542616E-01   1.25237381E+00   5.67583650E-01   1.22428940E-04  -2.64677801E+00  -1.98526115E+02   4.67189549E-01
   1.06750000E+03   5.00000000E-01   5.00000000E-01  -6.61050394E+00  -2.55318569E+00  -6.00312098E+00  -1.44586459E+01   3.12263845E-03   9.22646728E-01  -2.99482177E-01  -2.24767058E+00  -2.68509496E-09  -7.76729291E-01   1.25386230E+00   6.10692285E-01   1.22522267E-04  -2.64563217E+00  -1.97105900E+02   4.59708715E-01
   1.10250000E+03   5.00000000E-01   5.00000000E-01  -6.56516369E+00  -2.53742550E+00  -5.94894357E+00  -1.44062086E+01   3.03197409E-03   9.29644347E-01  -3.04881115E-01  -2.24245752E+00  -3.06663536E-09  -7.53257933E-01   1.25527140E+00   6.52561300E-01   1.22384504E-04  -2.64485567E+00  -1.95701451E+02   4.52532304E-01
   1.13750000E+03   5.00000000E-01   5.00000000E-01  -6.52054765E+00  -2.52183263E+00  -5.89582545E+00  -1.43585753E+01   2.94241894E-03   9.35531740E-01  -3.09875856E-01  -2.23897148E+00  -3.50700436E-09  -7.30103754E-01   1.25661839E+00   6.93192133E-01   1.22015044E-04  -2.64442626E+00  -1.94312466E+02   4.45673428E-01
   1.17250000E+03   5.00000000E-01   5.00000000E-01  -6.47666050E+00  -2.50640522E+00  -5.84375195E+00  -1.43156576E+01   2.85412772E-03   9.40280929E-01  -3.14445443E-01  -2.23717539E+00  -4.01563541E-09  -7.07244710E-01   1.25791858E+00   7.32592260E-01   1.21416829E-04  -2.64432453E+00  -1.92938655E+02   4.39141596E-01
   1.20750000E+03   5.00000000E-01   5.00000000E-01  -6.43350248E+00  -2.49114115E+00  -5.79270797E+00  -1.42773636E+01   2.76723199E-03   9.43877913E-01  -3.18576199E-01  -2.23703101E+00  -4.60351102E-09  -6.84662148E-01   1.25918445E+00   7.70774873E-01   1.20596395E-04  -2.64453444E+00  -1.91579735E+02   4.32942431E-01
   1.24250000E+03   5.00000000E-01   5.00000000E-01  -6.39106915E+00  -2.47603801E+00  -5.74267814E+00  -1.42435976E+01   2.68184245E-03   9.46323119E-01  -3.22262209E-01  -2.23849838E+00  -5.28325233E-09  -6.62341280E-01   1.26042516E+00   8.07758546E-01   1.19563812E-04  -2.64504368E+00  -1.90235437E+02   4.27077474E-01
   1.27750000E+03   5.00000000E-01   5.00000000E-01  -6.34935129E+00  -2.46109301E+00  -5.69364693E+00  -1.42142589E+01   2.59805099E-03   9.47631516E-01  -3.25505552E-01  -2.24153550E+00  -6.06938133E-09  -6.40271485E-01   1.26164612E+00   8.43566917E-01   1.18332544E-04  -2.64584390E+00  -1.88905502E+02   4.21544117E-01
   1.31250000E+03   5.00000000E-01   5.00000000E-01  -6.30833489E+00  -2.44630306E+00  -5.64559877E+00  -1.41892416E+01   2.51593259E-03   9.47832369E-01  -3.28316249E-01  -2.24609805E+00  -6.97852148E-09  -6.18446389E-01   1.26284890E+00   8.78228387E-01   1.16919184E-04  -2.64693072E+00  -1.87589680E+02   4.16335637E-01
   1.34750000E+03   5.00000000E-01   5.00000000E-01  -6.26800140E+00  -2.43166473E+00  -5.59851798E+00  -1.41684347E+01   2.43554711E-03   9.46968617E-01  -3.30711938E-01  -2.25213944E+00  -8.02975567E-09  -5.96863740E-01   1.26403133E+00   9.11775837E-01   1.15343091E-04  -2.64830353E+00  -1.86287733E+02   4.11441373E-01
   1.38250000E+03   5.00000000E-01   5.00000000E-01  -6.22832801E+00  -2.41717428E+00  -5.55238873E+00  -1.41517218E+01   2.35694085E-03   9.45095890E-01  -3.32717268E-01  -2.25961088E+00  -9.24478048E-09  -5.75525073E-01   1.26518788E+00   9.44246355E-01   1.13625933E-04  -2.64996519E+00  -1.84999431E+02   4.06847012E-01
   1.41750000E+03   5.00000000E-01   5.00000000E-01  -6.18928820E+00  -2.40282775E+00  -5.50719495E+00  -1.41389822E+01   2.28014807E-03   9.42281177E-01  -3.34363058E-01  -2.26846167E+00  -1.06484339E-08  -5.54435220E-01   1.26631017E+00   9.75680929E-01   1.11791129E-04  -2.65192145E+00  -1.83724557E+02   4.02534992E-01
   1.45250000E+03   5.00000000E-01   5.00000000E-01  -6.15085228E+00  -2.38862094E+00  -5.46292018E+00  -1.41300907E+01   2.20519229E-03   9.38601190E-01  -3.35685264E-01  -2.27863967E+00  -1.22688250E-08  -5.33601682E-01   1.26738767E+00   1.00612410E+00   1.09863241E-04  -2.65418041E+00  -1.82462897E+02   3.98484993E-01
   1.48750000E+03   5.00000000E-01   5.00000000E-01  -6.11298816E+00  -2.37454954E+00  -5.41954750E+00  -1.41249193E+01   2.13208755E-03   9.34140490E-01  -3.36723811E-01  -2.29009173E+00  -1.41379539E-08  -5.13033936E-01   1.26840840E+00   1.03562354E+00   1.07867323E-04  -2.65675181E+00  -1.81214249E+02   3.94674501E-01
   1.52250000E+03   5.00000000E-01   5.00000000E-01  -6.07566198E+00  -2.36060915E+00  -5.37705943E+00  -1.41233377E+01   2.06083949E-03   9.28989454E-01  -3.37521362E-01  -2.30276429E+00  -1.62920454E-08  -4.92742717E-01   1.26935971E+00   1.06422950E+00   1.05828267E-04  -2.65964639E+00  -1.79978418E+02   3.91079417E-01
   1.55750000E+03   5.00000000E-01   5.00000000E-01  -6.03883894E+00  -2.34679538E+00  -5.33543793E+00  -1.41252149E+01   1.99144644E-03   9.23242157E-01  -3.38122084E-01  -2.31660402E+00  -1.87721290E-08  -4.72739337E-01   1.27022892E+00   1.09199426E+00   1.03770188E-04  -2.66287519E+00  -1.78755212E+02   3.87674666E-01
   1.59250000E+03   5.00000000E-01   5.00000000E-01  -6.00248399E+00  -2.33310386E+00  -5.29466443E+00  -1.41304205E+01   1.92390029E-03   9.16994277E-01  -3.38570476E-01  -2.33155834E+00  -2.16246867E-08  -4.53035070E-01   1.27100393E+00   1.11897136E+00   1.01715866E-04  -2.66644908E+00  -1.77544448E+02   3.84434805E-01
   1.62750000E+03   5.00000000E-01   5.00000000E-01  -5.96656247E+00  -2.31953036E+00  -5.25471992E+00  -1.41388255E+01   1.85818741E-03   9.10341105E-01  -3.38910313E-01  -2.34757600E+00  -2.49022861E-08  -4.33640640E-01   1.27167363E+00   1.14521487E+00   9.96862862E-05  -2.67037822E+00  -1.76345945E+02   3.81334578E-01
   1.66250000E+03   5.00000000E-01   5.00000000E-01  -5.93104074E+00  -2.30607076E+00  -5.21558509E+00  -1.41503041E+01   1.79428941E-03   9.03375726E-01  -3.39183738E-01  -2.36460759E+00  -2.86643419E-08  -4.14565830E-01   1.27222824E+00   1.17077858E+00   9.77002860E-05  -2.67467174E+00  -1.75159527E+02   3.78349416E-01
   1.69750000E+03   5.00000000E-01   5.00000000E-01  -5.89588660E+00  -2.29272114E+00  -5.17724055E+00  -1.41647346E+01   1.73218387E-03   8.96187444E-01  -3.39430533E-01  -2.38260585E+00  -3.29781104E-08  -3.95819211E-01   1.27265945E+00   1.19571524E+00   9.57743197E-05  -2.67933751E+00  -1.73985022E+02   3.75455853E-01
   1.73250000E+03   5.00000000E-01   5.00000000E-01  -5.86106975E+00  -2.27947777E+00  -5.13966701E+00  -1.41820004E+01   1.67184498E-03   8.88860483E-01  -3.39687566E-01  -2.40152603E+00  -3.79196544E-08  -3.77407987E-01   1.27296044E+00   1.22007577E+00   9.39223441E-05  -2.68438202E+00  -1.72822259E+02   3.72631862E-01
   1.76750000E+03   5.00000000E-01   5.00000000E-01  -5.82656196E+00  -2.26633713E+00  -5.10284551E+00  -1.42019905E+01   1.61324416E-03   8.81472983E-01  -3.39988420E-01  -2.42132605E+00  -4.35751032E-08  -3.59337949E-01   1.27312584E+00   1.24390864E+00   9.21558137E-05  -2.68981033E+00  -1.71671072E+02   3.69857096E-01
   1.80250000E+03   5.00000000E-01   5.00000000E-01  -5.79233735E+00  -2.25329594E+00  -5.06675760E+00  -1.42246003E+01   1.55635060E-03   8.74096298E-01  -3.40363192E-01  -2.44196661E+00  -5.00418399E-08  -3.41613503E-01   1.27315154E+00   1.26725929E+00   9.04837698E-05  -2.69562616E+00  -1.70531294E+02   3.67113058E-01
   1.83750000E+03   5.00000000E-01   5.00000000E-01  -5.75837236E+00  -2.24035109E+00  -5.03138556E+00  -1.42497318E+01   1.50113170E-03   8.66794571E-01  -3.40838426E-01  -2.46341119E+00  -5.74301033E-08  -3.24237768E-01   1.27303450E+00   1.29016969E+00   8.89130069E-05  -2.70183194E+00  -1.69402762E+02   3.64383174E-01
   1.87250000E+03   5.00000000E-01   5.00000000E-01  -5.72464584E+00  -2.22749972E+00  -4.99671255E+00  -1.42772937E+01   1.44755355E-03   8.59624564E-01  -3.41437171E-01  -2.48562599E+00  -6.58646883E-08  -3.07212717E-01   1.27277254E+00   1.31267799E+00   8.74482944E-05  -2.70842897E+00  -1.68285315E+02   3.61652816E-01
   1.90750000E+03   5.00000000E-01   5.00000000E-01  -5.69113892E+00  -2.21473913E+00  -4.96272268E+00  -1.43072015E+01   1.39558124E-03   8.52635709E-01  -3.42179129E-01  -2.50857980E+00  -7.54868032E-08  -2.90539343E-01   1.27236409E+00   1.33481841E+00   8.60926342E-05  -2.71541759E+00  -1.67178793E+02   3.58909262E-01
   1.94250000E+03   5.00000000E-01   5.00000000E-01  -5.65783492E+00  -2.20206683E+00  -4.92940115E+00  -1.43393769E+01   1.34517927E-03   8.45870332E-01  -3.43080876E-01  -2.53224383E+00  -8.64561653E-08  -2.74217828E-01   1.27180795E+00   1.35662108E+00   8.48475363E-05  -2.72279732E+00  -1.66083037E+02   3.56141610E-01
   1.97750000E+03   5.00000000E-01   5.00000000E-01  -5.62471923E+00  -2.18948045E+00  -4.89673424E+00  -1.43737478E+01   1.29631174E-03   8.39364021E-01  -3.44156120E-01  -2.55659153E+00  -9.89534356E-08  -2.58247722E-01   1.27110310E+00   1.37811212E+00   8.37132971E-05  -2.73056702E+00  -1.64997890E+02   3.53340662E-01
   2.01250000E+03   5.00000000E-01   5.00000000E-01  -5.59177908E+00  -2.17697780E+00  -4.86470932E+00  -1.44102477E+01   1.24894267E-03   8.33146092E-01  -3.45415992E-01  -2.58159833E+00  -1.13182817E-07  -2.42628099E-01   1.27024853E+00   1.39931375E+00   8.26892682E-05  -2.73872503E+00  -1.63923198E+02   3.50498791E-01
   2.04750000E+03   5.00000000E-01   5.00000000E-01  -5.55900341E+00  -2.16455681E+00  -4.83331486E+00  -1.44488151E+01   1.20303613E-03   8.27240121E-01  -3.46869345E-01  -2.60724142E+00  -1.29374995E-07  -2.27357710E-01   1.26924310E+00   1.42024448E+00   8.17741083E-05  -2.74726929E+00  -1.62858808E+02   3.47609783E-01
   2.08250000E+03   5.00000000E-01   5.00000000E-01  -5.52638265E+00  -2.15221552E+00  -4.80254030E+00  -1.44893932E+01   1.15855648E-03   8.21664522E-01  -3.48523050E-01  -2.63349955E+00  -1.47790391E-07  -2.12435107E-01   1.26808542E+00   1.44091934E+00   8.09660109E-05  -2.75619747E+00  -1.61804568E+02   3.44668686E-01
   2.11750000E+03   5.00000000E-01   5.00000000E-01  -5.49390854E+00  -2.13995207E+00  -4.77237607E+00  -1.45319290E+01   1.11546844E-03   8.16433125E-01  -3.50382289E-01  -2.66035275E+00  -1.68722718E-07  -1.97858753E-01   1.26677376E+00   1.46135016E+00   8.02629065E-05  -2.76550700E+00  -1.60760331E+02   3.41671649E-01
   2.15250000E+03   5.00000000E-01   5.00000000E-01  -5.46157388E+00  -2.12776467E+00  -4.74281336E+00  -1.45763727E+01   1.07373723E-03   8.11556032E-01  -3.52450928E-01  -2.68778209E+00  -1.92503042E-07  -1.83627133E-01   1.26530600E+00   1.48154606E+00   7.96626156E-05  -2.77519520E+00  -1.59725949E+02   3.38615704E-01
   2.18750000E+03   5.00000000E-01   5.00000000E-01  -5.42937223E+00  -2.11565161E+00  -4.71384399E+00  -1.46226767E+01   1.03332863E-03   8.07040660E-01  -3.54731971E-01  -2.71576933E+00  -2.19503952E-07  -1.69738871E-01   1.26367963E+00   1.50151403E+00   7.91629597E-05  -2.78525933E+00  -1.58701279E+02   3.35498502E-01
   2.22250000E+03   5.00000000E-01   5.00000000E-01  -5.39729759E+00  -2.10361121E+00  -4.68546019E+00  -1.46707946E+01   9.94209080E-04   8.02892799E-01  -3.57228010E-01  -2.74429656E+00  -2.50144432E-07  -1.56192840E-01   1.26189165E+00   1.52125957E+00   7.87618438E-05  -2.79569669E+00  -1.57686178E+02   3.32318037E-01
   2.25750000E+03   5.00000000E-01   5.00000000E-01  -5.36534412E+00  -2.09164183E+00  -4.65765445E+00  -1.47206802E+01   9.56345674E-04   7.99117473E-01  -3.59941591E-01  -2.77334596E+00  -2.84894608E-07  -1.42988253E-01   1.25993861E+00   1.54078717E+00   7.84573273E-05  -2.80650464E+00  -1.56680509E+02   3.29072436E-01
   2.29250000E+03   5.00000000E-01   5.00000000E-01  -5.33350606E+00  -2.07974181E+00  -4.63041942E+00  -1.47722875E+01   9.19706211E-04   7.95719438E-01  -3.62875437E-01  -2.80289964E+00  -3.24281151E-07  -1.30124737E-01   1.25781651E+00   1.56010061E+00   7.82476975E-05  -2.81768068E+00  -1.55684137E+02   3.25759822E-01
   2.32750000E+03   5.00000000E-01   5.00000000E-01  -5.30177762E+00  -2.06790953E+00  -4.60374789E+00  -1.48255699E+01   8.84259198E-04   7.92703311E-01  -3.66032518E-01  -2.83293952E+00  -3.68892758E-07  -1.17602364E-01   1.25552083E+00   1.57920296E+00   7.81315461E-05  -2.82922244E+00  -1.54696928E+02   3.22378282E-01
   2.36250000E+03   5.00000000E-01   5.00000000E-01  -5.27015301E+00  -2.05614338E+00  -4.57763279E+00  -1.48804805E+01   8.49973838E-04   7.90073557E-01  -3.69416055E-01  -2.86344741E+00  -4.19386230E-07  -1.05421666E-01   1.25304646E+00   1.59809658E+00   7.81078385E-05  -2.84112767E+00  -1.53718755E+02   3.18925867E-01
   2.39750000E+03   5.00000000E-01   5.00000000E-01  -5.23862642E+00  -2.04444172E+00  -4.55206716E+00  -1.49369722E+01   8.16820023E-04   7.87834476E-01  -3.73029523E-01  -2.89440491E+00  -4.76492500E-07  -9.35836530E-02   1.25038772E+00   1.61678310E+00   7.81759623E-05  -2.85339426E+00  -1.52749490E+02   3.15400591E-01
   2.43250000E+03   5.00000000E-01   5.00000000E-01  -5.20719205E+00  -2.03280297E+00  -4.52704419E+00  -1.49949975E+01   7.84768319E-04   7.85990070E-01  -3.76876600E-01  -2.92579353E+00  -5.41023244E-07  -8.20898038E-02   1.24753833E+00   1.63526331E+00   7.83357715E-05  -2.86602017E+00  -1.51789011E+02   3.11800464E-01
   2.46750000E+03   5.00000000E-01   5.00000000E-01  -5.17584421E+00  -2.02122551E+00  -4.50255720E+00  -1.50545086E+01   7.53789941E-04   7.84543805E-01  -3.80961067E-01  -2.95759469E+00  -6.13877464E-07  -7.09420444E-02   1.24449146E+00   1.65353701E+00   7.85876254E-05  -2.87900342E+00  -1.50837197E+02   3.08123553E-01
   2.50250000E+03   5.00000000E-01   5.00000000E-01  -5.14457735E+00  -2.00970776E+00  -4.47859969E+00  -1.51154580E+01   7.23856724E-04   7.83498362E-01  -3.85286688E-01  -2.98978985E+00  -6.96048410E-07  -6.01427116E-02   1.24123971E+00   1.67160289E+00   7.89324158E-05  -2.89234204E+00  -1.49893931E+02   3.04368048E-01
   2.53750000E+03   5.00000000E-01   5.00000000E-01  -5.11338616E+00  -1.99824815E+00  -4.45516531E+00  -1.51777983E+01   6.94941091E-04   7.82855451E-01  -3.89857119E-01  -3.02236057E+00  -7.88630497E-07  -4.96945131E-02   1.23777519E+00   1.68945845E+00   7.93715799E-05  -2.90603402E+00  -1.48959098E+02   3.00532309E-01
   2.57250000E+03   5.00000000E-01   5.00000000E-01  -5.08226555E+00  -1.98684514E+00  -4.43224785E+00  -1.52414821E+01   6.67016021E-04   7.82615730E-01  -3.94675853E-01  -3.05528853E+00  -8.92826132E-07  -3.96004896E-02   1.23408955E+00   1.70709997E+00   7.99070964E-05  -2.92007722E+00  -1.48032587E+02   2.96614897E-01
   2.60750000E+03   5.00000000E-01   5.00000000E-01  -5.05121069E+00  -1.97549720E+00  -4.40984117E+00  -1.53064624E+01   6.40055018E-04   7.82778834E-01  -3.99746198E-01  -3.08855558E+00  -1.00995228E-06  -2.98639815E-02   1.23017405E+00   1.72452262E+00   8.05414631E-05  -2.93446936E+00  -1.47114288E+02   2.92614568E-01
   2.64250000E+03   5.00000000E-01   5.00000000E-01  -5.02021700E+00  -1.96420284E+00  -4.38793917E+00  -1.53726921E+01   6.14032071E-04   7.83343503E-01  -4.05071306E-01  -3.12214371E+00  -1.14144650E-06  -2.04886032E-02   1.22601957E+00   1.74172054E+00   8.12776590E-05  -2.94920798E+00  -1.46204096E+02   2.88530249E-01
   2.67750000E+03   5.00000000E-01   5.00000000E-01  -4.98927984E+00  -1.95296054E+00  -4.36653557E+00  -1.54401234E+01   5.88921608E-04   7.84308394E-01  -4.10654504E-01  -3.15603484E+00  -1.28887148E-06  -1.14783120E-02   1.22161667E+00   1.75868735E+00   8.21190424E-05  -2.96429043E+00  -1.45301905E+02   2.84360837E-01
   2.71250000E+03   5.00000000E-01   5.00000000E-01  -4.95839445E+00  -1.94176881E+00  -4.34562384E+00  -1.55087076E+01   5.64698500E-04   7.85672601E-01  -4.16499512E-01  -3.19021071E+00  -1.45391810E-06  -2.83745624E-03   1.21695554E+00   1.77541649E+00   8.30692576E-05  -2.97971398E+00  -1.44407618E+02   2.80105064E-01
   2.74750000E+03   5.00000000E-01   5.00000000E-01  -4.92755586E+00  -1.93062614E+00  -4.32519717E+00  -1.55783945E+01   5.41338007E-04   7.87435791E-01  -4.22610493E-01  -3.22465283E+00  -1.63840772E-06   5.42921602E-03   1.21202601E+00   1.79190127E+00   8.41321589E-05  -2.99547573E+00  -1.43521135E+02   2.75761465E-01
   2.78250000E+03   5.00000000E-01   5.00000000E-01  -4.89675890E+00  -1.91953102E+00  -4.30524842E+00  -1.56491329E+01   5.18815756E-04   7.89598157E-01  -4.28992009E-01  -3.25934252E+00  -1.84429092E-06   1.33165902E-02   1.20681758E+00   1.80813492E+00   8.53117417E-05  -3.01157263E+00  -1.42642364E+02   2.71328396E-01
   2.81750000E+03   5.00000000E-01   5.00000000E-01  -4.86599830E+00  -1.90848195E+00  -4.28577015E+00  -1.57208705E+01   4.97107712E-04   7.92160275E-01  -4.35648956E-01  -3.29426103E+00  -2.07364486E-06   2.08192159E-02   1.20131945E+00   1.82411049E+00   8.66120657E-05  -3.02800142E+00  -1.41771214E+02   2.66804070E-01
   2.85250000E+03   5.00000000E-01   5.00000000E-01  -4.83526869E+00  -1.89747741E+00  -4.26675459E+00  -1.57935543E+01   4.76190159E-04   7.95122945E-01  -4.42586465E-01  -3.32938951E+00  -2.32866801E-06   2.79313529E-02   1.19552058E+00   1.83982081E+00   8.80371736E-05  -3.04475856E+00  -1.40907595E+02   2.62186605E-01
   2.88750000E+03   5.00000000E-01   5.00000000E-01  -4.80456468E+00  -1.88651592E+00  -4.24819363E+00  -1.58671302E+01   4.56039683E-04   7.98487032E-01  -4.49809812E-01  -3.36470919E+00  -2.61167088E-06   3.46470313E-02   1.18940968E+00   1.85525846E+00   8.95909975E-05  -3.06184024E+00  -1.40051424E+02   2.57474072E-01
   2.92250000E+03   5.00000000E-01   5.00000000E-01  -4.77388090E+00  -1.87559597E+00  -4.23007886E+00  -1.59415438E+01   4.36633159E-04   8.02253317E-01  -4.57324313E-01  -3.40020136E+00  -2.92506337E-06   4.09601158E-02   1.18297537E+00   1.87041576E+00   9.12772539E-05  -3.07924225E+00  -1.39202617E+02   2.52664539E-01
   2.95750000E+03   5.00000000E-01   5.00000000E-01  -4.74321210E+00  -1.86471611E+00  -4.21240148E+00  -1.60167398E+01   4.17947734E-04   8.06422367E-01  -4.65135234E-01  -3.43584752E+00  -3.27133715E-06   4.68643765E-02   1.17620616E+00   1.88528473E+00   9.30993285E-05  -3.09695997E+00  -1.38361096E+02   2.47756117E-01
   2.99250000E+03   5.00000000E-01   5.00000000E-01  -4.71255313E+00  -1.85387489E+00  -4.19515231E+00  -1.60926629E+01   3.99960825E-04   8.10994415E-01  -4.73247689E-01  -3.47162938E+00  -3.65304328E-06   5.23535638E-02   1.16909061E+00   1.89985713E+00   9.50601482E-05  -3.11498826E+00  -1.37526783E+02   2.42746996E-01
   3.02750000E+03   5.00000000E-01   5.00000000E-01  -4.68189904E+00  -1.84307090E+00  -4.17832178E+00  -1.61692574E+01   3.82650106E-04   8.15969272E-01  -4.81666564E-01  -3.50752898E+00  -4.07276422E-06   5.74214879E-02   1.16161736E+00   1.91412452E+00   9.71620447E-05  -3.13332146E+00  -1.36699605E+02   2.37635487E-01
   3.06250000E+03   5.00000000E-01   5.00000000E-01  -4.65124512E+00  -1.83230277E+00  -4.16189987E+00  -1.62464671E+01   3.65993505E-04   8.21346253E-01  -4.90396426E-01  -3.54352869E+00  -4.53307995E-06   6.20621007E-02   1.15377523E+00   1.92807829E+00   9.94066075E-05  -3.15195326E+00  -1.35879489E+02   2.32420045E-01
   3.09750000E+03   5.00000000E-01   5.00000000E-01  -4.62058689E+00  -1.82156915E+00  -4.14587611E+00  -1.63242362E+01   3.49969201E-04   8.27124127E-01  -4.99441452E-01  -3.57961132E+00  -5.03652788E-06   6.62695785E-02   1.14555337E+00   1.94170974E+00   1.01794531E-04  -3.17087672E+00  -1.35066365E+02   2.27099302E-01
   3.13250000E+03   5.00000000E-01   5.00000000E-01  -4.58992020E+00  -1.81086875E+00  -4.13023953E+00  -1.64025083E+01   3.34555618E-04   8.33301076E-01  -5.08805361E-01  -3.61576014E+00  -5.58555646E-06   7.00384060E-02   1.13694128E+00   1.95501017E+00   1.04325459E-04  -3.19008414E+00  -1.34260167E+02   2.21672089E-01
   3.16750000E+03   5.00000000E-01   5.00000000E-01  -4.55924120E+00  -1.80020034E+00  -4.11497864E+00  -1.64812275E+01   3.19731426E-04   8.39874667E-01  -5.18491343E-01  -3.65195895E+00  -6.18247252E-06   7.33634613E-02   1.12792896E+00   1.96797098E+00   1.06997823E-04  -3.20956709E+00  -1.33460829E+02   2.16137454E-01