 TITLE = "Mineral Saturation State" 
VARIABLES = "X"          "Y"              "Z"            "Forsterite"     "Fayalite"       "Brucite"        "Lizardite"      "Chrysotile"     "Hematite"       "Magnetite(am)"  "Saponite(Ca)"   "Saponite(K)"    "Saponite(Mg)"   "Saponite(Na)"   "Beidellite(Ca)" "Beidellite(K)"  "Beidellite(Mg)" "Beidellite(Na)" "Enstatite(alph" "Ferrosilite(al" "Anorthite"      "Albite(low)"    "Clinochlore"    "Sudoite"        "Montmor(MgCa)"  "Montmor(MgK)"   "Montmor(MgMg)"  "Montmor(MgNa)"  "Kaolinite"      "Tremolite"      "Pargasite"      "Anhydrite"      "Epidote"        "Scolecite"      "Pyrite"         "FeS(am)"        "Quartz(alpha)"  "Titanite"       "Rutile"         "Barite"         "Fluorite"       "Spessartine(al" "Andradite"      "Celestite"      "Zincite"        "Chalcocyanite"  "Chalcocite(alp"
 ZONE I=         200 , J=           1 , K=           1  F=POINT
   8.75000000E+00   5.00000000E-01   5.00000000E-01  -6.96338998E+00  -2.88067086E+00  -4.70594006E+00  -1.13096027E+00  -1.24844858E+00   9.83299275E-02  -5.24396889E+00   7.34843805E-01   2.56468833E+00   1.39578233E+00   2.44334981E+00  -6.85121671E+00  -5.70318244E+00  -6.19027547E+00  -5.76332579E+00  -2.47750588E+00  -1.49830195E+00  -1.19281966E+01  -1.67082293E+00   2.52808359E-02  -7.28770983E+00  -4.32226166E+00  -2.93331398E+00  -3.69484992E+00  -3.08246494E+00  -5.47916067E+00  -4.48980572E+00  -3.28143991E+01  -9.80255199E-01  -1.06075653E+01  -6.70265903E+00  -5.53739708E+01  -1.94369007E+01   7.23006273E-01  -6.55617110E-01   1.49179886E-01   2.99705740E-01  -5.70000686E-01  -2.63773168E+01  -6.82317047E+00  -1.70345803E+00  -3.57934085E+00  -1.59370374E+01   1.52716910E+00
   2.62500000E+01   5.00000000E-01   5.00000000E-01  -7.50376627E+00  -2.80731942E+00  -5.06235831E+00  -1.93119396E+00  -2.04664763E+00   9.83299274E-02  -5.26800539E+00   3.88744659E-01   2.19187164E+00   1.04910327E+00   2.07968641E+00  -4.63970619E+00  -3.51176902E+00  -3.97935047E+00  -3.56286535E+00  -2.67009214E+00  -1.37949572E+00  -1.05088880E+01  -6.67550648E-01   2.50088093E-02  -4.73713139E+00  -2.67031864E+00  -1.30274884E+00  -2.04330215E+00  -1.44238152E+00  -3.73571277E+00  -5.78305632E+00  -3.19928381E+01  -9.62338509E-01  -9.42044732E+00  -5.16636455E+00  -5.62734771E+01  -2.02913684E+01   8.85306226E-01  -8.55836295E-01   1.63835662E-01   1.38103927E-01  -5.87279789E-01  -2.46489389E+01  -7.45178281E+00  -1.71041686E+00  -3.70388232E+00  -1.58703354E+01   1.17104838E-01
   4.37500000E+01   5.00000000E-01   5.00000000E-01  -7.67466310E+00  -2.65855853E+00  -5.20411676E+00  -2.20650190E+00  -2.31994278E+00   9.83299273E-02  -5.22462698E+00   3.52552859E-01   2.13202422E+00   1.01237268E+00   2.02888583E+00  -3.65834089E+00  -2.55027454E+00  -2.99852913E+00  -2.59242988E+00  -2.70782949E+00  -1.25291729E+00  -9.89027034E+00  -1.83992610E-01   2.46396399E-02  -3.72659552E+00  -1.89139071E+00  -5.44959243E-01  -1.26473057E+00  -6.75184395E-01  -3.00725121E+00  -6.05153501E+00  -3.14784258E+01  -9.44206655E-01  -8.87899355E+00  -4.49029018E+00  -5.54246763E+01  -1.98852751E+01   9.87756563E-01  -9.02387695E-01   1.77279235E-01   5.14543355E-02  -6.03730544E-01  -2.37256070E+01  -7.61593852E+00  -1.71683597E+00  -3.70975358E+00  -1.58038584E+01   1.17104838E-01
   6.12500000E+01   5.00000000E-01   5.00000000E-01  -7.73227104E+00  -2.51029525E+00  -5.26939652E+00  -2.33109151E+00  -2.44254111E+00   9.83299272E-02  -5.16187056E+00   3.69215108E-01   2.12582885E+00   1.02852747E+00   2.03163090E+00  -3.11931308E+00  -2.03089558E+00  -2.46001357E+00  -2.06421601E+00  -2.70872687E+00  -1.14643323E+00  -9.53981668E+00   8.64495883E-02   2.40678966E-02  -3.21134920E+00  -1.45209731E+00  -1.26569153E-01  -8.25764409E-01  -2.47497512E-01  -2.62312470E+00  -6.10103349E+00  -3.11027152E+01  -9.25860035E-01  -8.56863445E+00  -4.12173835E+00  -5.47143600E+01  -1.95385526E+01   1.05053089E+00  -9.13241443E-01   1.89496218E-01   8.53989151E-03  -6.19382481E-01  -2.31099489E+01  -7.66950164E+00  -1.72269298E+00  -3.68226791E+00  -1.57376040E+01   1.17104838E-01
   7.87500000E+01   5.00000000E-01   5.00000000E-01  -7.75393047E+00  -2.38622210E+00  -5.30342248E+00  -2.41442589E+00  -2.52390536E+00   9.83299272E-02  -5.09813472E+00   3.75138917E-01   2.10911047E+00   1.03396914E+00   2.02374752E+00  -2.76351244E+00  -1.69452599E+00  -2.10469949E+00  -1.71911659E+00  -2.70489924E+00  -1.06533393E+00  -9.28947982E+00   2.54013459E-01   2.34935495E-02  -2.86849217E+00  -1.16783296E+00   1.37022549E-01  -5.41804134E-01   2.52813166E-02  -2.37009575E+00  -6.14319177E+00  -3.08004037E+01  -9.07304698E-01  -8.35340834E+00  -3.87955349E+00  -5.40704597E+01  -1.92243657E+01   1.08674059E+00  -9.20453317E-01   2.00514716E-01  -1.24681139E-02  -6.34266705E-01  -2.26419265E+01  -7.70872067E+00  -1.72799537E+00  -3.64806112E+00  -1.56715762E+01   1.17104838E-01
   9.62500000E+01   5.00000000E-01   5.00000000E-01  -7.75560177E+00  -2.27966409E+00  -5.31888533E+00  -2.47574235E+00  -2.58327251E+00   9.83299271E-02  -5.03479007E+00   3.70581110E-01   2.08210223E+00   1.02895086E+00   2.00547065E+00  -2.51724091E+00  -1.46747175E+00  -1.85889248E+00  -1.48343578E+00  -2.69961587E+00  -1.00157038E+00  -9.09772801E+00   3.58304323E-01   2.30640143E-02  -2.62443820E+00  -9.78033006E-01   3.06376300E-01  -3.52288683E-01   2.03714398E-01  -2.19396263E+00  -6.19144639E+00  -3.05443672E+01  -8.88549424E-01  -8.19503716E+00  -3.71278401E+00  -5.34689241E+01  -1.89313729E+01   1.10580843E+00  -9.27242446E-01   2.10367705E-01  -2.31911053E-02  -6.48414394E-01  -2.22650814E+01  -7.74334884E+00  -1.73276032E+00  -3.61109151E+00  -1.56057818E+01   1.17104838E-01
   1.13750000E+02   5.00000000E-01   5.00000000E-01  -7.74162930E+00  -2.18308737E+00  -5.32128278E+00  -2.51823900E+00  -2.62384031E+00   9.83299270E-02  -4.97139288E+00   3.63746483E-01   2.05306048E+00   1.02167387E+00   1.98505878E+00  -2.34817334E+00  -1.31741161E+00  -1.69027100E+00  -1.32485016E+00  -2.69172297E+00  -9.48049082E-01  -8.94911850E+00   4.20344638E-01   2.28403932E-02  -2.45500820E+00  -8.52569666E-01   4.11615777E-01  -2.27093806E-01   3.17927658E-01  -2.07380524E+00  -6.23104277E+00  -3.03189591E+01  -8.69603962E-01  -8.07690912E+00  -3.59933727E+00  -5.28982754E+01  -1.86536126E+01   1.11438724E+00  -9.32406099E-01   2.19087268E-01  -2.91450000E-02  -6.61855675E-01  -2.19518288E+01  -7.76987122E+00  -1.73700702E+00  -3.57204423E+00  -1.55402281E+01   1.17104838E-01
   1.31250000E+02   5.00000000E-01   5.00000000E-01  -7.71585816E+00  -2.09322779E+00  -5.31473854E+00  -2.54548934E+00  -2.64918197E+00   9.83299269E-02  -4.90850989E+00   3.58929005E-01   2.02630253E+00   1.01642856E+00   1.96683139E+00  -2.23222961E+00  -1.22026924E+00  -1.57475849E+00  -1.21928122E+00  -2.68094154E+00  -9.00935829E-01  -8.83154394E+00   4.54991671E-01   2.27960676E-02  -2.34044493E+00  -7.69785592E-01   4.74394363E-01  -1.44565683E-01   3.89576708E-01  -1.99341302E+00  -6.25559848E+00  -3.01134119E+01  -8.50478225E-01  -7.98662250E+00  -3.52270487E+00  -5.23507968E+01  -1.83875084E+01   1.11688097E+00  -9.35616404E-01   2.26705325E-01  -3.28588671E-02  -6.74619413E-01  -2.16840567E+01  -7.78739702E+00  -1.74075439E+00  -3.53210431E+00  -1.54749225E+01   1.17104838E-01
   1.48750000E+02   5.00000000E-01   5.00000000E-01  -7.68173461E+00  -2.00895190E+00  -5.30234957E+00  -2.56129589E+00  -2.66309967E+00   9.83299269E-02  -4.84694592E+00   3.57586146E-01   2.00328871E+00   1.01466933E+00   1.95225071E+00  -2.15145183E+00  -1.15809043E+00  -1.49440019E+00  -1.14877279E+00  -2.66762053E+00  -8.58289146E-01  -8.73538780E+00   4.72547609E-01   2.28691604E-02  -2.26431210E+00  -7.14289398E-01   5.10099593E-01  -8.93159663E-02   4.34051114E-01  -1.94009014E+00  -6.26478678E+00  -2.99205279E+01  -8.31182057E-01  -7.91489710E+00  -3.47052390E+00  -5.18210594E+01  -1.81307474E+01   1.11603889E+00  -9.37175817E-01   2.33254200E-01  -3.54951026E-02  -6.86733309E-01  -2.14492393E+01  -7.79692770E+00  -1.74402087E+00  -3.49244298E+00  -1.54098721E+01   1.17104838E-01
   1.66250000E+02   5.00000000E-01   5.00000000E-01  -7.64190936E+00  -1.92980677E+00  -5.28625624E+00  -2.56882655E+00  -2.66876099E+00   9.83299268E-02  -4.78728724E+00   3.59874279E-01   1.98416952E+00   1.01655011E+00   1.94146902E+00  -2.09347938E+00  -1.11851810E+00  -1.43683790E+00  -1.10096602E+00  -2.65226994E+00  -8.19066657E-01  -8.65374214E+00   4.79724579E-01   2.30021132E-02  -2.21446513E+00  -6.75856827E-01   5.28951988E-01  -5.11227919E-02   4.61573205E-01  -1.90480223E+00  -6.26053339E+00  -2.97357461E+01  -8.11725167E-01  -7.85532608E+00  -3.43425771E+00  -5.13053233E+01  -1.78817518E+01   1.11349250E+00  -9.37551121E-01   2.38766673E-01  -3.75976192E-02  -6.98223972E-01  -2.12387819E+01  -7.79995916E+00  -1.74682444E+00  -3.45387145E+00  -1.53450834E+01   1.17104838E-01
   1.83750000E+02   5.00000000E-01   5.00000000E-01  -7.59828756E+00  -1.85550635E+00  -5.26787170E+00  -2.57048519E+00  -2.66856951E+00   9.83299267E-02  -4.72984916E+00   3.65406588E-01   1.96854916E+00   1.02168221E+00   1.93409204E+00  -2.05016850E+00  -1.09341197E+00  -1.39392977E+00  -1.06771909E+00  -2.63538145E+00  -7.82663898E-01  -8.58188470E+00   4.80723793E-01   2.31552766E-02  -2.18241525E+00  -6.47967069E-01   5.37468722E-01  -2.34671852E-02   4.78661787E-01  -1.88142460E+00  -6.24535089E+00  -2.95562785E+01  -7.92117101E-01  -7.80367319E+00  -3.40826428E+00  -5.08010275E+01  -1.76393980E+01   1.11016445E+00  -9.37193680E-01   2.43275826E-01  -3.94269089E-02  -7.09116924E-01  -2.10467771E+01  -7.79794199E+00  -1.74918264E+00  -3.41684798E+00  -1.52805628E+01   1.17104838E-01
   2.01250000E+02   5.00000000E-01   5.00000000E-01  -7.55220182E+00  -1.78578233E+00  -5.24810900E+00  -2.56803072E+00  -2.66428384E+00   9.83299267E-02  -4.67474203E+00   3.73611718E-01   1.95584661E+00   1.02949282E+00   1.92954021E+00  -2.01626135E+00  -1.07751754E+00  -1.36041942E+00  -1.04377604E+00  -2.61737439E+00  -7.48699176E-01  -8.51665182E+00   4.78111469E-01   2.33060214E-02  -2.16235788E+00  -6.26552341E-01   5.39714042E-01  -2.28277929E-03   4.89382612E-01  -1.86588886E+00  -6.22167776E+00  -2.93804599E+01  -7.72367225E-01  -7.75719072E+00  -3.38888790E+00  -5.03064030E+01  -1.74028559E+01   1.10654953E+00  -9.36484780E-01   2.46814843E-01  -4.11106864E-02  -7.19436617E-01  -2.08691159E+01  -7.79211692E+00  -1.75111252E+00  -3.38157715E+00  -1.52163162E+01   1.17104838E-01
   2.18750000E+02   5.00000000E-01   5.00000000E-01  -7.50457302E+00  -1.72035146E+00  -5.22755155E+00  -2.56272805E+00  -2.65716860E+00   9.83299266E-02  -4.62194501E+00   3.83905228E-01   1.94546821E+00   1.03939634E+00   1.92722123E+00  -1.98839637E+00  -1.06747656E+00  -1.33294647E+00  -1.02577724E+00  -2.59858595E+00  -7.16907126E-01  -8.45594107E+00   4.73428068E-01   2.34435590E-02  -2.15035983E+00  -6.09109278E-01   5.38187866E-01   1.49326666E-02   4.96237016E-01  -1.85551582E+00  -6.19162843E+00  -2.92073133E+01  -7.52484706E-01  -7.71411177E+00  -3.37378166E+00  -4.98202072E+01  -1.71714932E+01   1.10289501E+00  -9.35725343E-01   2.49416811E-01  -4.27128580E-02  -7.29206435E-01  -2.07028895E+01  -7.78348335E+00  -1.75263068E+00  -3.34810267E+00  -1.51523493E+01   1.17104838E-01
   2.36250000E+02   5.00000000E-01   5.00000000E-01  -7.45603255E+00  -1.65891704E+00  -5.20656927E+00  -2.55547659E+00  -2.64812290E+00   9.83299266E-02  -4.57136180E+00   3.95765857E-01   1.93688440E+00   1.05087056E+00   1.92660682E+00  -1.96443765E+00  -1.06115630E+00  -1.30937598E+00  -1.01158868E+00  -2.57927739E+00  -6.87084417E-01  -8.39836094E+00   4.67583537E-01   2.35640933E-02  -2.14376964E+00  -5.94113943E-01   5.34410775E-01   2.97021680E-02   5.00746939E-01  -1.84854956E+00  -6.15692534E+00  -2.90362743E+01  -7.32478492E-01  -7.67330548E+00  -3.36144710E+00  -4.93415482E+01  -1.69448152E+01   1.09931057E+00  -9.35141740E-01   2.51114536E-01  -4.42658580E-02  -7.38448719E-01  -2.05459984E+01  -7.77281626E+00  -1.75375317E+00  -3.31637418E+00  -1.50886675E+01   1.17104838E-01
   2.53750000E+02   5.00000000E-01   5.00000000E-01  -7.40700951E+00  -1.60117756E+00  -5.18539455E+00  -2.54690857E+00  -2.63777870E+00   9.83299265E-02  -4.52285733E+00   4.08762777E-01   1.92965703E+00   1.06348381E+00   1.92726010E+00  -1.94303775E+00  -1.05721244E+00  -1.28836135E+00  -9.99864758E-01  -2.55964521E+00  -6.59061764E-01  -8.34299484E+00   4.61104815E-01   2.36674755E-02  -2.14081106E+00  -5.80650417E-01   5.29295412E-01   4.29408597E-02   5.03826346E-01  -1.84384587E+00  -6.11891183E+00  -2.88670221E+01  -7.12357290E-01  -7.63405190E+00  -3.35093348E+00  -4.88697702E+01  -1.67224259E+01   1.09583308E+00  -9.34896780E-01   2.51940373E-01  -4.57862040E-02  -7.47184792E-01  -2.03968952E+01  -7.76069862E+00  -1.75449553E+00  -3.28629060E+00  -1.50252757E+01   1.17104838E-01
   2.71250000E+02   5.00000000E-01   5.00000000E-01  -7.35779143E+00  -1.54683516E+00  -5.16417109E+00  -2.53746171E+00  -2.62657344E+00   9.83299264E-02  -4.47628048E+00   4.22558295E-01   1.92344204E+00   1.07689770E+00   1.92883826E+00  -1.92335701E+00  -1.05480835E+00  -1.26906363E+00  -9.89767605E-01  -2.53983308E+00  -6.32689629E-01  -8.28924436E+00   4.54288096E-01   2.37552091E-02  -2.14030703E+00  -5.68178801E-01   5.23378481E-01   5.51879553E-02   5.06013229E-01  -1.84066687E+00  -6.07859816E+00  -2.86993780E+01  -6.92129545E-01  -7.59589692E+00  -3.34164411E+00  -4.84043791E+01  -1.65040025E+01   1.09246350E+00  -9.35101541E-01   2.51926086E-01  -4.72821739E-02  -7.55434989E-01  -2.02544165E+01  -7.74755652E+00  -1.75487277E+00  -3.25772674E+00  -1.49621786E+01   1.17104838E-01
   2.88750000E+02   5.00000000E-01   5.00000000E-01  -7.30856660E+00  -1.49560180E+00  -5.14298524E+00  -2.52743250E+00  -2.61480334E+00   9.83299264E-02  -4.43147734E+00   4.36899255E-01   1.91798078E+00   1.09085842E+00   1.93108383E+00  -1.90488354E+00  -1.05343510E+00  -1.25097161E+00  -9.80787097E-01  -2.51994277E+00  -6.07831134E-01  -8.23672520E+00   4.47291711E-01   2.38293697E-02  -2.14149221E+00  -5.56391128E-01   5.16964829E-01   6.67508090E-02   5.07613703E-01  -1.83854576E+00  -6.03671739E+00  -2.85332440E+01  -6.71803430E-01  -7.55855897E+00  -3.33321185E+00  -4.79449932E+01  -1.62892767E+01   1.08918733E+00  -9.35826285E-01   2.51102717E-01  -4.87576925E-02  -7.63218693E-01  -2.01176706E+01  -7.73369145E+00  -1.75489932E+00  -3.23054915E+00  -1.48993807E+01   1.17104838E-01
   3.06250000E+02   5.00000000E-01   5.00000000E-01  -7.25945370E+00  -1.44720349E+00  -5.12188626E+00  -2.51701527E+00  -2.60266248E+00   9.83299263E-02  -4.38829875E+00   4.51604041E-01   1.91308681E+00   1.10518376E+00   1.93381158E+00  -1.88731724E+00  -1.05279551E+00  -1.23378580E+00  -9.72624840E-01  -2.50004358E+00  -5.84358768E-01  -8.18519740E+00   4.40192635E-01   2.38920690E-02  -2.14388451E+00  -5.45121745E-01   5.10217063E-01   7.77945173E-02   5.08791623E-01  -1.83719686E+00  -5.99378041E+00  -2.83685676E+01  -6.51386825E-01  -7.52186862E+00  -3.32541854E+00  -4.74913102E+01  -1.60780228E+01   1.08598540E+00  -9.37109913E-01   2.49500480E-01  -5.02143450E-02  -7.70554365E-01  -1.99859614E+01  -7.71930841E+00  -1.75458910E+00  -3.20462520E+00  -1.48368857E+01   1.17104838E-01
   3.23750000E+02   5.00000000E-01   5.00000000E-01  -7.21052313E+00  -1.40138318E+00  -5.10089962E+00  -2.50633143E+00  -2.59027199E+00   9.83299262E-02  -4.34660442E+00   4.66548534E-01   1.90863177E+00   1.11974907E+00   1.93689433E+00  -1.87049381E+00  -1.05272808E+00  -1.21734242E+00  -9.65118157E-01  -2.48018030E+00  -5.62153147E-01  -8.13451772E+00   4.33020982E-01   2.39452200E-02  -2.14719524E+00  -5.34291075E-01   5.03211786E-01   8.83981471E-02   5.09624821E-01  -1.83645482E+00  -5.95012615E+00  -2.82053201E+01  -6.30887314E-01  -7.48572886E+00  -3.31814203E+00  -4.70430852E+01  -1.58700478E+01   1.08283922E+00  -9.38967944E-01   2.47148661E-01  -5.16524451E-02  -7.77459585E-01  -1.98587356E+01  -7.70453953E+00  -1.75395545E+00  -3.17982829E+00  -1.47746975E+01   1.17104838E-01
   3.41250000E+02   5.00000000E-01   5.00000000E-01  -7.16181252E+00  -1.35790280E+00  -5.08003590E+00  -2.49545169E+00  -2.57770236E+00   9.83299261E-02  -4.30626505E+00   4.81652509E-01   1.90453164E+00   1.13447361E+00   1.94024922E+00  -1.85433369E+00  -1.05315601E+00  -1.20156243E+00  -9.58189090E-01  -2.46037990E+00  -5.41102916E-01  -8.08460618E+00   4.25781248E-01   2.39904576E-02  -2.15126460E+00  -5.23869728E-01   4.95975480E-01   9.85906156E-02   5.10140993E-01  -1.83623221E+00  -5.90596590E+00  -2.80434846E+01  -6.10312176E-01  -7.45008823E+00  -3.31132048E+00  -4.66001147E+01  -1.56651855E+01   1.07973324E+00  -9.41399229E-01   2.44075545E-01  -5.30716126E-02  -7.83951086E-01  -1.97355457E+01  -7.68946395E+00  -1.75301116E+00  -3.15604062E+00  -1.47128194E+01   1.17104838E-01
   3.58750000E+02   5.00000000E-01   5.00000000E-01  -7.11333854E+00  -1.31654491E+00  -5.05929701E+00  -2.48441350E+00  -2.56499075E+00   9.83299260E-02  -4.26716349E+00   4.96867150E-01   1.90073415E+00   1.14930810E+00   1.94382512E+00  -1.83880687E+00  -1.05405200E+00  -1.18641632E+00  -9.51809191E-01  -2.44065707E+00  -5.21105255E-01  -8.03542195E+00   4.18465573E-01   2.40291359E-02  -2.15601400E+00  -5.13855112E-01   4.88507896E-01   1.08374079E-01   5.10341090E-01  -1.83648924E+00  -5.86142187E+00  -2.78830489E+01  -5.89668377E-01  -7.41492230E+00  -3.30492761E+00  -4.61622254E+01  -1.54632907E+01   1.07665545E+00  -9.44391582E-01   2.40308351E-01  -5.44710915E-02  -7.90044788E-01  -1.96160225E+01  -7.67412458E+00  -1.75176850E+00  -3.13315484E+00  -1.46512542E+01   1.17104838E-01
   3.76250000E+02   5.00000000E-01   5.00000000E-01  -7.06510584E+00  -1.27711380E+00  -5.03868048E+00  -2.47323446E+00  -2.55215455E+00   9.83299259E-02  -4.22919510E+00   5.12164184E-01   1.89720782E+00   1.16422385E+00   1.94759168E+00  -1.82390836E+00  -1.05541369E+00  -1.17189953E+00  -9.45974968E-01  -2.42101886E+00  -5.02066599E-01  -7.98694566E+00   4.11062005E-01   2.40623595E-02  -2.16141061E+00  -5.04256062E-01   4.80797425E-01   1.17739300E-01   5.10214682E-01  -1.83721186E+00  -5.81655948E+00  -2.77240013E+01  -5.68962577E-01  -7.38022057E+00  -3.29895535E+00  -4.57292661E+01  -1.52642356E+01   1.07359708E+00  -9.47926408E-01   2.35873177E-01  -5.58499279E-02  -7.95755835E-01  -1.94998555E+01  -7.65854176E+00  -1.75023918E+00  -3.11107481E+00  -1.45900047E+01   1.17104838E-01
   3.93750000E+02   5.00000000E-01   5.00000000E-01  -7.01711340E+00  -1.23943593E+00  -5.01818236E+00  -2.46192231E+00  -2.53920125E+00   9.83299258E-02  -4.19226774E+00   5.27527239E-01   1.89393320E+00   1.17920407E+00   1.95153059E+00  -1.80964179E+00  -1.05724729E+00  -1.15801609E+00  -9.40691496E-01  -2.40146814E+00  -4.83903132E-01  -7.93916723E+00   4.03559386E-01   2.40910272E-02  -2.16744228E+00  -4.95083205E-01   4.72830725E-01   1.26675276E-01   5.09749594E-01  -1.83839657E+00  -5.77141260E+00  -2.75663286E+01  -5.48201123E-01  -7.34597777E+00  -3.29340220E+00  -4.53011017E+01  -1.50679067E+01   1.07055204E+00  -9.51982236E-01   2.30794969E-01  -5.72070708E-02  -8.01098630E-01  -1.93867781E+01  -7.64272380E+00  -1.74843439E+00  -3.08971573E+00  -1.45290731E+01   1.17104838E-01
   4.11250000E+02   5.00000000E-01   5.00000000E-01  -6.96935850E+00  -1.20335913E+00  -4.99779889E+00  -2.45048112E+00  -2.52613468E+00   9.83299256E-02  -4.15630097E+00   5.42945995E-01   1.89089706E+00   1.19423807E+00   1.95562968E+00  -1.79601008E+00  -1.05955822E+00  -1.14476931E+00  -9.35963113E-01  -2.38200594E+00  -4.66540735E-01  -7.89207854E+00   3.95949695E-01   2.41158766E-02  -2.17410231E+00  -4.86343910E-01   4.64597775E-01   1.35174295E-01   5.08936957E-01  -1.84004157E+00  -5.72600017E+00  -2.74100154E+01  -5.27390055E-01  -7.31218885E+00  -3.28826663E+00  -4.48776091E+01  -1.48742028E+01   1.06751622E+00  -9.56537036E-01   2.25097492E-01  -5.85414292E-02  -8.06086863E-01  -1.92765574E+01  -7.62667385E+00  -1.74636479E+00  -3.06900363E+00  -1.44684615E+01   1.17104838E-01
   4.28750000E+02   5.00000000E-01   5.00000000E-01  -6.92183838E+00  -1.16875055E+00  -4.97752703E+00  -2.43891403E+00  -2.51295778E+00   9.83299255E-02  -4.12122482E+00   5.58413271E-01   1.88808934E+00   1.20931833E+00   1.95988002E+00  -1.78301220E+00  -1.06234792E+00  -1.13215850E+00  -9.31790157E-01  -2.36263251E+00  -4.49914193E-01  -7.84567060E+00   3.88228477E-01   2.41375229E-02  -2.18138330E+00  -4.78040894E-01   4.56093267E-01   1.43233326E-01   5.07772596E-01  -1.84214327E+00  -5.68033427E+00  -2.72550442E+01  -5.06535110E-01  -7.27884721E+00  -3.28354469E+00  -4.44586751E+01  -1.46830325E+01   1.06448705E+00  -9.61569313E-01   2.18803309E-01  -5.98519061E-02  -8.10733549E-01  -1.91689874E+01  -7.61039309E+00  -1.74404055E+00  -3.04887422E+00  -1.44081714E+01   1.17104838E-01
   4.46250000E+02   5.00000000E-01   5.00000000E-01  -6.87455019E+00  -1.13549365E+00  -4.95736433E+00  -2.42722339E+00  -2.49967264E+00   9.83299253E-02  -4.08697811E+00   5.73924453E-01   1.88550268E+00   1.22443993E+00   1.96427530E+00  -1.77064408E+00  -1.06561473E+00  -1.12017993E+00  -9.28169894E-01  -2.34334744E+00  -4.33965847E-01  -7.79993386E+00   3.80394081E-01   2.41564890E-02  -2.18927741E+00  -4.70173242E-01   4.47315579E-01   1.50852999E-01   5.06256008E-01  -1.84469679E+00  -5.63442141E+00  -2.71013959E+01  -4.85641725E-01  -7.24594513E+00  -3.27923062E+00  -4.40441946E+01  -1.44943132E+01   1.06146311E+00  -9.67058252E-01   2.11933779E-01  -6.11374180E-02  -8.15051055E-01  -1.90638853E+01  -7.59388115E+00  -1.74147132E+00  -3.02927132E+00  -1.43482043E+01   1.17104838E-01
   4.63750000E+02   5.00000000E-01   5.00000000E-01  -6.82749022E+00  -1.10348501E+00  -4.93730847E+00  -2.41540964E+00  -2.48627951E+00   9.83299252E-02  -4.05350679E+00   5.89478094E-01   1.88313293E+00   1.23960114E+00   1.96881243E+00  -1.75890127E+00  -1.06935653E+00  -1.10882941E+00  -9.25099154E-01  -2.32414937E+00  -4.18644075E-01  -7.75485986E+00   3.72446510E-01   2.41732259E-02  -2.19777963E+00  -4.62738308E-01   4.38264881E-01   1.58035705E-01   5.04388467E-01  -1.84769810E+00  -5.58826048E+00  -2.69490505E+01  -4.64715047E-01  -7.21347515E+00  -3.27531871E+00  -4.36340700E+01  -1.43079697E+01   1.05844408E+00  -9.72983415E-01   2.04509054E-01  -6.23969064E-02  -8.19051129E-01  -1.89610882E+01  -7.57713524E+00  -1.73866630E+00  -3.01014530E+00  -1.42885612E+01   1.17104838E-01
   4.81250000E+02   5.00000000E-01   5.00000000E-01  -6.78065335E+00  -1.07263177E+00  -4.91735691E+00  -2.40347051E+00  -2.47277589E+00   9.83299250E-02  -4.02076261E+00   6.05076406E-01   1.88097972E+00   1.25480392E+00   1.97349209E+00  -1.74778083E+00  -1.07357269E+00  -1.09810428E+00  -9.22576258E-01  -2.30503574E+00  -4.03902057E-01  -7.71044251E+00   3.64386605E-01   2.41881250E-02  -2.20689015E+00  -4.55733082E-01   4.28941758E-01   1.64784227E-01   5.02171645E-01  -1.85114560E+00  -5.54184115E+00  -2.67979877E+01  -4.43759939E-01  -7.18143109E+00  -3.27180463E+00  -4.32282107E+01  -1.41239330E+01   1.05543057E+00  -9.79324483E-01   1.96548082E-01  -6.36293453E-02  -8.22744933E-01  -1.88604516E+01  -7.56014935E+00  -1.73563422E+00  -2.99145179E+00  -1.42292428E+01   1.17104838E-01
   4.98750000E+02   5.00000000E-01   5.00000000E-01  -6.73403320E+00  -1.04285018E+00  -4.89750689E+00  -2.39140135E+00  -2.45915692E+00   9.83299248E-02  -3.98870234E+00   6.20724776E-01   1.87904592E+00   1.27005343E+00   1.97831818E+00  -1.73728118E+00  -1.07826387E+00  -1.08800317E+00  -9.20600841E-01  -2.28600294E+00  -3.89697123E-01  -7.66667783E+00   3.56215924E-01   2.42015252E-02  -2.21661370E+00  -4.49154256E-01   4.19347150E-01   1.71101677E-01   4.99607555E-01  -1.85503982E+00  -5.49514510E+00  -2.66481867E+01  -4.22780985E-01  -7.14980792E+00  -3.26868528E+00  -4.28265318E+01  -1.39421400E+01   1.05242404E+00  -9.86061409E-01   1.88068627E-01  -6.48337440E-02  -8.26143063E-01  -1.87618463E+01  -7.54291476E+00  -1.73238334E+00  -2.97315094E+00  -1.41702497E+01   1.17104837E-01
   5.16250000E+02   5.00000000E-01   5.00000000E-01  -6.68762318E+00  -1.01406529E+00  -4.87775592E+00  -2.37919681E+00  -2.44541704E+00   9.83299246E-02  -3.95728748E+00   6.36430173E-01   1.87733606E+00   1.28535646E+00   1.98329623E+00  -1.72739973E+00  -1.08342968E+00  -1.07852371E+00  -9.19171487E-01  -2.26704694E+00  -3.75990673E-01  -7.62356203E+00   3.47937290E-01   2.42137173E-02  -2.22695560E+00  -4.42996984E-01   4.09483586E-01   1.76992734E-01   4.96699782E-01  -1.85938112E+00  -5.44815057E+00  -2.64996264E+01  -4.01782504E-01  -7.11860051E+00  -3.26595710E+00  -4.24289535E+01  -1.37625321E+01   1.04942656E+00  -9.93175006E-01   1.79087286E-01  -6.60091485E-02  -8.29255582E-01  -1.86651559E+01  -7.52542186E+00  -1.72892153E+00  -2.95520726E+00  -1.41115819E+01   1.17104837E-01
   5.33750000E+02   5.00000000E-01   5.00000000E-01  -6.64141796E+00  -9.86211199E-01  -4.85810231E+00  -2.36685313E+00  -2.43155229E+00   9.83299244E-02  -3.92648430E+00   6.52198958E-01   1.87585411E+00   1.30071921E+00   1.98843122E+00  -1.71812945E+00  -1.08906524E+00  -1.06965903E+00  -9.18282323E-01  -2.24816414E+00  -3.62748453E-01  -7.58108884E+00   3.39555623E-01   2.42249494E-02  -2.23791615E+00  -4.37253053E-01   3.99357012E-01   1.82465469E-01   4.93455317E-01  -1.86416642E+00  -5.40083854E+00  -2.63522848E+01  -3.80768553E-01  -7.08780177E+00  -3.26361367E+00  -4.20353997E+01  -1.35850552E+01   1.04644060E+00  -1.00064777E+00   1.69619518E-01  -6.71546413E-02  -8.32092040E-01  -1.85702738E+01  -7.50766276E+00  -1.72525623E+00  -2.93758960E+00  -1.40532396E+01   1.17104835E-01
   5.51250000E+02   5.00000000E-01   5.00000000E-01  -6.59541467E+00  -9.59231296E-01  -4.83854571E+00  -2.35437010E+00  -2.41756227E+00   9.83299241E-02  -3.89626384E+00   6.68034979E-01   1.87460154E+00   1.31614537E+00   1.99372560E+00  -1.70945618E+00  -1.09515847E+00  -1.06139509E+00  -9.17920285E-01  -2.22935211E+00  -3.49940788E-01  -7.53924731E+00   3.31078561E-01   2.42354346E-02  -2.24948596E+00  -4.31909474E-01   3.88978201E-01   1.87532759E-01   4.89885958E-01  -1.86938647E+00  -5.35319811E+00  -2.62061393E+01  -3.59742939E-01  -7.05740120E+00  -3.26164370E+00  -4.16457966E+01  -1.34096590E+01   1.04346876E+00  -1.00846459E+00   1.59679680E-01  -6.82693406E-02  -8.34661501E-01  -1.84771007E+01  -7.48963339E+00  -1.72139448E+00  -2.92027129E+00  -1.39952223E+01   1.17104834E-01
   5.68750000E+02   5.00000000E-01   5.00000000E-01  -6.54961330E+00  -9.33077802E-01  -4.81908719E+00  -2.34175172E+00  -2.40345078E+00   9.83299239E-02  -3.86660153E+00   6.83938792E-01   1.87357658E+00   1.33163541E+00   1.99917859E+00  -1.70135801E+00  -1.10168953E+00  -1.05371013E+00  -9.18064551E-01  -2.21060984E+00  -3.37542434E-01  -7.49802122E+00   3.22516396E-01   2.42453597E-02  -2.26164466E+00  -4.26948367E-01   3.78362865E-01   1.92212397E-01   4.86008433E-01  -1.87502521E+00  -5.30522859E+00  -2.60611665E+01  -3.38709228E-01  -7.02738454E+00  -3.26003063E+00  -4.12600730E+01  -1.32362964E+01   1.04051362E+00  -1.01661294E+00   1.49281060E-01  -6.93524001E-02  -8.36972563E-01  -1.83855434E+01  -7.47133437E+00  -1.71734295E+00  -2.90322977E+00  -1.39375295E+01   1.17104831E-01
   5.86250000E+02   5.00000000E-01   5.00000000E-01  -6.50401594E+00  -9.07710310E-01  -4.79972881E+00  -2.32900514E+00  -2.38922477E+00   9.83299236E-02  -3.83747651E+00   6.99908398E-01   1.87277492E+00   1.34718724E+00   2.00478682E+00  -1.69380756E+00  -1.10863303E+00  -1.04657683E+00  -9.18688780E-01  -2.19193741E+00  -3.25531880E-01  -7.45739055E+00   3.13881217E-01   2.42548964E-02  -2.27436378E+00  -4.22348468E-01   3.67530148E-01   1.96525585E-01   4.81842882E-01  -1.88106162E+00  -5.25693722E+00  -2.59173428E+01  -3.17670757E-01  -6.99773496E+00  -3.25875420E+00  -4.08781595E+01  -1.30649233E+01   1.03757765E+00  -1.02508255E+00   1.38435927E-01  -7.04030095E-02  -8.39033382E-01  -1.82955146E+01  -7.45276998E+00  -1.71310795E+00  -2.88644593E+00  -1.38801604E+01   1.17104826E-01
   6.03750000E+02   5.00000000E-01   5.00000000E-01  -6.45862517E+00  -8.83093567E-01  -4.78047292E+00  -2.31613814E+00  -2.37489184E+00   9.83299233E-02  -3.80887051E+00   7.15941241E-01   1.87219173E+00   1.36279825E+00   2.01054642E+00  -1.68677639E+00  -1.11596249E+00  -1.03996682E+00  -9.19765553E-01  -2.17333519E+00  -3.13890214E-01  -7.41733472E+00   3.05185417E-01   2.42642099E-02  -2.28761326E+00  -4.18087901E-01   3.56499854E-01   2.00494166E-01   4.77410094E-01  -1.88747375E+00  -5.20833316E+00  -2.57746449E+01  -2.96630638E-01  -6.96843539E+00  -3.25779358E+00  -4.04999894E+01  -1.28954984E+01   1.03466329E+00  -1.03386449E+00   1.27155569E-01  -7.14203968E-02  -8.40851694E-01  -1.82069332E+01  -7.43394562E+00  -1.70869545E+00  -2.86990300E+00  -1.38231141E+01   1.17104820E-01
   6.21250000E+02   5.00000000E-01   5.00000000E-01  -6.41344210E+00  -8.59195005E-01  -4.76132115E+00  -2.30315619E+00  -2.36045728E+00   9.83299230E-02  -3.78076667E+00   7.32036723E-01   1.87182422E+00   1.37846781E+00   2.01645552E+00  -1.68024021E+00  -1.12365556E+00  -1.03385585E+00  -9.21271570E-01  -2.15480272E+00  -3.02599824E-01  -7.37783636E+00   2.96440047E-01   2.42734650E-02  -2.30136909E+00  -4.14147331E-01   3.45289289E-01   2.04137465E-01   4.72728347E-01  -1.89424337E+00  -5.15942014E+00  -2.56330507E+01  -2.75591775E-01  -6.93947128E+00  -3.25713102E+00  -4.01254993E+01  -1.27279825E+01   1.03177308E+00  -1.04295005E+00   1.15450347E-01  -7.24038305E-02  -8.42434833E-01  -1.81197258E+01  -7.41486470E+00  -1.70411109E+00  -2.85358546E+00  -1.37663893E+01   1.17104810E-01