 TITLE = "Mineral Saturation State" 
VARIABLES = "X"          "Y"              "Z"            "Forsterite"     "Enstatite(alph" "Anorthite"      "Tremolite"      "Pargasite"      "Anhydrite"      "Clinochlore"    "Albite(low)"    "Fayalite"       "Epidote"        "Kaolinite"      "Muscovite(orde" "Sudoite"        "Saponite(Mg)"   "Scolecite"      "FeS(am)"        "Quartz(alpha)"  "Montmorillonit"
 ZONE I=         100 , J=           1 , K=           1  F=POINT
   1.75000000E+01   5.00000000E-01   5.00000000E-01  -7.42595453E+00  -2.61985863E+00  -1.01384919E+01  -4.86112323E+00  -3.10877492E+01  -6.57041068E-01   4.48222805E-01  -5.39979641E-01  -4.07082120E+00  -5.46741882E-09  -3.60555868E+00  -1.49322477E+00  -4.37347612E+00   1.28012430E+00  -4.74164755E+00  -5.07109836E+00   9.02083455E-01  -1.27350228E+00
   5.25000000E+01   5.00000000E-01   5.00000000E-01  -7.51450236E+00  -2.60982097E+00  -9.53766013E+00  -4.57378755E+00  -3.03393004E+01  -4.51600293E-01   3.96357640E-01  -1.06241613E-01  -3.62017424E+00   5.41196613E-09  -3.05914187E+00  -7.99041274E-01  -3.70080973E+00   1.34645671E+00  -4.08336312E+00  -4.90110332E+00   1.02019804E+00  -6.06663270E-01
   8.75000000E+01   5.00000000E-01   5.00000000E-01  -7.48766601E+00  -2.58415246E+00  -9.28135150E+00  -4.35606079E+00  -2.98846460E+01  -3.12710219E-01   3.66171836E-01   1.17814597E-02  -3.31538111E+00   1.14923763E-09  -2.90840398E+00  -6.47034939E-01  -3.53428667E+00   1.38351132E+00  -3.85327150E+00  -4.80218659E+00   1.05406858E+00  -4.14097443E-01
   1.22500000E+02   5.00000000E-01   5.00000000E-01  -7.43810924E+00  -2.56010217E+00  -9.10963357E+00  -4.22892942E+00  -2.95260495E+01  -2.14040208E-01   3.53238669E-01   4.99872582E-02  -3.09038190E+00   4.41708261E-10  -2.83881317E+00  -6.03103063E-01  -3.45387076E+00   1.39877687E+00  -3.73327971E+00  -4.73909685E+00   1.06186292E+00  -3.37099673E-01
   1.57500000E+02   5.00000000E-01   5.00000000E-01  -7.38248536E+00  -2.53753835E+00  -8.97181097E+00  -4.15489261E+00  -2.92157595E+01  -1.42256179E-01   3.48130498E-01   6.25917000E-02  -2.91369324E+00   1.84558388E-10  -2.79273885E+00  -5.89226289E-01  -3.39481962E+00   1.40497973E+00  -3.65578046E+00  -4.69788051E+00   1.06050009E+00  -2.96829986E-01
   1.92500000E+02   5.00000000E-01   5.00000000E-01  -7.32515408E+00  -2.51577605E+00  -8.85246056E+00  -4.11234696E+00  -2.89359504E+01  -8.94308723E-02   3.46214765E-01   6.59340777E-02  -2.76875489E+00   5.13855384E-11  -2.75527155E+00  -5.85611062E-01  -3.34316399E+00   1.40766005E+00  -3.59962594E+00  -4.67121375E+00   1.05571182E+00  -2.70101205E-01
   2.27500000E+02   5.00000000E-01   5.00000000E-01  -7.26754830E+00  -2.49448873E+00  -8.74499047E+00  -4.08995986E+00  -2.86775767E+01  -5.03769846E-02   3.45585453E-01   6.56820379E-02  -2.64607616E+00  -3.34073888E-11  -2.72155871E+00  -5.85909634E-01  -3.29483366E+00   1.40896637E+00  -3.55614315E+00  -4.65478920E+00   1.04958619E+00  -2.48923193E-01
   2.62500000E+02   5.00000000E-01   5.00000000E-01  -7.21018930E+00  -2.47353989E+00  -8.64591124E+00  -4.08129170E+00  -2.84351753E+01  -2.14931792E-02   3.45486127E-01   6.39428214E-02  -2.53978335E+00  -9.59822115E-11  -2.68981590E+00  -5.87823917E-01  -3.24839891E+00   1.40973038E+00  -3.52105317E+00  -4.64588806E+00   1.04291955E+00  -2.30310657E-01
   2.97500000E+02   5.00000000E-01   5.00000000E-01  -7.15327474E+00  -2.45287173E+00  -8.55310010E+00  -4.08232034E+00  -2.82051038E+01  -1.86584735E-04   3.45616095E-01   6.15321328E-02  -2.44601985E+00  -1.47565244E-10  -2.65933475E+00  -5.90465111E-01  -3.20329551E+00   1.41027981E+00  -3.49192480E+00  -4.64270827E+00   1.03602711E+00  -2.13089166E-01
   3.32500000E+02   5.00000000E-01   5.00000000E-01  -7.09687934E+00  -2.43245785E+00  -8.46512898E+00  -4.09031148E+00  -2.79847615E+01   1.54733750E-02   3.45854171E-01   5.87747761E-02  -2.36213558E+00  -1.93525862E-10  -2.62981426E+00  -5.93474348E-01  -3.15927893E+00   1.41074659E+00  -3.46720715E+00  -4.64401042E+00   1.02903838E+00  -1.96775562E-01
   3.67500000E+02   5.00000000E-01   5.00000000E-01  -7.04102863E+00  -2.41228436E+00  -8.38098822E+00  -4.10332497E+00  -2.77722409E+01   2.69278698E-02   3.46150867E-01   5.58025287E-02  -2.28623537E+00  -2.36703045E-10  -2.60111713E+00  -5.96703267E-01  -3.11623366E+00   1.41118466E+00  -3.44584200E+00  -4.64891228E+00   1.02200855E+00  -1.81162417E-01
   4.02500000E+02   5.00000000E-01   5.00000000E-01  -6.98572759E+00  -2.39234250E+00  -8.29995226E+00  -4.11996748E+00  -2.75661399E+01   3.52367228E-02   3.46485825E-01   5.26695593E-02  -2.21691431E+00  -2.78948302E-10  -2.57317535E+00  -6.00090498E-01  -3.07409999E+00   1.41161600E+00  -3.42708590E+00  -4.65676512E+00   1.01496204E+00  -1.66156536E-01
   4.37500000E+02   5.00000000E-01   5.00000000E-01  -6.93097278E+00  -2.37262575E+00  -8.22148414E+00  -4.13921284E+00  -2.73654046E+01   4.11875016E-02   3.46850522E-01   4.93990316E-02  -2.15310192E+00  -3.21341680E-10  -2.54595066E+00  -6.03610487E-01  -3.03284262E+00   1.41204916E+00  -3.41039691E+00  -4.66707975E+00   1.00791024E+00  -1.51712536E-01
   4.72500000E+02   5.00000000E-01   5.00000000E-01  -6.87675738E+00  -2.35312867E+00  -8.14517788E+00  -4.16029258E+00  -2.71692303E+01   4.53693361E-02   3.47241175E-01   4.60021239E-02  -2.09396332E+00  -3.64481833E-10  -2.51941767E+00  -6.07252021E-01  -2.99243697E+00   1.41248674E+00  -3.39536962E+00  -4.67947909E+00   1.00085896E+00  -1.37805142E-01
   5.07500000E+02   5.00000000E-01   5.00000000E-01  -6.82307351E+00  -2.33384652E+00  -8.07072127E+00  -4.18262481E+00  -2.69769939E+01   4.82245773E-02   3.47655779E-01   4.24860005E-02  -2.03883439E+00  -4.08671174E-10  -2.49355635E+00  -6.11008715E-01  -2.95286267E+00   1.41292865E+00  -3.38169466E+00  -4.69366686E+00   9.93811620E-01  -1.24417122E-01
   5.42500000E+02   5.00000000E-01   5.00000000E-01  -6.76991336E+00  -2.31477501E+00  -7.99787040E+00  -4.20576568E+00  -2.67882074E+01   5.00859256E-02   3.48092841E-01   3.88572340E-02  -1.98717820E+00  -4.54113370E-10  -2.46834833E+00  -6.14874554E-01  -2.91410021E+00   1.41337335E+00  -3.36913187E+00  -4.70940640E+00   9.86770633E-01  -1.11533781E-01
   5.77500000E+02   5.00000000E-01   5.00000000E-01  -6.71726973E+00  -2.29591034E+00  -7.92643166E+00  -4.22937489E+00  -2.66024835E+01   5.12036640E-02   3.48550828E-01   3.51233060E-02  -1.93855480E+00  -5.00796076E-10  -2.44377498E+00  -6.18841661E-01  -2.87612905E+00   1.41381843E+00  -3.35749164E+00  -4.72650602E+00   9.79738112E-01  -9.91402914E-02
   6.12500000E+02   5.00000000E-01   5.00000000E-01  -6.66513637E+00  -2.27724913E+00  -7.85624862E+00  -4.25319066E+00  -2.64195111E+01   5.17659324E-02   3.49027936E-01   3.12932678E-02  -1.89259978E+00  -5.48713121E-10  -2.41981633E+00  -6.22899136E-01  -2.83892651E+00   1.41426083E+00  -3.34662141E+00  -4.74480860E+00   9.72716190E-01  -8.72203438E-02
   6.47500000E+02   5.00000000E-01   5.00000000E-01  -6.61350815E+00  -2.25878844E+00  -7.78719239E+00  -4.27701102E+00  -2.62390368E+01   5.19139764E-02   3.49521993E-01   2.73780143E-02  -1.84900874E+00  -5.97642325E-10  -2.39645051E+00  -6.27032445E-01  -2.80246703E+00   1.41469699E+00  -3.33639590E+00  -4.76418411E+00   9.65707182E-01  -7.57554441E-02
   6.82500000E+02   5.00000000E-01   5.00000000E-01  -6.56238109E+00  -2.24052579E+00  -7.71915436E+00  -4.30067983E+00  -2.60608509E+01   5.17536852E-02   3.50030439E-01   2.33903641E-02  -1.80752581E+00  -6.47305960E-10  -2.37365343E+00  -6.31223151E-01  -2.76672184E+00   1.41512287E+00  -3.32670976E+00  -4.78452406E+00   9.58713678E-01  -6.47245695E-02
   7.17500000E+02   5.00000000E-01   5.00000000E-01  -6.51175244E+00  -2.22245911E+00  -7.65204088E+00  -4.32407608E+00  -2.58847766E+01   5.13643474E-02   3.50550329E-01   1.93450290E-02  -1.76793488E+00  -6.97407786E-10  -2.35139859E+00  -6.35448876E-01  -2.73165880E+00   1.41553397E+00  -3.31747217E+00  -4.80573732E+00   9.51738580E-01  -5.41040481E-02
   7.52500000E+02   5.00000000E-01   5.00000000E-01  -6.46162062E+00  -2.20458673E+00  -7.58576922E+00  -4.34710579E+00  -2.57106625E+01   5.08052969E-02   3.51078373E-01   1.52585048E-02  -1.73005286E+00  -7.47506526E-10  -2.32965719E+00  -6.39683438E-01  -2.69724245E+00   1.41592547E+00  -3.30860288E+00  -4.82774695E+00   9.44785109E-01  -4.38676022E-02
   7.87500000E+02   5.00000000E-01   5.00000000E-01  -6.41198512E+00  -2.18690738E+00  -7.52026472E+00  -4.36969572E+00  -2.55383764E+01   5.01209462E-02   3.51610973E-01   1.11488977E-02  -1.69372439E+00  -7.97071414E-10  -2.30839821E+00  -6.43897163E-01  -2.66343424E+00   1.41629218E+00  -3.30002927E+00  -4.85048769E+00   9.37856796E-01  -3.39865294E-02
   8.22500000E+02   5.00000000E-01   5.00000000E-01  -6.36284637E+00  -2.16942009E+00  -7.45545865E+00  -4.39178851E+00  -2.53678006E+01   4.93445859E-02   3.52144288E-01   7.03568861E-03  -1.65881754E+00  -8.45519225E-10  -2.28758879E+00  -6.48057352E-01  -2.63019293E+00   1.41662874E+00  -3.29168434E+00  -4.87390399E+00   9.30957448E-01  -2.44300053E-02
   8.57500000E+02   5.00000000E-01   5.00000000E-01  -6.31420561E+00  -2.15212415E+00  -7.39128688E+00  -4.41333886E+00  -2.51988289E+01   4.85012381E-02   3.52674296E-01   2.93944055E-03  -1.62522029E+00  -8.92201931E-10  -2.26719457E+00  -6.52128895E-01  -2.59747519E+00   1.41692963E+00  -3.28350534E+00  -4.89794843E+00   9.24091104E-01  -1.51654986E-02
   8.92500000E+02   5.00000000E-01   5.00000000E-01  -6.26606463E+00  -2.13501905E+00  -7.32768892E+00  -4.43431052E+00  -2.50313641E+01   4.76097891E-02   3.53196860E-01  -1.11857356E-03  -1.59283760E+00  -9.36406702E-10  -2.24718025E+00  -6.56075078E-01  -2.56523633E+00   1.41718933E+00  -3.27543293E+00  -4.92258035E+00   9.17261970E-01  -6.15932920E-03
   9.27500000E+02   5.00000000E-01   5.00000000E-01  -6.21842552E+00  -2.11810435E+00  -7.26460759E+00  -4.45467374E+00  -2.48653160E+01   4.66845719E-02   3.53707784E-01  -5.11686486E-03  -1.56158888E+00  -9.77362074E-10  -2.22751041E+00  -6.59858688E-01  -2.53343144E+00   1.41740249E+00  -3.26741091E+00  -4.94776477E+00   9.10474337E-01   2.62256780E-03
   9.62500000E+02   5.00000000E-01   5.00000000E-01  -6.17129049E+00  -2.10137966E+00  -7.20198841E+00  -4.47440359E+00  -2.47006002E+01   4.57365358E-02   3.54202987E-01  -9.03391127E-03  -1.53140592E+00  -1.01425339E-09  -2.20814969E+00  -6.63442323E-01  -2.50201557E+00   1.41756399E+00  -3.25938569E+00  -4.97347146E+00   9.03732525E-01   1.12143759E-02
   9.97500000E+02   5.00000000E-01   5.00000000E-01  -6.12466158E+00  -2.08484451E+00  -7.13977979E+00  -4.49347815E+00  -2.45371373E+01   4.47741044E-02   3.54678516E-01  -1.28487237E-02  -1.50223102E+00  -1.04625671E-09  -2.18906373E+00  -6.66789732E-01  -2.47094517E+00   1.41766912E+00  -3.25130654E+00  -4.99967417E+00   8.97040793E-01   1.96494886E-02
   1.03250000E+03   5.00000000E-01   5.00000000E-01  -6.07854035E+00  -2.06849827E+00  -7.07793320E+00  -4.51187712E+00  -2.43748520E+01   4.38038034E-02   3.55130632E-01  -1.65413280E-02  -1.47401526E+00  -1.07254197E-09  -2.17021999E+00  -6.69866888E-01  -2.44017911E+00   1.41771376E+00  -3.24312587E+00  -5.02634982E+00   8.90403244E-01   2.79597421E-02
   1.06750000E+03   5.00000000E-01   5.00000000E-01  -6.03292761E+00  -2.05234001E+00  -7.01640342E+00  -4.52958060E+00  -2.42136729E+01   4.28307183E-02   3.55555892E-01  -2.00932337E-02  -1.44671711E+00  -1.09227905E-09  -2.15158845E+00  -6.72643017E-01  -2.40967972E+00   1.41769450E+00  -3.23479960E+00  -5.05347796E+00   8.83823727E-01   3.61746632E-02
   1.10250000E+03   5.00000000E-01   5.00000000E-01  -5.98782311E+00  -2.03636849E+00  -6.95514881E+00  -4.54656818E+00  -2.40535320E+01   4.18588276E-02   3.55951223E-01  -2.34878770E-02  -1.42030106E+00  -1.10470576E-09  -2.13314232E+00  -6.75091581E-01  -2.37941379E+00   1.41760878E+00  -3.22628746E+00  -5.08104014E+00   8.77305751E-01   4.43207538E-02
   1.13750000E+03   5.00000000E-01   5.00000000E-01  -5.94322540E+00  -2.02058202E+00  -6.89413159E+00  -4.56281802E+00  -2.38943646E+01   4.08912462E-02   3.56313982E-01  -2.67110169E-02  -1.39473646E+00  -1.10910926E-09  -2.11485871E+00  -6.77191149E-01  -2.34935345E+00   1.41745496E+00  -3.21755344E+00  -5.10901948E+00   8.70852393E-01   5.24208452E-02
   1.17250000E+03   5.00000000E-01   5.00000000E-01  -5.89913152E+00  -2.00497841E+00  -6.83331808E+00  -4.57830626E+00  -2.37361092E+01   3.99304045E-02   3.56642010E-01  -2.97510661E-02  -1.36999653E+00  -1.10486622E-09  -2.09671913E+00  -6.78926120E-01  -2.31947687E+00   1.41723244E+00  -3.20856603E+00  -5.13740015E+00   8.64466231E-01   6.04935531E-02
   1.20750000E+03   5.00000000E-01   5.00000000E-01  -5.85553696E+00  -1.98955497E+00  -6.77267885E+00  -4.59300649E+00  -2.35787070E+01   3.89781809E-02   3.56933676E-01  -3.25993393E-02  -1.34605747E+00  -1.09139650E-09  -2.07870990E+00  -6.80287260E-01  -2.28976882E+00   1.41694170E+00  -3.19929847E+00  -5.16616706E+00   8.58149279E-01   6.85528612E-02
   1.24250000E+03   5.00000000E-01   5.00000000E-01  -5.81243551E+00  -1.97430845E+00  -6.71218876E+00  -4.60688936E+00  -2.34221018E+01   3.80360020E-02   3.57187896E-01  -3.52502061E-02  -1.32289763E+00  -1.06830201E-09  -2.06082241E+00  -6.81272020E-01  -2.26022101E+00   1.41658430E+00  -3.18972883E+00  -5.19530551E+00   8.51902947E-01   7.66078544E-02
   1.27750000E+03   5.00000000E-01   5.00000000E-01  -5.76981923E+00  -1.95923503E+00  -6.65182692E+00  -4.61992242E+00  -2.32662399E+01   3.71049189E-02   3.57404152E-01  -3.77011381E-02  -1.30049688E+00  -1.03526801E-09  -2.04305314E+00  -6.81884623E-01  -2.23083214E+00   1.41616283E+00  -3.17983999E+00  -5.22480089E+00   8.45728017E-01   8.46626179E-02
   1.31250000E+03   5.00000000E-01   5.00000000E-01  -5.72767855E+00  -1.94433039E+00  -6.59157649E+00  -4.63207009E+00  -2.31110698E+01   3.61856674E-02   3.57582482E-01  -3.99526484E-02  -1.27883609E+00  -9.92137114E-10  -2.02540364E+00  -6.82135899E-01  -2.20160777E+00   1.41568091E+00  -3.16961943E+00  -5.25463853E+00   8.39624636E-01   9.27163072E-02
   1.34750000E+03   5.00000000E-01   5.00000000E-01  -5.68600230E+00  -1.92958969E+00  -6.53142437E+00  -4.64329370E+00  -2.29565418E+01   3.52787165E-02   3.57723464E-01  -4.20081264E-02  -1.25789664E+00  -9.38884638E-10  -2.00788021E+00  -6.82042897E-01  -2.17255992E+00   1.41514304E+00  -3.15905896E+00  -5.28480344E+00   8.33592336E-01   1.00763383E-01
   1.38250000E+03   5.00000000E-01   5.00000000E-01  -5.64477790E+00  -1.91500770E+00  -6.47136080E+00  -4.65355178E+00  -2.28026077E+01   3.43843083E-02   3.57828177E-01  -4.38735744E-02  -1.23766009E+00  -8.75618585E-10  -1.99049348E+00  -6.81628278E-01  -2.14370646E+00   1.41455452E+00  -3.14815420E+00  -5.31528028E+00   8.27630069E-01   1.08793999E-01
   1.41750000E+03   5.00000000E-01   5.00000000E-01  -5.60399158E+00  -1.90057881E+00  -6.41137888E+00  -4.66280036E+00  -2.26492206E+01   3.35024916E-02   3.57898159E-01  -4.55572631E-02  -1.21810787E+00  -8.02610511E-10  -1.97325789E+00  -6.80919537E-01  -2.11507031E+00   1.41392127E+00  -3.13690412E+00  -5.34605322E+00   8.21736255E-01   1.16794526E-01
   1.45250000E+03   5.00000000E-01   5.00000000E-01  -5.56362857E+00  -1.88629716E+00  -6.35147396E+00  -4.67099337E+00  -2.24963344E+01   3.26331509E-02   3.57935342E-01  -4.70693226E-02  -1.19922113E+00  -7.20304777E-10  -1.95619101E+00  -6.79948079E-01  -2.08667857E+00   1.41324965E+00  -3.12531033E+00  -5.37710593E+00   8.15908853E-01   1.24748165E-01
   1.48750000E+03   5.00000000E-01   5.00000000E-01  -5.52367342E+00  -1.87215671E+00  -6.29164308E+00  -4.67808314E+00  -2.23439037E+01   3.17760327E-02   3.57941986E-01  -4.84212907E-02  -1.18098053E+00  -6.29222892E-10  -1.93931288E+00  -6.78748223E-01  -2.05856149E+00   1.41254637E+00  -3.11337647E+00  -5.40842155E+00   8.10145434E-01   1.32635643E-01
   1.52250000E+03   5.00000000E-01   5.00000000E-01  -5.48411021E+00  -1.85815135E+00  -6.23188436E+00  -4.68402087E+00  -2.21918829E+01   3.09307687E-02   3.57920604E-01  -4.96256422E-02  -1.16336614E+00  -5.30077686E-10  -1.92264522E+00  -6.77356161E-01  -2.03075143E+00   1.41181824E+00  -3.10110747E+00  -5.43998270E+00   8.04443266E-01   1.40435925E-01
   1.55750000E+03   5.00000000E-01   5.00000000E-01  -5.44492286E+00  -1.84427497E+00  -6.17219641E+00  -4.68875714E+00  -2.20402267E+01   3.00968972E-02   3.57873882E-01  -5.06953198E-02  -1.14635730E+00  -4.23717768E-10  -1.90621072E+00  -6.75808948E-01  -2.00328188E+00   1.41107203E+00  -3.08850894E+00  -5.47177148E+00   7.98799395E-01   1.48126933E-01
   1.59250000E+03   5.00000000E-01   5.00000000E-01  -5.40609537E+00  -1.83052159E+00  -6.11257778E+00  -4.69224235E+00  -2.18888893E+01   2.92738837E-02   3.57804601E-01  -5.16432866E-02  -1.12993260E+00  -3.11087408E-10  -1.89003240E+00  -6.74143540E-01  -1.97618653E+00   1.41031436E+00  -3.07558651E+00  -5.50376952E+00   7.93210731E-01   1.55686220E-01
   1.62750000E+03   5.00000000E-01   5.00000000E-01  -5.36761204E+00  -1.81688537E+00  -6.05302654E+00  -4.69442718E+00  -2.17378242E+01   2.84611398E-02   3.57715557E-01  -5.24821190E-02  -1.11406967E+00  -1.93291338E-10  -1.87413295E+00  -6.72395941E-01  -1.94949842E+00   1.40955154E+00  -3.06234530E+00  -5.53595795E+00   7.87674123E-01   1.63091590E-01
   1.66250000E+03   5.00000000E-01   5.00000000E-01  -5.32945765E+00  -1.80336071E+00  -5.99353984E+00  -4.69526292E+00  -2.15869845E+01   2.76580419E-02   3.57609496E-01  -5.32236510E-02  -1.09874517E+00  -7.14898371E-11  -1.85853426E+00  -6.70600475E-01  -1.92324921E+00   1.40878948E+00  -3.04878947E+00  -5.56831743E+00   7.82186430E-01   1.70321626E-01
   1.69750000E+03   5.00000000E-01   5.00000000E-01  -5.29161763E+00  -1.78994229E+00  -5.93411364E+00  -4.69470178E+00  -2.14363220E+01   2.68639496E-02   3.57489042E-01  -5.38786770E-02  -1.08393456E+00   5.29747500E-11  -1.84325695E+00  -6.68789200E-01  -1.89746872E+00   1.40803362E+00  -3.03492187E+00  -5.60082813E+00   7.76744580E-01   1.77356124E-01
   1.73250000E+03   5.00000000E-01   5.00000000E-01  -5.25407817E+00  -1.77662510E+00  -5.87474251E+00  -4.69269715E+00  -2.12857882E+01   2.60782236E-02   3.57356644E-01  -5.44567183E-02  -1.06961201E+00   1.78775509E-10  -1.82832012E+00  -6.66991465E-01  -1.87218445E+00   1.40728888E+00  -3.02074376E+00  -5.63346969E+00   7.71345620E-01   1.84176428E-01
   1.76750000E+03   5.00000000E-01   5.00000000E-01  -5.21682628E+00  -1.76340446E+00  -5.81541953E+00  -4.68920368E+00  -2.11353331E+01   2.53002434E-02   3.57214531E-01  -5.49658522E-02  -1.05575014E+00   3.04403461E-10  -1.81374113E+00  -6.65233626E-01  -1.84742134E+00   1.40655963E+00  -3.00625470E+00  -5.66622115E+00   7.65986753E-01   1.90765660E-01
   1.80250000E+03   5.00000000E-01   5.00000000E-01  -5.17984983E+00  -1.75027603E+00  -5.75613621E+00  -4.68417746E+00  -2.09849061E+01   2.45294253E-02   3.57064673E-01  -5.54125978E-02  -1.04231985E+00   4.28402085E-10  -1.79953546E+00  -6.63538875E-01  -1.82320172E+00   1.40584971E+00  -2.99145247E+00  -5.69906091E+00   7.60665361E-01   1.97108859E-01
   1.83750000E+03   5.00000000E-01   5.00000000E-01  -5.14313757E+00  -1.73723577E+00  -5.69688256E+00  -4.67757602E+00  -2.08344557E+01   2.37652395E-02   3.56908751E-01  -5.58018580E-02  -1.02929006E+00   5.49265488E-10  -1.78571679E+00  -6.61927212E-01  -1.79954526E+00   1.40516242E+00  -2.97633309E+00  -5.73196660E+00   7.55379022E-01   2.03193019E-01
   1.87250000E+03   5.00000000E-01   5.00000000E-01  -5.10667909E+00  -1.72428000E+00  -5.63764720E+00  -4.66935827E+00  -2.06839298E+01   2.30072278E-02   3.56748147E-01  -5.61369032E-02  -1.01662742E+00   6.65463089E-10  -1.77229695E+00  -6.60415506E-01  -1.77646913E+00   1.40450056E+00  -2.96089092E+00  -5.76491497E+00   7.50125516E-01   2.09007069E-01
   1.90750000E+03   5.00000000E-01   5.00000000E-01  -5.07046477E+00  -1.71140528E+00  -5.57841746E+00  -4.65948450E+00  -2.05332752E+01   2.22550199E-02   3.56583925E-01  -5.64193909E-02  -1.00429603E+00   7.75513681E-10  -1.75928615E+00  -6.59017637E-01  -1.75398818E+00   1.40386647E+00  -2.94511882E+00  -5.79788177E+00   7.44902818E-01   2.14541779E-01
   1.94250000E+03   5.00000000E-01   5.00000000E-01  -5.03448572E+00  -1.69860849E+00  -5.51917958E+00  -4.64791622E+00  -2.03824383E+01   2.15083496E-02   3.56416834E-01  -5.66494125E-02  -9.92257104E-01   8.78022460E-10  -1.74669311E+00  -6.57744699E-01  -1.73211523E+00   1.40326211E+00  -2.92900828E+00  -5.83084155E+00   7.39709089E-01   2.19789620E-01
   1.97750000E+03   5.00000000E-01   5.00000000E-01  -4.99873370E+00  -1.68588669E+00  -5.45991889E+00  -4.63461601E+00  -2.02313650E+01   2.07670688E-02   3.56247308E-01  -5.68255584E-02  -9.80468644E-01   9.71690286E-10  -1.73452524E+00  -6.56605253E-01  -1.71086139E+00   1.40268905E+00  -2.91254968E+00  -5.86376754E+00   7.34542659E-01   2.24744589E-01
   2.01250000E+03   5.00000000E-01   5.00000000E-01  -4.96320105E+00  -1.67323718E+00  -5.40061996E+00  -4.61954731E+00  -2.00800002E+01   2.00311609E-02   3.56075471E-01  -5.69449930E-02  -9.68885064E-01   1.05531985E-09  -1.72278898E+00  -6.55605598E-01  -1.69023640E+00   1.40214860E+00  -2.89573245E+00  -5.89663142E+00   7.29402006E-01   2.29402006E-01
   2.04750000E+03   5.00000000E-01   5.00000000E-01  -4.92788054E+00  -1.66065741E+00  -5.34126680E+00  -4.60267415E+00  -1.99282886E+01   1.93007502E-02   3.55901149E-01  -5.70035315E-02  -9.57456801E-01   1.12790825E-09  -1.71148994E+00  -6.54750056E-01  -1.67024899E+00   1.40164181E+00  -2.87854529E+00  -5.92940313E+00   7.24285728E-01   2.33758292E-01
   2.08250000E+03   5.00000000E-01   5.00000000E-01  -4.89276535E+00  -1.64814496E+00  -5.28184299E+00  -4.58396080E+00  -1.97761737E+01   1.85761101E-02   3.55723877E-01  -5.69957148E-02  -9.46129888E-01   1.18866859E-09  -1.70063325E+00  -6.54041261E-01  -1.65090732E+00   1.40116955E+00  -2.86097632E+00  -5.96205063E+00   7.19192518E-01   2.37810746E-01
   2.11750000E+03   5.00000000E-01   5.00000000E-01  -4.85784891E+00  -1.63569751E+00  -5.22233177E+00  -4.56337138E+00  -1.96235982E+01   1.78576662E-02   3.55542909E-01  -5.69148757E-02  -9.34845503E-01   1.23696828E-09  -1.69022381E+00  -6.53480445E-01  -1.63221930E+00   1.40073257E+00  -2.84301322E+00  -5.99453967E+00   7.14121133E-01   2.41557311E-01
   2.15250000E+03   5.00000000E-01   5.00000000E-01  -4.82312484E+00  -1.62331282E+00  -5.16271613E+00  -4.54086931E+00  -1.94705033E+01   1.71459960E-02   3.55357228E-01  -5.67531917E-02  -9.23539454E-01   1.27244936E-09  -1.68026654E+00  -6.53067701E-01  -1.61419305E+00   1.40033153E+00  -2.82464330E+00  -6.02683351E+00   7.09070365E-01   2.44996342E-01
   2.18750000E+03   5.00000000E-01   5.00000000E-01  -4.78858684E+00  -1.61098866E+00  -5.10297872E+00  -4.51641671E+00  -1.93168283E+01   1.64418239E-02   3.55165551E-01  -5.65017208E-02  -9.12141620E-01   1.29496988E-09  -1.67076671E+00  -6.52802244E-01  -1.59683727E+00   1.39996706E+00  -2.80585355E+00  -6.05889259E+00   7.04039006E-01   2.48126376E-01
   2.22250000E+03   5.00000000E-01   5.00000000E-01  -4.75422857E+00  -1.59872282E+00  -5.04310186E+00  -4.48997356E+00  -1.91625101E+01   1.57460108E-02   3.54966331E-01  -5.61504171E-02  -9.00575318E-01   1.30467178E-09  -1.66173017E+00  -6.52682636E-01  -1.58016164E+00   1.39963980E+00  -2.78663057E+00  -6.09067424E+00   6.99025817E-01   2.50945912E-01
   2.25750000E+03   5.00000000E-01   5.00000000E-01  -4.72004361E+00  -1.58651304E+00  -4.98306732E+00  -4.46149680E+00  -1.90074821E+01   1.50595394E-02   3.54757754E-01  -5.56881220E-02  -8.88756566E-01   1.30187292E-09  -1.65316367E+00  -6.52707007E-01  -1.56417726E+00   1.39935044E+00  -2.76696045E+00  -6.12213223E+00   6.94029493E-01   2.53453183E-01
   2.29250000E+03   5.00000000E-01   5.00000000E-01  -4.68602529E+00  -1.57435702E+00  -4.92285607E+00  -4.43093915E+00  -1.88516734E+01   1.43834942E-02   3.54537731E-01  -5.51025290E-02  -8.76593239E-01   1.28716268E-09  -1.64507514E+00  -6.52873250E-01  -1.54889706E+00   1.39909978E+00  -2.74682853E+00  -6.15321638E+00   6.89048632E-01   2.55645938E-01
   2.32750000E+03   5.00000000E-01   5.00000000E-01  -4.65216667E+00  -1.56225235E+00  -4.86244797E+00  -4.39824771E+00  -1.86950070E+01   1.37190371E-02   3.54303883E-01  -5.43801164E-02  -8.63984076E-01   1.26133259E-09  -1.63747405E+00  -6.53179200E-01  -1.53433629E+00   1.39888872E+00  -2.72621911E+00  -6.18387198E+00   6.84081692E-01   2.57521213E-01
   2.36250000E+03   5.00000000E-01   5.00000000E-01  -4.61846036E+00  -1.55019651E+00  -4.80182121E+00  -4.36336230E+00  -1.85373987E+01   1.30673804E-02   3.54053515E-01  -5.35060443E-02  -8.50817494E-01   1.22530069E-09  -1.63037169E+00  -6.53622794E-01  -1.52051301E+00   1.39871835E+00  -2.70511500E+00  -6.21403922E+00   6.79126959E-01   2.59075106E-01
   2.39750000E+03   5.00000000E-01   5.00000000E-01  -4.58489845E+00  -1.53818679E+00  -4.74095179E+00  -4.32621346E+00  -1.83787549E+01   1.24297563E-02   3.53783581E-01  -5.24640101E-02  -8.36970169E-01   1.18017171E-09  -1.62378159E+00  -6.54202224E-01  -1.50744863E+00   1.39858996E+00  -2.68349698E+00  -6.24365246E+00   6.74182502E-01   2.60302529E-01
   2.43250000E+03   5.00000000E-01   5.00000000E-01  -4.55147238E+00  -1.52622030E+00  -4.67981274E+00  -4.28672005E+00  -1.82189701E+01   1.18073857E-02   3.53490636E-01  -5.12360532E-02  -8.22305327E-01   1.12713524E-09  -1.61771991E+00  -6.54916074E-01  -1.49516857E+00   1.39850512E+00  -2.66134306E+00  -6.27263930E+00   6.69246126E-01   2.61196949E-01
   2.46750000E+03   5.00000000E-01   5.00000000E-01  -4.51817278E+00  -1.51429391E+00  -4.61837322E+00  -4.24478640E+00  -1.80579239E+01   1.12014474E-02   3.53170775E-01  -4.98023005E-02  -8.06670646E-01   1.06745032E-09  -1.61220599E+00  -6.55763452E-01  -1.48370298E+00   1.39846565E+00  -2.63862768E+00  -6.30091957E+00   6.64315322E-01   2.61750095E-01
   2.50250000E+03   5.00000000E-01   5.00000000E-01  -4.48498934E+00  -1.50240417E+00  -4.55659741E+00  -4.20029889E+00  -1.78954781E+01   1.06130486E-02   3.52819541E-01  -4.81406376E-02  -7.89895694E-01   1.00242996E-09  -1.60726282E+00  -6.56744113E-01  -1.47308764E+00   1.39847375E+00  -2.61532061E+00  -6.32840402E+00   6.59387206E-01   2.61951634E-01
   2.53750000E+03   5.00000000E-01   5.00000000E-01  -4.45191060E+00  -1.49054730E+00  -4.49444315E+00  -4.15312183E+00  -1.77314717E+01   1.00431982E-02   3.52431823E-01  -4.62262862E-02  -7.71788750E-01   9.33348627E-10  -1.60291783E+00  -6.57858575E-01  -1.46336491E+00   1.39853202E+00  -2.59138572E+00  -6.35499270E+00   6.54458450E-01   2.61788795E-01
   2.57250000E+03   5.00000000E-01   5.00000000E-01  -4.41892372E+00  -1.47871908E+00  -4.43186031E+00  -4.10309242E+00  -1.75657161E+01   9.49278479E-03   3.52001704E-01  -4.40312631E-02  -7.52132847E-01   8.61490031E-10  -1.59920363E+00  -6.59108235E-01  -1.45458508E+00   1.39864354E+00  -2.56677937E+00  -6.38057301E+00   6.49525197E-01   2.61245916E-01
   2.60750000E+03   5.00000000E-01   5.00000000E-01  -4.38601426E+00  -1.46691479E+00  -4.36878876E+00  -4.05001458E+00  -1.73979889E+01   8.96255845E-03   3.51522274E-01  -4.15236828E-02  -7.30680792E-01   7.88042223E-10  -1.59615904E+00  -6.60495473E-01  -1.44680784E+00   1.39881189E+00  -2.54144855E+00  -6.40501719E+00   6.44582962E-01   2.60303922E-01
   2.64250000E+03   5.00000000E-01   5.00000000E-01  -4.35316581E+00  -1.45512911E+00  -4.30515585E+00  -3.99365138E+00  -1.72280254E+01   8.45311869E-03   3.50985378E-01  -3.86668537E-02  -7.07148869E-01   7.14151596E-10  -1.59383033E+00  -6.62023739E-01  -1.44010422E+00   1.39904133E+00  -2.51532840E+00  -6.42817921E+00   6.39626503E-01   2.58939675E-01
   2.67750000E+03   5.00000000E-01   5.00000000E-01  -4.32035960E+00  -1.44335600E+00  -4.24087322E+00  -3.93371530E+00  -1.70555091E+01   7.96490746E-03   3.50381283E-01  -3.54180953E-02  -6.81208776E-01   6.40850366E-10  -1.59227278E+00  -6.63697613E-01  -1.43455901E+00   1.39933677E+00  -2.48833926E+00  -6.44989076E+00   6.34649669E-01   2.57125185E-01
   2.71250000E+03   5.00000000E-01   5.00000000E-01  -4.28757405E+00  -1.43158854E+00  -4.17583265E+00  -3.86985605E+00  -1.68800584E+01   7.49820770E-03   3.49698220E-01  -3.17271701E-02  -6.52477209E-01   5.69065831E-10  -1.59155265E+00  -6.65522804E-01  -1.43027376E+00   1.39970396E+00  -2.46038266E+00  -6.46995612E+00   6.29645197E-01   2.54826636E-01
   2.74750000E+03   5.00000000E-01   5.00000000E-01  -4.25478412E+00  -1.41981877E+00  -4.10990070E+00  -3.80164464E+00  -1.67012098E+01   7.05314679E-03   3.48921768E-01  -2.75341769E-02  -6.20502260E-01   4.99621911E-10  -1.59174964E+00  -6.67506035E-01  -1.42737070E+00   1.40014952E+00  -2.43133627E+00  -6.48814543E+00   6.24604463E-01   2.52003173E-01
   2.78250000E+03   5.00000000E-01   5.00000000E-01  -4.22196063E+00  -1.40803751E+00  -4.04291146E+00  -3.72855243E+00  -1.65183958E+01   6.62970426E-03   3.48033986E-01  -2.27666676E-02  -5.84745438E-01   4.33246866E-10  -1.59296014E+00  -6.69654702E-01  -1.42599777E+00   1.40068101E+00  -2.40104692E+00  -6.50418591E+00   6.19517147E-01   2.48605396E-01
   2.81750000E+03   5.00000000E-01   5.00000000E-01  -4.18906928E+00  -1.39623408E+00  -3.97465663E+00  -3.64992329E+00  -1.63309141E+01   6.22772316E-03   3.47012184E-01  -1.73356311E-02  -5.44557604E-01   3.70523923E-10  -1.59530136E+00  -6.71976113E-01  -1.42633508E+00   1.40130688E+00  -2.36932117E+00  -6.51775003E+00   6.14370790E-01   2.44573497E-01
   2.85250000E+03   5.00000000E-01   5.00000000E-01  -4.15606965E+00  -1.38439609E+00  -3.90487161E+00  -3.56493563E+00  -1.61378866E+01   5.84692413E-03   3.45827134E-01  -1.11297721E-02  -4.99146323E-01   3.11997733E-10  -1.59891663E+00  -6.74475912E-01  -1.42860335E+00   1.40203621E+00  -2.33591198E+00  -6.52843959E+00   6.09150213E-01   2.39834980E-01