 TITLE = "Mineral Saturation State" 
VARIABLES = "X"          "Y"              "Z"            "Forsterite"     "Enstatite(alph" "Anorthite"      "Ferropargasite" "Anhydrite"      "Clinochlore"    "Albite(low)"    "Fayalite"       "Epidote"        "Kaolinite"      "Muscovite(orde" "Sudoite"        "Saponite(Mg)"   "Scolecite"      "Pyrite"         "Quartz(alpha)" 
 ZONE I=         100 , J=           1 , K=           1  F=POINT
   1.75000000E+01   5.00000000E-01   5.00000000E-01  -7.99004785E+00  -3.09565761E+00  -8.78609345E+00  -2.20882250E+01  -9.86291615E-01   1.30359824E+00  -5.17197760E-01  -4.48137341E+00   9.23581918E-10  -1.92120693E+00   9.88084313E-01  -7.93856632E-01   5.56240468E-05  -3.77675379E+00  -2.49684431E+02   5.14578803E-01
   5.25000000E+01   5.00000000E-01   5.00000000E-01  -8.04032018E+00  -3.08321434E+00  -8.68986867E+00  -2.10174512E+01  -9.72364745E-01   9.92100120E-01  -3.35884631E-01  -3.99123107E+00  -1.95113839E-09  -1.78030821E+00   1.09049352E+00  -8.27022398E-01   5.60997187E-05  -3.65654057E+00  -2.47272158E+02   5.99229114E-01
   8.75000000E+01   5.00000000E-01   5.00000000E-01  -8.03000677E+00  -3.06381598E+00  -8.63481375E+00  -2.03953627E+01  -9.57783768E-01   8.10153042E-01  -2.68287019E-01  -3.69837253E+00  -2.33793091E-09  -1.73405030E+00   1.07903046E+00  -8.93947484E-01   7.01176662E-05  -3.62372004E+00  -2.45067958E+02   6.37082290E-01
   1.22500000E+02   5.00000000E-01   5.00000000E-01  -7.99762817E+00  -3.04319557E+00  -8.57060641E+00  -1.99235297E+01  -9.42579865E-01   7.03888710E-01  -2.35140611E-01  -3.48847444E+00  -2.38798336E-09  -1.69936759E+00   1.06189602E+00  -9.21162807E-01   7.63629620E-05  -3.60092042E+00  -2.42962251E+02   6.55195053E-01
   1.57500000E+02   5.00000000E-01   5.00000000E-01  -7.95466406E+00  -3.02233537E+00  -8.49761925E+00  -1.95307124E+01  -9.26785568E-01   6.40389783E-01  -2.17607661E-01  -3.32515025E+00  -2.37663978E-09  -1.66615582E+00   1.04897266E+00  -9.19001578E-01   8.00003576E-05  -3.57900408E+00  -2.40920211E+02   6.63084756E-01
   1.92500000E+02   5.00000000E-01   5.00000000E-01  -7.90599774E+00  -3.00153271E+00  -8.41850801E+00  -1.91883627E+01  -9.10433528E-01   6.02884338E-01  -2.08445124E-01  -3.19198555E+00  -2.35751370E-09  -1.63249732E+00   1.04081555E+00  -8.97119866E-01   8.26044981E-05  -3.55634305E+00  -2.38926203E+02   6.65042164E-01
   2.27500000E+02   5.00000000E-01   5.00000000E-01  -7.85407724E+00  -2.98089511E+00  -8.33542286E+00  -1.88820172E+01  -8.93556063E-01   5.82036937E-01  -2.04268289E-01  -3.08008041E+00  -2.35012001E-09  -1.59821058E+00   1.03649862E+00  -8.62098725E-01   8.47513935E-05  -3.53285936E+00  -2.36971815E+02   6.63302375E-01
   2.62500000E+02   5.00000000E-01   5.00000000E-01  -7.80025990E+00  -2.96046423E+00  -8.24988028E+00  -1.86031797E+01  -8.76184886E-01   5.72289538E-01  -2.03293299E-01  -2.98402576E+00  -2.36042057E-09  -1.56350311E+00   1.03502563E+00  -8.18287781E-01   8.66861154E-05  -3.50880029E+00  -2.35051959E+02   6.59141468E-01
   2.97500000E+02   5.00000000E-01   5.00000000E-01  -7.74535059E+00  -2.94025564E+00  -8.16292092E+00  -1.83463238E+01  -8.58350906E-01   5.70167471E-01  -2.04498855E-01  -2.90026677E+00  -2.38858201E-09  -1.52863173E+00   1.03559066E+00  -7.68581352E-01   8.85248029E-05  -3.48443760E+00  -2.33163282E+02   6.53335131E-01
   3.32500000E+02   5.00000000E-01   5.00000000E-01  -7.68984975E+00  -2.92027378E+00  -8.07525740E+00  -1.81075845E+01  -8.40084079E-01   5.73417083E-01  -2.07263517E-01  -2.82633070E+00  -2.43261706E-09  -1.49381751E+00   1.03758896E+00  -7.14932941E-01   9.03263881E-05  -3.45999703E+00  -2.31303426E+02   6.46376927E-01
   3.67500000E+02   5.00000000E-01   5.00000000E-01  -7.63407959E+00  -2.90051797E+00  -7.98738044E+00  -1.78841145E+01  -8.21413298E-01   5.80532780E-01  -2.11190820E-01  -2.76042222E+00  -2.48975462E-09  -1.45923219E+00   1.04057726E+00  -6.58682233E-01   9.21213850E-05  -3.43565047E+00  -2.29470640E+02   6.38592300E-01
   4.02500000E+02   5.00000000E-01   5.00000000E-01  -7.57825337E+00  -2.88098519E+00  -7.89963093E+00  -1.76737355E+01  -8.02366310E-01   5.90482444E-01  -2.16017560E-01  -2.70119405E+00  -2.55725446E-09  -1.42500368E+00   1.04423209E+00  -6.00763231E-01   9.39246368E-05  -3.41152417E+00  -2.27663565E+02   6.30202438E-01
   4.37500000E+02   5.00000000E-01   5.00000000E-01  -7.52251569E+00  -2.86167132E+00  -7.81224814E+00  -1.74747354E+01  -7.82969665E-01   6.02540798E-01  -2.21562459E-01  -2.64760861E+00  -2.63285156E-09  -1.39122545E+00   1.04831623E+00  -5.41838653E-01   9.57414284E-05  -3.38770915E+00  -2.25881105E+02   6.21362003E-01
   4.72500000E+02   5.00000000E-01   5.00000000E-01  -7.46696701E+00  -2.84257178E+00  -7.72540197E+00  -1.72857419E+01  -7.63248675E-01   6.16184781E-01  -2.27695812E-01  -2.59885044E+00  -2.71471293E-09  -1.35796485E+00   1.05265408E+00  -4.82387807E-01   9.75706480E-05  -3.36427029E+00  -2.24122347E+02   6.12182375E-01
   5.07500000E+02   5.00000000E-01   5.00000000E-01  -7.41167911E+00  -2.82368191E+00  -7.63921455E+00  -1.71056397E+01  -7.43227354E-01   6.31026079E-01  -2.34320753E-01  -2.55426830E+00  -2.80148697E-09  -1.32526980E+00   1.05711416E+00  -4.22764823E-01   9.94065476E-05  -3.34125310E+00  -2.22386511E+02   6.02746445E-01
   5.42500000E+02   5.00000000E-01   5.00000000E-01  -7.36231338E+00  -2.80538936E+00  -7.18629091E+00  -1.63036022E+01  -1.94906296E-01   6.28549534E-01  -2.35748256E-01  -2.56473936E+00   2.96639530E-08  -1.29013459E+00   1.06065477E+00  -3.72415406E-01   9.79101427E-05  -2.94638105E+00  -2.20387843E+02   5.97941962E-01
   5.77500000E+02   5.00000000E-01   5.00000000E-01  -7.30933142E+00  -2.78698497E+00  -7.00515276E+00  -1.59887793E+01  -2.29089175E-02   6.38840051E-01  -2.42116848E-01  -2.54825631E+00   2.31191104E-09  -1.25846286E+00   1.06330617E+00  -3.17391394E-01   1.01780003E-04  -2.82630031E+00  -2.18603100E+02   5.89650550E-01
   6.12500000E+02   5.00000000E-01   5.00000000E-01  -7.25424526E+00  -2.76864680E+00  -6.91966607E+00  -1.58276796E+01  -3.23137694E-04   6.58713971E-01  -2.51038397E-01  -2.51363689E+00  -3.18126227E-10  -1.22788775E+00   1.06757419E+00  -2.56805343E-01   1.05108027E-04  -2.80372532E+00  -2.16932394E+02   5.79029737E-01
   6.47500000E+02   5.00000000E-01   5.00000000E-01  -7.19946146E+00  -2.75051392E+00  -6.84676730E+00  -1.56905846E+01   3.39299042E-03   6.79734954E-01  -2.60079903E-01  -2.47883041E+00  -6.48885914E-10  -1.19760075E+00   1.07245217E+00  -1.95725516E-01   1.07038918E-04  -2.79346847E+00  -2.15294035E+02   5.68209534E-01
   6.82500000E+02   5.00000000E-01   5.00000000E-01  -7.14524272E+00  -2.73257412E+00  -6.77713202E+00  -1.55629453E+01   3.95932458E-03   7.00401292E-01  -2.69144641E-01  -2.44597797E+00  -7.85268046E-10  -1.16798105E+00   1.07706832E+00  -1.35768650E-01   1.08712903E-04  -2.78592244E+00  -2.13677569E+02   5.57478648E-01
   7.17500000E+02   5.00000000E-01   5.00000000E-01  -7.09162397E+00  -2.71482309E+00  -6.70916142E+00  -1.54419105E+01   3.98339536E-03   7.20500876E-01  -2.78204602E-01  -2.41525453E+00  -8.96537548E-10  -1.13905390E+00   1.08132245E+00  -7.71280617E-02   1.10281049E-04  -2.77944915E+00  -2.12080914E+02   5.46882139E-01
   7.52500000E+02   5.00000000E-01   5.00000000E-01  -7.03860854E+00  -2.69725765E+00  -6.64254639E+00  -1.53266412E+01   3.91432092E-03   7.39999300E-01  -2.87239320E-01  -2.38654106E+00  -1.01358067E-09  -1.11079733E+00   1.08522222E+00  -1.98028287E-02   1.11751957E-04  -2.77373396E+00  -2.10503375E+02   5.36431198E-01
   7.87500000E+02   5.00000000E-01   5.00000000E-01  -6.98619211E+00  -2.67986572E+00  -6.57739483E+00  -1.52169701E+01   3.82818729E-03   7.58689298E-01  -2.96294108E-01  -2.35968813E+00  -1.14816375E-09  -1.08336693E+00   1.08851248E+00   3.58406967E-02   1.13113130E-04  -2.76886907E+00  -2.08944504E+02   5.26147111E-01
   8.22500000E+02   5.00000000E-01   5.00000000E-01  -6.93439405E+00  -2.66264897E+00  -6.51360896E+00  -1.51125328E+01   3.73792992E-03   7.76567542E-01  -3.05297811E-01  -2.33458517E+00  -1.29992884E-09  -1.05666143E+00   1.09131921E+00   8.99342357E-02   1.14352115E-04  -2.76474471E+00  -2.07403898E+02   5.16047382E-01
   8.57500000E+02   5.00000000E-01   5.00000000E-01  -6.88323352E+00  -2.64561025E+00  -6.45107466E+00  -1.50129828E+01   3.64602180E-03   7.93658484E-01  -3.14172609E-01  -2.31114029E+00  -1.47051451E-09  -1.03055701E+00   1.09380311E+00   1.42660569E-01   1.15446425E-04  -2.76123739E+00  -2.05881179E+02   5.06146827E-01
   8.92500000E+02   5.00000000E-01   5.00000000E-01  -6.83272514E+00  -2.62874815E+00  -6.38976558E+00  -1.49181265E+01   3.55321324E-03   8.09906491E-01  -3.22875538E-01  -2.28927390E+00  -1.66469148E-09  -1.00501588E+00   1.09599622E+00   1.94027281E-01   1.16375577E-04  -2.75830728E+00  -2.04375983E+02   4.96464283E-01
   9.27500000E+02   5.00000000E-01   5.00000000E-01  -6.78288604E+00  -2.61206152E+00  -6.32965748E+00  -1.48278083E+01   3.45994660E-03   8.25248455E-01  -3.31360288E-01  -2.26892346E+00  -1.88626153E-09  -9.79999127E-01   1.09793144E+00   2.44038211E-01   1.17123426E-04  -2.75591460E+00  -2.02887956E+02   4.87020534E-01
   9.62500000E+02   5.00000000E-01   5.00000000E-01  -6.73373486E+00  -2.59554946E+00  -6.27072629E+00  -1.47419015E+01   3.36658135E-03   8.39618595E-01  -3.39578365E-01  -2.25004038E+00  -2.13956644E-09  -9.55465976E-01   1.09964408E+00   2.92697918E-01   1.17675974E-04  -2.75401879E+00  -2.01416754E+02   4.77837303E-01
   9.97500000E+02   5.00000000E-01   5.00000000E-01  -6.68529065E+00  -2.57921127E+00  -6.21294763E+00  -1.46603020E+01   3.27343103E-03   8.52951905E-01  -3.47480678E-01  -2.23258731E+00  -2.42971328E-09  -9.31374335E-01   1.10117151E+00   3.40013445E-01   1.18021641E-04  -2.75257882E+00  -1.99962042E+02   4.68936345E-01
   1.03250000E+03   5.00000000E-01   5.00000000E-01  -6.63757191E+00  -2.56304636E+00  -6.15629664E+00  -1.45829228E+01   3.18077139E-03   8.65187072E-01  -3.55019130E-01  -2.21653561E+00  -2.76256826E-09  -9.07681603E-01   1.10255246E+00   3.85995367E-01   1.18151524E-04  -2.75155394E+00  -1.98523497E+02   4.60338619E-01
   1.06750000E+03   5.00000000E-01   5.00000000E-01  -6.59059561E+00  -2.54705411E+00  -6.10074808E+00  -1.45096899E+01   3.08884403E-03   8.76268958E-01  -3.62148189E-01  -2.20186323E+00  -3.14496035E-09  -8.84345652E-01   1.10382589E+00   4.30658248E-01   1.18059621E-04  -2.75090445E+00  -1.97100804E+02   4.52063537E-01
   1.10250000E+03   5.00000000E-01   5.00000000E-01  -6.54437636E+00  -2.53123385E+00  -6.04627659E+00  -1.44405383E+01   2.99785936E-03   8.86150681E-01  -3.68826410E-01  -2.18855272E+00  -3.58479550E-09  -8.61325945E-01   1.10502978E+00   4.74020653E-01   1.17743014E-04  -2.75059271E+00  -1.95693662E+02   4.44128278E-01
   1.13750000E+03   5.00000000E-01   5.00000000E-01  -6.49892559E+00  -2.51558471E+00  -5.99285708E+00  -1.43754095E+01   2.90799929E-03   8.94795337E-01  -3.75017857E-01  -2.17658954E+00  -4.09121091E-09  -8.38584692E-01   1.10619970E+00   5.16104812E-01   1.17202003E-04  -2.75058413E+00  -1.94301777E+02   4.36547185E-01
   1.17250000E+03   5.00000000E-01   5.00000000E-01  -6.45425083E+00  -2.50010555E+00  -5.94046522E+00  -1.43142486E+01   2.81941985E-03   9.02177366E-01  -3.80693393E-01  -2.16596050E+00  -4.67477868E-09  -8.16087989E-01   1.10736742E+00   5.56936078E-01   1.16440191E-04  -2.75084815E+00  -1.92924867E+02   4.29331247E-01
   1.20750000E+03   5.00000000E-01   5.00000000E-01  -6.41035518E+00  -2.48479488E+00  -5.88907790E+00  -1.42570026E+01   2.73225359E-03   9.08283591E-01  -3.85831759E-01  -2.15665250E+00  -5.34774964E-09  -7.93806842E-01   1.10855970E+00   5.96542288E-01   1.15464507E-04  -2.75135912E+00  -1.91562661E+02   4.22487676E-01
   1.24250000E+03   5.00000000E-01   5.00000000E-01  -6.36723687E+00  -2.46965080E+00  -5.83867358E+00  -1.42036181E+01   2.64661181E-03   9.13113916E-01  -3.90420408E-01  -2.14865139E+00  -6.12414896E-09  -7.71717999E-01   1.10979715E+00   6.34953133E-01   1.14285160E-04  -2.75209699E+00  -1.90214901E+02   4.16019603E-01
   1.27750000E+03   5.00000000E-01   5.00000000E-01  -6.32488894E+00  -2.45467095E+00  -5.78923261E+00  -1.41540408E+01   2.56258670E-03   9.16681682E-01  -3.94456023E-01  -2.14194115E+00  -7.02017425E-09  -7.49804531E-01   1.11109357E+00   6.72199626E-01   1.12915512E-04  -2.75304781E+00  -1.88881337E+02   4.09925890E-01
   1.31250000E+03   5.00000000E-01   5.00000000E-01  -6.28329921E+00  -2.43985249E+00  -5.74073738E+00  -1.41082135E+01   2.48025326E-03   9.19013686E-01  -3.97944706E-01  -2.13650328E+00  -8.05438382E-09  -7.28056116E-01   1.11245556E+00   7.08313728E-01   1.11371865E-04  -2.75420388E+00  -1.87561731E+02   4.04201082E-01
   1.34750000E+03   5.00000000E-01   5.00000000E-01  -6.24245034E+00  -2.42519214E+00  -5.69317225E+00  -1.40660759E+01   2.39967110E-03   9.20149835E-01  -4.00901799E-01  -2.13231640E+00  -9.24807617E-09  -7.06468988E-01   1.11388256E+00   7.43328162E-01   1.09673150E-04  -2.75556369E+00  -1.86255856E+02   3.98835492E-01
   1.38250000E+03   5.00000000E-01   5.00000000E-01  -6.20232013E+00  -2.41068613E+00  -5.64652342E+00  -1.40275637E+01   2.32088605E-03   9.20142455E-01  -4.03351359E-01  -2.12935611E+00  -1.06255493E-08  -6.85045572E-01   1.11536729E+00   7.77276393E-01   1.07840527E-04  -2.75713145E+00  -1.84963495E+02   3.93815434E-01
   1.41750000E+03   5.00000000E-01   5.00000000E-01  -6.16288197E+00  -2.39633034E+00  -5.60077859E+00  -1.39926085E+01   2.24393172E-03   9.19055257E-01  -4.05325299E-01  -2.12759510E+00  -1.22145357E-08  -6.63793830E-01   1.11689656E+00   8.10192765E-01   1.05896894E-04  -2.75891651E+00  -1.83684439E+02   3.89123579E-01
   1.45250000E+03   5.00000000E-01   5.00000000E-01  -6.12410543E+00  -2.38212030E+00  -5.55592660E+00  -1.39611377E+01   2.16883084E-03   9.16961981E-01  -4.06862257E-01  -2.12700339E+00  -1.40465850E-08  -6.42726373E-01   1.11845234E+00   8.42112708E-01   1.03866331E-04  -2.76093241E+00  -1.82418489E+02   3.84739425E-01
   1.48750000E+03   5.00000000E-01   5.00000000E-01  -6.08595703E+00  -2.36805130E+00  -5.51195696E+00  -1.39330747E+01   2.09559652E-03   9.13944767E-01  -4.08006254E-01  -2.12754879E+00  -1.61575117E-08  -6.21859416E-01   1.12001300E+00   8.73072966E-01   1.01773495E-04  -2.76319592E+00  -1.81165453E+02   3.80639867E-01
   1.52250000E+03   5.00000000E-01   5.00000000E-01  -6.04840101E+00  -2.35411847E+00  -5.46885941E+00  -1.39083393E+01   2.02423340E-03   9.10092311E-01  -4.08805232E-01  -2.12919744E+00  -1.85879347E-08  -6.01211656E-01   1.12155466E+00   9.03111772E-01   9.96429985E-05  -2.76572596E+00  -1.79925147E+02   3.76799825E-01
   1.55750000E+03   5.00000000E-01   5.00000000E-01  -6.01140018E+00  -2.34031688E+00  -5.42662354E+00  -1.38868488E+01   1.95473869E-03   9.05497875E-01  -4.09309542E-01  -2.13191442E+00  -2.13838857E-08  -5.80803160E-01   1.12305245E+00   9.32268901E-01   9.74988068E-05  -2.76854256E+00  -1.78697393E+02   3.73192905E-01
   1.59250000E+03   5.00000000E-01   5.00000000E-01  -5.97491674E+00  -2.32664161E+00  -5.38523847E+00  -1.38685187E+01   1.88710318E-03   9.00257247E-01  -4.09570483E-01  -2.13566443E+00  -2.45974537E-08  -5.60654323E-01   1.12448172E+00   9.60585586E-01   9.53636874E-05  -2.77166586E+00  -1.77482017E+02   3.69792061E-01
   1.62750000E+03   5.00000000E-01   5.00000000E-01  -5.93891310E+00  -2.31308785E+00  -5.34469265E+00  -1.38532636E+01   1.82131206E-03   8.94466730E-01  -4.09638950E-01  -2.14041237E+00  -2.82875198E-08  -5.40784977E-01   1.12581899E+00   9.88104271E-01   9.32587364E-05  -2.77511530E+00  -1.76278850E+02   3.66570227E-01
   1.66250000E+03   5.00000000E-01   5.00000000E-01  -5.90335252E+00  -2.29965091E+00  -5.30497376E+00  -1.38409983E+01   1.75734575E-03   8.88221250E-01  -4.09564254E-01  -2.14612396E+00  -3.25207322E-08  -5.21213656E-01   1.12704273E+00   1.01486821E+00   9.12030066E-05  -2.77890894E+00  -1.75087728E+02   3.63500887E-01
   1.69750000E+03   5.00000000E-01   5.00000000E-01  -5.86819975E+00  -2.28632635E+00  -5.26606874E+00  -1.38316391E+01   1.69518065E-03   8.81612657E-01  -4.09393149E-01  -2.15276617E+00  -3.73724318E-08  -5.01957060E-01   1.12813386E+00   1.04092096E+00   8.92132502E-05  -2.78306298E+00  -1.73908487E+02   3.60558568E-01
   1.73250000E+03   5.00000000E-01   5.00000000E-01  -5.83342151E+00  -2.27310995E+00  -5.22796383E+00  -1.38251045E+01   1.63478980E-03   8.74728264E-01  -4.09169080E-01  -2.16030768E+00  -4.29278713E-08  -4.83029712E-01   1.12907604E+00   1.06630577E+00   8.73037775E-05  -2.78759145E+00  -1.72740967E+02   3.57719251E-01
   1.76750000E+03   5.00000000E-01   5.00000000E-01  -5.79898681E+00  -2.25999777E+00  -5.19064479E+00  -1.38213161E+01   1.57614347E-03   8.67649683E-01  -4.08931666E-01  -2.16871908E+00  -4.92835638E-08  -4.64443776E-01   1.12985575E+00   1.09106499E+00   8.54864278E-05  -2.79250604E+00  -1.71585010E+02   3.54960670E-01
   1.80250000E+03   5.00000000E-01   5.00000000E-01  -5.76486719E+00  -2.24698612E+00  -5.15409702E+00  -1.38201992E+01   1.51920976E-03   8.60451948E-01  -4.08716384E-01  -2.17797309E+00  -5.65487543E-08  -4.46209033E-01   1.13046219E+00   1.11523944E+00   8.37706373E-05  -2.79781612E+00  -1.70440458E+02   3.52262529E-01
   1.83750000E+03   5.00000000E-01   5.00000000E-01  -5.73103687E+00  -2.23407162E+00  -5.11830588E+00  -1.38216835E+01   1.46395504E-03   8.53202940E-01  -4.08554447E-01  -2.18804460E+00  -6.48472195E-08  -4.28332971E-01   1.13088706E+00   1.13886789E+00   8.21635884E-05  -2.80352881E+00  -1.69307157E+02   3.49606618E-01
   1.87250000E+03   5.00000000E-01   5.00000000E-01  -5.69747271E+00  -2.22125113E+00  -5.08325677E+00  -1.38257030E+01   1.41034439E-03   8.45963092E-01  -4.08472842E-01  -2.19891068E+00  -7.43192418E-08  -4.10820955E-01   1.13112428E+00   1.16198657E+00   8.06704189E-05  -2.80964915E+00  -1.68184951E+02   3.46976857E-01
   1.90750000E+03   5.00000000E-01   5.00000000E-01  -5.66415421E+00  -2.20852178E+00  -5.04893544E+00  -1.38321965E+01   1.35834203E-03   8.38785340E-01  -4.08494489E-01  -2.21055043E+00  -8.51238289E-08  -3.93676460E-01   1.13116963E+00   1.18462887E+00   7.92944718E-05  -2.81618035E+00  -1.67073688E+02   3.44359267E-01
   1.94250000E+03   5.00000000E-01   5.00000000E-01  -5.63106337E+00  -2.19588091E+00  -5.01532805E+00  -1.38411072E+01   1.30791161E-03   8.31715278E-01  -4.08638497E-01  -2.22294490E+00  -9.74412374E-08  -3.76901329E-01   1.13102041E+00   1.20682507E+00   7.80375668E-05  -2.82312395E+00  -1.65973213E+02   3.41741889E-01
   1.97750000E+03   5.00000000E-01   5.00000000E-01  -5.59818451E+00  -2.18332610E+00  -4.98242135E+00  -1.38523826E+01   1.25901653E-03   8.24791491E-01  -4.08920476E-01  -2.23607682E+00  -1.11475856E-07  -3.60496040E-01   1.13067510E+00   1.22860221E+00   7.69002770E-05  -2.83048014E+00  -1.64883377E+02   3.39114657E-01
   2.01250000E+03   5.00000000E-01   5.00000000E-01  -5.56550409E+00  -2.17085508E+00  -4.95020274E+00  -1.38659742E+01   1.21162016E-03   8.18046010E-01  -4.09352901E-01  -2.24993044E+00  -1.27459369E-07  -3.44459968E-01   1.13013301E+00   1.24998409E+00   7.58821994E-05  -2.83824798E+00  -1.63804029E+02   3.36469252E-01
   2.04750000E+03   5.00000000E-01   5.00000000E-01  -5.53301046E+00  -2.15846577E+00  -4.91866027E+00  -1.38818370E+01   1.16568604E-03   8.11504852E-01  -4.09945478E-01  -2.26449127E+00  -1.45654395E-07  -3.28791624E-01   1.12939405E+00   1.27099131E+00   7.49822084E-05  -2.84642557E+00  -1.62735020E+02   3.33798924E-01
   2.08250000E+03   5.00000000E-01   5.00000000E-01  -5.50069371E+00  -2.14615624E+00  -4.88778275E+00  -1.38999290E+01   1.12117810E-03   8.05188628E-01  -4.10705521E-01  -2.27974585E+00  -1.66358431E-07  -3.13488883E-01   1.12845847E+00   1.29164145E+00   7.41986877E-05  -2.85501028E+00  -1.61676202E+02   3.31098320E-01
   2.11750000E+03   5.00000000E-01   5.00000000E-01  -5.46854537E+00  -2.13392466E+00  -4.85755961E+00  -1.39202108E+01   1.07806073E-03   7.99113157E-01  -4.11638310E-01  -2.29568152E+00  -1.89908329E-07  -2.98549169E-01   1.12732663E+00   1.31194919E+00   7.35297357E-05  -2.86399888E+00  -1.60627432E+02   3.28363299E-01
   2.15250000E+03   5.00000000E-01   5.00000000E-01  -5.43655823E+00  -2.12176931E+00  -4.82798094E+00  -1.39426451E+01   1.03629893E-03   7.93290104E-01  -4.12747436E-01  -2.31228620E+00  -2.16685343E-07  -2.83969620E-01   1.12599890E+00   1.33192663E+00   7.29733436E-05  -2.87338772E+00  -1.59588564E+02   3.25590758E-01
   2.18750000E+03   5.00000000E-01   5.00000000E-01  -5.40472614E+00  -2.10968858E+00  -4.79903740E+00  -1.39671960E+01   9.95858346E-04   7.87727583E-01  -4.14035114E-01  -2.32954819E+00  -2.47120525E-07  -2.69747237E-01   1.12447552E+00   1.35158347E+00   7.25275471E-05  -2.88317278E+00  -1.58559456E+02   3.22778462E-01
   2.22250000E+03   5.00000000E-01   5.00000000E-01  -5.37304384E+00  -2.09768091E+00  -4.77072015E+00  -1.39938286E+01   9.56705380E-04   7.82430743E-01  -4.15502471E-01  -2.34745602E+00  -2.81700858E-07  -2.55878986E-01   1.12275649E+00   1.37092732E+00   7.21905518E-05  -2.89334980E+00  -1.57539971E+02   3.19924888E-01
   2.25750000E+03   5.00000000E-01   5.00000000E-01  -5.34150674E+00  -2.08574481E+00  -4.74302076E+00  -1.40225086E+01   9.18807177E-04   7.77402310E-01  -4.17149802E-01  -2.36599821E+00  -3.20975947E-07  -2.42361897E-01   1.12084151E+00   1.38996398E+00   7.19608358E-05  -2.90391431E+00  -1.56529969E+02   3.17029080E-01
   2.29250000E+03   5.00000000E-01   5.00000000E-01  -5.31011082E+00  -2.07387884E+00  -4.71593112E+00  -1.40532017E+01   8.82131662E-04   7.72643090E-01  -4.18976797E-01  -2.38516322E+00  -3.65565285E-07  -2.29193139E-01   1.11872997E+00   1.40869765E+00   7.18372300E-05  -2.91486169E+00  -1.55529315E+02   3.14090520E-01
   2.32750000E+03   5.00000000E-01   5.00000000E-01  -5.27885246E+00  -2.06208159E+00  -4.68944338E+00  -1.40858736E+01   8.46647538E-04   7.68152413E-01  -4.20982743E-01  -2.40493927E+00  -4.16166277E-07  -2.16370076E-01   1.11642089E+00   1.42713124E+00   7.18189805E-05  -2.92618721E+00  -1.54537879E+02   3.11109011E-01
   2.36250000E+03   5.00000000E-01   5.00000000E-01  -5.24772833E+00  -2.05035168E+00  -4.66354985E+00  -1.41204891E+01   8.12324277E-04   7.63928544E-01  -4.23166698E-01  -2.42531429E+00  -4.73562929E-07  -2.03890322E-01   1.11391290E+00   1.44526654E+00   7.19057940E-05  -2.93788603E+00  -1.53555529E+02   3.08084571E-01
   2.39750000E+03   5.00000000E-01   5.00000000E-01  -5.21673529E+00  -2.03868778E+00  -4.63824291E+00  -1.41570122E+01   7.79132097E-04   7.59969036E-01  -4.25527640E-01  -2.44627579E+00  -5.38635015E-07  -1.91751775E-01   1.11120426E+00   1.46310448E+00   7.20978694E-05  -2.94995326E+00  -1.52582138E+02   3.05017345E-01
   2.43250000E+03   5.00000000E-01   5.00000000E-01  -5.18587029E+00  -2.02708856E+00  -4.61351496E+00  -1.41954058E+01   7.47041937E-04   7.56271043E-01  -4.28064598E-01  -2.46781080E+00  -6.12368224E-07  -1.79952645E-01   1.10829282E+00   1.48064527E+00   7.23959162E-05  -2.96238388E+00  -1.51617582E+02   3.01907524E-01
   2.46750000E+03   5.00000000E-01   5.00000000E-01  -5.15513028E+00  -2.01555268E+00  -4.58935833E+00  -1.42356312E+01   7.16025419E-04   7.52831588E-01  -4.30776756E-01  -2.48990588E+00  -6.95864465E-07  -1.68491482E-01   1.10517606E+00   1.49788860E+00   7.28011626E-05  -2.97517283E+00  -1.50661739E+02   2.98755281E-01
   2.50250000E+03   5.00000000E-01   5.00000000E-01  -5.12451219E+00  -2.00407885E+00  -4.56576524E+00  -1.42776485E+01   6.86054810E-04   7.49647794E-01  -4.33663553E-01  -2.51254702E+00  -7.90353131E-07  -1.57367192E-01   1.10185105E+00   1.51483377E+00   7.33153532E-05  -2.98831493E+00  -1.49714492E+02   2.95560707E-01
   2.53750000E+03   5.00000000E-01   5.00000000E-01  -5.09401281E+00  -1.99266575E+00  -4.54272771E+00  -1.43214158E+01   6.57102983E-04   7.46717077E-01  -4.36724749E-01  -2.53571963E+00  -8.97202324E-07  -1.46579053E-01   1.09831450E+00   1.53147978E+00   7.39407380E-05  -3.00180495E+00  -1.48775723E+02   2.92323773E-01
   2.57250000E+03   5.00000000E-01   5.00000000E-01  -5.06362879E+00  -1.98131207E+00  -4.52023755E+00  -1.43668893E+01   6.29143373E-04   7.44037304E-01  -4.39960495E-01  -2.55940855E+00  -1.01793068E-06  -1.36126727E-01   1.09456272E+00   1.54782549E+00   7.46800527E-05  -3.01563753E+00  -1.47845322E+02   2.89044279E-01
   2.60750000E+03   5.00000000E-01   5.00000000E-01  -5.03335659E+00  -1.97001652E+00  -4.49828629E+00  -1.44140237E+01   6.02149932E-04   7.41606922E-01  -4.43371379E-01  -2.58359804E+00  -1.15421888E-06  -1.26010270E-01   1.09059165E+00   1.56386963E+00   7.55364907E-05  -3.02980721E+00  -1.46923177E+02   2.85721831E-01
   2.64250000E+03   5.00000000E-01   5.00000000E-01  -5.00319242E+00  -1.95877777E+00  -4.47686516E+00  -1.44627714E+01   5.76097092E-04   7.39425062E-01  -4.46958466E-01  -2.60827176E+00  -1.30792113E-06  -1.16230137E-01   1.08639685E+00   1.57961092E+00   7.65136672E-05  -3.04430840E+00  -1.46009183E+02   2.82355810E-01
   2.67750000E+03   5.00000000E-01   5.00000000E-01  -4.97313229E+00  -1.94759450E+00  -4.45596504E+00  -1.45130828E+01   5.50959721E-04   7.37491613E-01  -4.50723322E-01  -2.63341283E+00  -1.48107584E-06  -1.06787188E-01   1.08197352E+00   1.59504811E+00   7.76155746E-05  -3.05913539E+00  -1.45103236E+02   2.78945356E-01
   2.71250000E+03   5.00000000E-01   5.00000000E-01  -4.94317191E+00  -1.93646539E+00  -4.43557646E+00  -1.45649066E+01   5.26713090E-04   7.35807276E-01  -4.54668039E-01  -2.65900379E+00  -1.67591530E-06  -9.76826904E-02   1.07731650E+00   1.61017998E+00   7.88465292E-05  -3.07428231E+00  -1.44205236E+02   2.75489355E-01
   2.74750000E+03   5.00000000E-01   5.00000000E-01  -4.91330674E+00  -1.92538910E+00  -4.41568954E+00  -1.46181891E+01   5.03332835E-04   7.34373595E-01  -4.58795233E-01  -2.68502667E+00  -1.89487444E-06  -8.89183127E-02   1.07242025E+00   1.62500539E+00   8.02111074E-05  -3.08974314E+00  -1.43315087E+02   2.71986431E-01
   2.78250000E+03   5.00000000E-01   5.00000000E-01  -4.88353196E+00  -1.91436428E+00  -4.39629400E+00  -1.46728749E+01   4.80794926E-04   7.33192974E-01  -4.63108053E-01  -2.71146303E+00  -2.14059590E-06  -8.04961224E-02   1.06727891E+00   1.63952334E+00   8.17140771E-05  -3.10551166E+00  -1.42432694E+02   2.68434945E-01
   2.81750000E+03   5.00000000E-01   5.00000000E-01  -4.85384247E+00  -1.90338957E+00  -4.37737915E+00  -1.47289067E+01   4.59075646E-04   7.32268663E-01  -4.67610164E-01  -2.73829395E+00  -2.41593287E-06  -7.24185744E-02   1.06188627E+00   1.65373288E+00   8.33603125E-05  -3.12158148E+00  -1.41557967E+02   2.64832996E-01
   2.85250000E+03   5.00000000E-01   5.00000000E-01  -4.82423293E+00  -1.89246362E+00  -4.35893383E+00  -1.47862252E+01   4.38151561E-04   7.31604741E-01  -4.72305730E-01  -2.76550010E+00  -2.72394849E-06  -6.46884962E-02   1.05623579E+00   1.66763321E+00   8.51547015E-05  -3.13794598E+00  -1.40690818E+02   2.61178433E-01
   2.88750000E+03   5.00000000E-01   5.00000000E-01  -4.79469774E+00  -1.88158505E+00  -4.34094648E+00  -1.48447694E+01   4.17999507E-04   7.31206076E-01  -4.77199382E-01  -2.79306179E+00  -3.06791058E-06  -5.73090669E-02   1.05032066E+00   1.68122362E+00   8.71020422E-05  -3.15459829E+00  -1.39831162E+02   2.57468863E-01
   2.92250000E+03   5.00000000E-01   5.00000000E-01  -4.76523108E+00  -1.87075249E+00  -4.32340504E+00  -1.49044765E+01   3.98596570E-04   7.31078266E-01  -4.82296185E-01  -2.82095903E+00  -3.45128079E-06  -5.02837897E-02   1.04413378E+00   1.69450350E+00   8.92069281E-05  -3.17153130E+00  -1.38978918E+02   2.53701673E-01
   2.95750000E+03   5.00000000E-01   5.00000000E-01  -4.73582692E+00  -1.85996455E+00  -4.30629702E+00  -1.49652824E+01   3.79920076E-04   7.31227568E-01  -4.87601581E-01  -2.84917155E+00  -3.87769698E-06  -4.36164571E-02   1.03766784E+00   1.70747237E+00   9.14736223E-05  -3.18873758E+00  -1.38134009E+02   2.49874051E-01
   2.99250000E+03   5.00000000E-01   5.00000000E-01  -4.70647909E+00  -1.84921986E+00  -4.28960946E+00  -1.50271213E+01   3.61947587E-04   7.31660816E-01  -4.93121335E-01  -2.87767892E+00  -4.35094816E-06  -3.73111080E-02   1.03091533E+00   1.72012979E+00   9.39059220E-05  -3.20620940E+00  -1.37296357E+02   2.45983013E-01
   3.02750000E+03   5.00000000E-01   5.00000000E-01  -4.67718127E+00  -1.83851704E+00  -4.27332893E+00  -1.50899263E+01   3.44656888E-04   7.32385313E-01  -4.98861464E-01  -2.90646058E+00  -4.87494069E-06  -3.13719766E-02   1.02386863E+00   1.73247546E+00   9.65070127E-05  -3.22393866E+00  -1.36465891E+02   2.42025437E-01
   3.06250000E+03   5.00000000E-01   5.00000000E-01  -4.64792709E+00  -1.82785472E+00  -4.25744153E+00  -1.51536292E+01   3.28025989E-04   7.33408721E-01  -5.04828153E-01  -2.93549591E+00  -5.45365502E-06  -2.58034318E-02   1.01652003E+00   1.74450915E+00   9.92793158E-05  -3.24191686E+00  -1.35642541E+02   2.37998102E-01
   3.09750000E+03   5.00000000E-01   5.00000000E-01  -4.61871013E+00  -1.81723155E+00  -4.24193290E+00  -1.52181610E+01   3.12033124E-04   7.34738929E-01  -5.11027664E-01  -2.96476436E+00  -6.09109226E-06  -2.06099066E-02   1.00886185E+00   1.75623069E+00   1.02224329E-04  -3.26013508E+00  -1.34826239E+02   2.33897725E-01
   3.13250000E+03   5.00000000E-01   5.00000000E-01  -4.58952402E+00  -1.80664620E+00  -4.22678822E+00  -1.52834520E+01   2.96656750E-04   7.36383912E-01  -5.17466233E-01  -2.99424549E+00  -6.79120985E-06  -1.57958185E-02   1.00088651E+00   1.76764005E+00   1.05342466E-04  -3.27858390E+00  -1.34016920E+02   2.29721016E-01
   3.16750000E+03   5.00000000E-01   5.00000000E-01  -4.56036250E+00  -1.79609735E+00  -4.21199220E+00  -1.53494319E+01   2.81875549E-04   7.38351571E-01  -5.24149958E-01  -3.02391912E+00  -7.55784652E-06  -1.13654795E-02   9.92586601E-01   1.77873725E+00   1.08632893E-04  -3.29725339E+00  -1.33214523E+02   2.25464725E-01