 TITLE = "Mineral Saturation State" 
VARIABLES = "X"          "Y"              "Z"            "Forsterite"     "Fayalite"       "Brucite"        "Lizardite"      "Chrysotile"     "Hematite"       "Magnetite(am)"  "Saponite(Ca)"   "Saponite(K)"    "Saponite(Mg)"   "Saponite(Na)"   "Beidellite(Ca)" "Beidellite(K)"  "Beidellite(Mg)" "Beidellite(Na)" "Enstatite(alph" "Ferrosilite(al" "Anorthite"      "Albite(low)"    "Clinochlore"    "Sudoite"        "Montmor(MgCa)"  "Montmor(MgK)"   "Montmor(MgMg)"  "Montmor(MgNa)"  "Kaolinite"      "Tremolite"      "Pargasite"      "Anhydrite"      "Epidote"        "Scolecite"      "Pyrite"         "FeS(am)"        "Quartz(alpha)" 
 ZONE I=         200 , J=           1 , K=           1  F=POINT
   8.75000000E+00   5.00000000E-01   5.00000000E-01  -6.96643285E+00  -2.88403405E+00  -4.70477820E+00  -1.13820788E+00  -1.25569619E+00   1.07447972E-02  -5.33055232E+00   7.50775647E-01   2.57956999E+00   1.41172456E+00   2.45828587E+00  -6.65111825E+00  -5.50313833E+00  -5.99016661E+00  -5.56322563E+00  -2.48171061E+00  -1.50266685E+00  -1.17501768E+01  -1.59254126E+00   2.02642558E-01  -6.92618148E+00  -4.18739455E+00  -2.79850122E+00  -3.55997243E+00  -2.94759614E+00  -5.30224166E+00  -4.52472769E+00  -3.25577160E+01  -9.80252996E-01  -1.04776040E+01  -6.53000586E+00  -3.29870027E+01  -4.51155603E+00   7.17639676E-01
   2.62500000E+01   5.00000000E-01   5.00000000E-01  -7.62464323E+00  -2.92185438E+00  -5.11404775E+00  -2.12125845E+00  -2.23671212E+00   1.07447972E-02  -5.40410896E+00   2.43457504E-01   2.04408627E+00   9.03829942E-01   1.93205676E+00  -4.14389450E+00  -3.01611387E+00  -3.48352495E+00  -3.06704976E+00  -2.73927966E+00  -1.44551224E+00  -1.01096244E+01  -5.02903562E-01   2.00097879E-01  -3.92094348E+00  -2.36328109E+00  -9.95867829E-01  -1.73625077E+00  -1.13534006E+00  -3.28467841E+00  -6.28502978E+00  -3.17049541E+01  -9.62337460E-01  -9.13424519E+00  -4.78459907E+00  -3.24735673E+01  -4.45819335E+00   8.67808142E-01
   4.37500000E+01   5.00000000E-01   5.00000000E-01  -7.80439832E+00  -2.78332877E+00  -5.25568932E+00  -2.41439979E+00  -2.52784067E+00   1.07447971E-02  -5.36130217E+00   1.78503866E-01   1.95516452E+00   8.38350391E-01   1.85228237E+00  -3.16718677E+00  -2.05937905E+00  -2.50734832E+00  -2.10127039E+00  -2.78599215E+00  -1.32859747E+00  -9.48469476E+00  -3.43692559E-02   1.97491980E-01  -2.88854007E+00  -1.60037696E+00  -2.54204121E-01  -9.73690119E-01  -3.84165273E-01  -2.54994599E+00  -6.62557797E+00  -3.12078368E+01  -9.44209170E-01  -8.59553029E+00  -4.11130471E+00  -3.21550261E+01  -4.40578212E+00   9.61166446E-01
   6.12500000E+01   5.00000000E-01   5.00000000E-01  -7.85095797E+00  -2.62565518E+00  -5.31103673E+00  -2.52682515E+00  -2.63827475E+00   1.07447971E-02  -5.28943240E+00   1.89982735E-01   1.94365915E+00   8.49339029E-01   1.84983703E+00  -2.68892588E+00  -1.60088884E+00  -2.02958244E+00  -1.63382204E+00  -2.78577358E+00  -1.22181644E+00  -9.16782937E+00   2.01650164E-01   1.94346272E-01  -2.43145126E+00  -1.21270363E+00   1.12444067E-01  -5.86326800E-01  -8.09706105E-03  -2.20923876E+00  -6.67628381E+00  -3.08593933E+01  -9.25866838E-01  -8.31774484E+00  -3.78515754E+00  -3.19043936E+01  -4.35919900E+00   1.01512439E+00
   7.87500000E+01   5.00000000E-01   5.00000000E-01  -7.85925445E+00  -2.48950753E+00  -5.33454223E+00  -2.59395410E+00  -2.70343357E+00   1.07447971E-02  -5.21582032E+00   1.95815175E-01   1.92673726E+00   8.54707622E-01   1.84189181E+00  -2.39608101E+00  -1.32761906E+00  -1.73720584E+00  -1.35167647E+00  -2.77910348E+00  -1.13851889E+00  -8.95373865E+00   3.35740615E-01   1.92037287E-01  -2.15319326E+00  -9.79785593E-01   3.24545423E-01  -3.53694535E-01   2.13337376E-01  -2.00286879E+00  -6.70643799E+00  -3.05819846E+01  -9.07316122E-01  -8.13603001E+00  -3.58689681E+00  -3.16876928E+01  -4.32304685E+00   1.04365610E+00
   9.62500000E+01   5.00000000E-01   5.00000000E-01  -7.84630035E+00  -2.36933683E+00  -5.33993479E+00  -2.63609006E+00  -2.74362022E+00   1.07447971E-02  -5.14291174E+00   1.97150869E-01   1.90553482E+00   8.55600639E-01   1.82957746E+00  -2.20839723E+00  -1.15931131E+00  -1.54996879E+00  -1.17458069E+00  -2.76926500E+00  -1.07070658E+00  -8.79732198E+00   4.11341574E-01   1.91143240E-01  -1.97408505E+00  -8.35372713E-01   4.48353355E-01  -2.09548368E-01   3.46386102E-01  -1.87203642E+00  -6.72853135E+00  -3.03452416E+01  -8.88565974E-01  -8.00854354E+00  -3.46097765E+00  -3.14920145E+01  -4.29411378E+00   1.05720876E+00
   1.13750000E+02   5.00000000E-01   5.00000000E-01  -7.81773314E+00  -2.25894063E+00  -5.33344864E+00  -2.65828083E+00  -2.76388215E+00   1.07447971E-02  -5.07101857E+00   2.01006674E-01   1.88711965E+00   8.59030554E-01   1.81995564E+00  -2.08965997E+00  -1.05974637E+00  -1.43166114E+00  -1.06632186E+00  -2.75566096E+00  -1.01186178E+00  -8.68064061E+00   4.51083232E-01   1.91450321E-01  -1.86514510E+00  -7.46612118E-01   5.16725197E-01  -1.21039766E-01   4.23900137E-01  -1.79259389E+00  -6.73151604E+00  -3.01329116E+01  -8.69626133E-01  -7.91672940E+00  -3.38263153E+00  -3.13107686E+01  -4.27019226E+00   1.06261510E+00
   1.31250000E+02   5.00000000E-01   5.00000000E-01  -7.77824584E+00  -2.15595050E+00  -5.31945821E+00  -2.66554504E+00  -2.76923767E+00   1.07447971E-02  -5.00098220E+00   2.09907963E-01   1.87403582E+00   8.67519021E-01   1.81556616E+00  -2.01507542E+00  -1.00412782E+00  -1.35749281E+00  -1.00210797E+00  -2.73860956E+00  -9.58771362E-01  -8.59079995E+00   4.69523037E-01   1.92368921E-01  -1.80469685E+00  -6.91924049E-01   5.51243137E-01  -6.65926415E-02   4.67457315E-01  -1.74729349E+00  -6.71353470E+00  -2.99353391E+01  -8.50506379E-01  -7.84799497E+00  -3.33490923E+00  -3.11400778E+01  -4.25044065E+00   1.06393262E+00
   1.48750000E+02   5.00000000E-01   5.00000000E-01  -7.73151572E+00  -2.05951600E+00  -5.30092669E+00  -2.66228100E+00  -2.76408477E+00   1.07447971E-02  -4.93349966E+00   2.23977707E-01   1.86640553E+00   8.81186156E-01   1.81652898E+00  -1.96803095E+00  -9.75842596E-01  -1.31085404E+00  -9.65328315E-01  -2.71882452E+00  -9.09884635E-01  -8.51865754E+00   4.75728350E-01   1.93400917E-01  -1.77675101E+00  -6.57519179E-01   5.65696758E-01  -3.24204843E-02   4.90844916E-01  -1.72404592E+00  -6.67731530E+00  -2.97468662E+01  -8.31216403E-01  -7.79390024E+00  -3.30642051E+00  -3.09775054E+01  -4.23446068E+00   1.06341201E+00
   1.66250000E+02   5.00000000E-01   5.00000000E-01  -7.68037120E+00  -1.96940027E+00  -5.27983468E+00  -2.65217179E+00  -2.75210623E+00   1.07447971E-02  -4.86901664E+00   2.42142097E-01   1.86314315E+00   8.98956022E-01   1.82175773E+00  -1.93738381E+00  -9.63749185E-01  -1.28060424E+00  -9.44842173E-01  -2.69715334E+00  -8.64515884E-01  -8.45765039E+00   4.75243741E-01   1.94287444E-01  -1.76935205E+00  -6.34673038E-01   5.68809122E-01  -9.80090955E-03   5.02785280E-01  -1.71431973E+00  -6.62764676E+00  -2.95641447E+01  -8.11765760E-01  -7.74872262E+00  -3.28947092E+00  -3.08214380E+01  -4.22199285E+00   1.06218755E+00
   1.83750000E+02   5.00000000E-01   5.00000000E-01  -7.62695927E+00  -1.88558434E+00  -5.25749824E+00  -2.63820208E+00  -2.73628641E+00   1.07447971E-02  -4.80776397E+00   2.62861661E-01   1.86269247E+00   9.19287550E-01   1.82969653E+00  -1.91563573E+00  -9.60351640E-01  -1.25924673E+00  -9.33153306E-01  -2.67442663E+00  -8.22412205E-01  -8.40303435E+00   4.71408794E-01   1.94964740E-01  -1.77352808E+00  -6.17896999E-01   5.66066344E-01   6.75315165E-03   5.08764869E-01  -1.71206379E+00  -6.56985358E+00  -2.93851784E+01  -7.92163855E-01  -7.70854450E+00  -3.27883256E+00  -3.06707614E+01  -4.21281805E+00   1.06074581E+00
   2.01250000E+02   5.00000000E-01   5.00000000E-01  -7.57235835E+00  -1.80757301E+00  -5.23456245E+00  -2.62189032E+00  -2.71814345E+00   1.07447971E-02  -4.74959769E+00   2.85305132E-01   1.86421128E+00   9.41348280E-01   1.83950392E+00  -1.89905154E+00  -9.61917581E-01  -1.24304756E+00  -9.26528585E-01  -2.65107747E+00  -7.83219329E-01  -8.35240168E+00   4.65848002E-01   1.95445931E-01  -1.78470158E+00  -6.04494630E-01   5.60161901E-01   1.99369749E-02   5.11477964E-01  -1.71423207E+00  -6.50675532E+00  -2.92089433E+01  -7.72419949E-01  -7.67138942E+00  -3.27188738E+00  -3.05246820E+01  -4.20658296E+00   1.05929991E+00
   2.18750000E+02   5.00000000E-01   5.00000000E-01  -7.51702576E+00  -1.73464339E+00  -5.21130485E+00  -2.60388024E+00  -2.69832079E+00   1.07447971E-02  -4.69420304E+00   3.09137213E-01   1.86735759E+00   9.64801958E-01   1.85083889E+00  -1.88598416E+00  -9.66802903E-01  -1.23036063E+00  -9.23322925E-01  -2.62728539E+00  -7.46526159E-01  -8.30468768E+00   4.59286330E-01   1.95758940E-01  -1.80086423E+00  -5.93267784E-01   5.52290807E-01   3.09477885E-02   5.12120616E-01  -1.71948778E+00  -6.43951335E+00  -2.90349357E+01  -7.52543117E-01  -7.63637173E+00  -3.26747440E+00  -3.03826109E+01  -4.20289155E+00   1.05794887E+00
   2.36250000E+02   5.00000000E-01   5.00000000E-01  -7.46151580E+00  -1.66643212E+00  -5.18800042E+00  -2.58501194E+00  -2.67765825E+00   1.07447971E-02  -4.64139399E+00   3.33709800E-01   1.87147384E+00   9.88999613E-01   1.86304512E+00  -1.87479743E+00  -9.73374627E-01  -1.21955065E+00  -9.21902108E-01  -2.60332949E+00  -7.12152437E-01  -8.25872005E+00   4.52298391E-01   1.95948330E-01  -1.81968912E+00  -5.83168402E-01   5.43497770E-01   4.08328213E-02   5.11738829E-01  -1.72638864E+00  -6.37008879E+00  -2.88627841E+01  -7.32542179E-01  -7.60259816E+00  -3.26442717E+00  -3.02440963E+01  -4.20148110E+00   1.05668962E+00
   2.53750000E+02   5.00000000E-01   5.00000000E-01  -7.40595120E+00  -1.60234370E+00  -5.16470747E+00  -2.56547903E+00  -2.65634916E+00   1.07447971E-02  -4.59086760E+00   3.58870212E-01   1.87640221E+00   1.01378783E+00   1.87596610E+00  -1.86509748E+00  -9.81242076E-01  -1.21022450E+00  -9.21874159E-01  -2.57927398E+00  -6.79802763E-01  -8.21420173E+00   4.45017678E-01   1.96049417E-01  -1.84059628E+00  -5.73947919E-01   5.34028008E-01   4.98399373E-02   5.10579172E-01  -1.73458350E+00  -6.29894180E+00  -2.86923529E+01  -7.12425725E-01  -7.56983649E+00  -3.26245623E+00  -3.01087846E+01  -4.20204354E+00   1.05551722E+00
   2.71250000E+02   5.00000000E-01   5.00000000E-01  -7.35040564E+00  -1.54187493E+00  -5.14145626E+00  -2.54540495E+00  -2.63451668E+00   1.07447971E-02  -4.54236355E+00   3.84506663E-01   1.88202625E+00   1.03905415E+00   1.88948672E+00  -1.85666500E+00  -9.90189135E-01  -1.20216355E+00  -9.23021578E-01  -2.55516212E+00  -6.49231443E-01  -8.17095310E+00   4.37504882E-01   1.96085890E-01  -1.86323271E+00  -5.65480633E-01   5.24003857E-01   5.80941984E-02   5.08765420E-01  -1.74386648E+00  -6.22639322E+00  -2.85235636E+01  -6.92202085E-01  -7.53795123E+00  -3.26139672E+00  -2.99763925E+01  -4.20432218E+00   1.05441963E+00
   2.88750000E+02   5.00000000E-01   5.00000000E-01  -7.29498312E+00  -1.48465861E+00  -5.11828778E+00  -2.52496301E+00  -2.61233385E+00   1.07447970E-02  -4.49568515E+00   4.10453510E-01   1.88817520E+00   1.06463228E+00   1.90343770E+00  -1.84922876E+00  -9.99947804E-01  -1.19509723E+00  -9.25074904E-01  -2.53105675E+00  -6.20265259E-01  -8.12874953E+00   4.29825536E-01   1.96075216E-01  -1.88714584E+00  -5.57620684E-01   5.13567792E-01   6.57408589E-02   5.06441561E-01  -1.75397575E+00  -6.15291031E+00  -2.83563505E+01  -6.71879314E-01  -7.50678165E+00  -3.26104762E+00  -2.98466894E+01  -4.20812040E+00   1.05337589E+00
   3.06250000E+02   5.00000000E-01   5.00000000E-01  -7.23981349E+00  -1.43043488E+00  -5.09525248E+00  -2.50436862E+00  -2.59001583E+00   1.07447970E-02  -4.45068590E+00   4.36500665E-01   1.89463352E+00   1.09031155E+00   1.91760501E+00  -1.84247019E+00  -1.01020277E+00  -1.18870757E+00  -9.27717294E-01  -2.50703714E+00  -5.92788140E-01  -8.08732633E+00   4.22051372E-01   1.96030720E-01  -1.91179543E+00  -5.50202109E-01   5.02882384E-01   7.29453191E-02   5.03771748E-01  -1.76459978E+00  -6.07908234E+00  -2.81906560E+01  -6.51465192E-01  -7.47614349E+00  -3.26117482E+00  -2.97194860E+01  -4.21328893E+00   1.05235805E+00
   3.23750000E+02   5.00000000E-01   5.00000000E-01  -7.18503324E+00  -1.37901451E+00  -5.07240230E+00  -2.48384895E+00  -2.56778952E+00   1.07447970E-02  -4.40725285E+00   4.62422641E-01   1.90117019E+00   1.11586591E+00   1.93175919E+00  -1.83606639E+00  -1.02063435E+00  -1.18267225E+00  -9.30627489E-01  -2.48318773E+00  -5.66721185E-01  -8.04641249E+00   4.14250118E-01   1.95962854E-01  -1.93662428E+00  -5.43061561E-01   4.92107601E-01   7.98704017E-02   5.00917575E-01  -1.77541903E+00  -6.00553861E+00  -2.80264318E+01  -6.30967216E-01  -7.44585151E+00  -3.26154154E+00  -2.95946257E+01  -4.21971175E+00   1.05133449E+00
   3.41250000E+02   5.00000000E-01   5.00000000E-01  -7.13076449E+00  -1.33024494E+00  -5.04978215E+00  -2.46360939E+00  -2.54586006E+00   1.07447970E-02  -4.36529151E+00   4.88010799E-01   1.90757124E+00   1.14108622E+00   1.94568786E+00  -1.82973725E+00  -1.03096565E+00  -1.17671168E+00  -9.33526994E-01  -2.45958563E+00  -5.42003724E-01  -8.00576797E+00   4.06474525E-01   1.95880183E-01  -1.96113673E+00  -5.36063036E-01   4.81376095E-01   8.66516249E-02   4.98013347E-01  -1.78615176E+00  -5.93285742E+00  -2.78636398E+01  -6.10392596E-01  -7.41574429E+00  -3.26194174E+00  -2.94719770E+01  -4.22729364E+00   1.05027377E+00
   3.58750000E+02   5.00000000E-01   5.00000000E-01  -7.07708400E+00  -1.28396975E+00  -5.02741690E+00  -2.44378454E+00  -2.52436179E+00   1.07447970E-02  -4.32470819E+00   5.13119539E-01   1.91368631E+00   1.16582638E+00   1.95924225E+00  -1.82331748E+00  -1.04103453E+00  -1.17066104E+00  -9.36252053E-01  -2.43628265E+00  -5.18570519E-01  -7.96523993E+00   3.98744467E-01   1.95789975E-01  -1.98501616E+00  -5.29136718E-01   4.70754374E-01   9.33583628E-02   4.95127236E-01  -1.79662329E+00  -5.86143471E+00  -2.77022572E+01  -5.89748248E-01  -7.38572248E+00  -3.26225129E+00  -2.93514283E+01  -4.23594594E+00   1.04914975E+00
   3.76250000E+02   5.00000000E-01   5.00000000E-01  -7.02402819E+00  -1.24002591E+00  -5.00531468E+00  -2.42444497E+00  -2.50336505E+00   1.07447970E-02  -4.28540931E+00   5.37663531E-01   1.91942588E+00   1.19000065E+00   1.97233444E+00  -1.81673766E+00  -1.05077468E+00  -1.16445137E+00  -9.38734755E-01  -2.41330701E+00  -4.96349630E-01  -7.92475111E+00   3.91055812E-01   1.95698258E-01  -2.00810336E+00  -5.22264708E-01   4.60257086E-01   1.00008111E-01   4.92275545E-01  -1.80675101E+00  -5.79149471E+00  -2.75422700E+01  -5.69040788E-01  -7.35573883E+00  -3.26241476E+00  -2.92328831E+01  -4.24558468E+00   1.04794312E+00
   3.93750000E+02   5.00000000E-01   5.00000000E-01  -6.97158919E+00  -1.19823412E+00  -4.98346564E+00  -2.40559061E+00  -2.48286955E+00   1.07447970E-02  -4.24729735E+00   5.61625158E-01   1.92476881E+00   1.21359101E+00   1.98494487E+00  -1.81003087E+00  -1.06022224E+00  -1.15811614E+00  -9.41009637E-01  -2.39066065E+00  -4.75256847E-01  -7.88430597E+00   3.83380184E-01   1.95610104E-01  -2.03041020E+00  -5.15483216E-01   4.49844834E-01   1.06564292E-01   4.89420520E-01  -1.81655187E+00  -5.72306975E+00  -2.73836723E+01  -5.48276529E-01  -7.32580174E+00  -3.26245018E+00  -2.91162569E+01  -4.25612633E+00   1.04664280E+00
   4.11250000E+02   5.00000000E-01   5.00000000E-01  -6.91972584E+00  -1.15840503E+00  -4.96184717E+00  -2.38716751E+00  -2.46282108E+00   1.07447969E-02  -4.21027367E+00   5.85040757E-01   1.92974842E+00   1.23663344E+00   1.99710840E+00  -1.80330304E+00  -1.06948612E+00  -1.15176166E+00  -9.43184037E-01  -2.36832500E+00  -4.55199077E-01  -7.84396924E+00   3.75674670E-01   1.95529583E-01  -2.05207633E+00  -5.08864280E-01   4.39442468E-01   1.12954536E-01   4.86488626E-01  -1.82611569E+00  -5.65604094E+00  -2.72264616E+01  -5.27461482E-01  -7.29595947E+00  -3.26242811E+00  -2.90014741E+01  -4.26748885E+00   1.04524545E+00
   4.28750000E+02   5.00000000E-01   5.00000000E-01  -6.86837777E+00  -1.12034958E+00  -4.94043017E+00  -2.36908966E+00  -2.44313341E+00   1.07447969E-02  -4.17424292E+00   6.07981283E-01   1.93443302E+00   1.25919856E+00   2.00889489E+00  -1.79669742E+00  -1.07871245E+00  -1.14553150E+00  -9.45402558E-01  -2.34626876E+00  -4.36080259E-01  -7.80383921E+00   3.67892144E-01   1.95459840E-01  -2.07331421E+00  -5.02495130E-01   4.28959716E-01   1.19091311E-01   4.83391177E-01  -1.83557214E+00  -5.59019427E+00  -2.70706345E+01  -5.06601356E-01  -7.26628122E+00  -3.26244639E+00  -2.88884667E+01  -4.27959413E+00   1.04375395E+00
   4.46250000E+02   5.00000000E-01   5.00000000E-01  -6.81746910E+00  -1.08387983E+00  -4.91918043E+00  -2.35124511E+00  -2.42369437E+00   1.07447969E-02  -4.13911298E+00   6.30546072E-01   1.93891965E+00   1.28138542E+00   2.02040285E+00  -1.79038660E+00  -1.08807668E+00  -1.13959857E+00  -9.47839130E-01  -2.32445025E+00  -4.17802292E-01  -7.76404097E+00   3.59982657E-01   1.95403396E-01  -2.09439464E+00  -4.96474481E-01   4.18294909E-01   1.24875634E-01   4.80028052E-01  -1.84508265E+00  -5.52523806E+00  -2.69161868E+01  -4.85701563E-01  -7.23685276E+00  -3.26262443E+00  -2.87771729E+01  -4.29236744E+00   1.04217641E+00
   4.63750000E+02   5.00000000E-01   5.00000000E-01  -6.76691569E+00  -1.04881387E+00  -4.89806159E+00  -2.33350745E+00  -2.40437732E+00   1.07447969E-02  -4.10479673E+00   6.52851824E-01   1.94332290E+00   1.30331045E+00   2.03174833E+00  -1.78455592E+00  -1.09776687E+00  -1.13414848E+00  -9.50680369E-01  -2.30282172E+00  -4.00268122E-01  -7.72471320E+00   3.51897369E-01   1.95362220E-01  -2.11561902E+00  -4.90903733E-01   4.07343764E-01   1.30205864E-01   4.76296481E-01  -1.85482430E+00  -5.46083421E+00  -2.67631119E+01  -4.64767219E-01  -7.20776743E+00  -3.26309128E+00  -2.86675357E+01  -4.30573827E+00   1.04052485E+00
   4.81250000E+02   5.00000000E-01   5.00000000E-01  -6.71663184E+00  -1.01498056E+00  -4.87703777E+00  -2.31574662E+00  -2.38505200E+00   1.07447968E-02  -4.07121376E+00   6.75022088E-01   1.94776438E+00   1.32509697E+00   2.04305435E+00  -1.77938824E+00  -1.10796856E+00  -1.12936432E+00  -9.54110370E-01  -2.28133336E+00  -3.83384833E-01  -7.68599592E+00   3.43591956E-01   1.95337838E-01  -2.13729353E+00  -4.85879150E-01   3.96007222E-01   1.34985526E-01   4.72098873E-01  -1.86497480E+00  -5.39662796E+00  -2.66114002E+01  -4.43803156E-01  -7.17911802E+00  -3.26397480E+00  -2.85595025E+01  -4.31964141E+00   1.03881381E+00
   4.98750000E+02   5.00000000E-01   5.00000000E-01  -6.66600860E+00  -9.81705740E-01  -4.85583669E+00  -2.29702236E+00  -2.36477793E+00   1.07447968E-02  -4.03805734E+00   6.97889412E-01   1.95308074E+00   1.34757748E+00   2.05515893E+00  -1.77638968E+00  -1.12019044E+00  -1.12675226E+00  -9.59636457E-01  -2.25964854E+00  -3.66782806E-01  -7.64901598E+00   3.34629591E-01   1.95342582E-01  -2.16174578E+00  -4.82273001E-01   3.83410332E-01   1.38342347E-01   4.66561692E-01  -1.87693396E+00  -5.33020857E+00  -2.64611902E+01  -4.22814001E-01  -7.15169844E+00  -3.26633923E+00  -2.84529966E+01  -4.33384147E+00   1.03710823E+00
   5.16250000E+02   5.00000000E-01   5.00000000E-01  -6.61542032E+00  -9.49293694E-01  -4.83464059E+00  -2.27790642E+00  -2.34412665E+00   1.07447968E-02  -4.00547291E+00   7.20992773E-01   1.95880430E+00   1.37029064E+00   2.06759573E+00  -1.77453413E+00  -1.13340895E+00  -1.12528654E+00  -9.66233696E-01  -2.23795941E+00  -3.50618774E-01  -7.61303905E+00   3.25355523E-01   1.95355960E-01  -2.18751037E+00  -4.79442287E-01   3.70193417E-01   1.40919005E-01   4.60326677E-01  -1.88978774E+00  -5.26293713E+00  -2.63123220E+01  -4.01803963E-01  -7.12496829E+00  -3.26946192E+00  -2.83479956E+01  -4.34844112E+00   1.03539876E+00
   5.33750000E+02   5.00000000E-01   5.00000000E-01  -6.56489560E+00  -9.17715185E-01  -4.81346634E+00  -2.25844438E+00  -2.32314355E+00   1.07447968E-02  -3.97344663E+00   7.44306629E-01   1.96490648E+00   1.39321071E+00   2.08033751E+00  -1.77370052E+00  -1.14750546E+00  -1.12484627E+00  -9.73782147E-01  -2.21627776E+00  -3.34875241E-01  -7.57798070E+00   3.15820071E-01   1.95385234E-01  -2.21443461E+00  -4.77300675E-01   3.56440238E-01   1.42801678E-01   4.53478943E-01  -1.90343642E+00  -5.19489910E+00  -2.61647397E+01  -3.80777039E-01  -7.09885764E+00  -3.27325512E+00  -2.82444631E+01  -4.36342546E+00   1.03369101E+00
   5.51250000E+02   5.00000000E-01   5.00000000E-01  -6.51434924E+00  -8.86836155E-01  -4.79227770E+00  -2.23850725E+00  -2.30169942E+00   1.07447967E-02  -3.94191609E+00   7.67952160E-01   1.97150680E+00   1.41645877E+00   2.09350502E+00  -1.77407147E+00  -1.16266496E+00  -1.12561417E+00  -9.82465532E-01  -2.19455469E+00  -3.19478515E-01  -7.54397960E+00   3.05977232E-01   1.95435297E-01  -2.24281857E+00  -4.75945974E-01   3.42050500E-01   1.43892475E-01   4.45919499E-01  -1.91805609E+00  -5.12574813E+00  -2.60184341E+01  -3.59736991E-01  -7.07345931E+00  -3.27784658E+00  -2.81423582E+01  -4.37874297E+00   1.03199817E+00
   5.68750000E+02   5.00000000E-01   5.00000000E-01  -6.46371194E+00  -8.56545069E-01  -4.77104623E+00  -2.21798996E+00  -2.27968901E+00   1.07447967E-02  -3.91083002E+00   7.92030884E-01   1.97870506E+00   1.44013626E+00   2.10719926E+00  -1.77578980E+00  -1.17903257E+00  -1.12773316E+00  -9.92427755E-01  -2.17274943E+00  -3.04366341E-01  -7.51114684E+00   2.95794206E-01   1.95507478E-01  -2.27290642E+00  -4.75451270E-01   3.26948705E-01   1.44118253E-01   4.37574112E-01  -1.93378732E+00  -5.05519522E+00  -2.58733946E+01  -3.38687343E-01  -7.04884678E+00  -3.28333679E+00  -2.80416434E+01  -4.39435042E+00   1.03033307E+00
   5.86250000E+02   5.00000000E-01   5.00000000E-01  -6.41294571E+00  -8.26767292E-01  -4.74975796E+00  -2.19683553E+00  -2.25705516E+00   1.07447967E-02  -3.88015439E+00   8.16603078E-01   1.98655951E+00   1.46430340E+00   2.12147971E+00  -1.77891859E+00  -1.19667359E+00  -1.13126637E+00  -1.00373292E+00  -2.15083804E+00  -2.89496111E-01  -7.47953511E+00   2.85262696E-01   1.95601593E-01  -2.30482279E+00  -4.75842038E-01   3.11107038E-01   1.43453499E-01   4.28416196E-01  -1.95069772E+00  -4.98307170E+00  -2.57296024E+01  -3.17631384E-01  -7.02505202E+00  -3.28977023E+00  -2.79422848E+01  -4.41021775E+00   1.02870617E+00
   6.03750000E+02   5.00000000E-01   5.00000000E-01  -6.36204113E+00  -7.97461607E-01  -4.72841171E+00  -2.17503126E+00  -2.23378496E+00   1.07447967E-02  -3.84987047E+00   8.41689865E-01   1.99508903E+00   1.48898128E+00   2.13636636E+00  -1.78344986E+00  -1.21558222E+00  -1.13620588E+00  -1.01637407E+00  -2.12881235E+00  -2.74843427E-01  -7.44914406E+00   2.74395019E-01   1.95716685E-01  -2.33858288E+00  -4.77102537E-01   2.94538966E-01   1.41913937E-01   4.18460411E-01  -1.96878897E+00  -4.90932239E+00  -2.55870323E+01  -2.96572186E-01  -7.00206979E+00  -3.29714129E+00  -2.78442527E+01  -4.42632683E+00   1.02712491E+00
   6.21250000E+02   5.00000000E-01   5.00000000E-01  -6.31101143E+00  -7.68613681E-01  -4.70701615E+00  -2.15259986E+00  -2.20990095E+00   1.07447966E-02  -3.81997146E+00   8.67280110E-01   2.00428003E+00   1.51415874E+00   2.15184675E+00  -1.78932090E+00  -1.23569782E+00  -1.14248899E+00  -1.03028946E+00  -2.10667706E+00  -2.60398836E-01  -7.41993168E+00   2.63218392E-01   1.95851413E-01  -2.37411522E+00  -4.79186218E-01   2.77288832E-01   1.39546118E-01   4.07752259E-01  -1.98801111E+00  -4.83398503E+00  -2.54456546E+01  -2.75512609E-01  -6.97986610E+00  -3.30540570E+00  -2.77475207E+01  -4.44266911E+00   1.02559374E+00
   6.38750000E+02   5.00000000E-01   5.00000000E-01  -6.25988490E+00  -7.40227910E-01  -4.68558619E+00  -2.12958782E+00  -2.18544943E+00   1.07447966E-02  -3.79045871E+00   8.93340174E-01   2.01409628E+00   1.53980214E+00   2.16788574E+00  -1.79643422E+00  -1.25692495E+00  -1.15001822E+00  -1.04538255E+00  -2.08444563E+00  -2.46163538E-01  -7.39182883E+00   2.51768548E-01   1.96004383E-01  -2.41129111E+00  -4.82027897E-01   2.59419675E-01   1.36415254E-01   3.96355907E-01  -2.00828071E+00  -4.75716166E+00  -2.53054380E+01  -2.54455319E-01  -6.95838869E+00  -3.31449457E+00  -2.76520656E+01  -4.45924277E+00   1.02411453E+00
   6.56250000E+02   5.00000000E-01   5.00000000E-01  -6.20869642E+00  -7.12318543E-01  -4.66413914E+00  -2.10605239E+00  -2.16048747E+00   1.07447966E-02  -3.76133757E+00   9.19825172E-01   2.02449030E+00   1.56586664E+00   2.18443688E+00  -1.80467913E+00  -1.27915490E+00  -1.15868284E+00  -1.06154356E+00  -2.06213576E+00  -2.32144593E-01  -7.36475514E+00   2.40083183E-01   1.96174425E-01  -2.44995715E+00  -4.85556548E-01   2.41000439E-01   1.32592417E-01   3.84341393E-01  -2.02950059E+00  -4.67898586E+00  -2.51663520E+01  -2.33402793E-01  -6.93757841E+00  -3.32432965E+00  -2.75578662E+01  -4.47604960E+00   1.02268729E+00
   6.73750000E+02   5.00000000E-01   5.00000000E-01  -6.15748035E+00  -6.84902250E-01  -4.64269148E+00  -2.08205050E+00  -2.13507184E+00   1.07447966E-02  -3.73261408E+00   9.46688718E-01   2.03541312E+00   1.59230591E+00   2.20145226E+00  -1.81394950E+00  -1.30228345E+00  -1.16837667E+00  -1.07866726E+00  -2.03976546E+00  -2.18350830E-01  -7.33863232E+00   2.28196785E-01   1.96360755E-01  -2.48996256E+00  -4.89705629E-01   2.22095642E-01   1.28144228E-01   3.71774303E-01  -2.05157630E+00  -4.59959457E+00  -2.50283682E+01  -2.12357332E-01  -6.91737859E+00  -3.33483587E+00  -2.74649030E+01  -4.49309229E+00   1.02131091E+00
   6.91250000E+02   5.00000000E-01   5.00000000E-01  -6.10626348E+00  -6.57990830E-01  -4.62125575E+00  -2.05762785E+00  -2.10924806E+00   1.07447965E-02  -3.70429170E+00   9.73892710E-01   2.04682422E+00   1.61908193E+00   2.21889234E+00  -1.82416133E+00  -1.32622846E+00  -1.17901563E+00  -1.09667049E+00  -2.01734910E+00  -2.04788814E-01  -7.31339740E+00   2.16135596E-01   1.96563119E-01  -2.53118644E+00  -4.94423216E-01   2.02755240E-01   1.23122714E-01   3.58705632E-01  -2.07443254E+00  -4.51909983E+00  -2.48914628E+01  -1.91321069E-01  -6.89774435E+00  -3.34595378E+00  -2.73731571E+01  -4.51037183E+00   1.01998396E+00
   7.08750000E+02   5.00000000E-01   5.00000000E-01  -6.05506287E+00  -6.31588882E-01  -4.59983970E+00  -2.03281539E+00  -2.08304691E+00   1.07447965E-02  -3.67637039E+00   1.00141066E+00   2.05869483E+00   1.64616832E+00   2.23672932E+00  -1.83525756E+00  -1.35093470E+00  -1.19054256E+00  -1.11549707E+00  -1.99489612E+00  -1.91461457E-01  -7.28900663E+00   2.03916539E-01   1.96781691E-01  -2.57354603E+00  -4.99674482E-01   1.83012144E-01   1.17562830E-01   3.45169305E-01  -2.09801786E+00  -4.43757933E+00  -2.47556164E+01  -1.70295977E-01  -6.87864521E+00  -3.35764302E+00  -2.72826101E+01  -4.52788659E+00   1.01870509E+00
   7.26250000E+02   5.00000000E-01   5.00000000E-01  -6.00388521E+00  -6.05692994E-01  -4.57844608E+00  -2.00762828E+00  -2.05648339E+00   1.07447965E-02  -3.64884632E+00   1.02922902E+00   2.07100926E+00   1.67355166E+00   2.25494848E+00  -1.84720931E+00  -1.37637504E+00  -1.20292843E+00  -1.13511887E+00  -1.97241061E+00  -1.78367476E-01  -7.26543661E+00   1.91547199E-01   1.97016987E-01  -2.61699924E+00  -5.05442067E-01   1.62881852E-01   1.11482092E-01   3.31181809E-01  -2.12230600E+00  -4.35507282E+00  -2.46208143E+01  -1.49283877E-01  -6.86006577E+00  -3.36988317E+00  -2.71932435E+01  -4.54563207E+00   1.01747336E+00
   7.43750000E+02   5.00000000E-01   5.00000000E-01  -5.95272720E+00  -5.80292014E-01  -4.55707293E+00  -1.98206637E+00  -2.02955719E+00   1.07447965E-02  -3.62171207E+00   1.05734688E+00   2.08376466E+00   1.70123123E+00   2.27354790E+00  -1.86001438E+00  -1.40254900E+00  -1.21617089E+00  -1.15553452E+00  -1.94989139E+00  -1.65501467E-01  -7.24268343E+00   1.79026483E-01   1.97269778E-01  -2.66154309E+00  -5.11725018E-01   1.42363503E-01   1.04881631E-01   3.16743250E-01  -2.14729481E+00  -4.27158298E+00  -2.44870456E+01  -1.28286444E-01  -6.84200498E+00  -3.38267280E+00  -2.71050387E+01  -4.56360090E+00   1.01628831E+00
   7.61250000E+02   5.00000000E-01   5.00000000E-01  -5.90157688E+00  -5.55368257E-01  -4.53571419E+00  -1.95611619E+00  -2.00225467E+00   1.07447965E-02  -3.59495722E+00   1.08577450E+00   2.09696947E+00   1.72921745E+00   2.29253692E+00  -1.87369374E+00  -1.42947923E+00  -1.23029074E+00  -1.17676574E+00  -1.92733270E+00  -1.52854511E-01  -7.22076019E+00   1.66345876E-01   1.97540985E-01  -2.70720876E+00  -5.18536504E-01   1.21442159E-01   9.77484794E-02   3.01839639E-01  -2.17300309E+00  -4.18707997E+00  -2.43543032E+01  -1.07305217E-01  -6.82447426E+00  -3.39602693E+00  -2.70179772E+01  -4.58178326E+00   1.01514999E+00
   7.78750000E+02   5.00000000E-01   5.00000000E-01  -5.85041570E+00  -5.30899487E-01  -4.51436074E+00  -1.92975413E+00  -1.97455208E+00   1.07447965E-02  -3.56856931E+00   1.11453063E+00   2.11064073E+00   1.75752928E+00   2.31193348E+00  -1.88828605E+00  -1.45720601E+00  -1.24532643E+00  -1.19885191E+00  -1.90472526E+00  -1.40415219E-01  -7.19969299E+00   1.53491203E-01   1.97831563E-01  -2.75405352E+00  -5.25900466E-01   1.00092154E-01   9.00589130E-02   2.86446236E-01  -2.19946562E+00  -4.10150919E+00  -2.42225831E+01  -8.63416037E-02  -6.80749463E+00  -3.40997319E+00  -2.69320406E+01  -4.60016761E+00   1.01405884E+00
   7.96250000E+02   5.00000000E-01   5.00000000E-01  -5.79922141E+00  -5.06861711E-01  -4.49300169E+00  -1.90295088E+00  -1.94641995E+00   1.07447964E-02  -3.54253514E+00   1.14363872E+00   2.12480028E+00   1.78619040E+00   2.33176030E+00  -1.90384012E+00  -1.48577974E+00  -1.26132654E+00  -1.22184255E+00  -1.88205789E+00  -1.28171223E-01  -7.17951547E+00   1.40444995E-01   1.98142366E-01  -2.80214958E+00  -5.33847089E-01   7.82816233E-02   8.17829848E-02   2.70532086E-01  -2.22672638E+00  -4.01480225E+00  -2.40918829E+01  -6.53968885E-02  -6.79109273E+00  -3.42454653E+00  -2.68472104E+01  -4.61874171E+00   1.01301552E+00