 TITLE = "Mineral Saturation State" 
VARIABLES = "X"          "Y"              "Z"            "Forsterite"     "Fayalite"       "Brucite"        "Lizardite"      "Chrysotile"     "Saponite(Mg)"   "Enstatite(alph" "Ferrosilite(al" "Anorthite"      "Albite(low)"    "Clinochlore"    "Sudoite"        "Montmorillonit" "Kaolinite"      "Tremolite"      "Pargasite"      "Anhydrite"      "Epidote"        "Scolecite"      "Pyrite"         "FeS(am)"        "Quartz(alpha)" 
 ZONE I=         100 , J=           1 , K=           1  F=POINT
   1.75000000E+01   5.00000000E-01   5.00000000E-01  -6.64899862E+00  -4.12442321E-01  -4.85103657E+00  -3.95109527E-01  -5.11577759E-01   2.92814041E+00  -2.02233575E+00   3.60563364E-02  -1.18585051E+01  -4.63900440E-01   2.30421387E-03  -7.87780239E+00  -1.61724807E+00  -5.31401445E+00  -6.91004998E-01  -3.16208957E+01  -9.49575518E-01  -3.30770649E-06  -6.05615925E+00  -3.17657893E+01  -3.49185343E+00   1.32251183E+00
   5.25000000E+01   5.00000000E-01   5.00000000E-01  -6.63489242E+00  -1.39768042E-01  -4.92500954E+00  -4.43471447E-01  -5.55914022E-01   3.14188662E+00  -1.95145438E+00   2.45195733E-01  -1.13746345E+01  -7.64152616E-03   2.20747726E-03  -7.34222742E+00  -9.39556211E-01  -4.84097568E+00  -2.24710068E-01  -3.08507859E+01  -8.98546630E-01   1.11657691E-06  -5.52056347E+00  -3.12852776E+01  -3.41276991E+00   1.46422499E+00
   8.75000000E+01   5.00000000E-01   5.00000000E-01  -6.56373866E+00  -5.13258372E-02  -4.91701206E+00  -4.57246197E-01  -5.65748429E-01   3.21086227E+00  -1.90537581E+00   3.08729427E-01  -1.11228805E+01   1.21168083E-01   2.12731619E-03  -7.14988572E+00  -7.26170506E-01  -4.67646462E+00  -4.45377805E-02  -3.03422024E+01  -8.48935651E-01   2.01625219E-07  -5.32273996E+00  -3.09433664E+01  -3.40864117E+00   1.49901863E+00
   1.22500000E+02   5.00000000E-01   5.00000000E-01  -6.48582568E+00  -2.23022494E-02  -4.88992962E+00  -4.74182516E-01  -5.78826988E-01   3.22690548E+00  -1.87149922E+00   3.26814023E-01  -1.09246416E+01   1.62364767E-01   2.09790983E-03  -7.02384191E+00  -6.33789026E-01  -4.58132682E+00   1.77538951E-02  -2.99133312E+01  -8.00046774E-01   3.31575648E-08  -5.20861359E+00  -3.06442280E+01  -3.42789818E+00   1.50239001E+00
   1.57500000E+02   5.00000000E-01   5.00000000E-01  -6.40975094E+00  -1.35666590E-02  -4.85899419E+00  -4.96299521E-01  -5.97166208E-01   3.22351044E+00  -1.84318695E+00   3.29955854E-01  -1.07395055E+01   1.79614096E-01   2.09379408E-03  -6.90766807E+00  -5.73723027E-01  -4.50112647E+00   3.28017603E-02  -2.95131902E+01  -7.51487999E-01  -1.07844087E-08  -5.11591546E+00  -3.03622995E+01  -3.45554193E+00   1.49621888E+00
   1.92500000E+02   5.00000000E-01   5.00000000E-01  -6.35692852E+00  -1.79931754E-02  -4.84084512E+00  -5.49840859E-01  -6.47007238E-01   3.19940871E+00  -1.82521110E+00   3.27657308E-01  -1.05115961E+01   2.24219995E-01   2.13234903E-03  -6.70359377E+00  -4.67298969E-01  -4.36435294E+00  -1.90330064E-02  -2.91049382E+01  -7.02778181E-01   2.31805311E-08  -4.97691558E+00  -3.00820184E+01  -3.48746944E+00   1.49238193E+00
   2.27500000E+02   5.00000000E-01   5.00000000E-01  -6.36017558E+00  -4.01003458E-02  -4.85486213E+00  -6.81114573E-01  -7.74655728E-01   3.12832165E+00  -1.83100691E+00   3.20636728E-01  -1.01683086E+01   3.43903913E-01   2.24161332E-03  -6.27414521E+00  -2.34869810E-01  -4.07986762E+00  -2.24270011E-01  -2.86583704E+01  -6.53383858E-01   1.85957672E-07  -4.71307832E+00  -2.97886927E+01  -3.52209084E+00   1.49683236E+00
   2.62500000E+02   5.00000000E-01   5.00000000E-01  -6.32232335E+00  -3.57498591E-02  -4.84502837E+00  -7.51852143E-01  -8.41840866E-01   3.09331599E+00  -1.81942069E+00   3.23536722E-01  -9.92023514E+00   4.04042796E-01   2.25586689E-03  -6.02299415E+00  -1.02898624E-01  -3.91290743E+00  -3.12547420E-01  -2.82548656E+01  -6.03996944E-01   8.11985131E-08  -4.54987274E+00  -2.95114209E+01  -3.55062704E+00   1.49471515E+00
   2.97500000E+02   5.00000000E-01   5.00000000E-01  -6.24984461E+00  -2.17488659E-02  -4.81490955E+00  -7.71484239E-01  -8.57991125E-01   3.08816590E+00  -1.79335808E+00   3.28288414E-01  -9.75370058E+00   4.12971972E-01   2.23715685E-03  -5.92327422E+00  -5.72084206E-02  -3.84609839E+00  -3.03915697E-01  -2.78897271E+01  -5.54896831E-01  -1.10113605E-08  -4.47297755E+00  -2.92539759E+01  -3.57974424E+00   1.48669790E+00
   3.32500000E+02   5.00000000E-01   5.00000000E-01  -6.17004511E+00  -1.33259240E-02  -4.77976330E+00  -7.79414320E-01  -8.62507857E-01   3.08755305E+00  -1.76486612E+00   3.28887164E-01  -9.61035437E+00   4.06272782E-01   2.22747750E-03  -5.86228303E+00  -3.72165871E-02  -3.80618345E+00  -2.78893928E-01  -2.75417612E+01  -5.06128443E-01  -3.30545345E-08  -4.42084568E+00  -2.90094921E+01  -3.61298917E+00   1.47599819E+00
   3.67500000E+02   5.00000000E-01   5.00000000E-01  -6.08911533E+00  -9.13189879E-03  -4.74345365E+00  -7.84207627E-01  -8.63954281E-01   3.08731923E+00  -1.73627050E+00   3.26780771E-01  -9.47589759E+00   3.94124033E-01   2.22497292E-03  -5.81354535E+00  -2.64068369E-02  -3.77525088E+00  -2.51821460E-01  -2.72040320E+01  -4.57696875E-01  -3.80366050E-08  -4.37765398E+00  -2.87740196E+01  -3.64905584E+00   1.46416088E+00
   4.02500000E+02   5.00000000E-01   5.00000000E-01  -6.00865545E+00  -7.11004646E-03  -4.70708671E+00  -7.88005454E-01  -8.64469751E-01   3.08678988E+00  -1.70806475E+00   3.23307666E-01  -9.34623095E+00   3.79749768E-01   2.22606840E-03  -5.76988235E+00  -1.97209472E-02  -3.74825989E+00  -2.25309656E-01  -2.68739803E+01  -4.09598018E-01  -3.76581874E-08  -4.33870475E+00  -2.85456191E+01  -3.68681586E+00   1.45180457E+00
   4.37500000E+02   5.00000000E-01   5.00000000E-01  -5.92925721E+00  -6.13736329E-03  -4.67107488E+00  -7.91624777E-01  -8.64869378E-01   3.08570712E+00  -1.68042799E+00   3.19149513E-01  -9.21970123E+00   3.64394429E-01   2.22886480E-03  -5.72853047E+00  -1.52083179E-02  -3.72326246E+00  -2.00239878E-01  -2.65504301E+01  -3.61825083E-01  -3.47920828E-08  -4.30212566E+00  -2.83233224E+01  -3.72566311E+00   1.43916818E+00
   4.72500000E+02   5.00000000E-01   5.00000000E-01  -5.85119282E+00  -5.67470888E-03  -4.63560032E+00  -7.95472581E-01  -8.65558356E-01   3.08390433E+00  -1.65345025E+00   3.14625218E-01  -9.09546401E+00   3.48618879E-01   2.23250243E-03  -5.68814877E+00  -1.19755398E-02  -3.69932441E+00  -1.77059526E-01  -2.62327122E+01  -3.14370613E-01  -3.04182576E-08  -4.26699432E+00  -2.81066100E+01  -3.76529341E+00   1.42634902E+00
   5.07500000E+02   5.00000000E-01   5.00000000E-01  -5.77459150E+00  -5.46514457E-03  -4.60074902E+00  -7.99764839E-01  -8.66750940E-01   3.08128362E+00  -1.62717492E+00   3.09887602E-01  -8.97302913E+00   3.32711205E-01   2.23660612E-03  -5.64802213E+00  -9.55847806E-03  -3.67594702E+00  -1.55966851E-01  -2.59203680E+01  -2.67227232E-01  -2.49938277E-08  -4.23279207E+00  -2.78951729E+01  -3.80555208E+00   1.41339455E+00
   5.42500000E+02   5.00000000E-01   5.00000000E-01  -5.69950568E+00  -5.38288091E-03  -4.56656026E+00  -8.04609551E-01  -8.68553472E-01   3.07780394E+00  -1.60161551E+00   3.05015297E-01  -8.85209072E+00   3.16837030E-01   2.24101503E-03  -5.60776400E+00  -7.69211707E-03  -3.65285245E+00  -1.36985917E-01  -2.56130387E+01  -2.20387923E-01  -1.87981951E-08  -4.19920136E+00  -2.76888043E+01  -3.84635664E+00   1.40033503E+00
   5.77500000E+02   5.00000000E-01   5.00000000E-01  -5.62594424E+00  -5.36448523E-03  -4.53304858E+00  -8.10051286E-01  -8.71008932E-01   3.07346378E+00  -1.57676691E+00   3.00052504E-01  -8.73244761E+00   3.01100608E-01   2.24565140E-03  -5.56717274E+00  -6.21402384E-03  -3.62988457E+00  -1.20029843E-01  -2.53104211E+01  -1.73846075E-01  -1.20414628E-08  -4.16601529E+00  -2.74873479E+01  -3.88765948E+00   1.38719430E+00
   6.12500000E+02   5.00000000E-01   5.00000000E-01  -5.55389168E+00  -5.37758082E-03  -4.50021488E+00  -8.16098392E-01  -8.74124134E-01   3.06828500E+00  -1.55261338E+00   2.95026196E-01  -8.61396038E+00   2.85572153E-01   2.25045067E-03  -5.52615198E+00  -5.01910589E-03  -3.60695642E+00  -1.04951140E-01  -2.50122487E+01  -1.27595438E-01  -4.90395226E-09  -4.13309174E+00  -2.72906723E+01  -3.92942940E+00   1.37399286E+00
   6.47500000E+02   5.00000000E-01   5.00000000E-01  -5.48331952E+00  -5.40601479E-03  -4.46805246E+00  -8.22739816E-01  -8.77886553E-01   3.06230090E+00  -1.52913395E+00   2.89953893E-01  -8.49652680E+00   2.70301331E-01   2.25533450E-03  -5.48466409E+00  -4.03629029E-03  -3.58402043E+00  -9.15766383E-02  -2.47182824E+01  -8.16300299E-02   2.44872519E-09  -4.10032798E+00  -2.70986579E+01  -3.97164221E+00   1.36074859E+00
   6.82500000E+02   5.00000000E-01   5.00000000E-01  -5.41419304E+00  -5.44236902E-03  -4.43655045E+00  -8.29955206E-01  -8.82274415E-01   3.05554861E+00  -1.50630573E+00   2.84847481E-01  -8.38006728E+00   2.55324522E-01   2.26022273E-03  -5.44270287E+00  -3.21568313E-03  -3.56105125E+00  -7.97290643E-02  -2.44283042E+01  -3.59440368E-02   9.86011706E-09  -4.06764602E+00  -2.69111898E+01  -4.01427576E+00   1.34747687E+00
   7.17500000E+02   5.00000000E-01   5.00000000E-01  -5.34647517E+00  -5.48392232E-03  -4.40569579E+00  -8.37720686E-01  -8.87262477E-01   3.04806470E+00  -1.48410573E+00   2.79715274E-01  -8.26451629E+00   2.40669013E-01   2.26506741E-03  -5.40027785E+00  -2.52117866E-03  -3.53803583E+00  -6.92389843E-02  -2.41421146E+01   9.46827056E-03   1.71818126E-08  -4.03498398E+00  -2.67281539E+01  -4.05730745E+00   1.33419072E+00
   7.52500000E+02   5.00000000E-01   5.00000000E-01  -5.28012845E+00  -5.53030828E-03  -4.37547426E+00  -8.46011774E-01  -8.92824939E-01   3.03988320E+00  -1.46251184E+00   2.74563285E-01  -8.14981750E+00   2.26355576E-01   2.26984260E-03  -5.35740602E+00  -1.92613906E-03  -3.51496804E+00  -5.99497509E-02  -2.38595288E+01   5.46126015E-02   2.42746061E-08  -4.00229100E+00  -2.65494353E+01  -4.10071299E+00   1.32090092E+00
   7.87500000E+02   5.00000000E-01   5.00000000E-01  -5.21511604E+00  -5.58217718E-03  -4.34587115E+00  -8.54804843E-01  -8.98936903E-01   3.03103482E+00  -1.44150317E+00   2.69396021E-01  -8.03592082E+00   2.12400260E-01   2.27453620E-03  -5.31410733E+00  -1.41059554E-03  -3.49184569E+00  -5.17189016E-02  -2.35803751E+01   9.94946845E-02   3.10111724E-08  -3.96952403E+00  -2.63749182E+01  -4.14446595E+00   1.30761632E+00
   8.22500000E+02   5.00000000E-01   5.00000000E-01  -5.15140225E+00  -5.64039030E-03  -4.31687162E+00  -8.64077737E-01  -9.05574987E-01   3.02154691E+00  -1.42106017E+00   2.64217034E-01  -7.92278039E+00   1.98815722E-01   2.27914713E-03  -5.27040240E+00  -9.59365742E-04  -3.46866871E+00  -4.44174779E-02  -2.33044921E+01   1.44120284E-01   3.72788719E-08  -3.93664563E+00  -2.62044854E+01  -4.18853778E+00   1.29434411E+00
   8.57500000E+02   5.00000000E-01   5.00000000E-01  -5.08895273E+00  -5.70553735E-03  -4.28846089E+00  -8.73810011E-01  -9.12717564E-01   3.01144362E+00  -1.40116462E+00   2.59029279E-01  -7.81035331E+00   1.85612222E-01   2.28368870E-03  -5.22631124E+00  -5.60759925E-04  -3.44543825E+00  -3.79285914E-02  -2.30317266E+01   1.88495195E-01   4.29823057E-08  -3.90362232E+00  -2.60380189E+01  -4.23289799E+00   1.28109005E+00
   8.92500000E+02   5.00000000E-01   5.00000000E-01  -5.02773454E+00  -5.77763027E-03  -4.26062442E+00  -8.83982980E-01  -9.20344807E-01   3.00074611E+00  -1.38179955E+00   2.53835367E-01  -7.69859849E+00   1.72798401E-01   2.28818572E-03  -5.18185267E+00  -2.05680775E-04  -3.42215602E+00  -3.21456388E-02  -2.27619322E+01   2.32625231E-01   4.80449137E-08  -3.87042339E+00  -2.58754011E+01  -4.27751449E+00   1.26785868E+00
   9.27500000E+02   5.00000000E-01   5.00000000E-01  -4.96771627E+00  -5.85594072E-03  -4.23334796E+00  -8.94579846E-01  -9.28438817E-01   2.98947267E+00  -1.36294927E+00   2.48637711E-01  -7.58747570E+00   1.60381880E-01   2.29267577E-03  -5.13704365E+00   1.13043765E-04  -3.39882385E+00  -2.69709667E-02  -2.24949666E+01   2.76516184E-01   5.24098979E-08  -3.83701974E+00  -2.57165148E+01  -4.32235397E+00   1.25465342E+00
   9.62500000E+02   5.00000000E-01   5.00000000E-01  -4.90886812E+00  -5.93889932E-03  -4.20661765E+00  -9.05585871E-01  -9.36983792E-01   2.97763861E+00  -1.34459937E+00   2.43438599E-01  -7.47694453E+00   1.48369746E-01   2.29721103E-03  -5.09189869E+00   4.01156709E-04  -3.37544317E+00  -2.23148704E-02  -2.22306907E+01   3.20173794E-01   5.60400245E-08  -3.80338281E+00  -2.55612443E+01  -4.36738220E+00   1.24147665E+00
   9.97500000E+02   5.00000000E-01   5.00000000E-01  -4.85116206E+00  -6.02402256E-03  -4.18042007E+00  -9.16988590E-01  -9.45966238E-01   2.96525607E+00  -1.32673680E+00   2.38240241E-01  -7.36696345E+00   1.36768945E-01   2.30185906E-03  -5.04642923E+00   6.63347223E-04  -3.35201466E+00  -1.80947804E-02  -2.19689664E+01   3.63603701E-01   5.89166673E-08  -3.76948368E+00  -2.54094762E+01  -4.41256439E+00   1.22832969E+00
   1.03250000E+03   5.00000000E-01   5.00000000E-01  -4.79457203E+00  -6.10789673E-03  -4.15474231E+00  -9.28778174E-01  -9.55375335E-01   2.95233370E+00  -1.30934998E+00   2.33044750E-01  -7.25748876E+00   1.25586604E-01   2.30670156E-03  -5.00064275E+00   9.03568107E-04  -3.32853773E+00  -1.42350818E-02  -2.17096552E+01   4.06811392E-01   6.10382402E-08  -3.73529204E+00  -2.52610997E+01  -4.45786540E+00   1.21521279E+00
   1.06750000E+03   5.00000000E-01   5.00000000E-01  -4.73907429E+00  -6.18621124E-03  -4.12957208E+00  -9.40948081E-01  -9.65203580E-01   2.93887581E+00  -1.29242908E+00   2.27854052E-01  -7.14847330E+00   1.14830273E-01   2.31185537E-03  -4.95454134E+00   1.12532114E-03  -3.30500970E+00  -1.06679061E-02  -2.14526166E+01   4.49802161E-01   6.24181912E-08  -3.70077504E+00  -2.51160076E+01  -4.50324999E+00   1.20212493E+00
   1.10250000E+03   5.00000000E-01   5.00000000E-01  -4.68464849E+00  -6.25382812E-03  -4.10489796E+00  -9.53496955E-01  -9.75448689E-01   2.92488009E+00  -1.27596680E+00   2.22669584E-01  -7.03986410E+00   1.04507946E-01   2.31750232E-03  -4.90811779E+00   1.33196652E-03  -3.28142388E+00  -7.33804802E-03  -2.11977073E+01   4.92581059E-01   6.30829724E-08  -3.66589555E+00  -2.49740958E+01  -4.54868274E+00   1.18906332E+00
   1.13750000E+03   5.00000000E-01   5.00000000E-01  -5.92893300E+00  -8.99633172E-01  -4.37895223E+00  -3.26349649E+00  -3.28318145E+00   7.59738955E-03  -2.25937091E+00  -5.79756752E-01  -5.02964406E+00  -3.57691597E-01  -1.02190473E-02  -3.96989839E-01   2.10887394E-02  -1.07792866E+00  -7.66053981E+00  -2.16671656E+01   5.34742369E-01   6.10361480E-07  -2.42982348E+00  -2.47493678E+01  -4.66142777E+00   4.74853706E-01
   1.17250000E+03   5.00000000E-01   5.00000000E-01  -5.51440081E+00  -3.40699629E-01  -4.26760315E+00  -2.64005088E+00  -2.65750521E+00   7.86855219E-01  -1.96924780E+00  -2.11980887E-01  -5.42883270E+00  -2.47211956E-01   2.82917592E-03  -1.58566256E+00  -1.82328818E-03  -1.66626201E+00  -5.51414102E+00  -2.11609525E+01   5.77097052E-01  -1.41641219E-08  -2.71432776E+00  -2.44964021E+01  -4.53181864E+00   6.48759117E-01
   1.20750000E+03   5.00000000E-01   5.00000000E-01  -5.28495550E+00  -9.53425626E-02  -4.20407172E+00  -2.33777216E+00  -2.35303114E+00   1.17196230E+00  -1.81628172E+00  -4.56784010E-02  -5.56918880E+00  -1.85454195E-01   2.66722757E-03  -2.15349023E+00   6.20623943E-04  -1.94159691E+00  -4.42718163E+00  -2.07791657E+01   6.19860914E-01   8.08904406E-09  -2.82864163E+00  -2.43231264E+01  -4.50886759E+00   7.33317307E-01
   1.24250000E+03   5.00000000E-01   5.00000000E-01  -5.12404534E+00   1.07208405E-02  -4.15629474E+00  -2.15564521E+00  -2.16874332E+00   1.40468109E+00  -1.71598582E+00   3.25046649E-02  -5.61644988E+00  -1.50443186E-01   2.55872614E-03  -2.48764659E+00   2.19660866E-03  -2.10335733E+00  -3.75263905E+00  -2.04512094E+01   6.62789524E-01   1.25378924E-08  -2.88608988E+00  -2.41902609E+01  -4.53481469E+00   7.80952939E-01
   1.27750000E+03   5.00000000E-01   5.00000000E-01  -4.99504474E+00   5.21973309E-02  -4.11596249E+00  -2.02875319E+00  -2.03972412E+00   1.56729467E+00  -1.64004595E+00   6.99245318E-02  -5.62124827E+00  -1.27497275E-01   2.52536372E-03  -2.71450626E+00   3.35115497E-03  -2.21302437E+00  -3.26728629E+00  -2.01489468E+01   7.05670161E-01   1.43228826E-08  -2.91731120E+00  -2.40775622E+01  -4.58340734E+00   8.11671288E-01
   1.31250000E+03   5.00000000E-01   5.00000000E-01  -4.88609913E+00   6.36698093E-02  -4.08056397E+00  -1.93592183E+00  -1.94479851E+00   1.68712868E+00  -1.57912020E+00   8.72887263E-02  -5.59812876E+00  -1.10312732E-01   2.53945078E-03  -2.87463432E+00   5.63958041E-03  -2.28996286E+00  -2.89433407E+00  -1.98589286E+01   7.48504725E-01   1.74185002E-08  -2.93003009E+00  -2.39742094E+01  -4.64124502E+00   8.32304105E-01
   1.34750000E+03   5.00000000E-01   5.00000000E-01  -4.79071694E+00   6.28617309E-02  -4.04841636E+00  -1.86587419E+00  -1.87268879E+00   1.77791783E+00  -1.52840152E+00   9.50216513E-02  -5.55546799E+00  -9.68991242E-02   2.60908321E-03  -2.99078107E+00   7.91797899E-03  -2.34565586E+00  -2.59421348E+00  -1.95745832E+01   7.91341954E-01   2.03950288E-08  -2.92950936E+00  -2.38747860E+01  -4.70130639E+00   8.45976358E-01
   1.38250000E+03   5.00000000E-01   5.00000000E-01  -5.52634201E+00  -4.74687770E-01  -4.20843050E+00  -3.26460987E+00  -3.26939386E+00   1.59213008E-02  -2.11642462E+00  -3.88918542E-01  -4.27561734E+00  -3.57927744E-01  -1.03520235E-03  -2.40260502E-01   3.52524379E-02  -9.99649175E-01  -7.15413147E+00  -1.97070104E+01   8.32983607E-01   1.08506239E-07  -2.13773452E+00  -2.37237781E+01  -4.79467416E+00   4.13064846E-01
   1.41750000E+03   5.00000000E-01   5.00000000E-01  -5.45851068E+00  -2.79242133E-01  -4.17854362E+00  -3.24528648E+00  -3.24807065E+00   3.09412990E-02  -2.09079026E+00  -2.94494847E-01  -4.17105953E+00  -3.58404245E-01   2.59469816E-03  -2.68543144E-01   1.62530558E-02  -1.02156067E+00  -6.98686166E+00  -1.93779799E+01   8.74898626E-01   1.99210518E-08  -2.09686191E+00  -2.35372370E+01  -4.74691196E+00   4.03906666E-01
   1.45250000E+03   5.00000000E-01   5.00000000E-01  -5.30257703E+00  -8.47036967E-02  -4.13233531E+00  -3.06505424E+00  -3.06586867E+00   2.58640190E-01  -1.99327462E+00  -1.72756273E-01  -4.19801993E+00  -3.13072836E-01   2.89336828E-03  -6.03550623E-01   1.65345100E-02  -1.18585839E+00  -6.26943754E+00  -1.90027376E+01   9.17229945E-01   1.10848793E-08  -2.13132336E+00  -2.33871050E+01  -4.72759727E+00   4.50305805E-01
   1.48750000E+03   5.00000000E-01   5.00000000E-01  -5.15754614E+00   3.10339127E-02  -4.08927812E+00  -2.90247185E+00  -2.90134600E+00   4.65179661E-01  -1.90341187E+00  -9.26800252E-02  -4.21568476E+00  -2.71670305E-01   3.05270008E-03  -9.02872857E-01   1.88975627E-02  -1.33188445E+00  -5.61945027E+00  -1.86480063E+01   9.59833197E-01   7.01047389E-09  -2.16037645E+00  -2.32705096E+01  -4.74439223E+00   4.92201147E-01
   1.52250000E+03   5.00000000E-01   5.00000000E-01  -5.06058070E+00   7.27630941E-02  -4.05775208E+00  -2.82350526E+00  -2.82046794E+00   5.66831057E-01  -1.84998637E+00  -6.20716762E-02  -4.16478362E+00  -2.45385559E-01   3.05321551E-03  -1.03823655E+00   2.39523484E-02  -1.39731362E+00  -5.24819016E+00  -1.83226874E+01   1.00246265E+00   6.08643990E-09  -2.14516465E+00  -2.31731600E+01  -4.78454927E+00   5.09188838E-01
   1.55750000E+03   5.00000000E-01   5.00000000E-01  -4.99251954E+00   8.40018706E-02  -4.03293514E+00  -2.79467425E+00  -2.78975366E+00   6.04784708E-01  -1.81866061E+00  -5.44141289E-02  -4.06966635E+00  -2.27359093E-01   3.12589362E-03  -1.07624499E+00   2.94516801E-02  -1.41550151E+00  -5.03745683E+00  -1.80064656E+01   1.04498076E+00   5.22150452E-09  -2.10053174E+00  -2.30834612E+01  -4.83166218E+00   5.10784747E-01
   1.59250000E+03   5.00000000E-01   5.00000000E-01  -4.95607562E+00   7.96188571E-02  -4.01576541E+00  -2.82048621E+00  -2.81370995E+00   5.74211241E-01  -1.81121109E+00  -6.26919316E-02  -3.92201604E+00  -2.15105389E-01   3.25504939E-03  -1.00685378E+00   3.81938936E-02  -1.38089698E+00  -4.99316017E+00  -1.76903670E+01   1.08727686E+00   4.40509564E-09  -2.01900842E+00  -2.29952157E+01  -4.87805872E+00   4.96150873E-01
   1.62750000E+03   5.00000000E-01   5.00000000E-01  -4.96960477E+00   6.19017777E-02  -4.01113168E+00  -2.93278312E+00  -2.92417821E+00   4.36735214E-01  -1.84110644E+00  -9.00508324E-02  -3.68870768E+00  -2.09204901E-01   3.45342308E-03  -7.65133243E-01   5.59055771E-02  -1.26042664E+00  -5.20832261E+00  -1.73699339E+01   1.12914492E+00   3.52977638E-09  -1.87605857E+00  -2.29030863E+01  -4.91831885E+00   4.56707717E-01
   1.66250000E+03   5.00000000E-01   5.00000000E-01  -5.02521582E+00   4.67593683E-02  -4.01775539E+00  -3.11707985E+00  -3.10667276E+00   2.12099194E-01  -1.90173568E+00  -1.25869968E-01  -3.37555076E+00  -2.01777606E-01   3.64988946E-03  -3.77398871E-01   8.67906403E-02  -1.06585122E+00  -5.62203125E+00  -1.70267012E+01   1.16999228E+00   2.38324813E-09  -1.67216817E+00  -2.28055274E+01  -4.94750159E+00   3.97788002E-01
   1.69750000E+03   5.00000000E-01   5.00000000E-01  -5.04413069E+00   7.39458994E-02  -4.01645408E+00  -3.23502090E+00  -3.22283753E+00   7.20606872E-02  -1.93350476E+00  -1.30066143E-01  -3.10266452E+00  -1.71595220E-01   3.64557431E-03  -1.18691569E-01   1.21590159E-01  -9.33658757E-01  -5.78238441E+00  -1.66260529E+01   1.20755270E+00   1.19923762E-09  -1.48705358E+00  -2.27135476E+01  -4.96687614E+00   3.59803587E-01
   1.73250000E+03   5.00000000E-01   5.00000000E-01  -5.02709348E+00   1.17044982E-01  -4.01703871E+00  -3.27830122E+00  -3.26436696E+00   5.33256044E-02  -1.92734837E+00  -1.06409171E-01  -2.85349701E+00  -7.10844141E-02   3.53027884E-03   3.30768975E-02   2.24477586E-01  -8.33547265E-01  -5.61496677E+00  -1.61379845E+01   1.23247812E+00   5.42458108E-10  -1.28529519E+00  -2.26467048E+01  -4.99855372E+00   3.61630982E-01
   1.76750000E+03   5.00000000E-01   5.00000000E-01  -4.99778101E+00   1.49435736E-01  -4.03117659E+00  -3.28262451E+00  -3.26696423E+00   1.27748979E-01  -1.89527760E+00  -6.83811599E-02  -2.58632425E+00   1.24535257E-01   3.38628916E-03   1.72489224E-01   4.38145939E-01  -7.06721487E-01  -5.21504661E+00  -1.55600791E+01   1.21441548E+00   2.24705269E-10  -1.02552121E+00  -2.26242121E+01  -5.05541107E+00   4.02926617E-01
   1.80250000E+03   5.00000000E-01   5.00000000E-01  -4.96327408E+00   1.65364259E-01  -4.03069003E+00  -3.29034698E+00  -3.27298503E+00   1.60895166E-01  -1.87255246E+00  -5.05777012E-02  -2.35369242E+00   2.67206391E-01   3.38145523E-03   2.64819819E-01   5.65544192E-01  -6.30432515E-01  -4.89986545E+00  -1.50189652E+01   1.10682644E+00   7.63438758E-11  -8.23723798E-01  -2.26560933E+01  -5.11087490E+00   4.20252973E-01
   1.83750000E+03   5.00000000E-01   5.00000000E-01  -4.96164227E+00   1.63923689E-01  -4.02999410E+00  -3.36320920E+00  -3.34416947E+00   9.01978656E-02  -1.88282899E+00  -5.80725146E-02  -2.04759302E+00   3.85845374E-01   3.47494024E-03   4.53076149E-01   6.49925359E-01  -5.23374059E-01  -4.76205907E+00  -1.44179199E+01   9.15899742E-01   2.81275032E-11  -5.81143541E-01  -2.27502789E+01  -5.16188816E+00   4.04369250E-01
   1.87250000E+03   5.00000000E-01   5.00000000E-01  -5.06030917E+00   1.45327755E-01  -4.05349642E+00  -3.61166684E+00  -3.59097272E+00  -1.99598191E-01  -1.96912463E+00  -1.00063478E-01  -1.48287247E+00   5.24410280E-01   3.65815190E-03   9.88376022E-01   7.59886459E-01  -2.44876783E-01  -4.98361213E+00  -1.35995905E+01   6.97579685E-01   7.37980513E-12  -1.31244662E-01  -2.28961575E+01  -5.20190706E+00   3.36665743E-01
   1.90750000E+03   5.00000000E-01   5.00000000E-01  -5.00811466E+00   1.44002131E-01  -3.99210743E+00  -3.64250498E+00  -3.62017943E+00  -3.51566143E-01  -1.98937032E+00  -1.42847843E-01  -1.02999628E+00   5.61081030E-01   3.69907353E-03   8.98643716E-01   5.63949624E-01  -3.73570868E-01  -4.33894702E+00  -1.23787629E+01   4.95737318E-01   6.86601147E-13   1.88478992E-01  -2.32166071E+01  -5.25784505E+00   2.50122067E-01
   1.94250000E+03   5.00000000E-01   5.00000000E-01  -4.63676175E+00   7.29101929E-02  -3.78082058E+00  -3.18415155E+00  -3.16021705E+00  -9.43046666E-02  -1.84027707E+00  -2.10802554E-01  -7.52971650E-01   5.43283977E-01   3.61607900E-03  -4.50941596E-01  -7.58658356E-02  -1.27272479E+00  -1.59828362E+00  -1.01744509E+01   3.31578166E-01   1.54292393E-14   3.52294973E-01  -2.40970987E+01  -5.51494320E+00   1.83020753E-01
   1.97750000E+03   5.00000000E-01   5.00000000E-01  -4.40287105E+00   5.69234732E-03  -3.62726200E+00  -2.94223664E+00  -2.91671526E+00  -3.98766380E-02  -1.77084080E+00  -2.87792168E-01  -4.62506095E-01   4.87441533E-01   3.12129074E-03  -1.27579622E+00  -5.80944062E-01  -1.86309843E+00   8.93598620E-02  -8.54276411E+00   2.11151568E-01   7.71461963E-15   5.08118420E-01  -2.48523479E+01  -5.79594135E+00   9.39920827E-02
   2.01250000E+03   5.00000000E-01   5.00000000E-01  -4.31912962E+00   6.31533270E-04  -3.53584776E+00  -2.93773296E+00  -2.91064633E+00  -2.10621451E-01  -1.78933392E+00  -3.46603260E-01  -2.52665122E-01   3.41103110E-01   2.56542836E-03  -1.52828112E+00  -9.59653321E-01  -2.11837753E+00   4.30259671E-01  -7.77212165E+00   1.31523557E-01   3.08584785E-15   5.58020077E-01  -2.51721661E+01  -5.92290898E+00  -2.08202244E-02
   2.04750000E+03   5.00000000E-01   5.00000000E-01  -4.24376728E+00   2.21666024E-04  -3.45541802E+00  -2.93827429E+00  -2.90964363E+00  -3.63519852E-01  -1.80514748E+00  -3.96264213E-01  -1.60597384E-01   1.64270321E-01   2.35912145E-03  -1.73516225E+00  -1.30328838E+00  -2.33337372E+00   5.11101399E-01  -7.33792159E+00   8.38019086E-02  -1.23433914E-14   5.04293110E-01  -2.53193045E+01  -5.99834317E+00  -1.21967033E-01
   2.08250000E+03   5.00000000E-01   5.00000000E-01  -4.16913136E+00   1.29306861E-04  -3.38468766E+00  -2.92985438E+00  -2.89970050E+00  -4.79630036E-01  -1.81191530E+00  -4.36401107E-01  -1.16303114E-01   1.88494404E-03   2.27205662E-03  -1.92238642E+00  -1.59542658E+00  -2.51979854E+00   5.42350090E-01  -7.03329206E+00   5.69833722E-02  -6.17169570E-15   4.22011209E-01  -2.53840575E+01  -6.05312841E+00  -2.04367246E-01
   2.11750000E+03   5.00000000E-01   5.00000000E-01  -4.09673487E+00   9.53228691E-05  -3.32258587E+00  -2.91658372E+00  -2.88492706E+00  -5.68003432E-01  -1.81222258E+00  -4.68971426E-01  -9.18951637E-02  -1.39522989E-01   2.22423381E-03  -2.08767527E+00  -1.84070934E+00  -2.67940540E+00   5.59361873E-01  -6.79355044E+00   4.24098598E-02   6.17169570E-15   3.35398488E-01  -2.53998011E+01  -6.09620666E+00  -2.71676874E-01
   2.15250000E+03   5.00000000E-01   5.00000000E-01  -4.02694888E+00   7.97253886E-05  -3.26733571E+00  -2.90099477E+00  -2.86785537E+00  -6.36894497E-01  -1.80821866E+00  -4.95958226E-01  -7.70094166E-02  -2.62685063E-01   2.19436051E-03  -2.23347198E+00  -2.04924900E+00  -2.81714988E+00   5.70220236E-01  -6.59256542E+00   3.45719671E-02   0.00000000E+00   2.50885885E-01  -2.53838693E+01  -6.13156587E+00  -3.27822206E-01
   2.18750000E+03   5.00000000E-01   5.00000000E-01  -3.95957581E+00   7.16797198E-05  -3.21735011E+00  -2.88429242E+00  -2.84968994E+00  -6.92008141E-01  -1.80129434E+00  -5.18855777E-01  -6.72181606E-02  -3.71384598E-01   2.17455867E-03  -2.36352030E+00  -2.22999667E+00  -2.93797398E+00   5.77747486E-01  -6.41695477E+00   3.03210674E-02   1.54292393E-15   1.69916489E-01  -2.53467324E+01  -6.16154070E+00  -3.75781115E-01
   2.22250000E+03   5.00000000E-01   5.00000000E-01  -3.89428800E+00   6.72284009E-05  -3.17140025E+00  -2.86706295E+00  -2.83101671E+00  -7.37212925E-01  -1.79235209E+00  -5.38731643E-01  -6.03949077E-02  -4.68850101E-01   2.16102607E-03  -2.48123034E+00  -2.38980552E+00  -3.04587148E+00   5.83248928E-01  -6.25891849E+00   2.79540105E-02   2.31438589E-15   9.24788420E-02  -2.52950751E+01  -6.18764631E+00  -4.17684931E-01
   2.25750000E+03   5.00000000E-01   5.00000000E-01  -3.83077408E+00   6.46653564E-05  -3.12857268E+00  -2.84960950E+00  -2.81213847E+00  -7.75172963E-01  -1.78199526E+00  -5.56345022E-01  -5.54230903E-02  -5.57577618E-01   2.15162932E-03  -2.58933024E+00  -2.53373100E+00  -3.14387275E+00   5.87422921E-01  -6.11355431E+00   2.65763232E-02  -3.85730981E-15   1.81661788E-02  -2.52333109E+01  -6.21091269E+00  -4.55050500E-01
   2.29250000E+03   5.00000000E-01   5.00000000E-01  -3.76877482E+00   6.31697527E-05  -3.08819511E+00  -2.83209807E+00  -2.79322084E+00  -8.07756417E-01  -1.77063817E+00  -5.72239573E-01  -5.16723134E-02  -6.39439977E-01   2.14503459E-03  -2.68990877E+00  -2.66547245E+00  -3.23423234E+00   5.90680350E-01  -5.97761930E+00   2.57256518E-02   5.40023374E-15  -5.34841112E-02  -2.51644366E+01  -6.23206102E+00  -4.88964467E-01
   2.32750000E+03   5.00000000E-01   5.00000000E-01  -3.70808449E+00   6.23125046E-05  -3.04977215E+00  -2.81462446E+00  -2.77435933E+00  -8.36295611E-01  -1.75857171E+00  -5.86808595E-01  -4.87641914E-02  -7.15831231E-01   2.14038953E-03  -2.78454015E+00  -2.78774247E+00  -3.31862061E+00   5.93278403E-01  -5.84888723E+00   2.51609848E-02   5.40023374E-15  -1.22886197E-01  -2.50905383E+01  -6.25160743E+00  -5.20213153E-01
   2.36250000E+03   5.00000000E-01   5.00000000E-01  -3.64854273E+00   6.18540001E-05  -3.01293669E+00  -2.79724670E+00  -2.75561162E+00  -8.61755082E-01  -1.74600385E+00  -6.00339727E-01  -4.64598101E-02  -7.87790112E-01   2.13716266E-03  -2.87440627E+00  -2.90254222E+00  -3.39827807E+00   5.95384179E-01  -5.72578713E+00   2.47534588E-02   6.94315766E-15  -1.90382457E-01  -2.50130989E+01  -6.26992764E+00  -5.49371737E-01
   2.39750000E+03   5.00000000E-01   5.00000000E-01  -3.59002502E+00   6.16529865E-05  -2.97741469E+00  -2.78000118E+00  -2.73701378E+00  -8.84841557E-01  -1.73308533E+00  -6.13045386E-01  -4.46019145E-02  -8.56093776E-01   2.13502090E-03  -2.96039571E+00  -3.01135823E+00  -3.47413044E+00   5.97109838E-01  -5.60718654E+00   2.44389988E-02  -7.71461963E-15  -2.56246465E-01  -2.49331862E+01  -6.28729910E+00  -5.76865053E-01