 TITLE = "Mineral Saturation State" 
VARIABLES = "X"          "Y"              "Z"            "Forsterite"     "Enstatite(alph" "Anorthite"      "Tremolite"      "Pargasite"      "Anhydrite"      "Clinochlore"    "Albite(low)"    "Fayalite"       "Epidote"        "Kaolinite"      "Muscovite(orde" "Sudoite"        "Saponite(Mg)"   "Scolecite"      "FeS(am)"        "Quartz(alpha)"  "Montmorillonit"
 ZONE I=         100 , J=           1 , K=           1  F=POINT
   1.75000000E+01   5.00000000E-01   5.00000000E-01  -7.42664673E+00  -2.61953040E+00  -1.01259060E+01  -4.84069720E+00  -3.10658163E+01  -6.44769534E-01   4.49685777E-01  -5.35269144E-01  -4.07194244E+00  -5.06570314E-09  -3.60034227E+00  -1.48596592E+00  -4.36643277E+00   1.28225387E+00  -4.72771300E+00  -5.07198148E+00   9.03432098E-01  -1.26656607E+00
   5.25000000E+01   5.00000000E-01   5.00000000E-01  -7.51450607E+00  -2.60926671E+00  -9.52617454E+00  -4.55048096E+00  -3.03170605E+01  -4.37575230E-01   3.97566290E-01  -1.02967013E-01  -3.62104717E+00   5.16910991E-09  -3.05625559E+00  -7.95065874E-01  -3.69726535E+00   1.34887120E+00  -4.07076529E+00  -4.90196786E+00   1.02131026E+00  -6.01988381E-01
   8.75000000E+01   5.00000000E-01   5.00000000E-01  -7.48745284E+00  -2.58357512E+00  -9.27145134E+00  -4.33475419E+00  -2.98648173E+01  -2.99907311E-01   3.67394958E-01   1.44274889E-02  -3.31609302E+00   1.07834336E-09  -2.90630152E+00  -6.44131694E-01  -3.53175159E+00   1.38584012E+00  -3.84242983E+00  -4.80297156E+00   1.05501008E+00  -4.10371090E-01
   1.22500000E+02   5.00000000E-01   5.00000000E-01  -7.43780801E+00  -2.55953019E+00  -9.10137647E+00  -4.21059475E+00  -2.95091950E+01  -2.03354605E-01   3.54511460E-01   5.23516785E-02  -3.09085884E+00   4.05461892E-10  -2.83702935E+00  -6.00608645E-01  -3.45168736E+00   1.40101971E+00  -3.72417988E+00  -4.73975215E+00   1.06270565E+00  -3.33811568E-01
   1.57500000E+02   5.00000000E-01   5.00000000E-01  -7.38213649E+00  -2.53697030E+00  -8.96505635E+00  -4.13941210E+00  -2.92017226E+01  -1.33777511E-01   3.49437161E-01   6.48242188E-02  -2.91388213E+00   1.62488404E-10  -2.79112354E+00  -5.86928625E-01  -3.39281457E+00   1.40717313E+00  -3.64823863E+00  -4.69838263E+00   1.06128731E+00  -2.93772562E-01
   1.92500000E+02   5.00000000E-01   5.00000000E-01  -7.32477644E+00  -2.51520910E+00  -8.84696666E+00  -4.09928460E+00  -2.89243034E+01  -8.29223014E-02   3.47538955E-01   6.81087595E-02  -2.76864674E+00   3.69314271E-11  -2.75375706E+00  -5.83416924E-01  -3.34126989E+00   1.40982818E+00  -3.59337578E+00  -4.67156305E+00   1.05646809E+00  -2.67171219E-01
   2.27500000E+02   5.00000000E-01   5.00000000E-01  -7.26715241E+00  -2.49392125E+00  -8.74049387E+00  -4.07881214E+00  -2.86678260E+01  -4.54919624E-02   3.46916609E-01   6.78368099E-02  -2.64568975E+00  -4.31278096E-11  -2.72010866E+00  -5.83770946E-01  -3.29301582E+00   1.41112265E+00  -3.55090748E+00  -4.65499951E+00   1.05032526E+00  -2.46065020E-01
   2.62500000E+02   5.00000000E-01   5.00000000E-01  -7.20978151E+00  -2.47297119E+00  -8.64216777E+00  -4.07158667E+00  -2.84268551E+01  -1.78780419E-02   3.46818293E-01   6.60971410E-02  -2.53914996E+00  -1.02487179E-10  -2.68840883E+00  -5.85713780E-01  -3.24663617E+00   1.41188177E+00  -3.51658012E+00  -4.64597854E+00   1.04364914E+00  -2.27493110E-01
   2.97500000E+02   5.00000000E-01   5.00000000E-01  -7.15285900E+00  -2.45230166E+00  -8.54990219E+00  -4.07365555E+00  -2.81978146E+01   2.47336429E-03   3.46946163E-01   6.36958042E-02  -2.44517323E+00  -1.51761997E-10  -2.65795743E+00  -5.88367867E-01  -3.20157393E+00   1.41242975E+00  -3.48800248E+00  -4.64269832E+00   1.03675152E+00  -2.10294436E-01
   3.32500000E+02   5.00000000E-01   5.00000000E-01  -7.09645804E+00  -2.43188645E+00  -8.46231523E+00  -4.08237356E+00  -2.79781908E+01   1.74286332E-02   3.47180721E-01   6.09523488E-02  -2.36110503E+00  -1.95932823E-10  -2.62845872E+00  -5.91381102E-01  -3.15758956E+00   1.41289659E+00  -3.46367191E+00  -4.64391618E+00   1.02975987E+00  -1.93993882E-01
   3.67500000E+02   5.00000000E-01   5.00000000E-01  -7.04060317E+00  -2.41171178E+00  -8.37844096E+00  -4.09588526E+00  -2.77661602E+01   2.83630644E-02   3.47473364E-01   5.79959493E-02  -2.28504316E+00  -2.37746062E-10  -2.59977871E+00  -5.94608979E-01  -3.11457078E+00   1.41333523E+00  -3.44257503E+00  -4.64874535E+00   1.02272826E+00  -1.78388610E-01
   4.02500000E+02   5.00000000E-01   5.00000000E-01  -6.98529889E+00  -2.39176891E+00  -8.29758441E+00  -4.11285692E+00  -2.75603794E+01   3.62888958E-02   3.47804114E-01   5.48797181E-02  -2.21557717E+00  -2.78911272E-10  -2.57185109E+00  -5.97991980E-01  -3.07245973E+00   1.41376718E+00  -3.42399957E+00  -4.65653328E+00   1.01568052E+00  -1.63387654E-01
   4.37500000E+02   5.00000000E-01   5.00000000E-01  -6.93054146E+00  -2.37205131E+00  -8.21923070E+00  -4.13230537E+00  -2.73598373E+01   4.19586558E-02   3.48164596E-01   5.16264284E-02  -2.15163215E+00  -3.20304835E-10  -2.54463856E+00  -6.01505516E-01  -3.03122220E+00   1.41420079E+00  -3.40742593E+00  -4.66678731E+00   1.00862778E+00  -1.48946769E-01
   4.72500000E+02   5.00000000E-01   5.00000000E-01  -6.87632388E+00  -2.35255354E+00  -8.14299006E+00  -4.15349363E+00  -2.71637607E+01   4.59353603E-02   3.48551079E-01   4.82471587E-02  -2.09236966E+00  -3.62457517E-10  -2.51811635E+00  -6.05138898E-01  -2.99083437E+00   1.41463864E+00  -3.39246503E+00  -4.67912690E+00   1.00157573E+00  -1.35041284E-01
   5.07500000E+02   5.00000000E-01   5.00000000E-01  -6.82263817E+00  -2.33327081E+00  -8.06856225E+00  -4.17586313E+00  -2.69715498E+01   4.86417711E-02   3.48961562E-01   4.47490918E-02  -2.03712279E+00  -4.05708760E-10  -2.49226481E+00  -6.08886042E-01  -2.95127639E+00   1.41508061E+00  -3.37881957E+00  -4.69325200E+00   9.94527689E-01  -1.21654302E-01
   5.42500000E+02   5.00000000E-01   5.00000000E-01  -6.76947642E+00  -2.31419884E+00  -7.99571231E+00  -4.19898732E+00  -2.67827336E+01   5.03958601E-02   3.49394538E-01   4.11388590E-02  -1.98535243E+00  -4.50194343E-10  -2.46706584E+00  -6.12741121E-01  -2.91252913E+00   1.41552517E+00  -3.36625836E+00  -4.70892155E+00   9.87486055E-01  -1.08771324E-01
   5.77500000E+02   5.00000000E-01   5.00000000E-01  -6.71683138E+00  -2.29533377E+00  -7.92425325E+00  -4.22253875E+00  -2.65969381E+01   5.14368467E-02   3.49848459E-01   3.74240044E-02  -1.93661690E+00  -4.95908093E-10  -2.44250100E+00  -6.16696394E-01  -2.87457237E+00   1.41596997E+00  -3.35459843E+00  -4.72593841E+00   9.80452918E-01  -9.63776512E-02
   6.12500000E+02   5.00000000E-01   5.00000000E-01  -6.66469675E+00  -2.27667221E+00  -7.85403363E+00  -4.24626511E+00  -2.64138615E+01   5.19445887E-02   3.50321505E-01   3.36136283E-02  -1.89055044E+00  -5.42757435E-10  -2.41855051E+00  -6.20741081E-01  -2.83738367E+00   1.41641198E+00  -3.34369222E+00  -4.74413856E+00   9.73430398E-01  -8.44570753E-02
   6.47500000E+02   5.00000000E-01   5.00000000E-01  -6.61306732E+00  -2.25821122E+00  -7.78492821E+00  -4.26997137E+00  -2.62332577E+01   5.20541639E-02   3.50811493E-01   2.97186543E-02  -1.84684765E+00  -5.90551046E-10  -2.39519266E+00  -6.24860774E-01  -2.80093773E+00   1.41684769E+00  -3.33341810E+00  -4.76338311E+00   9.66420806E-01  -7.29911992E-02
   6.82500000E+02   5.00000000E-01   5.00000000E-01  -6.56193907E+00  -2.23994826E+00  -7.71683108E+00  -4.29350639E+00  -2.60549217E+01   5.18668991E-02   3.51315853E-01   2.57519063E-02  -1.80525183E+00  -6.39035888E-10  -2.37240349E+00  -6.29037182E-01  -2.76520603E+00   1.41727308E+00  -3.32367344E+00  -4.78355223E+00   9.59426721E-01  -6.19591059E-02
   7.17500000E+02   5.00000000E-01   5.00000000E-01  -6.51130921E+00  -2.22188126E+00  -7.64965058E+00  -4.31675270E+00  -2.58786808E+01   5.14587343E-02   3.51831639E-01   2.17280775E-02  -1.76554623E+00  -6.87872516E-10  -2.35015669E+00  -6.33248097E-01  -2.73015667E+00   1.41768373E+00  -3.31436942E+00  -4.80454040E+00   9.52451034E-01  -5.13372468E-02
   7.52500000E+02   5.00000000E-01   5.00000000E-01  -6.46117607E+00  -2.20400853E+00  -7.58330543E+00  -4.33961879E+00  -2.57043861E+01   5.08865667E-02   3.52355558E-01   1.76636223E-02  -1.72754729E+00  -7.36570281E-10  -2.32842363E+00  -6.37467539E-01  -2.69575447E+00   1.41807484E+00  -3.30542724E+00  -4.82625263E+00   9.45496954E-01  -4.10994900E-02
   7.87500000E+02   5.00000000E-01   5.00000000E-01  -6.41153906E+00  -2.18632876E+00  -7.51772203E+00  -4.36203302E+00  -2.55319071E+01   5.01930521E-02   3.52884020E-01   1.35765836E-02  -1.69109924E+00  -7.84663220E-10  -2.30717351E+00  -6.41666070E-01  -2.66196118E+00   1.41844131E+00  -3.29677538E+00  -4.84860134E+00   9.38567993E-01  -3.12173032E-02
   8.22500000E+02   5.00000000E-01   5.00000000E-01  -6.36239856E+00  -2.16884094E+00  -7.45283243E+00  -4.38393904E+00  -2.53611274E+01   4.94102270E-02   3.53413188E-01   9.48635970E-03  -1.65606979E+00  -8.31552678E-10  -2.28637369E+00  -6.45811256E-01  -2.62873590E+00   1.41877779E+00  -3.28834763E+00  -4.87150368E+00   9.31667937E-01  -2.16600560E-02
   8.57500000E+02   5.00000000E-01   5.00000000E-01  -6.31375570E+00  -2.15154435E+00  -7.38857305E+00  -4.40529212E+00  -2.51919417E+01   4.85622274E-02   3.53939049E-01   5.41341418E-03  -1.62234667E+00  -8.76569026E-10  -2.26599005E+00  -6.49868283E-01  -2.59603564E+00   1.41907883E+00  -3.28008181E+00  -4.89487938E+00   9.24800800E-01  -1.23954344E-02
   8.92500000E+02   5.00000000E-01   5.00000000E-01  -6.26561220E+00  -2.13443844E+00  -7.32488379E+00  -4.42605627E+00  -2.50242530E+01   4.76673194E-02   3.54457487E-01   1.37893167E-03  -1.58983459E+00  -9.19021035E-10  -2.24598751E+00  -6.53800693E-01  -2.56381601E+00   1.41933896E+00  -3.27191900E+00  -4.91864873E+00   9.17970765E-01  -3.38995376E-03
   9.27500000E+02   5.00000000E-01   5.00000000E-01  -6.21797007E+00  -2.11752275E+00  -7.26170770E+00  -4.44620180E+00  -2.48579715E+01   4.67394070E-02   3.54964330E-01  -2.59566469E-03  -1.55845275E+00  -9.58131071E-10  -2.22633083E+00  -6.57571476E-01  -2.53203236E+00   1.41955287E+00  -3.26380326E+00  -4.94273099E+00   9.11182101E-01   5.39029182E-03
   9.62500000E+02   5.00000000E-01   5.00000000E-01  -6.17083142E+00  -2.10079684E+00  -7.19899059E+00  -4.46570356E+00  -2.46930129E+01   4.57891449E-02   3.55455489E-01  -6.48901401E-03  -1.52813275E+00  -9.93115328E-10  -2.20698499E+00  -6.61143669E-01  -2.50064025E+00   1.41971550E+00  -3.25568130E+00  -4.96704301E+00   9.04439095E-01   1.39791715E-02
   9.97500000E+02   5.00000000E-01   5.00000000E-01  -6.12419821E+00  -2.08426023E+00  -7.13668102E+00  -4.48453939E+00  -2.45292976E+01   4.48247570E-02   3.55927032E-01  -1.02802384E-02  -1.49881671E+00  -1.02313754E-09  -2.18791588E+00  -6.64481315E-01  -2.46959645E+00   1.41982219E+00  -3.24750258E+00  -4.99149812E+00   8.97745974E-01   2.24098492E-02
   1.03250000E+03   5.00000000E-01   5.00000000E-01  -6.07807188E+00  -2.06791225E+00  -7.07473058E+00  -4.50268863E+00  -2.43667503E+01   4.38526341E-02   3.56375231E-01  -1.39494936E-02  -1.47045556E+00  -1.04737996E-09  -2.16909123E+00  -6.67550725E-01  -2.43886023E+00   1.41986886E+00  -3.23921969E+00  -5.01600531E+00   8.91106808E-01   3.07139001E-02
   1.06750000E+03   5.00000000E-01   5.00000000E-01  -6.03245316E+00  -2.05175195E+00  -7.01309417E+00  -4.52013104E+00  -2.42052995E+01   4.28777713E-02   3.56796652E-01  -1.74784164E-02  -1.44300760E+00  -1.06508039E-09  -2.15048128E+00  -6.70321455E-01  -2.40839431E+00   1.41985215E+00  -3.23078866E+00  -5.04046874E+00   8.84525412E-01   3.89205949E-02
   1.10250000E+03   5.00000000E-01   5.00000000E-01  -5.98734173E+00  -2.03577804E+00  -6.95173021E+00  -4.53684579E+00  -2.40448770E+01   4.19040865E-02   3.57188231E-01  -2.08505605E-02  -1.41643720E+00  -1.07546735E-09  -2.13205952E+00  -6.72767267E-01  -2.37816582E+00   1.41976950E+00  -3.22216935E+00  -5.06478760E+00   8.78005261E-01   4.70561956E-02
   1.13750000E+03   5.00000000E-01   5.00000000E-01  -5.94273604E+00  -2.01998883E+00  -6.89060095E+00  -4.55281070E+00  -2.38854179E+01   4.09346541E-02   3.57547333E-01  -2.40517867E-02  -1.39071362E+00  -1.07783728E-09  -2.11380325E+00  -6.74866987E-01  -2.34814719E+00   1.41961933E+00  -3.21332579E+00  -5.08885639E+00   8.71549401E-01   5.51433190E-02
   1.17250000E+03   5.00000000E-01   5.00000000E-01  -5.89863309E+00  -2.00438212E+00  -6.82967273E+00  -4.56800156E+00  -2.37268603E+01   3.99718766E-02   3.57871807E-01  -2.70705890E-02  -1.36580999E+00  -1.07163473E-09  -2.09569418E+00  -6.76605224E-01  -2.31831684E+00   1.41940104E+00  -3.20422653E+00  -5.11256569E+00   8.65160381E-01   6.32004003E-02
   1.20750000E+03   5.00000000E-01   5.00000000E-01  -5.85502833E+00  -1.98895520E+00  -6.76891609E+00  -4.58239165E+00  -2.35691452E+01   3.90176133E-02   3.58160025E-01  -2.98983386E-02  -1.34170244E+00  -1.05630423E-09  -2.07771876E+00  -6.77972889E-01  -2.28865973E+00   1.41911511E+00  -3.19484479E+00  -5.13580333E+00   8.58840192E-01   7.12412833E-02
   1.24250000E+03   5.00000000E-01   5.00000000E-01  -5.81191551E+00  -1.97370481E+00  -6.70830584E+00  -4.59595138E+00  -2.34122164E+01   3.80732768E-02   3.58410907E-01  -3.25294331E-02  -1.31836931E+00  -1.03144156E-09  -2.05986847E+00  -6.78967514E-01  -2.25916769E+00   1.41876308E+00  -3.18515862E+00  -5.15845603E+00   8.52590224E-01   7.92749594E-02
   1.27750000E+03   5.00000000E-01   5.00000000E-01  -5.76928670E+00  -1.95862715E+00  -6.64782099E+00  -4.60864811E+00  -2.32560197E+01   3.71399081E-02   3.58623933E-01  -3.49613422E-02  -1.29579049E+00  -9.96839946E-10  -2.04213983E+00  -6.79593330E-01  -2.22983945E+00   1.41834754E+00  -3.17515083E+00  -5.18041158E+00   8.46411244E-01   8.73054701E-02
   1.31250000E+03   5.00000000E-01   5.00000000E-01  -5.72713233E+00  -1.94371790E+00  -6.58744459E+00  -4.62044612E+00  -2.31005035E+01   3.62182352E-02   3.58799140E-01  -3.71945460E-02  -1.27394686E+00  -9.52317333E-10  -2.02453438E+00  -6.79861102E-01  -2.20068055E+00   1.41787207E+00  -3.16480878E+00  -5.20156131E+00   8.40303393E-01   9.53319788E-02
   1.34750000E+03   5.00000000E-01   5.00000000E-01  -5.68544127E+00  -1.92897225E+00  -6.52716342E+00  -4.63130671E+00  -2.29456178E+01   3.53087209E-02   3.58937098E-01  -3.92323703E-02  -1.25281988E+00  -8.97929265E-10  -2.00705834E+00  -6.79787745E-01  -2.17170289E+00   1.41734114E+00  -3.15412414E+00  -5.22180286E+00   8.34266201E-01   1.03349005E-01
   1.38250000E+03   5.00000000E-01   5.00000000E-01  -5.64420098E+00  -1.91438496E+00  -6.46696755E+00  -4.64118843E+00  -2.27913143E+01   3.44116024E-02   3.59038880E-01  -4.10807251E-02  -1.23239122E+00  -8.33799175E-10  -1.98972223E+00  -6.79395722E-01  -2.14292416E+00   1.41675999E+00  -3.14309240E+00  -5.24104312E+00   8.28298623E-01   1.11346810E-01
   1.41750000E+03   5.00000000E-01   5.00000000E-01  -5.60339776E+00  -1.89995048E+00  -6.40684993E+00  -4.65004740E+00  -2.26375459E+01   3.35269247E-02   3.59106010E-01  -4.27477637E-02  -1.21264244E+00  -7.60244906E-10  -1.97254033E+00  -6.78712266E-01  -2.11436706E+00   1.41613448E+00  -3.13171233E+00  -5.25920108E+00   8.22399091E-01   1.19311915E-01
   1.45250000E+03   5.00000000E-01   5.00000000E-01  -5.56301691E+00  -1.88566296E+00  -6.34680574E+00  -4.65783774E+00  -2.24842665E+01   3.26545701E-02   3.59140406E-01  -4.42434770E-02  -1.19355486E+00  -6.77738592E-10  -1.95553003E+00  -6.77768478E-01  -2.08605838E+00   1.41547093E+00  -3.11998538E+00  -5.27621051E+00   8.16565579E-01   1.27227711E-01
   1.48750000E+03   5.00000000E-01   5.00000000E-01  -5.52304305E+00  -1.87151640E+00  -6.28683187E+00  -4.66451203E+00  -2.23314305E+01   3.17942841E-02   3.59144312E-01  -4.55792472E-02  -1.17510931E+00  -5.86854201E-10  -1.93871110E+00  -6.76598332E-01  -2.05802805E+00   1.41477598E+00  -3.10791501E+00  -5.29202213E+00   8.10795679E-01   1.35075143E-01
   1.52250000E+03   5.00000000E-01   5.00000000E-01  -5.48346038E+00  -1.85750473E+00  -6.22692633E+00  -4.67002182E+00  -2.21789925E+01   3.09456988E-02   3.59120222E-01  -4.67673823E-02  -1.15728607E+00  -4.88326165E-10  -1.92210503E+00  -6.75237654E-01  -2.03030806E+00   1.41405637E+00  -3.09550602E+00  -5.30660527E+00   8.05086683E-01   1.42833418E-01
   1.55750000E+03   5.00000000E-01   5.00000000E-01  -5.44425291E+00  -1.84362187E+00  -6.16708761E+00  -4.67431811E+00  -2.20269073E+01   3.01083550E-02   3.59070800E-01  -4.78206527E-02  -1.14006474E+00  -3.83021607E-10  -1.90573426E+00  -6.73723120E-01  -2.00293156E+00   1.41331882E+00  -3.08276387E+00  -5.31994868E+00   7.99435664E-01   1.50480712E-01
   1.59250000E+03   5.00000000E-01   5.00000000E-01  -5.40540474E+00  -1.82986186E+00  -6.10731423E+00  -4.67735182E+00  -2.18751291E+01   2.92817227E-02   3.58998804E-01  -4.87518491E-02  -1.12342413E+00  -2.71931084E-10  -1.88962154E+00  -6.72091306E-01  -1.97593184E+00   1.41256988E+00  -3.06969413E+00  -5.33206065E+00   7.93839561E-01   1.57994842E-01
   1.62750000E+03   5.00000000E-01   5.00000000E-01  -5.36690024E+00  -1.81621891E+00  -6.04760426E+00  -4.67907423E+00  -2.17236121E+01   2.84652206E-02   3.58907009E-01  -4.95733802E-02  -1.10734217E+00  -1.56150073E-10  -1.87378929E+00  -6.70377848E-01  -1.94934156E+00   1.41181582E+00  -3.05630189E+00  -5.34296816E+00   7.88295255E-01   1.65353870E-01
   1.66250000E+03   5.00000000E-01   5.00000000E-01  -5.32872431E+00  -1.80268744E+00  -5.98795493E+00  -4.67943735E+00  -2.15723096E+01   2.76582352E-02   3.58798135E-01  -5.02969215E-02  -1.09179578E+00  -3.68820535E-11  -1.85825915E+00  -6.68616722E-01  -1.92319207E+00   1.41106250E+00  -3.04259136E+00  -5.35271542E+00   7.82799637E-01   1.72536633E-01
   1.69750000E+03   5.00000000E-01   5.00000000E-01  -5.29086246E+00  -1.78926216E+00  -5.92836235E+00  -4.67839420E+00  -2.14211741E+01   2.68601392E-02   3.58674783E-01  -5.09331221E-02  -1.07676075E+00   8.45861754E-11  -1.84305150E+00  -6.66839664E-01  -1.89751284E+00   1.41031532E+00  -3.02856549E+00  -5.36136164E+00   7.77349668E-01   1.79523168E-01
   1.73250000E+03   5.00000000E-01   5.00000000E-01  -5.25330095E+00  -1.77593809E+00  -5.86882132E+00  -4.67589907E+00  -2.12701577E+01   2.60703102E-02   3.58539380E-01  -5.14913736E-02  -1.06221153E+00   2.06847467E-10  -1.82818523E+00  -6.65075736E-01  -1.87233105E+00   1.40957916E+00  -3.01422576E+00  -5.36897841E+00   7.71942426E-01   1.86295043E-01
   1.76750000E+03   5.00000000E-01   5.00000000E-01  -5.21602687E+00  -1.76271056E+00  -5.80932522E+00  -4.67190768E+00  -2.11192114E+01   2.52881485E-02   3.58394130E-01  -5.19796416E-02  -1.04812111E+00   3.28544049E-10  -1.81367747E+00  -6.63351040E-01  -1.84767140E+00   1.40885838E+00  -2.99957200E+00  -5.37564670E+00   7.66575146E-01   1.92835589E-01
   1.80250000E+03   5.00000000E-01   5.00000000E-01  -5.17902815E+00  -1.74957524E+00  -5.74986599E+00  -4.66637731E+00  -2.09682858E+01   2.45130953E-02   3.58240980E-01  -5.24043534E-02  -1.03446074E+00   4.48132996E-10  -1.79954355E+00  -6.61688552E-01  -1.82355597E+00   1.40815680E+00  -2.98460237E+00  -5.38145387E+00   7.61245240E-01   1.99130031E-01
   1.83750000E+03   5.00000000E-01   5.00000000E-01  -5.14229359E+00  -1.73652813E+00  -5.69043415E+00  -4.65926680E+00  -2.08173306E+01   2.37446503E-02   3.58081594E-01  -5.27703398E-02  -1.02119970E+00   5.64185562E-10  -1.78579695E+00  -6.60108093E-01  -1.80000420E+00   1.40747770E+00  -2.96931338E+00  -5.38649061E+00   7.55950318E-01   2.05165534E-01
   1.87250000E+03   5.00000000E-01   5.00000000E-01  -5.10581285E+00  -1.72356554E+00  -5.63101892E+00  -4.65053654E+00  -2.06662949E+01   2.29823889E-02   3.57917330E-01  -5.30808196E-02  -1.00830508E+00   6.75272999E-10  -1.77244938E+00  -6.58626388E-01  -1.77703308E+00   1.40682388E+00  -2.95369997E+00  -5.39084815E+00   7.50688188E-01   2.10931180E-01
   1.90750000E+03   5.00000000E-01   5.00000000E-01  -5.06957633E+00  -1.71068404E+00  -5.57160834E+00  -4.64014847E+00  -2.05151274E+01   2.22259792E-02   3.57749235E-01  -5.33374193E-02  -9.95741422E-01   7.79941872E-10  -1.75951089E+00  -6.57257205E-01  -1.75465729E+00   1.40619771E+00  -2.93775566E+00  -5.39461576E+00   7.45456857E-01   2.16417876E-01
   1.94250000E+03   5.00000000E-01   5.00000000E-01  -5.03357520E+00  -1.69788051E+00  -5.51218947E+00  -4.62806591E+00  -2.03637763E+01   2.14751972E-02   3.57578041E-01  -5.35402189E-02  -9.83470436E-01   8.76902298E-10  -1.74699007E+00  -6.56011555E-01  -1.73288949E+00   1.40560112E+00  -2.92147274E+00  -5.39787859E+00   7.40254514E-01   2.21618221E-01
   1.97750000E+03   5.00000000E-01   5.00000000E-01  -4.99780125E+00  -1.68515203E+00  -5.45274852E+00  -4.61425341E+00  -2.02121894E+01   2.07299407E-02   3.57404165E-01  -5.36878172E-02  -9.71450684E-01   9.64885992E-10  -1.73489423E+00  -6.54897940E-01  -1.71174064E+00   1.40503572E+00  -2.90484244E+00  -5.40071591E+00   7.35079521E-01   2.26526332E-01
   2.01250000E+03   5.00000000E-01   5.00000000E-01  -4.96224685E+00  -1.67249589E+00  -5.39327107E+00  -4.59867658E+00  -2.00603142E+01   1.99902419E-02   3.57227715E-01  -5.37774057E-02  -9.59637202E-01   1.04286537E-09  -1.72322965E+00  -6.53922622E-01  -1.69122032E+00   1.40450283E+00  -2.88785518E+00  -5.40319971E+00   7.29930387E-01   2.31137640E-01
   2.04750000E+03   5.00000000E-01   5.00000000E-01  -4.92690483E+00  -1.65990954E+00  -5.33374221E+00  -4.58130180E+00  -1.99080974E+01   1.92562760E-02   3.57048502E-01  -5.38048458E-02  -9.47981135E-01   1.10991775E-09  -1.71200184E+00  -6.53089902E-01  -1.67133712E+00   1.40400352E+00  -2.87050069E+00  -5.40539368E+00   7.24805744E-01   2.35448685E-01
   2.08250000E+03   5.00000000E-01   5.00000000E-01  -4.89176839E+00  -1.64739057E+00  -5.27414670E+00  -4.56209585E+00  -1.97554855E+01   1.85283678E-02   3.56866047E-01  -5.37647429E-02  -9.36429328E-01   1.16533341E-09  -1.70121577E+00  -6.52402405E-01  -1.65209901E+00   1.40353868E+00  -2.85276823E+00  -5.40735245E+00   7.19704322E-01   2.39456884E-01
   2.11750000E+03   5.00000000E-01   5.00000000E-01  -4.85683102E+00  -1.63493667E+00  -5.21446903E+00  -4.54102558E+00  -1.96024240E+01   1.78069940E-02   3.56679590E-01  -5.36505131E-02  -9.24923887E-01   1.20861243E-09  -1.69087618E+00  -6.51861361E-01  -1.63351372E+00   1.40310909E+00  -2.83464668E+00  -5.40912115E+00   7.14624919E-01   2.43160309E-01
   2.15250000E+03   5.00000000E-01   5.00000000E-01  -4.82208638E+00  -1.62254559E+00  -5.15469347E+00  -4.51805728E+00  -1.94488570E+01   1.70927807E-02   3.56488102E-01  -5.34544371E-02  -9.13401695E-01   1.23948325E-09  -1.68098782E+00  -6.51466867E-01  -1.61558914E+00   1.40271544E+00  -2.81612464E+00  -5.41073511E+00   7.09566368E-01   2.46557459E-01
   2.18750000E+03   5.00000000E-01   5.00000000E-01  -4.78752824E+00  -1.61021511E+00  -5.09480408E+00  -4.49315614E+00  -1.92947273E+01   1.63864971E-02   3.56290286E-01  -5.31676965E-02  -9.01793879E-01   1.25788879E-09  -1.67155572E+00  -6.51218135E-01  -1.59833369E+00   1.40235837E+00  -2.79719041E+00  -5.41221976E+00   7.04527513E-01   2.49647038E-01
   2.22250000E+03   5.00000000E-01   5.00000000E-01  -4.75315034E+00  -1.59794302E+00  -5.03478461E+00  -4.46628541E+00  -1.91399752E+01   1.56890430E-02   3.56084582E-01  -5.27803918E-02  -8.90025204E-01   1.26404814E-09  -1.66258548E+00  -6.51113728E-01  -1.58175673E+00   1.40203855E+00  -2.77783197E+00  -5.41359057E+00   6.99507170E-01   2.52427733E-01
   2.25750000E+03   5.00000000E-01   5.00000000E-01  -4.71894633E+00  -1.58572710E+00  -4.97461831E+00  -4.43740548E+00  -1.89845377E+01   1.50014329E-02   3.55869166E-01  -5.22815363E-02  -8.78013382E-01   1.25835012E-09  -1.65408355E+00  -6.51151762E-01  -1.56586895E+00   1.40175670E+00  -2.75803683E+00  -5.41485314E+00   6.94504100E-01   2.54898002E-01
   2.29250000E+03   5.00000000E-01   5.00000000E-01  -4.68490967E+00  -1.57356504E+00  -4.91428769E+00  -4.40647274E+00  -1.88283478E+01   1.43247740E-02   3.55641938E-01  -5.16590242E-02  -8.65668268E-01   1.24143196E-09  -1.64605750E+00  -6.51330107E-01  -1.55068282E+00   1.40151362E+00  -2.73779180E+00  -5.41600314E+00   6.89516970E-01   2.57055857E-01
   2.32750000E+03   5.00000000E-01   5.00000000E-01  -4.65103353E+00  -1.56145446E+00  -4.85377419E+00  -4.37343822E+00  -1.86713329E+01   1.36602412E-02   3.55400509E-01  -5.08995687E-02  -8.52890925E-01   1.21408981E-09  -1.63851634E+00  -6.51646557E-01  -1.53621300E+00   1.40131024E+00  -2.71708270E+00  -5.41702636E+00   6.84544327E-01   2.58898648E-01
   2.36250000E+03   5.00000000E-01   5.00000000E-01  -4.61731068E+00  -1.54939287E+00  -4.79305767E+00  -4.33824592E+00  -1.85134132E+01   1.30090488E-02   3.55142176E-01  -4.99886049E-02  -8.39572503E-01   1.17727101E-09  -1.63147086E+00  -6.52098986E-01  -1.52247684E+00   1.40114766E+00  -2.69589387E+00  -5.41789863E+00   6.79584550E-01   2.60422842E-01
   2.39750000E+03   5.00000000E-01   5.00000000E-01  -4.58373340E+00  -1.53737760E+00  -4.73211584E+00  -4.30083096E+00  -1.83545000E+01   1.23724195E-02   3.54863891E-01  -4.89101535E-02  -8.25592902E-01   1.13205871E-09  -1.62493394E+00  -6.52685501E-01  -1.50949491E+00   1.40102719E+00  -2.67420771E+00  -5.41858557E+00   6.74635821E-01   2.61623795E-01
   2.43250000E+03   5.00000000E-01   5.00000000E-01  -4.55029335E+00  -1.52540581E+00  -4.67092356E+00  -4.26111720E+00  -1.81944931E+01   1.17515542E-02   3.54562209E-01  -4.76466368E-02  -8.10819164E-01   1.07961319E-09  -1.61892100E+00  -6.53404565E-01  -1.49729160E+00   1.40095036E+00  -2.65200393E+00  -5.41904231E+00   6.69696077E-01   2.62495496E-01
   2.46750000E+03   5.00000000E-01   5.00000000E-01  -4.51698143E+00  -1.51347442E+00  -4.60945195E+00  -4.21901456E+00  -1.80332782E+01   1.11476009E-02   3.54233231E-01  -4.61786377E-02  -7.95103502E-01   1.02116568E-09  -1.61345045E+00  -6.54255131E-01  -1.48589583E+00   1.40091903E+00  -2.62925877E+00  -5.41921289E+00   6.64762959E-01   2.63030304E-01
   2.50250000E+03   5.00000000E-01   5.00000000E-01  -4.48378767E+00  -1.50158005E+00  -4.54766734E+00  -4.17441575E+00  -1.78707238E+01   1.05616270E-02   3.53872520E-01  -4.44845884E-02  -7.78280894E-01   9.57936662E-10  -1.60854420E+00  -6.55236749E-01  -1.47534183E+00   1.40093535E+00  -2.60594398E+00  -5.41902952E+00   6.59833762E-01   2.63218636E-01
   2.53750000E+03   5.00000000E-01   5.00000000E-01  -4.45070098E+00  -1.48971903E+00  -4.48552996E+00  -4.12719236E+00  -1.77066766E+01   9.99459373E-03   3.53474992E-01  -4.25403722E-02  -7.60166112E-01   8.91165086E-10  -1.60422833E+00  -6.56349682E-01  -1.46567013E+00   1.40100189E+00  -2.58202561E+00  -5.41841143E+00   6.54905368E-01   2.63048619E-01
   2.57250000E+03   5.00000000E-01   5.00000000E-01  -4.41770902E+00  -1.47788725E+00  -4.42299243E+00  -4.07719017E+00  -1.75409573E+01   9.44733600E-03   3.53034782E-01  -4.03188133E-02  -7.40550024E-01   8.22042095E-10  -1.60053384E+00  -6.57595003E-01  -1.45692874E+00   1.40112166E+00  -2.55746253E+00  -5.41726344E+00   6.49974167E-01   2.62505676E-01
   2.60750000E+03   5.00000000E-01   5.00000000E-01  -4.38479794E+00  -1.46608013E+00  -4.35999783E+00  -4.02422337E+00  -1.73733542E+01   8.92054625E-03   3.52545057E-01  -3.77890212E-02  -7.19194965E-01   7.51653905E-10  -1.59749755E+00  -6.58974687E-01  -1.44917455E+00   1.40129818E+00  -2.53220462E+00  -5.41547395E+00   6.45035968E-01   2.61572043E-01
   2.64250000E+03   5.00000000E-01   5.00000000E-01  -4.35195203E+00  -1.45429253E+00  -4.29647738E+00  -3.96806744E+00  -1.72036160E+01   8.41476424E-03   3.51997779E-01  -3.49155441E-02  -6.95828886E-01   6.81100623E-10  -1.59516330E+00  -6.60491681E-01  -1.44247515E+00   1.40153558E+00  -2.50619055E+00  -5.41291233E+00   6.40085883E-01   2.60226176E-01
   2.67750000E+03   5.00000000E-01   5.00000000E-01  -4.31915342E+00  -1.44251865E+00  -4.23234739E+00  -3.90845024E+00  -1.70314422E+01   7.93037207E-03   3.51383386E-01  -3.16572640E-02  -6.70137910E-01   6.11257086E-10  -1.59358334E+00  -6.62149948E-01  -1.43691099E+00   1.40183864E+00  -2.47934491E+00  -5.40942552E+00   6.35118187E-01   2.58442041E-01
   2.71250000E+03   5.00000000E-01   5.00000000E-01  -4.28638164E+00  -1.43075186E+00  -4.16750555E+00  -3.84504072E+00  -1.68564716E+01   7.46759438E-03   3.50690362E-01  -2.79659394E-02  -6.41756743E-01   5.43062934E-10  -1.59282012E+00  -6.63954441E-01  -1.43257818E+00   1.40221289E+00  -2.45157463E+00  -5.40483353E+00   6.30126137E-01   2.56188230E-01
   2.74750000E+03   5.00000000E-01   5.00000000E-01  -4.25361302E+00  -1.41898458E+00  -4.10182591E+00  -3.77743433E+00  -1.66782665E+01   7.02650327E-03   3.49904658E-01  -2.37842552E-02  -6.10256216E-01   4.77195512E-10  -1.59294858E+00  -6.65910966E-01  -1.42959205E+00   1.40266469E+00  -2.42276419E+00  -5.39892354E+00   6.25101747E-01   2.53426883E-01
   2.78250000E+03   5.00000000E-01   5.00000000E-01  -4.22082011E+00  -1.40720808E+00  -4.03515224E+00  -3.70513404E+00  -1.64962923E+01   6.60702717E-03   3.49008878E-01  -1.90431700E-02  -5.75126908E-01   4.14329076E-10  -1.59405902E+00  -6.68025829E-01  -1.42809170E+00   1.40320125E+00  -2.39276935E+00  -5.39144203E+00   6.20035493E-01   2.50112350E-01
   2.81750000E+03   5.00000000E-01   5.00000000E-01  -4.18797084E+00  -1.39541230E+00  -3.96728906E+00  -3.62752499E+00  -1.63098904E+01   6.20896302E-03   3.47981141E-01  -1.36582435E-02  -5.35757346E-01   3.54994394E-10  -1.59626080E+00  -6.70305082E-01  -1.42824578E+00   1.40383059E+00  -2.36140848E+00  -5.38208425E+00   6.14915919E-01   2.46189555E-01
   2.85250000E+03   5.00000000E-01   5.00000000E-01  -4.15502761E+00  -1.38358561E+00  -3.89798910E+00  -3.54384061E+00  -1.61182406E+01   5.83199084E-03   3.46793438E-01  -7.52444239E-03  -4.91404642E-01   2.99626569E-10  -1.59968708E+00  -6.72753014E-01  -1.43026001E+00   1.40456129E+00  -2.32845055E+00  -5.37048010E+00   6.09729125E-01   2.41592027E-01