 TITLE = "Mineral Saturation State" 
VARIABLES = "X"          "Y"              "Z"            "Forsterite"     "Fayalite"       "Brucite"        "Lizardite"      "Chrysotile"     "Hematite"       "Magnetite(am)"  "Saponite(Ca)"   "Saponite(K)"    "Saponite(Mg)"   "Saponite(Na)"   "Beidellite(Ca)" "Beidellite(K)"  "Beidellite(Mg)" "Beidellite(Na)" "Enstatite(alph" "Ferrosilite(al" "Anorthite"      "Albite(low)"    "Clinochlore"    "Sudoite"        "Montmor(MgCa)"  "Montmor(MgK)"   "Montmor(MgMg)"  "Montmor(MgNa)"  "Kaolinite"      "Tremolite"      "Pargasite"      "Anhydrite"      "Epidote"        "Scolecite"      "Pyrite"         "FeS(am)"        "Quartz(alpha)"  "Titanite"       "Rutile"         "Barite"         "Fluorite"       "Spessartine(al" "Andradite"      "Celestite"      "Zincite"        "Chalcocyanite"  "Chalcocite(alp"
 ZONE I=         200 , J=           1 , K=           1  F=POINT
   8.75000000E+00   5.00000000E-01   5.00000000E-01  -7.10997233E+00  -3.01562499E+00  -4.77210982E+00  -1.35795522E+00  -1.47544353E+00   8.45418421E-02  -5.31811262E+00   5.35820234E-01   2.36402351E+00   1.19677591E+00   2.24268440E+00  -6.48184569E+00  -5.33379158E+00  -5.82088730E+00  -5.39393554E+00  -2.55791847E+00  -1.57290044E+00  -1.16530676E+01  -1.56168756E+00   2.15888697E-02  -6.72300720E+00  -4.10599193E+00  -2.71702441E+00  -3.47856305E+00  -2.86617598E+00  -5.13776103E+00  -5.06713850E+00  -3.27753272E+01  -9.80364511E-01  -1.04198438E+01  -6.44177286E+00  -5.53020943E+01  -1.94311560E+01   7.08763428E-01  -7.35982711E-01   1.49327758E-01   2.99146117E-01  -5.70114392E-01  -2.62884375E+01  -7.07849897E+00  -1.70343377E+00  -3.64565570E+00  -1.59370288E+01   1.52712870E+00
   2.62500000E+01   5.00000000E-01   5.00000000E-01  -7.59122536E+00  -2.89105392E+00  -5.09959642E+00  -2.06887404E+00  -2.18432771E+00   8.45418420E-02  -5.31716929E+00   2.60803096E-01   2.06291794E+00   9.21205464E-01   1.95073183E+00  -4.43437863E+00  -3.30640232E+00  -3.77397914E+00  -3.35749954E+00  -2.72031312E+00  -1.42785440E+00  -1.03507945E+01  -6.14357147E-01   2.14244208E-02  -4.40744666E+00  -2.55739484E+00  -1.18978590E+00  -1.93033459E+00  -1.32941947E+00  -3.54012372E+00  -6.14810088E+00  -3.19809820E+01  -9.62558347E-01  -9.31972623E+00  -5.02125390E+00  -5.62358649E+01  -2.02905111E+01   8.72323359E-01  -9.06106562E-01   1.64043790E-01   1.37650820E-01  -5.87508587E-01  -2.46180357E+01  -7.61700607E+00  -1.71039772E+00  -3.74133078E+00  -1.58703241E+01   1.16099654E-01
   4.37500000E+01   5.00000000E-01   5.00000000E-01  -7.74108509E+00  -2.72334572E+00  -5.23045386E+00  -2.31300879E+00  -2.42644968E+00   8.45418419E-02  -5.26393475E+00   2.47474102E-01   2.02615085E+00   9.07363003E-01   1.92301115E+00  -3.51502082E+00  -2.40689668E+00  -2.85513999E+00  -2.44905338E+00  -2.74791439E+00  -1.29218479E+00  -9.77512186E+00  -1.53748009E-01   2.10983051E-02  -3.48173803E+00  -1.81929127E+00  -4.72802018E-01  -1.19256206E+00  -6.03028530E-01  -2.86535928E+00  -6.34668982E+00  -3.14788723E+01  -9.44532395E-01  -8.81123036E+00  -4.38888950E+00  -5.53989507E+01  -1.98854373E+01   9.74008754E-01  -9.42628450E-01   1.77529732E-01   5.11990300E-02  -6.04070023E-01  -2.37166465E+01  -7.75120037E+00  -1.71681551E+00  -3.73634955E+00  -1.58038433E+01   1.16099654E-01
   6.12500000E+01   5.00000000E-01   5.00000000E-01  -7.79422767E+00  -2.57130514E+00  -5.29262418E+00  -2.43177711E+00  -2.54322671E+00   8.45418419E-02  -5.19841293E+00   2.65818028E-01   2.02167328E+00   9.25223583E-01   1.92747342E+00  -2.99383550E+00  -1.90534217E+00  -2.33444280E+00  -1.93866456E+00  -2.74745584E+00  -1.18468883E+00  -9.43540346E+00   1.07870831E-01   2.06173421E-02  -2.98592510E+00  -1.39391275E+00  -6.83087666E-02  -7.67486659E-01  -1.89239087E-01  -2.49493564E+00  -6.38873395E+00  -3.11090686E+01  -9.26287588E-01  -8.51039244E+00  -4.03282644E+00  -5.46920352E+01  -1.95390370E+01   1.03502958E+00  -9.52229087E-01   1.89785729E-01   8.41329337E-03  -6.19828660E-01  -2.31072781E+01  -7.80112119E+00  -1.72266880E+00  -3.70579518E+00  -1.57375846E+01   1.16099654E-01
   7.87500000E+01   5.00000000E-01   5.00000000E-01  -7.81415873E+00  -2.44590651E+00  -5.32482640E+00  -2.51347850E+00  -2.62295797E+00   8.45418418E-02  -5.13305480E+00   2.69923282E-01   2.00314190E+00   9.28870251E-01   1.91777643E+00  -2.64857337E+00  -1.57949364E+00  -1.98964367E+00  -1.60408683E+00  -2.74372359E+00  -1.10388635E+00  -9.19046841E+00   2.68945034E-01   2.01556174E-02  -2.65167540E+00  -1.11911477E+00   1.85834021E-01  -4.92969191E-01   7.40901951E-02  -2.24899365E+00  -6.43375615E+00  -3.08115875E+01  -9.07830536E-01  -8.30080208E+00  -3.79796250E+00  -5.40501071E+01  -1.92250295E+01   1.06932016E+00  -9.59637148E-01   2.00841994E-01  -1.25292344E-02  -6.34816089E-01  -2.26429445E+01  -7.84104208E+00  -1.72796710E+00  -3.66980369E+00  -1.56715524E+01   1.16099654E-01
   9.62500000E+01   5.00000000E-01   5.00000000E-01  -7.81348295E+00  -2.33732198E+00  -5.33830805E+00  -2.57208200E+00  -2.67961215E+00   8.45418417E-02  -5.06788923E+00   2.64869658E-01   1.97565360E+00   9.23379165E-01   1.89901898E+00  -2.41368918E+00  -1.36380985E+00  -1.75520100E+00  -1.37977701E+00  -2.73807434E+00  -1.03991720E+00  -9.00504929E+00   3.66887003E-01   1.98382186E-02  -2.41840081E+00  -9.38895466E-01   3.45624008E-01  -3.13011385E-01   2.42958976E-01  -2.08103909E+00  -6.48133559E+00  -3.05600772E+01  -8.89170352E-01  -8.14853305E+00  -3.63914104E+00  -5.34506600E+01  -1.89321751E+01   1.08677268E+00  -9.66159554E-01   2.10731160E-01  -2.32216844E-02  -6.49063694E-01  -2.22700971E+01  -7.87497862E+00  -1.73272816E+00  -3.63089104E+00  -1.56057537E+01   1.16099654E-01
   1.13750000E+02   5.00000000E-01   5.00000000E-01  -7.79692830E+00  -2.23841117E+00  -5.33883254E+00  -2.61128725E+00  -2.71688856E+00   8.45418416E-02  -5.00274312E+00   2.58706940E-01   1.94730821E+00   9.16796315E-01   1.87930311E+00  -2.25535590E+00  -1.22446766E+00  -1.59729157E+00  -1.23190971E+00  -2.72947222E+00  -9.85810732E-01  -8.86281238E+00   4.23460485E-01   1.97008740E-02  -2.26029074E+00  -8.21957597E-01   4.42354359E-01  -1.96319750E-01   3.48662732E-01  -1.96899650E+00  -6.51739274E+00  -3.03384383E+01  -8.70316928E-01  -8.03619917E+00  -3.53323066E+00  -5.28819583E+01  -1.86545182E+01   1.09418774E+00  -9.70710336E-01   2.19485148E-01  -2.91617000E-02  -6.62601673E-01  -2.19606416E+01  -7.89976566E+00  -1.73697113E+00  -3.59000698E+00  -1.55401958E+01   1.16099654E-01
   1.31250000E+02   5.00000000E-01   5.00000000E-01  -7.76886573E+00  -2.14644087E+00  -5.33077040E+00  -2.63547264E+00  -2.73916527E+00   8.45418416E-02  -4.93843259E+00   2.55053295E-01   1.92174158E+00   9.12736208E-01   1.86226682E+00  -2.14810878E+00  -1.13600608E+00  -1.49045431E+00  -1.13502178E+00  -2.71791726E+00  -9.38014299E-01  -8.75064111E+00   4.53963035E-01   1.97061504E-02  -2.15553831E+00  -7.45802833E-01   4.98519458E-01  -1.20399571E-01   4.13698073E-01  -1.89539978E+00  -6.53752947E+00  -3.01357195E+01  -8.51280261E-01  -7.95066798E+00  -3.46274590E+00  -5.23360420E+01  -1.83884859E+01   1.09593711E+00  -9.73239983E-01   2.27136015E-01  -3.28692736E-02  -6.75458975E-01  -2.16959817E+01  -7.91534791E+00  -1.74071480E+00  -3.54858295E+00  -1.54748862E+01   1.16099654E-01
   1.48750000E+02   5.00000000E-01   5.00000000E-01  -7.73292197E+00  -2.06047102E+00  -5.31725976E+00  -2.64876042E+00  -2.75056420E+00   8.45418415E-02  -4.87581007E+00   2.54962137E-01   1.90000671E+00   9.12249220E-01   1.84896499E+00  -2.07376680E+00  -1.08024773E+00  -1.41651125E+00  -1.07093392E+00  -2.70389770E+00  -8.94732196E-01  -8.65865287E+00   4.68633543E-01   1.97957584E-02  -2.08707645E+00  -6.95035283E-01   5.29511366E-01  -6.98579540E-02   4.53459056E-01  -1.84724562E+00  -6.54249275E+00  -2.99448243E+01  -8.32070269E-01  -7.88253278E+00  -3.41515595E+00  -5.18074473E+01  -1.81317714E+01   1.09467190E+00  -9.74190250E-01   2.33716335E-01  -3.55026399E-02  -6.87663420E-01  -2.14635068E+01  -7.92314549E+00  -1.74397750E+00  -3.50783155E+00  -1.54098317E+01   1.16099654E-01
   1.66250000E+02   5.00000000E-01   5.00000000E-01  -7.69174672E+00  -1.98006082E+00  -5.30038879E+00  -2.65436871E+00  -2.75430315E+00   8.45418415E-02  -4.81541622E+00   2.58386802E-01   1.88204949E+00   9.15286348E-01   1.83934525E+00  -2.02026996E+00  -1.04513618E+00  -1.36340477E+00  -1.02758796E+00  -2.68797474E+00  -8.54979806E-01  -8.58003593E+00   4.73929213E-01   1.99218155E-02  -2.04284854E+00  -6.59768781E-01   5.45212532E-01  -3.48110311E-02   4.77829901E-01  -1.81564750E+00  -6.53467120E+00  -2.97613863E+01  -8.12696743E-01  -7.82553470E+00  -3.38212376E+00  -5.12924921E+01  -1.78828032E+01   1.09192025E+00  -9.74079426E-01   2.39259142E-01  -3.76038389E-02  -6.99241744E-01  -2.12547187E+01  -7.92480957E+00  -1.74677717E+00  -3.46851234E+00  -1.53450390E+01   1.16099654E-01
   1.83750000E+02   5.00000000E-01   5.00000000E-01  -7.64718121E+00  -1.90487063E+00  -5.28149648E+00  -2.65464771E+00  -2.75273204E+00   8.45418415E-02  -4.75749734E+00   2.64848155E-01   1.86738116E+00   9.21366681E-01   1.83292034E+00  -1.97989734E+00  -1.02295393E+00  -1.32341571E+00  -9.97264869E-01  -2.67065032E+00  -8.18168082E-01  -8.51027126E+00   4.73780752E-01   2.00543461E-02  -2.01468658E+00  -6.33872105E-01   5.51750562E-01  -9.12931745E-03   4.92939811E-01  -1.79475753E+00  -6.51673476E+00  -2.95828050E+01  -7.93169319E-01  -7.77565151E+00  -3.35829492E+00  -5.07886938E+01  -1.76404623E+01   1.08852036E+00  -9.73369484E-01   2.43797741E-01  -3.94325163E-02  -7.10219599E-01  -2.10638504E+01  -7.92182323E+00  -1.74913133E+00  -3.43100988E+00  -1.52805143E+01   1.16099655E-01
   2.01250000E+02   5.00000000E-01   5.00000000E-01  -7.60048086E+00  -1.83456229E+00  -5.26142697E+00  -2.65127082E+00  -2.74752394E+00   8.45418414E-02  -4.70209855E+00   2.73744964E-01   1.85539065E+00   9.29887617E-01   1.82908061E+00  -1.94778308E+00  -1.00883847E+00  -1.29167961E+00  -9.75100724E-01  -2.65233545E+00  -7.83910706E-01  -8.44640339E+00   4.70529055E-01   2.01779943E-02  -1.99714089E+00  -6.13613818E-01   5.52853377E-01   1.09172925E-02   5.02518187E-01  -1.78078394E+00  -6.49112536E+00  -2.94075654E+01  -7.73497459E-01  -7.73033593E+00  -3.34028257E+00  -5.02943554E+01  -1.74039219E+01   1.08490643E+00  -9.72433718E-01   2.47365492E-01  -4.11159988E-02  -7.20621558E-01  -2.08869249E+01  -7.91540377E+00  -1.75105702E+00  -3.39546028E+00  -1.52162636E+01   1.16099655E-01
   2.18750000E+02   5.00000000E-01   5.00000000E-01  -7.55249430E+00  -1.76878536E+00  -5.24070763E+00  -2.64541453E+00  -2.73985508E+00   8.45418414E-02  -4.64914549E+00   2.84498004E-01   1.84548967E+00   9.40268835E-01   1.82723910E+00  -1.92088450E+00  -9.99750371E-01  -1.26515489E+00  -9.58054746E-01  -2.63335115E+00  -7.51928634E-01  -8.38650992E+00   4.65544902E-01   2.02866365E-02  -1.98659766E+00  -5.96750865E-01   5.50760601E-01   2.75707935E-02   5.08806057E-01  -1.77128321E+00  -6.45988470E+00  -2.92348003E+01  -7.53690429E-01  -7.68798524E+00  -3.32595963E+00  -4.98082921E+01  -1.71725519E+01   1.08128589E+00  -9.71557116E-01   2.49995617E-01  -4.27180117E-02  -7.30471120E-01  -2.07211424E+01  -7.90650318E+00  -1.75257083E+00  -3.36185151E+00  -1.51522926E+01   1.16099655E-01
   2.36250000E+02   5.00000000E-01   5.00000000E-01  -7.50379153E+00  -1.70718503E+00  -5.21966554E+00  -2.63789829E+00  -2.73054460E+00   8.45418413E-02  -4.59850065E+00   2.96609305E-01   1.83717217E+00   9.52011456E-01   1.82689107E+00  -1.89730967E+00  -9.93800904E-01  -1.24195056E+00  -9.44236908E-01  -2.61394010E+00  -7.22001637E-01  -8.32934409E+00   4.59617286E-01   2.03791240E-02  -1.98067008E+00  -5.81949840E-01   5.46802303E-01   4.21637214E-02   5.13134839E-01  -1.76468674E+00  -6.42463022E+00  -2.90640212E+01  -7.33757276E-01  -7.64759511E+00  -3.31399670E+00  -4.93296561E+01  -1.69458592E+01   1.07774412E+00  -9.70947687E-01   2.51721014E-01  -4.42709032E-02  -7.39790736E-01  -2.05644870E+01  -7.89584162E+00  -1.75368883E+00  -3.33009060E+00  -1.50886066E+01   1.16099655E-01
   2.53750000E+02   5.00000000E-01   5.00000000E-01  -7.45475206E+00  -1.64941237E+00  -5.19850147E+00  -2.62928675E+00  -2.72015688E+00   8.45418413E-02  -4.54999846E+00   3.09678629E-01   1.83003091E+00   9.64714461E-01   1.82763052E+00  -1.87589129E+00  -9.89825840E-01  -1.22090009E+00  -9.32481724E-01  -2.59428084E+00  -6.93943528E-01  -8.27410105E+00   4.53190051E-01   2.04566166E-02  -1.97779130E+00  -5.68429420E-01   5.41756545E-01   5.54766513E-02   5.16283908E-01  -1.75999344E+00  -6.38659345E+00  -2.88949581E+01  -7.13706807E-01  -7.60853953E+00  -3.30356842E+00  -4.88578242E+01  -1.67234487E+01   1.07430436E+00  -9.70750424E-01   2.52574098E-01  -4.57911486E-02  -7.48601832E-01  -2.04154740E+01  -7.88394882E+00  -1.75442655E+00  -3.30004496E+00  -1.50252107E+01   1.16099655E-01
   2.71250000E+02   5.00000000E-01   5.00000000E-01  -7.40562481E+00  -1.59513231E+00  -5.17733643E+00  -2.61996312E+00  -2.70907485E+00   8.45418412E-02  -4.50346579E+00   3.23399644E-01   1.82375349E+00   9.78070829E-01   1.82914629E+00  -1.85591895E+00  -9.87117820E-01  -1.20129380E+00  -9.22080600E-01  -2.57450111E+00  -6.67589550E-01  -8.22026603E+00   4.46504073E-01   2.05211203E-02  -1.97694441E+00  -5.55742113E-01   5.36067642E-01   6.79564210E-02   5.18698867E-01  -1.75657158E+00  -6.34668037E+00  -2.87274647E+01  -6.93547567E-01  -7.57043230E+00  -3.29416848E+00  -4.83923254E+01  -1.65049981E+01   1.07096080E+00  -9.71060626E-01   2.52586667E-01  -4.72870046E-02  -7.56924842E-01  -2.02729856E+01  -7.87120360E+00  -1.75479899E+00  -3.27156682E+00  -1.49621094E+01   1.16099655E-01
   2.88750000E+02   5.00000000E-01   5.00000000E-01  -7.35656900E+00  -1.54402861E+00  -5.15624094E+00  -2.61018161E+00  -2.69755245E+00   8.45418412E-02  -4.45873333E+00   3.37547669E-01   1.81811000E+00   9.91855255E-01   1.83120966E+00  -1.83697111E+00  -9.85258226E-01  -1.18271076E+00  -9.12613709E-01  -2.55468947E+00  -6.42790042E-01  -8.16751553E+00   4.39682078E-01   2.05747633E-02  -1.97748281E+00  -5.43641529E-01   5.29978878E-01   7.98488293E-02   5.20624264E-01  -1.75403085E+00  -6.30553438E+00  -2.85614630E+01  -6.73287824E-01  -7.53303958E+00  -3.28549318E+00  -4.79327942E+01  -1.62902396E+01   1.06769633E+00  -9.71935466E-01   2.51789776E-01  -4.87623844E-02  -7.64779241E-01  -2.01361620E+01  -7.85786825E+00  -1.75482062E+00  -3.24450694E+00  -1.48993072E+01   1.16099655E-01
   3.06250000E+02   5.00000000E-01   5.00000000E-01  -7.30768225E+00  -1.49580673E+00  -5.13525358E+00  -2.60010505E+00  -2.68575226E+00   8.45418411E-02  -4.41564150E+00   3.51964951E-01   1.81293808E+00   1.00590942E+00   1.83365948E+00  -1.81880865E+00  -9.84010830E-01  -1.16491245E+00  -9.03843624E-01  -2.53490481E+00  -6.19407348E-01  -8.11565236E+00   4.32779138E-01   2.06194817E-02  -1.97900941E+00  -5.32001517E-01   5.23613375E-01   9.12794910E-02   5.22184468E-01  -1.75213895E+00  -6.26359406E+00  -2.83969121E+01  -6.52935551E-01  -7.49622442E+00  -3.27736742E+00  -4.74789393E+01  -1.60789477E+01   1.06449149E+00  -9.73403550E-01   2.50213633E-01  -5.02188661E-02  -7.72183580E-01  -2.00043290E+01  -7.84411687E+00  -1.75450532E+00  -3.21872206E+00  -1.48368080E+01   1.16099655E-01
   3.23750000E+02   5.00000000E-01   5.00000000E-01  -7.25902025E+00  -1.45019524E+00  -5.11439291E+00  -2.58983238E+00  -2.67377294E+00   8.45418410E-02  -4.37404327E+00   3.66546124E-01   1.80812830E+00   1.02012742E+00   1.83638751E+00  -1.80130658E+00  -9.83253458E-01  -1.14777442E+00  -8.95646995E-01  -2.51518413E+00  -5.97314450E-01  -8.06456211E+00   4.25812790E-01   2.06569128E-02  -1.98129390E+00  -5.20766465E-01   5.17023783E-01   1.02303523E-01   5.23433360E-01  -1.75076613E+00  -6.22114309E+00  -2.82337895E+01  -6.32498424E-01  -7.45991092E+00  -3.26969696E+00  -4.70305228E+01  -1.58709297E+01   1.06132869E+00  -9.75472719E-01   2.47887512E-01  -5.16567587E-02  -7.79155526E-01  -1.98769477E+01  -7.83005849E+00  -1.75386644E+00  -3.19407867E+00  -1.47746155E+01   1.16099655E-01
   3.41250000E+02   5.00000000E-01   5.00000000E-01  -7.21061095E+00  -1.40694654E+00  -5.09366538E+00  -2.57941909E+00  -2.66166976E+00   8.45418409E-02  -4.33380526E+00   3.81224895E-01   1.80361072E+00   1.03444249E+00   1.83932494E+00  -1.78440911E+00  -9.82933053E-01  -1.13124136E+00  -8.87969601E-01  -2.49554886E+00  -5.76394529E-01  -8.01418320E+00   4.18781152E-01   2.06883879E-02  -1.98421447E+00  -5.09920278E-01   5.10223304E-01   1.12936563E-01   5.24385355E-01  -1.74984741E+00  -6.17835279E+00  -2.80720809E+01  -6.11983807E-01  -7.42406058E+00  -3.26243698E+00  -4.65873453E+01  -1.56660192E+01   1.05819376E+00  -9.78136390E-01   2.44839678E-01  -5.30756780E-02  -7.85711893E-01  -1.97535795E+01  -7.81575592E+00  -1.75291677E+00  -3.17045485E+00  -1.47127330E+01   1.16099655E-01
   3.58750000E+02   5.00000000E-01   5.00000000E-01  -7.16246503E+00  -1.36583723E+00  -5.07307061E+00  -2.56889286E+00  -2.64947012E+00   8.45418408E-02  -4.29480809E+00   3.95962304E-01   1.79934301E+00   1.04881521E+00   1.84243060E+00  -1.76809922E+00  -9.83035289E-01  -1.11529672E+00  -8.80795965E-01  -2.47600995E+00  -5.56541051E-01  -7.96448567E+00   4.11673914E-01   2.07149680E-02  -1.98771567E+00  -4.99466615E-01   5.03205451E-01   1.23174528E-01   5.25035164E-01  -1.74935612E+00  -6.13531780E+00  -2.79117748E+01  -5.91398754E-01  -7.38865618E+00  -3.25557061E+00  -4.61492359E+01  -1.54640712E+01   1.05507617E+00  -9.81378733E-01   2.41097325E-01  -5.44748648E-02  -7.91868681E-01  -1.96338602E+01  -7.80124104E+00  -1.75166858E+00  -3.14774099E+00  -1.46511636E+01   1.16099655E-01
   3.76250000E+02   5.00000000E-01   5.00000000E-01  -7.11458363E+00  -1.32666810E+00  -5.05260511E+00  -2.55826541E+00  -2.63718550E+00   8.45418407E-02  -4.25694608E+00   4.10736820E-01   1.79530049E+00   1.06322363E+00   1.84568095E+00  -1.75237794E+00  -9.83563821E-01  -1.09994197E+00  -8.74128609E-01  -2.45657201E+00  -5.37658009E-01  -7.91545607E+00   4.04479001E-01   2.07374933E-02  -1.99177770E+00  -4.89416234E-01   4.95956706E-01   1.33006270E-01   5.25370450E-01  -1.74928502E+00  -6.09208530E+00  -2.77528590E+01  -5.70750004E-01  -7.35369077E+00  -3.24909428E+00  -4.57160445E+01  -1.52649579E+01   1.05196856E+00  -9.85178815E-01   2.36686528E-01  -5.58533621E-02  -7.97641110E-01  -1.95174818E+01  -7.78652712E+00  -1.75013356E+00  -3.12583989E+00  -1.45899098E+01   1.16099655E-01
   3.93750000E+02   5.00000000E-01   5.00000000E-01  -7.06696386E+00  -1.28926367E+00  -5.03226461E+00  -2.54754100E+00  -2.62481994E+00   8.45418406E-02  -4.22012671E+00   4.25536667E-01   1.79146839E+00   1.07765557E+00   1.84906232E+00  -1.73725088E+00  -9.84526800E-01  -1.08518309E+00  -8.67974566E-01  -2.43723636E+00  -5.19659994E-01  -7.86708715E+00   3.97186331E-01   2.07566332E-02  -1.99639518E+00  -4.79779305E-01   4.88464196E-01   1.42421256E-01   5.25379509E-01  -1.74963377E+00  -6.04867710E+00  -2.75953192E+01  -5.50043982E-01  -7.31916043E+00  -3.24300811E+00  -4.52876361E+01  -1.50685658E+01   1.04886605E+00  -9.89513697E-01   2.31632207E-01  -5.72101160E-02  -8.03043653E-01  -1.94041788E+01  -7.77161799E+00  -1.74832291E+00  -3.10466644E+00  -1.45289739E+01   1.16099655E-01
   4.11250000E+02   5.00000000E-01   5.00000000E-01  -7.01960200E+00  -1.25347067E+00  -5.01204534E+00  -2.53672166E+00  -2.61237523E+00   8.45418405E-02  -4.18426953E+00   4.40354777E-01   1.78783673E+00   1.09210363E+00   1.85256585E+00  -1.72272084E+00  -9.85929556E-01  -1.07102329E+00  -8.62338061E-01  -2.41800299E+00  -5.02471803E-01  -7.81937201E+00   3.89789454E-01   2.07729300E-02  -2.00156480E+00  -4.70561638E-01   4.80719471E-01   1.51413344E-01   5.25055039E-01  -1.75040166E+00  -6.00510394E+00  -2.74391389E+01  -5.29286806E-01  -7.28506034E+00  -3.23731070E+00  -4.48638879E+01  -1.48747935E+01   1.04576563E+00  -9.94360401E-01   2.25958101E-01  -5.85440334E-02  -8.08090073E-01  -1.92937186E+01  -7.75651386E+00  -1.74624727E+00  -3.08414669E+00  -1.44683581E+01   1.16099654E-01
   4.28750000E+02   5.00000000E-01   5.00000000E-01  -6.97249475E+00  -1.21915561E+00  -4.99194450E+00  -2.52580930E+00  -2.59985305E+00   8.45418404E-02  -4.14930473E+00   4.55186375E-01   1.78439793E+00   1.10656268E+00   1.85618504E+00  -1.70878572E+00  -9.87772422E-01  -1.05746078E+00  -8.57218341E-01  -2.39887141E+00  -4.86027439E-01  -7.77230200E+00   3.82285627E-01   2.07868330E-02  -2.00728061E+00  -4.61763968E-01   4.72719214E-01   1.59981496E-01   5.24394861E-01  -1.75158517E+00  -5.96137205E+00  -2.72842992E+01  -5.08484283E-01  -7.25138358E+00  -3.23199752E+00  -4.44446862E+01  -1.46835497E+01   1.04266562E+00  -9.99696794E-01   2.19686753E-01  -5.98540151E-02  -8.12793449E-01  -1.91858952E+01  -7.74121395E+00  -1.74391680E+00  -3.06421654E+00  -1.44080638E+01   1.16099654E-01
   4.46250000E+02   5.00000000E-01   5.00000000E-01  -6.92563908E+00  -1.18620162E+00  -4.97195993E+00  -2.51480557E+00  -2.58725483E+00   8.45418403E-02  -4.11517134E+00   4.70028630E-01   1.78114640E+00   1.12102960E+00   1.85991537E+00  -1.69543977E+00  -9.90052039E-01  -1.04449012E+00  -8.52610971E-01  -2.37984073E+00  -4.70268676E-01  -7.72586735E+00   3.74674947E-01   2.07987224E-02  -2.01353504E+00  -4.53383177E-01   4.64464021E-01   1.68128554E-01   5.23400686E-01  -1.75317885E+00  -5.91748378E+00  -2.71307800E+01  -4.87641924E-01  -7.21812178E+00  -3.22706179E+00  -4.40299255E+01  -1.44947517E+01   1.03956543E+00  -1.00550165E+00   2.12839499E-01  -6.11389760E-02  -8.17166212E-01  -1.90805253E+01  -7.72571659E+00  -1.74134115E+00  -3.04482015E+00  -1.43480925E+01   1.16099654E-01
   4.63750000E+02   5.00000000E-01   5.00000000E-01  -6.87903145E+00  -1.15450528E+00  -4.95208975E+00  -2.50371082E+00  -2.57458069E+00   8.45418401E-02  -4.08181568E+00   4.84881259E-01   1.77807921E+00   1.13550383E+00   1.86375497E+00  -1.68267616E+00  -9.92763917E-01  -1.03210477E+00  -8.48510403E-01  -2.36090932E+00  -4.55143546E-01  -7.68005877E+00   3.66959247E-01   2.08089237E-02  -2.02032199E+00  -4.45414135E-01   4.55956553E-01   1.75859405E-01   5.22076280E-01  -1.75517733E+00  -5.87343559E+00  -2.69785602E+01  -4.66764942E-01  -7.18526645E+00  -3.22249629E+00  -4.36195077E+01  -1.43083241E+01   1.03646541E+00  -1.01175435E+00   2.05436470E-01  -6.23978567E-02  -8.21220173E-01  -1.89774456E+01  -7.71001837E+00  -1.73852951E+00  -3.02590828E+00  -1.42884452E+01   1.16099654E-01
   4.81250000E+02   5.00000000E-01   5.00000000E-01  -6.83266727E+00  -1.12397410E+00  -4.93233197E+00  -2.49252329E+00  -2.56182867E+00   8.45418400E-02  -4.04918997E+00   4.99746980E-01   1.77519648E+00   1.14998786E+00   1.86770500E+00  -1.67048876E+00  -9.95904219E-01  -1.02029884E+00  -8.44911756E-01  -2.34207459E+00  -4.40605118E-01  -7.63486865E+00   3.59141341E-01   2.08177171E-02  -2.02763907E+00  -4.37850963E-01   4.47200276E-01   1.83179711E-01   5.20426196E-01  -1.75757688E+00  -5.82921651E+00  -2.68276181E+01  -4.45858264E-01  -7.15280992E+00  -3.21829456E+00  -4.32133417E+01  -1.41241980E+01   1.03336679E+00  -1.01843462E+00   1.97496599E-01  -6.36296298E-02  -8.24966549E-01  -1.88765105E+01  -7.69411338E+00  -1.73549059E+00  -3.00743715E+00  -1.42291227E+01   1.16099654E-01
   4.98750000E+02   5.00000000E-01   5.00000000E-01  -6.78654110E+00  -1.09452505E+00  -4.91268457E+00  -2.48123948E+00  -2.54899505E+00   8.45418398E-02  -4.01725158E+00   5.14631073E-01   1.77250099E+00   1.16448674E+00   1.87176928E+00  -1.65887200E+00  -9.99469609E-01  -1.00906698E+00  -8.41810665E-01  -2.32333316E+00  -4.26610829E-01  -7.59029083E+00   3.51224907E-01   2.08253422E-02  -2.03548701E+00  -4.30687102E-01   4.38199388E-01   1.90095843E-01   5.18455705E-01  -1.76037506E+00  -5.78480937E+00  -2.66779317E+01  -4.24926538E-01  -7.12074525E+00  -3.21445082E+00  -4.28113417E+01  -1.39423100E+01   1.03027149E+00  -1.02552270E+00   1.89037634E-01  -6.48333040E-02  -8.28415995E-01  -1.87775897E+01  -7.67799372E+00  -1.73223266E+00  -2.98936763E+00  -1.41701255E+01   1.16099653E-01
   5.16250000E+02   5.00000000E-01   5.00000000E-01  -6.74064752E+00  -1.06608409E+00  -4.89314582E+00  -2.46985559E+00  -2.53607581E+00   8.45418396E-02  -3.98596270E+00   5.29539959E-01   1.76999673E+00   1.17900673E+00   1.87595280E+00  -1.64781882E+00  -1.00345521E+00  -9.98402324E-01  -8.39201238E-01  -2.30468137E+00  -4.13122337E-01  -7.54631887E+00   3.43214940E-01   2.08320039E-02  -2.04386620E+00  -4.23914262E-01   4.28959872E-01   1.96615933E-01   5.16171847E-01  -1.76356878E+00  -5.74019469E+00  -2.65294789E+01  -4.03974140E-01  -7.08906510E+00  -3.21095847E+00  -4.24134270E+01  -1.37626017E+01   1.02718203E+00  -1.03299984E+00   1.80076161E-01  -6.60079247E-02  -8.31578624E-01  -1.86805654E+01  -7.66165108E+00  -1.72876357E+00  -2.97166501E+00  -1.41114538E+01   1.16099653E-01
   5.33750000E+02   5.00000000E-01   5.00000000E-01  -6.69498239E+00  -1.03858629E+00  -4.87371485E+00  -2.45836946E+00  -2.52306863E+00   8.45418394E-02  -3.95529025E+00   5.44479304E-01   1.76768697E+00   1.19355332E+00   1.88025984E+00  -1.63731780E+00  -1.00785174E+00  -9.88293606E-01  -8.37073194E-01  -2.28611604E+00  -4.00105679E-01  -7.50294388E+00   3.35118430E-01   2.08378773E-02  -2.05277192E+00  -4.17520907E-01   4.19491007E-01   2.02751385E-01   5.13584942E-01  -1.76715145E+00  -5.69535615E+00  -2.63822365E+01  -3.83005187E-01  -7.05776022E+00  -3.20780808E+00  -4.20195205E+01  -1.35850186E+01   1.02410123E+00  -1.04084903E+00   1.70627630E-01  -6.71525745E-02  -8.34464037E-01  -1.85853294E+01  -7.64507896E+00  -1.72509075E+00  -2.95429894E+00  -1.40531075E+01   1.16099651E-01
   5.51250000E+02   5.00000000E-01   5.00000000E-01  -6.64954387E+00  -1.01197575E+00  -4.85439195E+00  -2.44678226E+00  -2.50997443E+00   8.45418392E-02  -3.92520578E+00   5.59452430E-01   1.76557267E+00   1.20812972E+00   1.88469234E+00  -1.62735100E+00  -1.01264334E+00  -9.78723010E-01  -8.35409685E-01  -2.26763507E+00  -3.87531380E-01  -7.46015267E+00   3.26944820E-01   2.08431157E-02  -2.06219055E+00  -4.11491167E-01   4.09806453E-01   2.08517966E-01   5.10709679E-01  -1.77111089E+00  -5.65028497E+00  -2.62361810E+01  -3.62023540E-01  -7.02681827E+00  -3.20498579E+00  -4.16295479E+01  -1.34095102E+01   1.02103203E+00  -1.04905555E+00   1.60706388E-01  -6.82663721E-02  -8.37081345E-01  -1.84917815E+01  -7.62827447E+00  -1.72122124E+00  -2.93724342E+00  -1.39950863E+01   1.16099649E-01
   5.68750000E+02   5.00000000E-01   5.00000000E-01  -6.60433258E+00  -9.86205081E-01  -4.83517868E+00  -2.43509879E+00  -2.49679785E+00   8.45418390E-02  -3.89568511E+00   5.74459762E-01   1.76365193E+00   1.22273625E+00   1.88924937E+00  -1.61789371E+00  -1.01780736E+00  -9.69665948E-01  -8.34187089E-01  -2.24923762E+00  -3.75374217E-01  -7.41792747E+00   3.18705857E-01   2.08478573E-02  -2.07209882E+00  -4.05804914E-01   3.99924180E-01   2.13935724E-01   5.07565040E-01  -1.77542894E+00  -5.60498142E+00  -2.60912881E+01  -3.41032818E-01  -6.99622364E+00  -3.20247316E+00  -4.12434369E+01  -1.32360295E+01   1.01797733E+00  -1.05760709E+00   1.50325722E-01  -6.93484725E-02  -8.39439192E-01  -1.83998275E+01  -7.61123888E+00  -1.71716169E+00  -2.92047638E+00  -1.39373897E+01   1.16099647E-01
   5.86250000E+02   5.00000000E-01   5.00000000E-01  -6.55935095E+00  -9.61233885E-01  -4.81607746E+00  -2.42332650E+00  -2.48354613E+00   8.45418388E-02  -3.86670753E+00   5.89499596E-01   1.76192073E+00   1.23737114E+00   1.89392788E+00  -1.60891671E+00  -1.02331657E+00  -9.61093279E-01  -8.33377224E-01  -2.23092377E+00  -3.63612522E-01  -7.37624739E+00   3.10414756E-01   2.08522322E-02  -2.08246680E+00  -4.00439241E-01   3.89864981E-01   2.19027513E-01   5.04172817E-01  -1.78008334E+00  -5.55945238E+00  -2.59475335E+01  -3.20036407E-01  -6.96595867E+00  -3.20024874E+00  -4.08611179E+01  -1.30645321E+01   1.01493994E+00  -1.06649342E+00   1.39497894E-01  -7.03980680E-02  -8.41545778E-01  -1.83093795E+01  -7.59397656E+00  -1.71291842E+00  -2.90397904E+00  -1.38800170E+01   1.16099642E-01
   6.03750000E+02   5.00000000E-01   5.00000000E-01  -6.51460164E+00  -9.37026705E-01  -4.79709083E+00  -2.41147315E+00  -2.47022686E+00   8.45418385E-02  -3.83825485E+00   6.04569942E-01   1.76037484E+00   1.25203234E+00   1.89872458E+00  -1.60039032E+00  -1.02914324E+00  -9.52975363E-01  -8.32951407E-01  -2.21269374E+00  -3.52227105E-01  -7.33509139E+00   3.02084855E-01   2.08563674E-02  -2.09326374E+00  -3.95370979E-01   3.79649959E-01   2.23816477E-01   5.00555096E-01  -1.78505140E+00  -5.51370589E+00  -2.58048934E+01  -2.99037470E-01  -6.93600576E+00  -3.19829089E+00  -4.04825239E+01  -1.28949764E+01   1.01192265E+00  -1.07570552E+00   1.28234194E-01  -7.14143896E-02  -8.43408878E-01  -1.82203560E+01  -7.57649269E+00  -1.70849738E+00  -2.88773488E+00  -1.38229670E+01   1.16099635E-01
   6.21250000E+02   5.00000000E-01   5.00000000E-01  -6.47008587E+00  -9.13550781E-01  -4.77822067E+00  -2.39954422E+00  -2.45684530E+00   8.45418383E-02  -3.81031028E+00   6.19670749E-01   1.75901202E+00   1.26671978E+00   1.90363816E+00  -1.59228893E+00  -1.03526368E+00  -9.45286620E-01  -8.32885012E-01  -2.19454698E+00  -3.41200083E-01  -7.29444160E+00   2.93728169E-01   2.08603883E-02  -2.10446492E+00  -3.90579460E-01   3.69297762E-01   2.28323280E-01   4.96731496E-01  -1.79031414E+00  -5.46774459E+00  -2.56633451E+01  -2.78038954E-01  -6.90634978E+00  -3.19658101E+00  -4.01075909E+01  -1.27273234E+01   1.00892834E+00  -1.08523464E+00   1.16544979E-01  -7.23967097E-02  -8.45035863E-01  -1.81326833E+01  -7.55879044E+00  -1.70390422E+00  -2.87172859E+00  -1.37662387E+01   1.16099625E-01