 TITLE = "Mineral Saturation State" 
VARIABLES = "X"          "Y"              "Z"            "Forsterite"     "Enstatite(alph" "Anorthite"      "Ferropargasite" "Anhydrite"      "Clinochlore"    "Albite(low)"   
 ZONE I=          35 , J=           1 , K=           1  F=POINT
   5.00000000E+01   5.00000000E-01   5.00000000E-01   1.87776836E+00   8.42887675E-01  -2.87013762E+01  -4.06810537E+01  -7.77747403E-01   4.23299314E-01  -1.46556113E+01
   1.50000000E+02   5.00000000E-01   5.00000000E-01   1.18386738E+00  -1.02083431E-01  -2.79442633E+01  -4.23390022E+01  -7.21429412E-01   4.23244602E-01  -1.67113150E+01
   2.50000000E+02   5.00000000E-01   5.00000000E-01   9.25238236E-01  -6.21471301E-01  -2.76594592E+01  -4.34693021E+01  -6.63275347E-01   4.23244602E-01  -1.81702556E+01
   3.50000000E+02   5.00000000E-01   5.00000000E-01   9.22311191E-01  -8.76697764E-01  -2.76302045E+01  -4.42029623E+01  -6.03679621E-01   4.23244602E-01  -1.92106717E+01
   4.50000000E+02   5.00000000E-01   5.00000000E-01   9.25354898E-01  -1.11507539E+00  -2.76011493E+01  -4.49001347E+01  -5.43009078E-01   4.23244602E-01  -2.01947378E+01
   5.50000000E+02   5.00000000E-01   5.00000000E-01   9.27039803E-01  -1.34291926E+00  -2.75622193E+01  -4.55655488E+01  -4.81570607E-01   4.23244602E-01  -2.11280693E+01
   6.50000000E+02   5.00000000E-01   5.00000000E-01   9.27984132E-01  -1.55909923E+00  -2.75123482E+01  -4.61946249E+01  -4.19616828E-01   4.23244602E-01  -2.20068910E+01
   7.50000000E+02   5.00000000E-01   5.00000000E-01   9.28527704E-01  -1.76311639E+00  -2.74509468E+01  -4.67849994E+01  -3.57353992E-01   4.23244602E-01  -2.28296255E+01
   8.50000000E+02   5.00000000E-01   5.00000000E-01   9.28849179E-01  -1.95488781E+00  -2.73778200E+01  -4.73358341E+01  -2.94949299E-01   4.23244602E-01  -2.35962264E+01
   9.50000000E+02   5.00000000E-01   5.00000000E-01   9.29044487E-01  -2.13459483E+00  -2.72930946E+01  -4.78473258E+01  -2.32537364E-01   4.23244603E-01  -2.43076932E+01
   1.05000000E+03   5.00000000E-01   5.00000000E-01   9.29166310E-01  -2.30258715E+00  -2.71971414E+01  -4.83203674E+01  -1.70225792E-01   4.23244603E-01  -2.49657287E+01
   1.15000000E+03   5.00000000E-01   5.00000000E-01   9.29244256E-01  -2.45932059E+00  -2.70905083E+01  -4.87563170E+01  -1.08099908E-01   4.23244603E-01  -2.55724975E+01
   1.25000000E+03   5.00000000E-01   5.00000000E-01   9.29295361E-01  -2.60531774E+00  -2.69738686E+01  -4.91568489E+01  -4.62268004E-02   4.23244603E-01  -2.61304655E+01
   1.35000000E+03   5.00000000E-01   5.00000000E-01   9.29329656E-01  -2.74114500E+00  -2.68479894E+01  -4.95238718E+01   1.53411653E-02   4.23244604E-01  -2.66423034E+01
   1.45000000E+03   5.00000000E-01   5.00000000E-01   9.29353182E-01  -2.86740120E+00  -2.67137150E+01  -4.98594956E+01   7.65631525E-02   4.23244606E-01  -2.71108400E+01
   1.55000000E+03   5.00000000E-01   5.00000000E-01   9.29369652E-01  -2.98471385E+00  -2.65719621E+01  -5.01660331E+01   1.37406806E-01   4.23244610E-01  -2.75390486E+01
   1.65000000E+03   5.00000000E-01   5.00000000E-01   9.29381394E-01  -3.09373984E+00  -2.64237230E+01  -5.04460217E+01   1.97845214E-01   4.23244617E-01  -2.79300529E+01
   1.75000000E+03   5.00000000E-01   5.00000000E-01   9.29389886E-01  -3.19516796E+00  -2.62700717E+01  -5.07022507E+01   2.57853813E-01   4.23244630E-01  -2.82871416E+01
   1.85000000E+03   5.00000000E-01   5.00000000E-01   9.29396069E-01  -3.28972135E+00  -2.61121688E+01  -5.09377871E+01   3.17407227E-01   4.23244654E-01  -2.86137805E+01
   1.95000000E+03   5.00000000E-01   5.00000000E-01   9.29400528E-01  -3.37815864E+00  -2.59512655E+01  -5.11559903E+01   3.76476150E-01   4.23244695E-01  -2.89136188E+01
   2.05000000E+03   5.00000000E-01   5.00000000E-01   9.29403597E-01  -3.46127334E+00  -2.57887026E+01  -5.13605148E+01   4.35024361E-01   4.23244767E-01  -2.91904859E+01
   2.15000000E+03   5.00000000E-01   5.00000000E-01   9.29405402E-01  -3.53989137E+00  -2.56259065E+01  -5.15552983E+01   4.93006066E-01   4.23244888E-01  -2.94483788E+01
   2.25000000E+03   5.00000000E-01   5.00000000E-01   9.29405889E-01  -3.61486709E+00  -2.54643815E+01  -5.17445367E+01   5.50363687E-01   4.23245086E-01  -2.96914418E+01
   2.35000000E+03   5.00000000E-01   5.00000000E-01   9.29404806E-01  -3.68707803E+00  -2.53056995E+01  -5.19326474E+01   6.07026243E-01   4.23245406E-01  -2.99239400E+01
   2.45000000E+03   5.00000000E-01   5.00000000E-01   9.29401670E-01  -3.75741834E+00  -2.51514863E+01  -5.21242191E+01   6.62908423E-01   4.23245909E-01  -3.01502261E+01
   2.55000000E+03   5.00000000E-01   5.00000000E-01   9.29395719E-01  -3.82679037E+00  -2.50034034E+01  -5.23239457E+01   7.17910423E-01   4.23246687E-01  -3.03746975E+01
   2.65000000E+03   5.00000000E-01   5.00000000E-01   9.29385834E-01  -3.89609352E+00  -2.48631240E+01  -5.25365421E+01   7.71918644E-01   4.23247864E-01  -3.06017403E+01
   2.75000000E+03   5.00000000E-01   5.00000000E-01   9.29370454E-01  -3.96620917E+00  -2.47323001E+01  -5.27666340E+01   8.24807302E-01   4.23249612E-01  -3.08356530E+01
   2.85000000E+03   5.00000000E-01   5.00000000E-01   9.29347490E-01  -4.03798083E+00  -2.46125193E+01  -5.30186232E+01   8.76441021E-01   4.23252157E-01  -3.10805473E+01
   2.95000000E+03   5.00000000E-01   5.00000000E-01   9.29314298E-01  -4.11218952E+00  -2.45052516E+01  -5.32965290E+01   9.26678421E-01   4.23255784E-01  -3.13402243E+01
   3.05000000E+03   5.00000000E-01   5.00000000E-01   9.29268583E-01  -4.18952488E+00  -2.44117892E+01  -5.36038167E+01   9.75376623E-01   4.23260739E-01  -3.16180327E+01
   3.15000000E+03   5.00000000E-01   5.00000000E-01   9.29221741E-01  -4.27054330E+00  -2.43331991E+01  -5.39432152E+01   1.02239650E+00   4.23265806E-01  -3.19167075E+01
   3.25000000E+03   5.00000000E-01   5.00000000E-01   9.29308815E-01  -4.35553271E+00  -2.42703886E+01  -5.43164322E+01   1.06760835E+00   4.23256552E-01  -3.22380839E+01
   3.35000000E+03   5.00000000E-01   5.00000000E-01   9.30258818E-01  -4.44402403E+00  -2.42245838E+01  -5.47234338E+01   1.11089764E+00   4.23154929E-01  -3.25823259E+01
   3.45000000E+03   5.00000000E-01   5.00000000E-01   9.34224192E-01  -4.53378076E+00  -2.41978423E+01  -5.51602430E+01   1.15211866E+00   4.22727929E-01  -3.29458730E+01
