 TITLE = "Mineral Saturation State" 
VARIABLES = "X"          "Y"              "Z"            "Forsterite"     "Fayalite"       "Saponite(Mg)"   "Enstatite(alph" "Ferrosilite(al" "Anorthite"      "Albite(low)"    "Clinochlore"    "Sudoite"        "Montmorillonit" "Kaolinite"      "Tremolite"      "Pargasite"      "Anhydrite"      "Epidote"        "Scolecite"      "Pyrite"         "FeS(am)"        "Quartz(alpha)" 
 ZONE I=         100 , J=           1 , K=           1  F=POINT
   1.75000000E+01   5.00000000E-01   5.00000000E-01  -8.10577938E+00  -1.37587904E+00   3.46439930E-02  -3.05481617E+00  -7.49752062E-01  -9.53555219E+00  -5.08384919E-01   4.14079224E-02  -2.58065201E+00  -9.58815420E-01  -2.54522896E+00  -8.56961254E+00  -3.20936413E+01  -9.70280967E-01  -6.71763687E-07  -4.34138644E+00  -3.14223559E+01  -3.46383509E+00   7.14331743E-01
   5.25000000E+01   5.00000000E-01   5.00000000E-01  -8.10768855E+00  -8.96474793E-01   3.44688148E-02  -3.04102170E+00  -4.86326900E-01  -9.13318781E+00  -2.80428807E-01   4.12624404E-02  -2.07927149E+00  -5.78508855E-01  -2.17943816E+00  -8.63174387E+00  -3.15414711E+01  -9.36857482E-01   1.47773989E-07  -3.98545530E+00  -3.08087996E+01  -3.23081343E+00   7.57886480E-01
   8.75000000E+01   5.00000000E-01   5.00000000E-01  -8.04646751E+00  -6.22215407E-01   3.42177364E-02  -3.01440399E+00  -3.44379105E-01  -8.90200943E+00  -2.12348339E-01   4.10840742E-02  -1.87638427E+00  -4.43028103E-01  -2.03367696E+00  -8.63949433E+00  -3.11068946E+01  -9.02365272E-01   1.82191728E-08  -3.83719639E+00  -3.03496545E+01  -3.10832215E+00   7.63691137E-01
   1.22500000E+02   5.00000000E-01   5.00000000E-01  -7.97750151E+00  -4.51213990E-01   3.37728870E-02  -2.98652718E+00  -2.56831893E-01  -8.69885667E+00  -1.68080614E-01   4.08493824E-02  -1.71801573E+00  -3.44066879E-01  -1.92095591E+00  -8.64169812E+00  -3.06975491E+01  -8.66872024E-01   5.53107369E-11  -3.72120874E+00  -2.99595863E+01  -3.04257109E+00   7.64009922E-01
   1.57500000E+02   5.00000000E-01   5.00000000E-01  -7.90686454E+00  -3.38894711E-01   3.31867053E-02  -2.95863086E+00  -1.99595283E-01  -8.50776657E+00  -1.32485981E-01   4.05570378E-02  -1.57606139E+00  -2.58483253E-01  -1.82054055E+00  -8.64343447E+00  -3.03028514E+01  -8.30468936E-01  -7.36671497E-09  -3.61795077E+00  -2.96110489E+01  -3.01003888E+00   7.62444654E-01
   1.92500000E+02   5.00000000E-01   5.00000000E-01  -7.83499624E+00  -2.62220032E-01   3.25176605E-02  -2.93078020E+00  -1.60991364E-01  -8.32724374E+00  -1.04225358E-01   4.02368308E-02  -1.44818444E+00  -1.84296027E-01  -1.73068491E+00  -8.64472138E+00  -2.99214119E+01  -7.93258552E-01  -1.36003498E-08  -3.52563374E+00  -2.92910261E+01  -2.99841873E+00   7.59311440E-01
   2.27500000E+02   5.00000000E-01   5.00000000E-01  -7.76208873E+00  -2.08419283E-01   3.18263592E-02  -2.90298865E+00  -1.34547899E-01  -8.15642091E+00  -8.25578336E-02   3.99127682E-02  -1.33320060E+00  -1.20457159E-01  -1.65048905E+00  -8.64531144E+00  -2.95522114E+01  -7.55346748E-01  -1.90699843E-08  -3.44324097E+00  -2.89921693E+01  -3.00079191E+00   7.54782041E-01
   2.62500000E+02   5.00000000E-01   5.00000000E-01  -7.68846692E+00  -1.69923382E-01   3.11682520E-02  -2.87529884E+00  -1.16356406E-01  -7.99411112E+00  -6.64302498E-02   3.95978434E-02  -1.22934868E+00  -6.54408638E-02  -1.57862565E+00  -8.64509189E+00  -2.91940468E+01  -7.16837922E-01  -2.35923128E-08  -3.36936145E+00  -2.87099156E+01  -3.01300914E+00   7.49102418E-01
   2.97500000E+02   5.00000000E-01   5.00000000E-01  -7.61449144E+00  -1.41988069E-01   3.05670875E-02  -2.84776933E+00  -1.03919031E-01  -7.83907624E+00  -5.47530691E-02   3.93026245E-02  -1.13473165E+00  -1.76501211E-02  -1.51367937E+00  -8.64408840E+00  -2.88457405E+01  -6.77832362E-01  -2.71235349E-08  -3.30252890E+00  -2.84412611E+01  -3.03244241E+00   7.42522216E-01
   3.32500000E+02   5.00000000E-01   5.00000000E-01  -7.54048357E+00  -1.21503384E-01   3.00308748E-02  -2.82045476E+00  -9.55709760E-02  -7.69022086E+00  -4.65685900E-02   3.90315124E-02  -1.04765994E+00   2.43246562E-02  -1.45439149E+00  -8.64237046E+00  -2.85062656E+01  -6.38424787E-01  -2.97219793E-08  -3.24145099E+00  -2.81841464E+01  -3.05735450E+00   7.35259372E-01
   3.67500000E+02   5.00000000E-01   5.00000000E-01  -7.46670124E+00  -1.06361682E-01   2.95664371E-02  -2.79339710E+00  -9.01677733E-02  -7.54664651E+00  -4.10917050E-02   3.87825827E-02  -9.66753806E-01   6.16400612E-02  -1.39972946E+00  -8.63999711E+00  -2.81747715E+01  -5.98703489E-01  -3.14726857E-08  -3.18507021E+00  -2.79371139E+01  -3.08655943E+00   7.27493572E-01
   4.02500000E+02   5.00000000E-01   5.00000000E-01  -7.39334820E+00  -9.51061032E-02   2.91691216E-02  -2.76663047E+00  -8.69096990E-02  -7.40762461E+00  -3.76975605E-02   3.85542786E-02  -8.90893599E-01   9.52209407E-02  -1.34885781E+00  -8.63704573E+00  -2.78505639E+01  -5.58749814E-01  -3.24429626E-08  -3.13253709E+00  -2.76991014E+01  -3.11922733E+00   7.19365899E-01
   4.37500000E+02   5.00000000E-01   5.00000000E-01  -7.32058028E+00  -8.67122511E-02   2.88306200E-02  -2.74018032E+00  -8.52287233E-02  -7.27257383E+00  -3.58952345E-02   3.83442967E-02  -8.19188891E-01   1.25797203E-01  -1.30111171E+00  -8.63359296E+00  -2.75330803E+01  -5.18637840E-01  -3.26938359E-08  -3.08317984E+00  -2.74693126E+01  -3.15476444E+00   7.10986593E-01
   4.72500000E+02   5.00000000E-01   5.00000000E-01  -7.24851457E+00  -8.04514111E-02   2.85429118E-02  -2.71406442E+00  -8.47164275E-02  -7.14103084E+00  -3.52987859E-02   3.81497059E-02  -7.50933932E-01   1.53945666E-01  -1.25596270E+00  -8.62970721E+00  -2.72218622E+01  -4.78434205E-01  -3.22766354E-08  -3.03646773E+00  -2.72471326E+01  -3.19273695E+00   7.02442436E-01
   5.07500000E+02   5.00000000E-01   5.00000000E-01  -7.17723890E+00  -7.58020021E-02   2.82980647E-02  -2.68829482E+00  -8.50770287E-02  -7.01262208E+00  -3.56027045E-02   3.79678245E-02  -6.85562521E-01   1.80126378E-01  -1.21298592E+00  -8.62545166E+00  -2.69165313E+01  -4.38198065E-01  -3.12334800E-08  -2.99197742E+00  -2.70320714E+01  -3.23282112E+00   6.93802144E-01
   5.42500000E+02   5.00000000E-01   5.00000000E-01  -7.10681858E+00  -7.23892471E-02   2.80889303E-02  -2.66287911E+00  -8.60950319E-02  -6.88704298E+00  -3.65631317E-02   3.77963029E-02  -6.22616097E-01   2.04709978E-01  -1.17183633E+00  -8.62088353E+00  -2.66167710E+01  -3.97981206E-01  -2.96022514E-08  -2.94936790E+00  -2.68237252E+01  -3.27476939E+00   6.85120734E-01
   5.77500000E+02   5.00000000E-01   5.00000000E-01  -7.03730156E+00  -6.99434754E-02   2.79094755E-02  -2.63782137E+00  -8.76127933E-02  -6.76404257E+00  -3.79840004E-02   3.76331174E-02  -5.61720159E-01   2.27997781E-01  -1.13223123E+00  -8.61605356E+00  -2.63223120E+01  -3.57828258E-01  -2.74193350E-08  -2.90836186E+00  -2.66217506E+01  -3.31838724E+00   6.76442692E-01
   6.12500000E+02   5.00000000E-01   5.00000000E-01  -6.96872190E+00  -6.82707102E-02   2.77548061E-02  -2.61312285E+00  -8.95147364E-02  -6.64341238E+00  -3.97073428E-02   3.74765421E-02  -5.02567683E-01   2.50235734E-01  -1.09393790E+00  -8.61100575E+00  -2.60329224E+01  -3.17777038E-01  -2.47218967E-08  -2.86873247E+00  -2.64258464E+01  -3.36351701E+00   6.67804123E-01
   6.47500000E+02   5.00000000E-01   5.00000000E-01  -6.90110223E+00  -6.72315284E-02   2.76210707E-02  -2.58878253E+00  -9.17160861E-02  -6.52497895E+00  -4.16068329E-02   3.73251041E-02  -4.44908153E-01   2.71623568E-01  -1.05676555E+00  -8.60577692E+00  -2.57484007E+01  -2.77858964E-01  -2.15494784E-08  -2.83029457E+00  -2.62357411E+01  -3.41002652E+00   6.59234142E-01
   6.82500000E+02   5.00000000E-01   5.00000000E-01  -6.83445523E+00  -6.67256511E-02   2.75053195E-02  -2.56479740E+00  -9.41547375E-02  -6.40859895E+00  -4.35836336E-02   3.71775432E-02  -3.88540650E-01   2.92320541E-01  -1.02056020E+00  -8.60039631E+00  -2.54685700E+01  -2.38099541E-01  -1.79447298E-08  -2.79289885E+00  -2.60511848E+01  -3.45780100E+00   6.50755719E-01
   7.17500000E+02   5.00000000E-01   5.00000000E-01  -6.76878453E+00  -6.66806215E-02   2.74053511E-02  -2.54116267E+00  -9.67853382E-02  -6.29415586E+00  -4.55637054E-02   3.70327906E-02  -3.33309502E-01   3.12449018E-01  -9.85201499E-01  -8.59488507E+00  -2.51932750E+01  -1.98518884E-01  -1.39532998E-08  -2.75642808E+00  -2.58719436E+01  -3.50673743E+00   6.42386194E-01
   7.52500000E+02   5.00000000E-01   5.00000000E-01  -6.70408542E+00  -6.70434833E-02   2.73195530E-02  -2.51787198E+00  -9.95749555E-02  -6.18155762E+00  -4.74958544E-02   3.68899735E-02  -2.79101166E-01   3.32096985E-01  -9.50600438E-01  -8.58925581E+00  -2.49223788E+01  -1.59132259E-01  -9.62287091E-09  -2.72079442E+00  -2.56977953E+01  -3.55674049E+00   6.34137614E-01
   7.87500000E+02   5.00000000E-01   5.00000000E-01  -6.64034541E+00  -6.77747269E-02   2.72467328E-02  -2.49491750E+00  -1.02499896E-01  -6.07073444E+00  -4.93499448E-02   3.67484384E-02  -2.25841305E-01   3.51320362E-01  -9.16697272E-01  -8.58351248E+00  -2.46557605E+01  -1.19950627E-01  -5.00155762E-09  -2.68593694E+00  -2.55285276E+01  -3.60771986E+00   6.26017038E-01
   8.22500000E+02   5.00000000E-01   5.00000000E-01  -6.57754500E+00  -6.88439731E-02   2.71859514E-02  -2.47229015E+00  -1.05543360E-01  -5.96163642E+00  -5.11148745E-02   3.66077790E-02  -1.73491335E-01   3.70145729E-01  -8.83459012E-01  -8.57765045E+00  -2.43933127E+01  -8.09811772E-02  -1.35885310E-10  -2.65181887E+00  -2.53639359E+01  -3.65958849E+00   6.18026907E-01
   8.57500000E+02   5.00000000E-01   5.00000000E-01  -6.51565854E+00  -7.02269793E-02   2.71364176E-02  -2.44997978E+00  -1.08693695E-01  -5.85423086E+00  -5.27960990E-02   3.64678410E-02  -1.22044203E-01   3.88573776E-01  -8.50876332E-01  -8.57165685E+00  -2.41349391E+01  -4.22278445E-02   4.93111389E-09  -2.61842439E+00  -2.52038232E+01  -3.71226158E+00   6.10165548E-01
   8.92500000E+02   5.00000000E-01   5.00000000E-01  -6.45465531E+00  -7.19036230E-02   2.70975203E-02  -2.42797536E+00  -1.11943054E-01  -5.74849916E+00  -5.44126683E-02   3.63286790E-02  -7.15194798E-02   4.06583507E-01  -8.18959896E-01  -8.56551082E+00  -2.38805514E+01  -3.69179643E-03   1.01615427E-08  -2.58575492E+00  -2.50479991E+01  -3.76565625E+00   6.02427832E-01
   9.27500000E+02   5.00000000E-01   5.00000000E-01  -6.39450066E+00  -7.38566044E-02   2.70689959E-02  -2.40626519E+00  -1.15286341E-01  -5.64443355E+00  -5.59938827E-02   3.61904646E-02  -2.19579484E-02   4.24137074E-01  -7.87736238E-01  -8.55918379E+00  -2.36300670E+01   3.46281034E-02   1.55236940E-08  -2.55382503E+00  -2.48962799E+01  -3.81969146E+00   5.94805981E-01
   9.62500000E+02   5.00000000E-01   5.00000000E-01  -6.33515731E+00  -7.60706922E-02   2.70510956E-02  -2.38483709E+00  -1.18720411E-01  -5.54203364E+00  -5.75757700E-02   3.60533937E-02   2.65842374E-02   4.41184934E-01  -7.57243326E-01  -8.55264001E+00  -2.33834065E+01   7.27348623E-02   2.09925014E-08  -2.52265815E+00  -2.47484886E+01  -3.87428836E+00   5.87290421E-01
   9.97500000E+02   5.00000000E-01   5.00000000E-01  -6.27658677E+00  -7.85324335E-02   2.70444332E-02  -2.36367872E+00  -1.22243529E-01  -5.44130273E+00  -5.91976209E-02   3.59176814E-02   7.40421079E-02   4.57671080E-01  -7.27525767E-01  -8.54583812E+00  -2.31404907E+01   1.10632955E-01   2.65497647E-08  -2.49228210E+00  -2.46044549E+01  -3.92937076E+00   5.79870560E-01
   1.03250000E+03   5.00000000E-01   5.00000000E-01  -6.21875092E+00  -8.12302700E-02   2.70491658E-02  -2.34277815E+00  -1.25855159E-01  -5.34224385E+00  -6.08988244E-02   3.57837405E-02   1.20349442E-01   4.73538060E-01  -6.98629632E-01  -8.53873464E+00  -2.29012392E+01   1.48327949E-01   3.21841680E-08  -2.46272458E+00  -2.44640158E+01  -3.98486561E+00   5.72535341E-01
   1.06750000E+03   5.00000000E-01   5.00000000E-01  -6.16161346E+00  -8.41545716E-02   2.70642384E-02  -2.32212429E+00  -1.29555759E-01  -5.24485650E+00  -6.27163539E-02   3.56523247E-02   1.65445029E-01   4.88731023E-01  -6.70598192E-01  -8.53128719E+00  -2.26655682E+01   1.85826158E-01   3.78893144E-08  -2.43400951E+00  -2.43270152E+01  -4.04070351E+00   5.65273665E-01
   1.10250000E+03   5.00000000E-01   5.00000000E-01  -6.10514008E+00  -8.72969013E-02   2.70882552E-02  -2.30170675E+00  -1.33346106E-01  -5.14913601E+00  -6.46831640E-02   3.55242128E-02   2.09273698E-01   5.03199976E-01  -6.43470644E-01  -8.52345303E+00  -2.24333904E+01   2.23134326E-01   4.36595629E-08  -2.40615578E+00  -2.41933043E+01  -4.09681874E+00   5.58075017E-01
   1.13750000E+03   5.00000000E-01   5.00000000E-01  -6.04929810E+00  -9.06490283E-02   2.71212305E-02  -2.28151523E+00  -1.37226445E-01  -5.05507434E+00  -6.68271115E-02   3.53996943E-02   2.51784534E-01   5.16901036E-01  -6.17282455E-01  -8.51518496E+00  -2.22046146E+01   2.60259349E-01   4.94872791E-08  -2.37917729E+00  -2.40627411E+01  -4.15314938E+00   5.50930177E-01
   1.17250000E+03   5.00000000E-01   5.00000000E-01  -5.99405647E+00  -9.42025078E-02   2.71653769E-02  -2.26153935E+00  -1.41196057E-01  -4.96265999E+00  -6.91700643E-02   3.52783813E-02   2.92931011E-01   5.29797700E-01  -5.92064850E-01  -8.50643010E+00  -2.19791462E+01   2.97208018E-01   5.53633999E-08  -2.35308252E+00  -2.39351908E+01  -4.20963736E+00   5.43831657E-01
   1.20750000E+03   5.00000000E-01   5.00000000E-01  -5.93938682E+00  -9.79492408E-02   2.72235219E-02  -2.24176928E+00  -1.45253642E-01  -4.87187582E+00  -7.17271488E-02   3.51596936E-02   3.32676147E-01   5.41862552E-01  -5.67841870E-01  -8.49713495E+00  -2.17568865E+01   3.33986793E-01   6.12797880E-08  -2.32787246E+00  -2.38105257E+01  -4.26622866E+00   5.36773502E-01
   1.24250000E+03   5.00000000E-01   5.00000000E-01  -5.88526592E+00  -1.01883048E-01   2.72944763E-02  -2.22219743E+00  -1.49398601E-01  -4.78269390E+00  -7.45062060E-02   3.50441374E-02   3.71003917E-01   5.53079462E-01  -5.44624423E-01  -8.48725889E+00  -2.15377319E+01   3.70601590E-01   6.72321509E-08  -2.30353654E+00  -2.36886249E+01  -4.32287367E+00   5.29750296E-01
   1.27750000E+03   5.00000000E-01   5.00000000E-01  -5.83167522E+00  -1.05998593E-01   2.73728447E-02  -2.20281843E+00  -1.53630669E-01  -4.69507705E+00  -7.75092302E-02   3.49332467E-02   4.07916947E-01   5.63441496E-01  -5.22412009E-01  -8.47677440E+00  -2.13215752E+01   4.07057594E-01   7.32098208E-08  -2.28005446E+00  -2.35693737E+01  -4.37952642E+00   5.22756810E-01
   1.31250000E+03   5.00000000E-01   5.00000000E-01  -5.77859663E+00  -1.10287457E-01   2.74556947E-02  -2.18362646E+00  -1.57947416E-01  -4.60898812E+00  -8.07348758E-02   3.48276779E-02   4.43417111E-01   5.72945336E-01  -5.01203411E-01  -8.46564803E+00  -2.11083089E+01   4.43359107E-01   7.91854788E-08  -2.25740446E+00  -2.34526634E+01  -4.43614324E+00   5.15789087E-01
   1.34750000E+03   5.00000000E-01   5.00000000E-01  -5.72600984E+00  -1.14736097E-01   2.75477204E-02  -2.16461335E+00  -1.62342639E-01  -4.52439574E+00  -8.41789969E-02   3.47259042E-02   4.77493433E-01   5.81589151E-01  -4.81002914E-01  -8.45382627E+00  -2.08978266E+01   4.79509428E-01   8.51216688E-08  -2.23556786E+00  -2.33383905E+01  -4.49268225E+00   5.08845604E-01
   1.38250000E+03   5.00000000E-01   5.00000000E-01  -5.67388844E+00  -1.19323082E-01   2.76686479E-02  -2.14576582E+00  -1.66804183E-01  -4.44128254E+00  -8.78355763E-02   3.46224089E-02   5.10104489E-01   5.89369314E-01  -4.61829433E-01  -8.44121529E+00  -2.06900253E+01   5.15510751E-01   9.09696652E-08  -2.21453570E+00  -2.32264567E+01  -4.54910265E+00   5.01928875E-01
   1.41750000E+03   5.00000000E-01   5.00000000E-01  -5.62221059E+00  -1.24028770E-01   2.78361883E-02  -2.12707219E+00  -1.71320143E-01  -4.35962150E+00  -9.16903982E-02   3.45126246E-02   5.41228371E-01   5.96294847E-01  -4.43688919E-01  -8.42773062E+00  -2.04847976E+01   5.51364051E-01   9.67120948E-08  -2.19428783E+00  -2.31167699E+01  -4.60536794E+00   4.95042712E-01
   1.45250000E+03   5.00000000E-01   5.00000000E-01  -5.57099733E+00  -1.28866246E-01   2.79986197E-02  -2.10854808E+00  -1.75900856E-01  -4.27929336E+00  -9.57058533E-02   3.44107151E-02   5.71038651E-01   6.02428762E-01  -4.26480224E-01  -8.41348789E+00  -2.02820097E+01   5.87068870E-01   1.02427312E-07  -2.17472341E+00  -2.30092465E+01  -4.66145426E+00   4.88179186E-01
   1.48750000E+03   5.00000000E-01   5.00000000E-01  -5.52024660E+00  -1.33820497E-01   2.81332449E-02  -2.09019669E+00  -1.80541814E-01  -4.20023375E+00  -9.98677958E-02   3.43218901E-02   5.99598205E-01   6.07789231E-01  -4.10167853E-01  -8.39851301E+00  -2.00815501E+01   6.22623342E-01   1.07987028E-07  -2.15579460E+00  -2.29038021E+01  -4.71732769E+00   4.81331980E-01
   1.52250000E+03   5.00000000E-01   5.00000000E-01  -5.46990557E+00  -1.38829308E-01   2.83042561E-02  -2.07198793E+00  -1.85206998E-01  -4.12248961E+00  -1.04185370E-01   3.42282056E-02   6.26734662E-01   6.12334671E-01  -3.94843820E-01  -8.38258424E+00  -1.98833405E+01   6.58024257E-01   1.13211262E-07  -2.13754888E+00  -2.28003511E+01  -4.77294153E+00   4.74510595E-01
   1.55750000E+03   5.00000000E-01   5.00000000E-01  -5.41995261E+00  -1.43858720E-01   2.85414633E-02  -2.05390735E+00  -1.89874631E-01  -4.04603689E+00  -1.08631922E-01   3.41220027E-02   6.52419098E-01   6.16087471E-01  -3.80513340E-01  -8.36558919E+00  -1.96872734E+01   6.93266893E-01   1.18164884E-07  -2.11996269E+00  -2.26988188E+01  -4.82826478E+00   4.67724334E-01
   1.59250000E+03   5.00000000E-01   5.00000000E-01  -5.37044188E+00  -1.48935425E-01   2.87517506E-02  -2.03598868E+00  -1.94563535E-01  -3.97068788E+00  -1.13139403E-01   3.40275793E-02   6.76967387E-01   6.19165724E-01  -3.66992198E-01  -8.34776816E+00  -1.94931930E+01   7.28344794E-01   1.22990205E-07  -2.10286918E+00  -2.25991419E+01  -4.88328790E+00   4.60961948E-01
   1.62750000E+03   5.00000000E-01   5.00000000E-01  -5.32137349E+00  -1.54027309E-01   2.89091708E-02  -2.01823673E+00  -1.99261303E-01  -3.89637895E+00  -1.17693782E-01   3.39502434E-02   7.00443412E-01   6.21585161E-01  -3.54245808E-01  -8.32915380E+00  -1.93009917E+01   7.63249927E-01   1.27460311E-07  -2.08622169E+00  -2.25012487E+01  -4.93797665E+00   4.54215863E-01
   1.66250000E+03   5.00000000E-01   5.00000000E-01  -5.27270711E+00  -1.59063017E-01   2.90573412E-02  -2.00062972E+00  -2.03929564E-01  -3.82313418E+00  -1.22298846E-01   3.38774640E-02   7.22724630E-01   6.23314647E-01  -3.42340629E-01  -8.30957993E+00  -1.91105856E+01   7.97972745E-01   1.31430974E-07  -2.07004839E+00  -2.24050662E+01  -4.99228562E+00   4.47491196E-01
   1.69750000E+03   5.00000000E-01   5.00000000E-01  -5.22443751E+00  -1.64001145E-01   2.91982127E-02  -1.98316423E+00  -2.08545733E-01  -3.75089827E+00  -1.26921299E-01   3.38078376E-02   7.43848098E-01   6.24390381E-01  -3.31247650E-01  -8.28900793E+00  -1.89218591E+01   8.32502060E-01   1.34959141E-07  -2.05429947E+00  -2.23105312E+01  -5.04618475E+00   4.40791451E-01
   1.73250000E+03   5.00000000E-01   5.00000000E-01  -5.17657691E+00  -1.68810050E-01   2.93052486E-02  -1.96584798E+00  -2.13094584E-01  -3.67957850E+00  -1.31518450E-01   3.37470765E-02   7.63928443E-01   6.24869421E-01  -3.20895567E-01  -8.26747859E+00  -1.87346843E+01   8.66825040E-01   1.38032529E-07  -2.03889247E+00  -2.22175848E+01  -5.09964786E+00   4.34115190E-01
   1.76750000E+03   5.00000000E-01   5.00000000E-01  -5.12911199E+00  -1.73428938E-01   2.93875421E-02  -1.94867410E+00  -2.17544506E-01  -3.60913895E+00  -1.36068188E-01   3.36917284E-02   7.82962031E-01   6.24766413E-01  -3.11281608E-01  -8.24492435E+00  -1.85489518E+01   9.00927300E-01   1.40540585E-07  -2.02379793E+00  -2.21261657E+01  -5.15263769E+00   4.27464598E-01
   1.80250000E+03   5.00000000E-01   5.00000000E-01  -5.08202144E+00  -1.77786149E-01   2.94715716E-02  -1.93162956E+00  -2.21856323E-01  -3.53955980E+00  -1.40547346E-01   3.36340902E-02   8.00907698E-01   6.24091802E-01  -3.02421731E-01  -8.22122778E+00  -1.83645523E+01   9.34792927E-01   1.42434567E-07  -2.00899801E+00  -2.20362142E+01  -5.20511497E+00   4.20846138E-01
   1.83750000E+03   5.00000000E-01   5.00000000E-01  -5.03528857E+00  -1.81810681E-01   2.95825604E-02  -1.91470270E+00  -2.25990267E-01  -3.47080932E+00  -1.44922614E-01   3.35670291E-02   8.17744370E-01   6.22870723E-01  -2.94317936E-01  -8.19627588E+00  -1.81813680E+01   9.68404509E-01   1.43699649E-07  -1.99446097E+00  -2.19476746E+01  -5.25704275E+00   4.14268115E-01
   1.87250000E+03   5.00000000E-01   5.00000000E-01  -4.98891045E+00  -1.85439139E-01   2.97275769E-02  -1.89788955E+00  -2.29911209E-01  -3.40282416E+00  -1.49147721E-01   3.34881663E-02   8.33512608E-01   6.21151599E-01  -2.86936416E-01  -8.17000657E+00  -1.79992662E+01   1.00174318E+00   1.44334956E-07  -1.98012492E+00  -2.18604951E+01  -5.30838809E+00   4.07737176E-01
   1.90750000E+03   5.00000000E-01   5.00000000E-01  -4.94291952E+00  -1.88632236E-01   2.98579648E-02  -1.88120815E+00  -2.33600426E-01  -3.33546298E+00  -1.53154359E-01   3.34086705E-02   8.48411544E-01   6.19029536E-01  -2.80155323E-01  -8.14251304E+00  -1.78180862E+01   1.03478863E+00   1.44361182E-07  -1.96585850E+00  -2.17746298E+01  -5.35912652E+00   4.01251269E-01
   1.94250000E+03   5.00000000E-01   5.00000000E-01  -4.89734929E+00  -1.91340976E-01   2.99138165E-02  -1.86467972E+00  -2.37037017E-01  -3.26858269E+00  -1.56883654E-01   3.33417847E-02   8.62642227E-01   6.16585659E-01  -2.73856869E-01  -8.11390808E+00  -1.76376659E+01   1.06751926E+00   1.43718917E-07  -1.95153383E+00  -2.16900311E+01  -5.40922712E+00   3.94802996E-01
   1.97750000E+03   5.00000000E-01   5.00000000E-01  -4.85220254E+00  -1.93479776E-01   2.98766002E-02  -1.84830829E+00  -2.40179976E-01  -3.20210656E+00  -1.60302242E-01   3.32902781E-02   8.76264266E-01   6.13848544E-01  -2.68005935E-01  -8.08417402E+00  -1.74578608E+01   1.09991249E+00   1.42314833E-07  -1.93708554E+00  -2.16066461E+01  -5.45864346E+00   3.88388590E-01
   2.01250000E+03   5.00000000E-01   5.00000000E-01  -4.80746155E+00  -1.94939683E-01   2.97645378E-02  -1.83208405E+00  -2.42973040E-01  -3.13599917E+00  -1.63382793E-01   3.32479490E-02   8.89243288E-01   6.10825697E-01  -2.62617702E-01  -8.05318378E+00  -1.72785310E+01   1.13194489E+00   1.40108083E-07  -1.92248231E+00  -2.15244210E+01  -5.50732178E+00   3.82011432E-01
   2.04750000E+03   5.00000000E-01   5.00000000E-01  -4.76310903E+00  -1.95609355E-01   2.96055405E-02  -1.81599478E+00  -2.45356150E-01  -3.07021983E+00  -1.66084609E-01   3.32061734E-02   9.01545987E-01   6.07540712E-01  -2.57701576E-01  -8.02078284E+00  -1.70995242E+01   1.16359231E+00   1.37109048E-07  -1.90768219E+00  -2.14433051E+01  -5.55521030E+00   3.75680113E-01
   2.08250000E+03   5.00000000E-01   5.00000000E-01  -4.71914246E+00  -1.95387731E-01   2.94135553E-02  -1.80003502E+00  -2.47273800E-01  -3.00469183E+00  -1.68346351E-01   3.31595938E-02   9.13204708E-01   6.04050678E-01  -2.53225770E-01  -7.98685654E+00  -1.69206674E+01   1.19483000E+00   1.33349799E-07  -1.89260585E+00  -2.13632526E+01  -5.60226342E+00   3.69404405E-01
   2.11750000E+03   5.00000000E-01   5.00000000E-01  -4.67556960E+00  -1.94179208E-01   2.91904320E-02  -1.78420469E+00  -2.48673441E-01  -2.93931320E+00  -1.70094764E-01   3.31057397E-02   9.24297167E-01   6.00432293E-01  -2.49131312E-01  -7.95132144E+00  -1.67417723E+01   1.22563286E+00   1.28854537E-07  -1.87714905E+00  -2.12842213E+01  -5.64843853E+00   3.63193626E-01
   2.15250000E+03   5.00000000E-01   5.00000000E-01  -4.63240201E+00  -1.91888327E-01   2.89334290E-02  -1.76850571E+00  -2.49502743E-01  -2.87397160E+00  -1.71251793E-01   3.30432101E-02   9.34917236E-01   5.96769141E-01  -2.45349696E-01  -7.91410271E+00  -1.65626420E+01   1.25597569E+00   1.23645474E-07  -1.86119728E+00  -2.12061706E+01  -5.69369337E+00   3.57056812E-01
   2.18750000E+03   5.00000000E-01   5.00000000E-01  -4.58965288E+00  -1.88419602E-01   2.86386298E-02  -1.75294071E+00  -2.49709254E-01  -2.80854982E+00  -1.71736412E-01   3.29707928E-02   9.45164766E-01   5.93148423E-01  -2.41808587E-01  -7.87512549E+00  -1.63830738E+01   1.28583351E+00   1.17754454E-07  -1.84463084E+00  -2.11290619E+01  -5.73798618E+00   3.51003211E-01
   2.22250000E+03   5.00000000E-01   5.00000000E-01  -4.54733662E+00  -1.83680066E-01   2.83019360E-02  -1.73751262E+00  -2.49241517E-01  -2.74292756E+00  -1.71464886E-01   3.28871770E-02   9.55144010E-01   5.89660995E-01  -2.38432450E-01  -7.83431449E+00  -1.62028624E+01   1.31518179E+00   1.11228206E-07  -1.82732626E+00  -2.10528594E+01  -5.78127707E+00   3.45042616E-01
   2.25750000E+03   5.00000000E-01   5.00000000E-01  -4.50546887E+00  -1.77583138E-01   2.79193294E-02  -1.72222467E+00  -2.48050941E-01  -2.67698315E+00  -1.70351490E-01   3.27908665E-02   9.64963335E-01   5.86401259E-01  -2.35142605E-01  -7.79159663E+00  -1.60218040E+01   1.34399672E+00   1.04130506E-07  -1.80915791E+00  -2.09775304E+01  -5.82352996E+00   3.39185466E-01
   2.29250000E+03   5.00000000E-01   5.00000000E-01  -4.46406614E+00  -1.70053532E-01   2.74870002E-02  -1.70708022E+00  -2.46094313E-01  -2.61059657E+00  -1.68310263E-01   3.26801524E-02   9.74733948E-01   5.83465885E-01  -2.31858104E-01  -7.74690519E+00  -1.58397022E+01   1.37225546E+00   9.65432580E-08  -1.79000114E+00  -2.09030469E+01  -5.86471488E+00   3.33442755E-01
   2.32750000E+03   5.00000000E-01   5.00000000E-01  -4.42314519E+00  -1.61033306E-01   2.70015178E-02  -1.69208261E+00  -2.43336963E-01  -2.54365424E+00  -1.65258061E-01   3.25531108E-02   9.84566973E-01   5.80951070E-01  -2.28497817E-01  -7.70018518E+00  -1.56563772E+01   1.39993634E+00   8.85671298E-08  -1.76973737E+00  -2.08293868E+01  -5.90481090E+00   3.27825730E-01
   2.36250000E+03   5.00000000E-01   5.00000000E-01  -4.38272193E+00  -1.50489132E-01   2.64600976E-02  -1.67723489E+00  -2.39756658E-01  -2.47605584E+00  -1.61119031E-01   3.24076203E-02   9.94568581E-01   5.78948144E-01  -2.24983918E-01  -7.65140001E+00  -1.54716778E+01   1.42701894E+00   8.03210862E-08  -1.74826136E+00  -2.07565357E+01  -5.94380934E+00   3.22345387E-01
   2.39750000E+03   5.00000000E-01   5.00000000E-01  -4.34280981E+00  -1.38420684E-01   2.58609875E-02  -1.66253933E+00  -2.35348159E-01  -2.40772319E+00  -1.55830612E-01   3.22414086E-02   1.00483302E+00   5.77537395E-01  -2.21246896E-01  -7.60053943E+00  -1.52854958E+01   1.45348413E+00   7.19406587E-08  -1.72549095E+00  -2.06844881E+01  -5.98171767E+00   3.17011738E-01
   2.43250000E+03   5.00000000E-01   5.00000000E-01  -4.30341774E+00  -1.24869763E-01   2.52039828E-02  -1.64799690E+00  -2.30128267E-01  -2.33861129E+00  -1.49351022E-01   3.20521391E-02   1.01543350E+00   5.76780118E-01  -2.17232116E-01  -7.54762848E+00  -1.50977845E+01   1.47931397E+00   6.35744438E-08  -1.70137894E+00  -2.06132500E+01  -6.01856346E+00   3.11832846E-01
   2.46750000E+03   5.00000000E-01   5.00000000E-01  -4.26454756E+00  -1.09929305E-01   2.44910565E-02  -1.63360659E+00  -2.24140906E-01  -2.26872075E+00  -1.41667877E-01   3.18375513E-02   1.02641124E+00   5.76709175E-01  -2.12907702E-01  -7.49273671E+00  -1.49085775E+01   1.50449143E+00   5.53782602E-08  -1.67592675E+00  -2.05428399E+01  -6.05439831E+00   3.06813665E-01
   2.50250000E+03   5.00000000E-01   5.00000000E-01  -4.22619132E+00  -9.37509176E-02   2.37270614E-02  -1.61936465E+00  -2.17461528E-01  -2.19811055E+00  -1.32807185E-01   3.15956639E-02   1.03776361E+00   5.77318839E-01  -2.08273133E-01  -7.43598666E+00  -1.47180081E+01   1.52900005E+00   4.75076514E-08  -1.64919845E+00  -2.04732904E+01  -6.08930095E+00   3.01954771E-01
   2.53750000E+03   5.00000000E-01   5.00000000E-01  -4.18832856E+00  -7.65489967E-02   2.29204034E-02  -1.60526390E+00  -2.10199782E-01  -2.12690909E+00  -1.22841392E-01   3.13250451E-02   1.04943284E+00   5.78555280E-01  -2.03367422E-01  -7.37755965E+00  -1.45263248E+01   1.55282346E+00   4.01083834E-08  -1.62133303E+00  -2.04046484E+01  -6.12337866E+00   2.97251132E-01
   2.57250000E+03   5.00000000E-01   5.00000000E-01  -4.15092438E+00  -5.85992301E-02   2.20835279E-02  -1.59129316E+00  -2.02499244E-01  -2.05532081E+00  -1.11894645E-01   3.10251332E-02   1.06129773E+00   5.80309694E-01  -1.98275196E-01  -7.31769713E+00  -1.43338988E+01   1.57594493E+00   3.33065630E-08  -1.59255192E+00  -2.03369735E+01  -6.15676607E+00   2.92691162E-01
   2.60750000E+03   5.00000000E-01   5.00000000E-01  -4.11392871E+00  -4.02295170E-02   2.12330131E-02  -1.57743715E+00  -1.94533060E-01  -1.98362528E+00  -1.00143202E-01   3.06965707E-02   1.07317124E+00   5.82416417E-01  -1.93128652E-01  -7.25669542E+00  -1.41412185E+01   1.59834700E+00   2.71992014E-08  -1.56315860E+00  -2.02703352E+01  -6.18962039E+00   2.88256345E-01
   2.64250000E+03   5.00000000E-01   5.00000000E-01  -4.07727751E+00  -2.18024586E-02   2.03890698E-02  -1.56367684E+00  -1.86494984E-01  -1.91216659E+00  -8.78092832E-02   3.03414828E-02   1.08480629E+00   5.84658079E-01  -1.88103588E-01  -7.19489289E+00  -1.39488695E+01   1.62001134E+00   2.18472953E-08  -1.53352737E+00  -2.02048076E+01  -6.22211298E+00   2.83921659E-01
   2.67750000E+03   5.00000000E-01   5.00000000E-01  -4.04089624E+00  -3.69051622E-03   1.95743406E-02  -1.54999051E+00  -1.78586258E-01  -1.84133211E+00  -7.51477873E-02   2.99636171E-02   1.09591114E+00   5.86778700E-01  -1.83408630E-01  -7.13265023E+00  -1.37574974E+01   1.64091902E+00   1.72723037E-08  -1.50408091E+00  -2.01404632E+01  -6.25441759E+00   2.79656965E-01
   2.71250000E+03   5.00000000E-01   5.00000000E-01  -4.00470520E+00   1.37527868E-02   1.88120714E-02  -1.53635526E+00  -1.71000101E-01  -1.77152309E+00  -6.24271323E-02   2.95682615E-02   1.10617304E+00   5.88503680E-01  -1.79268468E-01  -7.07032618E+00  -1.35677598E+01   1.66105104E+00   1.34572039E-08  -1.47525855E+00  -2.00773650E+01  -6.28669722E+00   2.75429235E-01