 TITLE = "Mineral Saturation State" 
VARIABLES = "X"          "Y"              "Z"            "Forsterite"     "Fayalite"       "Brucite"        "Lizardite"      "Chrysotile"     "Hematite"       "Magnetite(am)"  "Saponite(Ca)"   "Saponite(K)"    "Saponite(Mg)"   "Saponite(Na)"   "Beidellite(Ca)" "Beidellite(K)"  "Beidellite(Mg)" "Beidellite(Na)" "Enstatite(alph" "Ferrosilite(al" "Anorthite"      "Albite(low)"    "Clinochlore"    "Sudoite"        "Montmor(MgCa)"  "Montmor(MgK)"   "Montmor(MgMg)"  "Montmor(MgNa)"  "Kaolinite"      "Tremolite"      "Pargasite"      "Anhydrite"      "Epidote"        "Scolecite"      "Pyrite"         "FeS(am)"        "Quartz(alpha)"  "Titanite"       "Rutile"         "Barite"         "Fluorite"       "Spessartine(al" "Andradite"      "Celestite"      "Zincite"        "Chalcocyanite"  "Chalcocite(alp"
 ZONE I=         200 , J=           1 , K=           1  F=POINT
   8.75000000E+00   5.00000000E-01   5.00000000E-01  -7.12486515E+00  -3.02943492E+00  -4.77873298E+00  -1.38111770E+00  -1.49860601E+00   8.30239914E-02  -5.32571218E+00   5.15197710E-01   2.34323195E+00   1.17615585E+00   2.22189278E+00  -6.44494254E+00  -5.29688583E+00  -5.78398168E+00  -5.35702986E+00  -2.56618813E+00  -1.58062865E+00  -1.16253421E+01  -1.55111036E+00   2.11897509E-02  -6.66588065E+00  -4.08470357E+00  -2.69573345E+00  -3.45727222E+00  -2.84488509E+00  -5.10339784E+00  -5.12670167E+00  -3.27718013E+01  -9.80378937E-01  -1.04011614E+01  -6.41569385E+00  -5.52949411E+01  -1.94306222E+01   7.07116930E-01  -7.44252818E-01   1.49341833E-01   2.99073208E-01  -5.70129397E-01  -2.62808466E+01  -7.10486937E+00  -1.70343126E+00  -3.65229989E+00  -1.59370279E+01   1.52712355E+00
   2.62500000E+01   5.00000000E-01   5.00000000E-01  -7.60031847E+00  -2.89982232E+00  -5.10335375E+00  -2.08330292E+00  -2.19875659E+00   8.30239913E-02  -5.32228212E+00   2.47041822E-01   2.04904922E+00   9.07450161E-01   1.93686301E+00  -4.41373526E+00  -3.28575375E+00  -3.75332980E+00  -3.33685108E+00  -2.72564890E+00  -1.43302783E+00  -1.03346112E+01  -6.09407423E-01   2.10350962E-02  -4.37343134E+00  -2.54643074E+00  -1.17881660E+00  -1.91936451E+00  -1.31845028E+00  -3.52014796E+00  -6.18710002E+00  -3.19802491E+01  -9.62587591E-01  -9.30967274E+00  -5.00664903E+00  -5.62321334E+01  -2.02904762E+01   8.70744909E-01  -9.11456861E-01   1.64064387E-01   1.37591537E-01  -5.87539018E-01  -2.46162684E+01  -7.63463661E+00  -1.71039554E+00  -3.74511762E+00  -1.58703227E+01   1.15971252E-01
   4.37500000E+01   5.00000000E-01   5.00000000E-01  -7.74827799E+00  -2.73041355E+00  -5.23319842E+00  -2.32465002E+00  -2.43809091E+00   8.30239912E-02  -5.26813463E+00   2.35665237E-01   2.01425424E+00   8.95563532E-01   1.91111438E+00  -3.50014538E+00  -2.39201347E+00  -2.84025516E+00  -2.43417033E+00  -2.75236272E+00  -1.29657060E+00  -9.76287860E+00  -1.51011547E-01   2.07147995E-02  -3.45543723E+00  -1.81220148E+00  -4.65704457E-01  -1.18546288E+00  -5.95931128E-01  -2.85031621E+00  -6.37964247E+00  -3.14793744E+01  -9.44576256E-01  -8.80424963E+00  -4.37835002E+00  -5.53963244E+01  -1.98854992E+01   9.72304977E-01  -9.47106349E-01   1.77555427E-01   5.11652951E-02  -6.04115719E-01  -2.37169951E+01  -7.76622900E+00  -1.71681302E+00  -3.73913011E+00  -1.58038414E+01   1.15971252E-01
   6.12500000E+01   5.00000000E-01   5.00000000E-01  -7.80108453E+00  -2.57810652E+00  -5.29509020E+00  -2.44302480E+00  -2.55447440E+00   8.30239912E-02  -5.20236906E+00   2.53957582E-01   2.00972766E+00   9.13375896E-01   1.91552758E+00  -2.98056597E+00  -1.89206231E+00  -2.32116052E+00  -1.92538493E+00  -2.75184668E+00  -1.18905192E+00  -9.42406226E+00   1.09721519E-01   2.02447129E-02  -2.96116775E+00  -1.38816496E+00  -6.25506454E-02  -7.61726108E-01  -1.83481192E-01  -2.48105336E+00  -6.42154474E+00  -3.11102066E+01  -9.26345900E-01  -8.50427604E+00  -4.02341005E+00  -5.46897155E+01  -1.95391308E+01   1.03310476E+00  -9.56664339E-01   1.89816368E-01   8.39633632E-03  -6.19889478E-01  -2.31082658E+01  -7.81603671E+00  -1.72266577E+00  -3.70830293E+00  -1.57375821E+01   1.15971252E-01
   7.87500000E+01   5.00000000E-01   5.00000000E-01  -7.82085602E+00  -2.45259364E+00  -5.32709804E+00  -2.52460143E+00  -2.63408090E+00   8.30239911E-02  -5.13683921E+00   2.57790717E-01   1.99092482E+00   9.16753815E-01   1.90555906E+00  -2.63643028E+00  -1.56733768E+00  -1.97748445E+00  -1.59193116E+00  -2.74814923E+00  -1.10830692E+00  -9.17968220E+00   2.70067120E-01   1.97961306E-02  -2.62775923E+00  -1.11441305E+00   1.90548612E-01  -4.88251342E-01   7.88044939E-02  -2.23584093E+00  -6.46707942E+00  -3.08132863E+01  -9.07903168E-01  -8.29529532E+00  -3.78933030E+00  -5.40479974E+01  -1.92251432E+01   1.06716616E+00  -9.64122108E-01   2.00877556E-01  -1.25375611E-02  -6.34891915E-01  -2.26443991E+01  -7.85612149E+00  -1.72796348E+00  -3.67212270E+00  -1.56715492E+01   1.15971252E-01
   9.62500000E+01   5.00000000E-01   5.00000000E-01  -7.81992411E+00  -2.34379058E+00  -5.34035735E+00  -2.58291503E+00  -2.69044518E+00   8.30239910E-02  -5.07147010E+00   2.52657748E-01   1.96335938E+00   9.11186745E-01   1.88672443E+00  -2.40282588E+00  -1.35293117E+00  -1.74431822E+00  -1.36889867E+00  -2.74246620E+00  -1.04432278E+00  -8.99497107E+00   3.67285242E-01   1.94913152E-02  -2.39567251E+00  -9.35280686E-01   3.49254176E-01  -3.09377116E-01   2.46588800E-01  -2.06879692E+00  -6.51465048E+00  -3.05623045E+01  -8.89257184E-01  -8.14372026E+00  -3.63140538E+00  -5.34487844E+01  -1.89323046E+01   1.08443012E+00  -9.70625663E-01   2.10771562E-01  -2.32259286E-02  -6.49154407E-01  -2.22720732E+01  -7.89001600E+00  -1.73272397E+00  -3.63299329E+00  -1.56057498E+01   1.15971252E-01
   1.13750000E+02   5.00000000E-01   5.00000000E-01  -7.80308736E+00  -2.24462745E+00  -5.34067346E+00  -2.62176445E+00  -2.72736577E+00   8.30239910E-02  -5.00613050E+00   2.46552548E-01   1.93507478E+00   9.04664736E-01   1.86706932E+00  -2.24568888E+00  -1.21478275E+00  -1.58760173E+00  -1.22222518E+00  -2.73379036E+00  -9.90157480E-01  -8.85344329E+00   4.23242083E-01   1.93632502E-02  -2.23880695E+00  -8.19300283E-01   4.45029558E-01  -1.93639622E-01   3.51337554E-01  -1.95765229E+00  -6.55036535E+00  -3.03411036E+01  -8.70417833E-01  -8.03204135E+00  -3.52633879E+00  -5.28802991E+01  -1.86546599E+01   1.09171052E+00  -9.75117544E-01   2.19530280E-01  -2.91640561E-02  -6.62707138E-01  -2.19631124E+01  -7.91464053E+00  -1.73696638E+00  -3.59190628E+00  -1.55401914E+01   1.15971252E-01
   1.31250000E+02   5.00000000E-01   5.00000000E-01  -7.77477681E+00  -2.15243164E+00  -5.33244408E+00  -2.64562110E+00  -2.74931373E+00   8.30239909E-02  -4.94166397E+00   2.43012047E-01   1.90962496E+00   9.00721048E-01   1.85014981E+00  -2.13940199E+00  -1.12727893E+00  -1.48172143E+00  -1.12629503E+00  -2.72215465E+00  -9.42291542E-01  -8.74186868E+00   4.53280557E-01   1.93736129E-02  -2.13512281E+00  -7.43883937E-01   5.00458712E-01  -1.18454587E-01   4.15636936E-01  -1.88480021E+00  -6.57006184E+00  -3.01387151E+01  -8.51395098E-01  -7.94704532E+00  -3.45653718E+00  -5.23345548E+01  -1.83886363E+01   1.09337340E+00  -9.77581071E-01   2.27185777E-01  -3.28707544E-02  -6.75579049E-01  -2.16988669E+01  -7.93003831E+00  -1.74070948E+00  -3.55032022E+00  -1.54748811E+01   1.15971252E-01
   1.48750000E+02   5.00000000E-01   5.00000000E-01  -7.73863763E+00  -2.06628305E+00  -5.31881051E+00  -2.65864100E+00  -2.76044477E+00   8.30239909E-02  -4.87892686E+00   2.43044201E-01   1.88801705E+00   9.00360600E-01   1.83697496E+00  -2.06576725E+00  -1.07222538E+00  -1.40848239E+00  -1.06291196E+00  -2.70806261E+00  -8.98945290E-01  -8.65033917E+00   4.67628007E-01   1.94647444E-02  -2.06748998E+00  -6.93641985E-01   5.30927471E-01  -6.84353395E-02   4.54874771E-01  -1.83720872E+00  -6.57460619E+00  -2.99480565E+01  -8.32198889E-01  -7.87931536E+00  -3.40945640E+00  -5.18060852E+01  -1.81319278E+01   1.09205774E+00  -9.78473301E-01   2.33770644E-01  -3.55037099E-02  -6.87797954E-01  -2.14667192E+01  -7.93767542E+00  -1.74397159E+00  -3.50945093E+00  -1.54098260E+01   1.15971252E-01
   1.66250000E+02   5.00000000E-01   5.00000000E-01  -7.69731853E+00  -1.98574127E+00  -5.30185438E+00  -2.66404674E+00  -2.76398119E+00   8.30239908E-02  -4.81845398E+00   2.46579709E-01   1.87017418E+00   9.03511762E-01   1.82746957E+00  -2.01276233E+00  -1.03760332E+00  -1.35586463E+00  -1.02005548E+00  -2.69208097E+00  -8.59140346E-01  -8.57205605E+00   4.72710972E-01   1.95899235E-02  -2.02386571E+00  -6.58729375E-01   5.46277169E-01  -3.37391186E-02   4.78894157E-01  -1.80601082E+00  -6.56643783E+00  -2.97647844E+01  -8.12838988E-01  -7.82261118E+00  -3.37678451E+00  -5.12912154E+01  -1.78829635E+01   1.08927962E+00  -9.78318070E-01   2.39317938E-01  -3.76047126E-02  -6.99390584E-01  -2.12581832E+01  -7.93921974E+00  -1.74677065E+00  -3.47005148E+00  -1.53450326E+01   1.15971252E-01
   1.83750000E+02   5.00000000E-01   5.00000000E-01  -7.65265325E+00  -1.91046029E+00  -5.28290613E+00  -2.66418214E+00  -2.76226646E+00   8.30239908E-02  -4.76048365E+00   2.53129182E-01   1.85559721E+00   9.09683377E-01   1.82113603E+00  -1.97271500E+00  -1.01574396E+00  -1.31619770E+00  -9.90055264E-01  -2.67471271E+00  -8.22289275E-01  -8.50252383E+00   4.72429183E-01   1.97202402E-02  -1.99611937E+00  -6.33059578E-01   5.52590718E-01  -8.28112189E-03   4.93779602E-01  -1.78539064E+00  -6.54824383E+00  -2.95863199E+01  -7.93325023E-01  -7.77293521E+00  -3.35320023E+00  -5.07874718E+01  -1.76406249E+01   1.08586762E+00  -9.77578445E-01   2.43860978E-01  -3.94332931E-02  -7.10382590E-01  -2.10675083E+01  -7.93615767E+00  -1.74912416E+00  -3.43249798E+00  -1.52805073E+01   1.15971252E-01
   2.01250000E+02   5.00000000E-01   5.00000000E-01  -7.60588851E+00  -1.84009403E+00  -5.26280219E+00  -2.66071091E+00  -2.75696404E+00   8.30239908E-02  -4.70505366E+00   2.62088129E-01   1.84367183E+00   9.18269588E-01   1.81736145E+00  -1.94080342E+00  -1.00182880E+00  -1.28466113E+00  -9.68091404E-01  -2.65636789E+00  -7.88005189E-01  -8.43881048E+00   4.69098284E-01   1.98410993E-02  -1.97884129E+00  -6.12938873E-01   5.53558322E-01   1.16310441E-02   5.03222787E-01  -1.77158754E+00  -6.52246620E+00  -2.94111648E+01  -7.73666453E-01  -7.72776265E+00  -3.33534687E+00  -5.02931652E+01  -1.74040856E+01   1.08224921E+00  -9.76626783E-01   2.47433141E-01  -4.11167244E-02  -7.20798542E-01  -2.08907323E+01  -7.92970376E+00  -1.75104918E+00  -3.39691882E+00  -1.52162559E+01   1.15971252E-01
   2.18750000E+02   5.00000000E-01   5.00000000E-01  -7.55786495E+00  -1.77428459E+00  -5.24206371E+00  -2.65479975E+00  -2.74924030E+00   8.30239907E-02  -4.65208371E+00   2.72877972E-01   1.83381038E+00   9.28690730E-01   1.81555950E+00  -1.91402022E+00  -9.92853752E-01  -1.25824868E+00  -9.51158451E-01  -2.63736572E+00  -7.56007489E-01  -8.37901354E+00   4.64070296E-01   1.99468446E-02  -1.96845315E+00  -5.96153007E-01   5.51390804E-01   2.82105792E-02   5.09435936E-01  -1.76218412E+00  -6.49113842E+00  -2.92384640E+01  -7.53872540E-01  -7.68550898E+00  -3.32112173E+00  -4.98071174E+01  -1.71727158E+01   1.07862740E+00  -9.75746274E-01   2.50067656E-01  -4.27187063E-02  -7.30661939E-01  -2.07250673E+01  -7.92080462E+00  -1.75256229E+00  -3.36329584E+00  -1.51522842E+01   1.15971252E-01
   2.36250000E+02   5.00000000E-01   5.00000000E-01  -7.50914580E+00  -1.71267071E+00  -5.22101309E+00  -2.64725927E+00  -2.73990558E+00   8.30239907E-02  -4.60143176E+00   2.85003369E-01   1.82550948E+00   9.40450553E-01   1.81522809E+00  -1.89050027E+00  -9.86956839E-01  -1.23509612E+00  -9.37393146E-01  -2.61794681E+00  -7.26074058E-01  -8.32190217E+00   4.58120982E-01   2.00365799E-02  -1.96259729E+00  -5.81389432E-01   5.47397372E-01   4.27691618E-02   5.13729606E-01  -1.75563237E+00  -6.45586615E+00  -2.90677374E+01  -7.33952330E-01  -7.64518372E+00  -3.30921394E+00  -4.93284855E+01  -1.69460222E+01   1.07508496E+00  -9.75142882E-01   2.51797427E-01  -4.42715745E-02  -7.39995230E-01  -2.05685069E+01  -7.91017430E+00  -1.75367956E+00  -3.33153136E+00  -1.50885975E+01   1.15971252E-01
   2.53750000E+02   5.00000000E-01   5.00000000E-01  -7.46010514E+00  -1.65489830E+00  -5.19984766E+00  -2.63864673E+00  -2.72951685E+00   8.30239906E-02  -4.55292893E+00   2.98067487E-01   1.81836533E+00   9.53151444E-01   1.81596467E+00  -1.86909582E+00  -9.82993421E-01  -1.21405649E+00  -9.25649586E-01  -2.59828773E+00  -6.98016837E-01  -8.26668370E+00   4.51685191E-01   2.01115813E-02  -1.95972972E+00  -5.67881424E-01   5.42341494E-01   5.60727728E-02   5.16868575E-01  -1.75094680E+00  -6.41786855E+00  -2.88987204E+01  -7.13914628E-01  -7.60617108E+00  -3.29881176E+00  -4.88566496E+01  -1.67236102E+01   1.07164366E+00  -9.74959629E-01   2.52654871E-01  -4.57917983E-02  -7.48819840E-01  -2.04195731E+01  -7.89833660E+00  -1.75441653E+00  -3.30148940E+00  -1.50252008E+01   1.15971252E-01
   2.71250000E+02   5.00000000E-01   5.00000000E-01  -7.41098775E+00  -1.60062820E+00  -5.17868600E+00  -2.62933943E+00  -2.71845116E+00   8.30239906E-02  -4.50639969E+00   3.11767446E-01   1.81206901E+00   9.66489836E-01   1.81746155E+00  -1.84911042E+00  -9.80270072E-01  -1.19443406E+00  -9.15233114E-01  -2.57851448E+00  -6.71669395E-01  -8.21285239E+00   4.44997870E-01   2.01738919E-02  -1.95885091E+00  -5.55191410E-01   5.36657559E-01   6.85583289E-02   5.19288522E-01  -1.74750715E+00  -6.37804015E+00  -2.87312701E+01  -6.93767978E-01  -7.56809216E+00  -3.28941863E+00  -4.83911414E+01  -1.65051574E+01   1.06829701E+00  -9.75290085E-01   2.52671785E-01  -4.72876309E-02  -7.57156202E-01  -2.02771529E+01  -7.88566518E+00  -1.75478819E+00  -3.27301975E+00  -1.49620988E+01   1.15971252E-01
   2.88750000E+02   5.00000000E-01   5.00000000E-01  -7.36194970E+00  -1.54954116E+00  -5.15759693E+00  -2.61958702E+00  -2.70695786E+00   8.30239905E-02  -4.46167309E+00   3.25881678E-01   1.80639374E+00   9.80243538E-01   1.81949317E+00  -1.83013215E+00  -9.78377816E-01  -1.17581753E+00  -9.05733541E-01  -2.55871418E+00  -6.46880677E-01  -8.16009124E+00   4.38177980E-01   2.02256349E-02  -1.95932698E+00  -5.43079543E-01   5.30582313E-01   8.04650892E-02   5.21227457E-01  -1.74493131E+00  -6.33701460E+00  -2.85653108E+01  -6.73520646E-01  -7.53071819E+00  -3.28073761E+00  -4.79315969E+01  -1.62903961E+01   1.06502761E+00  -9.76189992E-01   2.51879222E-01  -4.87629838E-02  -7.65023788E-01  -2.01403902E+01  -7.87241802E+00  -1.75480901E+00  -3.24597149E+00  -1.48992958E+01   1.15971252E-01
   3.06250000E+02   5.00000000E-01   5.00000000E-01  -7.31308637E+00  -1.50134041E+00  -5.13661790E+00  -2.60954896E+00  -2.69519617E+00   8.30239904E-02  -4.41858845E+00   3.40255017E-01   1.80117978E+00   9.94256815E-01   1.82190097E+00  -1.81192834E+00  -9.77086864E-01  -1.15797481E+00  -8.96919884E-01  -2.53894460E+00  -6.23511927E-01  -8.10820761E+00   4.31278308E-01   2.02687213E-02  -1.96076993E+00  -5.31423812E-01   5.24234736E-01   9.19145272E-02   5.22805605E-01  -1.74299263E+00  -6.29522261E+00  -2.84008025E+01  -6.53180609E-01  -7.49391563E+00  -3.27259813E+00  -4.74777261E+01  -1.60791007E+01   1.06181601E+00  -9.77686843E-01   2.50307385E-01  -5.02194342E-02  -7.72441152E-01  -2.00086129E+01  -7.85876585E+00  -1.75449288E+00  -3.22020021E+00  -1.48367958E+01   1.15971252E-01
   3.23750000E+02   5.00000000E-01   5.00000000E-01  -7.26445190E+00  -1.45575300E+00  -5.11576676E+00  -2.59932182E+00  -2.68326238E+00   8.30239904E-02  -4.37699802E+00   3.54784121E-01   1.79631975E+00   1.00842580E+00   1.82457875E+00  -1.79437811E+00  -9.76279149E-01  -1.14078557E+00  -8.88672894E-01  -2.51924193E+00  -6.01435301E-01  -8.05709009E+00   4.24315111E-01   2.03047554E-02  -1.96295558E+00  -5.20171077E-01   5.17665006E-01   1.02959289E-01   5.24074376E-01  -1.74156509E+00  -6.25294193E+00  -2.82377235E+01  -6.32755540E-01  -7.45761079E+00  -3.26490889E+00  -4.70292917E+01  -1.58710785E+01   1.05864474E+00  -9.79787649E-01   2.47985543E-01  -5.16572902E-02  -7.79425959E-01  -1.98812837E+01  -7.84481523E+00  -1.75385315E+00  -3.19557172E+00  -1.47746026E+01   1.15971252E-01
   3.41250000E+02   5.00000000E-01   5.00000000E-01  -7.21607322E+00  -1.41253031E+00  -5.09504952E+00  -2.58895947E+00  -2.67121013E+00   8.30239903E-02  -4.33676801E+00   3.69404188E-01   1.79174519E+00   1.02268520E+00   1.82745922E+00  -1.77742809E+00  -9.75904050E-01  -1.12419693E+00  -8.80940789E-01  -2.49962698E+00  -5.80533397E-01  -8.00667902E+00   4.17285875E-01   2.03350348E-02  -1.96576610E+00  -5.09306578E-01   5.10884990E-01   1.13613676E-01   5.25046849E-01  -1.74058607E+00  -6.21033961E+00  -2.80760597E+01  -6.12252806E-01  -7.42176646E+00  -3.25762677E+00  -4.65860949E+01  -1.56661632E+01   1.05549979E+00  -9.82485247E-01   2.44941956E-01  -5.30761674E-02  -7.85995022E-01  -1.97579648E+01  -7.83062717E+00  -1.75290261E+00  -3.17196364E+00  -1.47127193E+01   1.15971252E-01
   3.58750000E+02   5.00000000E-01   5.00000000E-01  -7.16796037E+00  -1.37144830E+00  -5.07446560E+00  -2.57848858E+00  -2.65906583E+00   8.30239902E-02  -4.29777879E+00   3.84077308E-01   1.78741484E+00   1.03699665E+00   1.83050226E+00  -1.76106258E+00  -9.75948543E-01  -1.10819364E+00  -8.73709395E-01  -2.48011032E+00  -5.60699280E-01  -7.95694554E+00   4.10180077E-01   2.03605887E-02  -1.96914842E+00  -4.98834575E-01   5.03887601E-01   1.23873005E-01   5.25717137E-01  -1.74003020E+00  -6.16750735E+00  -2.79157996E+01  -5.91679460E-01  -7.38636614E+00  -3.25073586E+00  -4.61479650E+01  -1.54642098E+01   1.05237079E+00  -9.85763415E-01   2.41203810E-01  -5.44753061E-02  -7.92164341E-01  -1.96382927E+01  -7.81623239E+00  -1.75165350E+00  -3.14926615E+00  -1.46511490E+01   1.15971252E-01
   3.76250000E+02   5.00000000E-01   5.00000000E-01  -7.12011418E+00  -1.33230742E+00  -5.05401138E+00  -2.56792025E+00  -2.64684034E+00   8.30239901E-02  -4.25992458E+00   3.98782665E-01   1.78330475E+00   1.05133892E+00   1.83368505E+00  -1.74528319E+00  -9.76416860E-01  -1.09277776E+00  -8.66981811E-01  -2.46069630E+00  -5.41836681E-01  -7.90787677E+00   4.02985656E-01   2.03822294E-02  -1.97308405E+00  -4.88765978E-01   4.96659166E-01   1.33725973E-01   5.26072747E-01  -1.73989095E+00  -6.12449038E+00  -2.77569309E+01  -5.71042244E-01  -7.35140321E+00  -3.24423301E+00  -4.57147518E+01  -1.52650904E+01   1.04925053E+00  -9.89600972E-01   2.36797176E-01  -5.58537490E-02  -7.97949138E-01  -1.95219597E+01  -7.80164338E+00  -1.75011756E+00  -3.12738195E+00  -1.45898944E+01   1.15971252E-01
   3.93750000E+02   5.00000000E-01   5.00000000E-01  -7.07253154E+00  -1.29493196E+00  -5.03368256E+00  -2.55725840E+00  -2.63453734E+00   8.30239900E-02  -4.22311282E+00   4.13508971E-01   1.77940063E+00   1.06570032E+00   1.83699441E+00  -1.73009567E+00  -9.77317319E-01  -1.07795543E+00  -8.60765235E-01  -2.44138608E+00  -5.23860023E-01  -7.85946576E+00   3.95692668E-01   2.04006025E-02  -1.97756831E+00  -4.79110875E-01   4.89186896E-01   1.43162133E-01   5.26102059E-01  -1.74016827E+00  -6.08130925E+00  -2.75994392E+01  -5.50347584E-01  -7.31687384E+00  -3.23811848E+00  -4.52863205E+01  -1.50686915E+01   1.04613429E+00  -9.93974821E-01   2.31746968E-01  -5.72104420E-02  -8.03363886E-01  -1.94087001E+01  -7.78686349E+00  -1.74830594E+00  -3.10622589E+00  -1.45289577E+01   1.15971252E-01
   4.11250000E+02   5.00000000E-01   5.00000000E-01  -7.02520863E+00  -1.25916853E+00  -5.01347541E+00  -2.54650485E+00  -2.62215842E+00   8.30239899E-02  -4.18726307E+00   4.28249499E-01   1.77569285E+00   1.08007378E+00   1.84042183E+00  -1.71550280E+00  -9.78655208E-01  -1.06372982E+00  -8.55063853E-01  -2.42217955E+00  -5.06693981E-01  -7.81170568E+00   3.88294843E-01   2.04162303E-02  -1.98259818E+00  -4.69874889E-01   4.81462530E-01   1.52175529E-01   5.25797960E-01  -1.74086153E+00  -6.03797382E+00  -2.74433077E+01  -5.29601600E-01  -7.28277323E+00  -3.23239086E+00  -4.48625482E+01  -1.48749118E+01   1.04301914E+00  -9.98861881E-01   2.26076918E-01  -5.85442919E-02  -8.08422348E-01  -1.92982816E+01  -7.77189260E+00  -1.74622932E+00  -3.08572404E+00  -1.44683410E+01   1.15971252E-01
   4.28750000E+02   5.00000000E-01   5.00000000E-01  -6.97814210E+00  -1.22488358E+00  -4.99338713E+00  -2.53566137E+00  -2.60970512E+00   8.30239898E-02  -4.15230551E+00   4.42999732E-01   1.77217408E+00   1.09445445E+00   1.84396106E+00  -1.70150235E+00  -9.80430729E-01  -1.05009900E+00  -8.49876776E-01  -2.40307613E+00  -4.90272472E-01  -7.76458793E+00   3.80789629E-01   2.04295450E-02  -1.98816789E+00  -4.61058527E-01   4.73482977E-01   1.60765348E-01   5.25158495E-01  -1.74196723E+00  -5.99448968E+00  -2.72885176E+01  -5.08810101E-01  -7.24909440E+00  -3.22704554E+00  -4.44433212E+01  -1.46836599E+01   1.03990352E+00  -1.00423995E+00   2.19809564E-01  -5.98541994E-02  -8.13137604E-01  -1.91904981E+01  -7.75672969E+00  -1.74389784E+00  -3.06581233E+00  -1.44080459E+01   1.15971252E-01
   4.46250000E+02   5.00000000E-01   5.00000000E-01  -6.93132891E+00  -1.19196019E+00  -4.97341560E+00  -2.52472956E+00  -2.59717882E+00   8.30239896E-02  -4.11817923E+00   4.57757026E-01   1.76883894E+00   1.10883937E+00   1.84760779E+00  -1.68808837E+00  -9.82640327E-01  -1.03705734E+00  -8.45199379E-01  -2.38407489E+00  -4.74537208E-01  -7.71810267E+00   3.73177315E-01   2.04409122E-02  -1.99426984E+00  -4.52658427E-01   4.65249076E-01   1.68934680E-01   5.24185621E-01  -1.74347982E+00  -5.95085875E+00  -2.71350485E+01  -4.87978600E-01  -7.21582887E+00  -3.22207561E+00  -4.40285339E+01  -1.44948531E+01   1.03678693E+00  -1.01008775E+00   2.12966237E-01  -6.11390796E-02  -8.17522086E-01  -1.90851662E+01  -7.74137296E+00  -1.74132116E+00  -3.04643493E+00  -1.43480737E+01   1.15971252E-01
   4.63750000E+02   5.00000000E-01   5.00000000E-01  -6.88476553E+00  -1.16029494E+00  -4.95355899E+00  -2.51370975E+00  -2.58457962E+00   8.30239895E-02  -4.08483055E+00   4.72521222E-01   1.76568460E+00   1.12322812E+00   1.85136025E+00  -1.67525375E+00  -9.85279251E-01  -1.02459804E+00  -8.41025849E-01  -2.36517417E+00  -4.59436180E-01  -7.67224054E+00   3.65459932E-01   2.04506450E-02  -2.00089783E+00  -4.44669188E-01   4.56763762E-01   1.76688680E-01   5.22883376E-01  -1.74539382E+00  -5.90707721E+00  -2.69828791E+01  -4.67112311E-01  -7.18296804E+00  -3.21747367E+00  -4.36180884E+01  -1.43084160E+01   1.03366980E+00  -1.01638465E+00   2.05567063E-01  -6.23978728E-02  -8.21587607E-01  -1.89821227E+01  -7.72581890E+00  -1.73850846E+00  -3.02754267E+00  -1.42884256E+01   1.15971251E-01
   4.81250000E+02   5.00000000E-01   5.00000000E-01  -6.83844745E+00  -1.12979536E+00  -4.93381537E+00  -2.50260024E+00  -2.57190562E+00   8.30239894E-02  -4.05221176E+00   4.87295090E-01   1.76271125E+00   1.13762324E+00   1.85521967E+00  -1.66299204E+00  -9.88343312E-01  -1.01271486E+00  -8.37350955E-01  -2.34637137E+00  -4.44922442E-01  -7.62699374E+00   3.57640510E-01   2.04590119E-02  -2.00804916E+00  -4.37084617E-01   4.48030813E-01   1.84033326E-01   5.21256627E-01  -1.74770523E+00  -5.86313405E+00  -2.68319877E+01  -4.46216165E-01  -7.15050406E+00  -3.21323303E+00  -4.32118931E+01  -1.41242797E+01   1.03055340E+00  -1.02311037E+00   1.97630971E-01  -6.36295519E-02  -8.25345384E-01  -1.88812219E+01  -7.71006161E+00  -1.73546845E+00  -3.00909181E+00  -1.42291022E+01   1.15971251E-01
   4.98750000E+02   5.00000000E-01   5.00000000E-01  -6.79236931E+00  -1.10037850E+00  -4.91418279E+00  -2.49139768E+00  -2.55915324E+00   8.30239892E-02  -4.02028028E+00   5.02083894E-01   1.75992165E+00   1.15202976E+00   1.85918984E+00  -1.65129722E+00  -9.91828737E-01  -1.00140201E+00  -8.34169894E-01  -2.32766315E+00  -4.30953440E-01  -7.58235586E+00   3.49722954E-01   2.04662429E-02  -2.01572415E+00  -4.29897801E-01   4.39054783E-01   1.90975342E-01   5.19310999E-01  -1.75041130E+00  -5.81901219E+00  -2.66823522E+01  -4.25294813E-01  -7.11842976E+00  -3.20934761E+00  -4.28098624E+01  -1.39423808E+01   1.02743972E+00  -1.03024519E+00   1.89175704E-01  -6.48331258E-02  -8.28806073E-01  -1.87823332E+01  -7.69409326E+00  -1.73220941E+00  -2.99104332E+00  -1.41701042E+01   1.15971251E-01
   5.16250000E+02   5.00000000E-01   5.00000000E-01  -6.74652582E+00  -1.07197043E+00  -4.89465962E+00  -2.48009840E+00  -2.54631863E+00   8.30239890E-02  -3.98899837E+00   5.16893993E-01   1.75731973E+00   1.16645388E+00   1.86327570E+00  -1.64016174E+00  -9.95730164E-01  -9.90652132E-01  -8.31476291E-01  -2.30904588E+00  -4.17490860E-01  -7.53832018E+00   3.41712494E-01   2.04725341E-02  -2.02392263E+00  -4.23100078E-01   4.29842027E-01   1.97523233E-01   5.17053903E-01  -1.75350855E+00  -5.77469243E+00  -2.65339501E+01  -4.04352633E-01  -7.08673758E+00  -3.20581048E+00  -4.24119155E+01  -1.37626607E+01   1.02433132E+00  -1.03777040E+00   1.80217846E-01  -6.60076400E-02  -8.31979790E-01  -1.86853388E+01  -7.67790567E+00  -1.72873917E+00  -2.97336255E+00  -1.41114316E+01   1.15971250E-01
   5.33750000E+02   5.00000000E-01   5.00000000E-01  -6.70091299E+00  -1.04450629E+00  -4.87524506E+00  -2.46870045E+00  -2.53339961E+00   8.30239888E-02  -3.95833302E+00   5.31730976E-01   1.75490867E+00   1.18090102E+00   1.86748145E+00  -1.62957372E+00  -1.00003783E+00  -9.80453497E-01  -8.29259385E-01  -2.29051643E+00  -4.04500767E-01  -7.49487751E+00   3.33616344E-01   2.04780534E-02  -2.03263933E+00  -4.16679552E-01   4.20402182E-01   2.03688764E-01   5.14496020E-01  -1.75699002E+00  -5.73015870E+00  -2.63867583E+01  -3.83393743E-01  -7.05541801E+00  -3.20261188E+00  -4.20179750E+01  -1.35850652E+01   1.02123106E+00  -1.04566905E+00   1.70772842E-01  -6.71521772E-02  -8.34876137E-01  -1.85901304E+01  -7.66149249E+00  -1.72506518E+00  -2.95601927E+00  -1.40530844E+01   1.15971249E-01
   5.51250000E+02   5.00000000E-01   5.00000000E-01  -6.65552907E+00  -1.01793028E+00  -4.85593949E+00  -2.45720512E+00  -2.52039730E+00   8.30239886E-02  -3.92825584E+00   5.46598110E-01   1.75268939E+00   1.19537432E+00   1.87180897E+00  -1.61951477E+00  -1.00473547E+00  -9.70787868E-01  -8.27501917E-01  -2.27207273E+00  -3.91953704E-01  -7.45201442E+00   3.25444142E-01   2.04829481E-02  -2.04186017E+00  -4.10620038E-01   4.10749226E-01   2.09488014E-01   5.11652355E-01  -1.76084322E+00  -5.68540248E+00  -2.62407532E+01  -3.62422010E-01  -7.02445849E+00  -3.19973765E+00  -4.16279666E+01  -1.34095436E+01   1.01814192E+00  -1.05392644E+00   1.60855038E-01  -6.82658566E-02  -8.37504225E-01  -1.84966076E+01  -7.64485095E+00  -1.72119447E+00  -2.93898752E+00  -1.39950624E+01   1.15971247E-01
   5.68750000E+02   5.00000000E-01   5.00000000E-01  -6.61037478E+00  -9.92195034E-01  -4.83674452E+00  -2.44561734E+00  -2.50731640E+00   8.30239884E-02  -3.89874268E+00   5.61495802E-01   1.75065997E+00   1.20987410E+00   1.87625731E+00  -1.60995991E+00  -1.00980012E+00  -9.61630348E-01  -8.26179951E-01  -2.25371398E+00  -3.79824451E-01  -7.40971295E+00   3.17207797E-01   2.04873513E-02  -2.05156157E+00  -4.04901160E-01   4.00901376E-01   2.14941283E-01   5.08542137E-01  -1.76504973E+00  -5.64042413E+00  -2.60959102E+01  -3.41441054E-01  -6.99384327E+00  -3.19716917E+00  -4.12418181E+01  -1.32360488E+01   1.01506682E+00  -1.06253030E+00   1.50477716E-01  -6.93478337E-02  -8.39872702E-01  -1.84046761E+01  -7.62798236E+00  -1.71713369E+00  -2.92224531E+00  -1.39373650E+01   1.15971244E-01
   5.86250000E+02   5.00000000E-01   5.00000000E-01  -6.56545255E+00  -9.67260158E-01  -4.81766260E+00  -2.43394457E+00  -2.49416420E+00   8.30239882E-02  -3.86977286E+00   5.76422376E-01   1.74881641E+00   1.22439860E+00   1.88082346E+00  -1.60087969E+00  -1.01520433E+00  -9.52951575E-01  -8.25265089E-01  -2.23544023E+00  -3.68091321E-01  -7.36795212E+00   3.08920655E-01   2.04913892E-02  -2.06171340E+00  -3.99499817E-01   3.90879619E-01   2.20071619E-01   5.05187353E-01  -1.76958716E+00  -5.59523050E+00  -2.59522052E+01  -3.20454264E-01  -6.96355457E+00  -3.19488480E+00  -4.08594596E+01  -1.30645365E+01   1.01200862E+00  -1.07147041E+00   1.39653140E-01  -7.03973011E-02  -8.41989768E-01  -1.83142480E+01  -7.61089112E+00  -1.71288917E+00  -2.90577388E+00  -1.38799914E+01   1.15971239E-01
   6.03750000E+02   5.00000000E-01   5.00000000E-01  -6.52076509E+00  -9.43090180E-01  -4.79869630E+00  -2.42219459E+00  -2.48094829E+00   8.30239880E-02  -3.84132818E+00   5.91375894E-01   1.74715454E+00   1.23894584E+00   1.88550417E+00  -1.59224424E+00  -1.02092020E+00  -9.44721737E-01  -8.24728475E-01  -2.21725172E+00  -3.56735097E-01  -7.32671081E+00   3.00596169E-01   2.04951844E-02  -2.07228479E+00  -3.94392675E-01   3.80705224E-01   2.24902328E-01   5.01610253E-01  -1.77443271E+00  -5.54982954E+00  -2.58096140E+01  -2.99464807E-01  -6.93357471E+00  -3.19286281E+00  -4.04808241E+01  -1.28949652E+01   1.00897014E+00  -1.08073773E+00   1.28392594E-01  -7.14134904E-02  -8.43863199E-01  -1.82252418E+01  -7.59358237E+00  -1.70846684E+00  -2.88955675E+00  -1.38229406E+01   1.15971233E-01
   6.21250000E+02   5.00000000E-01   5.00000000E-01  -6.47631364E+00  -9.19652332E-01  -4.77984754E+00  -2.41037290E+00  -2.46767399E+00   8.30239877E-02  -3.81339189E+00   6.06356347E-01   1.74567215E+00   1.25351578E+00   1.89029818E+00  -1.58402777E+00  -1.02692384E+00  -9.36915058E-01  -8.24545286E-01  -2.19914788E+00  -3.45737873E-01  -7.28597103E+00   2.92246479E-01   2.04988585E-02  -2.08325088E+00  -3.89558885E-01   3.70397019E-01   2.29454258E-01   4.97830637E-01  -1.77956726E+00  -5.50422381E+00  -2.56681141E+01  -2.78475633E-01  -6.90388848E+00  -3.19108447E+00  -4.01058478E+01  -1.27272955E+01   1.00595432E+00  -1.09032352E+00   1.16706436E-01  -7.23956747E-02  -8.45500371E-01  -1.81375838E+01  -7.57605930E+00  -1.70387238E+00  -2.87357864E+00  -1.37662115E+01   1.15971222E-01