 TITLE = "Mineral Saturation State" 
VARIABLES = "X"          "Y"              "Z"            "Forsterite"     "Enstatite(alph" "Anorthite"      "Tremolite"      "Pargasite"      "Anhydrite"      "Clinochlore"    "Albite(low)"    "Fayalite"       "Epidote"        "Kaolinite"      "Muscovite(orde" "Sudoite"        "Saponite(Mg)"   "Scolecite"      "FeS(am)"        "Quartz(alpha)"  "Montmorillonit"
 ZONE I=         100 , J=           1 , K=           1  F=POINT
   1.75000000E+01   5.00000000E-01   5.00000000E-01  -7.42742118E+00  -2.61910553E+00  -1.01110678E+01  -4.81651148E+00  -3.10399005E+01  -6.30309349E-01   4.51557071E-01  -5.29612731E-01  -4.07333457E+00  -4.58598958E-09  -3.59409854E+00  -1.47727353E+00  -4.35796816E+00   1.28490578E+00  -4.71125069E+00  -5.06075874E+00   9.05056298E-01  -1.25823362E+00
   5.25000000E+01   5.00000000E-01   5.00000000E-01  -7.51445620E+00  -2.60857554E+00  -9.51320490E+00  -4.52399305E+00  -3.02918828E+01  -4.21852883E-01   3.99144601E-01  -9.90435408E-02  -3.62228006E+00   4.90096207E-09  -3.05280325E+00  -7.90303197E-01  -3.69297575E+00   1.35184899E+00  -4.05646318E+00  -4.82439583E+00   1.02264274E+00  -5.96381988E-01
   8.75000000E+01   5.00000000E-01   5.00000000E-01  -7.48715634E+00  -2.58285961E+00  -9.26069557E+00  -4.31137723E+00  -2.98432014E+01  -2.86233896E-01   3.68992269E-01   1.76312357E-02  -3.31755777E+00   1.00659123E-09  -2.90374367E+00  -6.40590993E-01  -3.52860844E+00   1.38871331E+00  -3.83053955E+00  -4.56193954E+00   1.05614461E+00  -4.05852786E-01
   1.22500000E+02   5.00000000E-01   5.00000000E-01  -7.43742056E+00  -2.55882209E+00  -9.09275819E+00  -4.19117814E+00  -2.94915341E+01  -1.92541674E-01   3.56160288E-01   5.52531916E-02  -3.09298809E+00   3.71591626E-10  -2.83480604E+00  -5.97502244E-01  -3.44891077E+00   1.40379664E+00  -3.71453286E+00  -4.26006663E+00   1.06373439E+00  -3.29758980E-01
   1.57500000E+02   5.00000000E-01   5.00000000E-01  -7.38171247E+00  -2.53626873E+00  -8.95834416E+00  -4.12371741E+00  -2.91877412E+01  -1.25769720E-01   3.51115977E-01   6.75997547E-02  -2.91739710E+00   1.43689419E-10  -2.78903608E+00  -5.83994170E-01  -3.39017387E+00   1.40989884E+00  -3.64054731E+00  -3.96323753E+00   1.06226644E+00  -2.89920173E-01
   1.92500000E+02   5.00000000E-01   5.00000000E-01  -7.32434821E+00  -2.51451286E+00  -8.84188319E+00  -4.08687409E+00  -2.89135766E+01  -7.73654482E-02   3.49228334E-01   7.08415200E-02  -2.77458693E+00   2.62914237E-11  -2.75169190E+00  -5.80524878E-01  -3.33863982E+00   1.41253095E+00  -3.58732807E+00  -3.69941766E+00   1.05743232E+00  -2.63369565E-01
   2.27500000E+02   5.00000000E-01   5.00000000E-01  -7.26674597E+00  -2.49323159E+00  -8.73679433E+00  -4.06931009E+00  -2.86599922E+01  -4.19611894E-02   3.48605365E-01   7.05635368E-02  -2.65537881E+00  -4.86082753E-11  -2.71797670E+00  -5.80839288E-01  -3.29029121E+00   1.41381723E+00  -3.54623508E+00  -3.47498923E+00   1.05129814E+00  -2.42212162E-01
   2.62500000E+02   5.00000000E-01   5.00000000E-01  -7.20942156E+00  -2.47229140E+00  -8.63967317E+00  -4.06476598E+00  -2.84216982E+01  -1.59684611E-02   3.48501923E-01   6.88277544E-02  -2.55414676E+00  -1.04363374E-10  -2.68612562E+00  -5.82680946E-01  -3.24370907E+00   1.41457482E+00  -3.51308588E+00  -3.28735144E+00   1.04464878E+00  -2.23507127E-01
   2.97500000E+02   5.00000000E-01   5.00000000E-01  -7.15257105E+00  -2.45163655E+00  -8.54850835E+00  -4.06945998E+00  -2.81952885E+01   3.11598685E-03   3.48624870E-01   6.64227161E-02  -2.46721720E+00  -1.51009050E-10  -2.65543522E+00  -5.85181982E-01  -3.19832608E+00   1.41512325E+00  -3.48556638E+00  -3.13164909E+00   1.03779378E+00  -2.06100713E-01
   3.32500000E+02   5.00000000E-01   5.00000000E-01  -7.09626916E+00  -2.43124202E+00  -8.46199947E+00  -4.08093019E+00  -2.79784339E+01   1.70887126E-02   3.48858084E-01   6.36551164E-02  -2.39205848E+00  -1.93519690E-10  -2.62560358E+00  -5.87995631E-01  -3.15389036E+00   1.41558982E+00  -3.46225616E+00  -3.00306409E+00   1.03085986E+00  -1.89519454E-01
   3.67500000E+02   5.00000000E-01   5.00000000E-01  -7.04054246E+00  -2.41109490E+00  -8.37924982E+00  -4.09747890E+00  -2.77694709E+01   2.72692251E-02   3.49155305E-01   6.06443278E-02  -2.32684013E+00  -2.34672557E-10  -2.59648899E+00  -5.90980021E-01  -3.11027671E+00   1.41602594E+00  -3.44221085E+00  -2.89741482E+00   1.02390130E+00  -1.73558791E-01
   4.02500000E+02   5.00000000E-01   5.00000000E-01  -6.98539747E+00  -2.39118716E+00  -8.29961879E+00  -4.11789792E+00  -2.75671851E+01   3.46334635E-02   3.49498189E-01   5.74356070E-02  -2.27017802E+00  -2.76269786E-10  -2.56801744E+00  -5.94077172E-01  -3.06741519E+00   1.41645238E+00  -3.42477186E+00  -2.81121665E+00   1.01694261E+00  -1.58124690E-01
   4.37500000E+02   5.00000000E-01   5.00000000E-01  -6.93083214E+00  -2.37151272E+00  -8.22263680E+00  -4.14130783E+00  -2.73706735E+01   3.99074905E-02   3.49879530E-01   5.40451284E-02  -2.22098344E+00  -3.19514858E-10  -2.54014513E+00  -5.97264101E-01  -3.02526176E+00   1.41687721E+00  -3.40946416E+00  -2.74159663E+00   1.00999565E+00  -1.43170041E-01
   4.72500000E+02   5.00000000E-01   5.00000000E-01  -6.87684065E+00  -2.35206645E+00  -8.14795350E+00  -4.16705961E+00  -2.71792547E+01   4.36322492E-02   3.50296455E-01   5.04782508E-02  -2.17837058E+00  -3.65382901E-10  -2.51284261E+00  -6.00532364E-01  -2.98378558E+00   1.41730292E+00  -3.39593751E+00  -2.68618431E+00   1.00306669E+00  -1.28668358E-01
   5.07500000E+02   5.00000000E-01   5.00000000E-01  -6.82341561E+00  -2.33284370E+00  -8.07530376E+00  -4.19466994E+00  -2.69924085E+01   4.62100964E-02   3.50747624E-01   4.67370620E-02  -2.14159860E+00  -4.14707093E-10  -2.48608763E+00  -6.03879021E-01  -2.94296281E+00   1.41772943E+00  -3.38392941E+00  -2.64301370E+00   9.96159360E-01  -1.14602430E-01
   5.42500000E+02   5.00000000E-01   5.00000000E-01  -6.77054914E+00  -2.31384023E+00  -8.00448409E+00  -4.22377656E+00  -2.68097321E+01   4.79392270E-02   3.51232088E-01   4.28235320E-02  -2.11003450E+00  -4.68277411E-10  -2.45986162E+00  -6.07302362E-01  -2.90277325E+00   1.41815515E+00  -3.37324023E+00  -2.61044326E+00   9.89275973E-01  -1.00959136E-01
   5.77500000E+02   5.00000000E-01   5.00000000E-01  -6.71823343E+00  -2.29505217E+00  -7.93533561E+00  -4.25410644E+00  -2.66309086E+01   4.90396298E-02   3.51748813E-01   3.87408319E-02  -2.08312887E+00  -5.26822117E-10  -2.43414765E+00  -6.10799669E-01  -2.86319821E+00   1.41857748E+00  -3.36371554E+00  -2.58709292E+00   9.82418161E-01  -8.77268566E-02
   6.12500000E+02   5.00000000E-01   5.00000000E-01  -6.66646123E+00  -2.27647606E+00  -7.86773157E+00  -4.28545263E+00  -2.64556843E+01   4.96728512E-02   3.52296511E-01   3.44938702E-02  -2.06039964E+00  -5.91094156E-10  -2.40892913E+00  -6.14365927E-01  -2.82421896E+00   1.41899293E+00  -3.35523337E+00  -2.57179476E+00   9.75587179E-01  -7.48940431E-02
   6.47500000E+02   5.00000000E-01   5.00000000E-01  -6.61522599E+00  -2.25810891E+00  -7.80156815E+00  -4.31765728E+00  -2.62838511E+01   4.99570836E-02   3.52873585E-01   3.00894795E-02  -2.04142084E+00  -6.61846475E-10  -2.38418894E+00  -6.17993030E-01  -2.78581556E+00   1.41939713E+00  -3.34769475E+00  -2.56355449E+00   9.68784096E-01  -6.24483400E-02
   6.82500000E+02   5.00000000E-01   5.00000000E-01  -6.56452215E+00  -2.23994821E+00  -7.73675767E+00  -4.35059922E+00  -2.61152345E+01   4.99786389E-02   3.53478132E-01   2.55364369E-02  -2.02581456E+00  -7.39838194E-10  -2.35990874E+00  -6.21669296E-01  -2.74796599E+00   1.41978483E+00  -3.34101684E+00  -2.56152111E+00   9.62009904E-01  -5.03760147E-02
   7.17500000E+02   5.00000000E-01   5.00000000E-01  -6.51434519E+00  -2.22199197E+00  -7.67322361E+00  -4.38418489E+00  -2.59496843E+01   4.98006072E-02   3.54107976E-01   2.08453894E-02  -2.01324489E+00  -8.25877804E-10  -2.33606854E+00  -6.25379208E-01  -2.71064550E+00   1.42014996E+00  -3.33512788E+00  -2.56496278E+00   9.55265601E-01  -3.86615983E-02
   7.52500000E+02   5.00000000E-01   5.00000000E-01  -6.46469172E+00  -2.20423872E+00  -7.61089714E+00  -4.41834176E+00  -2.57870683E+01   4.94693188E-02   3.54760711E-01   1.60287107E-02  -2.00341330E+00  -9.20742938E-10  -2.31264642E+00  -6.29103372E-01  -2.67382625E+00   1.42048556E+00  -3.32996368E+00  -2.57324753E+00   9.48552231E-01  -2.72876999E-02
   7.87500000E+02   5.00000000E-01   5.00000000E-01  -6.41555945E+00  -2.18668749E+00  -7.54971471E+00  -4.45301352E+00  -2.56272676E+01   4.90191083E-02   3.55433756E-01   1.11002937E-02  -1.99605471E+00  -1.02526060E-09  -2.28961841E+00  -6.32818673E-01  -2.63747721E+00   1.42078392E+00  -3.32546515E+00  -2.58582766E+00   9.41870913E-01  -1.62349896E-02
   8.22500000E+02   5.00000000E-01   5.00000000E-01  -6.36694713E+00  -2.16933778E+00  -7.48961646E+00  -4.48815664E+00  -2.54701737E+01   4.84757791E-02   3.56124423E-01   6.07528525E-03  -1.99093427E+00  -1.14021152E-09  -2.26695865E+00  -6.36498642E-01  -2.60156421E+00   1.42103662E+00  -3.32157676E+00  -2.60222693E+00   9.35222846E-01  -5.48233578E-03
   8.57500000E+02   5.00000000E-01   5.00000000E-01  -6.31885441E+00  -2.15218946E+00  -7.43054537E+00  -4.52373775E+00  -2.53156863E+01   4.78590861E-02   3.56829988E-01   9.69752342E-04  -1.98784442E+00  -1.26643196E-09  -2.24463959E+00  -6.40114039E-01  -2.56605042E+00   1.42123467E+00  -3.31824564E+00  -2.62203011E+00   9.28609290E-01   4.99289068E-03
   8.92500000E+02   5.00000000E-01   5.00000000E-01  -6.27128158E+00  -2.13524275E+00  -7.37244694E+00  -4.55973155E+00  -2.51637124E+01   4.71844907E-02   3.57547730E-01  -4.19982784E-03  -1.98660220E+00  -1.40471497E-09  -2.22263269E+00  -6.43633907E-01  -2.53089725E+00   1.42136871E+00  -3.31542140E+00  -2.64487412E+00   9.22031516E-01   1.52141766E-02
   9.27500000E+02   5.00000000E-01   5.00000000E-01  -6.22422950E+00  -2.11849811E+00  -7.31526877E+00  -4.59611951E+00  -2.50141646E+01   4.64643835E-02   3.58275118E-01  -9.41671131E-03  -1.98704693E+00  -1.55585980E-09  -2.20090842E+00  -6.47025751E-01  -2.49606436E+00   1.42142907E+00  -3.31305563E+00  -2.67044085E+00   9.15490796E-01   2.52057790E-02
   9.62500000E+02   5.00000000E-01   5.00000000E-01  -6.17769919E+00  -2.10195612E+00  -7.25896104E+00  -4.63288830E+00  -2.48669617E+01   4.57089259E-02   3.59009804E-01  -1.46645681E-02  -1.98903786E+00  -1.72059779E-09  -2.17943740E+00  -6.50257154E-01  -2.46151131E+00   1.42140608E+00  -3.31110252E+00  -2.69845088E+00   9.08988322E-01   3.49917141E-02
   9.97500000E+02   5.00000000E-01   5.00000000E-01  -6.13169152E+00  -2.08561732E+00  -7.20347689E+00  -4.67002852E+00  -2.47220276E+01   4.49266237E-02   3.59749723E-01  -1.99280086E-02  -1.99245199E+00  -1.89965719E-09  -2.15819118E+00  -6.53296960E-01  -2.42719866E+00   1.42129031E+00  -3.30951931E+00  -2.72865824E+00   9.02525121E-01   4.45949756E-02
   1.03250000E+03   5.00000000E-01   5.00000000E-01  -6.08620687E+00  -2.06948215E+00  -7.14877289E+00  -4.70753361E+00  -2.45792919E+01   4.41247142E-02   3.60493181E-01  -2.51930994E-02  -1.99718203E+00  -2.09374777E-09  -2.13714304E+00  -6.56116470E-01  -2.39308921E+00   1.42107273E+00  -3.30826682E+00  -2.76084584E+00   8.96101984E-01   5.40367401E-02
   1.06750000E+03   5.00000000E-01   5.00000000E-01  -6.04124480E+00  -2.05355079E+00  -7.09480957E+00  -4.74539881E+00  -2.44386893E+01   4.33094293E-02   3.61238933E-01  -3.04478819E-02  -2.00313451E+00  -2.30352370E-09  -2.11626896E+00  -6.58690687E-01  -2.35914922E+00   1.42074502E+00  -3.30731010E+00  -2.79482167E+00   8.89719374E-01   6.33355379E-02
   1.10250000E+03   5.00000000E-01   5.00000000E-01  -5.99680373E+00  -2.03782300E+00  -7.04155196E+00  -4.78362012E+00  -2.43001600E+01   4.24861738E-02   3.61986242E-01  -3.56828547E-02  -2.01022799E+00  -2.52961143E-09  -2.09554835E+00  -6.60999502E-01  -2.32534968E+00   1.42029971E+00  -3.30661900E+00  -2.83041538E+00   8.83377355E-01   7.25064627E-02
   1.13750000E+03   5.00000000E-01   5.00000000E-01  -5.95288065E+00  -2.02229808E+00  -6.98897003E+00  -4.82219337E+00  -2.41636493E+01   4.16596500E-02   3.62734930E-01  -4.08913943E-02  -2.01839139E+00  -2.77257875E-09  -2.07496495E+00  -6.63028753E-01  -2.29166742E+00   1.41973044E+00  -3.30616876E+00  -2.86747537E+00   8.77075517E-01   8.15604619E-02
   1.17250000E+03   5.00000000E-01   5.00000000E-01  -5.90947086E+00  -2.00697473E+00  -6.93703911E+00  -4.86111343E+00  -2.40291075E+01   4.08339480E-02   3.63485409E-01  -4.60700892E-02  -2.02756249E+00  -3.03295025E-09  -2.05450734E+00  -6.64771099E-01  -2.25808601E+00   1.41903210E+00  -3.30594036E+00  -2.90586632E+00   8.70812925E-01   9.05037536E-02
   1.20750000E+03   5.00000000E-01   5.00000000E-01  -5.86656783E+00  -1.99185100E+00  -6.88574006E+00  -4.90037346E+00  -2.38964899E+01   4.00126136E-02   3.64238699E-01  -5.12189656E-02  -2.03768654E+00  -3.31119189E-09  -2.03416952E+00  -6.66226649E-01  -2.22459651E+00   1.41820096E+00  -3.30592088E+00  -2.94546694E+00   8.64588078E-01   9.93374080E-02
   1.24250000E+03   5.00000000E-01   5.00000000E-01  -5.82416305E+00  -1.97692424E+00  -6.83505942E+00  -4.93996442E+00  -2.37657568E+01   3.91987040E-02   3.64996419E-01  -5.63415925E-02  -2.04871513E+00  -3.60777890E-09  -2.01395111E+00  -6.67403317E-01  -2.19119785E+00   1.41723473E+00  -3.30610354E+00  -2.98616813E+00   8.58398893E-01   1.08057117E-01
   1.27750000E+03   5.00000000E-01   5.00000000E-01  -5.78224605E+00  -1.96219109E+00  -6.78498927E+00  -4.97987473E+00  -2.36368725E+01   3.83948342E-02   3.65760762E-01  -6.14450589E-02  -2.06060509E+00  -3.92303220E-09  -1.99385746E+00  -6.68316875E-01  -2.15789697E+00   1.41613258E+00  -3.30648764E+00  -3.02787135E+00   8.52242707E-01   1.16653167E-01
   1.31250000E+03   5.00000000E-01   5.00000000E-01  -5.74080444E+00  -1.94764750E+00  -6.73552703E+00  -5.02009011E+00  -2.35098057E+01   3.76032197E-02   3.66534457E-01  -6.65398192E-02  -2.07331766E+00  -4.25722952E-09  -1.97389945E+00  -6.68990692E-01  -2.12470860E+00   1.41489513E+00  -3.30707830E+00  -3.07048724E+00   8.46116303E-01   1.25110624E-01
   1.34750000E+03   5.00000000E-01   5.00000000E-01  -5.69982407E+00  -1.93328876E+00  -6.68667499E+00  -5.06059361E+00  -2.33845286E+01   3.68257142E-02   3.67320696E-01  -7.16394065E-02  -2.08681775E+00  -4.61051281E-09  -1.95409311E+00  -6.69455174E-01  -2.09165475E+00   1.41352434E+00  -3.30788595E+00  -3.11393445E+00   8.40015963E-01   1.33409734E-01
   1.38250000E+03   5.00000000E-01   5.00000000E-01  -5.65928923E+00  -1.91910963E+00  -6.63843979E+00  -5.10136581E+00  -2.32610166E+01   3.60638457E-02   3.68123056E-01  -7.67600272E-02  -2.10107341E+00  -4.98288516E-09  -1.93445907E+00  -6.69746925E-01  -2.05876391E+00   1.41202337E+00  -3.30892572E+00  -3.15813872E+00   8.33937537E-01   1.41526515E-01
   1.41750000E+03   5.00000000E-01   5.00000000E-01  -5.61918296E+00  -1.90510436E+00  -6.59083173E+00  -5.14238520E+00  -2.31392483E+01   3.53188501E-02   3.68945393E-01  -8.19200635E-02  -2.11605541E+00  -5.37412129E-09  -1.91502176E+00  -6.69907693E-01  -2.02607002E+00   1.41039646E+00  -3.31021669E+00  -3.20303203E+00   8.27876540E-01   1.49433504E-01
   1.45250000E+03   5.00000000E-01   5.00000000E-01  -5.57948735E+00  -1.89126685E+00  -6.54386402E+00  -5.18362861E+00  -2.30192041E+01   3.45917033E-02   3.69791739E-01  -8.71395194E-02  -2.13173690E+00  -5.78368428E-09  -1.89580859E+00  -6.69983168E-01  -1.99361128E+00   1.40864865E+00  -3.31178100E+00  -3.24855196E+00   8.21828246E-01   1.57100604E-01
   1.48750000E+03   5.00000000E-01   5.00000000E-01  -5.54018387E+00  -1.87759075E+00  -6.49755199E+00  -5.22507184E+00  -2.29008668E+01   3.38831501E-02   3.70666191E-01  -9.24394552E-02  -2.14809323E+00  -6.21065453E-09  -1.87684902E+00  -6.70021721E-01  -1.96142892E+00   1.40678566E+00  -3.31364302E+00  -3.29464119E+00   8.15787793E-01   1.64495957E-01
   1.52250000E+03   5.00000000E-01   5.00000000E-01  -5.50125373E+00  -1.86406960E+00  -6.45191238E+00  -5.26669020E+00  -2.27842203E+01   3.31937324E-02   3.71572803E-01  -9.78414271E-02  -2.16510177E+00  -6.65358170E-09  -1.85817369E+00  -6.70073147E-01  -1.92956592E+00   1.40481358E+00  -3.31582848E+00  -3.34124699E+00   8.09750280E-01   1.71586820E-01
   1.55750000E+03   5.00000000E-01   5.00000000E-01  -5.46267822E+00  -1.85069692E+00  -6.40696255E+00  -5.30845913E+00  -2.26692500E+01   3.25238146E-02   3.72515479E-01  -1.03366937E-01  -2.18274183E+00  -7.11031187E-09  -1.83981351E+00  -6.70187434E-01  -1.89806577E+00   1.40273872E+00  -3.31836360E+00  -3.38832091E+00   8.03710871E-01   1.78340431E-01
   1.59250000E+03   5.00000000E-01   5.00000000E-01  -5.42443899E+00  -1.83746633E+00  -6.36271983E+00  -5.35035475E+00  -2.25559419E+01   3.18736069E-02   3.73497866E-01  -1.09036924E-01  -2.20099455E+00  -7.57786102E-09  -1.82179885E+00  -6.70413643E-01  -1.86697136E+00   1.40056738E+00  -3.32127440E+00  -3.43581845E+00   7.97664887E-01   1.84724805E-01
   1.62750000E+03   5.00000000E-01   5.00000000E-01  -5.38651834E+00  -1.82437163E+00  -6.31920096E+00  -5.39235426E+00  -2.24442828E+01   3.12431865E-02   3.74523261E-01  -1.14871314E-01  -2.21984289E+00  -8.05217435E-09  -1.80415882E+00  -6.70798925E-01  -1.83632402E+00   1.39830576E+00  -3.32458594E+00  -3.48369883E+00   7.91607901E-01   1.90709449E-01
   1.66250000E+03   5.00000000E-01   5.00000000E-01  -5.34889943E+00  -1.81140690E+00  -6.27642161E+00  -5.43443637E+00  -2.23342595E+01   3.06325171E-02   3.75594521E-01  -1.20888638E-01  -2.23927152E+00  -8.52785780E-09  -1.78692071E+00  -6.71387713E-01  -1.80616267E+00   1.39595975E+00  -3.32832185E+00  -3.53192471E+00   7.85535818E-01   1.96265961E-01
   1.69750000E+03   5.00000000E-01   5.00000000E-01  -5.31156643E+00  -1.79856651E+00  -6.23439598E+00  -5.47658147E+00  -2.22258592E+01   3.00414662E-02   3.76714001E-01  -1.27105739E-01  -2.25926677E+00  -8.99785402E-09  -1.77010947E+00  -6.72221114E-01  -1.77652327E+00   1.39353496E+00  -3.33250385E+00  -3.58046202E+00   7.79444934E-01   2.01368493E-01
   1.73250000E+03   5.00000000E-01   5.00000000E-01  -5.27450466E+00  -1.78584517E+00  -6.19313663E+00  -5.51877185E+00  -2.21190692E+01   2.94698207E-02   3.77883515E-01  -1.33537621E-01  -2.27981650E+00  -9.45326654E-09  -1.75374751E+00  -6.73336547E-01  -1.74743842E+00   1.39103656E+00  -3.33715152E+00  -3.62927972E+00   7.73331973E-01   2.05994004E-01
   1.76750000E+03   5.00000000E-01   5.00000000E-01  -5.23770059E+00  -1.77323795E+00  -6.15265433E+00  -5.56099182E+00  -2.20138767E+01   2.89173003E-02   3.79104322E-01  -1.40197372E-01  -2.30091000E+00  -9.88269621E-09  -1.73785455E+00  -6.74767573E-01  -1.71893719E+00   1.38846931E+00  -3.34228216E+00  -3.67834958E+00   7.67194095E-01   2.10122388E-01
   1.80250000E+03   5.00000000E-01   5.00000000E-01  -5.20114189E+00  -1.76074028E+00  -6.11295805E+00  -5.60322761E+00  -2.19102689E+01   2.83835703E-02   3.80377119E-01  -1.47096143E-01  -2.32253781E+00  -1.02720160E-08  -1.72244755E+00  -6.76543851E-01  -1.69104504E+00   1.38583750E+00  -3.34791076E+00  -3.72764599E+00   7.61028909E-01   2.13736514E-01
   1.83750000E+03   5.00000000E-01   5.00000000E-01  -5.16481739E+00  -1.74834796E+00  -6.07405494E+00  -5.64546738E+00  -2.18082329E+01   2.78682516E-02   3.81702046E-01  -1.54243186E-01  -2.34469159E+00  -1.06037385E-08  -1.70754078E+00  -6.78691227E-01  -1.66378396E+00   1.38314503E+00  -3.35405002E+00  -3.77714571E+00   7.54834468E-01   2.16822177E-01
   1.87250000E+03   5.00000000E-01   5.00000000E-01  -5.12871701E+00  -1.73605708E+00  -6.03595047E+00  -5.68770096E+00  -2.17077559E+01   2.73709302E-02   3.83078710E-01  -1.61645929E-01  -2.36736395E+00  -1.08563553E-08  -1.69314598E+00  -6.81231927E-01  -1.63717259E+00   1.38039542E+00  -3.36071045E+00  -3.82682771E+00   7.48609260E-01   2.19367975E-01
   1.90750000E+03   5.00000000E-01   5.00000000E-01  -5.09283170E+00  -1.72386406E+00  -5.99864854E+00  -5.72991976E+00  -2.16088249E+01   2.68911651E-02   3.84506212E-01  -1.69310104E-01  -2.39054824E+00  -1.10036829E-08  -1.67927250E+00  -6.84184831E-01  -1.61122653E+00   1.37759186E+00  -3.36790053E+00  -3.87667293E+00   7.42352184E-01   2.21365125E-01
   1.94250000E+03   5.00000000E-01   5.00000000E-01  -5.05715333E+00  -1.71176558E+00  -5.96215163E+00  -5.77211652E+00  -2.15114271E+01   2.64284956E-02   3.85983190E-01  -1.77239898E-01  -2.41423845E+00  -1.10139742E-08  -1.66592758E+00  -6.87565795E-01  -1.58595865E+00   1.37473728E+00  -3.37562689E+00  -3.92666410E+00   7.36062519E-01   2.22807219E-01
   1.97750000E+03   5.00000000E-01   5.00000000E-01  -5.02167461E+00  -1.69975853E+00  -5.92646100E+00  -5.81428509E+00  -2.14155495E+01   2.59824468E-02   3.87507869E-01  -1.85438124E-01  -2.43842895E+00  -1.08489832E-08  -1.65311656E+00  -6.91388022E-01  -1.56137941E+00   1.37183438E+00  -3.38389456E+00  -3.97678556E+00   7.29739890E-01   2.23689965E-01
   2.01250000E+03   5.00000000E-01   5.00000000E-01  -4.98638896E+00  -1.68784002E+00  -5.89157688E+00  -5.85642023E+00  -2.13211793E+01   2.55525346E-02   3.89078110E-01  -1.93906405E-01  -2.46311438E+00  -1.04626690E-08  -1.64084320E+00  -6.95662433E-01  -1.53749722E+00   1.36888570E+00  -3.39270714E+00  -4.02702303E+00   7.23384234E-01   2.24010909E-01
   2.04750000E+03   5.00000000E-01   5.00000000E-01  -4.95129039E+00  -1.67600734E+00  -5.85749865E+00  -5.89851745E+00  -2.12283039E+01   2.51382703E-02   3.90691486E-01  -2.02645433E-01  -2.48828949E+00  -9.79995537E-09  -1.62910998E+00  -7.00398133E-01  -1.51431891E+00   1.36589362E+00  -3.40206715E+00  -4.07736345E+00   7.16995720E-01   2.23769033E-01
   2.08250000E+03   5.00000000E-01   5.00000000E-01  -4.91637340E+00  -1.66425788E+00  -5.82422509E+00  -5.94057282E+00  -2.11369106E+01   2.47391638E-02   3.92345334E-01  -2.11655147E-01  -2.51394895E+00  -8.79504593E-09  -1.61791835E+00  -7.05602763E-01  -1.49184997E+00   1.36286044E+00  -3.41197622E+00  -4.12779479E+00   7.10574723E-01   2.22964492E-01
   2.11750000E+03   5.00000000E-01   5.00000000E-01  -4.88163291E+00  -1.65258918E+00  -5.79175441E+00  -5.98258272E+00  -2.10469870E+01   2.43547263E-02   3.94036784E-01  -2.20934823E-01  -2.54008728E+00  -7.36962801E-09  -1.60726894E+00  -7.11282751E-01  -1.47009488E+00   1.35978841E+00  -3.42243518E+00  -4.17830596E+00   7.04121800E-01   2.21598458E-01
   2.15250000E+03   5.00000000E-01   5.00000000E-01  -4.84706417E+00  -1.64099882E+00  -5.76008440E+00  -6.02454361E+00  -2.09585206E+01   2.39844732E-02   3.95762781E-01  -2.30483131E-01  -2.56669877E+00  -5.43069723E-09  -1.59716167E+00  -7.17443499E-01  -1.44905729E+00   1.35667984E+00  -3.43344424E+00  -4.22888664E+00   6.97637698E-01   2.19673020E-01
   2.18750000E+03   5.00000000E-01   5.00000000E-01  -4.81266275E+00  -1.62948444E+00  -5.72921244E+00  -6.06645176E+00  -2.08714992E+01   2.36279253E-02   3.97520107E-01  -2.40298174E-01  -2.59377738E+00  -2.86811351E-09  -1.58759586E+00  -7.24089533E-01  -1.42874016E+00   1.35353712E+00  -3.44500293E+00  -4.27952725E+00   6.91123350E-01   2.17191111E-01
   2.22250000E+03   5.00000000E-01   5.00000000E-01  -4.77842445E+00  -1.61804372E+00  -5.69913561E+00  -6.10830313E+00  -2.07859104E+01   2.32846111E-02   3.99305402E-01  -2.50377518E-01  -2.62131672E+00   4.48350549E-10  -1.57857032E+00  -7.31224625E-01  -1.40914593E+00   1.35036280E+00  -3.45711027E+00  -4.33021882E+00   6.84579877E-01   2.14156448E-01
   2.25750000E+03   5.00000000E-01   5.00000000E-01  -4.74434528E+00  -1.60667433E+00  -5.66985066E+00  -6.15009313E+00  -2.07017416E+01   2.29540673E-02   4.01115185E-01  -2.60718214E-01  -2.64930997E+00   4.67229457E-09  -1.57008342E+00  -7.38851892E-01  -1.39027662E+00   1.34715967E+00  -3.46976469E+00  -4.38095293E+00   6.78008590E-01   2.10573487E-01
   2.29250000E+03   5.00000000E-01   5.00000000E-01  -4.71042144E+00  -1.59537391E+00  -5.64135401E+00  -6.19181648E+00  -2.06189802E+01   2.26358401E-02   4.02945873E-01  -2.71316813E-01  -2.67774988E+00   9.98465262E-09  -1.56213311E+00  -7.46973850E-01  -1.37213385E+00   1.34393073E+00  -3.48296411E+00  -4.43172163E+00   6.71410991E-01   2.06447397E-01
   2.32750000E+03   5.00000000E-01   5.00000000E-01  -4.67664928E+00  -1.58414011E+00  -5.61364182E+00  -6.23346711E+00  -2.05376133E+01   2.23294855E-02   4.04793805E-01  -2.82169353E-01  -2.70662874E+00   1.65981846E-08  -1.55471698E+00  -7.55592444E-01  -1.35471892E+00   1.34067928E+00  -3.49670587E+00  -4.48251742E+00   6.64788781E-01   2.01784063E-01
   2.36250000E+03   5.00000000E-01   5.00000000E-01  -4.64302532E+00  -1.57297053E+00  -5.58670985E+00  -6.27503798E+00  -2.04576276E+01   2.20345702E-02   4.06655251E-01  -2.93271340E-01  -2.73593834E+00   2.47625172E-08  -1.54783221E+00  -7.64709032E-01  -1.33803280E+00   1.33740893E+00  -3.51098674E+00  -4.53333317E+00   6.58143862E-01   1.96590108E-01
   2.39750000E+03   5.00000000E-01   5.00000000E-01  -4.60954621E+00  -1.56186274E+00  -5.56055347E+00  -6.31652105E+00  -2.03790094E+01   2.17506712E-02   4.08526433E-01  -3.04617709E-01  -2.76567001E+00   3.47702319E-08  -1.54147557E+00  -7.74324341E-01  -1.32207605E+00   1.33412361E+00  -3.52580281E+00  -4.58416209E+00   6.51478358E-01   1.90872951E-01
   2.43250000E+03   5.00000000E-01   5.00000000E-01  -4.57620876E+00  -1.55081424E+00  -5.53516759E+00  -6.35790713E+00  -2.03017443E+01   2.14773764E-02   4.10403536E-01  -3.16202777E-01  -2.79581459E+00   4.69634829E-08  -1.53564334E+00  -7.84438391E-01  -1.30684878E+00   1.33082761E+00  -3.54114942E+00  -4.63499772E+00   6.44794616E-01   1.84640865E-01
   2.46750000E+03   5.00000000E-01   5.00000000E-01  -4.54300994E+00  -1.53982254E+00  -5.51054654E+00  -6.39918589E+00  -2.02258174E+01   2.12142843E-02   4.12282726E-01  -3.28020194E-01  -2.82636245E+00   6.17419431E-08  -1.53033128E+00  -7.95050401E-01  -1.29235053E+00   1.32752558E+00  -3.55702109E+00  -4.68583386E+00   6.38095225E-01   1.77903056E-01
   2.50250000E+03   5.00000000E-01   5.00000000E-01  -4.50994694E+00  -1.52888506E+00  -5.48668401E+00  -6.44034576E+00  -2.01512129E+01   2.09610042E-02   4.14160164E-01  -3.40062891E-01  -2.85730351E+00   7.95715585E-08  -1.52553450E+00  -8.06158692E-01  -1.27858020E+00   1.32422251E+00  -3.57341140E+00  -4.73666462E+00   6.31383018E-01   1.70669732E-01
   2.53750000E+03   5.00000000E-01   5.00000000E-01  -4.47701709E+00  -1.51799923E+00  -5.46357295E+00  -6.48137399E+00  -2.00779141E+01   2.07171558E-02   4.16032034E-01  -3.52323061E-01  -2.88862724E+00   1.00994878E-07  -1.52124746E+00  -8.17760592E-01  -1.26553590E+00   1.32092375E+00  -3.59031290E+00  -4.78748431E+00   6.24661074E-01   1.62952146E-01
   2.57250000E+03   5.00000000E-01   5.00000000E-01  -4.44421797E+00  -1.50716245E+00  -5.44120553E+00  -6.52225665E+00  -2.00059032E+01   2.04823691E-02   4.17894564E-01  -3.64792141E-01  -2.92032267E+00   1.26642477E-07  -1.51746389E+00  -8.29852368E-01  -1.25321486E+00   1.31763495E+00  -3.60771709E+00  -4.83828750E+00   6.17932709E-01   1.54762617E-01
   2.60750000E+03   5.00000000E-01   5.00000000E-01  -4.41154736E+00  -1.49637210E+00  -5.41957304E+00  -6.56297874E+00  -1.99351615E+01   2.02562841E-02   4.19744058E-01  -3.77460850E-01  -2.95237846E+00   1.57246433E-07  -1.51417677E+00  -8.42429189E-01  -1.24161338E+00   1.31436199E+00  -3.62561434E+00  -4.88906893E+00   6.11201449E-01   1.46114500E-01
   2.64250000E+03   5.00000000E-01   5.00000000E-01  -4.37900327E+00  -1.48562559E+00  -5.39866588E+00  -6.60352428E+00  -1.98656692E+01   2.00385508E-02   4.21576934E-01  -3.90319251E-01  -2.98478286E+00   1.93655486E-07  -1.51137836E+00  -8.55485139E-01  -1.23072675E+00   1.31111099E+00  -3.64399393E+00  -4.93982351E+00   6.04471003E-01   1.37022095E-01
   2.67750000E+03   5.00000000E-01   5.00000000E-01  -4.34658390E+00  -1.47492038E+00  -5.37847360E+00  -6.64387646E+00  -1.97974053E+01   1.98288284E-02   4.23389764E-01  -4.03356862E-01  -3.01752380E+00   2.36852423E-07  -1.50906023E+00  -8.69013291E-01  -1.22054929E+00   1.30788814E+00  -3.66284410E+00  -4.99054631E+00   5.97745207E-01   1.27500507E-01
   2.71250000E+03   5.00000000E-01   5.00000000E-01  -4.31428765E+00  -1.46425395E+00  -5.35898489E+00  -6.68401779E+00  -1.97303477E+01   1.96267855E-02   4.25179311E-01  -4.16562809E-01  -3.05058887E+00   2.87974221E-07  -1.50721340E+00  -8.83005840E-01  -1.21107440E+00   1.30469968E+00  -3.68215213E+00  -5.04123249E+00   5.91027966E-01   1.17565433E-01
   2.74750000E+03   5.00000000E-01   5.00000000E-01  -4.28211305E+00  -1.45362387E+00  -5.34018769E+00  -6.72393033E+00  -1.96644734E+01   1.94320991E-02   4.26942571E-01  -4.29926013E-01  -3.08396541E+00   3.48334977E-07  -1.50582845E+00  -8.97454294E-01  -1.20229469E+00   1.30155176E+00  -3.70190454E+00  -5.09187727E+00   5.84323183E-01   1.07232905E-01
   2.78250000E+03   5.00000000E-01   5.00000000E-01  -4.25005875E+00  -1.44302780E+00  -5.32206929E+00  -6.76359579E+00  -1.95997584E+01   1.92444547E-02   4.28676810E-01  -4.43435399E-01  -3.11764051E+00   4.19452425E-07  -1.50489571E+00  -9.12349710E-01  -1.19420211E+00   1.29845037E+00  -3.72208721E+00  -5.14247592E+00   5.77634683E-01   9.65189987E-02
   2.81750000E+03   5.00000000E-01   5.00000000E-01  -4.21812346E+00  -1.43246350E+00  -5.30461643E+00  -6.80299574E+00  -1.95361778E+01   1.90635454E-02   4.30379592E-01  -4.57080115E-01  -3.15160105E+00   5.03077815E-07  -1.50440546E+00  -9.27682962E-01  -1.18678817E+00   1.29540122E+00  -3.74268563E+00  -5.19302370E+00   5.70966137E-01   8.54395176E-02
   2.85250000E+03   5.00000000E-01   5.00000000E-01  -4.18630592E+00  -1.42192884E+00  -5.28781547E+00  -6.84211174E+00  -1.94737061E+01   1.88890715E-02   4.32048800E-01  -4.70849757E-01  -3.18583379E+00   6.01230868E-07  -1.50434814E+00  -9.43445019E-01  -1.18004418E+00   1.29240967E+00  -3.76368506E+00  -5.24351585E+00   5.64320990E-01   7.40096831E-02