 TITLE = "Mineral Saturation State" 
VARIABLES = "X"          "Y"              "Z"            "Forsterite"     "Fayalite"       "Brucite"        "Lizardite"      "Chrysotile"     "Hematite"       "Magnetite(am)"  "Saponite(Ca)"   "Saponite(K)"    "Saponite(Mg)"   "Saponite(Na)"   "Beidellite(Ca)" "Beidellite(K)"  "Beidellite(Mg)" "Beidellite(Na)" "Enstatite(alph" "Ferrosilite(al" "Anorthite"      "Albite(low)"    "Clinochlore"    "Sudoite"        "Montmor(MgCa)"  "Montmor(MgK)"   "Montmor(MgMg)"  "Montmor(MgNa)"  "Kaolinite"      "Tremolite"      "Pargasite"      "Anhydrite"      "Epidote"        "Scolecite"      "Pyrite"         "FeS(am)"        "Quartz(alpha)"  "Titanite"       "Rutile"         "Barite"         "Fluorite"       "Spessartine(al" "Andradite"      "Celestite"      "Zincite"        "Chalcocyanite"  "Chalcocite(alp"
 ZONE I=         200 , J=           1 , K=           1  F=POINT
   8.75000000E+00   5.00000000E-01   5.00000000E-01  -6.88580846E+00  -2.80986959E+00  -4.67040179E+00  -1.01133550E+00  -1.12882381E+00   1.04712244E-01  -5.20543843E+00   8.38086802E-01   2.66878841E+00   1.49901988E+00   2.54745015E+00  -7.05004141E+00  -5.90201474E+00  -6.38910561E+00  -5.96215782E+00  -2.43546263E+00  -1.45964883E+00  -1.20750692E+01  -1.73127085E+00   2.70342504E-02  -7.58802411E+00  -4.44033767E+00  -3.05139759E+00  -3.81293138E+00  -3.20054828E+00  -5.66160360E+00  -4.18893393E+00  -3.28374912E+01  -9.80212997E-01  -1.07091715E+01  -6.84302667E+00  -5.54128446E+01  -1.94402576E+01   7.29511250E-01  -6.13631756E-01   1.49089954E-01   2.99916687E-01  -5.69956974E-01  -2.64315893E+01  -6.69056229E+00  -1.70346958E+00  -3.54375716E+00  -1.59370403E+01   1.52718461E+00
   2.62500000E+01   5.00000000E-01   5.00000000E-01  -7.45924719E+00  -2.76501756E+00  -5.04290101E+00  -1.86161311E+00  -1.97706677E+00   1.04712244E-01  -5.24327438E+00   4.51842909E-01   2.25547552E+00   1.11218528E+00   2.14329067E+00  -4.74739171E+00  -3.61946970E+00  -4.08705223E+00  -3.67056563E+00  -2.64503036E+00  -1.35554255E+00  -1.05905381E+01  -6.97210149E-01   2.66968831E-02  -4.90622709E+00  -2.73126313E+00  -1.36370848E+00  -2.10426288E+00  -1.50334076E+00  -3.83691568E+00  -5.60182833E+00  -3.20011612E+01  -9.62253163E-01  -9.47374891E+00  -5.24241015E+00  -5.62934643E+01  -2.02920877E+01   8.90910700E-01  -8.30805122E-01   1.63709516E-01   1.38275358E-01  -5.87191078E-01  -2.46708693E+01  -7.36992853E+00  -1.71042514E+00  -3.68435081E+00  -1.58703395E+01   1.17490151E-01
   4.37500000E+01   5.00000000E-01   5.00000000E-01  -7.64283748E+00  -2.62773424E+00  -5.19113523E+00  -2.15583220E+00  -2.26927308E+00   1.04712244E-01  -5.20576379E+00   4.01448276E-01   2.18129458E+00   1.06124122E+00   2.07815679E+00  -3.72921280E+00  -2.62116921E+00  -3.06942792E+00  -2.66332394E+00  -2.68898540E+00  -1.23457387E+00  -9.94622836E+00  -2.00311671E-01   2.63122239E-02  -3.84469026E+00  -1.92837590E+00  -5.81967198E-01  -1.30174264E+00  -7.12191741E-01  -3.07634883E+00  -5.91344769E+00  -3.14797746E+01  -9.44078181E-01  -8.91275825E+00  -4.54038564E+00  -5.54376076E+01  -1.98853986E+01   9.93619120E-01  -8.83539689E-01   1.77125078E-01   5.15512268E-02  -6.03596688E-01  -2.37342578E+01  -7.55254972E+00  -1.71684444E+00  -3.69667492E+00  -1.58038641E+01   1.17490151E-01
   6.12500000E+01   5.00000000E-01   5.00000000E-01  -7.70354920E+00  -2.48218519E+00  -5.25836817E+00  -2.28467617E+00  -2.39612577E+00   1.04712244E-01  -5.14476579E+00   4.16110736E-01   2.17307280E+00   1.07538571E+00   2.07887571E+00  -3.17900878E+00  -2.09062180E+00  -2.51974667E+00  -2.12394134E+00  -2.69103337E+00  -1.12904562E+00  -9.58874441E+00   7.52288982E-02   2.56987674E-02  -3.31630967E+00  -1.48078509E+00  -1.55287449E-01  -8.54489569E-01  -2.76214911E-01  -2.68330070E+00  -5.97007400E+00  -3.11008369E+01  -9.25687809E-01  -8.59645760E+00  -4.16400092E+00  -5.47251677E+01  -1.95384916E+01   1.05719604E+00  -8.95510318E-01   1.89313922E-01   8.58835127E-03  -6.19202739E-01  -2.31143245E+01  -7.60937906E+00  -1.72270294E+00  -3.67112243E+00  -1.57376116E+01   1.17490151E-01
   7.87500000E+01   5.00000000E-01   5.00000000E-01  -7.72621220E+00  -2.35890651E+00  -5.29336117E+00  -2.36905067E+00  -2.47853014E+00   1.04712244E-01  -5.08189243E+00   4.22723515E-01   2.15703957E+00   1.08150560E+00   2.07167779E+00  -2.81762902E+00  -1.74868101E+00  -2.15886421E+00  -1.77327040E+00  -2.68724229E+00  -1.04787832E+00  -9.33546131E+00   2.46104459E-01   2.50698044E-02  -2.96861709E+00  -1.19163032E+00   1.13186747E-01  -5.65649628E-01   1.44672192E-03  -2.42642171E+00  -6.01143119E+00  -3.07961088E+01  -9.07087875E-01  -8.37825857E+00  -3.91793934E+00  -5.40802207E+01  -1.92242105E+01   1.09433622E+00  -9.02724419E-01   2.00303512E-01  -1.24443594E-02  -6.34040122E-01  -2.26439717E+01  -7.64851804E+00  -1.72800719E+00  -3.63786279E+00  -1.56715859E+01   1.17490151E-01
   9.62500000E+01   5.00000000E-01   5.00000000E-01  -7.72898194E+00  -2.25328497E+00  -5.30978313E+00  -2.43160490E+00  -2.53913505E+00   1.04712244E-01  -5.01942591E+00   4.18523975E-01   2.13038306E+00   1.07683460E+00   2.05375291E+00  -2.56584401E+00  -1.51612136E+00  -1.90755472E+00  -1.53208391E+00  -2.68209825E+00  -9.84173111E-01  -9.14068653E+00   3.53523490E-01   2.45819169E-02  -2.71946627E+00  -9.97138736E-01   2.87224066E-01  -3.71453539E-01   1.84563643E-01  -2.24637115E+00  -6.05971197E+00  -3.05378323E+01  -8.88287232E-01  -8.21693909E+00  -3.74732711E+00  -5.34776706E+01  -1.89311474E+01   1.11422385E+00  -9.09617066E-01   2.10127653E-01  -2.31789956E-02  -6.48140145E-01  -2.22648011E+01  -7.68337023E+00  -1.73277401E+00  -3.60183212E+00  -1.56057935E+01   1.17490151E-01
   1.13750000E+02   5.00000000E-01   5.00000000E-01  -7.71621469E+00  -2.15778646E+00  -5.31309521E+00  -2.47559735E+00  -2.58119867E+00   1.04712243E-01  -4.95687984E+00   4.11535823E-01   2.10117710E+00   1.06939301E+00   2.03317704E+00  -2.39153436E+00  -1.36082729E+00  -1.73370222E+00  -1.36826416E+00  -2.67449593E+00  -9.30878895E-01  -8.98902672E+00   4.18313648E-01   2.43090004E-02  -2.54468996E+00  -8.67433696E-01   3.96697092E-01  -2.42028034E-01   3.03010653E-01  -2.12231396E+00  -6.10058821E+00  -3.03105081E+01  -8.69295882E-01  -8.09598623E+00  -3.63020603E+00  -5.29060688E+01  -1.86533339E+01   1.12342670E+00  -9.15034376E-01   2.18819033E-01  -2.91382966E-02  -6.61533238E-01  -2.19493090E+01  -7.71056903E+00  -1.73702257E+00  -3.56367959E+00  -1.55402419E+01   1.17490151E-01
   1.31250000E+02   5.00000000E-01   5.00000000E-01  -7.69152955E+00  -2.06891846E+00  -5.30731033E+00  -2.50426034E+00  -2.60795297E+00   1.04712243E-01  -4.89470900E+00   4.06325122E-01   2.07401346E+00   1.06374346E+00   2.01454407E+00  -2.27123999E+00  -1.25934247E+00  -1.61385010E+00  -1.25835264E+00  -2.66404115E+00  -8.84045077E-01  -8.86881547E+00   4.55120749E-01   2.42318291E-02  -2.42541568E+00  -7.81248417E-01   4.62868699E-01  -1.56109727E-01   3.78052849E-01  -2.03859052E+00  -6.12686804E+00  -3.01034634E+01  -8.50124055E-01  -8.00332472E+00  -3.55050422E+00  -5.23578073E+01  -1.83871921E+01   1.12635315E+00  -9.18533742E-01   2.26409835E-01  -3.28547060E-02  -6.74248597E-01  -2.16796106E+01  -7.72888025E+00  -1.74077183E+00  -3.52447985E+00  -1.54749385E+01   1.17490151E-01
   1.48750000E+02   5.00000000E-01   5.00000000E-01  -7.65828111E+00  -1.98545037E+00  -5.29549945E+00  -2.52123901E+00  -2.62304278E+00   1.04712243E-01  -4.83368947E+00   4.04534649E-01   2.05053932E+00   1.06152570E+00   1.99950314E+00  -2.18714462E+00  -1.19385422E+00  -1.53018511E+00  -1.18453471E+00  -2.65101714E+00  -8.41661748E-01  -8.77058012E+00   4.74254639E-01   2.42886089E-02  -2.34553393E+00  -7.23226113E-01   5.01091872E-01  -9.83448157E-02   4.25045262E-01  -1.98267454E+00  -6.13772589E+00  -2.99094674E+01  -8.30781906E-01  -7.92975291E+00  -3.49596294E+00  -5.18274804E+01  -1.81304062E+01   1.12579215E+00  -9.20352222E-01   2.32932442E-01  -3.54921694E-02  -6.86314231E-01  -2.14432388E+01  -7.73910933E+00  -1.74404026E+00  -3.48537820E+00  -1.54098901E+01   1.17490151E-01
   1.66250000E+02   5.00000000E-01   5.00000000E-01  -7.61911472E+00  -1.90691804E+00  -5.27982289E+00  -2.52967061E+00  -2.62960505E+00   1.04712243E-01  -4.77442454E+00   4.06416320E-01   2.03100153E+00   1.06298923E+00   1.98830286E+00  -2.12677206E+00  -1.15188990E+00  -1.47023351E+00  -1.13433594E+00  -2.63590864E+00  -8.02658312E-01  -8.68738216E+00   4.82533351E-01   2.44179854E-02  -2.29288399E+00  -6.83004872E-01   5.21724828E-01  -5.83737599E-02   4.54347934E-01  -1.94548102E+00  -6.13486547E+00  -2.97238773E+01  -8.11279407E-01  -7.86880822E+00  -3.45796977E+00  -5.13113258E+01  -1.78813959E+01   1.12342046E+00  -9.20931471E-01   2.38419595E-01  -3.75953031E-02  -6.97756998E-01  -2.12315653E+01  -7.74267666E+00  -1.74684585E+00  -3.44720565E+00  -1.53451036E+01   1.17490151E-01
   1.83750000E+02   5.00000000E-01   5.00000000E-01  -7.57596232E+00  -1.83305749E+00  -5.26172637E+00  -2.53198004E+00  -2.63006437E+00   1.04712243E-01  -4.71725970E+00   4.11627737E-01   2.01504907E+00   1.06778978E+00   1.98059378E+00  -2.08179320E+00  -1.12512379E+00  -1.42566805E+00  -1.09942904E+00  -2.61920155E+00  -7.66422177E-01  -8.61441198E+00   4.84278583E-01   2.45757974E-02  -2.25884057E+00  -6.53891246E-01   5.31457417E-01  -2.95049387E-02   4.72652363E-01  -1.92076531E+00  -6.12072076E+00  -2.95438217E+01  -7.91626312E-01  -7.81616130E+00  -3.43075697E+00  -5.08067478E+01  -1.76390352E+01   1.12019902E+00  -9.20717207E-01   2.42904294E-01  -3.94249228E-02  -7.08602620E-01  -2.10386221E+01  -7.74101566E+00  -1.74920616E+00  -3.41045284E+00  -1.52805851E+01   1.17490151E-01
   2.01250000E+02   5.00000000E-01   5.00000000E-01  -7.53019103E+00  -1.76363149E+00  -5.24215435E+00  -2.52996379E+00  -2.62621692E+00   1.04712243E-01  -4.66233504E+00   4.19613326E-01   2.00211682E+00   1.07537034E+00   1.97581223E+00  -2.04677174E+00  -1.10812296E+00  -1.39105390E+00  -1.07437960E+00  -2.60131825E+00  -7.32573016E-01  -8.54841228E+00   4.82160192E-01   2.47357006E-02  -2.23744020E+00  -6.31663314E-01   5.34508046E-01  -7.51784677E-03   4.84178473E-01  -1.90433393E+00  -6.09772339E+00  -2.93675670E+01  -7.71832142E-01  -7.76897392E+00  -3.41054687E+00  -5.03119446E+01  -1.74024926E+01   1.11665101E+00  -9.20093894E-01   2.46419629E-01  -4.11088954E-02  -7.18875697E-01  -2.08602396E+01  -7.73537630E+00  -1.75113823E+00  -3.37535560E+00  -1.52163407E+01   1.17490151E-01
   2.18750000E+02   5.00000000E-01   5.00000000E-01  -7.48275468E+00  -1.69838746E+00  -5.22171637E+00  -2.52492656E+00  -2.61936711E+00   1.04712243E-01  -4.60965469E+00   4.29788383E-01   1.99161086E+00   1.08514503E+00   1.97336565E+00  -2.01819778E+00  -1.09738075E+00  -1.36288235E+00  -1.05567960E+00  -2.58260279E+00  -7.00851132E-01  -8.48719795E+00   4.77798678E-01   2.48843363E-02  -2.22460362E+00  -6.13695539E-01   5.33498828E-01   1.02119323E-02   4.91549804E-01  -1.89339889E+00  -6.06801631E+00  -2.91940847E+01  -7.51906173E-01  -7.72540332E+00  -3.39489056E+00  -4.98256466E+01  -1.71711346E+01   1.11304299E+00  -9.19369387E-01   2.48998593E-01  -4.27111999E-02  -7.28599719E-01  -2.06934576E+01  -7.72677851E+00  -1.75265865E+00  -3.34198370E+00  -1.51523761E+01   1.17490151E-01
   2.36250000E+02   5.00000000E-01   5.00000000E-01  -7.43431310E+00  -1.63705553E+00  -5.20080275E+00  -2.51780420E+00  -2.61045051E+00   1.04712243E-01  -4.55914194E+00   4.41623003E-01   1.98299288E+00   1.09658299E+00   1.97271704E+00  -1.99381966E+00  -1.09064869E+00  -1.33890270E+00  -1.04107927E+00  -2.56332445E+00  -6.71060451E-01  -8.42930993E+00   4.72162523E-01   2.50163224E-02  -2.21755656E+00  -5.98372484E-01   5.30041853E-01   2.52989120E-02   4.96379812E-01  -1.88611633E+00  -6.03336581E+00  -2.90227740E+01  -7.31857424E-01  -7.68425911E+00  -3.38220966E+00  -4.93469408E+01  -1.69444658E+01   1.10949700E+00  -9.18778172E-01   2.50673903E-01  -4.42643063E-02  -7.37797097E-01  -2.05361349E+01  -7.71602134E+00  -1.75378349E+00  -3.31030706E+00  -1.50886965E+01   1.17490152E-01
   2.53750000E+02   5.00000000E-01   5.00000000E-01  -7.38531854E+00  -1.57935641E+00  -5.17966120E+00  -2.50925999E+00  -2.60013012E+00   1.04712243E-01  -4.51067657E+00   4.54674127E-01   1.97581242E+00   1.10924035E+00   1.97341721E+00  -1.97220286E+00  -1.08649538E+00  -1.31768128E+00  -1.02914593E+00  -2.54368760E+00  -6.43039060E-01  -8.37377867E+00   4.65820061E-01   2.51306269E-02  -2.21442436E+00  -5.84711963E-01   5.25116041E-01   3.87244960E-02   4.99648739E-01  -1.88127375E+00  -5.99516290E+00  -2.88532890E+01  -7.11694644E-01  -7.64477627E+00  -3.37149306E+00  -4.88751558E+01  -1.67220901E+01   1.10605734E+00  -9.18491002E-01   2.51477846E-01  -4.57847496E-02  -7.46489200E-01  -2.03866919E+01  -7.70371140E+00  -1.75452827E+00  -3.28023984E+00  -1.50253070E+01   1.17490152E-01
   2.71250000E+02   5.00000000E-01   5.00000000E-01  -7.33607680E+00  -1.52500987E+00  -5.15844661E+00  -2.49975693E+00  -2.58886866E+00   1.04712243E-01  -4.46411835E+00   4.68591168E-01   1.96971241E+00   1.12276579E+00   1.97511031E+00  -1.95244388E+00  -1.08402033E+00  -1.29831529E+00  -1.01897785E+00  -2.52384293E+00  -6.16644144E-01  -8.31996553E+00   4.59096011E-01   2.52283226E-02  -2.21395366E+00  -5.72127279E-01   5.19304897E-01   5.10746951E-02   5.01941384E-01  -1.87808184E+00  -5.95446281E+00  -2.86854338E+01  -6.91426301E-01  -7.60646747E+00  -3.36209961E+00  -4.84097860E+01  -1.65036840E+01   1.10272917E+00  -9.18626040E-01   2.51442126E-01  -4.72808164E-02  -7.54696386E-01  -2.02439412E+01  -7.69029582E+00  -1.75490798E+00  -3.25166804E+00  -1.49622122E+01   1.17490152E-01
   2.88750000E+02   5.00000000E-01   5.00000000E-01  -7.28679003E+00  -1.47374137E+00  -5.13725335E+00  -2.48961125E+00  -2.57698210E+00   1.04712243E-01  -4.41932120E+00   4.83109070E-01   1.96442217E+00   1.13689363E+00   1.97752689E+00  -1.93398523E+00  -1.08266902E+00  -1.28024792E+00  -1.01001930E+00  -2.50389809E+00  -5.91744523E-01  -8.26745646E+00   4.52167835E-01   2.53113277E-02  -2.21532177E+00  -5.60278245E-01   5.12945489E-01   6.26890826E-02   5.03596085E-01  -1.87603603E+00  -5.91203761E+00  -2.85190998E+01  -6.71060572E-01  -7.56902728E+00  -3.35363032E+00  -4.79504415E+01  -1.62889794E+01   1.09950012E+00  -9.19259465E-01   2.50597742E-01  -4.87564356E-02  -7.62438047E-01  -2.01069732E+01  -7.67609375E+00  -1.75493709E+00  -3.22446617E+00  -1.48994166E+01   1.17490152E-01
   3.06250000E+02   5.00000000E-01   5.00000000E-01  -7.23758714E+00  -1.42528695E+00  -5.11613623E+00  -2.47903217E+00  -2.56467938E+00   1.04712243E-01  -4.37614141E+00   4.98036135E-01   1.95974511E+00   1.15143155E+00   1.98047154E+00  -1.91649523E+00  -1.08211267E+00  -1.26314808E+00  -1.00194029E+00  -2.48392704E+00  -5.68217251E-01  -8.21599022E+00   4.45124910E-01   2.53817514E-02  -2.21800491E+00  -5.48977717E-01   5.06221916E-01   7.37542445E-02   5.04798186E-01  -1.87482385E+00  -5.86842995E+00  -2.83542273E+01  -6.50605332E-01  -7.53226964E+00  -3.34584486E+00  -4.74968145E+01  -1.60777502E+01   1.09635190E+00  -9.20434865E-01   2.48974873E-01  -5.02131943E-02  -7.69732642E-01  -1.99750787E+01  -7.66132414E+00  -1.75462948E+00  -3.19850716E+00  -1.48369240E+01   1.17490152E-01
   3.23750000E+02   5.00000000E-01   5.00000000E-01  -7.18854569E+00  -1.37939667E+00  -5.09512438E+00  -2.46815178E+00  -2.55209235E+00   1.04712243E-01  -4.33444233E+00   5.13240257E-01   1.95554481E+00   1.16624693E+00   1.98380903E+00  -1.89978854E+00  -1.08216877E+00  -1.24683101E+00  -9.94557145E-01  -2.46397810E+00  -5.45946415E-01  -8.16540894E+00   4.38004999E-01   2.54415856E-02  -2.22168533E+00  -5.38132411E-01   4.99224487E-01   8.43629543E-02   5.05639228E-01  -1.87426163E+00  -5.82400311E+00  -2.81907838E+01  -6.30068153E-01  -7.49608639E+00  -3.33860630E+00  -4.70486563E+01  -1.58698037E+01   1.09326618E+00  -9.22171281E-01   2.46602787E-01  -5.16514070E-02  -7.76597744E-01  -1.98476957E+01  -7.64612960E+00  -1.75399850E+00  -3.17366803E+00  -1.47747381E+01   1.17490152E-01
   3.41250000E+02   5.00000000E-01   5.00000000E-01  -7.13970812E+00  -1.33583728E+00  -5.07423069E+00  -2.45704812E+00  -2.53929878E+00   1.04712242E-01  -4.29409696E+00   5.28635250E-01   1.95173124E+00   1.18125307E+00   1.98745048E+00  -1.88377243E+00  -1.08274734E+00  -1.23120445E+00  -9.87778713E-01  -2.44408072E+00  -5.24823168E-01  -8.11562311E+00   4.30816959E-01   2.54925811E-02  -2.22618396E+00  -5.27704761E-01   4.91987855E-01   9.45523030E-02   5.06155080E-01  -1.87425011E+00  -5.77898612E+00  -2.80287500E+01  -6.09456294E-01  -7.46041905E+00  -3.33184344E+00  -4.66057612E+01  -1.56649734E+01   1.09022721E+00  -9.24470072E-01   2.43509754E-01  -5.30706936E-02  -7.83050070E-01  -1.97243702E+01  -7.63059679E+00  -1.75305695E+00  -3.14983331E+00  -1.47128623E+01   1.17490152E-01
   3.58750000E+02   5.00000000E-01   5.00000000E-01  -7.09109415E+00  -1.29439440E+00  -5.05345840E+00  -2.44576333E+00  -2.52634058E+00   1.04712242E-01  -4.25498949E+00   5.44168076E-01   1.94824786E+00   1.19639646E+00   1.99134050E+00  -1.86840926E+00  -1.08381345E+00  -1.21623128E+00  -9.81568922E-01  -2.42425130E+00  -5.04746415E-01  -8.06658606E+00   4.23555086E-01   2.55362191E-02  -2.23141024E+00  -5.17687800E-01   4.84516147E-01   1.04328820E-01   5.06351065E-01  -1.87474239E+00  -5.73351341E+00  -2.78681129E+01  -5.88776701E-01  -7.42523905E+00  -3.32552456E+00  -4.61679544E+01  -1.54631142E+01   1.08722261E+00  -9.27320744E-01   2.39722988E-01  -5.44702981E-02  -7.89105524E-01  -1.96047294E+01  -7.61477366E+00  -1.75181708E+00  -3.12689697E+00  -1.46512995E+01   1.17490152E-01
   3.76250000E+02   5.00000000E-01   5.00000000E-01  -7.04271018E+00  -1.25487419E+00  -5.03280570E+00  -2.43431791E+00  -2.51323800E+00   1.04712242E-01  -4.21701603E+00   5.59807573E-01   1.94506026E+00   1.21164550E+00   1.99544582E+00  -1.85369014E+00  -1.08536085E+00  -1.20190304E+00  -9.75920379E-01  -2.40449797E+00  -4.85623737E-01  -8.01827519E+00   4.16208190E-01   2.55737277E-02  -2.23732441E+00  -5.08088455E-01   4.76799654E-01   1.13685172E-01   5.06218657E-01  -1.87572048E+00  -5.68765854E+00  -2.77088603E+01  -5.68036009E-01  -7.39053373E+00  -3.31963877E+00  -4.57350842E+01  -1.52640984E+01   1.08424319E+00  -9.30705789E-01   2.35268590E-01  -5.58492662E-02  -7.94779232E-01  -1.94884600E+01  -7.59868382E+00  -1.75029061E+00  -3.10476353E+00  -1.45900523E+01   1.17490152E-01
   3.93750000E+02   5.00000000E-01   5.00000000E-01  -6.99455617E+00  -1.21710420E+00  -5.01226894E+00  -2.42272128E+00  -2.50000022E+00   1.04712242E-01  -4.18008475E+00   5.75535401E-01   1.94214704E+00   1.22698146E+00   1.99974614E+00  -1.83961708E+00  -1.08739412E+00  -1.18822215E+00  -9.70836552E-01  -2.38482434E+00  -4.67372081E-01  -7.97067875E+00   4.08765060E-01   2.56061185E-02  -2.24391064E+00  -4.98916926E-01   4.68825463E-01   1.22610784E-01   5.05746108E-01  -1.87717899E+00  -5.64146068E+00  -2.75509794E+01  -5.47240541E-01  -7.35629686E+00  -3.31418335E+00  -4.53070152E+01  -1.50678126E+01   1.08128241E+00  -9.34604425E-01   2.30171508E-01  -5.72065462E-02  -8.00085574E-01  -1.93752938E+01  -7.58233767E+00  -1.74848873E+00  -3.08334848E+00  -1.45291231E+01   1.17490151E-01
   4.11250000E+02   5.00000000E-01   5.00000000E-01  -6.94662991E+00  -1.18093291E+00  -4.99184436E+00  -2.41097846E+00  -2.48663203E+00   1.04712242E-01  -4.14411532E+00   5.91339849E-01   1.93949351E+00   1.24239224E+00   2.00422790E+00  -1.82619269E+00  -1.08991839E+00  -1.17519160E+00  -9.66321468E-01  -2.36523188E+00  -4.49917855E-01  -7.92378794E+00   4.01217191E-01   2.56342280E-02  -2.25116042E+00  -4.90180956E-01   4.60583172E-01   1.31097568E-01   5.04924169E-01  -1.87911538E+00  -5.59494238E+00  -2.73944552E+01  -5.26396310E-01  -7.32252314E+00  -3.30915649E+00  -4.48836244E+01  -1.48741556E+01   1.07833577E+00  -9.38995059E-01   2.24455514E-01  -5.85410464E-02  -8.05038221E-01  -1.92649971E+01  -7.56573967E+00  -1.74642211E+00  -3.06257788E+00  -1.44685137E+01   1.17490151E-01
   4.28750000E+02   5.00000000E-01   5.00000000E-01  -6.89892887E+00  -1.14622785E+00  -4.97152888E+00  -2.39909315E+00  -2.47313690E+00   1.04712242E-01  -4.10903777E+00   6.07212702E-01   1.93708862E+00   1.25786929E+00   2.00888111E+00  -1.81341634E+00  -1.09293549E+00  -1.16281112E+00  -9.62375867E-01  -2.34572114E+00  -4.33196232E-01  -7.87759357E+00   3.93559427E-01   2.56587581E-02  -2.25906564E+00  -4.81884060E-01   4.52066670E-01   1.39141689E-01   5.03747862E-01  -1.88152597E+00  -5.54811829E+00  -2.72392707E+01  -5.05509027E-01  -7.28920607E+00  -3.30455443E+00  -4.44647987E+01  -1.46830361E+01   1.07540027E+00  -9.43856485E-01   2.18143182E-01  -5.98516689E-02  -8.09650167E-01  -1.91573633E+01  -7.54889191E+00  -1.74410090E+00  -3.04238738E+00  -1.44082260E+01   1.17490151E-01
   4.46250000E+02   5.00000000E-01   5.00000000E-01  -6.85145024E+00  -1.11287268E+00  -4.95131988E+00  -2.38706793E+00  -2.45951719E+00   1.04712242E-01  -4.07479085E+00   6.23148597E-01   1.93492421E+00   1.27340694E+00   2.01369869E+00  -1.80128486E+00  -1.09644467E+00  -1.15107785E+00  -9.58997915E-01  -2.32629193E+00  -4.17149835E-01  -7.83208630E+00   3.85789276E-01   2.56803078E-02  -2.26761852E+00  -4.74026409E-01   4.43273251E-01   1.46742694E-01   5.02215601E-01  -1.88440626E+00  -5.50099664E+00  -2.70854073E+01  -4.84584106E-01  -7.25633833E+00  -3.30037200E+00  -4.40504332E+01  -1.44943715E+01   1.07247417E+00  -9.49168066E-01   2.11255882E-01  -6.11373289E-02  -8.13933759E-01  -1.90522091E+01  -7.53179459E+00  -1.74153477E+00  -3.02272063E+00  -1.43482611E+01   1.17490151E-01
   4.63750000E+02   5.00000000E-01   5.00000000E-01  -6.80419014E+00  -1.08076400E+00  -4.93121479E+00  -2.37490316E+00  -2.44577303E+00   1.04712241E-01  -4.04132033E+00   6.39145632E-01   1.93299569E+00   1.28900299E+00   2.01867712E+00  -1.78979518E+00  -1.10044520E+00  -1.13998901E+00  -9.56185836E-01  -2.30694297E+00  -4.01727217E-01  -7.78725827E+00   3.77905771E-01   2.56993963E-02  -2.27681492E+00  -4.66606711E-01   4.34201722E-01   1.53901613E-01   5.00327297E-01  -1.88775307E+00  -5.45357722E+00  -2.69328457E+01  -4.63626667E-01  -7.22391313E+00  -3.29660441E+00  -4.36404306E+01  -1.43080867E+01   1.06955680E+00  -9.54909422E-01   2.03813774E-01  -6.23969668E-02  -8.17900724E-01  -1.89493718E+01  -7.51444511E+00  -1.73873291E+00  -3.00352776E+00  -1.42886202E+01   1.17490151E-01
   4.81250000E+02   5.00000000E-01   5.00000000E-01  -6.75714305E+00  -1.04980876E+00  -4.91121070E+00  -2.36259612E+00  -2.43190149E+00   1.04712241E-01  -4.00857774E+00   6.55205889E-01   1.93130254E+00   1.30465928E+00   2.02381692E+00  -1.77894631E+00  -1.10493839E+00  -1.12954388E+00  -9.53939891E-01  -2.28767164E+00  -3.86881611E-01  -7.74310439E+00   3.69908640E-01   2.57164772E-02  -2.28665677E+00  -4.59623616E-01   4.24851007E-01   1.60619570E-01   4.98082960E-01  -1.89156617E+00  -5.40584964E+00  -2.67815662E+01  -4.42641547E-01  -7.19192523E+00  -3.29324862E+00  -4.32347008E+01  -1.41241129E+01   1.06664846E+00  -9.61060165E-01   1.95835821E-01  -6.36295551E-02  -8.21562205E-01  -1.88487067E+01  -7.49683730E+00  -1.73570404E+00  -2.98476404E+00  -1.42293040E+01   1.17490151E-01
   4.98750000E+02   5.00000000E-01   5.00000000E-01  -6.71030199E+00  -1.01992281E+00  -4.89130444E+00  -2.35014138E+00  -2.41789695E+00   1.04712241E-01  -3.97651949E+00   6.71334951E-01   1.92984784E+00   1.32038117E+00   2.02912219E+00  -1.76873911E+00  -1.10992735E+00  -1.11974355E+00  -9.52262166E-01  -2.26847418E+00  -3.72570281E-01  -7.69962209E+00   3.61798199E-01   2.57319453E-02  -2.29715139E+00  -4.53075751E-01   4.15220108E-01   1.66897740E-01   4.95482667E-01  -1.89584795E+00  -5.35779462E+00  -2.66315487E+01  -4.21633307E-01  -7.16037083E+00  -3.29030322E+00  -4.28331595E+01  -1.39423869E+01   1.06375035E+00  -9.67600052E-01   1.87339796E-01  -6.48341016E-02  -8.24928778E-01  -1.87500854E+01  -7.47896187E+00  -1.73245645E+00  -2.96638923E+00  -1.41703130E+01   1.17490150E-01
   5.16250000E+02   5.00000000E-01   5.00000000E-01  -6.66365961E+00  -9.91030670E-01  -4.87149301E+00  -2.33753257E+00  -2.40375280E+00   1.04712241E-01  -3.94510673E+00   6.87540225E-01   1.92863655E+00   1.33617586E+00   2.03459891E+00  -1.75917378E+00  -1.11541448E+00  -1.11058841E+00  -9.51154035E-01  -2.24934627E+00  -3.58754481E-01  -7.65680928E+00   3.53575956E-01   2.57461411E-02  -2.30830728E+00  -4.46960376E-01   4.05309443E-01   1.72738691E-01   4.92527892E-01  -1.90060099E+00  -5.30938873E+00  -2.64827729E+01  -4.00606241E-01  -7.12924622E+00  -3.28776659E+00  -4.24357274E+01  -1.37628505E+01   1.06086432E+00  -9.74509611E-01   1.78342305E-01  -6.60096509E-02  -8.28010488E-01  -1.86533918E+01  -7.46080842E+00  -1.72899800E+00  -2.94836730E+00  -1.41116474E+01   1.17490150E-01
   5.33750000E+02   5.00000000E-01   5.00000000E-01  -6.61720976E+00  -9.63065893E-01  -4.85177423E+00  -2.32476482E+00  -2.38946398E+00   1.04712241E-01  -3.91430535E+00   7.03828611E-01   1.92767318E+00   1.35205011E+00   2.04025258E+00  -1.75024614E+00  -1.12139776E+00  -1.10207446E+00  -9.50612484E-01  -2.23028403E+00  -3.45399783E-01  -7.61466145E+00   3.45245535E-01   2.57593549E-02  -2.32012809E+00  -4.41271390E-01   3.95122843E-01   1.78148384E-01   4.89223510E-01  -1.90582445E+00  -5.26061102E+00  -2.63352177E+01  -3.79564381E-01  -7.09854577E+00  -3.28563425E+00  -4.20423289E+01  -1.35854495E+01   1.05799263E+00  -9.81771020E-01   1.68858817E-01  -6.71552839E-02  -8.30816867E-01  -1.85585201E+01  -7.44236808E+00  -1.72533612E+00  -2.93066666E+00  -1.40533071E+01   1.17490148E-01
   5.51250000E+02   5.00000000E-01   5.00000000E-01  -6.57094885E+00  -9.35971407E-01  -4.83214727E+00  -2.31183690E+00  -2.37502907E+00   1.04712240E-01  -3.88408604E+00   7.20204447E-01   1.92695970E+00   1.36800810E+00   2.04608617E+00  -1.74194466E+00  -1.12786774E+00  -1.09419031E+00  -9.50627073E-01  -2.21128473E+00  -3.32476373E-01  -7.57316929E+00   3.36813371E-01   2.57718337E-02  -2.33260751E+00  -4.35997752E-01   3.84669131E-01   1.83137745E-01   4.85579372E-01  -1.91151122E+00  -5.21144884E+00  -2.61888610E+01  -3.58511513E-01  -7.06826031E+00  -3.28389673E+00  -4.16528910E+01  -1.34101338E+01   1.05513770E+00  -9.89368867E-01   1.58903694E-01  -6.82701169E-02  -8.33356961E-01  -1.84653717E+01  -7.42363595E+00  -1.72147787E+00  -2.91326013E+00  -1.39952918E+01   1.17490147E-01
   5.68750000E+02   5.00000000E-01   5.00000000E-01  -6.52487626E+00  -9.09699122E-01  -4.81261281E+00  -2.29875201E+00  -2.36045107E+00   1.04712240E-01  -3.85442402E+00   7.36668616E-01   1.92649466E+00   1.38405062E+00   2.05209921E+00  -1.73424965E+00  -1.13480680E+00  -1.08691638E+00  -9.51179203E-01  -2.19234717E+00  -3.19958947E-01  -7.53231790E+00   3.28288706E-01   2.57837917E-02  -2.34572769E+00  -4.31123263E-01   3.73962336E-01   1.87722885E-01   4.81610520E-01  -1.91764695E+00  -5.16190025E+00  -2.60436801E+01  -3.37451179E-01  -7.03837672E+00  -3.28253902E+00  -4.12673429E+01  -1.32368565E+01   1.05230191E+00  -9.97290421E-01   1.48490232E-01  -6.93533016E-02  -8.35639351E-01  -1.83738538E+01  -7.40461200E+00  -1.71742991E+00  -2.89612480E+00  -1.39376010E+01   1.17490144E-01
   5.86250000E+02   5.00000000E-01   5.00000000E-01  -6.47899363E+00  -8.84208492E-01  -4.79317261E+00  -2.28551672E+00  -2.34573635E+00   1.04712240E-01  -3.82529824E+00   7.53219257E-01   1.92627388E+00   1.40017571E+00   2.05828846E+00  -1.72713551E+00  -1.14219134E+00  -1.08022717E+00  -9.52244331E-01  -2.17347131E+00  -3.07826021E-01  -7.49208833E+00   3.19682717E-01   2.57954227E-02  -2.35946207E+00  -4.26628078E-01   3.63020179E-01   1.91923587E-01   4.77335674E-01  -1.92421202E+00  -5.11197177E+00  -2.58996518E+01  -3.16386692E-01  -7.00887908E+00  -3.28154208E+00  -4.08856156E+01  -1.30655735E+01   1.04948755E+00  -1.00552526E+00   1.37630704E-01  -7.04040255E-02  -8.37672177E-01  -1.82838795E+01  -7.38530013E+00  -1.71319855E+00  -2.87924123E+00  -1.38802338E+01   1.17490140E-01
   6.03750000E+02   5.00000000E-01   5.00000000E-01  -6.43330321E+00  -8.59464227E-01  -4.77382872E+00  -2.27213841E+00  -2.33089211E+00   1.04712239E-01  -3.79669031E+00   7.69853832E-01   1.92629256E+00   1.41638078E+00   2.06465008E+00  -1.72057538E+00  -1.14999646E+00  -1.07409587E+00  -9.53796603E-01  -2.15465742E+00  -2.96058761E-01  -7.45246087E+00   3.11006960E-01   2.58069122E-02  -2.37378214E+00  -4.22491598E-01   3.51861182E-01   1.95760412E-01   4.72774341E-01  -1.93118560E+00  -5.06167221E+00  -2.57567534E+01  -2.95321144E-01  -6.97975110E+00  -3.28088615E+00  -4.05076429E+01  -1.28962436E+01   1.04669686E+00  -1.01406437E+00   1.26336402E-01  -7.14215139E-02  -8.39463157E-01  -1.81953682E+01  -7.36570546E+00  -1.70878976E+00  -2.86259241E+00  -1.38231892E+01   1.17490133E-01
   6.21250000E+02   5.00000000E-01   5.00000000E-01  -6.38780571E+00  -8.35433710E-01  -4.75458251E+00  -2.25862207E+00  -2.31592315E+00   1.04712239E-01  -3.76858326E+00   7.86571795E-01   1.92654795E+00   1.43266526E+00   2.07118225E+00  -1.71454661E+00  -1.15820144E+00  -1.06849987E+00  -9.55814363E-01  -2.13590498E+00  -2.84639630E-01  -7.41341904E+00   3.02271617E-01   2.58184455E-02  -2.38866559E+00  -4.18695819E-01   3.40501320E-01   1.99251355E-01   4.67943466E-01  -1.93855071E+00  -5.01100485E+00  -2.56149635E+01  -2.74257415E-01  -6.95097906E+00  -3.28055462E+00  -4.01333619E+01  -1.27288279E+01   1.04393218E+00  -1.02289896E+00   1.14617688E-01  -7.24050330E-02  -8.41019610E-01  -1.81082466E+01  -7.34583113E+00  -1.70420920E+00  -2.84616251E+00  -1.37664661E+01   1.17490123E-01