 TITLE = "Mineral Saturation State" 
VARIABLES = "X"          "Y"              "Z"            "Forsterite"     "Enstatite(alph" "Anorthite"      "Ferropargasite" "Anhydrite"      "Clinochlore"    "Albite(low)"    "Fayalite"       "Epidote"        "Kaolinite"      "Muscovite(orde"
 ZONE I=          10 , J=           1 , K=           1  F=POINT
   1.75000000E+02   5.00000000E-01   5.00000000E-01  -5.24535102E+00  -1.23914394E+00  -1.07336698E+01  -1.46993273E+01  -1.00377396E-01   2.08260504E-02  -2.15034177E-02   1.16340245E-01  -5.18422439E-12  -5.48734720E+00  -5.00388886E+00
   5.25000000E+02   5.00000000E-01   5.00000000E-01  -5.08549925E+00  -1.28364731E+00  -9.55286751E+00  -1.35114714E+01  -3.64489922E-02   1.97087433E-02  -1.90502830E-02   1.32011092E-01  -2.24711440E-11  -4.58847887E+00  -4.10765848E+00
   8.75000000E+02   5.00000000E-01   5.00000000E-01  -4.90135082E+00  -1.29601848E+00  -8.58437177E+00  -1.25731780E+01  -2.63182480E-03   1.88722964E-02  -1.72271002E-02   1.44720434E-01  -7.22489557E-11  -3.86458292E+00  -3.39926619E+00
   1.22500000E+03   5.00000000E-01   5.00000000E-01  -4.70980266E+00  -1.29034188E+00  -7.77476725E+00  -1.18334147E+01   8.62915412E-03   1.86271223E-02  -1.66952171E-02   1.50032526E-01  -1.75195926E-10  -3.26372042E+00  -2.81655870E+00
   1.57500000E+03   5.00000000E-01   5.00000000E-01  -4.51414503E+00  -1.27132196E+00  -7.09491137E+00  -1.12965100E+01   1.01732557E-02   2.01455128E-02  -2.00090398E-02   1.28165920E-01  -2.97734944E-10  -2.76428088E+00  -2.33764852E+00
   1.92500000E+03   5.00000000E-01   5.00000000E-01  -4.32049052E+00  -1.24597300E+00  -6.51840455E+00  -1.10345781E+01   1.01902079E-02   2.57796516E-02  -3.26350381E-02   2.93029769E-02  -1.29244566E-10  -2.34294577E+00  -1.93654786E+00
   2.27500000E+03   5.00000000E-01   5.00000000E-01  -4.15493605E+00  -1.23324442E+00  -5.99612959E+00  -1.11517464E+01   1.06837882E-02   3.51627716E-02  -5.49046925E-02  -2.20691570E-01   1.38494086E-09  -1.93800789E+00  -1.53465223E+00
   2.62500000E+03   5.00000000E-01   5.00000000E-01  -4.03887202E+00  -1.24535721E+00  -5.48322867E+00  -1.16463088E+01   1.15481662E-02   4.23049585E-02  -7.30036351E-02  -6.45060238E-01   5.72502694E-09  -1.49443357E+00  -1.06255517E+00
   2.97500000E+03   5.00000000E-01   5.00000000E-01  -3.97363818E+00  -1.27766686E+00  -4.94407468E+00  -1.23405202E+01   1.27320825E-02   4.26026293E-02  -5.35598896E-02  -1.18803181E+00  -3.50846698E-08  -9.87346345E-01  -4.88321817E-01
   3.32500000E+03   5.00000000E-01   5.00000000E-01  -3.88100688E+00  -1.27312247E+00  -4.45760239E+00  -1.29898026E+01   1.25007052E-02   3.90862880E-02   2.81981137E-02  -1.70661758E+00   7.83815398E-08  -5.46856304E-01  -2.32216603E-03
