 TITLE = "Mineral Saturation State" 
VARIABLES = "X"          "Y"              "Z"            "Forsterite"     "Enstatite(alph" "Anorthite"      "Ferropargasite" "Anhydrite"      "Clinochlore"    "Albite(low)"    "Fayalite"       "Epidote"        "Kaolinite"      "Muscovite(orde" "Sudoite"        "Saponite(Mg)"   "Scolecite"      "Pyrite"         "Quartz(alpha)" 
 ZONE I=         100 , J=           1 , K=           1  F=POINT
   1.75000000E+01   5.00000000E-01   5.00000000E-01  -8.01785674E+00  -3.10271156E+00  -8.60173619E+00  -2.17884239E+01  -8.70287019E-01   1.33298215E+00  -4.41019797E-01  -4.48733982E+00   2.16409275E-09  -1.80174931E+00   1.15631503E+00  -6.10152262E-01   5.75494869E-05  -3.57869554E+00  -2.49594388E+02   5.28279796E-01
   5.25000000E+01   5.00000000E-01   5.00000000E-01  -8.06769618E+00  -3.08901199E+00  -8.10268337E+00  -2.00087987E+01  -2.16431082E-01   9.94195624E-01  -2.74287110E-01  -4.04989522E+00   1.33588205E-09  -1.68610164E+00   1.21613456E+00  -6.97546676E-01   5.97765974E-05  -3.05357457E+00  -2.46806390E+02   6.15009819E-01
   8.75000000E+01   5.00000000E-01   5.00000000E-01  -8.05418020E+00  -3.06919937E+00  -7.95422600E+00  -1.92369581E+01  -4.61752161E-02   8.18185485E-01  -2.14833863E-01  -3.77549326E+00   2.52175486E-11  -1.64547432E+00   1.19587316E+00  -7.67782259E-01   7.37042665E-05  -2.92972564E+00  -2.44505251E+02   6.50488943E-01
   1.22500000E+02   5.00000000E-01   5.00000000E-01  -8.01785217E+00  -3.04834751E+00  -7.87273616E+00  -1.87350166E+01  -7.05770013E-03   7.25783028E-01  -1.87557895E-01  -3.56725217E+00  -8.73726960E-11  -1.61203308E+00   1.17833131E+00  -7.86558046E-01   7.96041121E-05  -2.89313004E+00  -2.42389409E+02   6.65115178E-01
   1.57500000E+02   5.00000000E-01   5.00000000E-01  -7.97159064E+00  -3.02735896E+00  -7.80022217E+00  -1.83399572E+01   1.84596829E-03   6.75376255E-01  -1.74061349E-01  -3.40169219E+00  -1.19767927E-10  -1.57853383E+00   1.16737320E+00  -7.74442955E-01   8.28537612E-05  -2.87472761E+00  -2.40356708E+02   6.69964142E-01
   1.92500000E+02   5.00000000E-01   5.00000000E-01  -7.92040547E+00  -3.00647938E+00  -7.72646379E+00  -1.80038659E+01   3.92372448E-03   6.48366097E-01  -1.67681736E-01  -3.26576953E+00  -1.36425333E-10  -1.54422463E+00   1.16144266E+00  -7.44011008E-01   8.51611940E-05  -2.85978444E+00  -2.38375944E+02   6.69556553E-01
   2.27500000E+02   5.00000000E-01   5.00000000E-01  -7.86661178E+00  -2.98579002E+00  -7.65072519E+00  -1.77077654E+01   4.42715386E-03   6.35451006E-01  -1.65432886E-01  -3.15126376E+00  -1.50793041E-10  -1.50934305E+00   1.15897492E+00  -7.02387686E-01   8.70998474E-05  -2.84541696E+00  -2.36435373E+02   6.66047111E-01
   2.62500000E+02   5.00000000E-01   5.00000000E-01  -7.81142781E+00  -2.96532053E+00  -7.57376871E+00  -1.74418254E+01   4.56158235E-03   6.31471507E-01  -1.65775684E-01  -3.05284897E+00  -1.66845622E-10  -1.47421843E+00   1.15883994E+00  -6.53796914E-01   8.88901518E-05  -2.83123343E+00  -2.34529248E+02   6.60596766E-01
   2.97500000E+02   5.00000000E-01   5.00000000E-01  -7.75554821E+00  -2.94508128E+00  -7.49635537E+00  -1.71999323E+01   4.60204534E-03   6.33368225E-01  -1.67843544E-01  -2.96693391E+00  -1.85805071E-10  -1.43911740E+00   1.16026612E+00  -6.00843007E-01   9.06298643E-05  -2.81732571E+00  -2.32654136E+02   6.53881473E-01
   3.32500000E+02   5.00000000E-01   5.00000000E-01  -7.69938939E+00  -2.92507449E+00  -7.41903197E+00  -1.69778411E+01   4.61103021E-03   6.39246318E-01  -1.71118494E-01  -2.89099498E+00  -2.08097236E-10  -1.40423184E+00   1.16273268E+00  -5.45177680E-01   9.23666487E-05  -2.80383338E+00  -2.30807711E+02   6.46315146E-01
   3.67500000E+02   5.00000000E-01   5.00000000E-01  -7.64320919E+00  -2.90529864E+00  -7.34216147E+00  -1.67724096E+01   4.60318524E-03   6.47894489E-01  -1.75277012E-01  -2.82319246E+00  -2.34043044E-10  -1.36969408E+00   1.16588703E+00  -4.87872147E-01   9.41243782E-05  -2.79086324E+00  -2.28988264E+02   6.38160566E-01
   4.02500000E+02   5.00000000E-01   5.00000000E-01  -7.58717107E+00  -2.88575042E+00  -7.26597928E+00  -1.65812202E+01   4.58257011E-03   6.58517260E-01  -1.80109457E-01  -2.76214355E+00  -2.63833819E-10  -1.33559378E+00   1.16948783E+00  -4.29635584E-01   9.59139286E-05  -2.77848528E+00  -2.27194468E+02   6.29589673E-01
   4.37500000E+02   5.00000000E-01   5.00000000E-01  -7.53138077E+00  -2.86642567E+00  -7.19063711E+00  -1.64023654E+01   4.55092730E-03   6.70577867E-01  -1.85474999E-01  -2.70678306E+00  -2.97784318E-10  -1.30199112E+00   1.17336716E+00  -3.70947830E-01   9.77381156E-05  -2.76674175E+00  -2.25425250E+02   6.20718377E-01
   4.72500000E+02   5.00000000E-01   5.00000000E-01  -7.47590826E+00  -2.84731984E+00  -7.11623254E+00  -1.62343140E+01   4.50947819E-03   6.83702684E-01  -1.91275088E-01  -2.65627435E+00  -3.36295699E-10  -1.26892611E+00   1.17740577E+00  -3.12141851E-01   9.95941812E-05  -2.75565573E+00  -2.23679711E+02   6.11627516E-01
   5.07500000E+02   5.00000000E-01   5.00000000E-01  -7.42080125E+00  -2.82842828E+00  -7.04282831E+00  -1.60758217E+01   4.45930054E-03   6.97621589E-01  -1.97437228E-01  -2.60995013E+00  -3.79837012E-10  -1.23642483E+00   1.18151698E+00  -2.53455826E-01   1.01475166E-04  -2.74523746E+00  -2.21957080E+02   6.02375851E-01
   5.42500000E+02   5.00000000E-01   5.00000000E-01  -7.36609378E+00  -2.80974639E+00  -6.97046471E+00  -1.59258688E+01   4.40140239E-03   7.12130053E-01  -2.03904742E-01  -2.56727191E+00  -4.28914336E-10  -1.20450354E+00   1.18563627E+00  -1.95066409E-01   1.03370749E-04  -2.73548850E+00  -2.20256673E+02   5.93008313E-01
   5.77500000E+02   5.00000000E-01   5.00000000E-01  -7.31181170E+00  -2.79126973E+00  -6.89916762E+00  -1.57836145E+01   4.33673353E-03   7.27064754E-01  -2.10630168E-01  -2.52780120E+00  -4.84157184E-10  -1.17317131E+00   1.18971468E+00  -1.37110097E-01   1.05267823E-04  -2.72640441E+00  -2.18577877E+02   5.83561312E-01
   6.12500000E+02   5.00000000E-01   5.00000000E-01  -7.25797633E+00  -2.77299411E+00  -6.82895362E+00  -1.56483633E+01   4.26618547E-03   7.42287797E-01  -2.17570941E-01  -2.49117864E+00  -5.46355534E-10  -1.14243158E+00   1.19371455E+00  -7.96969714E-02   1.07150957E-04  -2.71797642E+00  -2.16920132E+02   5.74066185E-01
   6.47500000E+02   5.00000000E-01   5.00000000E-01  -7.20460671E+00  -2.75491560E+00  -6.75983318E+00  -1.55195387E+01   4.19059021E-03   7.57676519E-01  -2.24686551E-01  -2.45710854E+00  -6.16379593E-10  -1.11228320E+00   1.19760686E+00  -2.29194730E-02   1.09002803E-04  -2.71019244E+00  -2.15282920E+02   5.64551438E-01
   6.82500000E+02   5.00000000E-01   5.00000000E-01  -7.15171902E+00  -2.73702409E+00  -6.69194751E+00  -1.53968534E+01   4.11071950E-03   7.72975607E-01  -2.31982416E-01  -2.42534465E+00  -6.97037484E-10  -1.08285144E+00   1.20117208E+00   3.28615337E-02   1.10807916E-04  -2.70316157E+00  -2.13665749E+02   5.55055014E-01
   7.17500000E+02   5.00000000E-01   5.00000000E-01  -7.09933891E+00  -2.71931762E+00  -6.62528505E+00  -1.52799037E+01   4.02728574E-03   7.88072161E-01  -2.39400727E-01  -2.39569280E+00  -7.88403267E-10  -1.05410646E+00   1.20442308E+00   8.76001351E-02   1.12550703E-04  -2.69684691E+00  -2.12068156E+02   5.45608008E-01
   7.52500000E+02   5.00000000E-01   5.00000000E-01  -7.04749070E+00  -2.70179758E+00  -6.55976426E+00  -1.51682523E+01   3.94094272E-03   8.02935745E-01  -2.46864253E-01  -2.36799250E+00  -8.90890446E-10  -1.02595206E+00   1.20747476E+00   1.41400965E-01   1.14209147E-04  -2.69114954E+00  -2.10489705E+02   5.36233489E-01
   7.87500000E+02   5.00000000E-01   5.00000000E-01  -6.99619240E+00  -2.68446125E+00  -6.49538270E+00  -1.50616222E+01   3.85228722E-03   8.17469332E-01  -2.54331164E-01  -2.34210584E+00  -1.00701707E-09  -9.98372326E-01   1.21032304E+00   1.94211155E-01   1.15760345E-04  -2.68604771E+00  -2.08929979E+02   5.26956345E-01
   8.22500000E+02   5.00000000E-01   5.00000000E-01  -6.94546339E+00  -2.66730622E+00  -6.43213759E+00  -1.49597873E+01   3.76186163E-03   8.31574388E-01  -2.61757511E-01  -2.31792030E+00  -1.13889695E-09  -9.71349002E-01   1.21296716E+00   2.45980109E-01   1.17183769E-04  -2.68151852E+00  -2.07388581E+02   5.17802207E-01
   8.57500000E+02   5.00000000E-01   5.00000000E-01  -6.89532413E+00  -2.65033040E+00  -6.37002495E+00  -1.48625634E+01   3.67015645E-03   8.45152560E-01  -2.69097421E-01  -2.29534470E+00  -1.28895248E-09  -9.44860935E-01   1.21541062E+00   2.96661472E-01   1.18459614E-04  -2.67753737E+00  -2.05865127E+02   5.08797142E-01
   8.92500000E+02   5.00000000E-01   5.00000000E-01  -6.84579574E+00  -2.63353194E+00  -6.30903938E+00  -1.47698004E+01   3.57761312E-03   8.58107079E-01  -2.76303747E-01  -2.27430566E+00  -1.46002262E-09  -9.18884294E-01   1.21766103E+00   3.46213839E-01   1.19569227E-04  -2.67407807E+00  -2.04359245E+02   4.99967289E-01
   9.27500000E+02   5.00000000E-01   5.00000000E-01  -6.79689944E+00  -2.61690926E+00  -6.24917395E+00  -1.46813762E+01   3.48462699E-03   8.70344312E-01  -2.83328868E-01  -2.25474461E+00  -1.65546171E-09  -8.93392944E-01   1.21972981E+00   3.94601394E-01   1.20495528E-04  -2.67111318E+00  -2.02870577E+02   4.91338429E-01
   9.62500000E+02   5.00000000E-01   5.00000000E-01  -6.74865603E+00  -2.60046093E+00  -6.19042009E+00  -1.45971911E+01   3.39155037E-03   8.81775396E-01  -2.90125613E-01  -2.23661512E+00  -1.87907459E-09  -8.68358929E-01   1.22163161E+00   4.41794413E-01   1.21223430E-04  -2.66861437E+00  -2.01398777E+02   4.82935518E-01
   9.97500000E+02   5.00000000E-01   5.00000000E-01  -6.70108525E+00  -2.58418565E+00  -6.13276762E+00  -1.45171631E+01   3.29869560E-03   8.92317885E-01  -2.96648278E-01  -2.21988053E+00  -2.13540363E-09  -8.43753106E-01   1.22338375E+00   4.87769623E-01   1.21740208E-04  -2.66655297E+00  -1.99943510E+02   4.74782189E-01
   1.03250000E+03   5.00000000E-01   5.00000000E-01  -6.65420511E+00  -2.56808214E+00  -6.07620487E+00  -1.44412237E+01   3.20633806E-03   9.01897363E-01  -3.02853708E-01  -2.20451185E+00  -2.42964539E-09  -8.19545868E-01   1.22500533E+00   5.32510375E-01   1.22035845E-04  -2.66490054E+00  -1.98504450E+02   4.66900250E-01
   1.06750000E+03   5.00000000E-01   5.00000000E-01  -6.60803130E+00  -2.55214913E+00  -6.02071886E+00  -1.43693143E+01   3.11471913E-03   9.10448961E-01  -3.08702404E-01  -2.19048587E+00  -2.76789752E-09  -7.95707961E-01   1.22651631E+00   5.76006647E-01   1.22103330E-04  -2.66362958E+00  -1.97081286E+02   4.59309185E-01
   1.10250000E+03   5.00000000E-01   5.00000000E-01  -6.56257655E+00  -2.53638524E+00  -5.96629555E+00  -1.43013829E+01   3.02404899E-03   9.17918734E-01  -3.14159599E-01  -2.17778345E+00  -3.15716797E-09  -7.72211330E-01   1.22793653E+00   6.18254890E-01   1.21938891E-04  -2.66271427E+00  -1.95673715E+02   4.52025683E-01
   1.13750000E+03   5.00000000E-01   5.00000000E-01  -6.51785005E+00  -2.52078893E+00  -5.91292011E+00  -1.42373817E+01   2.93450936E-03   9.24264861E-01  -3.19196274E-01  -2.16638801E+00  -3.60556017E-09  -7.49029964E-01   1.22928468E+00   6.59257745E-01   1.21542189E-04  -2.66213114E+00  -1.94281446E+02   4.45063215E-01
   1.17250000E+03   5.00000000E-01   5.00000000E-01  -6.47385700E+00  -2.50535843E+00  -5.86057721E+00  -1.41772644E+01   2.84625606E-03   9.29458604E-01  -3.23790041E-01  -2.15628421E+00  -4.12247363E-09  -7.26140681E-01   1.23057737E+00   6.99023682E-01   1.20916418E-04  -2.66185972E+00  -1.92904199E+02   4.38431665E-01
   1.20750000E+03   5.00000000E-01   5.00000000E-01  -6.43059820E+00  -2.49009170E+00  -5.80925131E+00  -1.41209845E+01   2.75942139E-03   9.33485013E-01  -3.27925849E-01  -2.14745681E+00  -4.71869030E-09  -7.03523800E-01   1.23182829E+00   7.37566593E-01   1.20068347E-04  -2.66188315E+00  -1.91541706E+02   4.32137056E-01
   1.24250000E+03   5.00000000E-01   5.00000000E-01  -6.38806978E+00  -2.47498638E+00  -5.75892685E+00  -1.40684936E+01   2.67411642E-03   9.36343328E-01  -3.31596481E-01  -2.13988978E+00  -5.40659367E-09  -6.81163655E-01   1.23304757E+00   7.74905381E-01   1.19008256E-04  -2.66218850E+00  -1.90193708E+02   4.26181365E-01
   1.27750000E+03   5.00000000E-01   5.00000000E-01  -6.34626310E+00  -2.46003975E+00  -5.70958842E+00  -1.40197401E+01   2.59043305E-03   9.38047044E-01  -3.34802774E-01  -2.13356553E+00  -6.20043420E-09  -6.59048914E-01   1.23424137E+00   8.11063573E-01   1.17749789E-04  -2.66276705E+00  -1.88859958E+02   4.20562451E-01
   1.31250000E+03   5.00000000E-01   5.00000000E-01  -6.30516479E+00  -2.44524877E+00  -5.66122082E+00  -1.39746681E+01   2.50844597E-03   9.38623638E-01  -3.37553581E-01  -2.12846451E+00  -7.11645271E-09  -6.37172677E-01   1.23541172E+00   8.46068977E-01   1.16309696E-04  -2.66361430E+00  -1.87540220E+02   4.15274106E-01
   1.34750000E+03   5.00000000E-01   5.00000000E-01  -6.26475692E+00  -2.43061006E+00  -5.61380907E+00  -1.39332174E+01   2.42821441E-03   9.38113922E-01  -3.39865427E-01  -2.12456484E+00  -8.17321056E-09  -6.15532358E-01   1.23655668E+00   8.79953372E-01   1.14707470E-04  -2.66472977E+00  -1.86234265E+02   4.10306229E-01
   1.38250000E+03   5.00000000E-01   5.00000000E-01  -6.22501737E+00  -2.41611991E+00  -5.56733832E+00  -1.38953223E+01   2.34978382E-03   9.36571050E-01  -3.41761903E-01  -2.12184229E+00  -9.39185508E-09  -5.94129351E-01   1.23767062E+00   9.12752232E-01   1.12964898E-04  -2.66611667E+00  -1.84941878E+02   4.05645115E-01
   1.41750000E+03   5.00000000E-01   5.00000000E-01  -6.18592035E+00  -2.40177439E+00  -5.52179373E+00  -1.38609125E+01   2.27318730E-03   9.34059184E-01  -3.43272811E-01  -2.12027040E+00  -1.07963386E-08  -5.72968517E-01   1.23874482E+00   9.44504438E-01   1.11105510E-04  -2.66778136E+00  -1.83662850E+02   4.01273863E-01
   1.45250000E+03   5.00000000E-01   5.00000000E-01  -6.14743694E+00  -2.38756933E+00  -5.47716034E+00  -1.38299130E+01   2.19844707E-03   9.30651875E-01  -3.44433120E-01  -2.11982071E+00  -1.24138783E-08  -5.52057547E-01   1.23976819E+00   9.75251965E-01   1.09153986E-04  -2.66973270E+00  -1.82396979E+02   3.97172869E-01
   1.48750000E+03   5.00000000E-01   5.00000000E-01  -6.10953582E+00  -2.37350043E+00  -5.43342294E+00  -1.38022447E+01   2.12557562E-03   9.26430205E-01  -3.45281778E-01  -2.12046322E+00  -1.42752864E-08  -5.31406231E-01   1.24072798E+00   1.00503951E+00   1.07135506E-04  -2.67198138E+00  -1.81144074E+02   3.93320385E-01
   1.52250000E+03   5.00000000E-01   5.00000000E-01  -6.07218402E+00  -2.35956332E+00  -5.39056593E+00  -1.37778256E+01   2.05457695E-03   9.21480781E-01  -3.45860468E-01  -2.12216682E+00  -1.64153929E-08  -5.11025716E-01   1.24161064E+00   1.03391404E+00   1.05075119E-04  -2.67453917E+00  -1.79903946E+02   3.89693130E-01
   1.55750000E+03   5.00000000E-01   5.00000000E-01  -6.03534763E+00  -2.34575360E+00  -5.34857326E+00  -1.37565714E+01   1.98544759E-03   9.15893652E-01  -3.46212351E-01  -2.12489989E+00  -1.88735454E-08  -4.90927778E-01   1.24240250E+00   1.06192423E+00   1.02997121E-04  -2.67741828E+00  -1.78676416E+02   3.86266901E-01
   1.59250000E+03   5.00000000E-01   5.00000000E-01  -5.99899254E+00  -2.33206696E+00  -5.30742845E+00  -1.37383970E+01   1.91817757E-03   9.09760246E-01  -3.46380878E-01  -2.12863076E+00  -2.16941862E-08  -4.71124179E-01   1.24309044E+00   1.08911986E+00   1.00924517E-04  -2.68063074E+00  -1.77461307E+02   3.83017172E-01
   1.62750000E+03   5.00000000E-01   5.00000000E-01  -5.96308511E+00  -2.31849914E+00  -5.26711464E+00  -1.37232175E+01   1.85275130E-03   9.03171414E-01  -3.46408721E-01  -2.13332831E+00  -2.49274974E-08  -4.51626115E-01   1.24366237E+00   1.11555113E+00   9.88785529E-05  -2.68418787E+00  -1.76258447E+02   3.79919655E-01
   1.66250000E+03   5.00000000E-01   5.00000000E-01  -5.92759276E+00  -2.30504608E+00  -5.22761467E+00  -1.37109492E+01   1.78914839E-03   8.96215651E-01  -3.46336846E-01  -2.13896234E+00  -2.86301415E-08  -4.32443792E-01   1.24410760E+00   1.14126789E+00   9.68783694E-05  -2.68809994E+00  -1.75067667E+02   3.76950790E-01
   1.69750000E+03   5.00000000E-01   5.00000000E-01  -5.89248441E+00  -2.29170388E+00  -5.18891124E+00  -1.37015110E+01   1.72734443E-03   8.88977560E-01  -3.46203777E-01  -2.14550402E+00  -3.28661280E-08  -4.13586127E-01   1.24441701E+00   1.16631898E+00   9.49407629E-05  -2.69237589E+00  -1.73888801E+02   3.74088163E-01
   1.73250000E+03   5.00000000E-01   5.00000000E-01  -5.85773089E+00  -2.27846885E+00  -5.15098713E+00  -1.36948247E+01   1.66731160E-03   8.81536586E-01  -3.46045035E-01  -2.15292613E+00  -3.77078295E-08  -3.95060571E-01   1.24458317E+00   1.19075152E+00   9.30800669E-05  -2.69702317E+00  -1.72721685E+02   3.71310830E-01
   1.76750000E+03   5.00000000E-01   5.00000000E-01  -5.82330522E+00  -2.26533753E+00  -5.11382532E+00  -1.36908162E+01   1.60901934E-03   8.73966063E-01  -3.45892769E-01  -2.16120326E+00  -4.32370486E-08  -3.76873037E-01   1.24460025E+00   1.21461028E+00   9.13081409E-05  -2.70204768E+00  -1.71566157E+02   3.68599561E-01
   1.80250000E+03   5.00000000E-01   5.00000000E-01  -5.78918272E+00  -2.25230666E+00  -5.07740920E+00  -1.36894160E+01   1.55243487E-03   8.66332544E-01  -3.45775552E-01  -2.17031194E+00  -4.95463422E-08  -3.59027921E-01   1.24446391E+00   1.23793722E+00   8.96344523E-05  -2.70745383E+00  -1.70422057E+02   3.65936990E-01
   1.83750000E+03   5.00000000E-01   5.00000000E-01  -5.75534114E+00  -2.23937322E+00  -5.04172276E+00  -1.36905590E+01   1.49752372E-03   8.58695429E-01  -3.45718323E-01  -2.18023060E+00  -5.67404997E-08  -3.41528188E-01   1.24417113E+00   1.26077103E+00   8.80662356E-05  -2.71324462E+00  -1.69289226E+02   3.63307691E-01
   1.87250000E+03   5.00000000E-01   5.00000000E-01  -5.72176059E+00  -2.22653441E+00  -5.00675068E+00  -1.36941850E+01   1.44425014E-03   8.51106838E-01  -3.45742456E-01  -2.19093956E+00  -6.49381717E-08  -3.24375505E-01   1.24371994E+00   1.28314692E+00   8.66087053E-05  -2.71942173E+00  -1.68167507E+02   3.60698187E-01
   1.90750000E+03   5.00000000E-01   5.00000000E-01  -5.68842351E+00  -2.21378762E+00  -4.97247844E+00  -1.37002386E+01   1.39257750E-03   8.43611707E-01  -3.45865921E-01  -2.20242090E+00  -7.42737163E-08  -3.07570406E-01   1.24310928E+00   1.30509643E+00   8.52653071E-05  -2.72598572E+00  -1.67056743E+02   3.58096893E-01
   1.94250000E+03   5.00000000E-01   5.00000000E-01  -5.65531452E+00  -2.20113042E+00  -4.93889241E+00  -1.37086688E+01   1.34246865E-03   8.36248067E-01  -3.46103517E-01  -2.21465831E+00  -8.48993180E-08  -2.91112461E-01   1.24233867E+00   1.32664737E+00   8.40379862E-05  -2.73293616E+00  -1.65956779E+02   3.55494028E-01
   1.97750000E+03   5.00000000E-01   5.00000000E-01  -5.62242027E+00  -2.18856056E+00  -4.90597983E+00  -1.37194287E+01   1.29388617E-03   8.29047452E-01  -3.46467152E-01  -2.22763686E+00  -9.69873956E-08  -2.75000458E-01   1.24140809E+00   1.34782396E+00   8.29274597E-05  -2.74027179E+00  -1.64867462E+02   3.52881485E-01
   2.01250000E+03   5.00000000E-01   5.00000000E-01  -5.58972923E+00  -2.17607594E+00  -4.87372886E+00  -1.37324754E+01   1.24679264E-03   8.22035412E-01  -3.46966150E-01  -2.24134286E+00  -1.10733243E-07  -2.59232564E-01   1.24031776E+00   1.36864689E+00   8.19334809E-05  -2.74799068E+00  -1.63788639E+02   3.50252679E-01
   2.04750000E+03   5.00000000E-01   5.00000000E-01  -5.55723155E+00  -2.16367458E+00  -4.84212848E+00  -1.37477687E+01   1.20115087E-03   8.15232087E-01  -3.47607565E-01  -2.25576360E+00  -1.26357891E-07  -2.43806482E-01   1.23906800E+00   1.38913358E+00   8.10550873E-05  -2.75609031E+00  -1.62720160E+02   3.47602391E-01
   2.08250000E+03   5.00000000E-01   5.00000000E-01  -5.52491879E+00  -2.15135464E+00  -4.81116849E+00  -1.37652715E+01   1.15692404E-03   8.08652817E-01  -3.48396497E-01  -2.27088711E+00  -1.44111560E-07  -2.28719582E-01   1.23765912E+00   1.40929842E+00   8.02908255E-05  -2.76456774E+00  -1.61661876E+02   3.44926597E-01
   2.11750000E+03   5.00000000E-01   5.00000000E-01  -5.49278379E+00  -2.13911436E+00  -4.78083938E+00  -1.37849486E+01   1.11407584E-03   8.02308752E-01  -3.49336394E-01  -2.28670204E+00  -1.64277252E-07  -2.13969023E-01   1.23609132E+00   1.42915306E+00   7.96389518E-05  -2.77341965E+00  -1.60613640E+02   3.42222305E-01
   2.15250000E+03   5.00000000E-01   5.00000000E-01  -5.46082041E+00  -2.12695209E+00  -4.75113228E+00  -1.38067665E+01   1.07257060E-03   7.96207461E-01  -3.50429339E-01  -2.30319739E+00  -1.87174801E-07  -1.99551844E-01   1.23436461E+00   1.44870672E+00   7.90976054E-05  -2.78264242E+00  -1.59575307E+02   3.39487396E-01
   2.18750000E+03   5.00000000E-01   5.00000000E-01  -5.42902344E+00  -2.11486623E+00  -4.72203885E+00  -1.38306926E+01   1.03237337E-03   7.90353505E-01  -3.51676307E-01  -2.32036237E+00  -2.13165502E-07  -1.85465055E-01   1.23247879E+00   1.46796652E+00   7.86649569E-05  -2.79223222E+00  -1.58546735E+02   3.36720471E-01
   2.22250000E+03   5.00000000E-01   5.00000000E-01  -5.39738836E+00  -2.10285526E+00  -4.69355117E+00  -1.38566951E+01   9.93449939E-04   7.84748984E-01  -3.53077409E-01  -2.33818622E+00  -2.42656923E-07  -1.71705697E-01   1.23043340E+00   1.48693772E+00   7.83393310E-05  -2.80218499E+00  -1.57527782E+02   3.33920714E-01
   2.25750000E+03   5.00000000E-01   5.00000000E-01  -5.36591124E+00  -2.09091772E+00  -4.66566165E+00  -1.38847421E+01   9.55766927E-04   7.79394035E-01  -3.54632098E-01  -2.35665811E+00  -2.76108471E-07  -1.58270898E-01   1.22822773E+00   1.50562411E+00   7.81193067E-05  -2.81249651E+00  -1.56518310E+02   3.31087765E-01
   2.29250000E+03   5.00000000E-01   5.00000000E-01  -5.33458858E+00  -2.07905218E+00  -4.63836290E+00  -1.39148017E+01   9.19291772E-04   7.74287284E-01  -3.56339363E-01  -2.37576698E+00  -3.14037318E-07  -1.45157912E-01   1.22586078E+00   1.52402817E+00   7.80037976E-05  -2.82316238E+00  -1.55518184E+02   3.28221605E-01
   2.32750000E+03   5.00000000E-01   5.00000000E-01  -5.30341723E+00  -2.06725725E+00  -4.61164769E+00  -1.39468411E+01   8.83992741E-04   7.69426249E-01  -3.58197890E-01  -2.39550146E+00  -3.57024797E-07  -1.32364159E-01   1.22333130E+00   1.54215142E+00   7.79921135E-05  -2.83417806E+00  -1.54527271E+02   3.25322454E-01
   2.36250000E+03   5.00000000E-01   5.00000000E-01  -5.27239423E+00  -2.05553158E+00  -4.58550880E+00  -1.39808267E+01   8.49838928E-04   7.64807705E-01  -3.60206207E-01  -2.41584982E+00  -4.05723489E-07  -1.19887246E-01   1.22063777E+00   1.55999457E+00   7.80840063E-05  -2.84553887E+00  -1.53545440E+02   3.22390683E-01
   2.39750000E+03   5.00000000E-01   5.00000000E-01  -5.24151679E+00  -2.04387383E+00  -4.55993898E+00  -1.40167238E+01   8.16800229E-04   7.60427989E-01  -3.62362809E-01  -2.43679982E+00  -4.60864640E-07  -1.07724996E-01   1.21777842E+00   1.57755775E+00   7.82797021E-05  -2.85723994E+00  -1.52572562E+02   3.19426739E-01
   2.43250000E+03   5.00000000E-01   5.00000000E-01  -5.21078214E+00  -2.03228271E+00  -4.53493088E+00  -1.40544959E+01   7.84847320E-04   7.56283273E-01  -3.64666257E-01  -2.45833876E+00  -5.23266154E-07  -9.58754597E-02   1.21475122E+00   1.59484070E+00   7.85799215E-05  -2.86927625E+00  -1.51608514E+02   3.16431070E-01
   2.46750000E+03   5.00000000E-01   5.00000000E-01  -5.18018754E+00  -2.02075691E+00  -4.51047692E+00  -1.40941053E+01   7.53951619E-04   7.52369799E-01  -3.67115275E-01  -2.48045338E+00  -5.93840965E-07  -8.43369320E-02   1.21155393E+00   1.61184285E+00   7.89858885E-05  -2.88164262E+00  -1.50653174E+02   3.13404078E-01
   2.50250000E+03   5.00000000E-01   5.00000000E-01  -5.14973016E+00  -2.00929515E+00  -4.48656932E+00  -1.41355122E+01   7.24085250E-04   7.48684065E-01  -3.69708817E-01  -2.50312986E+00  -6.73605777E-07  -7.31079645E-02   1.20818406E+00   1.62856354E+00   7.94993303E-05  -2.89433366E+00  -1.49706421E+02   3.10346065E-01
   2.53750000E+03   5.00000000E-01   5.00000000E-01  -5.11940707E+00  -1.99789616E+00  -4.46319997E+00  -1.41786751E+01   6.95221004E-04   7.45222989E-01  -3.72446131E-01  -2.52635380E+00  -7.63690033E-07  -6.21873748E-02   1.20463891E+00   1.64500204E+00   8.01224685E-05  -2.90734380E+00  -1.48768141E+02   3.07257195E-01
   2.57250000E+03   5.00000000E-01   5.00000000E-01  -5.08921518E+00  -1.98655867E+00  -4.44036043E+00  -1.42235504E+01   6.67332289E-04   7.41984038E-01  -3.75326809E-01  -2.55011021E+00  -8.65345029E-07  -5.15742557E-02   1.20091554E+00   1.66115768E+00   8.08580011E-05  -2.92066723E+00  -1.47838219E+02   3.04137465E-01
   2.60750000E+03   5.00000000E-01   5.00000000E-01  -5.05915123E+00  -1.97528142E+00  -4.41804187E+00  -1.42700925E+01   6.40393090E-04   7.38965330E-01  -3.78350822E-01  -2.57438354E+00  -9.79952755E-07  -4.12679817E-02   1.19701083E+00   1.67702988E+00   8.17090777E-05  -2.93429795E+00  -1.46916547E+02   3.00986672E-01
   2.64250000E+03   5.00000000E-01   5.00000000E-01  -5.02921178E+00  -1.96406315E+00  -4.39623505E+00  -1.43182536E+01   6.14377926E-04   7.36165710E-01  -3.81518552E-01  -2.59915767E+00  -1.10903463E-06  -3.12682152E-02   1.19292142E+00   1.69261823E+00   8.26792659E-05  -2.94822970E+00  -1.46003016E+02   2.97804405E-01
   2.67750000E+03   5.00000000E-01   5.00000000E-01  -4.99939313E+00  -1.95290259E+00  -4.37493027E+00  -1.43679839E+01   5.89261803E-04   7.33584804E-01  -3.84830812E-01  -2.62441594E+00  -1.25425929E-06  -2.15749098E-02   1.18864375E+00   1.70792250E+00   8.37725093E-05  -2.96245595E+00  -1.45097524E+02   2.94590021E-01
   2.71250000E+03   5.00000000E-01   5.00000000E-01  -4.96969138E+00  -1.94179848E+00  -4.35411736E+00  -1.44192316E+01   5.65020176E-04   7.31223055E-01  -3.88288852E-01  -2.65014118E+00  -1.41744959E-06  -1.21883124E-02   1.18417404E+00   1.72294269E+00   8.49930778E-05  -2.97696992E+00  -1.44199971E+02   2.91342644E-01
   2.74750000E+03   5.00000000E-01   5.00000000E-01  -4.94010239E+00  -1.93074956E+00  -4.33378568E+00  -1.44719426E+01   5.41628911E-04   7.29081736E-01  -3.91894369E-01  -2.67631570E+00  -1.60058846E-06  -3.10896126E-03   1.17950833E+00   1.73767900E+00   8.63455068E-05  -2.99176455E+00  -1.43310257E+02   2.88061156E-01
   2.78250000E+03   5.00000000E-01   5.00000000E-01  -4.91062179E+00  -1.91975456E+00  -4.31392403E+00  -1.45260609E+01   5.19064249E-04   7.27162973E-01  -3.95649478E-01  -2.70292140E+00  -1.80582058E-06   5.66235367E-03   1.17464248E+00   1.75213193E+00   8.78345262E-05  -3.00683243E+00  -1.42428290E+02   2.84744205E-01
   2.81750000E+03   5.00000000E-01   5.00000000E-01  -4.88124499E+00  -1.90881223E+00  -4.29452068E+00  -1.45815283E+01   4.97302773E-04   7.25469705E-01  -3.99556717E-01  -2.72993974E+00  -2.03545430E-06   1.41245722E-02   1.16957220E+00   1.76630224E+00   8.94649826E-05  -3.02216581E+00  -1.41553978E+02   2.81390205E-01
   2.85250000E+03   5.00000000E-01   5.00000000E-01  -4.85196716E+00  -1.89792128E+00  -4.27556344E+00  -1.46382849E+01   4.76321383E-04   7.24005606E-01  -4.03619052E-01  -2.75735182E+00  -2.29196095E-06   2.22763087E-02   1.16429291E+00   1.78019076E+00   9.12417630E-05  -3.03775667E+00  -1.40687233E+02   2.77997348E-01
   2.88750000E+03   5.00000000E-01   5.00000000E-01  -4.82278329E+00  -1.88708045E+00  -4.25703957E+00  -1.46962690E+01   4.56097267E-04   7.22775076E-01  -4.07839821E-01  -2.78513841E+00  -2.57796484E-06   3.01159309E-02   1.15879990E+00   1.79379855E+00   9.31696856E-05  -3.05359663E+00  -1.39827971E+02   2.74563621E-01
   2.92250000E+03   5.00000000E-01   5.00000000E-01  -4.79368817E+00  -1.87628847E+00  -4.23893579E+00  -1.47554171E+01   4.36607887E-04   7.21783175E-01  -4.12222699E-01  -2.81328002E+00  -2.89623337E-06   3.76415766E-02   1.15308830E+00   1.80712685E+00   9.52533892E-05  -3.06967691E+00  -1.38976109E+02   2.71086820E-01
   2.95750000E+03   5.00000000E-01   5.00000000E-01  -4.76467647E+00  -1.86554407E+00  -4.22123830E+00  -1.48156640E+01   4.17830952E-04   7.21035545E-01  -4.16771651E-01  -2.84175695E+00  -3.24965980E-06   4.48511819E-02   1.14715311E+00   1.82017704E+00   9.74972123E-05  -3.08598834E+00  -1.38131569E+02   2.67564576E-01
   2.99250000E+03   5.00000000E-01   5.00000000E-01  -4.73574271E+00  -1.85484599E+00  -4.20393274E+00  -1.48769433E+01   3.99744412E-04   7.20538320E-01  -4.21490873E-01  -2.87054936E+00  -3.64123935E-06   5.17425170E-02   1.14098927E+00   1.83295067E+00   9.99050610E-05  -3.10252131E+00  -1.37294275E+02   2.63994384E-01
   3.02750000E+03   5.00000000E-01   5.00000000E-01  -4.70688135E+00  -1.84419298E+00  -4.18700421E+00  -1.49391870E+01   3.82326444E-04   7.20298019E-01  -4.26384731E-01  -2.89963731E+00  -4.07403820E-06   5.83132281E-02   1.13459166E+00   1.84544940E+00   1.02480268E-04  -3.11926575E+00  -1.36464154E+02   2.60373633E-01
   3.06250000E+03   5.00000000E-01   5.00000000E-01  -4.67808681E+00  -1.83358381E+00  -4.17043731E+00  -1.50023261E+01   3.65555441E-04   7.20321430E-01  -4.31457684E-01  -2.92900089E+00  -4.55115437E-06   6.45608884E-02   1.12795519E+00   1.85767499E+00   1.05225445E-04  -3.13621110E+00  -1.35641136E+02   2.56699641E-01
   3.09750000E+03   5.00000000E-01   5.00000000E-01  -4.64935351E+00  -1.82301726E+00  -4.15421607E+00  -1.50662906E+01   3.49410010E-04   7.20615479E-01  -4.36714200E-01  -2.95862026E+00  -5.07566991E-06   7.04830567E-02   1.12107481E+00   1.86962929E+00   1.08142322E-04  -3.15334628E+00  -1.34825153E+02   2.52969699E-01
   3.13250000E+03   5.00000000E-01   5.00000000E-01  -4.62067596E+00  -1.81249212E+00  -4.13832405E+00  -1.51310097E+01   3.33868964E-04   7.21187087E-01  -4.42158660E-01  -2.98847571E+00  -5.65059421E-06   7.60773433E-02   1.11394563E+00   1.88131424E+00   1.11231596E-04  -3.17065963E+00  -1.34016142E+02   2.49181114E-01
   3.16750000E+03   5.00000000E-01   5.00000000E-01  -4.59204878E+00  -1.80200723E+00  -4.12274428E+00  -1.51964123E+01   3.18911320E-04   7.22043018E-01  -4.47795261E-01  -3.01854784E+00  -6.27879835E-06   8.13414858E-02   1.10656298E+00   1.89273183E+00   1.14492761E-04  -3.18813893E+00  -1.33214038E+02   2.45331260E-01