 TITLE = "Mineral Saturation State" 
VARIABLES = "X"          "Y"              "Z"            "Forsterite"     "Fayalite"       "Saponite(Mg)"   "Enstatite(alph" "Ferrosilite(al" "Anorthite"      "Albite(low)"    "Clinochlore"    "Sudoite"        "Montmorillonit" "Kaolinite"      "Tremolite"      "Pargasite"      "Anhydrite"      "Epidote"        "Scolecite"      "Pyrite"         "FeS(am)"        "Quartz(alpha)" 
 ZONE I=         100 , J=           1 , K=           1  F=POINT
   1.75000000E+01   5.00000000E-01   5.00000000E-01  -8.09778327E+00  -1.38563725E+00   6.72766984E-03  -3.05873693E+00  -7.62549989E-01  -9.60123992E+00  -5.72764254E-01   8.02610465E-03  -2.69523774E+00  -1.05384799E+00  -2.62235752E+00  -8.61384763E+00  -3.21804377E+01  -9.70515736E-01  -7.70003862E-07  -4.42291181E+00  -3.14480478E+01  -3.47605227E+00   6.98494103E-01
   5.25000000E+01   5.00000000E-01   5.00000000E-01  -8.10788300E+00  -9.11374063E-01   6.70512675E-03  -3.04661984E+00  -4.99277448E-01  -9.17783613E+00  -3.24480451E-01   8.05954239E-03  -2.15590131E+00  -6.42397070E-01  -2.22865768E+00  -8.68359766E+00  -3.16149869E+01  -9.37320013E-01   1.83630455E-07  -4.04110545E+00  -3.08439473E+01  -3.25320602E+00   7.46884654E-01
   8.75000000E+01   5.00000000E-01   5.00000000E-01  -8.04951334E+00  -6.36865109E-01   6.71565654E-03  -3.02053815E+00  -3.56315205E-01  -8.93927949E+00  -2.49023619E-01   8.04787516E-03  -1.93949587E+00  -4.95665566E-01  -2.07293234E+00  -8.69386196E+00  -3.11757238E+01  -9.03049392E-01   2.68136170E-08  -3.88368895E+00  -3.03920118E+01  -3.13655924E+00   7.54468639E-01
   1.22500000E+02   5.00000000E-01   5.00000000E-01  -7.98170842E+00  -4.63932462E-01   6.71721454E-03  -2.99280092E+00  -2.67361419E-01  -8.73288738E+00  -2.01251900E-01   8.03814781E-03  -1.77515116E+00  -3.91458950E-01  -1.95576075E+00  -8.69654030E+00  -3.07640502E+01  -8.67769300E-01   4.10535026E-09  -3.76358003E+00  -3.00074192E+01  -3.07461136E+00   7.55669343E-01
   1.57500000E+02   5.00000000E-01   5.00000000E-01  -7.91180008E+00  -3.49421894E-01   6.70842755E-03  -2.96492350E+00  -2.08683739E-01  -8.53948990E+00  -1.63010775E-01   8.02712360E-03  -1.62902878E+00  -3.01998151E-01  -1.85220620E+00  -8.69796219E+00  -3.03673785E+01  -8.31566074E-01  -4.42138428E-09  -3.65732382E+00  -2.96631303E+01  -3.04486730E+00   7.54794925E-01
   1.92500000E+02   5.00000000E-01   5.00000000E-01  -7.84047750E+00  -2.70656517E-01   6.69113452E-03  -2.93703600E+00  -1.68724773E-01  -8.35701579E+00  -1.32436507E-01   8.01389420E-03  -1.49773560E+00  -2.24477913E-01  -1.75975019E+00  -8.69850491E+00  -2.99840341E+01  -7.94535240E-01  -1.13112555E-08  -3.56243612E+00  -2.93464819E+01  -3.03540334E+00   7.52281107E-01
   2.27500000E+02   5.00000000E-01   5.00000000E-01  -7.76798486E+00  -2.14962090E-01   6.66795406E-03  -2.90917631E+00  -1.41058906E-01  -8.18451870E+00  -1.08746053E-01   7.99935857E-03  -1.37992213E+00  -1.57766176E-01  -1.67738097E+00  -8.69809914E+00  -2.96130163E+01  -7.56773702E-01  -1.73749280E-08  -3.47781797E+00  -2.90503404E+01  -3.03947461E+00   7.48302833E-01
   2.62500000E+02   5.00000000E-01   5.00000000E-01  -7.69467877E+00  -1.74797714E-01   6.64191661E-03  -2.88140635E+00  -1.21795159E-01  -8.02076359E+00  -9.08809142E-02   7.98448866E-03  -1.27373114E+00  -1.00313225E-01  -1.60371413E+00  -8.69676696E+00  -2.92531345E+01  -7.18374947E-01  -2.24245786E-08  -3.40201709E+00  -2.87702644E+01  -3.05302306E+00   7.43099246E-01
   2.97500000E+02   5.00000000E-01   5.00000000E-01  -7.62094199E+00  -1.45411992E-01   6.61500442E-03  -2.85379434E+00  -1.08430723E-01  -7.86446384E+00  -7.77280058E-02   7.97016053E-03  -1.17719384E+00  -5.04808732E-02  -1.53728465E+00  -8.69457645E+00  -2.89031870E+01  -6.79426490E-01  -2.64062419E-08  -3.33351596E+00  -2.85033137E+01  -3.07346691E+00   7.36922756E-01
   3.32500000E+02   5.00000000E-01   5.00000000E-01  -7.54711399E+00  -1.23672772E-01   6.58853711E-03  -2.82640021E+00  -9.92859087E-02  -7.71446651E+00  -6.82928557E-02   7.95686257E-03  -1.08854801E+00  -6.80381660E-03  -1.47678079E+00  -8.69159187E+00  -2.85620923E+01  -6.40008717E-01  -2.93709826E-08  -3.27095712E+00  -2.82474570E+01  -3.09908859E+00   7.29998894E-01
   3.67500000E+02   5.00000000E-01   5.00000000E-01  -7.47347028E+00  -1.07446398E-01   6.56368700E-03  -2.79927113E+00  -9.31996338E-02  -7.56980695E+00  -6.17506239E-02   7.94468533E-03  -1.00633244E+00   3.19332642E-02  -1.42111326E+00  -8.68785751E+00  -2.82289266E+01  -6.00194526E-01  -3.14003349E-08  -3.21320966E+00  -2.80012441E+01  -3.12870589E+00   7.22514567E-01
   4.02500000E+02   5.00000000E-01   5.00000000E-01  -7.40022523E+00  -9.52458539E-02   6.54088756E-03  -2.77244219E+00  -8.93527831E-02  -7.42970059E+00  -5.74392677E-02   7.93365134E-03  -9.29373145E-01   6.67060375E-02  -1.36940548E+00  -8.68340021E+00  -2.79029175E+01  -5.60049440E-01  -3.25739816E-08  -3.15935949E+00  -2.77636097E+01  -3.16148342E+00   7.14619482E-01
   4.37500000E+02   5.00000000E-01   5.00000000E-01  -7.32754190E+00  -8.60181622E-02   6.52020688E-03  -2.74593837E+00  -8.71589245E-02  -7.29351564E+00  -5.48340805E-02   7.92368743E-03  -8.56738145E-01   9.82884436E-02  -1.32096002E+00  -8.67823370E+00  -2.75834232E+01  -5.19631966E-01  -3.29631440E-08  -3.10867615E+00  -2.75337499E+01  -3.19681804E+00   7.06432102E-01
   4.72500000E+02   5.00000000E-01   5.00000000E-01  -7.25554277E+00  -7.90096502E-02   6.50157210E-03  -2.71977667E+00  -8.61937061E-02  -7.16074290E+00  -5.35197418E-02   7.91465498E-03  -7.87687566E-01   1.27294269E-01  -1.27522174E+00  -8.67236350E+00  -2.72699083E+01  -4.78994057E-01  -3.26313043E-08  -3.06057612E+00  -2.73110416E+01  -3.23426592E+00   6.98046118E-01
   5.07500000E+02   5.00000000E-01   5.00000000E-01  -7.18431930E+00  -7.36771822E-02   6.48479267E-03  -2.69396808E+00  -8.61476738E-02  -7.03096914E+00  -5.31658826E-02   7.90640811E-03  -7.21629836E-01   1.54213413E-01  -1.23174548E+00  -8.66579127E+00  -2.69619238E+01  -4.38181642E-01  -3.16373249E-08  -3.01459059E+00  -2.70949887E+01  -3.27349442E+00   6.89536034E-01
   5.42500000E+02   5.00000000E-01   5.00000000E-01  -7.11393929E+00  -6.96277601E-02   6.46963171E-03  -2.66851904E+00  -8.67938614E-02  -6.90385592E+00  -5.35077631E-02   7.89880756E-03  -6.58087392E-01   1.79440425E-01  -1.19017077E+00  -8.65851760E+00  -2.66590893E+01  -3.97235148E-01  -3.00393803E-08  -2.97033999E+00  -2.68851851E+01  -3.31424946E+00   6.80961588E-01
   5.77500000E+02   5.00000000E-01   5.00000000E-01  -7.04445237E+00  -6.65764131E-02   6.45585094E-03  -2.64343261E+00  -8.79651012E-02  -6.77912384E+00  -5.43318881E-02   7.89172707E-03  -5.96671347E-01   2.03295630E-01  -1.15020309E+00  -8.65054366E+00  -2.63610805E+01  -3.56190015E-01  -2.78977032E-08  -2.92751481E+00  -2.66812887E+01  -3.35633290E+00   6.72371014E-01
   6.12500000E+02   5.00000000E-01   5.00000000E-01  -6.97589383E+00  -6.43162321E-02   6.44323196E-03  -2.61870921E+00  -8.95378952E-02  -6.65654118E+00  -5.54658208E-02   7.88505578E-03  -5.37063735E-01   2.26039952E-01  -1.11160076E+00  -8.64187183E+00  -2.60676187E+01  -3.15077189E-01  -2.52768062E-08  -2.88586207E+00  -2.64830042E+01  -3.39958651E+00   6.63803327E-01
   6.47500000E+02   5.00000000E-01   5.00000000E-01  -6.90828712E+00  -6.26966896E-02   6.43158516E-03  -2.59434712E+00  -9.14208099E-02  -6.53591605E+00  -5.67712766E-02   7.87869795E-03  -4.79005712E-01   2.47884828E-01  -1.07416618E+00  -8.63250565E+00  -2.57784642E+01  -2.73923569E-01  -2.22462228E-08  -2.84517596E+00  -2.62900700E+01  -3.44388053E+00   6.55289855E-01
   6.82500000E+02   5.00000000E-01   5.00000000E-01  -6.84164550E+00  -6.16077622E-02   6.42075150E-03  -2.57034279E+00  -9.35460461E-02  -6.41709118E+00  -5.81395760E-02   7.87257157E-03  -4.22290011E-01   2.68998587E-01  -1.03774026E+00  -8.62244914E+00  -2.54934104E+01  -2.32752436E-01  -1.88802756E-08  -2.80529159E+00  -2.61022498E+01  -3.48910540E+00   6.46855213E-01
   7.17500000E+02   5.00000000E-01   5.00000000E-01  -6.77597303E+00  -6.09682278E-02   6.41060059E-03  -2.54669105E+00  -9.58632709E-02  -6.29994026E+00  -5.94886057E-02   7.86660713E-03  -3.66756116E-01   2.89510573E-01  -1.00219881E+00  -8.61170591E+00  -2.52122801E+01  -1.91583827E-01  -1.52567249E-08  -2.76608073E+00  -2.59193263E+01  -3.53516565E+00   6.38517935E-01
   7.52500000E+02   5.00000000E-01   5.00000000E-01  -6.71126529E+00  -6.07170497E-02   6.40102611E-03  -2.52338526E+00  -9.83350812E-02  -6.18436508E+00  -6.07605494E-02   7.86074718E-03  -3.12286805E-01   3.09514134E-01  -9.67450005E-01  -8.60027805E+00  -2.49349219E+01  -1.50434894E-01  -1.14543957E-08  -2.72744857E+00  -2.57410967E+01  -3.58197561E+00   6.30290929E-01
   7.87500000E+02   5.00000000E-01   5.00000000E-01  -6.64751003E+00  -6.08070997E-02   6.39193951E-03  -2.50041738E+00  -1.00933657E-01  -6.07029304E+00  -6.19198045E-02   7.85494669E-03  -2.58804979E-01   3.29069364E-01  -9.33431952E-01  -8.58816517E+00  -2.46612069E+01  -1.09320221E-01  -7.55036920E-09  -2.68933069E+00  -2.55673701E+01  -3.62945630E+00   6.22181889E-01
   8.22500000E+02   5.00000000E-01   5.00000000E-01  -6.58468792E+00  -6.12006800E-02   6.38326287E-03  -2.47777818E+00  -1.03638282E-01  -5.95767426E+00  -6.29506766E-02   7.84917359E-03  -2.06270018E-01   3.48206213E-01  -9.00110033E-01  -8.57536362E+00  -2.43910259E+01  -6.82521208E-02  -3.61679883E-09  -2.65168984E+00  -2.53979650E+01  -3.67753338E+00   6.14193770E-01
   8.57500000E+02   5.00000000E-01   5.00000000E-01  -6.52277353E+00  -6.18664298E-02   6.37492502E-03  -2.45545736E+00  -1.06433508E-01  -5.84647844E+00  -6.38546425E-02   7.84340832E-03  -1.54673278E-01   3.66928298E-01  -8.67473549E-01  -8.56186602E+00  -2.41242854E+01  -2.72409064E-02   2.81799626E-10  -2.61451214E+00  -2.52327082E+01  -3.72613581E+00   6.06325373E-01
   8.92500000E+02   5.00000000E-01   5.00000000E-01  -6.46173647E+00  -6.27772793E-02   6.36686539E-03  -2.43344384E+00  -1.09307777E-01  -5.73669120E+00  -6.46471535E-02   7.83764105E-03  -1.04032674E-01   3.85217465E-01  -8.35531699E-01  -8.54766105E+00  -2.38609047E+01   1.37048488E-02   4.09073260E-09  -2.57780275E+00  -2.50714342E+01  -3.77519516E+00   5.98572041E-01
   9.27500000E+02   5.00000000E-01   5.00000000E-01  -6.40154268E+00  -6.39091627E-02   6.35904555E-03  -2.41172596E+00  -1.12252380E-01  -5.62831009E+00  -6.53541042E-02   7.83186669E-03  -5.43865796E-02   4.03038907E-01  -8.04309063E-01  -8.53273363E+00  -2.36008120E+01   5.45780690E-02   7.76613477E-09  -2.54158109E+00  -2.49139842E+01  -3.82464540E+00   5.90926461E-01
   9.62500000E+02   5.00000000E-01   5.00000000E-01  -6.34215579E+00  -6.52402522E-02   6.35146015E-03  -2.39029179E+00  -1.15260657E-01  -5.52134059E+00  -6.60081869E-02   7.82607994E-03  -5.78741498E-03   4.20346515E-01  -7.73840848E-01  -8.51706521E+00  -2.33439413E+01   9.53729437E-02   1.12753054E-08  -2.50587604E+00  -2.47602059E+01  -3.87442291E+00   5.83379487E-01
   9.97500000E+02   5.00000000E-01   5.00000000E-01  -6.28353851E+00  -6.67505153E-02   6.34412792E-03  -2.36912940E+00  -1.18327377E-01  -5.41579226E+00  -6.66453861E-02   7.82027542E-03   4.17046373E-02   4.37088085E-01  -7.44168246E-01  -8.50063444E+00  -2.30902289E+01   1.36084704E-01   1.45958135E-08  -2.47072124E+00  -2.46099537E+01  -3.92446665E+00   5.75920947E-01
   1.03250000E+03   5.00000000E-01   5.00000000E-01  -6.22565380E+00  -6.84214466E-02   6.33704238E-03  -2.34822708E+00  -1.21448237E-01  -5.31167525E+00  -6.73018458E-02   7.81445780E-03   8.80273954E-02   4.53210010E-01  -7.15334198E-01  -8.48341789E+00  -2.28396112E+01   1.76709410E-01   1.77139609E-08  -2.43615096E+00  -2.44630885E+01  -3.97471850E+00   5.68540361E-01
   1.06750000E+03   5.00000000E-01   5.00000000E-01  -6.16846594E+00  -7.02358350E-02   6.33012803E-03  -2.32757360E+00  -1.24619459E-01  -5.20899751E+00  -6.80112982E-02   7.80864961E-03   1.33121458E-01   4.68661168E-01  -6.87379874E-01  -8.46539079E+00  -2.25920223E+01   2.17243744E-01   2.06228354E-08  -2.40219665E+00  -2.43194771E+01  -4.02512341E+00   5.61227530E-01
   1.10250000E+03   5.00000000E-01   5.00000000E-01  -6.11194122E+00  -7.21774540E-02   6.32329622E-03  -2.30715833E+00  -1.27837390E-01  -5.10776276E+00  -6.88031759E-02   7.80287266E-03   1.76933557E-01   4.83395774E-01  -6.60342160E-01  -8.44652742E+00  -2.23473926E+01   2.57684814E-01   2.33200670E-08  -2.36888454E+00  -2.41789930E+01  -4.07562955E+00   5.53973001E-01
   1.13750000E+03   5.00000000E-01   5.00000000E-01  -6.05604835E+00  -7.42306752E-02   6.31655052E-03  -2.28697125E+00  -1.31098161E-01  -5.00796936E+00  -6.97013971E-02   7.79711853E-03   2.19418595E-01   4.97375221E-01  -6.34252085E-01  -8.42680120E+00  -2.21056480E+01   2.98029976E-01   2.58058223E-08  -2.33623410E+00  -2.40415155E+01  -4.12618832E+00   5.46768392E-01
   1.17250000E+03   5.00000000E-01   5.00000000E-01  -6.00075870E+00  -7.63800520E-02   6.31003010E-03  -2.26700302E+00  -1.34397383E-01  -4.90960967E+00  -7.07237557E-02   7.79133696E-03   2.60540729E-01   5.10569027E-01  -6.09133984E-01  -8.40618484E+00  -2.18667095E+01   3.38276660E-01   2.80812833E-08  -2.30425730E+00  -2.39069300E+01  -4.17675425E+00   5.39606549E-01
   1.20750000E+03   5.00000000E-01   5.00000000E-01  -5.94604632E+00  -7.86098962E-02   6.30391219E-03  -2.24724500E+00  -1.37729942E-01  -4.81266986E+00  -7.18818625E-02   7.78545880E-03   3.00273746E-01   5.22955000E-01  -5.85005263E-01  -8.38465069E+00  -2.16304930E+01   3.78422215E-01   3.01475701E-08  -2.27295844E+00  -2.37751273E+01  -4.22728478E+00   5.32481559E-01
   1.24250000E+03   5.00000000E-01   5.00000000E-01  -5.89188789E+00  -8.09038219E-02   6.29814544E-03  -2.22768928E+00  -1.41089855E-01  -4.71713032E+00  -7.31816851E-02   7.77945435E-03   3.38600692E-01   5.34518521E-01  -5.61876785E-01  -8.36217145E+00  -2.13969101E+01   4.18463756E-01   3.20047969E-08  -2.24233469E+00  -2.36460040E+01  -4.27773994E+00   5.25388562E-01
   1.27750000E+03   5.00000000E-01   5.00000000E-01  -5.83826201E+00  -8.32438834E-02   6.29248996E-03  -2.20832853E+00  -1.44470020E-01  -4.62296737E+00  -7.46251796E-02   7.77328315E-03   3.75510755E-01   5.45250082E-01  -5.39755122E-01  -8.33871955E+00  -2.11658688E+01   4.58398033E-01   3.36506524E-08  -2.21237820E+00  -2.35194613E+01  -4.32808171E+00   5.18323399E-01
   1.31250000E+03   5.00000000E-01   5.00000000E-01  -5.78514748E+00  -8.56089806E-02   6.28701587E-03  -2.18915548E+00  -1.47861775E-01  -4.53015772E+00  -7.62139313E-02   7.76667233E-03   4.10991322E-01   5.55139615E-01  -5.18648073E-01  -8.31426461E+00  -2.09372770E+01   4.98221313E-01   3.50781965E-08  -2.18308126E+00  -2.33954050E+01  -4.37827286E+00   5.11281893E-01
   1.34750000E+03   5.00000000E-01   5.00000000E-01  -5.73251996E+00  -8.79720927E-02   6.28260666E-03  -2.17016212E+00  -1.51254346E-01  -4.43868720E+00  -7.79568893E-02   7.75878510E-03   4.45012269E-01   5.64164555E-01  -4.98575852E-01  -8.28876942E+00  -2.07110473E+01   5.37929282E-01   3.62729349E-08  -2.15444674E+00  -2.32737441E+01  -4.42827471E+00   5.04258186E-01
   1.38250000E+03   5.00000000E-01   5.00000000E-01  -5.68034447E+00  -9.02943975E-02   6.28188674E-03  -2.15133781E+00  -1.54633820E-01  -4.34857050E+00  -7.98878622E-02   7.74749157E-03   4.77490793E-01   5.72262871E-01  -4.79596228E-01  -8.26218145E+00  -2.04871108E+01   5.77516970E-01   3.72052127E-08  -2.12651161E+00  -2.31543892E+01  -4.47804242E+00   4.97240917E-01
   1.41750000E+03   5.00000000E-01   5.00000000E-01  -5.62855972E+00  -9.25132703E-02   6.28934740E-03  -2.13266598E+00  -1.57981614E-01  -4.25989296E+00  -8.21042878E-02   7.72823079E-03   5.08217674E-01   5.79273805E-01  -4.61858143E-01  -8.23441937E+00  -2.02654450E+01   6.16978699E-01   3.78158743E-08  -2.09939774E+00  -2.30372477E+01  -4.52751474E+00   4.90204270E-01
   1.45250000E+03   5.00000000E-01   5.00000000E-01  -5.57704317E+00  -9.45155310E-02   6.31018865E-03  -2.11411698E+00  -1.61271485E-01  -4.17290472E+00  -8.48557370E-02   7.69170832E-03   5.36692033E-01   5.84803014E-01  -4.45722584E-01  -8.20534633E+00  -2.00461396E+01   6.56308066E-01   3.79834960E-08  -2.07342673E+00  -2.29222151E+01  -4.57659094E+00   4.83087215E-01
   1.48750000E+03   5.00000000E-01   5.00000000E-01  -5.52552854E+00  -9.60740250E-02   6.36212754E-03  -2.09562758E+00  -1.64458502E-01  -4.08823846E+00  -8.87353694E-02   7.61503445E-03   5.61732410E-01   5.87926979E-01  -4.32039629E-01  -8.17467291E+00  -1.98295394E+01   6.95498091E-01   3.74528490E-08  -2.04937916E+00  -2.28091538E+01  -4.62507996E+00   4.75752131E-01
   1.52250000E+03   5.00000000E-01   5.00000000E-01  -5.47347776E+00  -9.67541029E-02   6.48646897E-03  -2.07707097E+00  -1.67466347E-01  -4.00724994E+00  -9.49860432E-02   7.45063624E-03   5.80874358E-01   5.86723200E-01  -4.22581783E-01  -8.14182591E+00  -1.96164744E+01   7.34541526E-01   3.57942921E-08  -2.02890311E+00  -2.26978620E+01  -4.67262154E+00   4.67916693E-01
   1.55750000E+03   5.00000000E-01   5.00000000E-01  -5.41996730E+00  -9.58462656E-02   6.74313031E-03  -2.05823417E+00  -1.70187871E-01  -3.93232483E+00  -1.05790187E-01   7.12310792E-03   5.89841133E-01   5.77831572E-01  -4.20433913E-01  -8.10587480E+00  -1.94084775E+01   7.73431082E-01   3.24934718E-08  -2.01488957E+00  -2.25880477E+01  -4.71861893E+00   4.59085399E-01
   1.59250000E+03   5.00000000E-01   5.00000000E-01  -5.36379704E+00  -9.25024297E-02   7.17947618E-03  -2.03884968E+00  -1.72530456E-01  -3.86659704E+00  -1.24037466E-01   6.55532191E-03   5.83076685E-01   5.56824580E-01  -4.29626804E-01  -8.06572277E+00  -1.92076183E+01   8.12158813E-01   2.73708023E-08  -2.01114518E+00  -2.24793704E+01  -4.76232492E+00   4.48595112E-01
   1.62750000E+03   5.00000000E-01   5.00000000E-01  -5.30424664E+00  -8.64087845E-02   7.75978332E-03  -2.01877482E+00  -1.74553561E-01  -3.81194004E+00  -1.51525424E-01   5.75917642E-03   5.57350837E-01   5.20985018E-01  -4.52558561E-01  -8.02095009E+00  -1.90151761E+01   8.50712705E-01   2.15323659E-08  -2.01998583E+00  -2.23716671E+01  -4.80335989E+00   4.36012821E-01
   1.66250000E+03   5.00000000E-01   5.00000000E-01  -5.24203309E+00  -7.85222265E-02   8.32700414E-03  -1.99820387E+00  -1.76570323E-01  -3.76642168E+00  -1.86621287E-01   4.90216104E-03   5.16255649E-01   4.72884446E-01  -4.86734437E-01  -7.97270497E+00  -1.88299189E+01   8.89068804E-01   1.73373100E-08  -2.03915820E+00  -2.22652112E+01  -4.84233168E+00   4.21668887E-01
   1.69750000E+03   5.00000000E-01   5.00000000E-01  -5.17897300E+00  -7.05787012E-02   8.72802867E-03  -1.97756079E+00  -1.78963324E-01  -3.72520369E+00  -2.24956188E-01   4.18226453E-03   4.68481254E-01   4.19259241E-01  -5.25920957E-01  -7.92302780E+00  -1.86486448E+01   9.27178187E-01   1.62259357E-08  -2.06286252E+00  -2.21605613E+01  -4.88054340E+00   4.06533824E-01
   1.73250000E+03   5.00000000E-01   5.00000000E-01  -5.11675514E+00  -6.39184070E-02   8.93101153E-03  -1.95720744E+00  -1.81919100E-01  -3.68380570E+00  -2.62335425E-01   3.67915758E-03   4.21964842E-01   3.66509723E-01  -5.64328930E-01  -7.87348556E+00  -1.84683381E+01   9.64936350E-01   1.76222819E-08  -2.08566035E+00  -2.20581681E+01  -4.91911180E+00   3.91574514E-01
   1.76750000E+03   5.00000000E-01   5.00000000E-01  -5.05633047E+00  -5.90243326E-02   8.99058922E-03  -1.93732563E+00  -1.85384500E-01  -3.63975469E+00  -2.96285345E-01   3.36711727E-03   3.81102110E-01   3.18351887E-01  -5.98686925E-01  -7.82485665E+00  -1.82873474E+01   1.00208964E+00   2.00406284E-08  -2.10449827E+00  -2.19582287E+01  -4.95855849E+00   3.77380006E-01
   1.80250000E+03   5.00000000E-01   5.00000000E-01  -4.99798369E+00  -5.57153878E-02   8.97441981E-03  -1.91795351E+00  -1.89163771E-01  -3.59253984E+00  -3.25957224E-01   3.18414699E-03   3.47171133E-01   2.75999174E-01  -6.27994548E-01  -7.77771896E+00  -1.81055883E+01   1.03794646E+00   2.19713524E-08  -2.11866371E+00  -2.18608189E+01  -4.99890140E+00   3.64160481E-01
   1.83750000E+03   5.00000000E-01   5.00000000E-01  -4.94163185E+00  -5.34911257E-02   8.92861703E-03  -1.89905825E+00  -1.93014398E-01  -3.54327236E+00  -3.51424602E-01   3.07418816E-03   3.19763993E-01   2.39250641E-01  -6.52504301E-01  -7.73371043E+00  -1.79249285E+01   1.07049465E+00   2.17358744E-08  -2.12929183E+00  -2.17662348E+01  -5.03989907E+00   3.51900298E-01
   1.87250000E+03   5.00000000E-01   5.00000000E-01  -4.88706700E+00  -5.17532652E-02   8.87493184E-03  -1.88058769E+00  -1.96688131E-01  -3.49532299E+00  -3.73073188E-01   2.99397381E-03   2.97910695E-01   2.07407964E-01  -6.72898817E-01  -7.69828924E+00  -1.77513003E+01   1.09384350E+00   1.61592629E-08  -2.13986347E+00  -2.16757248E+01  -5.08123730E+00   3.40497459E-01
   1.90750000E+03   5.00000000E-01   5.00000000E-01  -4.83408579E+00  -4.99229808E-02   8.81597154E-03  -1.86249550E+00  -1.99950016E-01  -3.45682841E+00  -3.91248232E-01   2.90083966E-03   2.80652536E-01   1.79775615E-01  -6.89860126E-01  -7.68649637E+00  -1.76001302E+01   1.09241402E+00  -2.23960499E-09  -2.15863237E+00  -2.15930457E+01  -5.12265145E+00   3.29842834E-01
   1.94250000E+03   5.00000000E-01   5.00000000E-01  -4.78253666E+00  -4.77945669E-02   8.75004341E-03  -1.84474743E+00  -2.02737835E-01  -3.44207632E+00  -4.06147171E-01   2.75465169E-03   2.67269411E-01   1.55854720E-01  -7.03897634E-01  -7.72599648E+00  -1.74993026E+01   1.03735718E+00  -4.70881281E-08  -2.19997550E+00  -2.15256815E+01  -5.16413356E+00   3.19854952E-01
   1.97750000E+03   5.00000000E-01   5.00000000E-01  -4.73209617E+00  -4.59624715E-02   8.70049110E-03  -1.82726909E+00  -2.05435311E-01  -3.45988861E+00  -4.18553335E-01   2.56185261E-03   2.56353946E-01   1.34495602E-01  -7.16042256E-01  -7.83255341E+00  -1.74653990E+01   9.09807108E-01  -1.27585902E-07  -2.27289556E+00  -2.14794032E+01  -5.20595316E+00   3.10360615E-01
   2.01250000E+03   5.00000000E-01   5.00000000E-01  -4.68228248E+00  -4.49438089E-02   8.69511548E-03  -1.80995481E+00  -2.08435402E-01  -3.49722571E+00  -4.29864033E-01   2.39410078E-03   2.45898711E-01   1.13910428E-01  -7.27800123E-01  -7.97738763E+00  -1.74710041E+01   7.33973483E-01  -2.24729659E-07  -2.36462945E+00  -2.14492838E+01  -5.24803466E+00   3.01090834E-01
   2.04750000E+03   5.00000000E-01   5.00000000E-01  -4.63295042E+00  -4.42897255E-02   8.71099879E-03  -1.79278086E+00  -2.11561728E-01  -3.53061752E+00  -4.40587346E-01   2.29868874E-03   2.35365782E-01   9.35237496E-02  -7.39601768E-01  -8.11290062E+00  -1.74688741E+01   5.55086424E-01  -2.85767849E-07  -2.45181067E+00  -2.14241220E+01  -5.28986252E+00   2.91949329E-01
   2.08250000E+03   5.00000000E-01   5.00000000E-01  -4.58424329E+00  -4.32582317E-02   8.71414625E-03  -1.77578384E+00  -2.14407447E-01  -3.54503514E+00  -4.50343607E-01   2.26061984E-03   2.25413286E-01   7.38634673E-02  -7.50967860E-01  -8.20999343E+00  -1.74294141E+01   4.03792540E-01  -2.61755231E-07  -2.51934596E+00  -2.13954350E+01  -5.33103519E+00   2.83007611E-01
   2.11750000E+03   5.00000000E-01   5.00000000E-01  -4.53629627E+00  -4.13469832E-02   8.69784123E-03  -1.75899088E+00  -2.16680182E-01  -3.53696166E+00  -4.58685572E-01   2.24280338E-03   2.16632267E-01   5.54800005E-02  -7.61446133E-01  -8.26245678E+00  -1.73459529E+01   2.89973762E-01  -1.60247083E-07  -2.56364322E+00  -2.13596099E+01  -5.37138563E+00   2.74347920E-01
   2.15250000E+03   5.00000000E-01   5.00000000E-01  -4.48915000E+00  -3.83099096E-02   8.66998156E-03  -1.74240613E+00  -2.18239961E-01  -3.50952656E+00  -4.65398525E-01   2.21611402E-03   2.09202133E-01   3.85893119E-02  -7.70886108E-01  -8.27680048E+00  -1.72248053E+01   2.10482974E-01  -3.63005687E-08  -2.58780510E+00  -2.13164980E+01  -5.41086786E+00   2.66003958E-01
   2.18750000E+03   5.00000000E-01   5.00000000E-01  -4.44277896E+00  -3.40641049E-02   8.63897305E-03  -1.72602043E+00  -2.19048185E-01  -3.46777634E+00  -4.70460644E-01   2.16483325E-03   2.03023839E-01   2.31541326E-02  -7.79349365E-01  -8.26299567E+00  -1.70759291E+01   1.57214318E-01   6.26911576E-08  -2.59689072E+00  -2.12676274E+01  -5.44948368E+00   2.57969853E-01
   2.22250000E+03   5.00000000E-01   5.00000000E-01  -4.39713213E+00  -2.86232617E-02   8.60958380E-03  -1.70982066E+00  -2.19123393E-01  -3.41612421E+00  -4.73943268E-01   2.08333252E-03   1.97897793E-01   9.03017569E-03  -7.86978363E-01  -8.22961780E+00  -1.69079586E+01   1.22194473E-01   1.22205272E-07  -2.59534347E+00  -2.12148421E+01  -5.48725798E+00   2.50222058E-01
   2.25750000E+03   5.00000000E-01   5.00000000E-01  -4.35215496E+00  -2.20618509E-02   8.58359570E-03  -1.69379396E+00  -2.18516546E-01  -3.35774187E+00  -4.75949573E-01   1.97086992E-03   1.93615214E-01  -3.95006157E-03  -7.93926116E-01  -8.18275101E+00  -1.67270557E+01   9.92974040E-02   1.48156477E-07  -2.58636913E+00  -2.11597068E+01  -5.52423255E+00   2.42732970E-01
   2.29250000E+03   5.00000000E-01   5.00000000E-01  -4.30780239E+00  -1.44991615E-02   8.56105463E-03  -1.67793007E+00  -2.17298852E-01  -3.29468600E+00  -4.76576285E-01   1.82944162E-03   1.90014112E-01  -1.59257240E-02  -8.00313343E-01  -8.12631321E+00  -1.65372009E+01   8.44396063E-02   1.51811211E-07  -2.57205403E+00  -2.11033249E+01  -5.56046669E+00   2.35479305E-01
   2.32750000E+03   5.00000000E-01   5.00000000E-01  -4.26404124E+00  -6.09024608E-03   8.54195505E-03  -1.66222126E+00  -2.15556048E-01  -3.22827498E+00  -4.75902958E-01   1.66195715E-03   1.86987639E-01  -2.69956513E-02  -8.06220689E-01  -8.06281779E+00  -1.63409516E+01   7.50002588E-02   1.42538920E-07  -2.55373933E+00  -2.10464358E+01  -5.59603699E+00   2.28444500E-01
   2.36250000E+03   5.00000000E-01   5.00000000E-01  -4.22084161E+00   2.98427892E-03   8.52724415E-03  -1.64666024E+00  -2.13385458E-01  -3.15944512E+00  -4.74010831E-01   1.47052877E-03   1.84442126E-01  -3.72493239E-02  -8.11718314E-01  -7.99402956E+00  -1.61401221E+01   6.90986753E-02   1.26635585E-07  -2.53238166E+00  -2.09896076E+01  -5.63103213E+00   2.21614375E-01
   2.39750000E+03   5.00000000E-01   5.00000000E-01  -4.17817399E+00   1.25265271E-02   8.51784761E-03  -1.63123986E+00  -2.10892997E-01  -3.08889505E+00  -4.70989825E-01   1.25741750E-03   1.82284899E-01  -4.67786536E-02  -8.16875749E-01  -7.92123880E+00  -1.59360614E+01   6.53338083E-02   1.08252227E-07  -2.50869970E+00  -2.09332953E+01  -5.66554836E+00   2.14974851E-01
   2.43250000E+03   5.00000000E-01   5.00000000E-01  -4.13601207E+00   2.23300222E-02   8.51379265E-03  -1.61595395E+00  -2.08188262E-01  -3.01712337E+00  -4.66930093E-01   1.02620472E-03   1.80439200E-01  -5.56673041E-02  -8.21751869E-01  -7.84535774E+00  -1.57297369E+01   6.27876242E-02   8.99893770E-08  -2.48321080E+00  -2.08778121E+01  -5.69968613E+00   2.08513072E-01
   2.46750000E+03   5.00000000E-01   5.00000000E-01  -4.09433385E+00   3.21914643E-02   8.51444266E-03  -1.60079747E+00  -2.05378265E-01  -2.94447062E+00  -4.61916172E-01   7.81633831E-04   1.78849054E-01  -6.39852567E-02  -8.26391139E-01  -7.76701048E+00  -1.55218192E+01   6.09984902E-02   7.32607254E-08  -2.45627211E+00  -2.08233146E+01  -5.73354492E+00   2.02218179E-01
   2.50250000E+03   5.00000000E-01   5.00000000E-01  -4.05312066E+00   4.19208195E-02   8.51935301E-03  -1.58576609E+00  -2.02562424E-01  -2.87119457E+00  -4.56025676E-01   5.28920426E-04   1.77473967E-01  -7.17904232E-02  -8.30826812E-01  -7.68667512E+00  -1.53128261E+01   5.97394307E-02   5.86549604E-08  -2.42815601E+00  -2.07698729E+01  -5.76721847E+00   1.96081242E-01
   2.53750000E+03   5.00000000E-01   5.00000000E-01  -4.01235750E+00   5.13487155E-02   8.52862589E-03  -1.57085612E+00  -1.99828684E-01  -2.79752164E+00  -4.49325502E-01   2.73663651E-04   1.76290297E-01  -7.91260859E-02  -8.35079740E-01  -7.60478779E+00  -1.51032241E+01   5.87830679E-02   4.63057811E-08  -2.39910109E+00  -2.07175583E+01  -5.80079150E+00   1.90095615E-01
   2.57250000E+03   5.00000000E-01   5.00000000E-01  -3.97203369E+00   6.03350594E-02   8.54249395E-03  -1.55606482E+00  -1.97249110E-01  -2.72364621E+00  -4.41867688E-01   2.19817695E-05   1.75294624E-01  -8.60178272E-02  -8.39156121E-01  -7.52174647E+00  -1.48934263E+01   5.78637374E-02   3.61301639E-08  -2.36931135E+00  -2.06664574E+01  -5.83433553E+00   1.84257140E-01
   2.60750000E+03   5.00000000E-01   5.00000000E-01  -3.93214199E+00   6.87773115E-02   8.56089511E-03  -1.54139025E+00  -1.94876109E-01  -2.64971451E+00  -4.33689876E-01  -2.19806304E-04   1.74498714E-01  -9.24770495E-02  -8.43051198E-01  -7.43787308E+00  -1.46837548E+01   5.67674789E-02   2.79266823E-08  -2.33894074E+00  -2.06166325E+01  -5.86790435E+00   1.78563420E-01
   2.64250000E+03   5.00000000E-01   5.00000000E-01  -3.89267636E+00   7.66134661E-02   8.58341432E-03  -1.52683083E+00  -1.92741582E-01  -2.57582280E+00  -4.24819938E-01  -4.45794694E-04   1.73918025E-01  -9.85094636E-02  -8.46757415E-01  -7.35339496E+00  -1.44744274E+01   5.54090605E-02   2.14279186E-08  -2.30809270E+00  -2.05680861E+01  -5.90153185E+00   1.73012539E-01
   2.67750000E+03   5.00000000E-01   5.00000000E-01  -3.85362967E+00   8.38176190E-02   8.60942887E-03  -1.51238477E+00  -1.90859737E-01  -2.50203303E+00  -4.15281920E-01  -6.51056906E-04   1.73560422E-01  -1.04123743E-01  -8.50272365E-01  -7.26846120E+00  -1.42655814E+01   5.38261797E-02   1.63460086E-08  -2.27683693E+00  -2.05207608E+01  -5.93523361E+00   1.67601872E-01
   2.71250000E+03   5.00000000E-01   5.00000000E-01  -3.81499294E+00   9.03900911E-02   8.63827597E-03  -1.49804989E+00  -1.89232204E-01  -2.42839301E+00  -4.05099297E-01  -8.31767697E-04   1.73422456E-01  -1.09334755E-01  -8.53601395E-01  -7.18317784E+00  -1.40573129E+01   5.21016729E-02   1.24086158E-08  -2.24522998E+00  -2.04745751E+01  -5.96901167E+00   1.62327725E-01