 TITLE = "Mineral Saturation State" 
VARIABLES = "X"          "Y"              "Z"            "Forsterite"     "Enstatite(alph" "Anorthite"      "Ferropargasite" "Anhydrite"      "Clinochlore"    "Albite(low)"    "Fayalite"       "Epidote"        "Kaolinite"      "Muscovite(orde"
 ZONE I=          10 , J=           1 , K=           1  F=POINT
   1.75000000E+02   5.00000000E-01   5.00000000E-01  -6.60764263E+00  -2.20387609E+00  -8.89263040E+00  -1.55792726E+01  -5.61556670E-01   4.28601977E-02  -7.44079232E-02  -1.13330380E+00  -1.58489146E-10  -2.91034304E+00  -1.34333537E+00
   5.25000000E+02   5.00000000E-01   5.00000000E-01  -6.41525890E+00  -2.22366927E+00  -7.69073502E+00  -1.52504194E+01  -3.73747960E-01   4.02049043E-02  -6.75276643E-02  -1.59076438E+00  -6.92223561E-10  -2.06900996E+00  -5.33508159E-01
   8.75000000E+02   5.00000000E-01   5.00000000E-01  -6.15928626E+00  -2.18159815E+00  -6.73902860E+00  -1.49970525E+01  -1.92357111E-01   4.43792192E-02  -4.89048885E-02  -1.95307820E+00   3.32694514E-10  -1.46407322E+00  -2.63251265E-03
   1.22500000E+03   5.00000000E-01   5.00000000E-01  -5.87592025E+00  -2.12037922E+00  -6.00703219E+00  -1.49402846E+01  -3.23150062E-02   4.68419346E-02  -1.00268558E-01  -2.27504272E+00  -6.08149637E-10  -1.06114724E+00   2.89023799E-01
   1.57500000E+03   5.00000000E-01   5.00000000E-01  -5.64328643E+00  -2.08218906E+00  -5.33204043E+00  -1.50818276E+01   9.30449896E-02   4.98731756E-02  -1.49048375E-01  -2.65229453E+00  -1.84085328E-09  -6.50588901E-01   6.26989831E-01
   1.92500000E+03   5.00000000E-01   5.00000000E-01  -5.41222652E+00  -2.03973065E+00  -4.80072508E+00  -1.54388274E+01   1.71786618E-01   5.30773628E-02  -2.22775414E-01  -3.03683625E+00  -6.45598715E-09  -3.29977019E-01   8.67751855E-01
   2.27500000E+03   5.00000000E-01   5.00000000E-01  -5.18690362E+00  -1.99688176E+00  -4.40197949E+00  -1.60167627E+01   1.97261868E-01   5.61165895E-02  -3.19418053E-01  -3.43379068E+00  -2.60337091E-08  -8.00958340E-02   1.03452235E+00
   2.62500000E+03   5.00000000E-01   5.00000000E-01  -4.96622016E+00  -1.95265041E+00  -4.12070261E+00  -1.67962577E+01   1.74604711E-01   5.89015801E-02  -4.31715119E-01  -3.84476940E+00  -9.95021672E-08   1.09675974E-01   1.13951474E+00
   2.97500000E+03   5.00000000E-01   5.00000000E-01  -4.75339186E+00  -1.90907043E+00  -3.91415104E+00  -1.77107516E+01   1.24933092E-01   6.14382130E-02  -5.52883757E-01  -4.27311614E+00  -3.24833024E-07   2.56293260E-01   1.20418174E+00
   3.32500000E+03   5.00000000E-01   5.00000000E-01  -4.54962832E+00  -1.86697986E+00  -3.72765570E+00  -1.86430290E+01   7.50476752E-02   6.41613386E-02  -6.77281811E-01  -4.71098993E+00  -5.67704852E-07   3.71132301E-01   1.24268838E+00
