 TITLE = "Mineral Saturation State" 
VARIABLES = "X"          "Y"              "Z"            "Forsterite"     "Fayalite"       "Brucite"        "Lizardite"      "Chrysotile"     "Hematite"       "Magnetite(am)"  "Saponite(Ca)"   "Saponite(K)"    "Saponite(Mg)"   "Saponite(Na)"   "Beidellite(Ca)" "Beidellite(K)"  "Beidellite(Mg)" "Beidellite(Na)" "Enstatite(alph" "Ferrosilite(al" "Anorthite"      "Albite(low)"    "Clinochlore"    "Sudoite"        "Montmor(MgCa)"  "Montmor(MgK)"   "Montmor(MgMg)"  "Montmor(MgNa)"  "Kaolinite"      "Tremolite"      "Pargasite"      "Anhydrite"      "Epidote"        "Scolecite"      "Pyrite"         "FeS(am)"        "Quartz(alpha)"  "Titanite"       "Rutile"         "Barite"         "Fluorite"       "Spessartine(al" "Andradite"      "Celestite"      "Zincite"        "Chalcocyanite"  "Chalcocite(alp"
 ZONE I=         200 , J=           1 , K=           1  F=POINT
   8.75000000E+00   5.00000000E-01   5.00000000E-01  -6.91832910E+00  -2.83949964E+00  -4.68532671E+00  -1.06145187E+00  -1.17894018E+00   1.02128218E-01  -5.22150207E+00   7.94924489E-01   2.62526741E+00   1.45585967E+00   2.50392905E+00  -6.96650576E+00  -5.81847605E+00  -6.30556786E+00  -5.87861924E+00  -2.45305836E+00  -1.47579926E+00  -1.20134249E+01  -1.70578170E+00   2.63204475E-02  -7.46203995E+00  -4.39063846E+00  -3.00169534E+00  -3.76323007E+00  -3.15084614E+00  -5.58502201E+00  -4.31479956E+00  -3.28276655E+01  -9.80229962E-01  -1.06664273E+01  -6.78405317E+00  -5.53964970E+01  -1.94388259E+01   7.26840437E-01  -6.31199831E-01   1.49129969E-01   2.99834184E-01  -5.69974520E-01  -2.64084619E+01  -6.74597059E+00  -1.70346487E+00  -3.55869942E+00  -1.59370393E+01   1.52717854E+00
   2.62500000E+01   5.00000000E-01   5.00000000E-01  -7.47764547E+00  -2.78248214E+00  -5.05094726E+00  -1.89036341E+00  -2.00581708E+00   1.02128218E-01  -5.25343781E+00   4.25789194E-01   2.22921291E+00   1.08613824E+00   2.11702790E+00  -4.70284363E+00  -3.57491539E+00  -4.04249747E+00  -3.62601148E+00  -2.65538239E+00  -1.36542773E+00  -1.05567721E+01  -6.84920855E-01   2.60113191E-02  -4.83631086E+00  -2.70603217E+00  -1.33847128E+00  -2.07902523E+00  -1.47810373E+00  -3.79506420E+00  -5.67667686E+00  -3.19976823E+01  -9.62288356E-01  -9.45166631E+00  -5.21094998E+00  -5.62851779E+01  -2.02917734E+01   8.88604930E-01  -8.41137880E-01   1.63768078E-01   1.38207884E-01  -5.87227640E-01  -2.46617447E+01  -7.40368652E+00  -1.71042182E+00  -3.69242722E+00  -1.58703379E+01   1.17339263E-01
   4.37500000E+01   5.00000000E-01   5.00000000E-01  -7.65578899E+00  -2.64027493E+00  -5.19638669E+00  -2.17648377E+00  -2.28992465E+00   1.02128218E-01  -5.21339386E+00   3.81424879E-01   2.16111809E+00   1.04122933E+00   2.05798005E+00  -3.70055767E+00  -2.59250438E+00  -3.04076129E+00  -2.63465937E+00  -2.69668546E+00  -1.24206852E+00  -9.92352053E+00  -1.93827161E-01   2.56333011E-02  -3.79669067E+00  -1.91353301E+00  -5.67114603E-01  -1.28688824E+00  -6.97339399E-01  -3.04832188E+00  -5.96993204E+00  -3.14793558E+01  -9.44133048E-01  -8.89911016E+00  -4.52012641E+00  -5.54323650E+01  -1.98853404E+01   9.91170515E-01  -8.91231899E-01   1.77200594E-01   5.15125587E-02  -6.03653833E-01  -2.37310918E+01  -7.57843692E+00  -1.71684101E+00  -3.70196769E+00  -1.58038618E+01   1.17339263E-01
   6.12500000E+01   5.00000000E-01   5.00000000E-01  -7.71515979E+00  -2.49355535E+00  -5.26276033E+00  -2.30350520E+00  -2.41495480E+00   1.02128218E-01  -5.15162175E+00   3.96889244E-01   2.15370972E+00   1.05618085E+00   2.05951227E+00  -3.15527460E+00  -2.06687410E+00  -2.49599585E+00  -2.10019401E+00  -2.69825181E+00  -1.13614384E+00  -9.56910774E+00   7.94333312E-02   2.50383721E-02  -3.27401439E+00  -1.46963011E+00  -1.44118947E-01  -8.43317960E-01  -2.65046784E-01  -2.65917405E+00  -6.02362501E+00  -3.11018806E+01  -9.25764239E-01  -8.58542921E+00  -4.14719054E+00  -5.47208582E+01  -1.95385137E+01   1.05436976E+00  -9.02732619E-01   1.89407886E-01   8.56849084E-03  -6.19282467E-01  -2.31133022E+01  -7.63391189E+00  -1.72269881E+00  -3.67556649E+00  -1.57376084E+01   1.17339263E-01
   7.87500000E+01   5.00000000E-01   5.00000000E-01  -7.73741119E+00  -2.36995855E+00  -5.29733036E+00  -2.38747944E+00  -2.49695891E+00   1.02128218E-01  -5.08837218E+00   4.03113880E-01   2.13729003E+00   1.06191816E+00   2.05192776E+00  -2.79633884E+00  -1.72737315E+00  -2.13755183E+00  -1.75196304E+00  -2.69447208E+00  -1.05503464E+00  -9.31709006E+00   2.48819442E-01   2.44342689E-02  -2.92835281E+00  -1.18265563E+00   1.22179131E-01  -5.56652730E-01   1.04386005E-02  -2.40395067E+00  -6.06556146E+00  -3.07982597E+01  -9.07187794E-01  -8.36853971E+00  -3.90282868E+00  -5.40763687E+01  -1.92242743E+01   1.09107564E+00  -9.09971195E-01   2.00417115E-01  -1.24544980E-02  -6.34144467E-01  -2.26442506E+01  -7.67318321E+00  -1.72800215E+00  -3.64189496E+00  -1.56715817E+01   1.17339263E-01
   9.62500000E+01   5.00000000E-01   5.00000000E-01  -7.73974469E+00  -2.26397471E+00  -5.31333931E+00  -2.44957421E+00  -2.55710436E+00   1.02128217E-01  -5.02552961E+00   3.98643353E-01   2.11036543E+00   1.05698216E+00   2.03373468E+00  -2.54693227E+00  -1.49718747E+00  -1.88861480E+00  -1.51315063E+00  -2.68930481E+00  -9.91343171E-01  -9.12358541E+00   3.54836618E-01   2.39736815E-02  -2.68128214E+00  -9.90239322E-01   2.94145630E-01  -3.64525946E-01   1.91484591E-01  -2.22554809E+00  -6.11413982E+00  -3.05410151E+01  -8.88412337E-01  -8.20850232E+00  -3.73387637E+00  -5.34742557E+01  -1.89312429E+01   1.11057347E+00  -9.16855805E-01   2.10261240E-01  -2.31844262E-02  -6.48270888E-01  -2.22663682E+01  -7.70807123E+00  -1.73276800E+00  -3.60546289E+00  -1.56057882E+01   1.17339263E-01
   1.13750000E+02   5.00000000E-01   5.00000000E-01  -7.72649511E+00  -2.16805346E+00  -5.31625579E+00  -2.49299762E+00  -2.59859894E+00   1.02128217E-01  -4.96261773E+00   3.91597840E-01   2.08110692E+00   1.04948948E+00   2.01310618E+00  -2.37489408E+00  -1.34416016E+00  -1.71702749E+00  -1.35159772E+00  -2.68161578E+00  -9.37992025E-01  -8.97321192E+00   4.18379437E-01   2.37248375E-02  -2.50869585E+00  -8.62426978E-01   4.01730660E-01  -2.36986869E-01   3.08043524E-01  -2.10313596E+00  -6.15479163E+00  -3.03145923E+01  -8.69447498E-01  -8.08878591E+00  -3.61835050E+00  -5.29030661E+01  -1.86534538E+01   1.11946743E+00  -9.22203541E-01   2.18972334E-01  -2.91414422E-02  -6.61691757E-01  -2.19521216E+01  -7.73512046E+00  -1.73701554E+00  -3.56692655E+00  -1.55402355E+01   1.17339263E-01
   1.31250000E+02   5.00000000E-01   5.00000000E-01  -7.70137199E+00  -2.07879332E+00  -5.31013737E+00  -2.52111818E+00  -2.62481081E+00   1.02128217E-01  -4.90013628E+00   3.86435826E-01   2.05399773E+00   1.04389505E+00   1.99452761E+00  -2.25651469E+00  -1.24458546E+00  -1.59908391E+00  -1.24359638E+00  -2.67105654E+00  -8.91076682E-01  -8.85412628E+00   4.54179729E-01   2.36649953E-02  -2.39136792E+00  -7.77793724E-01   4.66355100E-01  -1.52614147E-01   3.81538509E-01  -2.02083377E+00  -6.18064519E+00  -3.01082793E+01  -8.50303092E-01  -7.99718345E+00  -3.54000338E+00  -5.23551481E+01  -1.83873298E+01   1.12216480E+00  -9.25617261E-01   2.26582230E-01  -3.28567063E-02  -6.74435842E-01  -2.16835270E+01  -7.75323201E+00  -1.74076373E+00  -3.52740500E+00  -1.54749308E+01   1.17339263E-01
   1.48750000E+02   5.00000000E-01   5.00000000E-01  -7.66776808E+00  -1.99500381E+00  -5.29806621E+00  -2.53764620E+00  -2.63944997E+00   1.02128217E-01  -4.83887349E+00   3.84724324E-01   2.03060859E+00   1.04176280E+00   1.97957167E+00  -2.17391713E+00  -1.18059007E+00  -1.51691020E+00  -1.17127132E+00  -2.65793736E+00  -8.48615200E-01  -8.75679522E+00   4.72545757E-01   2.37320053E-02  -2.31305273E+00  -7.20966268E-01   5.03388379E-01  -9.60375458E-02   4.27341009E-01  -1.96604392E+00  -6.19107881E+00  -2.99148575E+01  -8.30988875E-01  -7.92445921E+00  -3.48653151E+00  -5.18250859E+01  -1.81305560E+01   1.12143869E+00  -9.27360716E-01   2.33123138E-01  -3.54935684E-02  -6.86530744E-01  -2.14480879E+01  -7.76329092E+00  -1.74403104E+00  -3.48805459E+00  -1.54098812E+01   1.17339263E-01
   1.66250000E+02   5.00000000E-01   5.00000000E-01  -7.62833170E+00  -1.91622592E+00  -5.28219496E+00  -2.54573249E+00  -2.64566693E+00   1.02128217E-01  -4.77942608E+00   3.86675831E-01   2.01114656E+00   1.04330274E+00   1.96844715E+00  -2.11466954E+00  -1.13974572E+00  -1.45807698E+00  -1.12219252E+00  -2.64275355E+00  -8.09548668E-01  -8.67429074E+00   4.80253652E-01   2.38659351E-02  -2.26159302E+00  -6.81636731E-01   5.23134619E-01  -5.69516194E-02   4.55756967E-01  -1.92969989E+00  -6.18788795E+00  -2.97297164E+01  -8.11514470E-01  -7.86417136E+00  -3.44935119E+00  -5.13091257E+01  -1.78815531E+01   1.11894762E+00  -9.27885883E-01   2.38627731E-01  -3.75963675E-02  -6.98002970E-01  -2.12371867E+01  -7.76674833E+00  -1.74683547E+00  -3.44969870E+00  -1.53450934E+01   1.17339263E-01
   1.83750000E+02   5.00000000E-01   5.00000000E-01  -7.58498444E+00  -1.84218708E+00  -5.26395642E+00  -2.54779424E+00  -2.64587856E+00   1.02128217E-01  -4.72212751E+00   3.91929354E-01   1.99524182E+00   1.04815196E+00   1.96078581E+00  -2.07051646E+00  -1.11380043E+00  -1.41433074E+00  -1.08810642E+00  -2.62599362E+00  -7.73267988E-01  -8.60183734E+00   4.81576774E-01   2.40244649E-02  -2.22841678E+00  -6.53180705E-01   5.32214577E-01  -2.87338359E-02   4.73408779E-01  -1.90560438E+00  -6.17353981E+00  -2.95500174E+01  -7.91889344E-01  -7.81202700E+00  -3.42274437E+00  -5.08046856E+01  -1.76391959E+01   1.11563700E+00  -9.27640821E-01   2.43129003E-01  -3.94257873E-02  -7.08877951E-01  -2.10448787E+01  -7.76504465E+00  -1.74919456E+00  -3.41281504E+00  -1.52805736E+01   1.17339263E-01
   2.01250000E+02   5.00000000E-01   5.00000000E-01  -7.53907980E+00  -1.77263774E+00  -5.24428239E+00  -2.54561329E+00  -2.64186641E+00   1.02128217E-01  -4.66710585E+00   3.99922247E-01   1.98232212E+00   1.05574634E+00   1.95601682E+00  -2.03609330E+00  -1.09739298E+00  -1.38030838E+00  -1.06365034E+00  -2.60807898E+00  -7.39392482E-01  -8.53621487E+00   4.79142973E-01   2.41828278E-02  -2.20762355E+00  -6.31438550E-01   5.34784344E-01  -7.22600378E-03   4.84454049E-01  -1.88961391E+00  -6.15047032E+00  -2.93740542E+01  -7.72122787E-01  -7.76522384E+00  -3.40298215E+00  -5.03099771E+01  -1.74026536E+01   1.11201833E+00  -9.27008758E-01   2.46660072E-01  -4.11096294E-02  -7.19180051E-01  -2.08670190E+01  -7.75942625E+00  -1.75112537E+00  -3.37762683E+00  -1.52163279E+01   1.17339263E-01
   2.18750000E+02   5.00000000E-01   5.00000000E-01  -7.49155849E+00  -1.70731305E+00  -5.22377181E+00  -2.54047873E+00  -2.63491928E+00   1.02128217E-01  -4.61435504E+00   4.10069085E-01   1.97179277E+00   1.06549925E+00   1.95354688E+00  -2.00795032E+00  -1.08707693E+00  -1.35256138E+00  -1.04537649E+00  -2.58935116E+00  -7.07660389E-01  -8.47527127E+00   4.74539876E-01   2.43287942E-02  -2.19519241E+00  -6.13834677E-01   5.33416050E-01   1.01463134E-02   4.91466328E-01  -1.87898431E+00  -6.12081272E+00  -2.92008194E+01  -7.52223897E-01  -7.72194948E+00  -3.38765681E+00  -4.98237414E+01  -1.71712931E+01   1.10835007E+00  -9.26294832E-01   2.49253977E-01  -4.27118401E-02  -7.28932580E-01  -2.07006691E+01  -7.75090503E+00  -1.75264450E+00  -3.34419322E+00  -1.51523619E+01   1.17339263E-01
   2.36250000E+02   5.00000000E-01   5.00000000E-01  -7.44306898E+00  -1.64593236E+00  -5.20280662E+00  -2.53331211E+00  -2.62595842E+00   1.02128217E-01  -4.56379031E+00   4.21842526E-01   1.96311805E+00   1.07688237E+00   1.95284155E+00  -1.98388336E+00  -1.08065132E+00  -1.32888655E+00  -1.03108257E+00  -2.57007647E+00  -6.77872945E-01  -8.41757469E+00   4.68711487E-01   2.44577069E-02  -2.18839840E+00  -5.98791634E-01   5.29683779E-01   2.49596222E-02   4.96021063E-01  -1.87190746E+00  -6.08631763E+00  -2.90297271E+01  -7.32201562E-01  -7.68103767E+00  -3.37522257E+00  -4.93450743E+01  -1.69446192E+01   1.10474884E+00  -9.25730362E-01   2.50943495E-01  -4.42648729E-02  -7.38157813E-01  -2.05437063E+01  -7.74027071E+00  -1.75376801E+00  -3.31247580E+00  -1.50886810E+01   1.17339263E-01
   2.53750000E+02   5.00000000E-01   5.00000000E-01  -7.39405427E+00  -1.58820747E+00  -5.18162815E+00  -2.52476449E+00  -2.61563462E+00   1.02128217E-01  -4.51528521E+00   4.34803493E-01   1.95585147E+00   1.08945580E+00   1.95345563E+00  -1.96249407E+00  -1.07672092E+00  -1.30788640E+00  -1.01937212E+00  -2.55045637E+00  -6.49865500E-01  -8.36217707E+00   4.62208427E-01   2.45689605E-02  -2.18540660E+00  -5.85355265E-01   5.24538401E-01   3.81672770E-02   4.99070448E-01  -1.86719883E+00  -6.04835888E+00  -2.88604420E+01  -7.12064434E-01  -7.64174183E+00  -3.36469328E+00  -4.88733109E+01  -1.67222359E+01   1.10125552E+00  -9.25483024E-01   2.51760970E-01  -4.57852545E-02  -7.46877014E-01  -2.03945658E+01  -7.72812086E+00  -1.75451144E+00  -3.28238236E+00  -1.50252901E+01   1.17339263E-01
   2.71250000E+02   5.00000000E-01   5.00000000E-01  -7.34481281E+00  -1.53385101E+00  -5.16038658E+00  -2.51528897E+00  -2.60440070E+00   1.02128217E-01  -4.46869492E+00   4.48605703E-01   1.94964032E+00   1.10287250E+00   1.95503761E+00  -1.94290583E+00  -1.07441217E+00  -1.28868507E+00  -1.00937032E+00  -2.53063896E+00  -6.23492745E-01  -8.30845625E+00   4.55342872E-01   2.46638563E-02  -2.18499461E+00  -5.72959104E-01   5.18543179E-01   5.03350448E-02   5.01179034E-01  -1.86409037E+00  -6.00797553E+00  -2.86927758E+01  -6.91820915E-01  -7.60358845E+00  -3.35544639E+00  -4.84079503E+01  -1.65038200E+01   1.09787311E+00  -9.25668246E-01   2.51738163E-01  -4.72812677E-02  -7.55110474E-01  -2.02520717E+01  -7.71489457E+00  -1.75488980E+00  -3.25379418E+00  -1.49621940E+01   1.17339263E-01
   2.88750000E+02   5.00000000E-01   5.00000000E-01  -7.29554117E+00  -1.48258297E+00  -5.13917286E+00  -2.50519403E+00  -2.59256487E+00   1.02128217E-01  -4.42386996E+00   4.62988106E-01   1.94421795E+00   1.11687079E+00   1.95732207E+00  -1.92458069E+00  -1.07319007E+00  -1.27074525E+00  -1.00054096E+00  -2.51072972E+00  -5.98621389E-01  -8.25601045E+00   4.48283602E-01   2.47444160E-02  -2.18636317E+00  -5.61277235E-01   5.12020905E-01   6.17882200E-02   5.02670882E-01  -1.86209329E+00  -5.96592563E+00  -2.85266249E+01  -6.71479139E-01  -7.56628213E+00  -3.34709644E+00  -4.79486062E+01  -1.62891032E+01   1.09458799E+00  -9.26359935E-01   2.50906127E-01  -4.87568399E-02  -7.62877535E-01  -2.01153238E+01  -7.70090434E+00  -1.75491753E+00  -3.22658235E+00  -1.48993970E+01   1.17339263E-01
   3.06250000E+02   5.00000000E-01   5.00000000E-01  -7.24636414E+00  -1.43413531E+00  -5.11803936E+00  -2.49468303E+00  -2.58033024E+00   1.02128217E-01  -4.38066426E+00   4.77762410E-01   1.93939120E+00   1.13126176E+00   1.96011704E+00  -1.90720066E+00  -1.07273956E+00  -1.25374958E+00  -9.92567782E-01  -2.49080091E+00  -5.75126797E-01  -8.20458730E+00   4.41114157E-01   2.48127779E-02  -2.18900559E+00  -5.50132286E-01   5.05145898E-01   7.27036083E-02   5.03721559E-01  -1.86090642E+00  -5.92274045E+00  -2.83619329E+01  -6.51046959E-01  -7.52964395E+00  -3.33941266E+00  -4.74949731E+01  -1.60778595E+01   1.09138117E+00  -9.27599877E-01   2.49295091E-01  -5.02135582E-02  -7.70196629E-01  -1.99836199E+01  -7.68636385E+00  -1.75460853E+00  -3.20061738E+00  -1.48369030E+01   1.17339263E-01
   3.23750000E+02   5.00000000E-01   5.00000000E-01  -7.19735637E+00  -1.38825520E+00  -5.09701362E+00  -2.48388390E+00  -2.56782447E+00   1.02128217E-01  -4.33893952E+00   4.92799206E-01   1.93502636E+00   1.14591547E+00   1.96328999E+00  -1.89058971E+00  -1.07288740E+00  -1.23752259E+00  -9.85276381E-01  -2.47089954E+00  -5.52891775E-01  -8.15403506E+00   4.33868545E-01   2.48709204E-02  -2.19261611E+00  -5.39437396E-01   4.98002040E-01   8.31675549E-02   5.04416177E-01  -1.86035387E+00  -5.87877461E+00  -2.81986694E+01  -6.30531937E-01  -7.49357058E+00  -3.33226460E+00  -4.70468042E+01  -1.58698963E+01   1.08823399E+00  -9.29405767E-01   2.46934363E-01  -5.16517377E-02  -7.77085316E-01  -1.98564032E+01  -7.67141181E+00  -1.75397616E+00  -3.17577470E+00  -1.47747158E+01   1.17339263E-01
   3.41250000E+02   5.00000000E-01   5.00000000E-01  -7.14855837E+00  -1.34470740E+00  -5.07610750E+00  -2.47287181E+00  -2.55512248E+00   1.02128216E-01  -4.29856773E+00   5.08014316E-01   1.93103543E+00   1.16074722E+00   1.96675408E+00  -1.87466102E+00  -1.07354955E+00  -1.22197795E+00  -9.78581536E-01  -2.45105416E+00  -5.31806550E-01  -8.10426826E+00   4.26553359E-01   2.49205587E-02  -2.19702363E+00  -5.29158974E-01   4.90620014E-01   9.32131766E-02   5.04786631E-01  -1.86034146E+00  -5.83425085E+00  -2.80368164E+01  -6.09941333E-01  -7.45800664E+00  -3.32558522E+00  -4.66038944E+01  -1.56650470E+01   1.08513058E+00  -9.31778003E-01   2.43852252E-01  -5.30709992E-02  -7.83560311E-01  -1.97332240E+01  -7.65613211E+00  -1.75303322E+00  -3.15193779E+00  -1.47128387E+01   1.17339263E-01
   3.58750000E+02   5.00000000E-01   5.00000000E-01  -7.09998863E+00  -1.30327629E+00  -5.05532360E+00  -2.46168709E+00  -2.54226434E+00   1.02128216E-01  -4.25943243E+00   5.23356115E-01   1.92736330E+00   1.17570493E+00   1.97045535E+00  -1.85938044E+00  -1.07469458E+00  -1.20708203E+00  -9.72450665E-01  -2.43128057E+00  -5.11769398E-01  -8.05524270E+00   4.19161674E-01   2.49631284E-02  -2.20214254E+00  -5.19292284E-01   4.83001714E-01   1.02844771E-01   5.04836014E-01  -1.86082537E+00  -5.78929931E+00  -2.78763615E+01  -5.89282106E-01  -7.42292542E+00  -3.31934526E+00  -4.61660700E+01  -1.54631666E+01   1.08205854E+00  -9.34705451E-01   2.40076002E-01  -5.44705881E-02  -7.89637528E-01  -1.96137121E+01  -7.64057085E+00  -1.75179197E+00  -3.12900001E+00  -1.46512745E+01   1.17339263E-01
   3.76250000E+02   5.00000000E-01   5.00000000E-01  -7.05165286E+00  -1.26376728E+00  -5.03465984E+00  -2.45034914E+00  -2.52926923E+00   1.02128216E-01  -4.22142940E+00   5.38794407E-01   1.92397654E+00   1.19075797E+00   1.97436149E+00  -1.84474089E+00  -1.07631802E+00  -1.19282816E+00  -9.66878183E-01  -2.41158651E+00  -4.92687481E-01  -8.00693715E+00   4.11681777E-01   2.49998102E-02  -2.20793591E+00  -5.09845306E-01   4.75136382E-01   1.12053953E-01   5.04554751E-01  -1.86178929E+00  -5.74399075E+00  -2.77172928E+01  -5.68560910E-01  -7.38831525E+00  -3.31353513E+00  -4.57331792E+01  -1.52641273E+01   1.07900879E+00  -9.38170191E-01   2.35631740E-01  -5.58495515E-02  -7.95332104E-01  -1.94975570E+01  -7.62475051E+00  -1.75026411E+00  -3.10686559E+00  -1.45900261E+01   1.17339263E-01
   3.93750000E+02   5.00000000E-01   5.00000000E-01  -7.00355065E+00  -1.22600747E+00  -5.01411242E+00  -2.43886675E+00  -2.51614569E+00   1.02128216E-01  -4.18446666E+00   5.54311512E-01   1.92085441E+00   1.20588825E+00   1.97845288E+00  -1.83074512E+00  -1.07842520E+00  -1.17921951E+00  -9.61868289E-01  -2.39197533E+00  -4.74477472E-01  -7.95934055E+00   4.04102378E-01   2.50315698E-02  -2.21438934E+00  -5.00828538E-01   4.67010808E-01   1.20829851E-01   5.03930797E-01  -1.86322861E+00  -5.69836254E+00  -2.75595975E+01  -5.47784090E-01  -7.35417036E+00  -3.30815267E+00  -4.53050869E+01  -1.50678156E+01   1.07597490E+00  -9.42151187E-01   2.30544437E-01  -5.72068392E-02  -8.00658444E-01  -1.93844919E+01  -7.60868077E+00  -1.74846085E+00  -3.08544988E+00  -1.45290956E+01   1.17339263E-01
   4.11250000E+02   5.00000000E-01   5.00000000E-01  -6.95567961E+00  -1.18984513E+00  -4.99367759E+00  -2.42724463E+00  -2.50289820E+00   1.02128216E-01  -4.14846383E+00   5.69896198E-01   1.91798272E+00   1.22108417E+00   1.98271645E+00  -1.81739582E+00  -1.08102132E+00  -1.16625914E+00  -9.57425084E-01  -2.37244835E+00  -4.57065588E-01  -7.91244434E+00   3.96415158E-01   2.50592029E-02  -2.22149492E+00  -4.92249568E-01   4.58614752E-01   1.29164535E-01   5.02955062E-01  -1.86514103E+00  -5.65243601E+00  -2.74032606E+01  -5.26957690E-01  -7.32048555E+00  -3.30319614E+00  -4.48816702E+01  -1.48741303E+01   1.07295252E+00  -9.46626691E-01   2.24837882E-01  -5.85413615E-02  -8.05630241E-01  -1.92742846E+01  -7.59236570E+00  -1.74639286E+00  -3.06467896E+00  -1.44684850E+01   1.17339263E-01
   4.28750000E+02   5.00000000E-01   5.00000000E-01  -6.90803718E+00  -1.15514766E+00  -4.97335231E+00  -2.41548634E+00  -2.48953009E+00   1.02128216E-01  -4.11335098E+00   5.85540619E-01   1.91535078E+00   1.23633755E+00   1.98714257E+00  -1.80469202E+00  -1.08410788E+00  -1.15394645E+00  -9.53548980E-01  -2.35300602E+00  -4.40386863E-01  -7.86623931E+00   3.88615314E-01   2.50833740E-02  -2.22924461E+00  -4.84111477E-01   4.49942541E-01   1.37054610E-01   5.01623009E-01  -1.86752276E+00  -5.60622495E+00  -2.72482646E+01  -5.06087450E-01  -7.28725421E+00  -3.29866162E+00  -4.44628156E+01  -1.46829801E+01   1.06993882E+00  -9.51575401E-01   2.18534665E-01  -5.98520218E-02  -8.10260519E-01  -1.91667295E+01  -7.57580713E+00  -1.74407028E+00  -3.04448850E+00  -1.44081960E+01   1.17339263E-01
   4.46250000E+02   5.00000000E-01   5.00000000E-01  -6.86062060E+00  -1.12179871E+00  -4.95313409E+00  -2.40359444E+00  -2.47604370E+00   1.02128216E-01  -4.07906691E+00   6.01239683E-01   1.91295072E+00   1.25164298E+00   1.99172446E+00  -1.79262994E+00  -1.08768350E+00  -1.14227797E+00  -9.50237514E-01  -2.33364809E+00  -4.24383824E-01  -7.82071589E+00   3.80700825E-01   2.51046489E-02  -2.23763034E+00  -4.76413794E-01   4.40992114E-01   1.44500267E-01   4.99933696E-01  -1.87036894E+00  -5.55973706E+00  -2.70945910E+01  -4.85178816E-01  -7.25446878E+00  -3.29454353E+00  -4.40484182E+01  -1.44942825E+01   1.06693223E+00  -9.56976633E-01   2.11656166E-01  -6.11377375E-02  -8.14561652E-01  -1.90616443E+01  -7.55900516E+00  -1.74150280E+00  -3.02482231E+00  -1.43482300E+01   1.17339263E-01
   4.63750000E+02   5.00000000E-01   5.00000000E-01  -6.81342614E+00  -1.08969495E+00  -4.93302051E+00  -2.39156944E+00  -2.46243931E+00   1.02128215E-01  -4.04555755E+00   6.16991644E-01   1.91077812E+00   1.26699845E+00   1.99645876E+00  -1.78120560E+00  -1.09174653E+00  -1.13124998E+00  -9.47487992E-01  -2.31437325E+00  -4.09004970E-01  -7.77586580E+00   3.72671295E-01   2.51235165E-02  -2.24664722E+00  -4.69154403E-01   4.31763111E-01   1.51503366E-01   4.97887864E-01  -1.87367578E+00  -5.51297195E+00  -2.69422199E+01  -4.64236944E-01  -7.22212204E+00  -3.29083650E+00  -4.36383806E+01  -1.43079621E+01   1.06393223E+00  -9.62810016E-01   2.04222556E-01  -6.23974506E-02  -8.18545402E-01  -1.89588669E+01  -7.54195726E+00  -1.73869960E+00  -3.00563065E+00  -1.42885880E+01   1.17339263E-01
   4.81250000E+02   5.00000000E-01   5.00000000E-01  -6.76644855E+00  -1.05874348E+00  -4.91300888E+00  -2.37940893E+00  -2.44871431E+00   1.02128215E-01  -4.01277456E+00   6.32798607E-01   1.90883248E+00   1.28240580E+00   2.00134600E+00  -1.77041679E+00  -1.09629708E+00  -1.12086056E+00  -9.45299463E-01  -2.29517896E+00  -3.94203536E-01  -7.73168332E+00   3.64527123E-01   2.51404021E-02  -2.25629604E+00  -4.62330947E-01   4.22255468E-01   1.58066044E-01   4.95486540E-01  -1.87744218E+00  -5.46591943E+00  -2.67911314E+01  -4.43266705E-01  -7.19020822E+00  -3.28753668E+00  -4.32326123E+01  -1.41239503E+01   1.06093933E+00  -9.69055228E-01   1.96252805E-01  -6.36301356E-02  -8.22222942E-01  -1.88582532E+01  -7.52465746E+00  -1.73566941E+00  -2.98686902E+00  -1.42292707E+01   1.17339262E-01
   4.98750000E+02   5.00000000E-01   5.00000000E-01  -6.71968121E+00  -1.02886044E+00  -4.89309631E+00  -2.36710795E+00  -2.43486352E+00   1.02128215E-01  -3.98067459E+00   6.48666036E-01   1.90711675E+00   1.29787029E+00   2.00639018E+00  -1.76026291E+00  -1.10133676E+00  -1.11110930E+00  -9.43672528E-01  -2.27606153E+00  -3.79936840E-01  -7.68816506E+00   3.56269374E-01   2.51556750E-02  -2.26658254E+00  -4.55940883E-01   4.12469359E-01   1.64190648E-01   4.92730968E-01  -1.88166941E+00  -5.41856086E+00  -2.66413050E+01  -4.22272697E-01  -7.15872281E+00  -3.28464168E+00  -4.28310288E+01  -1.39421837E+01   1.05795486E+00  -9.75692155E-01   1.87764693E-01  -6.48348020E-02  -8.25604883E-01  -1.87596749E+01  -7.50709690E+00  -1.73242051E+00  -2.96849744E+00  -1.41702787E+01   1.17339262E-01
   5.16250000E+02   5.00000000E-01   5.00000000E-01  -6.67311721E+00  -9.99970673E-01  -4.87328007E+00  -2.35466071E+00  -2.42088094E+00   1.02128215E-01  -3.94921902E+00   6.64601110E-01   1.90563569E+00   1.31339891E+00   2.01159705E+00  -1.75074247E+00  -1.10686631E+00  -1.10199495E+00  -9.42606894E-01  -2.25701682E+00  -3.66166226E-01  -7.64530792E+00   3.47900359E-01   2.51696527E-02  -2.27751335E+00  -4.49980202E-01   4.02406480E-01   1.69881023E-01   4.89623903E-01  -1.88635871E+00  -5.37087375E+00  -2.64927198E+01  -4.01259248E-01  -7.12766129E+00  -3.28214872E+00  -4.24335505E+01  -1.37626041E+01   1.05498083E+00  -9.82701493E-01   1.78774832E-01  -6.60104961E-02  -8.28701302E-01  -1.86630162E+01  -7.48926567E+00  -1.72896075E+00  -2.95048018E+00  -1.41116120E+01   1.17339261E-01
   5.33750000E+02   5.00000000E-01   5.00000000E-01  -6.62675088E+00  -9.72008069E-01  -4.85355829E+00  -2.34206299E+00  -2.40676215E+00   1.02128215E-01  -3.91837397E+00   6.80610447E-01   1.90439351E+00   1.32899811E+00   2.01697183E+00  -1.74184960E+00  -1.11288198E+00  -1.09351176E+00  -9.42097809E-01  -2.23804108E+00  -3.52857369E-01  -7.60310639E+00   3.39424509E-01   2.51826061E-02  -2.28909012E+00  -4.44441504E-01   3.92071967E-01   1.75144431E-01   4.86171524E-01  -1.89150791E+00  -5.32283823E+00  -2.63453544E+01  -3.80230426E-01  -7.09701719E+00  -3.28005218E+00  -4.20401013E+01  -1.35851573E+01   1.05201964E+00  -9.90065613E-01   1.69298696E-01  -6.71563006E-02  -8.31521762E-01  -1.85681714E+01  -7.47115552E+00  -1.72529759E+00  -2.93278594E+00  -1.40532708E+01   1.17339260E-01
   5.51250000E+02   5.00000000E-01   5.00000000E-01  -6.58057907E+00  -9.44915879E-01  -4.83393044E+00  -2.32931416E+00  -2.39250634E+00   1.02128214E-01  -3.88811037E+00   6.96698115E-01   1.90339193E+00   1.34467183E+00   2.02251724E+00  -1.73357106E+00  -1.11937263E+00  -1.08564666E+00  -9.42133168E-01  -2.21913178E+00  -3.39980549E-01  -7.56155013E+00   3.30849041E-01   2.51947667E-02  -2.30130465E+00  -4.39312495E-01   3.81475900E-01   1.79993058E-01   4.82384938E-01  -1.89710856E+00  -5.27444272E+00  -2.61991862E+01  -3.59190051E-01  -7.06678054E+00  -3.27834145E+00  -4.16506080E+01  -1.34097930E+01   1.04907382E+00  -9.97769287E-01   1.59350650E-01  -6.82713334E-02  -8.34075342E-01  -1.84750417E+01  -7.45276210E+00  -1.72143806E+00  -2.91538785E+00  -1.39952546E+01   1.17339258E-01
   5.68750000E+02   5.00000000E-01   5.00000000E-01  -6.53460158E+00  -9.18646269E-01  -4.81439747E+00  -2.31641799E+00  -2.37811705E+00   1.02128214E-01  -3.85840361E+00   7.12864783E-01   1.90262928E+00   1.36042063E+00   2.02823257E+00  -1.72588567E+00  -1.12631912E+00  -1.07837855E+00  -9.42692836E-01  -2.20028783E+00  -3.27510523E-01  -7.52062335E+00   3.22183929E-01   2.52063367E-02  -2.31413732E+00  -4.34575813E-01   3.70633476E-01   1.84444181E-01   4.78280355E-01  -1.90314512E+00  -5.22568614E+00  -2.60541922E+01  -3.38141698E-01  -7.03693747E+00  -3.27700047E+00  -4.12649992E+01  -1.32364643E+01   1.04614591E+00  -1.00579994E+00   1.48943995E-01  -6.93547480E-02  -8.36370655E-01  -1.83835345E+01  -7.43408589E+00  -1.71738883E+00  -2.89826326E+00  -1.39375629E+01   1.17339256E-01
   5.86250000E+02   5.00000000E-01   5.00000000E-01  -6.48882040E+00  -8.93158885E-01  -4.79496137E+00  -2.30338149E+00  -2.36360112E+00   1.02128214E-01  -3.82923284E+00   7.29108441E-01   1.90210124E+00   1.37624243E+00   2.03411446E+00  -1.71876643E+00  -1.13369647E+00  -1.07168055E+00  -9.43750881E-01  -2.18150931E+00  -3.15425836E-01  -7.48030630E+00   3.13441033E-01   2.52175003E-02  -2.32756009E+00  -4.30210540E-01   3.59563495E-01   1.88518661E-01   4.73877575E-01  -1.90959688E+00  -5.17657569E+00  -2.59103488E+01  -3.17088714E-01  -7.00747139E+00  -3.27600928E+00  -4.08832060E+01  -1.30651270E+01   1.04323831E+00  -1.01414730E+00   1.38091007E-01  -7.04057333E-02  -8.38415869E-01  -1.82935628E+01  -7.41513116E+00  -1.71315622E+00  -2.88139297E+00  -1.38801949E+01   1.17339251E-01
   6.03750000E+02   5.00000000E-01   5.00000000E-01  -6.44323810E+00  -8.68418591E-01  -4.77562445E+00  -2.29021246E+00  -2.34896617E+00   1.02128214E-01  -3.80057980E+00   7.45426438E-01   1.90180291E+00   1.39213452E+00   2.04015894E+00  -1.71218515E+00  -1.14147845E+00  -1.06552450E+00  -9.45280122E-01  -2.16279659E+00  -3.03707665E-01  -7.44057849E+00   3.04632576E-01   2.52284345E-02  -2.34154299E+00  -4.26195038E-01   3.48285524E-01   1.92238104E-01   4.69197149E-01  -1.91644203E+00  -5.12712077E+00  -2.57676330E+01  -2.96034222E-01  -6.97836538E+00  -3.27534722E+00  -4.05051616E+01  -1.28957400E+01   1.04035342E+00  -1.02280244E+00   1.26802982E-01  -7.14235163E-02  -8.40218734E-01  -1.82050457E+01  -7.39590343E+00  -1.70874619E+00  -2.86476019E+00  -1.38231496E+01   1.17339245E-01
   6.21250000E+02   5.00000000E-01   5.00000000E-01  -6.39785574E+00  -8.44392939E-01  -4.75638828E+00  -2.27691636E+00  -2.33421745E+00   1.02128213E-01  -3.77242766E+00   7.61818087E-01   1.90173138E+00   1.40809619E+00   2.04636407E+00  -1.70611780E+00  -1.14964292E+00  -1.05988642E+00  -9.47257504E-01  -2.14414924E+00  -2.92338487E-01  -7.40142268E+00   2.95769430E-01   2.52393160E-02  -2.35606219E+00  -4.22510218E-01   3.36816626E-01   1.95621591E-01   4.64257110E-01  -1.92366248E+00  -5.07732531E+00  -2.56260227E+01  -2.74981132E-01  -6.94960505E+00  -3.27499673E+00  -4.01308028E+01  -1.27282642E+01   1.03749369E+00  -1.03175671E+00   1.15090286E-01  -7.24073646E-02  -8.41786594E-01  -1.81179103E+01  -7.37640620E+00  -1.70416440E+00  -2.84834936E+00  -1.37664258E+01   1.17339235E-01