 TITLE = "Mineral Saturation State" 
VARIABLES = "X"          "Y"              "Z"            "Forsterite"     "Fayalite"       "Brucite"        "Lizardite"      "Chrysotile"     "Hematite"       "Magnetite(am)"  "Saponite(Ca)"   "Saponite(K)"    "Saponite(Mg)"   "Saponite(Na)"   "Beidellite(Ca)" "Beidellite(K)"  "Beidellite(Mg)" "Beidellite(Na)" "Enstatite(alph" "Ferrosilite(al" "Anorthite"      "Albite(low)"    "Clinochlore"    "Sudoite"        "Montmor(MgCa)"  "Montmor(MgK)"   "Montmor(MgMg)"  "Montmor(MgNa)"  "Kaolinite"      "Tremolite"      "Pargasite"      "Anhydrite"      "Epidote"        "Scolecite"      "Pyrite"         "FeS(am)"        "Quartz(alpha)" 
 ZONE I=         200 , J=           1 , K=           1  F=POINT
   8.75000000E+00   5.00000000E-01   5.00000000E-01  -7.12068077E+00  -3.02556579E+00  -4.77516365E+00  -1.37631828E+00  -1.49380659E+00   9.49339420E-03  -5.39583107E+00   5.41762373E-01   2.36890927E+00   1.20272141E+00   2.24763812E+00  -6.27577134E+00  -5.12779027E+00  -5.61480958E+00  -5.18786421E+00  -2.56557309E+00  -1.58017123E+00  -1.14743721E+01  -1.48155026E+00   1.83488086E-01  -6.36097577E+00  -3.96745020E+00  -2.57855571E+00  -3.34001794E+00  -2.72763727E+00  -4.95599188E+00  -5.12536122E+00  -3.25363841E+01  -9.80333205E-01  -1.02863470E+01  -6.26767813E+00  -3.29699811E+01  -4.54500631E+00   7.04162642E-01
   2.62500000E+01   5.00000000E-01   5.00000000E-01  -7.69192737E+00  -2.98640039E+00  -5.14250325E+00  -2.22737122E+00  -2.34282489E+00   9.49339418E-03  -5.43244680E+00   1.41630874E-01   1.94153858E+00   8.02035360E-01   1.82952184E+00  -4.00520741E+00  -2.87741113E+00  -3.34480580E+00  -2.92833386E+00  -2.77810830E+00  -1.48297182E+00  -1.00038675E+01  -4.70686644E-01   1.81848208E-01  -3.69867942E+00  -2.29054579E+00  -9.23116885E-01  -1.66348342E+00  -1.06257596E+00  -3.15027745E+00  -6.56758040E+00  -3.17198194E+01  -9.62501277E-01  -9.06813111E+00  -4.68921527E+00  -3.24693977E+01  -4.47393609E+00   8.57435005E-01
   4.37500000E+01   5.00000000E-01   5.00000000E-01  -7.84887861E+00  -2.82690753E+00  -5.27283660E+00  -2.48621309E+00  -2.59965397E+00   9.49339417E-03  -5.37925009E+00   1.03525725E-01   1.87970658E+00   7.63423406E-01   1.77683947E+00  -3.09243098E+00  -1.98459618E+00  -2.43254137E+00  -2.02647203E+00  -2.81332516E+00  -1.35547971E+00  -9.42422232E+00  -2.43792762E-02   1.79490470E-01  -2.75680765E+00  -1.56833369E+00  -2.22133782E-01  -9.41595698E-01  -3.52079438E-01  -2.47202536E+00  -6.82769657E+00  -3.12335975E+01  -9.44452412E-01  -8.56331747E+00  -4.06101800E+00  -3.21534034E+01  -4.41600086E+00   9.50980723E-01
   6.12500000E+01   5.00000000E-01   5.00000000E-01  -7.89090078E+00  -2.66517852E+00  -5.32559966E+00  -2.59214784E+00  -2.70359745E+00   9.49339416E-03  -5.30503700E+00   1.19063698E-01   1.87230425E+00   7.78488625E-01   1.77850055E+00  -2.62848480E+00  -1.54041084E+00  -1.96907273E+00  -1.57332507E+00  -2.81115346E+00  -1.24698658E+00  -9.11675861E+00   2.05716031E-01   1.76752067E-01  -2.31768535E+00  -1.19069996E+00   1.34484658E-01  -5.64254494E-01   1.39625010E-02  -2.14320135E+00  -6.86556736E+00  -3.08882920E+01  -9.26186348E-01  -8.29308338E+00  -3.74490373E+00  -3.19034727E+01  -4.36825183E+00   1.00430744E+00
   7.87500000E+01   5.00000000E-01   5.00000000E-01  -7.89742954E+00  -2.52751548E+00  -5.34788365E+00  -2.65696286E+00  -2.76644234E+00   9.49339415E-03  -5.23032958E+00   1.25651043E-01   1.85615269E+00   7.84628907E-01   1.77132891E+00  -2.34224901E+00  -1.27374056E+00  -1.68328841E+00  -1.29777565E+00  -2.80393714E+00  -1.16326899E+00  -8.90659516E+00   3.36530276E-01   1.74825292E-01  -2.04640912E+00  -9.62947468E-01   3.41430041E-01  -3.36770992E-01   2.30244318E-01  -1.94188142E+00  -6.89277083E+00  -3.06127533E+01  -9.07709296E-01  -8.11484835E+00  -3.55124556E+00  -3.16871610E+01  -4.33159514E+00   1.03216386E+00
   9.62500000E+01   5.00000000E-01   5.00000000E-01  -7.88276916E+00  -2.40582361E+00  -5.35219029E+00  -2.69677217E+00  -2.80430232E+00   9.49339415E-03  -5.15642763E+00   1.28068686E-01   1.83605096E+00   7.86620115E-01   1.76011794E+00  -2.16050720E+00  -1.11136497E+00  -1.50197710E+00  -1.12660926E+00  -2.79347830E+00  -1.09492888E+00  -8.75388536E+00   4.09383689E-01   1.74198051E-01  -1.87405803E+00  -8.22985150E-01   4.60797229E-01  -1.97059147E-01   3.58855066E-01  -1.81574632E+00  -6.91117826E+00  -3.03775961E+01  -8.89030416E-01  -7.99054391E+00  -3.42949883E+00  -3.14917703E+01  -4.30216873E+00   1.04525096E+00
   1.13750000E+02   5.00000000E-01   5.00000000E-01  -7.85271720E+00  -2.29407642E+00  -5.34483865E+00  -2.71685894E+00  -2.82246025E+00   9.49339414E-03  -5.08373585E+00   1.33158871E-01   1.81889100E+00   7.91300074E-01   1.75175349E+00  -2.04661639E+00  -1.01663645E+00  -1.38850024E+00  -1.02318463E+00  -2.77925501E+00  -1.03553169E+00  -8.64040749E+00   4.47067175E-01   1.74609509E-01  -1.77109453E+00  -7.37675779E-01   5.25727883E-01  -1.11986103E-01   4.32930131E-01  -1.74028062E+00  -6.91025868E+00  -3.01665388E+01  -8.70159525E-01  -7.90140616E+00  -3.35460244E+00  -3.13107390E+01  -4.27784325E+00   1.05041106E+00
   1.31250000E+02   5.00000000E-01   5.00000000E-01  -7.81216221E+00  -2.19011048E+00  -5.33026745E+00  -2.72256854E+00  -2.82626117E+00   9.49339414E-03  -5.01316465E+00   1.43092488E-01   1.80685910E+00   8.00835984E-01   1.74841775E+00  -1.97538948E+00  -9.64365478E-01  -1.31767443E+00  -9.62316461E-01  -2.76171668E+00  -9.82000294E-01  -8.55291034E+00   4.64182583E-01   1.75502731E-01  -1.71506163E+00  -6.85279591E-01   5.57964006E-01  -5.98157449E-02   4.74207347E-01  -1.69781558E+00  -6.88914058E+00  -2.99699131E+01  -8.51106472E-01  -7.83461723E+00  -3.30931750E+00  -3.11402110E+01  -4.25783565E+00   1.05163474E+00
   1.48750000E+02   5.00000000E-01   5.00000000E-01  -7.76479626E+00  -2.09310040E+00  -5.31141119E+00  -2.71835758E+00  -2.82016135E+00   9.49339413E-03  -4.94538749E+00   1.57842018E-01   1.79992529E+00   8.15197538E-01   1.75007864E+00  -1.93031614E+00  -9.38041448E-01  -1.27299216E+00  -9.27496353E-01  -2.74162056E+00  -9.32832608E-01  -8.48223325E+00   4.69661975E-01   1.76440809E-01  -1.68986062E+00  -6.52170008E-01   5.71132269E-01  -2.69242417E-02   4.96311241E-01  -1.67627200E+00  -6.85092939E+00  -2.97821074E+01  -8.31881026E-01  -7.78176282E+00  -3.28230776E+00  -3.09777681E+01  -4.24174273E+00   1.05110046E+00
   1.66250000E+02   5.00000000E-01   5.00000000E-01  -7.71337150E+00  -2.00274173E+00  -5.29018599E+00  -2.70782107E+00  -2.80775551E+00   9.49339413E-03  -4.88078993E+00   1.76325640E-01   1.79699554E+00   8.33300857E-01   1.75564154E+00  -1.90056999E+00  -9.26839323E-01  -1.24362912E+00  -9.07899952E-01  -2.71980232E+00  -8.87335451E-01  -8.42196948E+00   4.68866477E-01   1.77214228E-01  -1.68379499E+00  -6.29895828E-01   5.73682368E-01  -4.86240657E-03   5.07690885E-01  -1.66733872E+00  -6.80038489E+00  -2.95998441E+01  -8.12492843E-01  -7.73726517E+00  -3.26608768E+00  -3.08218105E+01  -4.22927259E+00   1.04988987E+00
   1.83750000E+02   5.00000000E-01   5.00000000E-01  -7.65992877E+00  -1.91891575E+00  -5.26784008E+00  -2.69379923E+00  -2.79188356E+00   9.49339413E-03  -4.81953817E+00   1.97072628E-01   1.79658287E+00   8.53673679E-01   1.76361977E+00  -1.87901191E+00  -9.23622344E-01  -1.22244775E+00  -8.96390176E-01  -2.69705428E+00  -8.45220819E-01  -8.36759086E+00   4.64968639E-01   1.77785425E-01  -1.68829454E+00  -6.13238271E-01   5.70830544E-01   1.15870418E-02   5.13562903E-01  -1.66524809E+00  -6.74259372E+00  -2.94212005E+01  -7.92951437E-01  -7.69738474E+00  -3.25567488E+00  -3.06712330E+01  -4.22016800E+00   1.04846000E+00
   2.01250000E+02   5.00000000E-01   5.00000000E-01  -7.60548473E+00  -1.84106883E+00  -5.24497958E+00  -2.67772595E+00  -2.77397908E+00   9.49339412E-03  -4.76145094E+00   2.19292612E-01   1.79788630E+00   8.75524487E-01   1.77321315E+00  -1.86212051E+00  -9.24871900E-01  -1.20592781E+00  -8.89447659E-01  -2.67378672E+00  -8.06113297E-01  -8.31682105E+00   4.59494971E-01   1.78176064E-01  -1.69902790E+00  -5.99660082E-01   5.65111108E-01   2.49602494E-02   5.16462416E-01  -1.66712416E+00  -6.68023249E+00  -2.92452037E+01  -7.73266185E-01  -7.66025390E+00  -3.24859887E+00  -3.05252466E+01  -4.21405339E+00   1.04700779E+00
   2.18750000E+02   5.00000000E-01   5.00000000E-01  -7.55047254E+00  -1.76845524E+00  -5.22186516E+00  -2.66021348E+00  -2.75465403E+00   9.49339412E-03  -4.70619729E+00   2.42659429E-01   1.80057309E+00   8.98526191E-01   1.78408990E+00  -1.84834484E+00  -9.29039969E-01  -1.19251929E+00  -8.85523409E-01  -2.65017186E+00  -7.69595164E-01  -8.26865247E+00   4.53122796E-01   1.78415094E-01  -1.71409097E+00  -5.88038166E-01   5.57644043E-01   3.63794248E-02   5.17510435E-01  -1.67170392E+00  -6.61442145E+00  -2.90713800E+01  -7.53446281E-01  -7.62503702E+00  -3.24376535E+00  -3.03832649E+01  -4.21052335E+00   1.04562271E+00
   2.36250000E+02   5.00000000E-01   5.00000000E-01  -7.49540807E+00  -1.70067439E+00  -5.19875124E+00  -2.64204566E+00  -2.73469197E+00   9.49339411E-03  -4.65357122E+00   2.66563878E-01   1.80402496E+00   9.22068758E-01   1.79563297E+00  -1.83616773E+00  -9.34612543E-01  -1.18070588E+00  -8.83102196E-01  -2.62647093E+00  -7.35468882E-01  -8.22199407E+00   4.46380765E-01   1.78545495E-01  -1.73131634E+00  -5.77404667E-01   5.49393891E-01   4.68116232E-02   5.17672778E-01  -1.67764673E+00  -6.54699973E+00  -2.88993856E+01  -7.33500673E-01  -7.59090443E+00  -3.24009181E+00  -3.02448379E+01  -4.20930297E+00   1.04429899E+00
   2.53750000E+02   5.00000000E-01   5.00000000E-01  -7.44040271E+00  -1.63711954E+00  -5.17569004E+00  -2.62339948E+00  -2.71426961E+00   9.49339410E-03  -4.60326374E+00   2.90864049E-01   1.80809505E+00   9.46009568E-01   1.80769676E+00  -1.82523480E+00  -9.41238394E-01  -1.17013392E+00  -8.81831513E-01  -2.60274292E+00  -7.03433863E-01  -8.17657651E+00   4.39386879E-01   1.78598571E-01  -1.75017828E+00  -5.67537860E-01   5.40579071E-01   5.64778977E-02   5.17169199E-01  -1.68463511E+00  -6.47839192E+00  -2.87290983E+01  -7.13438080E-01  -7.55764650E+00  -3.23731737E+00  -3.01096132E+01  -4.21008075E+00   1.04303086E+00
   2.71250000E+02   5.00000000E-01   5.00000000E-01  -7.38552491E+00  -1.57728203E+00  -5.15270924E+00  -2.60439052E+00  -2.69350225E+00   9.49339409E-03  -4.55501186E+00   3.15453840E-01   1.81267267E+00   9.70241865E-01   1.82017194E+00  -1.81534491E+00  -9.48719534E-01  -1.16060291E+00  -8.81512000E-01  -2.57902841E+00  -6.73241649E-01  -8.13223369E+00   4.32195276E-01   1.78595022E-01  -1.77035066E+00  -5.58323822E-01   5.31310172E-01   6.54915518E-02   5.16111711E-01  -1.69247912E+00  -6.40890046E+00  -2.85604470E+01  -6.93266961E-01  -7.52513877E+00  -3.23529061E+00  -2.99773079E+01  -4.21259872E+00   1.04180633E+00
   2.88750000E+02   5.00000000E-01   5.00000000E-01  -7.33087016E+00  -1.52078586E+00  -5.12984614E+00  -2.58517873E+00  -2.67254958E+00   9.49339409E-03  -4.50861501E+00   3.40179340E-01   1.81759894E+00   9.94611128E-01   1.83290110E+00  -1.80624995E+00  -9.56811076E-01  -1.15186540E+00  -8.81897322E-01  -2.55538544E+00  -6.44714053E-01  -8.08875896E+00   4.24864776E-01   1.78550378E-01  -1.79141770E+00  -5.49630123E-01   5.21716273E-01   7.39844376E-02   5.14630895E-01  -1.70093849E+00  -6.33895812E+00  -2.83933711E+01  -6.72995504E-01  -7.49323380E+00  -3.23382739E+00  -2.98476921E+01  -4.21665817E+00   1.04060556E+00
   3.06250000E+02   5.00000000E-01   5.00000000E-01  -7.27655498E+00  -1.46735751E+00  -5.10714558E+00  -2.56595850E+00  -2.65160571E+00   9.49339408E-03  -4.46392098E+00   3.64850010E-01   1.82267808E+00   1.01892625E+00   1.84568994E+00  -1.79766406E+00  -9.65230364E-01  -1.14363610E+00  -8.82703300E-01  -2.53188553E+00  -6.17727098E-01  -8.04591341E+00   4.17458648E-01   1.78476814E-01  -1.81289255E+00  -5.41308774E-01   5.11942000E-01   8.21040024E-02   5.12872952E-01  -1.70973288E+00  -6.26909807E+00  -2.82278175E+01  -6.52631621E-01  -7.46176552E+00  -3.23271718E+00  -2.97205771E+01  -4.22210634E+00   1.03940277E+00
   3.23750000E+02   5.00000000E-01   5.00000000E-01  -7.22269891E+00  -1.41679048E+00  -5.08465261E+00  -2.54692999E+00  -2.63087055E+00   9.49339406E-03  -4.42080970E+00   3.89266049E-01   1.82770500E+00   1.04298688E+00   1.85833494E+00  -1.78930411E+00  -9.73697459E-01  -1.13563241E+00  -8.83648425E-01  -2.50860309E+00  -5.92191696E-01  -8.00345767E+00   4.10035025E-01   1.78384106E-01  -1.83428416E+00  -5.33217614E-01   5.02126162E-01   8.99919079E-02   5.10978310E-01  -1.71858119E+00  -6.19987663E+00  -2.80637413E+01  -6.32182943E-01  -7.43057045E+00  -3.23175177E+00  -2.95958063E+01  -4.22882269E+00   1.03816943E+00
   3.41250000E+02   5.00000000E-01   5.00000000E-01  -7.16940556E+00  -1.36891337E+00  -5.06240471E+00  -2.52826897E+00  -2.61051963E+00   9.49339405E-03  -4.37917916E+00   4.13247580E-01   1.83249475E+00   1.06661267E+00   1.87065273E+00  -1.78093200E+00  -9.81977454E-01  -1.12761675E+00  -8.84496183E-01  -2.48560413E+00  -5.68035909E-01  -7.96118561E+00   4.02637218E-01   1.78280326E-01  -1.85516811E+00  -5.25242340E-01   4.92379730E-01   9.77619967E-02   5.09059599E-01  -1.72724286E+00  -6.13179086E+00  -2.79011075E+01  -6.11656811E-01  -7.39951011E+00  -3.23075532E+00  -2.94732484E+01  -4.23670700E+00   1.03687782E+00
   3.58750000E+02   5.00000000E-01   5.00000000E-01  -7.11673529E+00  -1.32355302E+00  -5.04042053E+00  -2.51008347E+00  -2.59066072E+00   9.49339404E-03  -4.33892922E+00   4.36675695E-01   1.83692390E+00   1.08968426E+00   1.88252150E+00  -1.77241807E+00  -9.89943840E-01  -1.11945991E+00  -8.85118446E-01  -2.46293030E+00  -5.45184167E-01  -7.91897407E+00   3.95278160E-01   1.78172123E-01  -1.87529076E+00  -5.17330510E-01   4.82751855E-01   1.05466291E-01   5.07167636E-01  -1.73557896E+00  -6.06516194E+00  -2.77398946E+01  -5.91060270E-01  -7.36850479E+00  -3.22962944E+00  -2.93527914E+01  -4.24566630E+00   1.03550573E+00
   3.76250000E+02   5.00000000E-01   5.00000000E-01  -7.06471132E+00  -1.28053287E+00  -5.01870348E+00  -2.49242242E+00  -2.57134251E+00   9.49339403E-03  -4.29996143E+00   4.59487696E-01   1.84092578E+00   1.11213853E+00   1.89387617E+00  -1.76371995E+00  -9.97557351E-01  -1.11111994E+00  -8.85474328E-01  -2.44060134E+00  -5.23555873E-01  -7.87676922E+00   3.87949585E-01   1.78064808E-01  -1.89454327E+00  -5.09476301E-01   4.73245118E-01   1.13110233E-01   5.05306672E-01  -1.74353493E+00  -6.00015132E+00  -2.75800892E+01  -5.70400062E-01  -7.33752236E+00  -3.22833839E+00  -2.92343387E+01  -4.25561319E+00   1.03403759E+00
   3.93750000E+02   5.00000000E-01   5.00000000E-01  -7.01331720E+00  -1.23966457E+00  -4.99724107E+00  -2.47527120E+00  -2.55255014E+00   9.49339401E-03  -4.26217540E+00   4.81682381E-01   1.84449579E+00   1.13397392E+00   1.90471374E+00  -1.75488628E+00  -1.00486965E+00  -1.10264587E+00  -8.85613888E-01  -2.41861323E+00  -5.03060643E-01  -7.83459041E+00   3.80622383E-01   1.77962566E-01  -1.91297037E+00  -5.01721267E-01   4.63814786E-01   1.20651924E-01   5.03433631E-01  -1.75114510E+00  -5.93674651E+00  -2.74216846E+01  -5.49682621E-01  -7.30658025E+00  -3.22691177E+00  -2.91178053E+01  -4.26646208E+00   1.03246566E+00
   4.11250000E+02   5.00000000E-01   5.00000000E-01  -6.96250779E+00  -1.20075430E+00  -4.97601006E+00  -2.45856851E+00  -2.53422208E+00   9.49339399E-03  -4.22547163E+00   5.03305916E-01   1.84767719E+00   1.15523624E+00   1.91507904E+00  -1.74602735E+00  -1.01199401E+00  -1.09414832E+00  -8.85648802E-01  -2.39694405E+00  -4.83601790E-01  -7.79250873E+00   3.73255952E-01   1.77868491E-01  -1.93072688E+00  -4.94136489E-01   4.54386666E-01   1.28019969E-01   5.01475952E-01  -1.75850615E+00  -5.87480273E+00  -2.72646765E+01  -5.28914074E-01  -7.27572985E+00  -3.22542375E+00  -2.90031153E+01  -4.27813022E+00   1.03078929E+00
   4.28750000E+02   5.00000000E-01   5.00000000E-01  -6.91222253E+00  -1.16361227E+00  -4.95498230E+00  -2.44222706E+00  -2.51627081E+00   9.49339398E-03  -4.18975541E+00   5.24433367E-01   1.85054244E+00   1.17600026E+00   1.92504606E+00  -1.73728186E+00  -1.01907206E+00  -1.08576633E+00  -8.85719138E-01  -2.37556139E+00  -4.65081861E-01  -7.75062181E+00   3.65807658E-01   1.77784764E-01  -1.94802581E+00  -4.86803480E-01   4.44876207E-01   1.35132574E-01   4.99350691E-01  -1.76574606E+00  -5.81409633E+00  -2.71090593E+01  -5.08100241E-01  -7.24503871E+00  -3.22396951E+00  -2.88902006E+01  -4.29053988E+00   1.02901344E+00
   4.46250000E+02   5.00000000E-01   5.00000000E-01  -6.86238891E+00  -1.12805324E+00  -4.93412594E+00  -2.42613923E+00  -2.49858848E+00   9.49339396E-03  -4.15493669E+00   5.45162788E-01   1.85318725E+00   1.19636375E+00   1.93471206E+00  -1.72880992E+00  -1.02626670E+00  -1.07766028E+00  -8.85986291E-01  -2.35442455E+00  -4.47403395E-01  -7.70904774E+00   3.58233903E-01   1.77712924E-01  -1.96512515E+00  -4.79811040E-01   4.35191645E-01   1.41900686E-01   4.96967654E-01  -1.77301681E+00  -5.75434124E+00  -2.69548258E+01  -4.87246636E-01  -7.21458666E+00  -3.22266001E+00  -2.87789990E+01  -4.30361768E+00   1.02714761E+00
   4.63750000E+02   5.00000000E-01   5.00000000E-01  -6.81292905E+00  -1.09390077E+00  -4.91340814E+00  -2.41018763E+00  -2.48105750E+00   9.49339394E-03  -4.12093145E+00   5.65604955E-01   1.85572028E+00   1.21643724E+00   1.94418713E+00  -1.72077784E+00  -1.03374702E+00  -1.06999674E+00  -8.86617839E-01  -2.33348853E+00  -4.30471703E-01  -7.66791291E+00   3.50493592E-01   1.77653993E-01  -1.98230230E+00  -4.73247368E-01   4.25241900E-01   1.48235880E-01   4.94237291E-01  -1.78047952E+00  -5.69521804E+00  -2.68019663E+01  -4.66358475E-01  -7.18445760E+00  -3.22161126E+00  -2.86694537E+01  -4.31729532E+00   1.02520458E+00
   4.81250000E+02   5.00000000E-01   5.00000000E-01  -6.76376573E+00  -1.06099128E+00  -4.89279739E+00  -2.39425480E+00  -2.46356017E+00   9.49339391E-03  -4.08766319E+00   5.85873877E-01   1.85825350E+00   1.23633450E+00   1.95358469E+00  -1.71334476E+00  -1.04167483E+00  -1.06293509E+00  -8.87774165E-01  -2.31270764E+00  -4.14197527E-01  -7.62734112E+00   3.42551003E-01   1.77608612E-01  -1.99983107E+00  -4.67193297E-01   4.14943337E-01   1.54057127E-01   4.91077458E-01  -1.78829129E+00  -5.63640077E+00  -2.66504682E+01  -4.45440679E-01  -7.15473231E+00  -3.22093466E+00  -2.85615121E+01  -4.33151038E+00   1.02319915E+00
   4.98750000E+02   5.00000000E-01   5.00000000E-01  -6.71434967E+00  -1.02870783E+00  -4.87204963E+00  -2.37749156E+00  -2.44524713E+00   9.49339389E-03  -4.05485219E+00   6.06725507E-01   1.86154635E+00   1.25681147E+00   1.96366556E+00  -1.70786415E+00  -1.05140616E+00  -1.05782884E+00  -8.90809901E-01  -2.29177667E+00  -3.98241444E-01  -7.58834925E+00   3.34017964E-01   1.77582919E-01  -2.01981601E+00  -4.62428246E-01   4.03513845E-01   1.58584996E-01   4.86707477E-01  -1.79771373E+00  -5.57570178E+00  -2.65004555E+01  -4.24497953E-01  -7.12612609E+00  -3.22158769E+00  -2.84550994E+01  -4.34604718E+00   1.02119304E+00
   5.16250000E+02   5.00000000E-01   5.00000000E-01  -6.66504604E+00  -9.97344259E-01  -4.85134190E+00  -2.36045656E+00  -2.42667679E+00   9.49339387E-03  -4.02263804E+00   6.27707814E-01   1.86514017E+00   1.27741579E+00   1.97397246E+00  -1.70333357E+00  -1.06194114E+00  -1.05367587E+00  -8.94723783E-01  -2.27088383E+00  -3.82755610E-01  -7.55021739E+00   3.25230008E-01   1.77561680E-01  -2.04081913E+00  -4.58325770E-01   3.91577194E-01   1.62445631E-01   4.81752549E-01  -1.80785236E+00  -5.51445596E+00  -2.63517679E+01  -4.03534586E-01  -7.09810916E+00  -3.22286337E+00  -2.83501933E+01  -4.36100470E+00   1.01917565E+00
   5.33750000E+02   5.00000000E-01   5.00000000E-01  -6.61587800E+00  -9.66864454E-01  -4.83068826E+00  -2.34318726E+00  -2.40788642E+00   9.49339384E-03  -3.99100339E+00   6.48801215E-01   1.86901241E+00   1.29812770E+00   1.98448415E+00  -1.69964842E+00  -1.07317759E+00  -1.05037176E+00  -8.99412328E-01  -2.25003824E+00  -3.67719154E-01  -7.51287270E+00   3.16231404E-01   1.77551718E-01  -2.06271060E+00  -4.54810330E-01   3.79206347E-01   1.65714427E-01   4.76287001E-01  -1.81862177E+00  -5.45273045E+00  -2.62043533E+01  -3.82554649E-01  -7.07062055E+00  -3.22468568E+00  -2.82467569E+01  -4.37636564E+00   1.01715245E+00
   5.51250000E+02   5.00000000E-01   5.00000000E-01  -6.56676800E+00  -9.37140176E-01  -4.81005604E+00  -2.32556643E+00  -2.38875860E+00   9.49339382E-03  -3.95988847E+00   6.70116721E-01   1.87327234E+00   1.31905811E+00   1.99531116E+00  -1.69697250E+00  -1.08528172E+00  -1.04808042E+00  -9.05040450E-01  -2.22919511E+00  -3.53061565E-01  -7.47644026E+00   3.06981902E-01   1.77556736E-01  -2.08576272E+00  -4.51968540E-01   3.66312204E-01   1.68304693E-01   4.70223048E-01  -1.83018086E+00  -5.39020824E+00  -2.60582015E+01  -3.61561971E-01  -7.04374365E+00  -3.22716932E+00  -2.81447495E+01  -4.39208062E+00   1.01513609E+00
   5.68750000E+02   5.00000000E-01   5.00000000E-01  -6.51765877E+00  -9.08069723E-01  -4.78942237E+00  -2.30750749E+00  -2.36920654E+00   9.49339379E-03  -3.92924646E+00   6.91740009E-01   1.87800376E+00   1.34029264E+00   2.00653853E+00  -1.69541801E+00  -1.09836801E+00  -1.04691412E+00  -9.11721400E-01  -2.20832013E+00  -3.38725949E-01  -7.44100872E+00   2.97458156E-01   1.77577374E-01  -2.11017386E+00  -4.49855167E-01   3.52837582E-01   1.70161606E-01   4.63504782E-01  -1.84264218E+00  -5.32664643E+00  -2.59132987E+01  -3.40560134E-01  -7.01753595E+00  -3.23039324E+00  -2.80441338E+01  -4.40810995E+00   1.01313851E+00
   5.86250000E+02   5.00000000E-01   5.00000000E-01  -6.46852360E+00  -8.79587274E-01  -4.76877841E+00  -2.28897085E+00  -2.34919049E+00   9.49339376E-03  -3.89904729E+00   7.13716304E-01   1.88324978E+00   1.36187643E+00   2.01821055E+00  -1.69501917E+00  -1.11247290E+00  -1.04690715E+00  -9.19490436E-01  -2.18739547E+00  -3.24674592E-01  -7.40660942E+00   2.87660615E-01   1.77613207E-01  -2.13602499E+00  -4.48478595E-01   3.38771756E-01   1.71276746E-01   4.56122713E-01  -1.85604686E+00  -5.26192017E+00  -2.57696228E+01  -3.19552483E-01  -6.99201420E+00  -3.23438153E+00  -2.79448764E+01  -4.42442685E+00   1.01116919E+00
   6.03750000E+02   5.00000000E-01   5.00000000E-01  -6.41936167E+00  -8.51657535E-01  -4.74812689E+00  -2.26995717E+00  -2.32871087E+00   9.49339373E-03  -3.86927474E+00   7.36055066E-01   1.88901750E+00   1.38381892E+00   2.03033547E+00  -1.69574595E+00  -1.12756853E+00  -1.04802953E+00  -9.28318521E-01  -2.16641772E+00  -3.10886482E-01  -7.37322550E+00   2.77608170E-01   1.77663391E-01  -2.16329747E+00  -4.47810127E-01   3.24141147E-01   1.71678787E-01   4.48104462E-01  -1.87037617E+00  -5.19600825E+00  -2.56271457E+01  -2.98542138E-01  -6.96716136E+00  -3.23911292E+00  -2.78469477E+01  -4.44101540E+00   1.00923473E+00
   6.21250000E+02   5.00000000E-01   5.00000000E-01  -6.37019172E+00  -8.24268763E-01  -4.72747890E+00  -2.25049769E+00  -2.30779877E+00   9.49339370E-03  -3.83992302E+00   7.58737646E-01   1.89528574E+00   1.40610143E+00   2.04289323E+00  -1.69752145E+00  -1.14358011E+00  -1.05020439E+00  -9.38129741E-01  -2.14539459E+00  -2.97353766E-01  -7.34080421E+00   2.67332192E-01   1.77726941E-01  -2.19189778E+00  -4.47794970E-01   3.08998341E-01   1.71422523E-01   4.39503778E-01  -1.88556703E+00  -5.12897028E+00  -2.54858357E+01  -2.77532004E-01  -6.94293572E+00  -3.24453300E+00  -2.77503213E+01  -4.45786814E+00   1.00733896E+00
   6.38750000E+02   5.00000000E-01   5.00000000E-01  -6.32104462E+00  -7.97424887E-01  -4.70685051E+00  -2.23064296E+00  -2.28650456E+00   9.49339367E-03  -3.81099306E+00   7.81726828E-01   1.90201466E+00   1.42868674E+00   2.05584510E+00  -1.70024120E+00  -1.16040519E+00  -1.05332725E+00  -9.48820563E-01  -2.12434104E+00  -2.84077575E-01  -7.30927101E+00   2.56870465E-01   1.77802956E-01  -2.22168617E+00  -4.48363880E-01   2.93410437E-01   1.70577216E-01   4.30388889E-01  -1.90152948E+00  -5.06091881E+00  -2.53456600E+01  -2.56524788E-01  -6.91928107E+00  -3.25056783E+00  -2.76549735E+01  -4.47498324E+00   1.00548343E+00
   6.56250000E+02   5.00000000E-01   5.00000000E-01  -6.27195567E+00  -7.71137349E-01  -4.68625917E+00  -2.21045085E+00  -2.26488594E+00   9.49339364E-03  -3.78248878E+00   8.04977245E-01   1.90915629E+00   1.45152952E+00   2.06914414E+00  -1.70379288E+00  -1.17793343E+00  -1.05728578E+00  -9.60279582E-01  -2.10327498E+00  -2.71063587E-01  -7.27854419E+00   2.46261253E-01   1.77890786E-01  -2.25250660E+00  -4.49444816E-01   2.77447392E-01   1.69214953E-01   4.20830852E-01  -1.91816487E+00  -4.99198901E+00  -2.52065870E+01  -2.35523005E-01  -6.89613710E+00  -3.25713788E+00  -2.75608827E+01  -4.49236163E+00   1.00366811E+00
   6.73750000E+02   5.00000000E-01   5.00000000E-01  -6.22295830E+00  -7.45418524E-01  -4.66572103E+00  -2.18997686E+00  -2.24299820E+00   9.49339361E-03  -3.75441419E+00   8.28444043E-01   1.91666322E+00   1.47458495E+00   2.08274396E+00  -1.70807189E+00  -1.19606215E+00  -1.06197534E+00  -9.72403092E-01  -2.08221386E+00  -2.58318395E-01  -7.24854663E+00   2.35538836E-01   1.77990101E-01  -2.28421092E+00  -4.50971914E-01   2.61173044E-01   1.67401662E-01   4.10894570E-01  -1.93538037E+00  -4.92231364E+00  -2.50685877E+01  -2.14528987E-01  -6.87344770E+00  -3.26416903E+00  -2.74680284E+01  -4.51000462E+00   1.00189206E+00
   6.91250000E+02   5.00000000E-01   5.00000000E-01  -6.17407804E+00  -7.20275426E-01  -4.64524815E+00  -2.16926456E+00  -2.22088477E+00   9.49339358E-03  -3.72677052E+00   8.52091350E-01   1.92449715E+00   1.49781725E+00   2.09660729E+00  -1.71299637E+00  -1.21471136E+00  -1.06731399E+00  -9.85110094E-01  -2.06117126E+00  -2.45845994E-01  -7.21921714E+00   2.24729263E-01   1.78100978E-01  -2.31668227E+00  -4.52894098E-01   2.44636500E-01   1.65188513E-01   4.00630192E-01  -1.95310294E+00  -4.85199861E+00  -2.49316375E+01  -1.93544898E-01  -6.85116889E+00  -3.27160328E+00  -2.73763909E+01  -4.52791164E+00   1.00015420E+00
   7.08750000E+02   5.00000000E-01   5.00000000E-01  -6.12533106E+00  -6.95708078E-01  -4.62484806E+00  -2.14834340E+00  -2.19857492E+00   9.49339355E-03  -3.69955566E+00   8.75894640E-01   1.93263129E+00   1.52120197E+00   2.11070830E+00  -1.71851022E+00  -1.23382677E+00  -1.07324554E+00  -9.98345326E-01  -2.04015595E+00  -2.33646786E-01  -7.19051302E+00   2.13849819E-01   1.78223778E-01  -2.34984058E+00  -4.55176493E-01   2.27870717E-01   1.62610495E-01   3.90071688E-01  -1.97128250E+00  -4.78111633E+00  -2.47957162E+01  -1.72572735E-01  -6.82927051E+00  -3.27940087E+00  -2.72859506E+01  -4.54607955E+00   9.98453631E-01
   7.26250000E+02   5.00000000E-01   5.00000000E-01  -6.07672400E+00  -6.71709115E-01  -4.60452374E+00  -2.12722819E+00  -2.17608330E+00   9.49339352E-03  -3.67276405E+00   8.99841393E-01   1.94105099E+00   1.54472673E+00   2.12503331E+00  -1.72458316E+00  -1.25337988E+00  -1.07973959E+00  -1.01207932E+00  -2.01917174E+00  -2.21717270E-01  -7.16241033E+00   2.02909306E-01   1.78359084E-01  -2.38364337E+00  -4.57800173E-01   2.10892759E-01   1.59686674E-01   3.79237111E-01  -1.98989214E+00  -4.70970402E+00  -2.46608076E+01  -1.51614340E-01  -6.80773625E+00  -3.28754036E+00  -2.71966879E+01  -4.56450255E+00   9.96789889E-01
   7.43750000E+02   5.00000000E-01   5.00000000E-01  -6.02825456E+00  -6.48264265E-01  -4.58427395E+00  -2.10592007E+00  -2.15341088E+00   9.49339349E-03  -3.64638694E+00   9.23930501E-01   1.94975320E+00   1.56839054E+00   2.13958016E+00  -1.73120878E+00  -1.27336598E+00  -1.08678960E+00  -1.02630645E+00  -1.99821773E+00  -2.10050250E-01  -7.13490261E+00   1.91908838E-01   1.78507627E-01  -2.41808327E+00  -4.60760805E-01   1.93705137E-01   1.56421538E-01   3.68129939E-01  -2.00892654E+00  -4.63776553E+00  -2.45268993E+01  -1.30671408E-01  -6.78656264E+00  -3.29601729E+00  -2.71085832E+01  -4.58317227E+00   9.95162989E-01
   7.61250000E+02   5.00000000E-01   5.00000000E-01  -5.97991289E+00  -6.25353552E-01  -4.56409391E+00  -2.08440849E+00  -2.13054697E+00   9.49339346E-03  -3.62041298E+00   9.48170642E-01   1.95874474E+00   1.59220227E+00   2.15435662E+00  -1.73840092E+00  -1.29380060E+00  -1.09440925E+00  -1.04104132E+00  -1.97728899E+00  -1.98635447E-01  -7.10799830E+00   1.80843066E-01   1.78670217E-01  -2.45318285E+00  -4.64066386E-01   1.76298086E-01   1.52807269E-01   3.56741352E-01  -2.02839871E+00  -4.56527615E+00  -2.43939821E+01  -1.09745491E-01  -6.76575714E+00  -3.30484161E+00  -2.70216166E+01  -4.60207814E+00   9.93573408E-01
   7.78750000E+02   5.00000000E-01   5.00000000E-01  -5.93168344E+00  -6.02953081E-01  -4.54397617E+00  -2.06267418E+00  -2.10747213E+00   9.49339343E-03  -3.59482908E+00   9.72577805E-01   1.96803987E+00   1.61617805E+00   2.16937784E+00  -1.74618868E+00  -1.31471446E+00  -1.10262746E+00  -1.05631377E+00  -1.95637757E+00  -1.87460454E-01  -7.08171707E+00   1.69701770E-01   1.78847666E-01  -2.48898721E+00  -4.67734201E-01   1.58652593E-01   1.48826773E-01   3.45053263E-01  -2.04833547E+00  -4.49218983E+00  -2.42620494E+01  -8.88380092E-02  -6.74533552E+00  -3.31403415E+00  -2.69357684E+01  -4.62120809E+00   9.92021966E-01
   7.96250000E+02   5.00000000E-01   5.00000000E-01  -5.88354754E+00  -5.81037410E-01  -4.52391181E+00  -2.04069302E+00  -2.08416208E+00   9.49339341E-03  -3.56962145E+00   9.97171986E-01   1.97765695E+00   1.64033809E+00   2.18466303E+00  -1.75460989E+00  -1.33614700E+00  -1.11148188E+00  -1.07216235E+00  -1.93547390E+00  -1.76512015E-01  -7.05608507E+00   1.58471863E-01   1.79040698E-01  -2.52555429E+00  -4.71786946E-01   1.40744278E-01   1.44457560E-01   3.33042198E-01  -2.06877155E+00  -4.41844879E+00  -2.41310964E+01  -6.79502552E-02  -6.72531834E+00  -3.32362202E+00  -2.68510191E+01  -4.64054937E+00   9.90509635E-01