 TITLE = "Mineral Saturation State" 
VARIABLES = "X"          "Y"              "Z"            "Forsterite"     "Enstatite(alph" "Anorthite"      "Ferropargasite" "Anhydrite"      "Clinochlore"    "Albite(low)"    "Fayalite"       "Epidote"        "Kaolinite"      "Muscovite(orde" "Sudoite"        "Saponite(Mg)"   "Scolecite"      "Pyrite"         "Quartz(alpha)" 
 ZONE I=         100 , J=           1 , K=           1  F=POINT
   1.75000000E+01   5.00000000E-01   5.00000000E-01  -8.02510741E+00  -3.10396379E+00  -8.17423981E+00  -2.10538875E+01  -2.53273754E-01   1.32690341E+00  -4.30541116E-01  -4.54085062E+00   3.67397342E-09  -1.78258204E+00   1.17809438E+00  -5.88560839E-01   5.83592211E-05  -3.14645294E+00  -2.49225562E+02   5.33026013E-01
   5.25000000E+01   5.00000000E-01   5.00000000E-01  -8.06986164E+00  -3.08964860E+00  -7.99439931E+00  -1.98411225E+01  -5.62697650E-02   9.98534227E-01  -2.70002667E-01  -4.07049196E+00  -7.91211389E-12  -1.67501104E+00   1.23029262E+00  -6.79315409E-01   6.09744467E-05  -2.94439827E+00  -2.46699612E+02   6.15902062E-01
   8.75000000E+01   5.00000000E-01   5.00000000E-01  -8.05440585E+00  -3.06970067E+00  -7.92175013E+00  -1.91867077E+01  -9.73599984E-03   8.28823075E-01  -2.11787986E-01  -3.77973718E+00  -8.78540883E-11  -1.63543803E+00   1.21057790E+00  -7.46381427E-01   7.42187954E-05  -2.89802671E+00  -2.44481151E+02   6.49711998E-01
   1.22500000E+02   5.00000000E-01   5.00000000E-01  -8.01780566E+00  -3.04884192E+00  -7.85704874E+00  -1.87098907E+01   1.12962423E-03   7.37586117E-01  -1.84405022E-01  -3.56740384E+00  -1.11781753E-10  -1.60189926E+00   1.19362407E+00  -7.64173232E-01   7.97819985E-05  -2.87847795E+00  -2.42384193E+02   6.64079852E-01
   1.57500000E+02   5.00000000E-01   5.00000000E-01  -7.97157964E+00  -3.02786120E+00  -7.78825969E+00  -1.83204939E+01   3.70463748E-03   6.87188784E-01  -1.70717946E-01  -3.40097155E+00  -1.24365840E-10  -1.56827198E+00   1.18290067E+00  -7.51877334E-01   8.29660772E-05  -2.86378059E+00  -2.40355632E+02   6.68948680E-01
   1.92500000E+02   5.00000000E-01   5.00000000E-01  -7.92044116E+00  -3.00698750E+00  -7.71532525E+00  -1.79856959E+01   4.34286125E-03   6.60088378E-01  -1.64225095E-01  -3.26487129E+00  -1.35160136E-10  -1.53388394E+00   1.17706670E+00  -7.21404228E-01   8.52713847E-05  -2.84962645E+00  -2.38375782E+02   6.68576012E-01
   2.27500000E+02   5.00000000E-01   5.00000000E-01  -7.86667381E+00  -2.98630122E+00  -7.63975485E+00  -1.76898594E+01   4.52205095E-03   6.47117126E-01  -1.61920083E-01  -3.15032735E+00  -1.47565244E-10  -1.49896244E+00   1.17463281E+00  -6.79767709E-01   8.72151581E-05  -2.83540701E+00  -2.36435415E+02   6.65086724E-01
   2.62500000E+02   5.00000000E-01   5.00000000E-01  -7.81150474E+00  -2.96583291E+00  -7.56283231E+00  -1.74239575E+01   4.58461591E-03   6.43092375E-01  -1.62235368E-01  -3.05189977E+00  -1.62729101E-10  -1.46382696E+00   1.17448986E+00  -6.31195262E-01   8.90082945E-05  -2.82124486E+00  -2.34529339E+02   6.59648935E-01
   2.97500000E+02   5.00000000E-01   5.00000000E-01  -7.75563802E+00  -2.94559369E+00  -7.48543925E+00  -1.71820768E+01   4.60944618E-03   6.44926702E-01  -1.64286407E-01  -2.96597811E+00  -1.81114582E-10  -1.42873691E+00   1.17587509E+00  -5.78301834E-01   9.07481781E-05  -2.80734459E+00  -2.32654241E+02   6.52946474E-01
   3.32500000E+02   5.00000000E-01   5.00000000E-01  -7.69949530E+00  -2.92558626E+00  -7.40814822E+00  -1.69600215E+01   4.61510672E-03   6.50711441E-01  -1.67545598E-01  -2.89003749E+00  -2.02913011E-10  -1.39387840E+00   1.17827445E+00  -5.22741434E-01   9.24834195E-05  -2.79386726E+00  -2.30807819E+02   6.45397509E-01
   3.67500000E+02   5.00000000E-01   5.00000000E-01  -7.64333671E+00  -2.90580946E+00  -7.33132531E+00  -1.67546588E+01   4.60658211E-03   6.59231890E-01  -1.71684688E-01  -2.82223899E+00  -2.28260165E-10  -1.35937908E+00   1.18134151E+00  -4.65581411E-01   9.42387071E-05  -2.78092121E+00  -2.28988368E+02   6.37266433E-01
   4.02500000E+02   5.00000000E-01   5.00000000E-01  -7.58732628E+00  -2.88626019E+00  -7.25520380E+00  -1.65635694E+01   4.58584540E-03   6.69694621E-01  -1.76491959E-01  -2.76120007E+00  -2.57458458E-10  -1.32532484E+00   1.18484043E+00  -4.07524305E-01   9.60254575E-05  -2.76857412E+00  -2.27194562E+02   6.28725358E-01
   4.37500000E+02   5.00000000E-01   5.00000000E-01  -7.53156956E+00  -2.86693441E+00  -7.17993226E+00  -1.63848407E+01   4.55419724E-03   6.81567220E-01  -1.81825886E-01  -2.70585529E+00  -2.90779443E-10  -1.29177283E+00   1.18860803E+00  -3.49042668E-01   9.78468269E-05  -2.75686558E+00  -2.25425329E+02   6.19889689E-01
   4.72500000E+02   5.00000000E-01   5.00000000E-01  -7.47613590E+00  -2.84782767E+00  -7.10560523E+00  -1.62169358E+01   4.51276734E-03   6.94481050E-01  -1.87587914E-01  -2.65536741E+00  -3.28556392E-10  -1.25876067E+00   1.19252897E+00  -2.90462576E-01   9.97002717E-05  -2.74581643E+00  -2.23679771E+02   6.10839500E-01
   5.07500000E+02   5.00000000E-01   5.00000000E-01  -7.42107234E+00  -2.82893538E+00  -7.03228282E+00  -1.60586052E+01   4.46261482E-03   7.08170822E-01  -1.93705865E-01  -2.60906848E+00  -3.71270698E-10  -1.22631255E+00   1.19651977E+00  -2.32016129E-01   1.01578970E-04  -2.73543509E+00  -2.21957116E+02   6.01632733E-01
   5.42500000E+02   5.00000000E-01   5.00000000E-01  -7.36641221E+00  -2.81025299E+00  -6.96000311E+00  -1.59088246E+01   4.40474401E-03   7.22436364E-01  -2.00123509E-01  -2.56641931E+00  -4.19416096E-10  -1.19444329E+00   1.20051849E+00  -1.73874810E-01   1.03472691E-04  -2.72572167E+00  -2.20256683E+02   5.92313547E-01
   5.77500000E+02   5.00000000E-01   5.00000000E-01  -7.31218075E+00  -2.79177608E+00  -6.88879016E+00  -1.57667492E+01   4.34010397E-03   7.37118143E-01  -2.06793879E-01  -2.52698077E+00  -4.73646787E-10  -1.16316081E+00   1.20447819E+00  -1.16170808E-01   1.05368389E-04  -2.71667060E+00  -2.18577859E+02   5.82917651E-01
   6.12500000E+02   5.00000000E-01   5.00000000E-01  -7.25839866E+00  -2.77350048E+00  -6.81865905E+00  -1.56316802E+01   4.26958606E-03   7.52081500E-01  -2.13674902E-01  -2.49039292E+00  -5.34678685E-10  -1.13246768E+00   1.20836282E+00  -5.90106600E-02   1.07250672E-04  -2.70827227E+00  -2.16920085E+02   5.73475770E-01
   6.47500000E+02   5.00000000E-01   5.00000000E-01  -7.20508749E+00  -2.75543512E+00  -6.74934971E+00  -1.55026541E+01   4.19402260E-03   7.67492742E-01  -2.20637288E-01  -2.45636306E+00  -6.00320841E-10  -1.10210241E+00   1.21253836E+00  -1.92215145E-03   1.09095451E-04  -2.70026724E+00  -2.15282852E+02   5.63993170E-01
   6.82500000E+02   5.00000000E-01   5.00000000E-01  -7.15223656E+00  -2.73752696E+00  -6.68187171E+00  -1.53805870E+01   4.11418386E-03   7.82222514E-01  -2.28002582E-01  -2.42461704E+00  -6.86101239E-10  -1.07304297E+00   1.21549979E+00   5.29373362E-02   1.10900749E-04  -2.69357398E+00  -2.13665654E+02   5.54566810E-01
   7.17500000E+02   5.00000000E-01   5.00000000E-01  -7.09992339E+00  -2.71982140E+00  -6.61529726E+00  -1.52638527E+01   4.03078444E-03   7.97013389E-01  -2.35340587E-01  -2.39501278E+00  -7.72727160E-10  -1.04433864E+00   1.21863821E+00   1.07397443E-01   1.12654446E-04  -2.68728219E+00  -2.12068022E+02   5.45184939E-01
   7.52500000E+02   5.00000000E-01   5.00000000E-01  -7.04814154E+00  -2.70230261E+00  -6.54985531E+00  -1.51524016E+01   3.94447664E-03   8.11582334E-01  -2.42722018E-01  -2.36735939E+00  -8.73291856E-10  -1.01621719E+00   1.22158928E+00   1.60938292E-01   1.14315997E-04  -2.68159981E+00  -2.10489533E+02   5.35874274E-01
   7.87500000E+02   5.00000000E-01   5.00000000E-01  -6.99690885E+00  -2.68496774E+00  -6.48554612E+00  -1.50459602E+01   3.85585752E-03   8.25829859E-01  -2.50106182E-01  -2.34151876E+00  -9.87341706E-10  -9.88665476E-01   1.22434483E+00   2.13501470E-01   1.15870727E-04  -2.67650766E+00  -2.08929772E+02   5.26659813E-01
   8.22500000E+02   5.00000000E-01   5.00000000E-01  -6.94624466E+00  -2.66781437E+00  -6.42236716E+00  -1.49443027E+01   3.76546946E-03   8.39657205E-01  -2.57449267E-01  -2.31737832E+00  -1.11682388E-09  -9.61665528E-01   1.22690364E+00   2.65035821E-01   1.17298187E-04  -2.67198311E+00  -2.07388340E+02   5.17567188E-01
   8.57500000E+02   5.00000000E-01   5.00000000E-01  -6.89616935E+00  -2.65084037E+00  -6.36031472E+00  -1.48472450E+01   3.67380297E-03   8.52965998E-01  -2.64705646E-01  -2.29484678E+00  -1.26417929E-09  -9.35196538E-01   1.22926875E+00   3.15494502E-01   1.18578570E-04  -2.66800186E+00  -2.05864855E+02   5.08622414E-01
   8.92500000E+02   5.00000000E-01   5.00000000E-01  -6.84670387E+00  -2.63404389E+00  -6.29938369E+00  -1.47546372E+01   3.58129944E-03   8.65659564E-01  -2.71828515E-01  -2.27385064E+00  -1.43215124E-09  -9.09235103E-01   1.23144719E+00   3.64835601E-01   1.19693205E-04  -2.66453813E+00  -2.04358944E+02   4.99851531E-01
   9.27500000E+02   5.00000000E-01   5.00000000E-01  -6.79786927E+00  -2.61742330E+00  -6.23956746E+00  -1.46663571E+01   3.48835420E-03   8.77644435E-01  -2.78770680E-01  -2.25433112E+00  -1.62401383E-09  -8.83755589E-01   1.23344967E+00   4.13022738E-01   1.20624995E-04  -2.66156492E+00  -2.02870250E+02   4.91280196E-01
   9.62500000E+02   5.00000000E-01   5.00000000E-01  -6.74968611E+00  -2.60097713E+00  -6.18085785E+00  -1.45823054E+01   3.39531953E-03   8.88831953E-01  -2.85485460E-01  -2.23624157E+00  -1.84356882E-09  -8.58730614E-01   1.23529012E+00   4.60025563E-01   1.21358822E-04  -2.65905444E+00  -2.01398427E+02   4.82933216E-01
   9.97500000E+02   5.00000000E-01   5.00000000E-01  -6.70217389E+00  -2.58470403E+00  -6.12324511E+00  -1.45024000E+01   3.30250774E-03   8.99139893E-01  -2.91927690E-01  -2.21954512E+00  -2.09520120E-09  -8.34131664E-01   1.23698498E+00   5.05820106E-01   1.21881934E-04  -2.65697859E+00  -1.99943138E+02   4.74834065E-01
   1.03250000E+03   5.00000000E-01   5.00000000E-01  -6.65535037E+00  -2.56860271E+00  -6.06671801E+00  -1.44265726E+01   3.21019418E-03   9.08494062E-01  -2.98054788E-01  -2.20421252E+00  -2.38406742E-09  -8.09929808E-01   1.23855245E+00   5.50388970E-01   1.22184287E-04  -2.65530955E+00  -1.98504061E+02   4.67004380E-01
   1.06750000E+03   5.00000000E-01   5.00000000E-01  -6.60923098E+00  -2.55267182E+00  -6.01126406E+00  -1.43547648E+01   3.11862019E-03   9.16829812E-01  -3.03827840E-01  -2.19022033E+00  -2.71607996E-09  -7.86096484E-01   1.24001157E+00   5.93721346E-01   1.22258840E-04  -2.65402049E+00  -1.97080883E+02   4.59463474E-01
   1.10250000E+03   5.00000000E-01   5.00000000E-01  -6.56382816E+00  -2.53690996E+00  -5.95686967E+00  -1.42869248E+01   3.02799591E-03   9.24093406E-01  -3.09212663E-01  -2.17754915E+00  -3.09811101E-09  -7.62604335E-01   1.24138122E+00   6.35812893E-01   1.22101800E-04  -2.65308621E+00  -1.95673301E+02   4.52227868E-01
   1.13750000E+03   5.00000000E-01   5.00000000E-01  -6.51915089E+00  -2.52131553E+00  -5.90352048E+00  -1.42230049E+01   2.93850304E-03   9.30243216E-01  -3.14180797E-01  -2.16618220E+00  -3.53817143E-09  -7.39428019E-01   1.24267921E+00   6.76665484E-01   1.21712806E-04  -2.65248386E+00  -1.94281026E+02   4.45310868E-01
   1.17250000E+03   5.00000000E-01   5.00000000E-01  -6.47520413E+00  -2.50588672E+00  -5.85120160E+00  -1.41629592E+01   2.85029735E-03   9.35250678E-01  -3.18710369E-01  -2.15610390E+00  -4.04540458E-09  -7.16544977E-01   1.24392130E+00   7.16286872E-01   1.21095040E-04  -2.65219356E+00  -1.92903777E+02   4.38722212E-01
   1.20750000E+03   5.00000000E-01   5.00000000E-01  -6.43198846E+00  -2.49062146E+00  -5.79989785E+00  -1.41067411E+01   2.76351111E-03   9.39100995E-01  -3.22786787E-01  -2.14729885E+00  -4.63039493E-09  -6.93936076E-01   1.24512043E+00   7.54690314E-01   1.20255256E-04  -2.65219895E+00  -1.91541285E+02   4.32467793E-01
   1.24250000E+03   5.00000000E-01   5.00000000E-01  -6.38949985E+00  -2.47551736E+00  -5.74959400E+00  -1.40543025E+01   2.67825535E-03   9.41793528E-01  -3.26403207E-01  -2.13975086E+00  -5.30527603E-09  -6.71586105E-01   1.24628613E+00   7.91894183E-01   1.19203727E-04  -2.65248753E+00  -1.90193294E+02   4.26549478E-01
   1.27750000E+03   5.00000000E-01   5.00000000E-01  -6.34772955E+00  -2.46057168E+00  -5.70027487E+00  -1.40055918E+01   2.59462191E-03   9.43341857E-01  -3.29560753E-01  -2.13344225E+00  -6.08398048E-09  -6.49484081E-01   1.24742410E+00   8.27921595E-01   1.17954084E-04  -2.65305090E+00  -1.88859554E+02   4.20965048E-01
   1.31250000E+03   5.00000000E-01   5.00000000E-01  -6.30666410E+00  -2.44578136E+00  -5.65192542E+00  -1.39605535E+01   2.51268544E-03   9.43773497E-01  -3.32268459E-01  -2.12835339E+00  -6.98238187E-09  -6.27623334E-01   1.24853605E+00   8.62800075E-01   1.16523064E-04  -2.65388475E+00  -1.87539831E+02   4.15708246E-01
   1.34750000E+03   5.00000000E-01   5.00000000E-01  -6.26628554E+00  -2.43114301E+00  -5.60453074E+00  -1.39191271E+01   2.43250511E-03   9.43129238E-01  -3.34542922E-01  -2.12446240E+00  -8.01866513E-09  -6.06001384E-01   1.24961990E+00   8.96561240E-01   1.14930144E-04  -2.65498872E+00  -1.86233897E+02   4.10768955E-01
   1.38250000E+03   5.00000000E-01   5.00000000E-01  -6.22657180E+00  -2.41665294E+00  -5.55807601E+00  -1.38812472E+01   2.35412629E-03   9.41462145E-01  -3.36407691E-01  -2.12174510E+00  -9.21346839E-09  -5.84619614E-01   1.25067002E+00   9.29240513E-01   1.13197081E-04  -2.65636598E+00  -1.84941535E+02   4.06133497E-01
   1.41750000E+03   5.00000000E-01   5.00000000E-01  -6.18749714E+00  -2.40230720E+00  -5.51254632E+00  -1.38468436E+01   2.27758205E-03   9.38836209E-01  -3.37892424E-01  -2.12017510E+00  -1.05902287E-08  -5.63482767E-01   1.25167787E+00   9.60876814E-01   1.11347375E-04  -2.65802279E+00  -1.83662535E+02   4.01785031E-01
   1.45250000E+03   5.00000000E-01   5.00000000E-01  -6.14903278E+00  -2.38810166E+00  -5.46792661E+00  -1.38158414E+01   2.20289449E-03   9.35324722E-01  -3.39031841E-01  -2.11972410E+00  -1.21755305E-08  -5.42598317E-01   1.25263259E+00   9.91512220E-01   1.09405661E-04  -2.65996779E+00  -1.82396699E+02   3.97704049E-01
   1.48750000E+03   5.00000000E-01   5.00000000E-01  -6.11114759E+00  -2.37403204E+00  -5.42420151E+00  -1.37881618E+01   2.13007607E-03   9.31008418E-01  -3.39864558E-01  -2.12036228E+00  -1.39994456E-08  -5.21975769E-01   1.25352183E+00   1.02119156E+00   1.07397068E-04  -2.66221140E+00  -1.81143831E+02   3.93868937E-01
   1.52250000E+03   5.00000000E-01   5.00000000E-01  -6.07380880E+00  -2.36009398E+00  -5.38135528E+00  -1.37637228E+01   2.05913067E-03   9.25973459E-01  -3.40431850E-01  -2.12205876E+00  -1.60959953E-08  -5.01625925E-01   1.25433245E+00   1.04996195E+00   1.05346582E-04  -2.66476507E+00  -1.79903746E+02   3.90256577E-01
   1.55750000E+03   5.00000000E-01   5.00000000E-01  -6.03698274E+00  -2.34628314E+00  -5.33937170E+00  -1.37424405E+01   1.99005474E-03   9.20309360E-01  -3.40776417E-01  -2.12478217E+00  -1.85035769E-08  -4.81560187E-01   1.25505125E+00   1.07787218E+00   1.03278438E-04  -2.66764067E+00  -1.78676263E+02   3.86842956E-01
   1.59250000E+03   5.00000000E-01   5.00000000E-01  -6.00063561E+00  -2.33259519E+00  -5.29823415E+00  -1.37242303E+01   1.92283821E-03   9.14106934E-01  -3.40941214E-01  -2.12850113E+00  -2.12655588E-08  -4.61789932E-01   1.25566557E+00   1.10497211E+00   1.01215567E-04  -2.67084984E+00  -1.77461204E+02   3.83603762E-01
   1.62750000E+03   5.00000000E-01   5.00000000E-01  -5.96473403E+00  -2.31902596E+00  -5.25792563E+00  -1.37090076E+01   1.85746539E-03   9.07456348E-01  -3.40968394E-01  -2.13318480E+00  -2.44308889E-08  -4.42325976E-01   1.25616377E+00   1.13131193E+00   9.91791485E-05  -2.67440358E+00  -1.76258398E+02   3.80514933E-01
   1.66250000E+03   5.00000000E-01   5.00000000E-01  -5.92924571E+00  -2.30557138E+00  -5.21842889E+00  -1.36966892E+01   1.79391580E-03   9.00445357E-01  -3.40898402E-01  -2.13880332E+00  -2.80548623E-08  -4.23178165E-01   1.25653557E+00   1.15694148E+00   9.71882539E-05  -2.67831181E+00  -1.75067674E+02   3.77553146E-01
   1.69750000E+03   5.00000000E-01   5.00000000E-01  -5.89413989E+00  -2.29222760E+00  -5.17972658E+00  -1.36871945E+01   1.73216490E-03   8.93157784E-01  -3.40769252E-01  -2.14532814E+00  -3.21998996E-08  -4.04355093E-01   1.25677223E+00   1.18190944E+00   9.52596168E-05  -2.68258317E+00  -1.73888868E+02   3.74696226E-01
   1.73250000E+03   5.00000000E-01   5.00000000E-01  -5.85938769E+00  -2.27899094E+00  -5.14180145E+00  -1.36804460E+01   1.67218477E-03   8.85672278E-01  -3.40615975E-01  -2.15273234E+00  -3.69365743E-08  -3.85863921E-01   1.25686661E+00   1.20626274E+00   9.34075137E-05  -2.68722485E+00  -1.72721815E+02   3.71923468E-01
   1.76750000E+03   5.00000000E-01   5.00000000E-01  -5.82496240E+00  -2.26585796E+00  -5.10463649E+00  -1.36763702E+01   1.61394474E-03   8.78061368E-01  -3.40470261E-01  -2.16099082E+00  -4.23446368E-08  -3.67710320E-01   1.25681313E+00   1.23004591E+00   9.16437548E-05  -2.69224254E+00  -1.71566353E+02   3.69215872E-01
   1.80250000E+03   5.00000000E-01   5.00000000E-01  -5.79083961E+00  -2.25282544E+00  -5.06821515E+00  -1.36748982E+01   1.55741192E-03   8.70390817E-01  -3.40360259E-01  -2.17008036E+00  -4.85143360E-08  -3.49898486E-01   1.25660763E+00   1.25330059E+00   8.99777672E-05  -2.69764048E+00  -1.70422320E+02   3.66556296E-01
   1.83750000E+03   5.00000000E-01   5.00000000E-01  -5.75699730E+00  -2.23989038E+00  -5.03252148E+00  -1.36759655E+01   1.50255171E-03   8.62719260E-01  -3.40310525E-01  -2.17997965E+00  -5.55478164E-08  -3.32431224E-01   1.25624723E+00   1.27606515E+00   8.84167529E-05  -2.70342151E+00  -1.69289559E+02   3.63929520E-01
   1.87250000E+03   5.00000000E-01   5.00000000E-01  -5.72341582E+00  -2.22704999E+00  -4.99754025E+00  -1.36795126E+01   1.44932825E-03   8.55098090E-01  -3.40342089E-01  -2.19066924E+00  -6.35607110E-08  -3.15310081E-01   1.25573006E+00   1.29837440E+00   8.69659030E-05  -2.70958723E+00  -1.68167911E+02   3.61322260E-01
   1.90750000E+03   5.00000000E-01   5.00000000E-01  -5.69007780E+00  -2.21430166E+00  -4.96325706E+00  -1.36854847E+01   1.39770480E-03   8.47571562E-01  -3.40472618E-01  -2.20213143E+00  -7.26839523E-08  -2.98535500E-01   1.25505507E+00   1.32025952E+00   8.56286471E-05  -2.71613813E+00  -1.67057220E+02   3.58723107E-01
   1.94250000E+03   5.00000000E-01   5.00000000E-01  -5.65696806E+00  -2.20164298E+00  -4.92965839E+00  -1.36938313E+01   1.34764408E-03   8.40177077E-01  -3.40716648E-01  -2.21435008E+00  -8.30658677E-08  -2.82106994E-01   1.25422182E+00   1.34174795E+00   8.44069208E-05  -2.72307374E+00  -1.65957331E+02   3.56122440E-01
   1.97750000E+03   5.00000000E-01   5.00000000E-01  -5.62407338E+00  -2.18907171E+00  -4.89673162E+00  -1.37045061E+01   1.29910857E-03   8.32945598E-01  -3.41085858E-01  -2.22731044E+00  -9.48744384E-08  -2.66023310E-01   1.25323027E+00   1.36286353E+00   8.33014371E-05  -2.73039278E+00  -1.64868089E+02   3.53512291E-01
   2.01250000E+03   5.00000000E-01   5.00000000E-01  -5.59138240E+00  -2.17658576E+00  -4.86446501E+00  -1.37174666E+01   1.25206074E-03   8.25902162E-01  -3.41589375E-01  -2.24099896E+00  -1.08299870E-07  -2.50282595E-01   1.25208061E+00   1.38362661E+00   8.23119496E-05  -2.73809330E+00  -1.63789343E+02   3.50886202E-01
   2.04750000E+03   5.00000000E-01   5.00000000E-01  -5.55888537E+00  -2.16418316E+00  -4.83284767E+00  -1.37326731E+01   1.20646327E-03   8.19066454E-01  -3.42234087E-01  -2.25540303E+00  -1.23557527E-07  -2.34882539E-01   1.25077313E+00   1.40405430E+00   8.14374986E-05  -2.74617283E+00  -1.62720941E+02   3.48239063E-01
   2.08250000E+03   5.00000000E-01   5.00000000E-01  -5.52657397E+00  -2.15186205E+00  -4.80186951E+00  -1.37500889E+01   1.16227924E-03   8.12453414E-01  -3.43024952E-01  -2.27051084E+00  -1.40891037E-07  -2.19820512E-01   1.24930810E+00   1.42416068E+00   8.06766359E-05  -2.75462841E+00  -1.61662736E+02   3.45566945E-01
   2.11750000E+03   5.00000000E-01   5.00000000E-01  -5.49444111E+00  -2.13962071E+00  -4.77152112E+00  -1.37696791E+01   1.11947225E-03   8.06073849E-01  -3.43965300E-01  -2.28631108E+00  -1.60576000E-07  -2.05093672E-01   1.24768567E+00   1.44395717E+00   8.00276236E-05  -2.76345676E+00  -1.60614580E+02   3.42866937E-01
   2.15250000E+03   5.00000000E-01   5.00000000E-01  -5.46248074E+00  -2.12745746E+00  -4.74179373E+00  -1.37914105E+01   1.07800651E-03   7.99935034E-01  -3.45057109E-01  -2.30279285E+00  -1.82923845E-07  -1.90699061E-01   1.24590583E+00   1.46345278E+00   7.94886067E-05  -2.77265429E+00  -1.59576327E+02   3.40136987E-01
   2.18750000E+03   5.00000000E-01   5.00000000E-01  -5.43068771E+00  -2.11537072E+00  -4.71267908E+00  -1.38152508E+01   1.03784697E-03   7.94041285E-01  -3.46301271E-01  -2.31994541E+00  -2.08286242E-07  -1.76633689E-01   1.24396836E+00   1.48265441E+00   7.90577609E-05  -2.78221717E+00  -1.58547835E+02   3.37375755E-01
   2.22250000E+03   5.00000000E-01   5.00000000E-01  -5.39905754E+00  -2.10335897E+00  -4.68416931E+00  -1.38411684E+01   9.98959344E-04   7.88394496E-01  -3.47697821E-01  -2.33775808E+00  -2.37059922E-07  -1.62894592E-01   1.24187277E+00   1.50156723E+00   7.87334143E-05  -2.79214137E+00  -1.57528963E+02   3.34582476E-01
   2.25750000E+03   5.00000000E-01   5.00000000E-01  -5.36758636E+00  -2.09142075E+00  -4.65625689E+00  -1.38691316E+01   9.61310160E-04   7.82994637E-01  -3.49246146E-01  -2.35622003E+00  -2.69691975E-07  -1.49478888E-01   1.23961835E+00   1.52019487E+00   7.85141476E-05  -2.80242268E+00  -1.56519572E+02   3.31756829E-01
   2.29250000E+03   5.00000000E-01   5.00000000E-01  -5.33627072E+00  -2.07955463E+00  -4.62893447E+00  -1.38991086E+01   9.24866777E-04   7.77840202E-01  -3.50945178E-01  -2.37532028E+00  -3.06685623E-07  -1.36383816E-01   1.23720412E+00   1.53853978E+00   7.83988736E-05  -2.81305673E+00  -1.55519528E+02   3.28898829E-01
   2.32750000E+03   5.00000000E-01   5.00000000E-01  -5.30510748E+00  -2.06775924E+00  -4.60219485E+00  -1.39310667E+01   8.89597393E-04   7.72928605E-01  -3.52793549E-01  -2.39504747E+00  -3.48606450E-07  -1.23606771E-01   1.23462885E+00   1.55660340E+00   7.83868987E-05  -2.82403896E+00  -1.54528696E+02   3.26008727E-01
   2.36250000E+03   5.00000000E-01   5.00000000E-01  -5.27409372E+00  -2.05603321E+00  -4.57603084E+00  -1.39649726E+01   8.55471037E-04   7.68256538E-01  -3.54789737E-01  -2.41538987E+00  -3.96089259E-07  -1.11145330E-01   1.23189106E+00   1.57438644E+00   7.84779684E-05  -2.83536468E+00  -1.53546947E+02   3.23086917E-01
   2.39750000E+03   5.00000000E-01   5.00000000E-01  -5.24322668E+00  -2.04437522E+00  -4.55043520E+00  -1.40007914E+01   8.22457551E-04   7.63820280E-01  -3.56932185E-01  -2.43633531E+00  -4.49845249E-07  -9.89972755E-02   1.22898902E+00   1.59188905E+00   7.86722997E-05  -2.84702903E+00  -1.52574151E+02   3.20133865E-01
   2.43250000E+03   5.00000000E-01   5.00000000E-01  -5.21250362E+00  -2.03278397E+00  -4.52540056E+00  -1.40384869E+01   7.90527562E-04   7.59615960E-01  -3.59219407E-01  -2.45787108E+00  -5.10669800E-07  -8.71606102E-02   1.22592079E+00   1.60911097E+00   7.89706006E-05  -2.85902696E+00  -1.51610185E+02   3.17150042E-01
   2.46750000E+03   5.00000000E-01   5.00000000E-01  -5.18192182E+00  -2.02125816E+00  -4.50091935E+00  -1.40780212E+01   7.59652451E-04   7.55639788E-01  -3.61650074E-01  -2.47998394E+00  -5.79450533E-07  -7.56335727E-02   1.22268419E+00   1.62605172E+00   7.93740797E-05  -2.87135326E+00  -1.50654926E+02   3.14135863E-01
   2.50250000E+03   5.00000000E-01   5.00000000E-01  -5.15147847E+00  -2.00979651E+00  -4.47698375E+00  -1.41193547E+01   7.29804313E-04   7.51888241E-01  -3.64223088E-01  -2.50266008E+00  -6.57175836E-07  -6.44146492E-02   1.21927682E+00   1.64271070E+00   7.98844456E-05  -2.88400251E+00  -1.49708254E+02   3.11091648E-01
   2.53750000E+03   5.00000000E-01   5.00000000E-01  -5.12117066E+00  -1.99839777E+00  -4.45358564E+00  -1.41624458E+01   7.00955917E-04   7.48358226E-01  -3.66937639E-01  -2.52588512E+00  -7.44943502E-07  -5.35025838E-02   1.21569608E+00   1.65908727E+00   8.05038982E-05  -2.89696909E+00  -1.48770055E+02   3.08017577E-01
   2.57250000E+03   5.00000000E-01   5.00000000E-01  -5.09099534E+00  -1.98706066E+00  -4.43071654E+00  -1.42072509E+01   6.73080659E-04   7.45047198E-01  -3.69793255E-01  -2.54964410E+00  -8.43969539E-07  -4.28963873E-02   1.21193917E+00   1.67518086E+00   8.12351113E-05  -2.91024715E+00  -1.47840214E+02   3.04913661E-01
   2.60750000E+03   5.00000000E-01   5.00000000E-01  -5.06094928E+00  -1.97578392E+00  -4.40836758E+00  -1.42537245E+01   6.46152522E-04   7.41953267E-01  -3.72789842E-01  -2.57392149E+00  -9.55596810E-07  -3.25953443E-02   1.20800306E+00   1.69099101E+00   8.20812075E-05  -2.92383061E+00  -1.46918622E+02   3.01779719E-01
   2.64250000E+03   5.00000000E-01   5.00000000E-01  -5.03102906E+00  -1.96456631E+00  -4.38652946E+00  -1.43018187E+01   6.20146028E-04   7.39075270E-01  -3.75927709E-01  -2.59870119E+00  -1.08130334E-06  -2.25990188E-02   1.20388455E+00   1.70651743E+00   8.30457251E-05  -2.93771316E+00  -1.46005172E+02   2.98615355E-01
   2.67750000E+03   5.00000000E-01   5.00000000E-01  -5.00123102E+00  -1.95340657E+00  -4.36519243E+00  -1.43514838E+01   5.95036199E-04   7.36412824E-01  -3.79207588E-01  -2.62396656E+00  -1.22270995E-06  -1.29072584E-02   1.19958022E+00   1.72176005E+00   8.41325764E-05  -2.95188819E+00  -1.45099759E+02   2.95419949E-01
   2.71250000E+03   5.00000000E-01   5.00000000E-01  -4.97155130E+00  -1.94230344E+00  -4.34434627E+00  -1.44026679E+01   5.70798509E-04   7.33966355E-01  -3.82630646E-01  -2.64970045E+00  -1.38158692E-06  -3.52019590E-03   1.19508645E+00   1.73671899E+00   8.53459983E-05  -2.96634883E+00  -1.44202284E+02   2.92192646E-01
   2.74750000E+03   5.00000000E-01   5.00000000E-01  -4.94198581E+00  -1.93125567E+00  -4.32398025E+00  -1.44553169E+01   5.47408853E-04   7.31737122E-01  -3.86198480E-01  -2.67588523E+00  -1.55985941E-06   5.56175995E-03   1.19039944E+00   1.75139463E+00   8.66904907E-05  -2.98108793E+00  -1.43312648E+02   2.88932357E-01
   2.78250000E+03   5.00000000E-01   5.00000000E-01  -4.91253020E+00  -1.92026199E+00  -4.30408312E+00  -1.45093746E+01   5.24843505E-04   7.29727220E-01  -3.89913109E-01  -2.70250281E+00  -1.75960985E-06   1.43379402E-02   1.18551524E+00   1.76578760E+00   8.81707502E-05  -2.99609797E+00  -1.42430758E+02   2.85637755E-01
   2.81750000E+03   5.00000000E-01   5.00000000E-01  -4.88317994E+00  -1.90932116E+00  -4.28464310E+00  -1.45647832E+01   5.03079091E-04   7.27939521E-01  -3.93776984E-01  -2.72953471E+00  -1.98308000E-06   2.28073745E-02   1.18042966E+00   1.77989873E+00   8.97915967E-05  -3.01137115E+00  -1.41556522E+02   2.82307288E-01
   2.85250000E+03   5.00000000E-01   5.00000000E-01  -4.85393025E+00  -1.89843191E+00  -4.26564792E+00  -1.46214826E+01   4.82092554E-04   7.26377662E-01  -3.97792953E-01  -2.75696207E+00  -2.23266689E-06   3.09688277E-02   1.17513833E+00   1.79372905E+00   9.15578828E-05  -3.02689932E+00  -1.40689852E+02   2.78939181E-01
   2.88750000E+03   5.00000000E-01   5.00000000E-01  -4.82477617E+00  -1.88759297E+00  -4.24708476E+00  -1.46794111E+01   4.61861136E-04   7.25045996E-01  -4.01964229E-01  -2.78476570E+00  -2.51091680E-06   3.88208191E-02   1.16963674E+00   1.80727977E+00   9.34743938E-05  -3.04267398E+00  -1.39830664E+02   2.75531458E-01
   2.92250000E+03   5.00000000E-01   5.00000000E-01  -4.79571258E+00  -1.87680310E+00  -4.22894023E+00  -1.47385051E+01   4.42362349E-04   7.23949524E-01  -4.06294356E-01  -2.81292619E+00  -2.82051407E-06   4.63616442E-02   1.16392022E+00   1.82055230E+00   9.55457385E-05  -3.05868620E+00  -1.38978875E+02   2.72081957E-01
   2.95750000E+03   5.00000000E-01   5.00000000E-01  -4.76673418E+00  -1.86606103E+00  -4.21120043E+00  -1.47986996E+01   4.23573960E-04   7.23093821E-01  -4.10787158E-01  -2.84142388E+00  -3.16426435E-06   5.35894026E-02   1.15798400E+00   1.83354822E+00   9.77762284E-05  -3.07492668E+00  -1.38134407E+02   2.68588353E-01
   2.99250000E+03   5.00000000E-01   5.00000000E-01  -4.73783559E+00  -1.85536552E+00  -4.19385089E+00  -1.48599280E+01   4.05473979E-04   7.22484944E-01  -4.15446687E-01  -2.87023899E+00  -3.54507131E-06   6.05020329E-02   1.15182323E+00   1.84626922E+00   1.00169747E-04  -3.09138566E+00  -1.37297183E+02   2.65048189E-01
   3.02750000E+03   5.00000000E-01   5.00000000E-01  -4.70901132E+00  -1.84471533E+00  -4.17687663E+00  -1.49221224E+01   3.88040641E-04   7.22129325E-01  -4.20277156E-01  -2.89935168E+00  -3.96590640E-06   6.70973544E-02   1.14543302E+00   1.85871715E+00   1.02729610E-04  -3.10805290E+00  -1.36467131E+02   2.61458903E-01
   3.06250000E+03   5.00000000E-01   5.00000000E-01  -4.68025587E+00  -1.83410923E+00  -4.16026211E+00  -1.49852137E+01   3.71252401E-04   7.22033656E-01  -4.25282864E-01  -2.92874210E+00  -4.42977075E-06   7.33731168E-02   1.13880850E+00   1.87089393E+00   1.05458418E-04  -3.12491768E+00  -1.35644181E+02   2.57817867E-01
   3.09750000E+03   5.00000000E-01   5.00000000E-01  -4.65156376E+00  -1.82354602E+00  -4.14399127E+00  -1.50491321E+01   3.55087924E-04   7.22204758E-01  -4.30468118E-01  -2.95839047E+00  -4.93964852E-06   7.93270576E-02   1.13194486E+00   1.88280159E+00   1.08357900E-04  -3.14196875E+00  -1.34828265E+02   2.54122427E-01
   3.13250000E+03   5.00000000E-01   5.00000000E-01  -4.62292956E+00  -1.81302451E+00  -4.12804753E+00  -1.51138066E+01   3.39526083E-04   7.22649440E-01  -4.35837133E-01  -2.98827720E+00  -5.49845188E-06   8.49569678E-02   1.12483745E+00   1.89444221E+00   1.11428756E-04  -3.15919428E+00  -1.34019318E+02   2.50369949E-01
   3.16750000E+03   5.00000000E-01   5.00000000E-01  -4.59434800E+00  -1.80254354E+00  -4.11241382E+00  -1.51791661E+01   3.24545951E-04   7.23374346E-01  -4.41393935E-01  -3.01838293E+00  -6.10895690E-06   9.02607660E-02   1.11748180E+00   1.90581796E+00   1.14670498E-04  -3.17658186E+00  -1.33217278E+02   2.46557865E-01