 TITLE = "Mineral Saturation State" 
VARIABLES = "X"          "Y"              "Z"            "Forsterite"     "Fayalite"       "Brucite"        "Lizardite"      "Chrysotile"     "Hematite"       "Magnetite(am)"  "Saponite(Ca)"   "Saponite(K)"    "Saponite(Mg)"   "Saponite(Na)"   "Beidellite(Ca)" "Beidellite(K)"  "Beidellite(Mg)" "Beidellite(Na)" "Enstatite(alph" "Ferrosilite(al" "Anorthite"      "Albite(low)"    "Clinochlore"    "Sudoite"        "Montmor(MgCa)"  "Montmor(MgK)"   "Montmor(MgMg)"  "Montmor(MgNa)"  "Kaolinite"      "Tremolite"      "Pargasite"      "Anhydrite"      "Epidote"        "Scolecite"      "Pyrite"         "FeS(am)"        "Quartz(alpha)"  "Titanite"       "Rutile"         "Barite"         "Fluorite"       "Spessartine(al" "Andradite"      "Celestite"      "Zincite"        "Chalcocyanite"  "Chalcocite(alp"
 ZONE I=         200 , J=           1 , K=           1  F=POINT
   8.75000000E+00   5.00000000E-01   5.00000000E-01  -7.06087916E+00  -2.97024484E+00  -4.75011558E+00  -1.28176312E+00  -1.39925143E+00   8.94095064E-02  -5.29310722E+00   6.03152852E-01   2.43190961E+00   1.26410160E+00   2.31057071E+00  -6.60449122E+00  -5.45644471E+00  -5.94353975E+00  -5.51658845E+00  -2.53081954E+00  -1.54765801E+00  -1.17448186E+01  -1.59737540E+00   2.28787017E-02  -6.91169552E+00  -4.17726538E+00  -2.78830545E+00  -3.54984342E+00  -2.93745681E+00  -5.25154708E+00  -4.87225978E+00  -3.27876494E+01  -9.80322532E-01  -1.04820214E+01  -6.52841922E+00  -5.53259080E+01  -1.94329880E+01   7.13868123E-01  -7.08889696E-01   1.49281087E-01   2.99361783E-01  -5.70070716E-01  -2.63158330E+01  -6.99221225E+00  -1.70344203E+00  -3.62360251E+00  -1.59370320E+01   1.52714421E+00
   2.62500000E+01   5.00000000E-01   5.00000000E-01  -7.56151317E+00  -2.86250420E+00  -5.08711879E+00  -2.02192730E+00  -2.13738096E+00   8.94095063E-02  -5.30040522E+00   3.04966017E-01   2.10742802E+00   9.65351401E-01   1.99524223E+00  -4.50305145E+00  -3.37509012E+00  -3.84266895E+00  -3.42618702E+00  -2.70307857E+00  -1.41120109E+00  -1.04041059E+01  -6.31542142E-01   2.26805224E-02  -4.51902630E+00  -2.59457095E+00  -1.22697699E+00  -1.96752768E+00  -1.36661024E+00  -3.60601272E+00  -6.02250228E+00  -3.19842334E+01  -9.62474147E-01  -9.35326939E+00  -5.06980843E+00  -5.62483550E+01  -2.02907078E+01   8.77080273E-01  -8.88838574E-01   1.63977313E-01   1.37824823E-01  -5.87420954E-01  -2.46263537E+01  -7.56013502E+00  -1.71040453E+00  -3.72877014E+00  -1.58703283E+01   1.16485627E-01
   4.37500000E+01   5.00000000E-01   5.00000000E-01  -7.71795315E+00  -2.70070700E+00  -5.22142194E+00  -2.27577682E+00  -2.38921771E+00   8.94095063E-02  -5.25028179E+00   2.84629949E-01   2.06358561E+00   9.44492298E-01   1.96044638E+00  -3.56408525E+00  -2.45598321E+00  -2.90423097E+00  -2.49813942E+00  -2.73381436E+00  -1.27833137E+00  -9.81492206E+00  -1.63575466E-01   2.23376819E-02  -3.56671893E+00  -1.84345935E+00  -4.96992199E-01  -1.21675669E+00  -6.27218225E-01  -2.91434758E+00  -6.24260914E+00  -3.14781161E+01  -9.44407729E-01  -8.83434052E+00  -4.42362159E+00  -5.54076818E+01  -1.98853085E+01   9.79076869E-01  -9.28453082E-01   1.77448885E-01   5.12969056E-02  -6.03940119E-01  -2.37180257E+01  -7.70356406E+00  -1.71682300E+00  -3.72721688E+00  -1.58038490E+01   1.16485627E-01
   6.12500000E+01   5.00000000E-01   5.00000000E-01  -7.77235832E+00  -2.54970464E+00  -5.28454224E+00  -2.39612035E+00  -2.50756995E+00   8.94095062E-02  -5.18559775E+00   3.02781220E-01   2.05890552E+00   9.62151085E-01   1.96470633E+00  -3.03743740E+00  -1.94897307E+00  -2.37808039E+00  -1.98229476E+00  -2.73366843E+00  -1.17103584E+00  -9.47201991E+00   1.00890317E-01   2.18241837E-02  -3.06528335E+00  -1.41367838E+00  -8.81033904E-02  -7.87287977E-01  -2.09033015E-01  -2.53984397E+00  -6.28609671E+00  -3.11063404E+01  -9.26124013E-01  -8.53057769E+00  -4.06373742E+00  -5.46997234E+01  -1.95388038E+01   1.04073505E+00  -9.38325991E-01   1.89691468E-01   8.46178216E-03  -6.19658003E-01  -2.31067337E+01  -7.75426146E+00  -1.72267775E+00  -3.69759745E+00  -1.57375920E+01   1.16485627E-01
   7.87500000E+01   5.00000000E-01   5.00000000E-01  -7.79283555E+00  -2.42471379E+00  -5.31735744E+00  -2.47830110E+00  -2.58778057E+00   8.94095061E-02  -5.12078341E+00   3.07607916E-01   2.04109378E+00   9.66510260E-01   1.95572920E+00  -2.68862888E+00  -1.61958481E+00  -2.02974380E+00  -1.64417709E+00  -2.72986936E+00  -1.09009736E+00  -9.22529969E+00   2.64197719E-01   2.13229361E-02  -2.72824822E+00  -1.13564653E+00   1.69266600E-01  -5.09545577E-01   5.75236854E-02  -2.29155639E+00  -6.32986632E+00  -3.08071735E+01  -9.07629405E-01  -8.31908280E+00  -3.82640851E+00  -5.40571327E+01  -1.92247352E+01   1.07570543E+00  -9.45627706E-01   2.00734713E-01  -1.25058221E-02  -6.34606026E-01  -2.26411602E+01  -7.79382425E+00  -1.72797760E+00  -3.66220446E+00  -1.56715614E+01   1.16485628E-01
   9.62500000E+01   5.00000000E-01   5.00000000E-01  -7.79298305E+00  -2.31684029E+00  -5.33153204E+00  -2.53785822E+00  -2.64538837E+00   8.94095060E-02  -5.05625465E+00   3.02721107E-01   2.01376618E+00   9.61177270E-01   1.93713262E+00  -2.44976033E+00  -1.39992311E+00  -1.79132550E+00  -1.41588918E+00  -2.72435045E+00  -1.02620242E+00  -9.03765832E+00   3.64357604E-01   2.09673132E-02  -2.49119432E+00  -9.52078342E-01   3.32399024E-01  -3.26247604E-01   2.29735081E-01  -2.12073792E+00  -6.37769293E+00  -3.05540739E+01  -8.88932899E-01  -8.16467058E+00  -3.66480219E+00  -5.34569559E+01  -1.89318326E+01   1.09372056E+00  -9.52241643E-01   2.10611401E-01  -2.32099537E-02  -6.48815496E-01  -2.22669142E+01  -7.82799794E+00  -1.73274013E+00  -3.62397063E+00  -1.56057643E+01   1.16485628E-01
   1.13750000E+02   5.00000000E-01   5.00000000E-01  -7.77733620E+00  -2.21875005E+00  -5.33270996E+00  -2.57822562E+00  -2.68382693E+00   8.94095060E-02  -4.99171837E+00   2.96303105E-01   1.98515625E+00   9.54330716E-01   1.91715233E+00  -2.28768042E+00  -1.25684052E+00  -1.62967785E+00  -1.26428137E+00  -2.71600269E+00  -9.72306694E-01  -8.89318554E+00   4.22829172E-01   2.08016452E-02  -2.32911065E+00  -8.32174469E-01   4.32089142E-01  -2.06598386E-01   3.38398724E-01  -2.00585556E+00  -6.41503247E+00  -3.03311196E+01  -8.70044337E-01  -8.05030565E+00  -3.55625687E+00  -5.28875755E+01  -1.86541396E+01   1.10153469E+00  -9.57009129E-01   2.19353510E-01  -2.91552731E-02  -6.62316584E-01  -2.19561328E+01  -7.85339946E+00  -1.73698450E+00  -3.58372660E+00  -1.55402080E+01   1.16485628E-01
   1.31250000E+02   5.00000000E-01   5.00000000E-01  -7.75007491E+00  -2.12751718E+00  -5.32517380E+00  -2.60348759E+00  -2.70718022E+00   8.94095059E-02  -4.92790190E+00   2.92224320E-01   1.95915422E+00   9.49837371E-01   1.89968069E+00  -2.17741799E+00  -1.16536967E+00  -1.51983338E+00  -1.16438410E+00  -2.70472303E+00  -9.24753644E-01  -8.77912874E+00   4.54758281E-01   2.07915870E-02  -2.22093311E+00  -7.53731258E-01   4.90536652E-01  -1.28397858E-01   4.05716542E-01  -1.92989497E+00  -6.43675035E+00  -3.01274203E+01  -8.50973680E-01  -7.96311660E+00  -3.48363590E+00  -5.23411182E+01  -1.83880821E+01   1.10353474E+00  -9.59777773E-01   2.26993043E-01  -3.28652490E-02  -6.75138201E-01  -2.16903930E+01  -7.86966470E+00  -1.74072957E+00  -3.54281601E+00  -1.54748999E+01   1.16485628E-01
   1.48750000E+02   5.00000000E-01   5.00000000E-01  -7.71476451E+00  -2.04213567E+00  -5.31204927E+00  -2.61765600E+00  -2.71945978E+00   8.94095059E-02  -4.86564298E+00   2.91681865E-01   1.93695791E+00   9.48891292E-01   1.88591746E+00  -2.10085906E+00  -1.10740023E+00  -1.44368118E+00  -1.09808511E+00  -2.69095073E+00  -8.81696281E-01  -8.68569316E+00   4.70413051E-01   2.08770910E-02  -2.14980711E+00  -7.01344198E-01   5.23142227E-01  -7.62445251E-02   4.47091215E-01  -1.87995320E+00  -6.44321390E+00  -2.99358394E+01  -8.31730816E-01  -7.89373547E+00  -3.43445975E+00  -5.18121304E+01  -1.81313512E+01   1.10240838E+00  -9.60940329E-01   2.33562488E-01  -3.54997080E-02  -6.87308119E-01  -2.14571101E+01  -7.87806652E+00  -1.74399371E+00  -3.50243894E+00  -1.54098470E+01   1.16485628E-01
   1.66250000E+02   5.00000000E-01   5.00000000E-01  -7.67405682E+00  -1.96216217E+00  -5.29544417E+00  -2.62393352E+00  -2.72386796E+00   8.94095058E-02  -4.80549957E+00   2.94700027E-01   1.91858475E+00   9.51514390E-01   1.87588177E+00  -2.04583079E+00  -1.07076289E+00  -1.38905078E+00  -1.05321338E+00  -2.67522946E+00  -8.42130149E-01  -8.60602911E+00   4.76343986E-01   2.10067040E-02  -2.10363770E+00  -6.65002547E-01   5.39912884E-01  -4.01299793E-02   4.72531545E-01  -1.84708637E+00  -6.43665140E+00  -2.97519399E+01  -8.12325498E-01  -7.83584768E+00  -3.40031627E+00  -5.12969085E+01  -1.78823732E+01   1.09972092E+00  -9.60997423E-01   2.39094788E-01  -3.76014060E-02  -6.98853020E-01  -2.12477495E+01  -7.88020283E+00  -1.74679486E+00  -3.46337438E+00  -1.53450558E+01   1.16485628E-01
   1.83750000E+02   5.00000000E-01   5.00000000E-01  -7.62981649E+00  -1.88727691E+00  -5.27672409E+00  -2.62469066E+00  -2.72277498E+00   8.94095058E-02  -4.74774279E+00   3.00831164E-01   1.90357766E+00   9.57257213E-01   1.86911808E+00  -2.00446053E+00  -1.04758848E+00  -1.34807137E+00  -1.02189815E+00  -2.65805799E+00  -8.05461246E-01  -8.53554403E+00   4.76578099E-01   2.11470905E-02  -2.07414003E+00  -6.38436029E-01   5.47115275E-01  -1.37857184E-02   4.88305794E-01  -1.82534667E+00  -6.41968052E+00  -2.95730545E+01  -7.92767324E-01  -7.78535413E+00  -3.37574775E+00  -5.07929418E+01  -1.76400273E+01   1.09634030E+00  -9.60407737E-01   2.43623170E-01  -3.94303121E-02  -7.09798505E-01  -2.10564939E+01  -7.87754661E+00  -1.74915054E+00  -3.42603332E+00  -1.52805326E+01   1.16485628E-01
   2.01250000E+02   5.00000000E-01   5.00000000E-01  -7.58332662E+00  -1.81716682E+00  -5.25675753E+00  -2.62163178E+00  -2.71788491E+00   8.94095057E-02  -4.69244083E+00   3.09483433E-01   1.89133503E+00   9.65526515E-01   1.86502619E+00  -1.97174375E+00  -1.03287581E+00  -1.31573984E+00  -9.99136822E-01  -2.63985066E+00  -7.71305293E-01  -8.47120833E+00   4.73535429E-01   2.12804607E-02  -2.05573756E+00  -6.17794772E-01   5.48595744E-01   6.63676646E-03   4.98261796E-01  -1.81084404E+00  -6.39474498E+00  -2.93976157E+01  -7.73065715E-01  -7.73963652E+00  -3.35727215E+00  -5.02985078E+01  -1.74034859E+01   1.09272179E+00  -9.59547761E-01   2.47180937E-01  -4.11139012E-02  -7.20169096E-01  -2.08793192E+01  -7.87132456E+00  -1.75107782E+00  -3.39057608E+00  -1.52162835E+01   1.16485628E-01
   2.18750000E+02   5.00000000E-01   5.00000000E-01  -7.53546149E+00  -1.75150541E+00  -5.23609149E+00  -2.61596506E+00  -2.71040561E+00   8.94095057E-02  -4.63953812E+00   3.20074746E-01   1.88126563E+00   9.75739088E-01   1.86301623E+00  -1.94452590E+00  -1.02347360E+00  -1.28890277E+00  -9.81776763E-01  -2.62093448E+00  -7.39388390E-01  -8.41103605E+00   4.68645791E-01   2.13991817E-02  -2.04470326E+00  -6.00744883E-01   5.46684753E-01   2.34702872E-02   5.04731418E-01  -1.80105187E+00  -6.36391467E+00  -2.92247179E+01  -7.53229896E-01  -7.69703446E+00  -3.34268522E+00  -4.98124015E+01  -1.71721179E+01   1.08908643E+00  -9.58708397E-01   2.49801264E-01  -4.27159678E-02  -7.29988246E-01  -2.07133875E+01  -7.86250629E+00  -1.75259328E+00  -3.35701018E+00  -1.51523141E+01   1.16485628E-01
   2.36250000E+02   5.00000000E-01   5.00000000E-01  -7.48681279E+00  -1.68995839E+00  -5.21506799E+00  -2.60853836E+00  -2.70118467E+00   8.94095056E-02  -4.58891149E+00   3.32098117E-01   1.87285431E+00   9.87387021E-01   1.86257435E+00  -1.92083002E+00  -1.01740807E+00  -1.26558414E+00  -9.67842901E-01  -2.60155891E+00  -7.09496494E-01  -8.35372961E+00   4.62739909E-01   2.15012806E-02  -2.03855708E+00  -5.85886961E-01   5.42778354E-01   3.81133538E-02   5.09112067E-01  -1.79433596E+00  -6.32884590E+00  -2.90538466E+01  -7.33268874E-01  -7.65649944E+00  -3.33059857E+00  -4.93337598E+01  -1.69454296E+01   1.08552777E+00  -9.58104333E-01   2.51517018E-01  -4.42688933E-02  -7.39278361E-01  -2.05566534E+01  -7.85183191E+00  -1.75371297E+00  -3.32525746E+00  -1.50886297E+01   1.16485628E-01
   2.53750000E+02   5.00000000E-01   5.00000000E-01  -7.43777743E+00  -1.63219351E+00  -5.19389873E+00  -2.59994022E+00  -2.69081035E+00   8.94095056E-02  -4.54040595E+00   3.45141960E-01   1.86568236E+00   1.00005793E+00   1.86328308E+00  -1.89942639E+00  -1.01345262E+00  -1.24455505E+00  -9.56107360E-01  -2.58190894E+00  -6.81449514E-01  -8.29844517E+00   4.56290063E-01   2.15875346E-02  -2.03565882E+00  -5.72393398E-01   5.37700889E-01   5.13928135E-02   5.12229400E-01  -1.78964535E+00  -6.29081087E+00  -2.88847143E+01  -7.13191413E-01  -7.61737286E+00  -3.32014336E+00  -4.88619482E+01  -1.67230259E+01   1.08207353E+00  -9.57886967E-01   2.52360596E-01  -4.57891691E-02  -7.48060826E-01  -2.04076107E+01  -7.83985028E+00  -1.75445244E+00  -3.29519626E+00  -1.50252353E+01   1.16485628E-01
   2.71250000E+02   5.00000000E-01   5.00000000E-01  -7.38861781E+00  -1.57788869E+00  -5.17271254E+00  -2.59057301E+00  -2.67968474E+00   8.94095055E-02  -4.49385593E+00   3.58888536E-01   1.85942588E+00   1.01343338E+00   1.86481976E+00  -1.87956011E+00  -1.01085537E+00  -1.22506130E+00  -9.45817026E-01  -2.56211800E+00  -6.55088129E-01  -8.24463891E+00   4.49555889E-01   2.16598245E-02  -2.03493576E+00  -5.59785161E-01   5.31928205E-01   6.37870325E-02   5.14560553E-01  -1.78631152E+00  -6.25075301E+00  -2.87171639E+01  -6.93006020E-01  -7.57924506E+00  -3.31078214E+00  -4.83964877E+01  -1.65045840E+01   1.07872003E+00  -9.58157219E-01   2.52363786E-01  -4.72850603E-02  -7.56356034E-01  -2.02651255E+01  -7.82695707E+00  -1.75482668E+00  -3.26668656E+00  -1.49621356E+01   1.16485628E-01
   2.88750000E+02   5.00000000E-01   5.00000000E-01  -7.33950326E+00  -1.52673750E+00  -5.15158535E+00  -2.58070571E+00  -2.66807656E+00   8.94095054E-02  -4.44909739E+00   3.73102934E-01   1.85384461E+00   1.02727782E+00   1.86694534E+00  -1.86077873E+00  -1.00916681E+00  -1.20665108E+00  -9.36521187E-01  -2.54227932E+00  -6.30267208E-01  -8.19196637E+00   4.42672066E-01   2.17202917E-02  -2.03570016E+00  -5.47795019E-01   5.25724424E-01   7.55626429E-02   5.16370912E-01  -1.78391785E+00  -6.20934765E+00  -2.85511108E+01  -6.72720924E-01  -7.54186587E+00  -3.30218946E+00  -4.79370073E+01  -1.62898361E+01   1.07545089E+00  -9.58976886E-01   2.51557641E-01  -4.87604843E-02  -7.64183424E-01  -2.01283274E+01  -7.81342845E+00  -1.75485016E+00  -3.23958454E+00  -1.48993350E+01   1.16485628E-01
   3.06250000E+02   5.00000000E-01   5.00000000E-01  -7.29053867E+00  -1.47845249E+00  -5.13055935E+00  -2.57051210E+00  -2.65615931E+00   8.94095054E-02  -4.40597428E+00   3.87618910E-01   1.84876764E+00   1.04142444E+00   1.86949011E+00  -1.84282242E+00  -1.00813001E+00  -1.18906516E+00  -9.27961721E-01  -2.52245545E+00  -6.06852661E-01  -8.14021567E+00   4.35700919E-01   2.17709522E-02  -2.03752567E+00  -5.36283588E-01   5.19225893E-01   8.68584855E-02   5.17798073E-01  -1.78221374E+00  -6.16705889E+00  -2.83865101E+01  -6.52344063E-01  -7.50508727E+00  -3.29417558E+00  -4.74832119E+01  -1.60785565E+01   1.07224662E+00  -9.60378190E-01   2.49972373E-01  -5.02170222E-02  -7.71561511E-01  -1.99965345E+01  -7.79944934E+00  -1.75453677E+00  -3.21375054E+00  -1.48368375E+01   1.16485628E-01
   3.23750000E+02   5.00000000E-01   5.00000000E-01  -7.24178477E+00  -1.43276717E+00  -5.10965544E+00  -2.56009888E+00  -2.64403944E+00   8.94095053E-02  -4.36434184E+00   4.02324475E-01   1.84407886E+00   1.05576071E+00   1.87233911E+00  -1.82555298E+00  -1.00760959E+00  -1.17216588E+00  -9.20002051E-01  -2.50268612E+00  -5.84720137E-01  -8.08926259E+00   4.28664072E-01   2.18135494E-02  -2.04016201E+00  -5.25187336E-01   5.12493177E-01   9.77375896E-02   5.18903829E-01  -1.78105737E+00  -6.12418980E+00  -2.82233375E+01  -6.31883076E-01  -7.46882624E+00  -3.28663688E+00  -4.70348613E+01  -1.58705526E+01   1.06908924E+00  -9.62371646E-01   2.47637261E-01  -5.16549847E-02  -7.78507929E-01  -1.98692033E+01  -7.78513686E+00  -1.75389985E+00  -3.18905337E+00  -1.47746466E+01   1.16485628E-01
   3.41250000E+02   5.00000000E-01   5.00000000E-01  -7.19327281E+00  -1.38943718E+00  -5.08888144E+00  -2.54952675E+00  -2.63177741E+00   8.94095052E-02  -4.32406805E+00   4.17148450E-01   1.83970337E+00   1.07021496E+00   1.87541862E+00  -1.80890671E+00  -1.00754460E+00  -1.15589004E+00  -9.12580074E-01  -2.48299466E+00  -5.63754714E-01  -8.03903934E+00   4.21561639E-01   2.18495247E-02  -2.04347449E+00  -5.14485871E-01   5.05543770E-01   1.08219885E-01   5.19706889E-01  -1.78037623E+00  -6.08092563E+00  -2.80615779E+01  -6.11345295E-01  -7.43303996E+00  -3.27952286E+00  -4.65917547E+01  -1.56656579E+01   1.06596403E+00  -9.64952552E-01   2.44580581E-01  -5.30739893E-02  -7.85039460E-01  -1.97458920E+01  -7.77055945E+00  -1.75295220E+00  -3.16537248E+00  -1.47127658E+01   1.16485628E-01
   3.58750000E+02   5.00000000E-01   5.00000000E-01  -7.14501550E+00  -1.34824112E+00  -5.06823771E+00  -2.53882671E+00  -2.61940397E+00   8.94095051E-02  -4.28503424E+00   4.32048438E-01   1.83559539E+00   1.08474434E+00   1.87868401E+00  -1.79286238E+00  -1.00791649E+00  -1.14021689E+00  -9.05676097E-01  -2.46339333E+00  -5.43851136E-01  -7.98951235E+00   4.14384002E-01   2.18800422E-02  -2.04739990E+00  -5.04180923E-01   4.98373110E-01   1.18303214E-01   5.20203888E-01  -1.78013926E+00  -6.03737056E+00  -2.79012196E+01  -5.90737741E-01  -7.39770884E+00  -3.27281357E+00  -4.61537206E+01  -1.54637274E+01   1.06285989E+00  -9.68106330E-01   2.40829535E-01  -5.44732779E-02  -7.91172074E-01  -1.96262349E+01  -7.75575280E+00  -1.75170608E+00  -3.14259899E+00  -1.46511980E+01   1.16485628E-01
   3.76250000E+02   5.00000000E-01   5.00000000E-01  -7.09701515E+00  -1.30898096E+00  -5.04772108E+00  -2.52801248E+00  -2.60693257E+00   8.94095050E-02  -4.24713505E+00   4.47000571E-01   1.83172787E+00   1.09932454E+00   1.88210936E+00  -1.77741915E+00  -1.00872705E+00  -1.12514601E+00  -8.99290767E-01  -2.44388756E+00  -5.24914229E-01  -7.94066623E+00   4.07119017E-01   2.19060331E-02  -2.05191411E+00  -4.94282753E-01   4.90968167E-01   1.27976918E-01   5.20382980E-01  -1.78033706E+00  -5.99357806E+00  -2.77422507E+01  -5.70067124E-01  -7.36282481E+00  -3.26650402E+00  -4.57206082E+01  -1.52646332E+01   1.05976897E+00  -9.71812844E-01   2.36410211E-01  -5.58518947E-02  -7.96920964E-01  -1.95099234E+01  -7.74073259E+00  -1.75017320E+00  -3.12063604E+00  -1.45899459E+01   1.16485628E-01
   3.93750000E+02   5.00000000E-01   5.00000000E-01  -7.04926948E+00  -1.27148184E+00  -5.02732736E+00  -2.51708948E+00  -2.59436842E+00   8.94095049E-02  -4.21027808E+00   4.61991489E-01   1.82808444E+00   1.11394183E+00   1.88567941E+00  -1.76258207E+00  -1.00998389E+00  -1.11068285E+00  -8.93430585E-01  -2.42447922E+00  -5.06859129E-01  -7.89249282E+00   3.99756150E-01   2.19282449E-02  -2.05700959E+00  -4.84801810E-01   4.83315789E-01   1.37230183E-01   5.20232176E-01  -1.78096827E+00  -5.94957407E+00  -2.75846574E+01  -5.49339841E-01  -7.32838356E+00  -3.26059388E+00  -4.52922828E+01  -1.50682620E+01   1.05668595E+00  -9.76049650E-01   2.31347538E-01  -5.72087868E-02  -8.02300575E-01  -1.93966914E+01  -7.72550418E+00  -1.74836473E+00  -3.09939859E+00  -1.45290117E+01   1.16485628E-01
   4.11250000E+02   5.00000000E-01   5.00000000E-01  -7.00177510E+00  -1.23559084E+00  -5.00705278E+00  -2.50606040E+00  -2.58171397E+00   8.94095048E-02  -4.17438285E+00   4.77013006E-01   1.82465399E+00   1.12858764E+00   1.88938416E+00  -1.74835410E+00  -1.01169250E+00  -1.09683077E+00  -8.88099922E-01  -2.40516864E+00  -4.89610994E-01  -7.84498488E+00   3.92288358E-01   2.19472858E-02  -2.06268193E+00  -4.75744525E-01   4.75406899E-01   1.46056241E-01   5.19743553E-01  -1.78203189E+00  -5.90537211E+00  -2.74284234E+01  -5.28561980E-01  -7.29438023E+00  -3.25508178E+00  -4.48686214E+01  -1.48745123E+01   1.05360742E+00  -9.80794088E-01   2.25665266E-01  -5.85428620E-02  -8.07324644E-01  -1.92863065E+01  -7.71006875E+00  -1.74629135E+00  -3.07881267E+00  -1.44683974E+01   1.16485628E-01
   4.28750000E+02   5.00000000E-01   5.00000000E-01  -6.95452886E+00  -1.20117467E+00  -4.98689443E+00  -2.49492757E+00  -2.56897132E+00   8.94095046E-02  -4.13937947E+00   4.92059524E-01   1.82142810E+00   1.14325605E+00   1.89321628E+00  -1.73473358E+00  -1.01385365E+00  -1.08358841E+00  -8.83298467E-01  -2.38595558E+00  -4.73104089E-01  -7.79813367E+00   3.84712273E-01   2.19636608E-02  -2.06892479E+00  -4.67112368E-01   4.67237441E-01   1.54453315E-01   5.18914187E-01  -1.78352445E+00  -5.86098041E+00  -2.72735306E+01  -5.07739324E-01  -7.26080806E+00  -3.24996343E+00  -4.44495104E+01  -1.46832928E+01   1.05053138E+00  -9.86024237E-01   2.19385947E-01  -5.98530219E-02  -8.12006229E-01  -1.91785626E+01  -7.69442619E+00  -1.74396320E+00  -3.05881411E+00  -1.44081048E+01   1.16485627E-01
   4.46250000E+02   5.00000000E-01   5.00000000E-01  -6.90752779E+00  -1.16811656E+00  -4.96685006E+00  -2.48369286E+00  -2.55614212E+00   8.94095045E-02  -4.10520692E+00   5.07127600E-01   1.81840057E+00   1.15794330E+00   1.89717063E+00  -1.72171537E+00  -1.01646461E+00  -1.07095099E+00  -8.79022421E-01  -2.36683931E+00  -4.57280378E-01  -7.75192952E+00   3.77027368E-01   2.19777978E-02  -2.07573054E+00  -4.58903017E-01   4.58807210E-01   1.62423448E-01   5.17744994E-01  -1.78544070E+00  -5.81640273E+00  -2.71199591E+01  -4.86877358E-01  -7.22765890E+00  -3.24523243E+00  -4.40348446E+01  -1.44945208E+01   1.04745696E+00  -9.91719007E-01   2.12530927E-01  -6.11381819E-02  -8.16357736E-01  -1.90732767E+01  -7.67857528E+00  -1.74138995E+00  -3.03934693E+00  -1.43481351E+01   1.16485627E-01
   4.63750000E+02   5.00000000E-01   5.00000000E-01  -6.86076829E+00  -1.13631307E+00  -4.94691761E+00  -2.47235664E+00  -2.54322651E+00   8.94095043E-02  -4.07181135E+00   5.22216556E-01   1.81556806E+00   1.17264845E+00   1.90124492E+00  -1.70929350E+00  -1.01952174E+00  -1.05891279E+00  -8.75267081E-01  -2.34781830E+00  -4.42088005E-01  -7.70636346E+00   3.69234831E-01   2.19900642E-02  -2.08309349E+00  -4.51112220E-01   4.50117987E-01   1.69970644E-01   5.16238857E-01  -1.78777579E+00  -5.77163634E+00  -2.69676881E+01  -4.65981272E-01  -7.19492466E+00  -3.24088210E+00  -4.36245260E+01  -1.43081211E+01   1.04438429E+00  -9.97857830E-01   2.05120344E-01  -6.23972829E-02  -8.20390956E-01  -1.89702857E+01  -7.66251278E+00  -1.73858077E+00  -3.02036177E+00  -1.42884894E+01   1.16485627E-01
   4.81250000E+02   5.00000000E-01   5.00000000E-01  -6.81424558E+00  -1.10567157E+00  -4.92709491E+00  -2.46091696E+00  -2.53022234E+00   8.94095042E-02  -4.03914483E+00   5.37328937E-01   1.81293051E+00   1.18737380E+00   1.90544017E+00  -1.69746295E+00  -1.02302232E+00  -1.04746905E+00  -8.72028688E-01  -2.32888996E+00  -4.27480072E-01  -7.66142840E+00   3.61336790E-01   2.20007767E-02  -2.09101216E+00  -4.43735097E-01   4.41172235E-01   1.77099563E-01   5.14399325E-01  -1.79052671E+00  -5.72667049E+00  -2.68166964E+01  -4.45055971E-01  -7.16259818E+00  -3.23690674E+00  -4.32184636E+01  -1.41240246E+01   1.04131435E+00  -1.00442042E+00   1.97173140E-01  -6.36292982E-02  -8.24117086E-01  -1.88694445E+01  -7.64623277E+00  -1.73554439E+00  -3.00181462E+00  -1.42291686E+01   1.16485627E-01
   4.98750000E+02   5.00000000E-01   5.00000000E-01  -6.76795389E+00  -1.07610878E+00  -4.90737969E+00  -2.44936995E+00  -2.51712551E+00   8.94095040E-02  -4.00716451E+00   5.52470058E-01   1.81049075E+00   1.20212445E+00   1.90976020E+00  -1.68621954E+00  -1.02696440E+00  -1.03661580E+00  -8.69304252E-01  -2.31005084E+00  -4.13413974E-01  -7.61711892E+00   3.53336193E-01   2.20102079E-02  -2.09948866E+00  -4.36766211E-01   4.31973027E-01   1.83815452E-01   5.12230547E-01  -1.79369205E+00  -5.68148762E+00  -2.66669627E+01  -4.24106081E-01  -7.13067317E+00  -3.23330147E+00  -4.28165721E+01  -1.39421681E+01   1.03824894E+00  -1.01138693E+00   1.88707068E-01  -6.48332364E-02  -8.27546761E-01  -1.87706230E+01  -7.62972705E+00  -1.73228908E+00  -2.98366613E+00  -1.41701729E+01   1.16485626E-01
   5.16250000E+02   5.00000000E-01   5.00000000E-01  -6.72188742E+00  -1.04755034E+00  -4.88776995E+00  -2.43771125E+00  -2.50393148E+00   8.94095038E-02  -3.97583234E+00   5.67646523E-01   1.80825292E+00   1.21690681E+00   1.91421020E+00  -1.67555772E+00  -1.03134462E+00  -1.02634770E+00  -8.67089414E-01  -2.29129714E+00  -3.99851279E-01  -7.57342951E+00   3.45237289E-01   2.20185906E-02  -2.10852507E+00  -4.30198450E-01   4.22525166E-01   1.90125260E-01   5.09738380E-01  -1.79726990E+00  -5.63606748E+00  -2.65184649E+01  -4.03135959E-01  -7.09914306E+00  -3.23006075E+00  -4.24187709E+01  -1.37624930E+01   1.03519039E+00  -1.01873844E+00   1.79738719E-01  -6.60081433E-02  -8.30690078E-01  -1.86737040E+01  -7.61298688E+00  -1.72882268E+00  -2.96588129E+00  -1.41115028E+01   1.16485626E-01
   5.33750000E+02   5.00000000E-01   5.00000000E-01  -6.67604161E+00  -1.01993097E+00  -4.86826455E+00  -2.42593819E+00  -2.49063736E+00   8.94095036E-02  -3.94511503E+00   5.82864227E-01   1.80622055E+00   1.23172662E+00   1.91879466E+00  -1.66546756E+00  -1.03615521E+00  -1.01665499E+00  -8.65375385E-01  -2.27262556E+00  -3.86757923E-01  -7.53035216E+00   3.37046365E-01   2.20261243E-02  -2.11811835E+00  -4.24021408E-01   4.12836795E-01   1.96039260E-01   5.06932012E-01  -1.80125486E+00  -5.59039284E+00  -2.63711804E+01  -3.82149701E-01  -7.06799933E+00  -3.22717616E+00  -4.20249834E+01  -1.35849451E+01   1.03214143E+00  -1.02645778E+00   1.70283548E-01  -6.71531013E-02  -8.33556621E-01  -1.85785800E+01  -7.59600529E+00  -1.72515264E+00  -2.94842952E+00  -1.40531580E+01   1.16485624E-01
   5.51250000E+02   5.00000000E-01   5.00000000E-01  -6.63041429E+00  -9.93194546E-01  -4.84886357E+00  -2.41405147E+00  -2.47724364E+00   8.94095034E-02  -3.91498393E+00   5.98126656E-01   1.80439475E+00   1.24658725E+00   1.92351570E+00  -1.65593240E+00  -1.04138157E+00  -1.00752111E+00  -8.64146586E-01  -2.25403387E+00  -3.74104362E-01  -7.48787441E+00   3.28772252E-01   2.20329815E-02  -2.12825631E+00  -4.18220186E-01   4.02920604E-01   2.01572243E-01   5.03825158E-01  -1.80563573E+00  -5.54445425E+00  -2.62250859E+01  -3.61151150E-01  -7.03723025E+00  -3.22463470E+00  -4.16351353E+01  -1.34094739E+01   1.02910486E+00  -1.03453010E+00   1.60355907E-01  -6.82672289E-02  -8.36155485E-01  -1.84851510E+01  -7.57877902E+00  -1.72128600E+00  -2.93128456E+00  -1.39951384E+01   1.16485623E-01
   5.68750000E+02   5.00000000E-01   5.00000000E-01  -6.58500587E+00  -9.67293534E-01  -4.82956840E+00  -2.40205565E+00  -2.46375471E+00   8.94095032E-02  -3.88541475E+00   6.13434263E-01   1.80277363E+00   1.26148903E+00   1.92837241E+00  -1.64692844E+00  -1.04700197E+00  -9.98922409E-01  -8.63380324E-01  -2.23552119E+00  -3.61865368E-01  -7.44597901E+00   3.20426211E-01   2.20393166E-02  -2.13891660E+00  -4.12775408E-01   3.92793807E-01   2.06743504E-01   5.00436046E-01  -1.81039503E+00  -5.49825171E+00  -2.60801575E+01  -3.40143909E-01  -7.00682065E+00  -3.22241856E+00  -4.12491547E+01  -1.32360323E+01   1.02608348E+00  -1.04294303E+00   1.49969082E-01  -6.93496806E-02  -8.38495299E-01  -1.83933232E+01  -7.56130912E+00  -1.71722941E+00  -2.91442419E+00  -1.39374433E+01   1.16485620E-01
   5.86250000E+02   5.00000000E-01   5.00000000E-01  -6.53981868E+00  -9.42187537E-01  -4.81038135E+00  -2.38995808E+00  -2.45017771E+00   8.94095029E-02  -3.85638671E+00   6.28785224E-01   1.80135308E+00   1.27643007E+00   1.93336162E+00  -1.63842708E+00  -1.05298980E+00  -9.90830337E-01  -8.63049015E-01  -2.21708761E+00  -3.50019326E-01  -7.40464535E+00   3.12021078E-01   2.20452739E-02  -2.15006975E+00  -4.07664711E-01   3.82476650E-01   2.11575350E-01   4.96785921E-01  -1.81551090E+00  -5.45179227E+00  -2.59363711E+01  -3.19131346E-01  -6.97675316E+00  -3.22050666E+00  -4.08669722E+01  -1.30645761E+01   1.02307998E+00  -1.05168633E+00   1.39135340E-01  -7.03996477E-02  -8.40584249E-01  -1.83030088E+01  -7.54359996E+00  -1.71298917E+00  -2.89782952E+00  -1.38800720E+01   1.16485615E-01
   6.03750000E+02   5.00000000E-01   5.00000000E-01  -6.49485536E+00  -9.17841163E-01  -4.79130489E+00  -2.37776655E+00  -2.43652025E+00   8.94095026E-02  -3.82788160E+00   6.44177338E-01   1.80012863E+00   1.29140813E+00   1.93847982E+00  -1.63039902E+00  -1.05931771E+00  -9.83215665E-01  -8.63124382E-01  -2.19873341E+00  -3.38547143E-01  -7.36385253E+00   3.03569874E-01   2.20509930E-02  -2.16168520E+00  -4.02865355E-01   3.71989806E-01   2.16090491E-01   4.92896439E-01  -1.82096089E+00  -5.40508439E+00  -2.57937030E+01  -2.98116608E-01  -6.94701033E+00  -3.21887764E+00  -4.04885207E+01  -1.28950637E+01   1.02009703E+00  -1.06075101E+00   1.27865969E-01  -7.14163600E-02  -8.42430096E-01  -1.82141267E+01  -7.52565682E+00  -1.70857127E+00  -2.88148396E+00  -1.38230235E+01   1.16485609E-01
   6.21250000E+02   5.00000000E-01   5.00000000E-01  -6.45011711E+00  -8.94221715E-01  -4.77234081E+00  -2.36548655E+00  -2.42278764E+00   8.94095024E-02  -3.79988260E+00   6.59610357E-01   1.79909784E+00   1.30642291E+00   1.94372550E+00  -1.62281909E+00  -1.06596246E+00  -9.76053252E-01  -8.63582236E-01  -2.18045807E+00  -3.27431024E-01  -7.32358281E+00   2.95084289E-01   2.20566129E-02  -2.17373846E+00  -3.98357119E-01   3.61351471E-01   2.20309145E-01   4.88786768E-01  -1.82672623E+00  -5.35813114E+00  -2.56521308E+01  -2.77102628E-01  -6.91757722E+00  -3.21751317E+00  -4.01137366E+01  -1.27274561E+01   1.01713739E+00  -1.07012835E+00   1.16171330E-01  -7.23990886E-02  -8.44040202E-01  -1.81266031E+01  -7.50748296E+00  -1.70398134E+00  -2.86537212E+00  -1.37662966E+01   1.16485598E-01