 TITLE = "Mineral Saturation State" 
VARIABLES = "X"          "Y"              "Z"            "Forsterite"     "Fayalite"       "Brucite"        "Lizardite"      "Chrysotile"     "Saponite(Mg)"   "Enstatite(alph" "Ferrosilite(al" "Anorthite"      "Albite(low)"    "Clinochlore"    "Sudoite"        "Montmorillonit" "Kaolinite"      "Tremolite"      "Pargasite"      "Anhydrite"      "Epidote"        "Scolecite"      "Pyrite"         "FeS(am)"        "Quartz(alpha)" 
 ZONE I=         100 , J=           1 , K=           1  F=POINT
   1.75000000E+01   5.00000000E-01   5.00000000E-01  -6.82804476E+00  -4.86463269E-01  -4.93784324E+00  -6.66395129E-01  -7.82863360E-01   2.70972596E+00  -2.11457521E+00  -3.67053042E-03  -1.15003077E+01  -2.97584699E-01   2.83548458E-03  -7.16598808E+00  -1.30883509E+00  -4.87401700E+00  -1.33210072E+00  -3.15308421E+01  -9.46045200E-01  -2.32588106E-06  -5.70339462E+00  -3.16966512E+01  -3.48564029E+00   1.31707904E+00
   5.25000000E+01   5.00000000E-01   5.00000000E-01  -6.71801778E+00  -1.44020634E-01  -4.96366705E+00  -5.71064675E-01  -6.83507251E-01   3.03398258E+00  -1.99592224E+00   2.40164259E-01  -1.12042496E+01   6.21181006E-02   2.70148881E-03  -7.01454828E+00  -8.06896024E-01  -4.64138378E+00  -5.22894493E-01  -3.08002888E+01  -8.91485201E-01   5.68652642E-07  -5.35598896E+00  -3.12320534E+01  -3.38912311E+00   1.45841464E+00
   8.75000000E+01   5.00000000E-01   5.00000000E-01  -6.62590740E+00  -4.78557868E-02  -4.94581965E+00  -5.52776095E-01  -6.61278327E-01   3.12976701E+00  -1.93873697E+00   3.08187671E-01  -1.09890445E+01   1.73424603E-01   2.61008511E-03  -6.90479877E+00  -6.27367753E-01  -4.52739033E+00  -2.55480854E-01  -3.02911322E+01  -8.38637589E-01   1.54912463E-07  -5.19345755E+00  -3.08947777E+01  -3.38343184E+00   1.49446507E+00
   1.22500000E+02   5.00000000E-01   5.00000000E-01  -6.56222698E+00  -2.57935077E-02  -4.92820721E+00  -5.88707524E-01  -6.93351996E-01   3.13867275E+00  -1.90962293E+00   3.25145333E-01  -1.07534918E+01   2.40976528E-01   2.60704442E-03  -6.71706457E+00  -4.93269456E-01  -4.38958362E+00  -2.13589680E-01  -2.98371194E+01  -7.86663252E-01   1.11083629E-07  -5.03730985E+00  -3.05888075E+01  -3.40289475E+00   1.50254389E+00
   1.57500000E+02   5.00000000E-01   5.00000000E-01  -6.57303068E+00  -4.56649512E-02  -4.94651627E+00  -7.35336919E-01  -8.36203606E-01   3.05762270E+00  -1.91894461E+00   3.19788921E-01  -1.03781032E+01   3.74459204E-01   2.71471152E-03  -6.24154285E+00  -2.36236095E-01  -4.07465956E+00  -4.40822448E-01  -2.93603313E+01  -7.34645461E-01   2.59294062E-07  -4.74274873E+00  -3.02726163E+01  -3.43037762E+00   1.50798330E+00
   1.92500000E+02   5.00000000E-01   5.00000000E-01  -6.53852166E+00  -3.95844134E-02  -4.93717960E+00  -8.16692655E-01  -9.13859034E-01   3.01090291E+00  -1.91046976E+00   3.22399601E-01  -1.01106895E+01   4.35562257E-01   2.72853841E-03  -5.96495301E+00  -9.88232286E-02  -3.89316017E+00  -5.52671227E-01  -2.89372377E+01  -6.82999798E-01   1.10145241E-07  -4.56493318E+00  -2.99765262E+01  -3.45261837E+00   1.50345775E+00
   2.27500000E+02   5.00000000E-01   5.00000000E-01  -6.46536937E+00  -2.34275821E-02  -4.90563786E+00  -8.40726415E-01  -9.34267569E-01   2.99912850E+00  -1.88542497E+00   3.27151947E-01  -9.93335842E+00   4.41767403E-01   2.71142948E-03  -5.85607276E+00  -5.46323110E-02  -3.82187683E+00  -5.53368530E-01  -2.85553426E+01  -6.31864084E-01   1.32157050E-08  -4.48177049E+00  -2.97034271E+01  -3.47672488E+00   1.49319003E+00
   2.62500000E+02   5.00000000E-01   5.00000000E-01  -6.38388629E+00  -1.36753363E-02  -4.86895951E+00  -8.51046868E-01  -9.41035591E-01   2.99471500E+00  -1.85705248E+00   3.27723657E-01  -9.78103888E+00   4.33211771E-01   2.70476986E-03  -5.78954527E+00  -3.55493762E-02  -3.77910218E+00  -5.31026347E-01  -2.81905346E+01  -5.81229459E-01  -9.90670102E-09  -4.42437714E+00  -2.94450174E+01  -3.50619906E+00   1.48101450E+00
   2.97500000E+02   5.00000000E-01   5.00000000E-01  -6.30036720E+00  -8.52595430E-03  -4.83101252E+00  -8.56426452E-01  -9.42933338E-01   2.99318910E+00  -1.82777770E+00   3.25741538E-01  -9.63927134E+00   4.19939079E-01   2.70518881E-03  -5.73856447E+00  -2.51825962E-02  -3.74679888E+00  -5.00704340E-01  -2.78359296E+01  -5.31070469E-01  -1.67853027E-08  -4.37686497E+00  -2.91968771E+01  -3.53933467E+00   1.46838124E+00
   3.32500000E+02   5.00000000E-01   5.00000000E-01  -6.21664392E+00  -5.79937720E-03  -4.79291851E+00  -8.59456740E-01  -9.42550278E-01   2.99320636E+00  -1.79830973E+00   3.22506237E-01  -9.50365128E+00   4.04907084E-01   2.70893970E-03  -5.69521325E+00  -1.87121502E-02  -3.71963755E+00  -4.66662775E-01  -2.74891759E+01  -4.81361625E-01  -1.84343675E-08  -4.33443099E+00  -2.89567829E+01  -3.57476768E+00   1.45570979E+00
   3.67500000E+02   5.00000000E-01   5.00000000E-01  -6.13357476E+00  -4.33024111E-03  -4.75513215E+00  -8.61447986E-01  -9.41194640E-01   2.99383563E+00  -1.76905142E+00   3.18630387E-01  -9.37213454E+00   3.89177000E-01   2.71416423E-03  -5.65583167E+00  -1.43000198E-02  -3.69526675E+00  -4.31475553E-01  -2.71492535E+01  -4.32080181E-01  -1.75514015E-08  -4.29499336E+00  -2.87235435E+01  -3.61172118E+00   1.44305845E+00
   4.02500000E+02   5.00000000E-01   5.00000000E-01  -6.05165532E+00  -3.54094509E-03  -4.71787699E+00  -8.63214916E-01  -9.39679212E-01   2.99436957E+00  -1.74027434E+00   3.14382560E-01  -9.24353333E+00   3.73187653E-01   2.72005027E-03  -5.61831422E+00  -1.11061293E-02  -3.67239520E+00  -3.96949682E-01  -2.68155923E+01  -3.83206340E-01  -1.51037749E-08  -4.25742645E+00  -2.84964632E+01  -3.64975796E+00   1.43038526E+00
   4.37500000E+02   5.00000000E-01   5.00000000E-01  -5.97117825E+00  -3.13302351E-03  -4.68127071E+00  -8.65271041E-01  -9.38515641E-01   2.99431977E+00  -1.71215321E+00   3.09886985E-01  -9.11709585E+00   3.57146865E-01   2.72625479E-03  -5.58138091E+00  -8.69396857E-03  -3.65025655E+00  -3.64255211E-01  -2.64877855E+01  -3.34722878E-01  -1.15695904E-08  -4.22104968E+00  -2.82751010E+01  -3.68862242E+00   1.41763878E+00
   4.72500000E+02   5.00000000E-01   5.00000000E-01  -5.89230480E+00  -2.94098793E-03  -4.64537375E+00  -8.67923117E-01  -9.38008892E-01   2.99338485E+00  -1.68478880E+00   3.05209513E-01  -8.99233258E+00   3.41169415E-01   2.73263528E-03  -5.54426571E+00  -6.81406192E-03  -3.62839202E+00  -3.34049601E-01  -2.61654900E+01  -2.86614675E-01  -7.24916885E-09  -4.18542801E+00  -2.80591574E+01  -3.72815961E+00   1.40478389E+00
   5.07500000E+02   5.00000000E-01   5.00000000E-01  -5.81510992E+00  -2.86759427E-03  -4.61021313E+00  -8.71337556E-01  -9.38323657E-01   2.99140321E+00  -1.65822922E+00   3.00391282E-01  -8.86892069E+00   3.25329530E-01   2.73913934E-03  -5.50653360E+00  -5.31299574E-03  -3.60653373E+00  -3.06618623E-01  -2.58483927E+01  -2.38868313E-01  -2.36458955E-09  -4.15027382E+00  -2.78484156E+01  -3.76827304E+00   1.39180436E+00
   5.42500000E+02   5.00000000E-01   5.00000000E-01  -5.73961362E+00  -2.85410993E-03  -4.57579593E+00  -8.75589759E-01  -9.39533681E-01   2.98830771E+00  -1.63248778E+00   2.95461385E-01  -8.74664389E+00   3.09681730E-01   2.74576438E-03  -5.46795934E+00  -4.09078394E-03  -3.58453274E+00  -2.82002793E-01  -2.55361993E+01  -1.91471737E-01   2.90190663E-09  -4.11539112E+00  -2.76427081E+01  -3.80890098E+00   1.37869843E+00
   5.77500000E+02   5.00000000E-01   5.00000000E-01  -5.66580267E+00  -2.86520514E-03  -4.54211739E+00  -8.80699324E-01  -9.41656969E-01   2.98408978E+00  -1.60755652E+00   2.90441743E-01  -8.62535326E+00   2.94269285E-01   2.75251995E-03  -5.42844611E+00  -3.07926319E-03  -3.56231285E+00  -2.60095083E-01  -2.52286315E+01  -1.44413971E-01   8.39064249E-09  -4.08064175E+00  -2.74418967E+01  -3.85000199E+00   1.36547349E+00
   6.12500000E+02   5.00000000E-01   5.00000000E-01  -5.59364514E+00  -2.88037472E-03  -4.50916598E+00  -8.86654198E-01  -9.44679940E-01   2.97877352E+00  -1.58341573E+00   2.85349174E-01  -8.50494146E+00   2.79127858E-01   2.75938963E-03  -5.38797153E+00  -2.23025596E-03  -3.53984072E+00  -2.40710209E-01  -2.49254266E+01  -9.76848779E-02   1.39564536E-08  -4.04592407E+00  -2.72458594E+01  -3.89154580E+00   1.35214161E+00
   6.47500000E+02   5.00000000E-01   5.00000000E-01  -5.52309978E+00  -2.88851730E-03  -4.47692654E+00  -8.93426263E-01  -9.48573000E-01   2.97239877E+00  -1.56004014E+00   2.80196590E-01  -8.38532614E+00   2.64287358E-01   2.76631627E-03  -5.34655317E+00  -1.50862263E-03  -3.51710695E+00  -2.23629516E-01  -2.46263369E+01  -5.12749542E-02   1.94651950E-08  -4.01115942E+00  -2.70544827E+01  -3.93350748E+00   1.33871648E+00
   6.82500000E+02   5.00000000E-01   5.00000000E-01  -5.45412186E+00  -2.88438299E-03  -4.44538219E+00  -9.00981102E-01  -9.53300311E-01   2.96501035E+00  -1.53740281E+00   2.74993801E-01  -8.26643939E+00   2.49773037E-01   2.77322871E-03  -5.30422695E+00  -8.88017295E-04  -3.49411423E+00  -2.08628787E-01  -2.43311292E+01  -5.17516412E-03   2.47931149E-08  -3.97628349E+00  -2.68676563E+01  -3.97586379E+00   1.32521153E+00
   7.17500000E+02   5.00000000E-01   5.00000000E-01  -5.38666694E+00  -2.86630989E-03  -4.41451558E+00  -9.09284421E-01  -9.58826212E-01   2.95665097E+00  -1.51547770E+00   2.69747992E-01  -8.14822053E+00   2.35606149E-01   2.78009613E-03  -5.26103291E+00  -3.48220982E-04  -3.47086965E+00  -1.95496207E-01  -2.40395835E+01   4.06231983E-02   2.98278300E-08  -3.94124040E+00  -2.66852707E+01  -4.01859094E+00   1.31163854E+00
   7.52500000E+02   5.00000000E-01   5.00000000E-01  -5.32069276E+00  -2.83446305E-03  -4.38430954E+00  -9.18305121E-01  -9.65118287E-01   2.94735792E+00  -1.49424087E+00   2.64464330E-01  -8.03061216E+00   2.21804557E-01   2.78691570E-03  -5.21700837E+00   1.26456930E-04  -3.44738082E+00  -1.84039942E-01  -2.37514913E+01   8.61286117E-02   3.44692630E-08  -3.90597941E+00  -2.65072155E+01  -4.06166342E+00   1.29800716E+00
   7.87500000E+02   5.00000000E-01   5.00000000E-01  -5.25616041E+00  -2.78979445E-03  -4.35474745E+00  -9.28017285E-01  -9.72149345E-01   2.93716099E+00  -1.47367124E+00   2.59146329E-01  -7.91355728E+00   2.08383313E-01   2.79370351E-03  -5.17218327E+00   5.48378868E-04  -3.42365324E+00  -1.74092367E-01  -2.34666544E+01   1.31349403E-01   3.86318372E-08  -3.87045226E+00  -2.63333787E+01  -4.10505334E+00   1.28432455E+00
   8.22500000E+02   5.00000000E-01   5.00000000E-01  -5.19303481E+00  -2.73325183E-03  -4.32581351E+00  -9.38400951E-01  -9.79898202E-01   2.92608174E+00  -1.45375083E+00   2.53796221E-01  -7.79699752E+00   1.95355232E-01   2.80049166E-03  -5.12657825E+00   9.27400036E-04  -3.39968913E+00  -1.65510491E-01  -2.31848828E+01   1.76293793E-01   4.22458526E-08  -3.83461152E+00  -2.61636474E+01  -4.14873039E+00   1.27059535E+00
   8.57500000E+02   5.00000000E-01   5.00000000E-01  -5.13128526E+00  -2.66540497E-03  -4.29749289E+00  -9.49443064E-01  -9.88350617E-01   2.91413253E+00  -1.43446515E+00   2.48415079E-01  -7.68087123E+00   1.82731370E-01   2.80733591E-03  -5.08020238E+00   1.27153587E-03  -3.37548609E+00  -1.58176998E-01  -2.29059920E+01   2.20969931E-01   4.52590164E-08  -3.79840878E+00  -2.59979078E+01  -4.19266180E+00   1.25682152E+00
   8.92500000E+02   5.00000000E-01   5.00000000E-01  -5.07088573E+00  -2.58608440E-03  -4.26977184E+00  -9.61137928E-01  -9.97499755E-01   2.90131604E+00  -1.41580332E+00   2.43002965E-01  -7.56511203E+00   1.70521476E-01   2.81431304E-03  -5.03305203E+00   1.58741326E-03  -3.35103646E+00  -1.51999715E-01  -2.26298017E+01   2.65385902E-01   4.76366745E-08  -3.76179328E+00  -2.58360457E+01  -4.23681258E+00   1.24300233E+00
   9.27500000E+02   5.00000000E-01   5.00000000E-01  -5.01181577E+00  -2.49441509E-03  -4.24263796E+00  -9.73488863E-01  -1.00734783E+00   2.88762331E+00  -1.39775878E+00   2.37558714E-01  -7.44964627E+00   1.58734262E-01   2.82152800E-03  -4.98510745E+00   1.88075423E-03  -3.32632551E+00  -1.46914908E-01  -2.23561332E+01   3.09549733E-01   4.93620862E-08  -3.72470983E+00  -2.56779476E+01  -4.28114569E+00   1.22913390E+00
   9.62500000E+02   5.00000000E-01   5.00000000E-01  -4.95406160E+00  -2.38877024E-03  -4.21608042E+00  -9.86510067E-01  -1.01790799E+00   2.87303138E+00  -1.38033009E+00   2.32079690E-01  -7.33439031E+00   1.47377578E-01   2.82912127E-03  -4.93632890E+00   2.15672174E-03  -3.30132947E+00  -1.42891245E-01  -2.20848072E+01   3.53469402E-01   5.04351466E-08  -3.68709655E+00  -2.55235011E+01  -4.32562206E+00   1.21520870E+00
   9.97500000E+02   5.00000000E-01   5.00000000E-01  -4.89761676E+00  -2.26650664E-03  -4.19009015E+00  -1.00022791E+00  -1.02920556E+00   2.85750172E+00  -1.36352142E+00   2.26561733E-01  -7.21924822E+00   1.36458652E-01   2.83727209E-03  -4.88665413E+00   2.42013684E-03  -3.27601429E+00  -1.39931752E-01  -2.18156415E+01   3.97152825E-01   5.08706030E-08  -3.64888299E+00  -2.53725953E+01  -4.37020070E+00   1.20121516E+00
   1.03250000E+03   5.00000000E-01   5.00000000E-01  -4.84248353E+00  -2.12399980E-03  -4.16466015E+00  -1.01468334E+00  -1.04128050E+00   2.84097719E+00  -1.34734364E+00   2.20998790E-01  -7.10410839E+00   1.25984256E-01   2.84620214E-03  -4.83599356E+00   2.67583700E-03  -3.25033320E+00  -1.38079157E-01  -2.15484485E+01   4.40607863E-01   5.06961322E-08  -3.60998749E+00  -2.52251216E+01  -4.41483859E+00   1.18713697E+00
   1.06750000E+03   5.00000000E-01   5.00000000E-01  -4.78867578E+00  -1.95713134E-03  -4.13978615E+00  -1.02993699E+00  -1.05419248E+00   2.82337568E+00  -1.33181649E+00   2.15381924E-01  -6.98883764E+00   1.15960516E-01   2.85621811E-03  -4.78421998E+00   2.92921717E-03  -3.22422161E+00  -1.37429837E-01  -2.12830328E+01   4.83842328E-01   4.99508629E-08  -3.57031272E+00  -2.50809736E+01  -4.45949048E+00   1.17295159E+00
   1.10250000E+03   5.00000000E-01   5.00000000E-01  -4.73622503E+00  -1.76231977E-03  -4.11546812E+00  -1.04607989E+00  -1.06803162E+00   2.80457675E+00  -1.31697319E+00   2.09697224E-01  -6.87327020E+00   1.06391972E-01   2.86777821E-03  -4.73114728E+00   3.18715972E-03  -3.19758658E+00  -1.38165477E-01  -2.10191897E+01   5.26864030E-01   4.86838971E-08  -3.52973789E+00  -2.49400468E+01  -4.50410795E+00   1.15862710E+00
   1.13750000E+03   5.00000000E-01   5.00000000E-01  -5.92464821E+00  -8.13746764E-01  -4.37711144E+00  -3.25676769E+00  -3.27645266E+00   1.46005260E-02  -2.25692691E+00  -5.36511939E-01  -4.93271292E+00  -3.28534709E-01  -5.32271258E-03  -4.03733102E-01   2.93881589E-02  -1.08283947E+00  -7.44282625E+00  -2.14312693E+01   5.68954558E-01   3.19822567E-07  -2.33228912E+00  -2.46999488E+01  -4.59183220E+00   4.75456925E-01
   1.17250000E+03   5.00000000E-01   5.00000000E-01  -5.55948325E+00  -2.98137947E-01  -4.27657632E+00  -2.72124259E+00  -2.73869692E+00   6.80667155E-01  -2.00535707E+00  -2.04268101E-01  -5.25927461E+00  -2.37245498E-01   3.46692214E-03  -1.43119344E+00   1.41067245E-03  -1.59362234E+00  -5.58225888E+00  -2.09475383E+01   6.11293105E-01   2.04278190E-09  -2.57190579E+00  -2.44516099E+01  -4.46954358E+00   6.21623008E-01
   1.20750000E+03   5.00000000E-01   5.00000000E-01  -5.36085583E+00  -7.81827692E-02  -4.21990266E+00  -2.47374187E+00  -2.48900085E+00   9.95982787E-01  -1.87635110E+00  -5.92177226E-02  -5.34934102E+00  -1.84573951E-01   3.25167740E-03  -1.89295847E+00   3.92680093E-03  -1.81761930E+00  -4.66850350E+00  -2.05701297E+01   6.54017685E-01   1.14277370E-08  -2.65303229E+00  -2.42814334E+01  -4.45038142E+00   6.89078870E-01
   1.24250000E+03   5.00000000E-01   5.00000000E-01  -5.22577566E+00   1.30726922E-02  -4.17787009E+00  -2.33753050E+00  -2.35062862E+00   1.17019820E+00  -1.79614079E+00   4.39077717E-03  -5.35290554E+00  -1.56426588E-01   3.13366116E-03  -2.13815507E+00   5.82510546E-03  -1.93632604E+00  -4.13612669E+00  -2.02420164E+01   6.96861462E-01   1.21549664E-08  -2.68112516E+00  -2.41487402E+01  -4.47628304E+00   7.22373312E-01
   1.27750000E+03   5.00000000E-01   5.00000000E-01  -5.12734498E+00   4.39480557E-02  -4.14449535E+00  -2.26482081E+00  -2.27579174E+00   1.26421244E+00  -1.74381333E+00   2.81826383E-02  -5.30568722E+00  -1.40819906E-01   3.12964607E-03  -2.25933124E+00   8.44305421E-03  -1.99452125E+00  -3.81771084E+00  -1.99390164E+01   7.39616300E-01   1.25700654E-08  -2.67698466E+00  -2.40328639E+01  -4.52153059E+00   7.36436776E-01
   1.31250000E+03   5.00000000E-01   5.00000000E-01  -5.04950851E+00   5.12142994E-02  -4.11639863E+00  -2.22690595E+00  -2.23578262E+00   1.31511811E+00  -1.70669493E+00   3.51909375E-02  -5.22797153E+00  -1.29390222E-01   3.16918089E-03  -2.31147739E+00   1.38993773E-02  -2.01841977E+00  -3.61019962E+00  -1.96443134E+01   7.82312961E-01   1.28533555E-08  -2.65161292E+00  -2.39238439E+01  -4.57298236E+00   7.40564037E-01
   1.34750000E+03   5.00000000E-01   5.00000000E-01  -4.97389263E+00   5.61377817E-02  -4.08866232E+00  -2.19197963E+00  -2.19879423E+00   1.36120132E+00  -1.67133126E+00   4.03177843E-02  -5.14676273E+00  -1.18624502E-01   3.24456745E-03  -2.35949110E+00   1.73950122E-02  -2.04110682E+00  -3.40860109E+00  -1.93471147E+01   8.25042038E-01   1.18814770E-08  -2.62348788E+00  -2.38190461E+01  -4.62480465E+00   7.43292573E-01
   1.38250000E+03   5.00000000E-01   5.00000000E-01  -4.97708062E+00   4.43029868E-03  -4.08190466E+00  -2.29261293E+00  -2.29739693E+00   1.24304495E+00  -1.69368907E+00  -1.25465337E-03  -4.94325868E+00  -1.19845617E-01   2.04199958E-03  -2.13494194E+00   3.99245352E-02  -1.92541088E+00  -3.63558387E+00  -1.90761362E+01   8.67696826E-01   2.23197338E-08  -2.50916615E+00  -2.37164781E+01  -4.68495440E+00   7.09274554E-01
   1.41750000E+03   5.00000000E-01   5.00000000E-01  -4.88930597E+00   3.90108382E-02  -4.04924443E+00  -2.23617624E+00  -2.23896040E+00   1.30949343E+00  -1.65088473E+00   1.99348117E-02  -4.87857353E+00  -1.11532253E-01   3.58311906E-03  -2.23277882E+00   2.87226512E-02  -1.97767452E+00  -3.35831526E+00  -1.87622190E+01   9.10356908E-01   9.49791875E-09  -2.49376956E+00  -2.36106833E+01  -4.72362874E+00   7.14513013E-01
   1.45250000E+03   5.00000000E-01   5.00000000E-01  -4.86558950E+00   3.45598425E-02  -4.03456625E+00  -2.28884824E+00  -2.28966267E+00   1.24617683E+00  -1.65405614E+00   7.60020772E-03  -4.71057099E+00  -1.07170371E-01   3.75665155E-03  -2.10832475E+00   3.91641362E-02  -1.91528980E+00  -3.41523620E+00  -1.84599802E+01   9.52904474E-01   8.95055106E-09  -2.40242500E+00  -2.35055264E+01  -4.76657190E+00   6.91755226E-01
   1.48750000E+03   5.00000000E-01   5.00000000E-01  -4.87986534E+00   2.38313758E-02  -4.02928304E+00  -2.40710532E+00  -2.40597947E+00   1.10124814E+00  -1.68572616E+00  -1.74359789E-02  -4.47885545E+00  -1.08770957E-01   3.96086318E-03  -1.85408912E+00   5.49878979E-02  -1.78864235E+00  -3.67077535E+00  -1.81570194E+01   9.95329225E-01   7.21249663E-09  -2.26585650E+00  -2.33957204E+01  -4.80272153E+00   6.49891776E-01
   1.52250000E+03   5.00000000E-01   5.00000000E-01  -4.93868144E+00   9.75197025E-03  -4.03541319E+00  -2.60204563E+00  -2.59900832E+00   8.62098593E-01  -1.75042600E+00  -5.49665014E-02  -4.16925828E+00  -1.14272637E-01   4.19240409E-03  -1.44633374E+00   8.03809564E-02  -1.58509037E+00  -4.15211972E+00  -1.78461700E+01   1.03762169E+00   5.26136133E-09  -2.07241783E+00  -2.32794236E+01  -4.82946692E+00   5.86410311E-01
   1.55750000E+03   5.00000000E-01   5.00000000E-01  -5.04562579E+00  -3.55541996E-03  -4.05463598E+00  -2.87918590E+00  -2.87426531E+00   5.24090611E-01  -1.85006602E+00  -1.03045060E-01  -3.76950143E+00  -1.17985732E-01   4.42731689E-03  -8.70921749E-01   1.22027461E-01  -1.29599134E+00  -4.86228808E+00  -1.75127805E+01   1.07978378E+00   3.32222534E-09  -1.81007139E+00  -2.31565830E+01  -4.84487019E+00   5.01080175E-01
   1.59250000E+03   5.00000000E-01   5.00000000E-01  -5.14241676E+00   1.38503690E-02  -4.07372576E+00  -3.13520814E+00  -3.12843188E+00   2.18131381E-01  -1.93959188E+00  -1.30786391E-01  -3.36193979E+00  -9.73758915E-02   4.50519504E-03  -3.29409338E-01   1.80189244E-01  -1.01942462E+00  -5.44911762E+00  -1.71162192E+01   1.12189339E+00   1.63291188E-09  -1.52935259E+00  -2.30374637E+01  -4.85090274E+00   4.25730443E-01
   1.62750000E+03   5.00000000E-01   5.00000000E-01  -5.16669103E+00   7.14606540E-02  -4.08213196E+00  -3.25595536E+00  -3.24735046E+00   9.86452158E-02  -1.96719243E+00  -1.12814250E-01  -3.03339088E+00  -1.33019737E-02   4.33944426E-03  -3.01018839E-02   2.78172444E-01  -8.49453542E-01  -5.51532227E+00  -1.66134573E+01   1.16402404E+00   6.39182466E-10  -1.27582749E+00  -2.29421968E+01  -4.86391549E+00   4.01622007E-01
   1.66250000E+03   5.00000000E-01   5.00000000E-01  -5.15475561E+00   1.20569747E-01  -4.09835663E+00  -3.29555820E+00  -3.28515111E+00   1.24919518E-01  -1.95067423E+00  -7.31334360E-02  -2.70936898E+00   1.72797433E-01   4.10720235E-03   1.73337621E-01   4.84690336E-01  -6.94050389E-01  -5.18297407E+00  -1.59823057E+01   1.20606610E+00   2.31307440E-10  -9.74323704E-01  -2.28850124E+01  -4.90747067E+00   4.29450687E-01
   1.69750000E+03   5.00000000E-01   5.00000000E-01  -5.13078819E+00   1.45579556E-01  -4.09901569E+00  -3.32577427E+00  -3.31359090E+00   1.27753439E-01  -1.93760064E+00  -5.50164493E-02  -2.40436482E+00   3.11721427E-01   4.04932915E-03   3.07211634E-01   6.09032393E-01  -5.98912680E-01  -4.84035938E+00  -1.53326636E+01   1.24773003E+00   6.84009034E-11  -7.10288153E-01  -2.28576412E+01  -4.95636452E+00   4.38269316E-01
   1.73250000E+03   5.00000000E-01   5.00000000E-01  -5.13118403E+00   1.50293971E-01  -4.09457469E+00  -3.40894635E+00  -3.39501209E+00   3.41347619E-02  -1.95390294E+00  -6.42939757E-02  -2.02964559E+00   4.17007081E-01   4.12562333E-03   5.01611205E-01   6.71309521E-01  -4.96253432E-01  -4.62168026E+00  -1.45986465E+01   1.28815118E+00   1.82265603E-11  -4.10462369E-01  -2.28652022E+01  -5.00356342E+00   4.12612385E-01
   1.76750000E+03   5.00000000E-01   5.00000000E-01  -5.22760266E+00   1.34726370E-01  -4.11076696E+00  -3.66267744E+00  -3.64701715E+00  -2.79262290E-01  -2.04550887E+00  -1.11056290E-01  -1.40526202E+00   5.38675266E-01   4.31115789E-03   1.02298468E+00   7.44510585E-01  -2.37203827E-01  -4.75503654E+00  -1.36423347E+01   1.32436973E+00   3.13213557E-12   8.49001179E-02  -2.29232423E+01  -5.04475543E+00   3.32285723E-01
   1.80250000E+03   5.00000000E-01   5.00000000E-01  -5.13433347E+00   1.26208321E-01  -4.02649682E+00  -3.63665897E+00  -3.61929702E+00  -3.94474786E-01  -2.04780506E+00  -1.59878574E-01  -9.49799120E-01   5.56341621E-01   4.29969410E-03   7.71448049E-01   4.72598498E-01  -4.71034514E-01  -3.82547528E+00  -1.22441143E+01   1.34649108E+00   1.94408415E-13   4.00723690E-01  -2.32267761E+01  -5.13250167E+00   2.40807164E-01
   1.83750000E+03   5.00000000E-01   5.00000000E-01  -4.77157632E+00   4.75044916E-02  -3.82001245E+00  -3.19305894E+00  -3.17401920E+00  -1.46703906E-01  -1.90274468E+00  -2.31230784E-01  -6.94131695E-01   5.31167084E-01   4.16570025E-03  -5.35703489E-01  -1.51652376E-01  -1.34269420E+00  -1.20576663E+00  -1.01363261E+01   1.32683396E+00   6.17169570E-15   5.42420445E-01  -2.40728111E+01  -5.43656784E+00   1.74471909E-01
   1.87250000E+03   5.00000000E-01   5.00000000E-01  -4.56819362E+00   3.86835392E-03  -3.67563480E+00  -3.00529736E+00  -2.98460324E+00  -1.53344127E-01  -1.85487070E+00  -3.02597026E-01  -4.17288763E-01   4.58286359E-01   3.53659946E-03  -1.24393699E+00  -6.44753998E-01  -1.87069876E+00   1.79645791E-01  -8.66088620E+00   1.22440628E+00   3.08584785E-15   6.70731352E-01  -2.47752963E+01  -5.71197764E+00   7.30580483E-02
   1.90750000E+03   5.00000000E-01   5.00000000E-01  -4.48029419E+00   5.46405261E-04  -3.57795493E+00  -3.00101653E+00  -2.97869098E+00  -3.37382767E-01  -1.87570234E+00  -3.64817968E-01  -2.35690126E-01   3.01454973E-01   2.96865329E-03  -1.51458355E+00  -1.05118124E+00  -2.14457926E+00   4.58568382E-01  -7.92264281E+00   1.03806761E+00   1.38863153E-14   6.82300624E-01  -2.51641267E+01  -5.85513249E+00  -5.03624576E-02
   1.94250000E+03   5.00000000E-01   5.00000000E-01  -4.39938336E+00   2.04146817E-04  -3.49222098E+00  -2.99799437E+00  -2.97405987E+00  -4.95334492E-01  -1.89149828E+00  -4.17065983E-01  -1.55364429E-01   1.26049369E-01   2.76110919E-03  -1.74198591E+00  -1.41236551E+00  -2.37675696E+00   5.29426671E-01  -7.47786131E+00   8.11999920E-01  -4.62877178E-15   6.10081384E-01  -2.54266161E+01  -5.94940902E+00  -1.56800058E-01
   1.97750000E+03   5.00000000E-01   5.00000000E-01  -4.32079958E+00   1.18369861E-04  -3.41805052E+00  -2.98730519E+00  -2.96178381E+00  -6.14090672E-01  -1.89798081E+00  -4.58754904E-01  -1.15097514E-01  -3.34285600E-02   2.66568381E-03  -1.94134477E+00  -1.71395807E+00  -2.57325994E+00   5.59745459E-01  -7.15816112E+00   5.89513485E-01   9.25754355E-15   5.19175505E-01  -2.56076100E+01  -6.01781902E+00  -2.42359413E-01
   2.01250000E+03   5.00000000E-01   5.00000000E-01  -4.24557393E+00   8.69434312E-05  -3.35395809E+00  -2.97251124E+00  -2.94542460E+00  -7.02834111E-01  -1.89766789E+00  -4.91987374E-01  -9.23002258E-02  -1.72677383E-01   2.61113033E-03  -2.11263614E+00  -1.96292558E+00  -2.73755652E+00   5.77006689E-01  -6.90865832E+00   3.98589962E-01  -6.17169570E-15   4.28161336E-01  -2.57196987E+01  -6.06882629E+00  -3.11043861E-01
   2.04750000E+03   5.00000000E-01   5.00000000E-01  -4.17368737E+00   7.34382423E-05  -3.29779895E+00  -2.95573352E+00  -2.92710286E+00  -7.70054940E-01  -1.89268663E+00  -5.18917437E-01  -7.82390026E-02  -2.93811467E-01   2.57715842E-03  -2.26020408E+00  -2.17060295E+00  -2.87609281E+00   5.88085928E-01  -6.70324946E+00   2.53724904E-01  -1.54292393E-15   3.41493270E-01  -2.57726634E+01  -6.10808140E+00  -3.67125254E-01
   2.08250000E+03   5.00000000E-01   5.00000000E-01  -4.10468853E+00   6.70482639E-05  -3.24765519E+00  -2.93800118E+00  -2.90784730E+00  -8.21976245E-01  -1.88450493E+00  -5.41243289E-01  -6.89504179E-02  -4.00098168E-01   2.55493696E-03  -2.38921411E+00  -2.34715236E+00  -2.99505591E+00   5.95755739E-01  -6.52680463E+00   1.56161359E-01  -4.62877178E-15   2.59741800E-01  -2.57775865E+01  -6.13948938E+00  -4.13989352E-01
   2.11750000E+03   5.00000000E-01   5.00000000E-01  -4.03808079E+00   6.38205243E-05  -3.20203115E+00  -2.91983029E+00  -2.88817363E+00  -8.62997214E-01  -1.87412322E+00  -5.60214860E-01  -6.24555080E-02  -4.94669990E-01   2.53991783E-03  -2.50411557E+00  -2.50054831E+00  -3.09940795E+00   6.01376974E-01  -6.37005206E+00   9.68256578E-02  -6.17169570E-15   1.82382779E-01  -2.57468782E+01  -6.16560588E+00  -4.54132239E-01
   2.15250000E+03   5.00000000E-01   5.00000000E-01  -3.97343957E+00   6.21317534E-05  -3.15981799E+00  -2.90149386E+00  -2.86835445E+00  -8.96203676E-01  -1.86222706E+00  -5.76730083E-01  -5.76981262E-02  -5.80139866E-01   2.52960474E-03  -2.60836488E+00  -2.63674094E+00  -3.19287711E+00   6.05676907E-01  -6.22712566E+00   6.32758042E-02  -4.62877178E-15   1.08671056E-01  -2.56920293E+01  -6.18807916E+00  -4.89348326E-01
   2.18750000E+03   5.00000000E-01   5.00000000E-01  -3.91042935E+00   6.12535143E-05  -3.12020646E+00  -2.88314316E+00  -2.84854068E+00  -9.23769375E-01  -1.84929153E+00  -5.91431412E-01  -5.40813574E-02  -6.58558262E-01   2.52254910E-03  -2.70455099E+00  -2.76009209E+00  -3.27820340E+00   6.09071415E-01  -6.09419166E+00   4.51065947E-02  -1.54292393E-15   3.79124481E-02  -2.56218129E+01  -6.20798807E+00  -5.20921960E-01
   2.22250000E+03   5.00000000E-01   5.00000000E-01  -3.84879211E+00   6.08329782E-05  -3.08260587E+00  -2.86486554E+00  -2.82881930E+00  -9.47241830E-01  -1.83565057E+00  -6.04781273E-01  -5.12498327E-02  -7.31491342E-01   2.51786009E-03  -2.79459310E+00  -2.87379225E+00  -3.35739367E+00   6.11812433E-01  -5.96866274E+00   3.54543059E-02   3.85730981E-15  -3.04689477E-02  -2.55421273E+01  -6.22605797E+00  -5.49777796E-01
   2.25750000E+03   5.00000000E-01   5.00000000E-01  -3.78833087E+00   6.06870635E-05  -3.04658295E+00  -2.84671281E+00  -2.80924177E+00  -9.67734224E-01  -1.82154178E+00  -6.17115139E-01  -4.89814127E-02  -8.00119845E-01   2.51490810E-03  -2.87991279E+00  -2.98018146E+00  -3.43192189E+00   6.14063186E-01  -5.84874137E+00   3.03333978E-02  -7.71461963E-16  -9.69283981E-02  -2.54567017E+01  -6.24279061E+00  -5.76586754E-01
   2.29250000E+03   5.00000000E-01   5.00000000E-01  -3.72889540E+00   6.07143836E-05  -3.01181838E+00  -2.82871594E+00  -2.78983872E+00  -9.86053017E-01  -1.80713547E+00  -6.28677815E-01  -4.71306482E-02  -8.65326823E-01   2.51318380E-03  -2.96156419E+00  -3.08098014E+00  -3.50287379E+00   6.15937990E-01  -5.73314848E+00   2.75805678E-02  -3.85730981E-15  -1.61816475E-01  -2.53678587E+01  -6.25854172E+00  -6.01838496E-01
   2.32750000E+03   5.00000000E-01   5.00000000E-01  -3.67037108E+00   6.08552042E-05  -2.97807580E+00  -2.81089399E+00  -2.77062886E+00  -1.00278663E+00  -1.79255465E+00  -6.39648972E-01  -4.55983489E-02  -9.27770583E-01   2.51232212E-03  -3.04032921E+00  -3.17745687E+00  -3.57105114E+00   6.17518532E-01  -5.62095826E+00   2.60574892E-02   1.15719294E-14  -2.25399650E-01  -2.52770635E+01  -6.27356813E+00  -6.25892449E-01
   2.36250000E+03   5.00000000E-01   5.00000000E-01  -3.61267033E+00   6.10723566E-05  -2.94517944E+00  -2.79325916E+00  -2.75162407E+00  -1.01836714E+00  -1.77788870E+00  -6.50161168E-01  -4.43147087E-02  -9.87941826E-01   2.51210777E-03  -3.11678807E+00  -3.27054989E+00  -3.63704727E+00   6.18862213E-01  -5.51149255E+00   2.51719423E-02   6.94315766E-15  -2.87879456E-01  -2.51852630E+01  -6.28805774E+00  -6.49013838E-01
   2.39750000E+03   5.00000000E-01   5.00000000E-01  -3.55572585E+00   6.13415828E-05  -2.91299822E+00  -2.77581931E+00  -2.73283190E+00  -1.03311255E+00  -1.76320262E+00  -6.60312424E-01  -4.32293650E-02  -1.04620602E+00   2.51242574E-03  -3.19137135E+00  -3.36095381E+00  -3.70130162E+00   6.20009505E-01  -5.40425041E+00   2.46231292E-02   6.17169570E-15  -3.49407680E-01  -2.50930813E+01  -6.30214923E+00  -6.71398818E-01