 TITLE = "Mineral Saturation State" 
VARIABLES = "X"          "Y"              "Z"            "Forsterite"     "Enstatite(alph" "Anorthite"      "Ferropargasite" "Anhydrite"      "Clinochlore"    "Albite(low)"    "Fayalite"       "Epidote"        "Kaolinite"      "Muscovite(orde"
 ZONE I=          10 , J=           1 , K=           1  F=POINT
   1.75000000E+02   5.00000000E-01   5.00000000E-01  -2.85957053E+00   4.00454900E-01  -1.42164161E+01  -1.80070729E+01   6.36254539E-03   2.05809688E-02  -2.11885443E-02   7.94796465E-02   6.48645218E-12  -1.01119177E+01  -1.14353288E+01
   5.25000000E+02   5.00000000E-01   5.00000000E-01  -2.77964331E+00   2.98454751E-01  -1.29254532E+01  -1.67468345E+01   7.39756842E-03   2.10666722E-02  -2.22611356E-02   7.98149267E-02   1.81972448E-11  -9.06423849E+00  -1.03239562E+01
   8.75000000E+02   5.00000000E-01   5.00000000E-01  -2.72265514E+00   1.96372411E-01  -1.17526962E+01  -1.56152252E+01   7.45257203E-03   2.14014537E-02  -2.30028730E-02   8.04118083E-02   4.43806638E-11  -8.09966378E+00  -9.27280179E+00
   1.22500000E+03   5.00000000E-01   5.00000000E-01  -2.66902930E+00   1.05058401E-01  -1.06999605E+01  -1.46038149E+01   7.66568408E-03   2.16148336E-02  -2.34767827E-02   8.14776693E-02   9.82564814E-11  -7.23762528E+00  -8.31765910E+00
   1.57500000E+03   5.00000000E-01   5.00000000E-01  -2.61741368E+00   2.40065222E-02  -9.75535030E+00  -1.37051645E+01   7.92751140E-03   2.17538671E-02  -2.37860582E-02   8.34631627E-02   2.05054590E-10  -6.46361247E+00  -7.44878976E+00
   1.92500000E+03   5.00000000E-01   5.00000000E-01  -2.56654409E+00  -4.71183754E-02  -8.91002932E+00  -1.29136381E+01   8.23035368E-03   2.17426245E-02  -2.37613423E-02   8.72128595E-02   4.07867311E-10  -5.76620467E+00  -6.65845417E+00
   2.27500000E+03   5.00000000E-01   5.00000000E-01  -2.50883614E+00  -1.04726326E-01  -8.16205065E+00  -1.22210978E+01   8.56068970E-03   2.14805142E-02  -2.31796015E-02   9.38955913E-02   7.57520102E-10  -5.15053550E+00  -5.95735975E+00
   2.62500000E+03   5.00000000E-01   5.00000000E-01  -2.43315128E+00  -1.43078341E-01  -7.51220183E+00  -1.16160243E+01   8.89453938E-03   2.09141393E-02  -2.19262203E-02   1.04216347E-01   1.25152731E-09  -4.63187078E+00  -5.36709191E+00
   2.97500000E+03   5.00000000E-01   5.00000000E-01  -2.32930769E+00  -1.57215215E-01  -6.95767278E+00  -1.10824858E+01   9.19576611E-03   2.01021067E-02  -2.01382715E-02   1.16925292E-01   1.71450864E-09  -4.22581389E+00  -4.90792634E+00
   3.32500000E+03   5.00000000E-01   5.00000000E-01  -2.19306320E+00  -1.46112265E-01  -6.48611823E+00  -1.05973198E+01   9.41577142E-03   1.92128078E-02  -1.81923112E-02   1.29064424E-01   1.81303089E-09  -3.93747391E+00  -4.58541379E+00
