 TITLE = "Mineral Saturation State" 
VARIABLES = "X"          "Y"              "Z"            "Forsterite"     "Fayalite"       "Brucite"        "Lizardite"      "Chrysotile"     "Hematite"       "Magnetite(am)"  "Saponite(Ca)"   "Saponite(K)"    "Saponite(Mg)"   "Saponite(Na)"   "Beidellite(Ca)" "Beidellite(K)"  "Beidellite(Mg)" "Beidellite(Na)" "Enstatite(alph" "Ferrosilite(al" "Anorthite"      "Albite(low)"    "Clinochlore"    "Sudoite"        "Montmor(MgCa)"  "Montmor(MgK)"   "Montmor(MgMg)"  "Montmor(MgNa)"  "Kaolinite"      "Tremolite"      "Pargasite"      "Anhydrite"      "Epidote"        "Scolecite"      "Pyrite"         "FeS(am)"        "Quartz(alpha)" 
 ZONE I=         200 , J=           1 , K=           1  F=POINT
   8.75000000E+00   5.00000000E-01   5.00000000E-01  -7.16050257E+00  -3.06236864E+00  -4.79311142E+00  -1.43801410E+00  -1.55550241E+00   9.12127856E-03  -5.41264149E+00   4.86766103E-01   2.31348622E+00   1.14772926E+00   2.19221867E+00  -6.18120461E+00  -5.03322228E+00  -5.52023873E+00  -5.09329251E+00  -2.58744711E+00  -1.60053578E+00  -1.14044768E+01  -1.45444052E+00   1.77690141E-01  -6.21721072E+00  -3.91286532E+00  -2.52396958E+00  -3.28542895E+00  -2.67304742E+00  -4.86812469E+00  -5.28245398E+00  -3.25330685E+01  -9.80360918E-01  -1.02385360E+01  -6.20170916E+00  -3.29658331E+01  -4.55370203E+00   7.00236400E-01
   2.62500000E+01   5.00000000E-01   5.00000000E-01  -7.71056623E+00  -3.00438990E+00  -5.15020961E+00  -2.25694260E+00  -2.37239626E+00   9.12127854E-03  -5.44020060E+00   1.12630408E-01   1.91233727E+00   7.73046062E-01   1.80032433E+00  -3.96845611E+00  -2.84065394E+00  -3.30804334E+00  -2.89157275E+00  -2.78904081E+00  -1.49357964E+00  -9.97545915E+00  -4.62905896E-01   1.76270638E-01  -3.63850523E+00  -2.27200665E+00  -9.04571852E-01  -1.64493311E+00  -1.04402701E+00  -3.11409707E+00  -6.64746546E+00  -3.17254540E+01  -9.62557142E-01  -9.05090703E+00  -4.66403308E+00  -3.24683370E+01  -4.47826166E+00   8.54208862E-01
   4.37500000E+01   5.00000000E-01   5.00000000E-01  -7.86203804E+00  -2.83987179E+00  -5.27780238E+00  -2.50756617E+00  -2.62100705E+00   9.12127853E-03  -5.38449040E+00   8.08863106E-02   1.85692458E+00   7.40801449E-01   1.75406207E+00  -3.07115210E+00  -1.96330756E+00  -2.41124503E+00  -2.00517866E+00  -2.82151881E+00  -1.36357577E+00  -9.40672558E+00  -2.20440420E-02   1.73998910E-01  -2.71838091E+00  -1.55970777E+00  -2.13498117E-01  -9.32952321E-01  -3.43439036E-01  -2.44946014E+00  -6.88848536E+00  -3.12419250E+01  -9.44535099E-01  -8.55430313E+00  -4.04674912E+00  -3.21529786E+01  -4.41900234E+00   9.47752857E-01
   6.12500000E+01   5.00000000E-01   5.00000000E-01  -7.90305655E+00  -2.67726425E+00  -5.32995833E+00  -2.61210072E+00  -2.72355032E+00   9.12127852E-03  -5.30973276E+00   9.71841493E-02   1.85029187E+00   7.56632371E-01   1.75649384E+00  -2.61055075E+00  -1.52246363E+00  -1.95111538E+00  -1.55537202E+00  -2.81895057E+00  -1.25474867E+00  -9.10139357E+00   2.06577537E-01   1.71381035E-01  -2.28324277E+00  -1.18450771E+00   1.40690069E-01  -5.58038945E-01   2.01737472E-02  -2.12334061E+00  -6.92385956E+00  -3.08974343E+01  -9.26294799E-01  -8.28583852E+00  -3.73297712E+00  -3.19032357E+01  -4.37099747E+00   1.00086901E+00
   7.87500000E+01   5.00000000E-01   5.00000000E-01  -7.90913070E+00  -2.53921843E+00  -5.35191022E+00  -2.67633862E+00  -2.78581809E+00   9.12127851E-03  -5.23472915E+00   1.03894865E-01   1.83426795E+00   7.62901653E-01   1.74945083E+00  -2.32610938E+00  -1.25758443E+00  -1.66711986E+00  -1.28161265E+00  -2.81161174E+00  -1.17094448E+00  -8.89227181E+00   3.36464622E-01   1.69564482E-01  -2.01377412E+00  -9.58194675E-01   3.46199339E-01  -3.31989276E-01   2.35020476E-01  -1.92336137E+00  -6.95048128E+00  -3.06224466E+01  -9.07842619E-01  -8.10855579E+00  -3.54057024E+00  -3.16870375E+01  -4.33420970E+00   1.02851583E+00
   9.62500000E+01   5.00000000E-01   5.00000000E-01  -7.89397516E+00  -2.41708614E+00  -5.35589902E+00  -2.71547544E+00  -2.82300560E+00   9.12127851E-03  -5.16053674E+00   1.06614175E-01   1.81447385E+00   7.65199978E-01   1.73854830E+00  -2.14611437E+00  -1.09695221E+00  -1.48754989E+00  -1.11218881E+00  -2.80097557E+00  -1.10245441E+00  -8.74065222E+00   4.08504415E-01   1.69009921E-01  -1.84339881E+00  -8.19546577E-01   4.64255727E-01  -1.93586201E-01   3.62321257E-01  -1.79860225E+00  -6.96785209E+00  -3.03877767E+01  -8.89187788E-01  -7.98519630E+00  -3.42005423E+00  -3.14917328E+01  -4.30464056E+00   1.04146242E+00
   1.13750000E+02   5.00000000E-01   5.00000000E-01  -7.86348511E+00  -2.30494101E+00  -5.34829209E+00  -2.73494132E+00  -2.84054264E+00   9.12127850E-03  -5.08760974E+00   1.12067065E-01   1.79768330E+00   7.70247903E-01   1.73055390E+00  -2.03366190E+00  -1.00365856E+00  -1.37550611E+00  -1.01019838E+00  -2.78656948E+00  -1.04289450E+00  -8.62813016E+00   4.45577172E-01   1.69445185E-01  -1.74221256E+00  -7.35261441E-01   5.28165618E-01  -1.09532131E-01   4.35376225E-01  -1.72431671E+00  -6.96578732E+00  -3.01771128E+01  -8.70340156E-01  -7.89686251E+00  -3.34618615E+00  -3.13107664E+01  -4.28019739E+00   1.04655003E+00
   1.31250000E+02   5.00000000E-01   5.00000000E-01  -7.82261481E+00  -2.20068782E+00  -5.33355006E+00  -2.74019113E+00  -2.84388376E+00   9.12127850E-03  -5.01688174E+00   1.22306729E-01   1.78596379E+00   7.80094943E-01   1.72753108E+00  -1.96342946E+00  -9.52378589E-01  -1.30566969E+00  -9.50320658E-01  -2.76888668E+00  -9.89232656E-01  -8.54133279E+00   4.62301813E-01   1.70325514E-01  -1.68749307E+00  -6.83542674E-01   5.59727789E-01  -5.80341105E-02   4.75980043E-01  -1.68269239E+00  -6.94374401E+00  -2.99807798E+01  -8.51309597E-01  -7.83065879E+00  -3.30162735E+00  -3.11402882E+01  -4.26011626E+00   1.04774735E+00
   1.48750000E+02   5.00000000E-01   5.00000000E-01  -7.77506130E+00  -2.10350914E+00  -5.31459873E+00  -2.73570013E+00  -2.83750390E+00   9.12127849E-03  -4.94901900E+00   1.37258555E-01   1.77923771E+00   7.94663718E-01   1.72940020E+00  -1.91893729E+00  -9.26632321E-01  -1.26156367E+00  -9.16077817E-01  -2.74869806E+00  -9.39981958E-01  -8.47109305E+00   4.67568880E-01   1.71232896E-01  -1.66310622E+00  -6.50813402E-01   5.72519153E-01  -2.55179920E-02   4.97707534E-01  -1.66165224E+00  -6.90494591E+00  -2.97931800E+01  -8.32105912E-01  -7.77817819E+00  -3.27505752E+00  -3.09778856E+01  -4.24399234E+00   1.04721050E+00
   1.66250000E+02   5.00000000E-01   5.00000000E-01  -7.72355389E+00  -2.01308017E+00  -5.29333484E+00  -2.72503699E+00  -2.82497143E+00   9.12127849E-03  -4.88438893E+00   1.55837936E-01   1.77640817E+00   8.12867586E-01   1.73506375E+00  -1.88945505E+00  -9.15690780E-01  -1.23245975E+00  -8.96741535E-01  -2.72683586E+00  -8.94447015E-01  -8.41105180E+00   4.66683821E-01   1.71972005E-01  -1.65743457E+00  -6.28705361E-01   5.74906439E-01  -3.61750773E-03   5.08924830E-01  -1.65295200E+00  -6.85414471E+00  -2.96110582E+01  -8.12738782E-01  -7.73388727E+00  -3.25905468E+00  -3.08219626E+01  -4.23152390E+00   1.04600519E+00
   1.83750000E+02   5.00000000E-01   5.00000000E-01  -7.67010166E+00  -1.92925234E+00  -5.27098637E+00  -2.71099873E+00  -2.80908305E+00   9.12127849E-03  -4.82313842E+00   1.76594701E-01   1.77600887E+00   8.33254854E-01   1.74305578E+00  -1.86795176E+00  -9.12525363E-01  -1.21132850E+00  -8.85282878E-01  -2.70408089E+00  -8.52329272E-01  -8.35674623E+00   4.62769011E-01   1.72512241E-01  -1.66202965E+00  -6.12080903E-01   5.72024750E-01   1.28035117E-02   5.14767426E-01  -1.65090952E+00  -6.79635558E+00  -2.94325149E+01  -7.93217752E-01  -7.69410042E+00  -3.24871057E+00  -3.06714167E+01  -4.22244228E+00   1.04457968E+00
   2.01250000E+02   5.00000000E-01   5.00000000E-01  -7.61570281E+00  -1.85145448E+00  -5.24814786E+00  -2.69499384E+00  -2.79124696E+00   9.12127848E-03  -4.76507512E+00   1.98750934E-01   1.77725139E+00   8.55046472E-01   1.75258866E+00  -1.85097021E+00  -9.13681619E-01  -1.19471385E+00  -8.78246639E-01  -2.68083652E+00  -8.13246889E-01  -8.30593972E+00   4.57321749E-01   1.72877269E-01  -1.67263472E+00  -5.98450351E-01   5.66360820E-01   2.62336434E-02   5.17722867E-01  -1.65270006E+00  -6.73421164E+00  -2.92565929E+01  -7.73552227E-01  -7.65698292E+00  -3.24159907E+00  -3.05254601E+01  -4.21636525E+00   1.04312626E+00
   2.18750000E+02   5.00000000E-01   5.00000000E-01  -7.56078311E+00  -1.77893390E+00  -5.22507492E+00  -2.67762487E+00  -2.77206541E+00   9.12127848E-03  -4.70986321E+00   2.21983620E-01   1.77980618E+00   8.77918508E-01   1.76333380E+00  -1.83698842E+00  -9.17640507E-01  -1.18109475E+00  -8.74112810E-01  -2.65727267E+00  -7.76780013E-01  -8.25764212E+00   4.51005221E-01   1.73096072E-01  -1.68737776E+00  -5.86713019E-01   5.59012230E-01   3.77726967E-02   5.18889759E-01  -1.65708308E+00  -6.66881964E+00  -2.90828279E+01  -7.53751429E-01  -7.62171429E+00  -3.23664605E+00  -3.03835074E+01  -4.21288459E+00   1.04173167E+00
   2.36250000E+02   5.00000000E-01   5.00000000E-01  -7.50584688E+00  -1.71127874E+00  -5.20201588E+00  -2.65965863E+00  -2.75230494E+00   9.12127847E-03  -4.65729075E+00   2.45695543E-01   1.78306708E+00   9.01272917E-01   1.77468625E+00  -1.82452494E+00  -9.22923724E-01  -1.16899059E+00  -8.71401872E-01  -2.63364510E+00  -7.42725817E-01  -8.21078700E+00   4.44334475E-01   1.73210901E-01  -1.70413980E+00  -5.75924935E-01   5.50919650E-01   4.83638496E-02   5.19210042E-01  -1.66274858E+00  -6.60198127E+00  -2.89108840E+01  -7.33824331E-01  -7.58748401E+00  -3.23279426E+00  -3.02451088E+01  -4.21172172E+00   1.04038948E+00
   2.53750000E+02   5.00000000E-01   5.00000000E-01  -7.45100200E+00  -1.64787884E+00  -5.17902114E+00  -2.64126696E+00  -2.73213709E+00   9.12127846E-03  -4.60704696E+00   2.69748331E-01   1.78689079E+00   9.24970624E-01   1.78650398E+00  -1.81323722E+00  -9.29191863E-01  -1.15805956E+00  -8.69773146E-01  -2.61001111E+00  -7.10782062E-01  -8.16511340E+00   4.37423020E-01   1.73251807E-01  -1.72241175E+00  -5.65872265E-01   5.42293614E-01   5.82202672E-02   5.18895578E-01  -1.66938929E+00  -6.53410959E+00  -2.87406433E+01  -7.13779676E-01  -7.55408926E+00  -3.22979136E+00  -3.01099123E+01  -4.21256410E+00   1.03909376E+00
   2.71250000E+02   5.00000000E-01   5.00000000E-01  -7.39631520E+00  -1.58822375E+00  -5.15611755E+00  -2.62256278E+00  -2.71167450E+00   9.12127846E-03  -4.55886800E+00   2.94037944E-01   1.79116872E+00   9.48906939E-01   1.79867976E+00  -1.80292978E+00  -9.36252598E-01  -1.14810682E+00  -8.69032940E-01  -2.58641038E+00  -6.80699340E-01  -8.12045953E+00   4.30323073E-01   1.73238576E-01  -1.74187609E+00  -5.56444645E-01   5.33241163E-01   6.74516988E-02   5.18054827E-01  -1.67682036E+00  -6.46550055E+00  -2.85720365E+01  -6.93625948E-01  -7.52140894E+00  -3.22749012E+00  -2.99776352E+01  -4.21515335E+00   1.03783266E+00
   2.88750000E+02   5.00000000E-01   5.00000000E-01  -7.34187922E+00  -1.53193464E+00  -5.13334125E+00  -2.60370174E+00  -2.69107258E+00   9.12127845E-03  -4.51255210E+00   3.18414343E-01   1.79574592E+00   9.72931214E-01   1.81106008E+00  -1.79336179E+00  -9.43868288E-01  -1.13889216E+00  -8.68942166E-01  -2.56289938E+00  -6.52297859E-01  -8.07662442E+00   4.23091435E-01   1.73186136E-01  -1.76212879E+00  -5.47513769E-01   5.23887258E-01   7.61858745E-02   5.16814249E-01  -1.68480834E+00  -6.39657557E+00  -2.84050048E+01  -6.73371357E-01  -7.48929975E+00  -3.22571167E+00  -2.98480478E+01  -4.21929008E+00   1.03658672E+00
   3.06250000E+02   5.00000000E-01   5.00000000E-01  -7.28780647E+00  -1.47873380E+00  -5.11073538E+00  -2.58487167E+00  -2.67051888E+00   9.12127844E-03  -4.46794529E+00   3.42693123E-01   1.80043279E+00   9.96858474E-01   1.82345684E+00  -1.78425742E+00  -9.51766313E-01  -1.13014034E+00  -8.69226687E-01  -2.53954722E+00  -6.25451188E-01  -8.03337707E+00   4.15788837E-01   1.73106283E-01  -1.78269955E+00  -5.38937108E-01   5.14371073E-01   8.45647853E-02   5.15314587E-01  -1.69308253E+00  -6.32785021E+00  -2.82394961E+01  -6.53023838E-01  -7.45760115E+00  -3.22425273E+00  -2.97209615E+01  -4.22482043E+00   1.03533088E+00
   3.23750000E+02   5.00000000E-01   5.00000000E-01  -7.23421133E+00  -1.42840952E+00  -5.08834290E+00  -2.56626455E+00  -2.65020512E+00   9.12127843E-03  -4.42492542E+00   3.66682341E-01   1.80503218E+00   1.02049625E+00   1.83567445E+00  -1.77534551E+00  -9.59678719E-01  -1.12158074E+00  -8.69616977E-01  -2.51642523E+00  -6.00067142E-01  -7.99048772E+00   4.08470579E-01   1.73008546E-01  -1.80311742E+00  -5.30578831E-01   5.04825089E-01   9.27237659E-02   5.13689945E-01  -1.70137345E+00  -6.25985843E+00  -2.80754666E+01  -6.32591043E-01  -7.42615620E+00  -3.22291367E+00  -2.95962196E+01  -4.23162252E+00   1.03403758E+00
   3.41250000E+02   5.00000000E-01   5.00000000E-01  -7.18119192E+00  -1.38078483E+00  -5.06619911E+00  -2.54804730E+00  -2.63029796E+00   9.12127842E-03  -4.38338822E+00   3.90210768E-01   1.80936786E+00   1.04367282E+00   1.84753827E+00  -1.76640044E+00  -9.67383048E-01  -1.11298823E+00  -8.69888974E-01  -2.49359610E+00  -5.76070422E-01  -7.94776032E+00   4.01177237E-01   1.72900806E-01  -1.82297926E+00  -5.22331007E-01   4.95353910E-01   1.00770290E-01   5.12046582E-01  -1.70945282E+00  -6.19307287E+00  -2.79128821E+01  -6.12080335E-01  -7.39483320E+00  -3.22152760E+00  -2.94736910E+01  -4.23959464E+00   1.03268026E+00
   3.58750000E+02   5.00000000E-01   5.00000000E-01  -7.12880376E+00  -1.33568167E+00  -5.04432084E+00  -2.53032012E+00  -2.61089737E+00   9.12127840E-03  -4.34323173E+00   4.13167410E-01   1.81332438E+00   1.06627675E+00   1.85893445E+00  -1.75730292E+00  -9.74763172E-01  -1.10424398E+00  -8.69924929E-01  -2.47109847E+00  -5.53382418E-01  -7.90508038E+00   3.93919789E-01   1.72789498E-01  -1.84204995E+00  -5.14146186E-01   4.86001697E-01   1.08751389E-01   5.10430327E-01  -1.71719217E+00  -6.12779254E+00  -2.77517215E+01  -5.91498778E-01  -7.36355811E+00  -3.22000361E+00  -2.93532635E+01  -4.24864252E+00   1.03123788E+00
   3.76250000E+02   5.00000000E-01   5.00000000E-01  -7.07706628E+00  -1.29291959E+00  -5.02271017E+00  -2.51312566E+00  -2.59204575E+00   9.12127839E-03  -4.30435611E+00   4.35496197E-01   1.81684176E+00   1.08825155E+00   1.86980462E+00  -1.74801830E+00  -9.81787544E-01  -1.09531378E+00  -8.69691672E-01  -2.44894961E+00  -5.31920026E-01  -7.86240081E+00   3.86688871E-01   1.72679704E-01  -1.86023522E+00  -5.06021916E-01   4.76767661E-01   1.16669138E-01   5.08842065E-01  -1.72454501E+00  -6.06416046E+00  -2.75919714E+01  -5.70853134E-01  -7.33230310E+00  -3.21831157E+00  -2.92348404E+01  -4.25867782E+00   1.02969601E+00
   3.93750000E+02   5.00000000E-01   5.00000000E-01  -7.02596057E+00  -1.25230771E+00  -5.00135387E+00  -2.49644515E+00  -2.57372409E+00   9.12127838E-03  -4.26666020E+00   4.57200669E-01   1.81992018E+00   1.10960040E+00   1.88015056E+00  -1.73859951E+00  -9.88512115E-01  -1.08625090E+00  -8.69243541E-01  -2.42714380E+00  -5.11591103E-01  -7.81974513E+00   3.79455273E-01   1.72575343E-01  -1.87758911E+00  -4.98001119E-01   4.67605698E-01   1.24480269E-01   5.07237351E-01  -1.73155056E+00  -6.00215122E+00  -2.74336247E+01  -5.50149856E-01  -7.30108806E+00  -3.21648426E+00  -2.91183366E+01  -4.26961436E+00   1.02804788E+00
   4.11250000E+02   5.00000000E-01   5.00000000E-01  -6.97544041E+00  -1.21365104E+00  -4.98022856E+00  -2.48021526E+00  -2.55586883E+00   9.12127836E-03  -4.23004430E+00   4.78329793E-01   1.82260572E+00   1.13037193E+00   1.89001992E+00  -1.72915784E+00  -9.95051173E-01  -1.07716700E+00  -8.68693232E-01  -2.40565818E+00  -4.92297972E-01  -7.77718607E+00   3.72179168E-01   1.72479239E-01  -1.89427050E+00  -4.90154430E-01   4.58442061E-01   1.32113839E-01   5.05544077E-01  -1.73830727E+00  -5.94161267E+00  -2.72766765E+01  -5.29395089E-01  -7.26996509E+00  -3.21459672E+00  -2.90036762E+01  -4.28136922E+00   1.02629367E+00
   4.28750000E+02   5.00000000E-01   5.00000000E-01  -6.92544526E+00  -1.17675966E+00  -4.95930640E+00  -2.46434842E+00  -2.53839217E+00   9.12127834E-03  -4.19441396E+00   4.98959777E-01   1.82497199E+00   1.15064203E+00   1.89948787E+00  -1.71983053E+00  -1.00154485E+00  -1.06819964E+00  -8.68179315E-01  -2.38446002E+00  -4.73942820E-01  -7.73482094E+00   3.64819298E-01   1.72393306E-01  -1.91049235E+00  -4.82561575E-01   4.49193982E-01   1.39489840E-01   5.03681086E-01  -1.74494250E+00  -5.88231846E+00  -2.71211204E+01  -5.08594671E-01  -7.23900113E+00  -3.21274317E+00  -2.88907908E+01  -4.29386478E+00   1.02443891E+00
   4.46250000E+02   5.00000000E-01   5.00000000E-01  -6.87590357E+00  -1.14144917E+00  -4.93855622E+00  -2.44873827E+00  -2.52118752E+00   9.12127832E-03  -4.15967973E+00   5.19188291E-01   1.82711433E+00   1.17050810E+00   1.90865125E+00  -1.71077395E+00  -1.00815237E+00  -1.05950546E+00  -8.67859470E-01  -2.36350893E+00  -4.56428410E-01  -7.69276572E+00   3.57333939E-01   1.72318829E-01  -1.92650878E+00  -4.75308423E-01   4.39772627E-01   1.46522151E-01   5.01561120E-01  -1.75160538E+00  -5.82398420E+00  -2.69669483E+01  -4.87754131E-01  -7.20827418E+00  -3.21103207E+00  -2.87796185E+01  -4.30702809E+00   1.02249352E+00
   4.63750000E+02   5.00000000E-01   5.00000000E-01  -6.82673927E+00  -1.10754478E+00  -4.91794621E+00  -2.43327000E+00  -2.50413987E+00   9.12127830E-03  -4.12575854E+00   5.39124444E-01   1.82913968E+00   1.19007900E+00   1.91761849E+00  -1.70214895E+00  -1.01503731E+00  -1.05124558E+00  -8.67895807E-01  -2.34276068E+00  -4.39660750E-01  -7.65114322E+00   3.49684232E-01   1.72256585E-01  -1.94259031E+00  -4.68479375E-01   4.30090711E-01   1.53126148E-01   4.99098429E-01  -1.75845249E+00  -5.76629571E+00  -2.68141497E+01  -4.66878703E-01  -7.17786539E+00  -3.20957565E+00  -2.86701022E+01  -4.32079149E+00   1.02047051E+00
   4.81250000E+02   5.00000000E-01   5.00000000E-01  -6.77787750E+00  -1.07488506E+00  -4.89744605E+00  -2.41782965E+00  -2.48713503E+00   9.12127828E-03  -4.09257498E+00   5.58879607E-01   1.83115738E+00   1.20946588E+00   1.92650036E+00  -1.69410803E+00  -1.02235487E+00  -1.04357272E+00  -8.68442051E-01  -2.32217073E+00  -4.23551632E-01  -7.61007271E+00   3.41836881E-01   1.72206995E-01  -1.95900168E+00  -4.62150914E-01   4.20068947E-01   1.59225151E-01   4.96215219E-01  -1.76563514E+00  -5.70893499E+00  -2.66627107E+01  -4.45973322E-01  -7.14785211E+00  -3.20848067E+00  -2.85621895E+01  -4.33509336E+00   1.01838472E+00
   4.98750000E+02   5.00000000E-01   5.00000000E-01  -6.72878594E+00  -1.04286946E+00  -4.87681973E+00  -2.40159400E+00  -2.46934957E+00   9.12127826E-03  -4.05985709E+00   5.79187904E-01   1.83390485E+00   1.22940281E+00   1.93603567E+00  -1.68796104E+00  -1.03141746E+00  -1.03779679E+00  -8.70809238E-01  -2.30144284E+00  -4.07770295E-01  -7.57053955E+00   3.33417589E-01   1.72174628E-01  -1.97778359E+00  -4.57075974E-01   4.08951706E-01   1.64066210E-01   4.92157301E-01  -1.77437546E+00  -5.64977799E+00  -2.65127513E+01  -4.25042707E-01  -7.11892710E+00  -3.20867406E+00  -2.84558061E+01  -4.34972366E+00   1.01629697E+00
   5.16250000E+02   5.00000000E-01   5.00000000E-01  -6.67982639E+00  -1.01178819E+00  -4.85624241E+00  -2.38511674E+00  -2.45133697E+00   9.12127824E-03  -4.02774246E+00   5.99600878E-01   1.83692702E+00   1.24944103E+00   1.94577073E+00  -1.68271440E+00  -1.04123406E+00  -1.03292452E+00  -8.74004944E-01  -2.28076366E+00  -3.92467231E-01  -7.53182950E+00   3.24758456E-01   1.72145719E-01  -1.99750898E+00  -4.52634092E-01   3.97356773E-01   1.68269489E-01   4.87543894E-01  -1.78378643E+00  -5.59014916E+00  -2.63641110E+01  -4.04091163E-01  -7.09056468E+00  -3.20945480E+00  -2.83509298E+01  -4.36478010E+00   1.01419633E+00
   5.33750000E+02   5.00000000E-01   5.00000000E-01  -6.63102007E+00  -9.81602926E-01  -4.83572722E+00  -2.36843245E+00  -2.43313161E+00   9.12127821E-03  -3.99621267E+00   6.20101186E-01   1.84020362E+00   1.26956303E+00   1.95568658E+00  -1.67826906E+00  -1.05170807E+00  -1.02885704E+00  -8.77931248E-01  -2.26014135E+00  -3.77620462E-01  -7.49387369E+00   3.15901810E-01   1.72126934E-01  -2.01805600E+00  -4.48753277E-01   3.85353565E-01   1.71906837E-01   4.82445779E-01  -1.79378758E+00  -5.53010881E+00  -2.62167391E+01  -3.83122774E-01  -7.06270693E+00  -3.21075081E+00  -2.82475235E+01  -4.38024462E+00   1.01208831E+00
   5.51250000E+02   5.00000000E-01   5.00000000E-01  -6.58229141E+00  -9.52187017E-01  -4.81524242E+00  -2.35142687E+00  -2.41461905E+00   9.12127819E-03  -3.96520868E+00   6.40797321E-01   1.84384135E+00   1.28987719E+00   1.96589119E+00  -1.67478399E+00  -1.06300083E+00  -1.02575343E+00  -8.82748208E-01  -2.23953215E+00  -3.63160312E-01  -7.45679373E+00   3.06808944E-01   1.72121651E-01  -2.03968990E+00  -4.45517201E-01   3.72855922E-01   1.74894505E-01   4.76778115E-01  -1.80453340E+00  -5.46934724E+00  -2.60706250E+01  -3.62141385E-01  -7.03543476E+00  -3.21267344E+00  -2.81455467E+01  -4.39606841E+00   1.00998543E+00
   5.68750000E+02   5.00000000E-01   5.00000000E-01  -6.53358620E+00  -9.23441386E-01  -4.79476656E+00  -2.33401816E+00  -2.39571722E+00   9.12127816E-03  -3.93468489E+00   6.61770958E-01   1.84792001E+00   1.31046512E+00   1.97646559E+00  -1.67236342E+00  -1.07521887E+00  -1.02371799E+00  -8.88561125E-01  -2.21890337E+00  -3.49031304E-01  -7.42067247E+00   2.97459006E-01   1.72130340E-01  -2.06259725E+00  -4.42975835E-01   3.59811458E-01   1.77182468E-01   4.70489792E-01  -1.81612921E+00  -5.40763322E+00  -2.59257541E+01  -3.41150592E-01  -7.00880153E+00  -3.21529604E+00  -2.80449621E+01  -4.41221280E+00   1.00789946E+00
   5.86250000E+02   5.00000000E-01   5.00000000E-01  -6.48488048E+00  -8.95302460E-01  -4.77429208E+00  -2.31617094E+00  -2.37639057E+00   9.12127814E-03  -3.90461223E+00   6.83063708E-01   1.85247905E+00   1.33136836E+00   1.98745041E+00  -1.67103446E+00  -1.08839153E+00  -1.02277791E+00  -8.95398144E-01  -2.19823868E+00  -3.35196953E-01  -7.38553602E+00   2.87854646E-01   1.72152536E-01  -2.08684835E+00  -4.41133310E-01   3.46213701E-01   1.78766555E-01   4.63575573E-01  -1.82860963E+00  -5.34485246E+00  -2.57821034E+01  -3.20153752E-01  -6.98282020E+00  -3.21863766E+00  -2.79457365E+01  -4.42865182E+00   1.00583965E+00
   6.03750000E+02   5.00000000E-01   5.00000000E-01  -6.43617534E+00  -8.67736319E-01  -4.75382258E+00  -2.29788882E+00  -2.35664252E+00   9.12127811E-03  -3.87497511E+00   7.04682490E-01   1.85752299E+00   1.35259380E+00   1.99885134E+00  -1.67076209E+00  -1.10248595E+00  -1.02289822E+00  -9.03225242E-01  -2.17753570E+00  -3.21637018E-01  -7.35136379E+00   2.78016276E-01   1.72187440E-01  -2.11241698E+00  -4.39957966E-01   3.32092036E-01   1.79678404E-01   4.56066045E-01  -1.84195138E+00  -5.28099116E+00  -2.56396440E+01  -2.99153998E-01  -6.95747107E+00  -3.22267350E+00  -2.78478403E+01  -4.44537012E+00   1.00381244E+00
   6.21250000E+02   5.00000000E-01   5.00000000E-01  -6.38749050E+00  -8.40731646E-01  -4.73336960E+00  -2.27920456E+00  -2.33650565E+00   9.12127808E-03  -3.84576788E+00   7.26607351E-01   1.86302936E+00   1.37412146E+00   2.01064702E+00  -1.67146677E+00  -1.11742468E+00  -1.02399938E+00  -9.11963843E-01  -2.15680268E+00  -3.08343904E-01  -7.31810106E+00   2.67976090E-01   1.72234177E-01  -2.13920557E+00  -4.39393422E-01   3.17500635E-01   1.79974394E-01   4.48016543E-01  -1.85608892E+00  -5.21611280E+00  -2.54983438E+01  -2.78154252E-01  -6.93271097E+00  -3.22734724E+00  -2.77512473E+01  -4.46236046E+00   1.00182157E+00
   6.38750000E+02   5.00000000E-01   5.00000000E-01  -6.33885702E+00  -8.14291964E-01  -4.71294928E+00  -2.26016898E+00  -2.31603059E+00   9.12127805E-03  -3.81699128E+00   7.48800890E-01   1.86895813E+00   1.39591393E+00   2.02279851E+00  -1.67304337E+00  -1.13310464E+00  -1.02597630E+00  -9.21509770E-01  -2.13605466E+00  -2.95318540E-01  -7.28567279E+00   2.57772110E-01   1.72291980E-01  -2.16707338E+00  -4.39370017E-01   3.02507017E-01   1.79724206E-01   4.39495716E-01  -1.87093174E+00  -5.15033055E+00  -2.53581696E+01  -2.57157231E-01  -6.90848328E+00  -3.23258447E+00  -2.76559337E+01  -4.47962092E+00   9.99868577E-01
   6.56250000E+02   5.00000000E-01   5.00000000E-01  -6.29030977E+00  -7.88427705E-01  -4.69257893E+00  -2.24083930E+00  -2.29527439E+00   9.12127802E-03  -3.78864878E+00   7.71218403E-01   1.87526199E+00   1.41792654E+00   2.03525956E+00  -1.67538037E+00  -1.14941627E+00  -1.02871740E+00  -9.31752406E-01  -2.11530933E+00  -2.82566062E-01  -7.25399789E+00   2.47442453E-01   1.72360333E-01  -2.19586570E+00  -4.39816092E-01   2.87180758E-01   1.78999542E-01   4.30574237E-01  -1.88638196E+00  -5.08377775E+00  -2.52190897E+01  -2.36165465E-01  -6.88472807E+00  -3.23830617E+00  -2.75618777E+01  -4.49715216E+00   9.97953512E-01
   6.73750000E+02   5.00000000E-01   5.00000000E-01  -6.24188144E+00  -7.63149896E-01  -4.67227436E+00  -2.22126980E+00  -2.27429114E+00   9.12127799E-03  -3.76074376E+00   7.93816212E-01   1.88189472E+00   1.44011566E+00   2.04798496E+00  -1.67837471E+00  -1.16625844E+00  -1.03211962E+00  -9.42589598E-01  -2.09458367E+00  -2.70092314E-01  -7.22300048E+00   2.37021076E-01   1.72439025E-01  -2.22543699E+00  -4.40666567E-01   2.71584914E-01   1.77865548E-01   4.21316230E-01  -1.90234829E+00  -5.01658389E+00  -2.50810751E+01  -2.15181301E-01  -6.86138999E+00  -3.24443934E+00  -2.74690588E+01  -4.51495509E+00   9.96075592E-01
   6.91250000E+02   5.00000000E-01   5.00000000E-01  -6.19359677E+00  -7.38464147E-01  -4.65204737E+00  -2.20150280E+00  -2.25312301E+00   9.12127795E-03  -3.73327685E+00   8.16559745E-01   1.88881933E+00   1.46244679E+00   2.06093875E+00  -1.68194612E+00  -1.18355275E+00  -1.03610259E+00  -9.53941927E-01  -2.07389076E+00  -2.57900496E-01  -7.19262066E+00   2.26533757E-01   1.72528203E-01  -2.25567319E+00  -4.41871104E-01   2.55767853E-01   1.76372652E-01   4.11771104E-01  -1.91875932E+00  -4.94885125E+00  -2.49441009E+01  -1.94206913E-01  -6.83842588E+00  -3.25092708E+00  -2.73774571E+01  -4.53302870E+00   9.94233914E-01
   7.08750000E+02   5.00000000E-01   5.00000000E-01  -6.14547130E+00  -7.14369223E-01  -4.63190527E+00  -2.18156668E+00  -2.23179820E+00   9.12127792E-03  -3.70624543E+00   8.39425629E-01   1.89601019E+00   1.48489664E+00   2.07409626E+00  -1.68603960E+00  -1.20124600E+00  -1.04061124E+00  -9.65755233E-01  -2.05323899E+00  -2.45990275E-01  -7.16281672E+00   2.15997705E-01   1.72628267E-01  -2.28649646E+00  -4.43395235E-01   2.39762129E-01   1.74555437E-01   4.01972424E-01  -1.93556616E+00  -4.88064912E+00  -2.48081467E+01  -1.73244314E-01  -6.81580616E+00  -3.25773040E+00  -2.72870527E+01  -4.55136950E+00   9.92427798E-01
   7.26250000E+02   5.00000000E-01   5.00000000E-01  -6.09751134E+00  -6.90856762E-01  -4.61185096E+00  -2.16147565E+00  -2.21033076E+00   9.12127789E-03  -3.67964354E+00   8.62402168E-01   1.90345350E+00   1.50745365E+00   2.08744463E+00  -1.69062521E+00  -1.21931002E+00  -1.04561549E+00  -9.78000375E-01  -2.03263186E+00  -2.34357546E-01  -7.13356520E+00   2.05421923E-01   1.72739801E-01  -2.31786548E+00  -4.45219942E-01   2.23584895E-01   1.72433056E-01   3.91938335E-01  -1.95274243E+00  -4.81201251E+00  -2.46731962E+01  -1.52295358E-01  -6.79351467E+00  -3.26482814E+00  -2.71978259E+01  -4.56997140E+00   9.90656985E-01
   7.43750000E+02   5.00000000E-01   5.00000000E-01  -6.04971458E+00  -6.67911807E-01  -4.59188332E+00  -2.14123074E+00  -2.18872156E+00   9.12127786E-03  -3.65346218E+00   8.85488660E-01   1.91114659E+00   1.53011725E+00   2.10098214E+00  -1.69569595E+00  -1.23773954E+00  -1.05110822E+00  -9.90671155E-01  -2.01206839E+00  -2.22994667E-01  -7.10485944E+00   1.94808030E-01   1.72863511E-01  -2.34977272E+00  -4.47340237E-01   2.07239323E-01   1.70010655E-01   3.81672973E-01  -1.97028254E+00  -4.74294434E+00  -2.45392365E+01  -1.31361752E-01  -6.77154765E+00  -3.27221542E+00  -2.71097569E+01  -4.58882585E+00   9.88921697E-01
   7.61250000E+02   5.00000000E-01   5.00000000E-01  -6.00207152E+00  -6.45514013E-01  -4.57199782E+00  -2.12082184E+00  -2.16696032E+00   9.12127782E-03  -3.62768992E+00   9.08693739E-01   1.91909626E+00   1.55289623E+00   2.11471650E+00  -1.70126417E+00  -1.25654856E+00  -1.05710163E+00  -1.00378067E+00  -1.99154371E+00  -2.11891082E-01  -7.07670703E+00   1.84151480E-01   1.73000160E-01  -2.38223926E+00  -4.49762893E-01   1.90716871E-01   1.67281634E-01   3.71168741E-01  -1.98819840E+00  -4.67342024E+00  -2.44062579E+01  -1.10445061E-01  -6.74991178E+00  -3.27990115E+00  -2.70228258E+01  -4.60792226E+00   9.87222598E-01
   7.78750000E+02   5.00000000E-01   5.00000000E-01  -5.95456728E+00  -6.23639383E-01  -4.55218744E+00  -2.10023059E+00  -2.14502854E+00   9.12127779E-03  -3.60231370E+00   9.32032943E-01   1.92731632E+00   1.57580631E+00   2.12866239E+00  -1.70735665E+00  -1.27576550E+00  -1.06362231E+00  -1.01735645E+00  -1.97105014E+00  -2.01034253E-01  -7.04912618E+00   1.73443107E-01   1.73150504E-01  -2.41530748E+00  -4.52503489E-01   1.74000232E-01   1.64230600E-01   3.60409258E-01  -2.00651498E+00  -4.60339573E+00  -2.42742532E+01  -8.95467173E-02  -6.72862157E+00  -3.28790455E+00  -2.69370126E+01  -4.62724858E+00   9.85560671E-01
   7.96250000E+02   5.00000000E-01   5.00000000E-01  -5.90718406E+00  -6.02262548E-01  -4.53244377E+00  -2.07943410E+00  -2.12290317E+00   9.12127776E-03  -3.57731983E+00   9.55525523E-01   1.93582436E+00   1.59886691E+00   2.14283830E+00  -1.71400836E+00  -1.29542694E+00  -1.07070508E+00  -1.03143419E+00  -1.95057847E+00  -1.90410888E-01  -7.02214116E+00   1.62671045E-01   1.73315212E-01  -2.44903178E+00  -4.55582689E-01   1.57067060E-01   1.60837094E-01   3.49373085E-01  -2.02526464E+00  -4.53281543E+00  -2.41432168E+01  -6.86680253E-02  -6.70769610E+00  -3.29625071E+00  -2.68522976E+01  -4.64679218E+00   9.83937027E-01