 TITLE = "Mineral Saturation State" 
VARIABLES = "X"          "Y"              "Z"            "Forsterite"     "Fayalite"       "Brucite"        "Lizardite"      "Chrysotile"     "Saponite(Mg)"   "Enstatite(alph" "Ferrosilite(al" "Anorthite"      "Albite(low)"    "Clinochlore"    "Sudoite"        "Montmorillonit" "Kaolinite"      "Tremolite"      "Pargasite"      "Anhydrite"      "Epidote"        "Scolecite"      "Pyrite"         "FeS(am)"        "Quartz(alpha)" 
 ZONE I=         100 , J=           1 , K=           1  F=POINT
   1.75000000E+01   5.00000000E-01   5.00000000E-01  -6.57893510E+00  -3.87069180E-01  -4.81342731E+00  -2.92591739E-01  -4.09059971E-01   2.99911840E+00  -1.98988148E+00   4.61654140E-02  -1.20066755E+01  -5.47261357E-01   2.08499008E-03  -8.16364991E+00  -1.76221384E+00  -5.49712495E+00  -4.74318521E-01  -3.16722050E+01  -9.51509965E-01  -3.77087893E-06  -6.20948469E+00  -3.17958665E+01  -3.49452336E+00   1.31735684E+00
   5.25000000E+01   5.00000000E-01   5.00000000E-01  -6.60274831E+00  -1.39096287E-01  -4.90783565E+00  -3.96357125E-01  -5.08799701E-01   3.17475488E+00  -1.93648416E+00   2.44429772E-01  -1.14461434E+01  -4.58434644E-02   2.00987108E-03  -7.47340273E+00  -1.00571368E+00  -4.92483907E+00  -1.31761097E-01  -3.08816504E+01  -9.02210529E-01   1.46472568E-06  -5.59427607E+00  -3.13076892E+01  -3.42188931E+00   1.46202132E+00
   8.75000000E+01   5.00000000E-01   5.00000000E-01  -6.53958102E+00  -5.28341786E-02  -4.90444795E+00  -4.21495040E-01  -5.29997272E-01   3.23692114E+00  -1.89378229E+00   3.07489964E-01  -1.11791345E+01   9.38939300E-02   1.93599653E-03  -7.24786948E+00  -7.73730335E-01  -4.73850590E+00   2.20926462E-02  -3.03706575E+01  -8.54149442E-01   2.50111745E-07  -5.37996455E+00  -3.09639528E+01  -3.41878402E+00   1.49804805E+00
   1.22500000E+02   5.00000000E-01   5.00000000E-01  -6.46347008E+00  -2.33123252E-02  -4.87853796E+00  -4.40862981E-01  -5.45507453E-01   3.25195434E+00  -1.86053528E+00   3.26095122E-01  -1.09785664E+01   1.38091813E-01   1.90696438E-03  -7.11407392E+00  -6.76314897E-01  -4.63804835E+00   7.68839309E-02  -2.99435932E+01  -8.06641595E-01   4.07831330E-08  -5.26296609E+00  -3.06648501E+01  -3.43860770E+00   1.50196229E+00
   1.57500000E+02   5.00000000E-01   5.00000000E-01  -6.38529735E+00  -1.34027392E-02  -4.84640454E+00  -4.59981989E-01  -5.60848676E-01   3.25039929E+00  -1.83132301E+00   3.29674963E-01  -1.07996750E+01   1.52323879E-01   1.89874939E-03  -7.00659821E+00  -6.21121482E-01  -4.56354404E+00   9.44404207E-02  -2.95487691E+01  -7.59349867E-01  -1.74746380E-08  -5.17681071E+00  -3.03845006E+01  -3.46681825E+00   1.49549318E+00
   1.92500000E+02   5.00000000E-01   5.00000000E-01  -6.30954004E+00  -1.08637293E-02  -4.81405390E+00  -4.81855121E-01  -5.79021499E-01   3.24201413E+00  -1.80461384E+00   3.28125047E-01  -1.06252522E+01   1.60110821E-01   1.90160604E-03  -6.89980315E+00  -5.74744371E-01  -4.49234584E+00   9.40449374E-02  -2.91673958E+01  -7.12109330E-01  -2.55449386E-08  -5.09676566E+00  -3.01138456E+01  -3.49857040E+00   1.48618796E+00
   2.27500000E+02   5.00000000E-01   5.00000000E-01  -6.25415566E+00  -1.64576694E-02  -4.79399022E+00  -5.29946646E-01  -6.23487800E-01   3.21996280E+00  -1.78585890E+00   3.24596118E-01  -1.04114499E+01   1.97194191E-01   1.93922155E-03  -6.71455356E+00  -4.80855433E-01  -4.36880565E+00   4.58918479E-02  -2.87746609E+01  -6.64574327E-01   6.05886970E-08  -4.97194350E+00  -2.98435016E+01  -3.53306559E+00   1.48110846E+00
   2.62500000E+02   5.00000000E-01   5.00000000E-01  -6.25504633E+00  -3.88292103E-02  -4.80741464E+00  -6.54911840E-01  -7.44900563E-01   3.15550114E+00  -1.78975741E+00   3.18021818E-01  -1.00788727E+01   3.15790726E-01   2.05123218E-03  -6.30046196E+00  -2.52326510E-01  -4.09323030E+00  -1.44711684E-01  -2.83375654E+01  -6.16177917E-01   2.84447851E-07  -4.71646072E+00  -2.95595468E+01  -3.57060395E+00   1.48676470E+00
   2.97500000E+02   5.00000000E-01   5.00000000E-01  -6.22149283E+00  -3.67456926E-02  -4.80087049E+00  -7.28819756E-01  -8.15326642E-01   3.12157023E+00  -1.77904536E+00   3.20926824E-01  -9.82665562E+00   3.84345093E-01   2.07076751E-03  -6.03674044E+00  -1.08333354E-01  -3.91673374E+00  -2.36170582E-01  -2.79371988E+01  -5.67641190E-01   1.35403912E-07  -4.54565894E+00  -2.92887048E+01  -3.60196101E+00   1.48697155E+00
   3.32500000E+02   5.00000000E-01   5.00000000E-01  -6.15014923E+00  -2.24172049E-02  -4.77205661E+00  -7.47329253E-01  -8.30422790E-01   3.11952202E+00  -1.75267693E+00   3.26582771E-01  -9.66290562E+00   3.96529963E-01   2.04857958E-03  -5.93774185E+00  -5.89765343E-02  -3.84937830E+00  -2.23213302E-01  -2.75781024E+01  -5.19334025E-01  -8.70678143E-10  -4.46891444E+00  -2.90374963E+01  -3.63263093E+00   1.48048069E+00
   3.67500000E+02   5.00000000E-01   5.00000000E-01  -6.07117617E+00  -1.37675541E-02  -4.73773155E+00  -7.54051409E-01  -8.33798063E-01   3.12102148E+00  -1.72405344E+00   3.27710422E-01  -9.52341440E+00   3.91162962E-01   2.03587866E-03  -5.87918522E+00  -3.79808655E-02  -3.81054544E+00  -1.95695808E-01  -2.72373488E+01  -4.71317413E-01  -3.52424623E-08  -4.41867583E+00  -2.87991217E+01  -3.66717129E+00   1.47065583E+00
   4.02500000E+02   5.00000000E-01   5.00000000E-01  -5.99137532E+00  -9.62135536E-03  -4.70219546E+00  -7.58336438E-01  -8.34800734E-01   3.12172203E+00  -1.69567587E+00   3.25800828E-01  -9.39239515E+00   3.79694125E-01   2.03141678E-03  -5.83189456E+00  -2.68488055E-02  -3.78040843E+00  -1.68903681E-01  -2.69071532E+01  -4.23600203E-01  -4.39175583E-08  -4.37737133E+00  -2.85694942E+01  -3.70439532E+00   1.45930221E+00
   4.37500000E+02   5.00000000E-01   5.00000000E-01  -5.91228914E+00  -7.73587510E-03  -4.66661191E+00  -7.62151621E-01  -8.35396221E-01   3.12136028E+00  -1.66792290E+00   3.22371315E-01  -9.26569679E+00   3.65722752E-01   2.03119264E-03  -5.78875596E+00  -2.00554424E-02  -3.75381712E+00  -1.44469865E-01  -2.65846442E+01  -3.76180624E-01  -4.46896250E-08  -4.34007910E+00  -2.83466523E+01  -3.74317331E+00   1.44721029E+00
   4.72500000E+02   5.00000000E-01   5.00000000E-01  -5.83439528E+00  -6.89438771E-03  -4.63138836E+00  -7.66089471E-01  -8.36175246E-01   3.12001905E+00  -1.64086467E+00   3.18202184E-01  -9.14180066E+00   3.50638697E-01   2.03301029E-03  -5.74736429E+00  -1.55142658E-02  -3.72895733E+00  -1.22418282E-01  -2.62685113E+01  -3.29054216E-01  -4.19892983E-08  -4.30495735E+00  -2.81296612E+01  -3.78291973E+00   1.43472263E+00
   5.07500000E+02   5.00000000E-01   5.00000000E-01  -5.75788064E+00  -6.53203306E-03  -4.59669534E+00  -7.70396801E-01  -8.37382901E-01   3.11775505E+00  -1.61451774E+00   3.13655907E-01  -9.01998365E+00   3.35070362E-01   2.03585506E-03  -5.70666357E+00  -1.22842545E-02  -3.70501967E+00  -1.02634207E-01  -2.59580271E+01  -2.82215866E-01  -3.73081628E-08  -4.27114310E+00  -2.79180439E+01  -3.82336036E+00   1.42199805E+00
   5.42500000E+02   5.00000000E-01   5.00000000E-01  -5.68282041E+00  -6.39367797E-03  -4.56261003E+00  -7.75189234E-01  -8.39133155E-01   3.11460634E+00  -1.58888047E+00   3.08902305E-01  -8.89984044E+00   3.19340061E-01   2.03927724E-03  -5.66612376E+00  -9.88209744E-03  -3.68159015E+00  -8.49802969E-02  -2.56527116E+01  -2.35660451E-01  -3.13090462E-08  -4.23816626E+00  -2.77115265E+01  -3.86436689E+00   1.40911984E+00
   5.77500000E+02   5.00000000E-01   5.00000000E-01  -5.60923559E+00  -6.36289269E-03  -4.52916637E+00  -7.80516202E-01  -8.41473848E-01   3.11061038E+00  -1.56394047E+00   3.04025411E-01  -8.78112037E+00   3.03630858E-01   2.04306759E-03  -5.62546828E+00  -8.03457889E-03  -3.65844245E+00  -6.92947763E-02  -2.53522054E+01  -1.89383041E-01  -2.43707796E-08  -4.20574383E+00  -2.75099261E+01  -3.90587587E+00   1.39613852E+00
   6.12500000E+02   5.00000000E-01   5.00000000E-01  -5.53711846E+00  -6.38566537E-03  -4.49637618E+00  -7.86390646E-01  -8.44416388E-01   3.10580806E+00  -1.53967885E+00   2.99070067E-01  -8.66365697E+00   2.88055360E-01   2.04710157E-03  -5.58455574E+00  -6.57574549E-03  -3.63544908E+00  -5.53988944E-02  -2.50562154E+01  -1.43378906E-01  -1.67603105E-08  -4.17369250E+00  -2.73131004E+01  -3.94785167E+00   1.38308869E+00
   6.47500000E+02   5.00000000E-01   5.00000000E-01  -5.46644601E+00  -6.43696922E-03  -4.46423942E+00  -7.92805830E-01  -8.47952567E-01   3.10024188E+00  -1.51607348E+00   2.94062135E-01  -8.54733243E+00   2.72687206E-01   2.05127546E-03  -5.54331881E+00  -5.39892284E-03  -3.61253711E+00  -4.31098535E-02  -2.47644915E+01  -9.76434691E-02  -8.69549031E-09  -4.14188617E+00  -2.71209256E+01  -3.99026974E+00   1.36999602E+00
   6.82500000E+02   5.00000000E-01   5.00000000E-01  -5.39718758E+00  -6.50573375E-03  -4.43274950E+00  -7.99745236E-01  -8.52064445E-01   3.09395321E+00  -1.49310122E+00   2.89017575E-01  -8.43205811E+00   2.57576811E-01   2.05549921E-03  -5.50173062E+00  -4.43229685E-03  -3.58966430E+00  -3.22514351E-02  -2.44768132E+01  -5.21722178E-02  -3.69909839E-10  -4.11023330E+00  -2.69332845E+01  -4.03310893E+00   1.35688043E+00
   7.17500000E+02   5.00000000E-01   5.00000000E-01  -5.32930913E+00  -6.58775314E-03  -4.40189621E+00  -8.07188176E-01  -8.56729967E-01   3.08698051E+00  -1.47073926E+00   2.83946805E-01  -8.31776353E+00   2.42759851E-01   2.05971783E-03  -5.45978583E+00  -3.62567600E-03  -3.56680594E+00  -2.26602201E-02  -2.41929829E+01  -6.96063749E-03   8.03731599E-09  -4.07866433E+00  -2.67500620E+01  -4.07634790E+00   1.34375761E+00
   7.52500000E+02   5.00000000E-01   5.00000000E-01  -5.26277541E+00  -6.68211005E-03  -4.37166735E+00  -8.15112614E-01  -8.61925780E-01   3.07935874E+00  -1.44896571E+00   2.78856991E-01  -8.20439025E+00   2.28262103E-01   2.06389936E-03  -5.41749083E+00  -2.94308177E-03  -3.54394775E+00  -1.41875543E-02  -2.39128212E+01   3.79958444E-02   1.63588694E-08  -4.04712453E+00  -2.65711424E+01  -4.11996363E+00   1.33064013E+00
   7.87500000E+02   5.00000000E-01   5.00000000E-01  -5.19755113E+00  -6.78933994E-03  -4.34204958E+00  -8.23496601E-01  -8.67628661E-01   3.07111932E+00  -1.42775983E+00   2.73753325E-01  -8.09188814E+00   2.14102526E-01   2.06802629E-03  -5.37485820E+00  -2.35819301E-03  -3.52108181E+00  -6.69932568E-03  -2.36361634E+01   8.27018910E-02   2.44401958E-08  -4.01556959E+00  -2.63964090E+01  -4.16393085E+00   1.31753809E+00
   8.22500000E+02   5.00000000E-01   5.00000000E-01  -5.13360155E+00  -6.91043196E-03  -4.31302904E+00  -8.32318901E-01  -8.73816152E-01   3.06229049E+00  -1.40710204E+00   2.68639793E-01  -7.98021304E+00   2.00295332E-01   2.07209236E-03  -5.33190376E+00  -1.85140997E-03  -3.49820419E+00  -7.44964273E-05  -2.33628565E+01   1.27162267E-01   3.21420770E-08  -3.98396272E+00  -2.62257435E+01  -4.20822210E+00   1.30445967E+00
   8.57500000E+02   5.00000000E-01   5.00000000E-01  -5.07089272E+00  -7.04626016E-03  -4.28459164E+00  -8.41559245E-01  -8.80466798E-01   3.05289773E+00  -1.38697386E+00   2.63519669E-01  -7.86932510E+00   1.86851443E-01   2.07610500E-03  -5.28864494E+00  -1.40791485E-03  -3.47531360E+00   5.79682192E-03  -2.30927571E+01   1.71381829E-01   3.93430604E-08  -3.95227261E+00  -2.60590273E+01  -4.25280791E+00   1.29141156E+00
   8.92500000E+02   5.00000000E-01   5.00000000E-01  -5.00939166E+00  -7.19724646E-03  -4.25672325E+00  -8.51198384E-01  -8.87560211E-01   3.04296415E+00  -1.36735784E+00   2.58395829E-01  -7.75918758E+00   1.73779540E-01   2.08008244E-03  -5.24509987E+00  -1.01636585E-03  -3.45241052E+00   1.10153642E-02  -2.28257295E+01   2.15365505E-01   4.59414825E-08  -3.92047194E+00  -2.58961411E+01  -4.29765721E+00   1.27839922E+00
   9.27500000E+02   5.00000000E-01   5.00000000E-01  -4.94906638E+00  -7.36317200E-03  -4.22940988E+00  -8.61218164E-01  -8.95077135E-01   3.03251076E+00  -1.34823747E+00   2.53270952E-01  -7.64976587E+00   1.61086846E-01   2.08405445E-03  -5.20128671E+00  -6.67972988E-04  -3.42949660E+00   1.56743459E-02  -2.25616432E+01   2.59118259E-01   5.18565992E-08  -3.88853619E+00  -2.57369668E+01  -4.34273771E+00   1.26542713E+00
   9.62500000E+02   5.00000000E-01   5.00000000E-01  -4.88988604E+00  -7.54306813E-03  -4.20263773E+00  -8.71601632E-01  -9.02999553E-01   3.02155651E+00  -1.32959722E+00   2.48147632E-01  -7.54102648E+00   1.48779717E-01   2.08806345E-03  -5.15722308E+00  -3.55829504E-04  -3.40657416E+00   1.98607095E-02  -2.23003717E+01   3.02645039E-01   5.70288166E-08  -3.85644253E+00  -2.55813870E+01  -4.38801625E+00   1.25249888E+00
   9.97500000E+02   5.00000000E-01   5.00000000E-01  -4.83182098E+00  -7.73515482E-03  -4.17639329E+00  -8.82333207E-01  -9.11310856E-01   3.01011826E+00  -1.31142250E+00   2.43028440E-01  -7.43293621E+00   1.36864101E-01   2.09216487E-03  -5.11292541E+00  -7.44192874E-05  -3.38364576E+00   2.36560022E-02  -2.20417911E+01   3.45950732E-01   6.14190122E-08  -3.82416891E+00  -2.54292867E+01  -4.43345918E+00   1.23961722E+00
   1.03250000E+03   5.00000000E-01   5.00000000E-01  -4.77484297E+00  -7.93682269E-03  -4.15066343E+00  -8.93398938E-01  -9.19996099E-01   2.99821054E+00  -1.29369980E+00   2.37915937E-01  -7.32546120E+00   1.25345892E-01   2.09642572E-03  -5.06840823E+00   1.80762585E-04  -3.36071370E+00   2.71367727E-02  -2.17857780E+01   3.89040105E-01   6.50070077E-08  -3.79169318E+00  -2.52805533E+01  -4.47903263E+00   1.22678409E+00
   1.06750000E+03   5.00000000E-01   5.00000000E-01  -4.71892537E+00  -8.14464219E-03  -4.12543542E+00  -9.04786900E-01  -9.29042399E-01   2.98584515E+00  -1.27641682E+00   2.32812637E-01  -7.21856600E+00   1.14231197E-01   2.10094157E-03  -5.02368324E+00   4.13522151E-04  -3.33777951E+00   3.03744163E-02  -2.15322090E+01   4.31917741E-01   6.77896464E-08  -3.75899215E+00  -2.51350775E+01  -4.52470278E+00   1.21400053E+00
   1.10250000E+03   5.00000000E-01   5.00000000E-01  -4.66404390E+00  -8.35437867E-03  -4.10069718E+00  -9.16488563E-01  -9.38440296E-01   2.97302944E+00  -1.25956300E+00   2.27720817E-01  -7.11221184E+00   1.03526384E-01   2.10586076E-03  -4.97875642E+00   6.27240059E-04  -3.31484247E+00   3.34317100E-02  -2.12809596E+01   4.74588000E-01   6.97786049E-08  -3.72604028E+00  -2.49927532E+01  -4.57043585E+00   1.20126634E+00
   1.13750000E+03   5.00000000E-01   5.00000000E-01  -5.93086579E+00  -9.35875741E-01  -4.38036606E+00  -3.26594825E+00  -3.28563322E+00   6.09407393E-03  -2.25988988E+00  -5.97430607E-01  -5.07678065E+00  -3.68695549E-01  -1.63486887E-02  -4.00623079E-01   1.83816183E-02  -1.07788403E+00  -7.75481255E+00  -2.17772479E+01   5.16793373E-01   8.13591365E-07  -2.47606522E+00  -2.47752790E+01  -4.69458576E+00   4.75748564E-01
   1.17250000E+03   5.00000000E-01   5.00000000E-01  -5.49912349E+00  -3.61738339E-01  -4.26466248E+00  -2.61243691E+00  -2.62989124E+00   8.23232536E-01  -1.95691115E+00  -2.17802255E-01  -5.49827847E+00  -2.52360395E-01   2.57995896E-03  -1.63787432E+00  -3.04666234E-03  -1.69061057E+00  -5.51446427E+00  -2.12594853E+01   5.59162081E-01  -2.58082787E-08  -2.77437756E+00  -2.45203146E+01  -4.56183570E+00   6.58155092E-01
   1.20750000E+03   5.00000000E-01   5.00000000E-01  -5.26086760E+00  -1.07118214E-01  -4.19919670E+00  -2.29447136E+00  -2.30973035E+00   1.22839843E+00  -1.79706883E+00  -4.43972907E-02  -5.65332168E+00  -1.88054422E-01   2.44252877E-03  -2.23595338E+00  -5.03933617E-04  -1.98053457E+00  -4.37849400E+00  -2.08772561E+01   6.01937948E-01   3.72895706E-09  -2.89843664E+00  -2.43450108E+01  -4.53684785E+00   7.47655179E-01
   1.24250000E+03   5.00000000E-01   5.00000000E-01  -5.09388952E+00   4.84384476E-03  -4.15010098E+00  -2.10152734E+00  -2.11462545E+00   1.47498410E+00  -1.69202376E+00   3.84503160E-02  -5.71134940E+00  -1.51557448E-01   2.34312503E-03  -2.59093277E+00   1.11023207E-03  -2.15231002E+00  -3.67141751E+00  -2.05506267E+01   6.44891516E-01   1.12654399E-08  -2.96322110E+00  -2.42106772E+01  -4.56166206E+00   7.98721237E-01
   1.27750000E+03   5.00000000E-01   5.00000000E-01  -4.95992676E+00   4.97314761E-02  -4.10867916E+00  -1.96580055E+00  -1.97677148E+00   1.64889167E+00  -1.61221129E+00   7.89672736E-02  -5.72556815E+00  -1.27746170E-01   2.30758222E-03  -2.83486241E+00   2.11549885E-03  -2.27021010E+00  -3.16072727E+00  -2.02509651E+01   6.87808561E-01   1.43774589E-08  -3.00107974E+00  -2.40971755E+01  -4.61002052E+00   8.32222626E-01
   1.31250000E+03   5.00000000E-01   5.00000000E-01  -4.84645035E+00   6.28659492E-02  -4.07223666E+00  -1.86495158E+00  -1.87382825E+00   1.77884159E+00  -1.54779872E+00   9.83838815E-02  -5.71167412E+00  -1.10277353E-01   2.31550547E-03  -3.01068316E+00   3.84915423E-03  -2.35481750E+00  -2.76612561E+00  -1.99648259E+01   7.30683693E-01   1.92827782E-08  -3.02058127E+00  -2.39935066E+01  -4.66830775E+00   8.55298276E-01
   1.34750000E+03   5.00000000E-01   5.00000000E-01  -4.74730165E+00   6.22529214E-02  -4.03924373E+00  -1.78821625E+00  -1.79503085E+00   1.87812897E+00  -1.49415887E+00   1.07252254E-01  -5.67746791E+00  -9.69262502E-02   2.37421052E-03  -3.13984196E+00   5.67274872E-03  -2.41682394E+00  -2.44945385E+00  -1.96856815E+01   7.73558691E-01   2.45008142E-08  -3.02643926E+00  -2.38939672E+01  -4.72932913E+00   8.71046373E-01
   1.38250000E+03   5.00000000E-01   5.00000000E-01  -5.52898161E+00  -5.29343690E-01  -4.20922735E+00  -3.26909222E+00  -3.27387622E+00   1.06799460E-02  -2.11826737E+00  -4.16769453E-01  -4.33708580E+00  -3.79934838E-01  -1.61206626E-03  -2.31901718E-01   2.87020692E-02  -9.95195885E-01  -7.29832645E+00  -1.98606410E+01   8.15180143E-01   1.68981025E-07  -2.20024888E+00  -2.37487755E+01  -4.83625191E+00   4.12018943E-01
   1.41750000E+03   5.00000000E-01   5.00000000E-01  -5.46666449E+00  -3.38862735E-01  -4.18115600E+00  -3.25898172E+00  -3.26176588E+00   1.56072801E-02  -2.09633168E+00  -3.25769668E-01  -4.22775740E+00  -3.81782136E-01   2.31934592E-03  -2.39407643E-01   1.29264638E-02  -1.00584506E+00  -7.16818289E+00  -1.95438478E+01   8.57033736E-01   2.92213251E-08  -2.15648882E+00  -2.35601669E+01  -4.78976946E+00   4.00977627E-01
   1.45250000E+03   5.00000000E-01   5.00000000E-01  -5.40616921E+00  -1.98661824E-01  -4.15688025E+00  -3.24769365E+00  -3.24850808E+00   2.99269933E-02  -2.07232185E+00  -2.56986485E-01  -4.11484892E+00  -3.69672077E-01   2.38334799E-03  -2.44704264E-01   1.51048761E-02  -1.00914142E+00  -7.01527252E+00  -1.92223939E+01   8.99120749E-01   2.07262390E-08  -2.10265464E+00  -2.33992430E+01  -4.77069238E+00   3.95803508E-01
   1.48750000E+03   5.00000000E-01   5.00000000E-01  -5.28782365E+00  -6.07415046E-02  -4.11956510E+00  -3.13273988E+00  -3.13161403E+00   1.75266077E-01  -2.00340240E+00  -1.73419511E-01  -4.09169953E+00  -3.38255902E-01   2.57268047E-03  -4.52426430E-01   1.58875383E-02  -1.11122604E+00  -6.52185995E+00  -1.88781313E+01   9.41492404E-01   1.20912591E-08  -2.10609477E+00  -2.32624475E+01  -4.76876416E+00   4.22497592E-01
   1.52250000E+03   5.00000000E-01   5.00000000E-01  -5.13530348E+00   4.87698702E-02  -4.07481720E+00  -2.95588569E+00  -2.95284837E+00   3.99329280E-01  -1.90764403E+00  -9.43645582E-02  -4.12590173E+00  -2.96257575E-01   2.79319099E-03  -7.80458041E-01   1.64044541E-02  -1.27165552E+00  -5.83180849E+00  -1.85303068E+01   9.84091188E-01   6.97305799E-09  -2.14687529E+00  -2.31518443E+01  -4.79033213E+00   4.68596298E-01
   1.55750000E+03   5.00000000E-01   5.00000000E-01  -5.02807122E+00   8.78123545E-02  -4.04108924E+00  -2.85762351E+00  -2.85270293E+00   5.25191998E-01  -1.84605820E+00  -6.21306329E-02  -4.09610119E+00  -2.68137347E-01   2.78347583E-03  -9.53966594E-01   2.02537058E-02  -1.35582996E+00  -5.40438800E+00  -1.82116450E+01   1.02664754E+00   6.27108932E-09  -2.14621007E+00  -2.30595442E+01  -4.83442140E+00   4.91541255E-01
   1.59250000E+03   5.00000000E-01   5.00000000E-01  -4.94658323E+00   9.78176501E-02  -4.01332799E+00  -2.80393884E+00  -2.79716258E+00   5.94341034E-01  -1.80415612E+00  -5.12837600E-02  -4.02767915E+00  -2.47693582E-01   2.84146749E-03  -1.04103297E+00   2.42437247E-02  -1.39811522E+00  -5.12092240E+00  -1.79026959E+01   1.06893115E+00   5.61233795E-09  -2.12005398E+00  -2.29749232E+01  -4.88558286E+00   5.00768424E-01
   1.62750000E+03   5.00000000E-01   5.00000000E-01  -4.89164119E+00   9.33217829E-02  -3.99193764E+00  -2.79605001E+00  -2.78744510E+00   6.05842571E-01  -1.78233691E+00  -5.45530832E-02  -3.91587520E+00  -2.32463908E-01   2.94974616E-03  -1.03841942E+00   3.04262156E-02  -1.39647602E+00  -4.97798474E+00  -1.75951269E+01   1.11046087E+00   4.98745376E-09  -2.06365060E+00  -2.28925262E+01  -4.93672588E+00   4.96283211E-01
   1.66250000E+03   5.00000000E-01   5.00000000E-01  -4.87708266E+00   7.74044907E-02  -3.98053792E+00  -2.85803100E+00  -2.84762390E+00   5.30502136E-01  -1.79081998E+00  -7.36982897E-02  -3.73616191E+00  -2.23092017E-01   3.11456396E-03  -8.97303920E-01   4.27249713E-02  -1.32617209E+00  -5.04693864E+00  -1.72863489E+01   1.14950211E+00   4.25874313E-09  -1.95908108E+00  -2.28082723E+01  -4.98304856E+00   4.71486235E-01
   1.69750000E+03   5.00000000E-01   5.00000000E-01  -4.90874228E+00   5.79146140E-02  -3.98086338E+00  -2.99983476E+00  -2.98765139E+00   3.56825536E-01  -1.83370703E+00  -1.05978269E-01  -3.47689215E+00  -2.17257168E-01   3.30614076E-03  -5.96717059E-01   6.46996565E-02  -1.17615868E+00  -5.35423013E+00  -1.69711004E+01   1.17900382E+00   3.18968200E-09  -1.79707418E+00  -2.27210990E+01  -5.01964263E+00   4.24010618E-01
   1.73250000E+03   5.00000000E-01   5.00000000E-01  -4.96109307E+00   5.53672364E-02  -3.98850094E+00  -3.17483817E+00  -3.16090391E+00   1.47629877E-01  -1.88988572E+00  -1.32785605E-01  -3.17750359E+00  -1.96976618E-01   3.43196931E-03  -2.22196485E-01   1.06062445E-01  -9.85259283E-01  -5.74546804E+00  -1.66371019E+01   1.17331596E+00   1.90813248E-09  -1.60037690E+00  -2.26422458E+01  -5.04512276E+00   3.70555861E-01
   1.76750000E+03   5.00000000E-01   5.00000000E-01  -4.96050894E+00   9.71227903E-02  -3.98716248E+00  -3.25209449E+00  -3.23643420E+00   6.99737387E-02  -1.90201964E+00  -1.19915704E-01  -2.96205336E+00  -1.35295541E-01   3.35034308E-03  -2.74270718E-02   1.68741852E-01  -8.76071811E-01  -5.81378283E+00  -1.62767175E+01   1.08224792E+00   8.60905262E-10  -1.45200647E+00  -2.26038821E+01  -5.06709991E+00   3.52170474E-01
   1.80250000E+03   5.00000000E-01   5.00000000E-01  -4.93274547E+00   1.38897892E-01  -3.99347232E+00  -3.26650746E+00  -3.24914551E+00   1.08904051E-01  -1.87924156E+00  -8.57642900E-02  -2.76342151E+00   1.20329824E-02   3.20642862E-03   9.84484943E-02   3.24598474E-01  -7.72789296E-01  -5.59977600E+00  -1.58462759E+01   8.99326882E-01   4.41694375E-10  -1.27735971E+00  -2.26293054E+01  -5.11039202E+00   3.76346163E-01
   1.83750000E+03   5.00000000E-01   5.00000000E-01  -4.90259494E+00   1.60792113E-01  -4.00324016E+00  -3.27186847E+00  -3.25282874E+00   1.69657200E-01  -1.85053560E+00  -5.68685778E-02  -2.53391905E+00   1.89085719E-01   3.12742494E-03   2.21731231E-01   5.09145496E-01  -6.63030736E-01  -5.27731247E+00  -1.53351197E+01   6.83110696E-01   2.38784450E-10  -1.06193012E+00  -2.27006421E+01  -5.16844012E+00   4.09908699E-01
   1.87250000E+03   5.00000000E-01   5.00000000E-01  -4.87261371E+00   1.69443007E-01  -3.99887093E+00  -3.29090140E+00  -3.27020729E+00   1.74150947E-01  -1.83605466E+00  -4.87836142E-02  -2.28395898E+00   3.09941760E-01   3.17516762E-03   3.15072673E-01   6.03401407E-01  -5.96931713E-01  -4.98099202E+00  -1.47672306E+01   4.84947529E-01   1.03522481E-10  -8.53886696E-01  -2.27923909E+01  -5.22070669E+00   4.15110219E-01
   1.90750000E+03   5.00000000E-01   5.00000000E-01  -4.89463162E+00   1.62921068E-01  -4.00375139E+00  -3.40389495E+00  -3.38156940E+00   5.21806290E-02  -1.86424333E+00  -6.50029023E-02  -1.88428569E+00   4.31281739E-01   3.30062655E-03   5.80685600E-01   6.90791931E-01  -4.52520502E-01  -4.85367878E+00  -1.40479963E+01   3.27634442E-01   3.44936073E-11  -5.29039474E-01  -2.28973605E+01  -5.26712395E+00   3.86893012E-01
   1.94250000E+03   5.00000000E-01   5.00000000E-01  -4.99510628E+00   1.44472831E-01  -4.02302807E+00  -3.65863312E+00  -3.63469863E+00  -2.59126959E-01  -1.95641411E+00  -1.11986012E-01  -1.26024148E+00   5.61564164E-01   3.48181614E-03   1.10823844E+00   7.73265424E-01  -1.87892064E-01  -4.98496261E+00  -1.30983026E+01   2.15153442E-01   5.70881852E-12  -2.89044066E-02  -2.30274205E+01  -5.30285030E+00   3.09091199E-01
   1.97750000E+03   5.00000000E-01   5.00000000E-01  -4.82019041E+00   1.44109173E-01  -3.90520390E+00  -3.49893347E+00  -3.47341209E+00  -2.48167912E-01  -1.91021826E+00  -1.49301538E-01  -9.09148449E-01   5.56589066E-01   3.45050940E-03   5.32704122E-01   4.04055843E-01  -6.11624147E-01  -3.58806745E+00  -1.15915787E+01   1.41412320E-01   3.39443264E-13   2.00040499E-01  -2.34205819E+01  -5.38429329E+00   2.32556517E-01
   2.01250000E+03   5.00000000E-01   5.00000000E-01  -4.41367770E+00   4.40229703E-02  -3.67861491E+00  -2.98406197E+00  -2.95697533E+00   5.98878624E-02  -1.74111484E+00  -2.29414429E-01  -6.50558385E-01   5.34144327E-01   3.28598219E-03  -9.57661472E-01  -2.79966743E-01  -1.59480744E+00  -5.98612987E-01  -9.27851943E+00   9.54622843E-02   6.17169570E-15   3.51113041E-01  -2.43506105E+01  -5.69494242E+00   1.70166002E-01
   2.04750000E+03   5.00000000E-01   5.00000000E-01  -4.28208588E+00   2.39157770E-03  -3.56856711E+00  -2.90176239E+00  -2.87313173E+00  -3.38444537E-02  -1.73031698E+00  -3.01189460E-01  -3.58516775E-01   4.47924538E-01   2.62725670E-03  -1.39337199E+00  -6.83768052E-01  -1.95533969E+00   2.97285830E-01  -8.09275697E+00   6.65742510E-02   1.54292393E-15   4.94353312E-01  -2.48271319E+01  -5.88741651E+00   6.60125606E-02
   2.08250000E+03   5.00000000E-01   5.00000000E-01  -4.20866489E+00   4.49406192E-04  -3.48592149E+00  -2.90768761E+00  -2.87753373E+00  -2.01248805E-01  -1.75021500E+00  -3.54773989E-01  -2.09298534E-01   2.86096173E-01   2.27908457E-03  -1.60130411E+00  -1.03620384E+00  -2.17655648E+00   4.67179061E-01  -7.52031492E+00   4.92006794E-02  -3.08584785E-15   4.91949925E-01  -2.50154063E+01  -5.97724794E+00  -4.14331099E-02
   2.11750000E+03   5.00000000E-01   5.00000000E-01  -4.13565259E+00   2.02498190E-04  -3.41182611E+00  -2.90517894E+00  -2.87352228E+00  -3.35430352E-01  -1.76190007E+00  -3.99136464E-01  -1.41713336E-01   1.18466543E-01   2.15231923E-03  -1.79258544E+00  -1.34932651E+00  -2.37283887E+00   5.16893270E-01  -7.15916198E+00   3.91598159E-02  -4.62877178E-15   4.25143064E-01  -2.51007115E+01  -6.03772733E+00  -1.32114126E-01
   2.15250000E+03   5.00000000E-01   5.00000000E-01  -4.06348489E+00   1.29129023E-04  -3.34618908E+00  -2.89521343E+00  -2.86207402E+00  -4.38164267E-01  -1.76590130E+00  -4.35348162E-01  -1.06536546E-01  -3.20129175E-02   2.09001089E-03  -1.96636592E+00  -1.61631266E+00  -2.54415813E+00   5.40281422E-01  -6.88818203E+00   3.34083246E-02  -6.17169570E-15   3.42529479E-01  -2.51325215E+01  -6.08459432E+00  -2.06651483E-01
   2.18750000E+03   5.00000000E-01   5.00000000E-01  -3.99339162E+00   9.81153729E-05  -3.28775814E+00  -2.88151602E+00  -2.84691354E+00  -5.18324748E-01  -1.76470212E+00  -4.65342439E-01  -8.59861930E-02  -1.64133267E-01   2.05253266E-03  -2.12150087E+00  -1.84420376E+00  -2.69305612E+00   5.54337499E-01  -6.66678922E+00   3.00707224E-02  -6.17169570E-15   2.58148697E-01  -2.51305188E+01  -6.12299072E+00  -2.68780876E-01
   2.22250000E+03   5.00000000E-01   5.00000000E-01  -3.92557647E+00   8.26714795E-05  -3.23503647E+00  -2.86600366E+00  -2.82995742E+00  -5.82522036E-01  -1.76000433E+00  -4.90731933E-01  -7.29333355E-02  -2.80844149E-01   2.02806337E-03  -2.26035842E+00  -2.04162406E+00  -2.82380731E+00   5.63734436E-01  -6.47661447E+00   2.80727244E-02   1.31148534E-14   1.75924391E-01  -2.51056340E+01  -6.15553638E+00  -3.21700955E-01
   2.25750000E+03   5.00000000E-01   5.00000000E-01  -3.85986222E+00   7.42257221E-05  -3.18676163E+00  -2.84959683E+00  -2.81212579E+00  -6.35232402E-01  -1.75289445E+00  -5.12695358E-01  -6.41042896E-02  -3.85275768E-01   2.01143442E-03  -2.38596830E+00  -2.21571182E+00  -2.94035794E+00   5.70404277E-01  -6.30759572E+00   2.68204399E-02  -7.71461963E-16   9.67747474E-02  -2.50647889E+01  -6.18387145E+00  -3.67760732E-01
   2.29250000E+03   5.00000000E-01   5.00000000E-01  -3.79598914E+00   6.93225733E-05  -3.14196281E+00  -2.83275900E+00  -2.79388178E+00  -6.79510747E-01  -1.74408479E+00  -5.32075952E-01  -5.78351761E-02  -4.80005381E-01   1.99982848E-03  -2.50102082E+00  -2.37188704E+00  -3.04586012E+00   5.75340366E-01  -6.15363238E+00   2.59915863E-02   1.15719294E-14   2.06741139E-02  -2.50126008E+01  -6.20910132E+00  -4.08643379E-01
   2.32750000E+03   5.00000000E-01   5.00000000E-01  -3.73371250E+00   6.63680304E-05  -3.09991371E+00  -2.81573891E+00  -2.77547378E+00  -7.17485724E-01  -1.73405815E+00  -5.49479011E-01  -5.32112304E-02  -5.67021664E-01   1.99158064E-03  -2.60767062E+00  -2.51417130E+00  -3.14271673E+00   5.79109667E-01  -6.01078674E+00   2.54087325E-02  -3.85730981E-15  -5.26781238E-02  -2.49522478E+01  -6.23199805E+00  -4.45558041E-01
   2.36250000E+03   5.00000000E-01   5.00000000E-01  -3.67282710E+00   6.45545386E-05  -3.06007396E+00  -2.79867819E+00  -2.75704310E+00  -7.50670296E-01  -1.72315096E+00  -5.65343298E-01  -4.96965390E-02  -6.47829187E-01   1.98568130E-03  -2.70758157E+00  -2.64553901E+00  -3.23273338E+00   5.82056259E-01  -5.87640327E+00   2.49708455E-02   7.71461963E-16  -1.23629028E-01  -2.48859702E+01  -6.25311391E+00  -4.79381580E-01
   2.39750000E+03   5.00000000E-01   5.00000000E-01  -3.61316794E+00   6.34424094E-05  -3.02204032E+00  -2.78166140E+00  -2.73867400E+00  -7.80157857E-01  -1.71160262E+00  -5.79990323E-01  -4.69602737E-02  -7.23561416E-01   1.98150051E-03  -2.80202271E+00  -2.76819834E+00  -3.31726415E+00   5.84399066E-01  -5.74863139E+00   2.46253525E-02   1.23433914E-14  -1.92496487E-01  -2.48153731E+01  -6.27285149E+00  -5.10756716E-01