 TITLE = "Mineral Saturation State" 
VARIABLES = "X"          "Y"              "Z"            "Forsterite"     "Enstatite(alph" "Anorthite"      "Ferropargasite" "Anhydrite"      "Clinochlore"    "Albite(low)"    "Fayalite"       "Epidote"        "Kaolinite"      "Muscovite(orde"
 ZONE I=          10 , J=           1 , K=           1  F=POINT
   1.75000000E+02   5.00000000E-01   5.00000000E-01  -4.03619331E+00  -3.99946353E-01  -1.25477561E+01  -1.65497398E+01   1.40432906E-03   2.25556563E-02  -2.54076084E-02   8.31369286E-02  -5.61624309E-12  -7.80465564E+00  -8.26928607E+00
   5.25000000E+02   5.00000000E-01   5.00000000E-01  -3.97903131E+00  -5.16443386E-01  -1.12385999E+01  -1.52857131E+01   7.27731239E-03   2.23672747E-02  -2.49873104E-02   8.67603637E-02  -1.57347382E-11  -6.71008031E+00  -7.09661749E+00
   8.75000000E+02   5.00000000E-01   5.00000000E-01  -3.91919983E+00  -6.15533941E-01  -1.00918380E+01  -1.41942845E+01   8.73726278E-03   2.20309637E-02  -2.42383709E-02   9.25522545E-02  -3.41726791E-11  -5.74857457E+00  -6.05316975E+00
   1.22500000E+03   5.00000000E-01   5.00000000E-01  -3.85201869E+00  -6.96162035E-01  -9.08937006E+00  -1.32511385E+01   9.32951625E-03   2.15760493E-02  -2.32281791E-02   1.01504142E-01  -5.98438474E-11  -4.90936780E+00  -5.13491233E+00
   1.57500000E+03   5.00000000E-01   5.00000000E-01  -3.77581009E+00  -7.58859022E-01  -8.21698367E+00  -1.24410557E+01   9.80285402E-03   2.08860432E-02  -2.17021171E-02   1.14502190E-01  -9.20508414E-11  -4.17949128E+00  -4.33255197E+00
   1.92500000E+03   5.00000000E-01   5.00000000E-01  -3.67737133E+00  -7.96376263E-01  -7.47953756E+00  -1.17687868E+01   1.02625495E-02   1.99551142E-02  -1.96553227E-02   1.30123336E-01  -1.23353682E-10  -3.57245688E+00  -3.67001109E+00
   2.27500000E+03   5.00000000E-01   5.00000000E-01  -3.54131042E+00  -8.00161691E-01  -6.88514886E+00  -1.12449865E+01   1.07047497E-02   1.90696223E-02  -1.77215026E-02   1.43712254E-01  -9.93056697E-11  -3.10935536E+00  -3.17907390E+00
   2.62500000E+03   5.00000000E-01   5.00000000E-01  -3.36443370E+00  -7.69977699E-01  -6.42268900E+00  -1.08593142E+01   1.11198826E-02   1.85911088E-02  -1.66821642E-02   1.50232683E-01   1.73830438E-10  -2.78976218E+00  -2.86030114E+00
   2.97500000E+03   5.00000000E-01   5.00000000E-01  -3.15680648E+00  -7.14403812E-01  -6.05927541E+00  -1.05708370E+01   1.14840754E-02   1.86623724E-02  -1.68379406E-02   1.47757792E-01   1.09858266E-09  -2.58882427E+00  -2.67980218E+00
   3.32500000E+03   5.00000000E-01   5.00000000E-01  -2.93351810E+00  -6.45063239E-01  -5.75331912E+00  -1.03187208E+01   1.17750194E-02   1.90662731E-02  -1.77174216E-02   1.39013917E-01   2.82182425E-09  -2.47265375E+00  -2.59116029E+00
