 TITLE = "Mineral Saturation State" 
VARIABLES = "X"          "Y"              "Z"            "Forsterite"     "Fayalite"       "Brucite"        "Lizardite"      "Chrysotile"     "Hematite"       "Magnetite(am)"  "Saponite(Ca)"   "Saponite(K)"    "Saponite(Mg)"   "Saponite(Na)"   "Beidellite(Ca)" "Beidellite(K)"  "Beidellite(Mg)" "Beidellite(Na)" "Enstatite(alph" "Ferrosilite(al" "Anorthite"      "Albite(low)"    "Clinochlore"    "Sudoite"        "Montmor(MgCa)"  "Montmor(MgK)"   "Montmor(MgMg)"  "Montmor(MgNa)"  "Kaolinite"      "Tremolite"      "Pargasite"      "Anhydrite"      "Epidote"        "Scolecite"      "Pyrite"         "FeS(am)"        "Quartz(alpha)" 
 ZONE I=         200 , J=           1 , K=           1  F=POINT
   8.75000000E+00   5.00000000E-01   5.00000000E-01  -6.84903214E+00  -2.77729912E+00  -4.65065661E+00  -9.57528047E-01  -1.07501635E+00   1.15097614E-02  -5.28099865E+00   9.07147208E-01   2.73719620E+00   1.56809160E+00   2.61590282E+00  -6.94367003E+00  -5.79568907E+00  -6.28272292E+00  -5.85578591E+00  -2.41843149E+00  -1.44472062E+00  -1.19642721E+01  -1.68129883E+00   2.14164548E-01  -7.36358284E+00  -4.36100153E+00  -2.97210715E+00  -3.73358393E+00  -3.12121160E+00  -5.57048517E+00  -4.07256313E+00  -3.25807768E+01  -9.80205351E-01  -1.06280111E+01  -6.73494365E+00  -3.30008585E+01  -4.48649647E+00   7.26797199E-01
   2.62500000E+01   5.00000000E-01   5.00000000E-01  -7.57960424E+00  -2.87889142E+00  -5.09501153E+00  -2.05021670E+00  -2.16567036E+00   1.15097613E-02  -5.38534579E+00   3.11416460E-01   2.11253554E+00   9.71767102E-01   2.00049722E+00  -4.23836904E+00  -3.11059887E+00  -3.57802128E+00  -3.16154383E+00  -2.71327690E+00  -1.42054749E+00  -1.01818517E+01  -5.25141578E-01   2.10853796E-01  -4.07262105E+00  -2.41310424E+00  -1.04570144E+00  -1.78609571E+00  -1.18518275E+00  -3.37607015E+00  -6.09578743E+00  -3.16971436E+01  -9.62225537E-01  -9.17995903E+00  -4.84985983E+00  -3.24765396E+01  -4.44782463E+00   8.74774688E-01
   4.37500000E+01   5.00000000E-01   5.00000000E-01  -7.77784158E+00  -2.75734036E+00  -5.24609613E+00  -2.37087949E+00  -2.48432037E+00   1.15097613E-02  -5.35122819E+00   2.25808555E-01   2.00276926E+00   8.85613345E-01   1.89987608E+00  -3.20820872E+00  -2.10042386E+00  -2.54841200E+00  -2.14232658E+00  -2.76902860E+00  -1.31191808E+00  -9.51966241E+00  -3.72130334E-02   2.08021947E-01  -2.96633674E+00  -1.61538529E+00  -2.69235316E-01  -9.88740185E-01  -3.99207840E-01  -2.59475233E+00  -6.49897170E+00  -3.11900664E+01  -9.44012730E-01  -8.61290639E+00  -4.13890199E+00  -3.21559705E+01  -4.40009472E+00   9.68536816E-01
   6.12500000E+01   5.00000000E-01   5.00000000E-01  -7.82799419E+00  -2.60283013E+00  -5.30377766E+00  -2.48815666E+00  -2.59960626E+00   1.15097613E-02  -5.28147773E+00   2.35204203E-01   1.98914778E+00   8.94494574E-01   1.89531097E+00  -2.71705072E+00  -1.62905170E+00  -2.05777320E+00  -1.66200003E+00  -2.77006887E+00  -1.20618110E+00  -9.19486033E+00   2.04869599E-01   2.04409444E-01  -2.49473439E+00  -1.21795538E+00   1.07154300E-01  -5.91644467E-01  -1.34019675E-02  -2.24391658E+00  -6.55712963E+00  -3.08380761E+01  -9.25562374E-01  -8.32830082E+00  -3.80374286E+00  -3.19047925E+01  -4.35462117E+00   1.02357003E+00
   7.87500000E+01   5.00000000E-01   5.00000000E-01  -7.83736999E+00  -2.46750178E+00  -5.32838103E+00  -2.55634639E+00  -2.66582587E+00   1.15097613E-02  -5.20883351E+00   2.41944687E-01   1.97312340E+00   9.00742218E-01   1.88825918E+00  -2.41839699E+00  -1.34999190E+00  -1.75961673E+00  -1.37406866E+00  -2.76338022E+00  -1.12273499E+00  -8.97785690E+00   3.42581425E-01   2.01567571E-01  -2.21210846E+00  -9.79768621E-01   3.24505525E-01  -3.53772479E-01   2.13278130E-01  -2.03370657E+00  -6.58569651E+00  -3.05583357E+01  -9.06880820E-01  -8.14348420E+00  -3.60145300E+00  -3.16877812E+01  -4.31893741E+00   1.05321815E+00
   9.62500000E+01   5.00000000E-01   5.00000000E-01  -7.82537134E+00  -2.34806578E+00  -5.33473012E+00  -2.59943671E+00  -2.70696686E+00   1.15097613E-02  -5.13677108E+00   2.44026239E-01   1.95265143E+00   9.02347803E-01   1.87667114E+00  -2.22568669E+00  -1.17668002E+00  -1.56738646E+00  -1.19197303E+00  -2.75354066E+00  -1.05481122E+00  -8.81887463E+00   4.21302016E-01   2.00174796E-01  -2.02921833E+00  -8.30808624E-01   4.52838195E-01  -2.05112486E-01   3.50847316E-01  -1.89954790E+00  -6.60643297E+00  -3.03195366E+01  -8.87980145E-01  -8.01323520E+00  -3.47201062E+00  -3.14918519E+01  -4.29042298E+00   1.06772843E+00
   1.13750000E+02   5.00000000E-01   5.00000000E-01  -7.79766448E+00  -2.23834090E+00  -5.32906854E+00  -2.62252361E+00  -2.72812493E+00   1.15097613E-02  -5.06560798E+00   2.48424734E-01   1.93475866E+00   9.06283672E-01   1.86756742E+00  -2.10256321E+00  -1.07275398E+00  -1.44472932E+00  -1.07935751E+00  -2.73997240E+00  -9.95907683E-01  -8.69985435E+00   4.63703863E-01   2.00095194E-01  -1.91682153E+00  -7.38139708E-01   5.25093244E-01  -1.12732299E-01   4.32240141E-01  -1.81715798E+00  -6.60844714E+00  -3.01053255E+01  -8.68874263E-01  -7.91890184E+00  -3.39053680E+00  -3.13103964E+01  -4.26686335E+00   1.07392357E+00
   1.31250000E+02   5.00000000E-01   5.00000000E-01  -7.75882650E+00  -2.13584324E+00  -5.31573631E+00  -2.63042826E+00  -2.73412089E+00   1.15097613E-02  -4.99615138E+00   2.57894246E-01   1.92222064E+00   9.15301033E-01   1.86371916E+00  -2.02441303E+00  -1.01359669E+00  -1.36703469E+00  -1.01160962E+00  -2.72291211E+00  -9.42729960E-01  -8.60808358E+00   4.84349839E-01   2.00746824E-01  -1.85364284E+00  -6.80230737E-01   5.62805194E-01  -5.51036012E-02   4.78986584E-01  -1.76950061E+00  -6.58927387E+00  -2.99060093E+01  -8.49577243E-01  -7.84799708E+00  -3.34021731E+00  -3.11395291E+01  -4.24738888E+00   1.07590817E+00
   1.48750000E+02   5.00000000E-01   5.00000000E-01  -7.71251494E+00  -2.03970195E+00  -5.29771202E+00  -2.62749410E+00  -2.72929787E+00   1.15097613E-02  -4.92911340E+00   2.72675052E-01   1.91527886E+00   9.29638063E-01   1.86536540E+00  -1.97456644E+00  -9.82537147E-01  -1.31763497E+00  -9.72060889E-01  -2.70303840E+00  -8.93691881E-01  -8.53444506E+00   4.92397843E-01   2.01599762E-01  -1.82378500E+00  -6.43187184E-01   5.79869694E-01  -1.83339260E-02   5.04979829E-01  -1.74449185E+00  -6.55135351E+00  -2.97158957E+01  -8.30102660E-01  -7.79207541E+00  -3.30963657E+00  -3.09768068E+01  -4.23160719E+00   1.07598346E+00
   1.66250000E+02   5.00000000E-01   5.00000000E-01  -7.66159672E+00  -1.94971797E+00  -5.27701414E+00  -2.61744336E+00  -2.71737780E+00   1.15097613E-02  -4.86497722E+00   2.91715711E-01   1.91287109E+00   9.48241832E-01   1.87144314E+00  -1.94170446E+00  -9.68256930E-01  -1.28521269E+00  -9.49393751E-01  -2.68119939E+00  -8.48108032E-01  -8.47230271E+00   4.93505157E-01   2.02357730E-01  -1.81517603E+00  -6.18122250E-01   5.85172810E-01   6.46207514E-03   5.19105136E-01  -1.73348556E+00  -6.49944984E+00  -2.95316065E+01  -8.10463335E-01  -7.74534555E+00  -3.29098984E+00  -3.08206117E+01  -4.21928115E+00   1.07532095E+00
   1.83750000E+02   5.00000000E-01   5.00000000E-01  -7.60827862E+00  -1.86593198E+00  -5.25499973E+00  -2.60333927E+00  -2.70142360E+00   1.15097613E-02  -4.80401464E+00   3.13446473E-01   1.91341121E+00   9.69541510E-01   1.88036653E+00  -1.91812545E+00  -9.63056256E-01  -1.26206730E+00  -9.35908143E-01  -2.65824448E+00  -8.05744207E-01  -8.41680138E+00   4.91112795E-01   2.02929213E-01  -1.81863814E+00  -5.99387929E-01   5.84360516E-01   2.49313684E-02   5.27008820E-01  -1.73027552E+00  -6.43900253E+00  -2.93511191E+01  -7.90671279E-01  -7.70380070E+00  -3.27891595E+00  -3.06698273E+01  -4.21021765E+00   1.07442945E+00
   2.01250000E+02   5.00000000E-01   5.00000000E-01  -7.55367119E+00  -1.78788219E+00  -5.23233765E+00  -2.58674081E+00  -2.68299394E+00   1.15097612E-02  -4.74610609E+00   3.37026674E-01   1.91604790E+00   9.92695649E-01   1.89128508E+00  -1.89997315E+00  -9.63081323E-01  -1.24434335E+00  -9.27749472E-01  -2.63461511E+00  -7.66255149E-01  -8.36546950E+00   4.86908980E-01   2.03313857E-01  -1.82947681E+00  -5.84189676E-01   5.80224731E-01   3.98677557E-02   5.31483650E-01  -1.73172572E+00  -6.37287927E+00  -2.91733876E+01  -7.70737756E-01  -7.66541139E+00  -3.27071766E+00  -3.05236599E+01  -4.20407942E+00   1.07353745E+00
   2.18750000E+02   5.00000000E-01   5.00000000E-01  -7.49824250E+00  -1.71485855E+00  -5.20931742E+00  -2.56830115E+00  -2.66274169E+00   1.15097612E-02  -4.69094986E+00   3.62133647E-01   1.92045216E+00   1.01738094E+00   1.90387082E+00  -1.88553783E+00  -9.66625149E-01  -1.23033176E+00  -9.23209709E-01  -2.61048956E+00  -7.29229533E-01  -8.31721566E+00   4.81659424E-01   2.03533458E-01  -1.84563982E+00  -5.71271013E-01   5.74019008E-01   5.25271059E-02   5.33784279E-01  -1.73645880E+00  -6.30222289E+00  -2.89978894E+01  -7.50673331E-01  -7.62926579E+00  -3.26519398E+00  -3.03815213E+01  -4.20047938E+00   1.07275728E+00
   2.36250000E+02   5.00000000E-01   5.00000000E-01  -7.44257030E+00  -1.64652321E+00  -5.18623044E+00  -2.54889092E+00  -2.64153723E+00   1.15097612E-02  -4.63837735E+00   3.88109419E-01   1.92595658E+00   1.04293877E+00   1.91745769E+00  -1.87309577E+00  -9.71967094E-01  -1.21830945E+00  -9.20566885E-01  -2.58615397E+00  -6.94495211E-01  -8.27081840E+00   4.75982559E-01   2.03626818E-01  -1.86470860E+00  -5.59515137E-01   5.66856911E-01   6.40256218E-02   5.35025660E-01  -1.74296558E+00  -6.22903736E+00  -2.88242343E+01  -7.30487900E-01  -7.59442989E+00  -3.26111997E+00  -3.02429606E+01  -4.19916689E+00   1.07209516E+00
   2.53750000E+02   5.00000000E-01   5.00000000E-01  -7.38678233E+00  -1.58228852E+00  -5.16314194E+00  -2.52870682E+00  -2.61957695E+00   1.15097612E-02  -4.58809395E+00   4.14812833E-01   1.93241504E+00   1.06922741E+00   1.93190093E+00  -1.86221340E+00  -9.78676722E-01  -1.20784345E+00  -9.19389166E-01  -2.56167064E+00  -6.61756268E-01  -8.22596348E+00   4.70038611E-01   2.03628555E-01  -1.88607567E+00  -5.48635636E-01   5.59021558E-01   7.46491841E-02   5.35492360E-01  -1.75086982E+00  -6.15376253E+00  -2.86522693E+01  -7.10190809E-01  -7.56065338E+00  -3.25818018E+00  -3.01076260E+01  -4.19984005E+00   1.07155503E+00
   2.71250000E+02   5.00000000E-01   5.00000000E-01  -7.33095520E+00  -1.52165742E+00  -5.14008777E+00  -2.50787257E+00  -2.59698430E+00   1.15097612E-02  -4.53984656E+00   4.42144833E-01   1.93972390E+00   1.09614726E+00   1.94709838E+00  -1.85263959E+00  -9.86506110E-01  -1.19868319E+00  -9.19427153E-01  -2.53708017E+00  -6.30765967E-01  -8.18245879E+00   4.63911321E-01   2.03561440E-01  -1.90936992E+00  -5.38474884E-01   5.50667216E-01   8.45548940E-02   5.35340178E-01  -1.75994685E+00  -6.07669378E+00  -2.84819007E+01  -6.89790896E-01  -7.52778630E+00  -3.25618896E+00  -2.99752357E+01  -4.20224769E+00   1.07113308E+00
   2.88750000E+02   5.00000000E-01   5.00000000E-01  -7.27519874E+00  -1.46427218E+00  -5.11711534E+00  -2.48656669E+00  -2.57393754E+00   1.15097612E-02  -4.49344672E+00   4.69946664E-01   1.94771933E+00   1.12353901E+00   1.96288776E+00  -1.84406739E+00  -9.95151550E-01  -1.19052229E+00  -9.20375579E-01  -2.51244481E+00  -6.01352302E-01  -8.14006297E+00   4.57688839E-01   2.03441464E-01  -1.93411138E+00  -5.28854346E-01   5.41969016E-01   9.39207674E-02   5.34745855E-01  -1.76991122E+00  -5.99828811E+00  -2.83130493E+01  -6.69296544E-01  -7.49565108E+00  -3.25492157E+00  -2.98455615E+01  -4.20619956E+00   1.07081538E+00
   3.06250000E+02   5.00000000E-01   5.00000000E-01  -7.21965181E+00  -1.40988602E+00  -5.09428232E+00  -2.46501543E+00  -2.55066264E+00   1.15097612E-02  -4.44875718E+00   4.98008235E-01   1.95618576E+00   1.15119201E+00   1.97905509E+00  -1.83613845E+00  -1.00425798E+00  -1.18300295E+00  -9.21877768E-01  -2.48784563E+00  -5.73403034E-01  -8.09848992E+00   4.51464614E-01   2.03280234E-01  -1.95972175E+00  -5.19575039E-01   5.33122506E-01   1.02945277E-01   5.33906609E-01  -1.78042243E+00  -5.91914258E+00  -2.81456453E+01  -6.48715727E-01  -7.46404418E+00  -3.25411705E+00  -2.97184164E+01  -4.21155358E+00   1.07057940E+00
   3.23750000E+02   5.00000000E-01   5.00000000E-01  -7.16446220E+00  -1.35832558E+00  -5.07164817E+00  -2.44346100E+00  -2.52740157E+00   1.15097612E-02  -4.40567480E+00   5.26098072E-01   1.96488609E+00   1.17887428E+00   1.99536492E+00  -1.82848863E+00  -1.01346454E+00  -1.17576156E+00  -9.23571188E-01  -2.46337082E+00  -5.46845329E-01  -8.05744419E+00   4.45326141E-01   2.03086569E-01  -1.98559825E+00  -5.10442063E-01   5.24319156E-01   1.11822838E-01   5.33015620E-01  -1.79112875E+00  -5.83990967E+00  -2.79796301E+01  -6.28056037E-01  -7.43275992E+00  -3.25351046E+00  -2.95936467E+01  -4.21820151E+00   1.07039726E+00
   3.41250000E+02   5.00000000E-01   5.00000000E-01  -7.10976415E+00  -1.30945551E+00  -5.04926491E+00  -2.42212594E+00  -2.50437661E+00   1.15097611E-02  -4.36411476E+00   5.53997411E-01   1.97359607E+00   1.20636658E+00   2.01159467E+00  -1.82079855E+00  -1.02245510E+00  -1.16847923E+00  -9.25138045E-01  -2.43910252E+00  -5.21626074E-01  -8.01666077E+00   4.39342926E-01   2.02867791E-01  -2.01119703E+00  -5.01291373E-01   5.15719604E-01   1.20717036E-01   5.32235255E-01  -1.80171622E+00  -5.76120099E+00  -2.78149577E+01  -6.07324712E-01  -7.40161708E+00  -3.25286868E+00  -2.94711245E+01  -4.22605597E+00   1.07023963E+00
   3.58750000E+02   5.00000000E-01   5.00000000E-01  -7.05564492E+00  -1.26313546E+00  -5.02716307E+00  -2.40116020E+00  -2.48173745E+00   1.15097611E-02  -4.32399180E+00   5.81550013E-01   1.98215457E+00   1.23351220E+00   2.02758485E+00  -1.81287116E+00  -1.03103585E+00  -1.16095938E+00  -9.26382840E-01  -2.41509739E+00  -4.97687659E-01  -7.97596557E+00   4.33547143E-01   2.02630723E-01  -2.03615957E+00  -4.92031702E-01   5.07411753E-01   1.29718720E-01   5.31655147E-01  -1.81198310E+00  -5.68344578E+00  -2.76515992E+01  -5.86528644E-01  -7.37050003E+00  -3.25204550E+00  -2.93507416E+01  -4.23503553E+00   1.07008119E+00
   3.76250000E+02   5.00000000E-01   5.00000000E-01  -7.00214925E+00  -1.21921677E+00  -5.00535486E+00  -2.38064691E+00  -2.45956700E+00   1.15097611E-02  -4.28521943E+00   6.08660548E-01   1.99046193E+00   1.26021540E+00   2.04323746E+00  -1.80461374E+00  -1.03911721E+00  -1.15310972E+00  -9.27214336E-01  -2.39138789E+00  -4.74965407E-01  -7.93526476E+00   4.27942594E-01   2.02381606E-01  -2.06029311E+00  -4.82630449E-01   4.99424900E-01   1.38860103E-01   5.31306305E-01  -1.82182605E+00  -5.60689842E+00  -2.74895369E+01  -5.65674391E-01  -7.33934931E+00  -3.25096911E+00  -2.92324056E+01  -4.24506256E+00   1.06990243E+00
   3.93750000E+02   5.00000000E-01   5.00000000E-01  -6.94927440E+00  -1.17753161E+00  -4.98383256E+00  -2.36059411E+00  -2.43787305E+00   1.15097611E-02  -4.24770544E+00   6.35303913E-01   1.99848940E+00   1.28645071E+00   2.05852539E+00  -1.79604633E+00  -1.04672232E+00  -1.14495065E+00  -9.27654028E-01  -2.36797894E+00  -4.53381281E-01  -7.89455261E+00   4.22504299E-01   2.02126442E-01  -2.08358807E+00  -4.73116605E-01   4.91726823E-01   1.48111845E-01   5.31158195E-01  -1.83124958E+00  -5.53161320E+00  -2.73287628E+01  -5.44768185E-01  -7.30816621E+00  -3.24964820E+00  -2.91160358E+01  -4.25605877E+00   1.06969142E+00
   4.11250000E+02   5.00000000E-01   5.00000000E-01  -6.89698109E+00  -1.13789924E+00  -4.96257386E+00  -2.34095131E+00  -2.41660488E+00   1.15097611E-02  -4.21135488E+00   6.61511975E-01   2.00626576E+00   1.31224965E+00   2.07347899E+00  -1.78727152E+00  -1.05395680E+00  -1.13658515E+00  -9.27805930E-01  -2.34485355E+00  -4.32847115E-01  -7.85388995E+00   4.17188772E-01   2.01870767E-01  -2.10617484E+00  -4.63561743E-01   4.84242796E-01   1.57402062E-01   5.31137745E-01  -1.84033918E+00  -5.45748374E+00  -2.71692740E+01  -5.23815940E-01  -7.27699678E+00  -3.24815069E+00  -2.90015608E+01  -4.26794622E+00   1.06944358E+00
   4.28750000E+02   5.00000000E-01   5.00000000E-01  -6.84520813E+00  -1.10013675E+00  -4.94154853E+00  -2.32163202E+00  -2.39567577E+00   1.15097610E-02  -4.17607472E+00   6.87353974E-01   2.01385756E+00   1.33768115E+00   2.08816636E+00  -1.77843724E+00  -1.06097151E+00  -1.12816142E+00  -9.27819324E-01  -2.32198076E+00  -4.13270666E-01  -7.81337653E+00   4.11945189E-01   2.01619514E-01  -2.12826705E+00  -4.54058046E-01   4.76877566E-01   1.66638289E-01   5.31151314E-01  -1.84922701E+00  -5.38430008E+00  -2.70110683E+01  -5.02823253E-01  -7.24591215E+00  -3.24657735E+00  -2.88889166E+01  -4.28064996E+00   1.06916031E+00
   4.46250000E+02   5.00000000E-01   5.00000000E-01  -6.79387611E+00  -1.06405988E+00  -4.92071983E+00  -2.30251973E+00  -2.37496899E+00   1.15097610E-02  -4.14177393E+00   7.12930661E-01   2.02136322E+00   1.36284569E+00   2.10268743E+00  -1.76972832E+00  -1.06795412E+00  -1.11986461E+00  -9.27880376E-01  -2.29931786E+00  -3.94556429E-01  -7.77314412E+00   4.06717195E-01   2.01377288E-01  -2.15014706E+00  -4.44714062E-01   4.69519599E-01   1.75711733E-01   5.31088940E-01  -1.85808358E+00  -5.31176524E+00  -2.68541434E+01  -4.81795418E-01  -7.21500387E+00  -3.24505580E+00  -2.87780453E+01  -4.29409745E+00   1.06884818E+00
   4.63750000E+02   5.00000000E-01   5.00000000E-01  -6.74289489E+00  -1.02948824E+00  -4.90004766E+00  -2.28347979E+00  -2.35434966E+00   1.15097610E-02  -4.10836543E+00   7.38363157E-01   2.02890176E+00   1.38786416E+00   2.11716270E+00  -1.76134872E+00  -1.07511137E+00  -1.11189890E+00  -9.28194335E-01  -2.27681485E+00  -3.76608837E-01  -7.73334266E+00   4.01447428E-01   2.01148320E-01  -2.17213705E+00  -4.35644993E-01   4.62050798E-01   1.84506980E-01   5.30834049E-01  -1.86710077E+00  -5.23952704E+00  -2.66984956E+01  -4.60737429E-01  -7.18437446E+00  -3.24372780E+00  -2.86688937E+01  -4.30821959E+00   1.06851779E+00
   4.81250000E+02   5.00000000E-01   5.00000000E-01  -6.69217085E+00  -9.96250542E-01  -4.87949157E+00  -2.26437084E+00  -2.33367621E+00   1.15097609E-02  -4.07576808E+00   7.63782088E-01   2.03660191E+00   1.41286698E+00   2.13172232E+00  -1.75350500E+00  -1.08265251E+00  -1.10447107E+00  -9.28969011E-01  -2.25441857E+00  -3.59335532E-01  -7.69412723E+00   3.96081484E-01   2.00936467E-01  -2.19457167E+00  -4.26963913E-01   4.54355279E-01   1.92910776E-01   5.30272233E-01  -1.87647578E+00  -5.16720891E+00  -2.65441189E+01  -4.39653991E-01  -7.15412860E+00  -3.24273752E+00  -2.85614130E+01  -4.32295197E+00   1.06818240E+00
   4.98750000E+02   5.00000000E-01   5.00000000E-01  -6.64103946E+00  -9.63626528E-01  -4.85875306E+00  -2.24416771E+00  -2.31192327E+00   1.15097609E-02  -4.04365371E+00   7.90092998E-01   2.04537385E+00   1.43875970E+00   2.14727782E+00  -1.74783571E+00  -1.09221863E+00  -1.09921966E+00  -9.31844138E-01  -2.23176303E+00  -3.42342257E-01  -7.65671927E+00   3.90141579E-01   2.00767643E-01  -2.21997034E+00  -4.19622389E-01   4.45478792E-01   1.99971592E-01   5.28450657E-01  -1.88772893E+00  -5.09219199E+00  -2.63911534E+01  -4.18549608E-01  -7.12512569E+00  -3.24324063E+00  -2.84555275E+01  -4.33804430E+00   1.06791012E+00
   5.16250000E+02   5.00000000E-01   5.00000000E-01  -6.58989608E+00  -9.31950391E-01  -4.83802466E+00  -2.22347386E+00  -2.28969409E+00   1.15097609E-02  -4.01218248E+00   8.16807875E-01   2.05472274E+00   1.46505401E+00   2.16333572E+00  -1.74326831E+00  -1.10273975E+00  -1.09507245E+00  -9.35748355E-01  -2.20905110E+00  -3.25800931E-01  -7.62035316E+00   3.83987687E-01   2.00611269E-01  -2.24680433E+00  -4.12949128E-01   4.36089950E-01   2.06360429E-01   5.26039350E-01  -1.89990446E+00  -5.01591320E+00  -2.62394453E+01  -3.97428349E-01  -7.09680493E+00  -3.24448365E+00  -2.83512207E+01  -4.35361140E+00   1.06769114E+00
   5.33750000E+02   5.00000000E-01   5.00000000E-01  -6.53876599E+00  -9.01199683E-01  -4.81732108E+00  -2.20233043E+00  -2.26702959E+00   1.15097608E-02  -3.98134346E+00   8.43903288E-01   2.06462213E+00   1.49172632E+00   2.17987088E+00  -1.73969218E+00  -1.11410772E+00  -1.09191897E+00  -9.40572200E-01  -2.18629341E+00  -3.09697942E-01  -7.58495070E+00   3.77665035E-01   2.00476236E-01  -2.27493192E+00  -4.06865784E-01   4.26264528E-01   2.12155522E-01   5.23115438E-01  -1.91291078E+00  -4.93845134E+00  -2.60889403E+01  -3.76294076E-01  -7.06910171E+00  -3.24638603E+00  -2.82484605E+01  -4.36964175E+00   1.06753010E+00
   5.51250000E+02   5.00000000E-01   5.00000000E-01  -6.48754900E+00  -8.71236580E-01  -4.79659832E+00  -2.18058615E+00  -2.24377832E+00   1.15097608E-02  -3.95107208E+00   8.71517239E-01   2.07520849E+00   1.51891460E+00   2.19702102E+00  -1.73733050E+00  -1.12654806E+00  -1.08998245E+00  -9.46539943E-01  -2.16343383E+00  -2.93957988E-01  -7.55067823E+00   3.71112689E-01   2.00370662E-01  -2.30470731E+00  -4.01496682E-01   4.15875721E-01   2.17232517E-01   5.19553408E-01  -1.92695910E+00  -4.85941064E+00  -2.59396339E+01  -3.55150417E-01  -7.04212960E+00  -3.24910373E+00  -2.81472102E+01  -4.38608338E+00   1.06743965E+00
   5.68750000E+02   5.00000000E-01   5.00000000E-01  -6.43615947E+00  -8.41945549E-01  -4.77581961E+00  -2.15811165E+00  -2.21981071E+00   1.15097607E-02  -3.92131490E+00   8.99769898E-01   2.08660042E+00   1.54673900E+00   2.21490593E+00  -1.73637065E+00  -1.14025044E+00  -1.08945028E+00  -9.53840043E-01  -2.14042359E+00  -2.78516973E-01  -7.51767776E+00   3.64281753E-01   2.00298264E-01  -2.33643549E+00  -3.96943734E-01   4.04819216E-01   2.21489509E-01   5.15250205E-01  -1.94222887E+00  -4.77844712E+00  -2.57915216E+01  -3.34000758E-01  -7.01598539E+00  -3.25276851E+00  -2.80474363E+01  -4.40289253E+00   1.06743229E+00
   5.86250000E+02   5.00000000E-01   5.00000000E-01  -6.38454384E+00  -8.13249756E-01  -4.75496295E+00  -2.13482678E+00  -2.19504641E+00   1.15097607E-02  -3.89203659E+00   9.28738963E-01   2.09887377E+00   1.57527722E+00   2.23360264E+00  -1.73691938E+00  -1.15532384E+00  -1.09042923E+00  -9.62580296E-01  -2.11723116E+00  -2.63331408E-01  -7.48603235E+00   3.57147871E-01   2.00260552E-01  -2.37030051E+00  -3.93260929E-01   3.93038695E-01   2.24872543E-01   5.10150725E-01  -1.95882565E+00  -4.69534035E+00  -2.56445919E+01  -3.12848255E-01  -6.99072423E+00  -3.25745561E+00  -2.79491097E+01  -4.42003923E+00   1.06751804E+00
   6.03750000E+02   5.00000000E-01   5.00000000E-01  -6.33267810E+00  -7.85107845E-01  -4.73401946E+00  -2.11069745E+00  -2.16945115E+00   1.15097607E-02  -3.86321789E+00   9.58460764E-01   2.11206275E+00   1.60456565E+00   2.25314650E+00  -1.73901151E+00  -1.17180520E+00  -1.09295406E+00  -9.72796509E-01  -2.09384157E+00  -2.48377280E-01  -7.45577096E+00   3.49706891E-01   2.00257729E-01  -2.40637438E+00  -3.90461147E-01   3.80519018E-01   2.27368799E-01   5.04241010E-01  -1.97678770E+00  -4.60998924E+00  -2.54988279E+01  -2.91695844E-01  -6.96636386E+00  -3.26318967E+00  -2.78522053E+01  -4.43750602E+00   1.06770344E+00
   6.21250000E+02   5.00000000E-01   5.00000000E-01  -6.28056185E+00  -7.57507202E-01  -4.71299014E+00  -2.08572670E+00  -2.14302779E+00   1.15097606E-02  -3.83485205E+00   9.88936810E-01   2.12616654E+00   1.63460586E+00   2.27353778E+00  -1.74262710E+00  -1.18967669E+00  -1.09700477E+00  -9.84469737E-01  -2.07025348E+00  -2.33646808E-01  -7.42688027E+00   3.41968445E-01   2.00289256E-01  -2.44464028E+00  -3.88527538E-01   3.67274843E-01   2.28995222E-01   4.97536864E-01  -1.99610086E+00  -4.52239210E+00  -2.53542104E+01  -2.70546254E-01  -6.94289347E+00  -3.26995671E+00  -2.77567018E+01  -4.45528541E+00   1.06799131E+00
   6.38750000E+02   5.00000000E-01   5.00000000E-01  -6.22821020E+00  -7.30455206E-01  -4.69188208E+00  -2.05994254E+00  -2.11580415E+00   1.15097606E-02  -3.80694063E+00   1.02014370E+00   2.14115927E+00   1.66537456E+00   2.29475169E+00  -1.74771303E+00  -1.20888719E+00  -1.10252814E+00  -9.97547787E-01  -2.04647505E+00  -2.19143952E-01  -7.39931996E+00   3.33948780E-01   2.00354366E-01  -2.48502347E+00  -3.87426912E-01   3.53337231E-01   2.29785130E-01   4.90070464E-01  -2.01671777E+00  -4.43261749E+00  -2.52107201E+01  -2.49402023E-01  -6.92028494E+00  -3.27771923E+00  -2.76625813E+01  -4.47337675E+00   1.06838100E+00
   6.56250000E+02   5.00000000E-01   5.00000000E-01  -6.17564469E+00  -7.03969424E-01  -4.67070411E+00  -2.03338396E+00  -2.08781904E+00   1.15097606E-02  -3.77948888E+00   1.05204498E+00   2.15700196E+00   1.69683544E+00   2.31675031E+00  -1.75420647E+00  -1.22937584E+00  -1.10946119E+00  -1.01196875E+00  -2.02251906E+00  -2.04879202E-01  -7.37303993E+00   3.25663384E-01   2.00452546E-01  -2.52742617E+00  -3.87123916E-01   3.38739468E-01   2.29774039E-01   4.81876179E-01  -2.03857930E+00  -4.34076954E+00  -2.50683408E+01  -2.28265511E-01  -6.89850514E+00  -3.28643278E+00  -2.75698276E+01  -4.49178261E+00   1.06886895E+00
   6.73750000E+02   5.00000000E-01   5.00000000E-01  -6.12288543E+00  -6.78069110E-01  -4.64946331E+00  -2.00608883E+00  -2.05911017E+00   1.15097605E-02  -3.75250183E+00   1.08460167E+00   2.17365317E+00   1.72894971E+00   2.33949319E+00  -1.76205458E+00  -1.25109171E+00  -1.11775091E+00  -1.02768067E+00  -1.99839871E+00  -1.90864973E-01  -7.34799486E+00   3.17121106E-01   2.00583841E-01  -2.57175751E+00  -3.87592623E-01   3.23505470E-01   2.28988074E-01   4.72978981E-01  -2.06163267E+00  -4.24695746E+00  -2.49270613E+01  -2.07138910E-01  -6.87752625E+00  -3.29605983E+00  -2.74784261E+01  -4.51050565E+00   1.06944949E+00
   6.91250000E+02   5.00000000E-01   5.00000000E-01  -6.06994320E+00  -6.52766536E-01  -4.62816141E+00  -1.97808163E+00  -2.02970183E+00   1.15097605E-02  -3.72598038E+00   1.11778316E+00   2.19107992E+00   1.76168695E+00   2.36294835E+00  -1.77123438E+00  -1.27401365E+00  -1.12737410E+00  -1.04466141E+00  -1.97412316E+00  -1.77110871E-01  -7.32415904E+00   3.08318359E-01   2.00749160E-01  -2.61796390E+00  -3.88828095E-01   3.07638223E-01   2.27432414E-01   4.63382887E-01  -2.08584982E+00  -4.15126407E+00  -2.47868770E+01  -1.86024264E-01  -6.85733626E+00  -3.30658382E+00  -2.73883617E+01  -4.52954536E+00   1.07011555E+00
   7.08750000E+02   5.00000000E-01   5.00000000E-01  -6.01681680E+00  -6.28063640E-01  -4.60679374E+00  -1.94936921E+00  -1.99960073E+00   1.15097604E-02  -3.69991988E+00   1.15157115E+00   2.20926175E+00   1.79502916E+00   2.38709631E+00  -1.78175874E+00  -1.29815635E+00  -1.13834339E+00  -1.06292470E+00  -1.94969602E+00  -1.63621763E-01  -7.30153115E+00   2.99237711E-01   2.00950169E-01  -2.66603922E+00  -3.90849540E-01   2.91116620E-01   2.25088123E-01   4.53067795E-01  -2.11123335E+00  -4.05373441E+00  -2.46477908E+01  -1.64923476E-01  -6.83794214E+00  -3.31801339E+00  -2.72996191E+01  -4.54889673E+00   1.07085924E+00
   7.26250000E+02   5.00000000E-01   5.00000000E-01  -5.96349209E+00  -6.03950232E-01  -4.58534890E+00  -1.91993923E+00  -1.96879434E+00   1.15097604E-02  -3.67430935E+00   1.18596151E+00   2.22819249E+00   1.82897246E+00   2.41193184E+00  -1.79367834E+00  -1.32357222E+00  -1.15070916E+00  -1.08252199E+00  -1.92511468E+00  -1.50396723E-01  -7.28013603E+00   2.89847686E-01   2.01189189E-01  -2.71602856E+00  -3.93701098E-01   2.73894675E-01   2.21911364E-01   4.41988699E-01  -2.13781848E+00  -3.95437081E+00  -2.45098127E+01  -1.43838331E-01  -6.81937092E+00  -3.33038385E+00  -2.72121811E+01  -4.56854945E+00   1.07167210E+00
   7.43750000E+02   5.00000000E-01   5.00000000E-01  -5.90994219E+00  -5.80403370E-01  -4.56380895E+00  -1.88976032E+00  -1.93725114E+00   1.15097604E-02  -3.64913131E+00   1.22096431E+00   2.24788040E+00   1.86352725E+00   2.43746411E+00  -1.80708069E+00  -1.35035047E+00  -1.16455861E+00  -1.10354156E+00  -1.90037036E+00  -1.37428620E-01  -7.26002413E+00   2.80103363E-01   2.01469051E-01  -2.76802756E+00  -3.97450969E-01   2.55902392E-01   2.17834270E-01   4.30076566E-01  -2.16567251E+00  -3.85313270E+00  -2.43729594E+01  -1.22770502E-01  -6.80166917E+00  -3.34375645E+00  -2.71260291E+01  -4.58848756E+00   1.07254535E+00
   7.61250000E+02   5.00000000E-01   5.00000000E-01  -5.85612874E+00  -5.57387799E-01  -4.54215009E+00  -1.85878402E+00  -1.90492250E+00   1.15097604E-02  -3.62436199E+00   1.25660246E+00   2.26834670E+00   1.89871677E+00   2.46371526E+00  -1.82208650E+00  -1.37861347E+00  -1.18001213E+00  -1.12610489E+00  -1.87544866E+00  -1.24704320E-01  -7.24126911E+00   2.69947730E-01   2.01792917E-01  -2.82217754E+00  -4.02189036E-01   2.37048142E-01   2.12767310E-01   4.17240705E-01  -2.19489162E+00  -3.74994080E+00  -2.42372543E+01  -1.01721578E-01  -6.78490116E+00  -3.35821592E+00  -2.70411419E+01  -4.60868946E+00   1.07346991E+00
   7.78750000E+02   5.00000000E-01   5.00000000E-01  -5.80200423E+00  -5.34857384E-01  -4.52034375E+00  -1.82694817E+00  -1.87174612E+00   1.15097604E-02  -3.59997205E+00   1.29290891E+00   2.28962279E+00   1.93457434E+00   2.49071757E+00  -1.83884367E+00  -1.40851073E+00  -1.19721727E+00  -1.15036059E+00  -1.85033078E+00  -1.12205418E-01  -7.22396344E+00   2.59313732E-01   2.02164055E-01  -2.87865692E+00  -4.08023082E-01   2.17222444E-01   2.06603072E-01   4.03372558E-01  -2.22559556E+00  -3.64468530E+00  -2.41027261E+01  -8.06930720E-02  -6.76914562E+00  -3.37386615E+00  -2.69574959E+01  -4.62912837E+00   1.07443634E+00
   7.96250000E+02   5.00000000E-01   5.00000000E-01  -5.74751534E+00  -5.12757652E-01  -4.49835826E+00  -1.79418218E+00  -1.83765125E+00   1.15097603E-02  -3.57592774E+00   1.32992234E+00   2.31174593E+00   1.97113898E+00   2.51850917E+00  -1.85751837E+00  -1.44020995E+00  -1.21633983E+00  -1.17647549E+00  -1.82499526E+00  -9.99095939E-02  -7.20821208E+00   2.48127178E-01   2.02585562E-01  -2.93766826E+00  -4.15073311E-01   1.96303444E-01   1.99221731E-01   3.88351174E-01  -2.25791955E+00  -3.53723836E+00  -2.39694078E+01  -5.96864428E-02  -6.75449109E+00  -3.39082394E+00  -2.68750648E+01  -4.64977315E+00   1.07543472E+00