 TITLE = "Mineral Saturation State" 
VARIABLES = "X"          "Y"              "Z"            "Forsterite"     "Enstatite(alph" "Anorthite"      "Ferropargasite" "Anhydrite"      "Clinochlore"    "Albite(low)"   
 ZONE I=          35 , J=           1 , K=           1  F=POINT
   5.00000000E+01   5.00000000E-01   5.00000000E-01   2.71453880E+00   1.59259028E+00  -2.97130422E+01  -4.19073526E+01  -7.78033581E-01   4.23300148E-01  -1.38360869E+01
   1.50000000E+02   5.00000000E-01   5.00000000E-01   2.50765512E+00   1.17804386E+00  -2.93558642E+01  -4.26538873E+01  -7.21701228E-01   4.23245436E-01  -1.49441068E+01
   2.50000000E+02   5.00000000E-01   5.00000000E-01   2.01105165E+00   4.42003994E-01  -2.87903032E+01  -4.40357996E+01  -6.63525451E-01   4.23245436E-01  -1.66533355E+01
   3.50000000E+02   5.00000000E-01   5.00000000E-01   1.24290134E+00  -5.75076555E-01  -2.79890686E+01  -4.59011622E+01  -6.03928867E-01   4.23245436E-01  -1.88247343E+01
   4.50000000E+02   5.00000000E-01   5.00000000E-01   9.39215366E-01  -1.11946798E+00  -2.76518532E+01  -4.70557804E+01  -5.43262688E-01   4.23245436E-01  -2.02653176E+01
   5.50000000E+02   5.00000000E-01   5.00000000E-01   9.27284014E-01  -1.36026662E+00  -2.75979867E+01  -4.77392988E+01  -4.81829163E-01   4.23245436E-01  -2.12157683E+01
   6.50000000E+02   5.00000000E-01   5.00000000E-01   9.28037544E-01  -1.57595911E+00  -2.75465718E+01  -4.83662793E+01  -4.19880693E-01   4.23245436E-01  -2.20914870E+01
   7.50000000E+02   5.00000000E-01   5.00000000E-01   9.28558153E-01  -1.77932946E+00  -2.74838123E+01  -4.89543472E+01  -3.57623612E-01   4.23245436E-01  -2.29109091E+01
   8.50000000E+02   5.00000000E-01   5.00000000E-01   9.28866946E-01  -1.97047299E+00  -2.74093973E+01  -4.95029838E+01  -2.95225178E-01   4.23245436E-01  -2.36743283E+01
   9.50000000E+02   5.00000000E-01   5.00000000E-01   9.29054823E-01  -2.14959135E+00  -2.73234788E+01  -5.00124539E+01  -2.32820025E-01   4.23245436E-01  -2.43828279E+01
   1.05000000E+03   5.00000000E-01   5.00000000E-01   9.29172177E-01  -2.31704671E+00  -2.72264461E+01  -5.04836946E+01  -1.70515735E-01   4.23245436E-01  -2.50381650E+01
   1.15000000E+03   5.00000000E-01   5.00000000E-01   9.29247365E-01  -2.47330193E+00  -2.71188571E+01  -5.09180887E+01  -1.08397567E-01   4.23245437E-01  -2.56425352E+01
   1.25000000E+03   5.00000000E-01   5.00000000E-01   9.29296725E-01  -2.61888242E+00  -2.70013886E+01  -5.13173202E+01  -4.65324830E-02   4.23245437E-01  -2.61984158E+01
   1.35000000E+03   5.00000000E-01   5.00000000E-01   9.29329886E-01  -2.75435421E+00  -2.68748058E+01  -5.16832948E+01   1.50273419E-02   4.23245438E-01  -2.67084745E+01
   1.45000000E+03   5.00000000E-01   5.00000000E-01   9.29352658E-01  -2.88031333E+00  -2.67399462E+01  -5.20181100E+01   7.62413437E-02   4.23245440E-01  -2.71755252E+01
   1.55000000E+03   5.00000000E-01   5.00000000E-01   9.29368613E-01  -2.99738277E+00  -2.65977171E+01  -5.23240587E+01   1.37077536E-01   4.23245444E-01  -2.76025181E+01
   1.65000000E+03   5.00000000E-01   5.00000000E-01   9.29379996E-01  -3.10621358E+00  -2.64490983E+01  -5.26036513E+01   1.97509486E-01   4.23245451E-01  -2.79925476E+01
   1.75000000E+03   5.00000000E-01   5.00000000E-01   9.29388232E-01  -3.20748775E+00  -2.62951494E+01  -5.28596457E+01   2.57513234E-01   4.23245464E-01  -2.83488679E+01
   1.85000000E+03   5.00000000E-01   5.00000000E-01   9.29394227E-01  -3.30192086E+00  -2.61370154E+01  -5.30950724E+01   3.17064145E-01   4.23245488E-01  -2.86749071E+01
   1.95000000E+03   5.00000000E-01   5.00000000E-01   9.29398545E-01  -3.39026347E+00  -2.59759303E+01  -5.33132505E+01   3.76133791E-01   4.23245530E-01  -2.89742739E+01
   2.05000000E+03   5.00000000E-01   5.00000000E-01   9.29401502E-01  -3.47330049E+00  -2.58132170E+01  -5.35177910E+01   4.34686976E-01   4.23245602E-01  -2.92507548E+01
   2.15000000E+03   5.00000000E-01   5.00000000E-01   9.29403217E-01  -3.55184896E+00  -2.56502828E+01  -5.37125853E+01   4.92679071E-01   4.23245723E-01  -2.95083021E+01
   2.25000000E+03   5.00000000E-01   5.00000000E-01   9.29403623E-01  -3.62675403E+00  -2.54886128E+01  -5.39017810E+01   5.50053792E-01   4.23245923E-01  -2.97510142E+01
   2.35000000E+03   5.00000000E-01   5.00000000E-01   9.29402461E-01  -3.69888392E+00  -2.53297588E+01  -5.40897464E+01   6.06741569E-01   4.23246246E-01  -2.99831098E+01
   2.45000000E+03   5.00000000E-01   5.00000000E-01   9.29399240E-01  -3.76912347E+00  -2.51753268E+01  -5.42810210E+01   6.62658590E-01   4.23246754E-01  -3.02088947E+01
   2.55000000E+03   5.00000000E-01   5.00000000E-01   9.29393226E-01  -3.83836603E+00  -2.50269589E+01  -5.44802528E+01   7.17706606E-01   4.23247534E-01  -3.04327215E+01
   2.65000000E+03   5.00000000E-01   5.00000000E-01   9.29383889E-01  -3.90750214E+00  -2.48863111E+01  -5.46921146E+01   7.71773583E-01   4.23248649E-01  -3.06589342E+01
   2.75000000E+03   5.00000000E-01   5.00000000E-01   9.29376031E-01  -3.97739985E+00  -2.47550274E+01  -5.49211913E+01   8.24735244E-01   4.23249590E-01  -3.08917874E+01
   2.85000000E+03   5.00000000E-01   5.00000000E-01   9.29414217E-01  -4.04885103E+00  -2.46347357E+01  -5.51718021E+01   8.76457597E-01   4.23245595E-01  -3.11353001E+01
   2.95000000E+03   5.00000000E-01   5.00000000E-01   9.29731029E-01  -4.12239904E+00  -2.45271606E+01  -5.54476464E+01   9.26800430E-01   4.23211785E-01  -3.13929211E+01
   3.05000000E+03   5.00000000E-01   5.00000000E-01   9.31129025E-01  -4.19792938E+00  -2.44344864E+01  -5.57511251E+01   9.75621740E-01   4.23061994E-01  -3.16668389E+01
   3.15000000E+03   5.00000000E-01   5.00000000E-01   9.35447057E-01  -4.27417524E+00  -2.43598148E+01  -5.60825572E+01   1.02278289E+00   4.22595794E-01  -3.19571678E+01
   3.25000000E+03   5.00000000E-01   5.00000000E-01   9.45433594E-01  -4.34881914E+00  -2.43069839E+01  -5.64402345E+01   1.06815420E+00   4.21497601E-01  -3.22620138E+01
   3.35000000E+03   5.00000000E-01   5.00000000E-01   9.63693266E-01  -4.41952821E+00  -2.42793936E+01  -5.68217917E+01   1.11162063E+00   4.19415498E-01  -3.25789234E+01
   3.45000000E+03   5.00000000E-01   5.00000000E-01   9.91610286E-01  -4.48497315E+00  -2.42787220E+01  -5.72253854E+01   1.15307285E+00   4.16036847E-01  -3.29061881E+01
