 TITLE = "Mineral Saturation State" 
VARIABLES = "X"          "Y"              "Z"            "Forsterite"     "Fayalite"       "Brucite"        "Lizardite"      "Chrysotile"     "Hematite"       "Magnetite(am)"  "Saponite(Ca)"   "Saponite(K)"    "Saponite(Mg)"   "Saponite(Na)"   "Beidellite(Ca)" "Beidellite(K)"  "Beidellite(Mg)" "Beidellite(Na)" "Enstatite(alph" "Ferrosilite(al" "Anorthite"      "Albite(low)"    "Clinochlore"    "Sudoite"        "Montmor(MgCa)"  "Montmor(MgK)"   "Montmor(MgMg)"  "Montmor(MgNa)"  "Kaolinite"      "Tremolite"      "Pargasite"      "Anhydrite"      "Epidote"        "Scolecite"      "Pyrite"         "FeS(am)"        "Quartz(alpha)" 
 ZONE I=         200 , J=           1 , K=           1  F=POINT
   8.75000000E+00   5.00000000E-01   5.00000000E-01  -6.89980318E+00  -2.82336991E+00  -4.67402897E+00  -1.03569777E+00  -1.15318608E+00   1.11990151E-02  -5.30233163E+00   8.39444223E-01   2.66894836E+00   1.50039101E+00   2.54765905E+00  -6.81698458E+00  -5.66900378E+00  -6.15603507E+00  -5.72909643E+00  -2.44583017E+00  -1.46976917E+00  -1.18714399E+01  -1.64292352E+00   2.09495116E-01  -7.17386384E+00  -4.28588388E+00  -2.89698967E+00  -3.65846388E+00  -3.04608993E+00  -5.45426646E+00  -4.26840845E+00  -3.25704715E+01  -9.80228148E-01  -1.05627470E+01  -6.64613775E+00  -3.29947953E+01  -4.49724972E+00   7.22770884E-01
   2.62500000E+01   5.00000000E-01   5.00000000E-01  -7.59789636E+00  -2.89636141E+00  -5.10247059E+00  -2.07934188E+00  -2.19479554E+00   1.11990150E-02  -5.39270453E+00   2.82737347E-01   2.08365111E+00   9.43100397E-01   1.97161694E+00  -4.20156890E+00  -3.07379227E+00  -3.54120874E+00  -3.12473295E+00  -2.72410996E+00  -1.43096948E+00  -1.01530297E+01  -5.17446959E-01   2.06538563E-01  -4.01145704E+00  -2.39464205E+00  -1.02723279E+00  -1.76762112E+00  -1.16670982E+00  -3.33971608E+00  -6.17513882E+00  -3.17013692E+01  -9.62287315E-01  -9.16219843E+00  -4.82441180E+00  -3.24753695E+01  -4.45188390E+00   8.71400690E-01
   4.37500000E+01   5.00000000E-01   5.00000000E-01  -7.78803911E+00  -2.76740622E+00  -5.24921309E+00  -2.38815759E+00  -2.50159847E+00   1.11990150E-02  -5.35459006E+00   2.05359318E-01   1.98219505E+00   8.65190462E-01   1.87930767E+00  -3.19598540E+00  -2.08818518E+00  -2.53616232E+00  -2.13008192E+00  -2.77610917E+00  -1.31893281E+00  -9.50753993E+00  -3.90162528E-02   2.03867995E-01  -2.93781813E+00  -1.61349873E+00  -2.67333399E-01  -9.86827270E-01  -3.97299943E-01  -2.57935787E+00  -6.55280932E+00  -3.11994506E+01  -9.44135276E-01  -8.60817488E+00  -4.13074312E+00  -3.21557039E+01  -4.40198370E+00   9.64573210E-01
   6.12500000E+01   5.00000000E-01   5.00000000E-01  -7.83677825E+00  -2.61170989E+00  -5.30573668E+00  -2.50376575E+00  -2.61521535E+00   1.11990150E-02  -5.28379536E+00   2.14635279E-01   1.96846534E+00   8.73970881E-01   1.87463692E+00  -2.71117783E+00  -1.62315114E+00  -2.05185508E+00  -1.65609085E+00  -2.77689391E+00  -1.21305398E+00  -9.18625269E+00   1.99548163E-01   2.00581033E-01  -2.47212099E+00  -1.22139501E+00   1.03742329E-01  -5.95038868E-01  -1.68053000E-02  -2.23308386E+00  -6.61030299E+00  -3.08497171E+01  -9.25770191E-01  -8.32693965E+00  -3.80000123E+00  -3.19047840E+01  -4.35595663E+00   1.01870402E+00
   7.87500000E+01   5.00000000E-01   5.00000000E-01  -7.84582678E+00  -2.47621863E+00  -5.32972531E+00  -2.57191567E+00  -2.68139515E+00   1.11990150E-02  -5.21061857E+00   2.20004010E-01   1.95107327E+00   8.78870662E-01   1.86622042E+00  -2.41570786E+00  -1.34725904E+00  -1.75685847E+00  -1.37132407E+00  -2.77049272E+00  -1.12997752E+00  -8.97054725E+00   3.34862960E-01   1.98138454E-01  -2.19090777E+00  -9.86500701E-01   3.17817182E-01  -3.60435438E-01   2.06601515E-01  -2.02464604E+00  -6.64206539E+00  -3.05716407E+01  -9.07197277E-01  -8.14384902E+00  -3.59991157E+00  -3.16879384E+01  -4.32001148E+00   1.04744994E+00
   9.62500000E+01   5.00000000E-01   5.00000000E-01  -7.83351294E+00  -2.35662069E+00  -5.33551411E+00  -2.61493592E+00  -2.72246608E+00   1.11990150E-02  -5.13807247E+00   2.20888607E-01   1.92941308E+00   8.79307536E-01   1.85344741E+00  -2.22585799E+00  -1.17678816E+00  -1.56746039E+00  -1.19206610E+00  -2.76089827E+00  -1.06237549E+00  -8.81276423E+00   4.11440062E-01   1.97148350E-01  -2.00927845E+00  -8.40490396E-01   4.43219586E-01  -2.14696893E-01   3.41243777E-01  -1.89208078E+00  -6.66565536E+00  -3.03343545E+01  -8.88425071E-01  -8.01521053E+00  -3.47247386E+00  -3.14921560E+01  -4.29125939E+00   1.06115481E+00
   1.13750000E+02   5.00000000E-01   5.00000000E-01  -7.80549186E+00  -2.24672180E+00  -5.32934147E+00  -2.63790544E+00  -2.74350675E+00   1.11990150E-02  -5.06646841E+00   2.24270126E-01   1.91051632E+00   8.82258095E-01   1.84334326E+00  -2.10536986E+00  -1.07547556E+00  -1.44740694E+00  -1.08206036E+00  -2.74752684E+00  -1.00373889E+00  -8.69492015E+00   4.51913229E-01   1.97415155E-01  -1.89815361E+00  -7.50494784E-01   5.12823240E-01  -1.24958343E-01   4.19988865E-01  -1.81119184E+00  -6.67012779E+00  -3.01215872E+01  -8.69462894E-01  -7.92243647E+00  -3.39288411E+00  -3.13108325E+01  -4.26748451E+00   1.06664205E+00
   1.31250000E+02   5.00000000E-01   5.00000000E-01  -7.76639733E+00  -2.14409006E+00  -5.31556274E+00  -2.64574350E+00  -2.74943613E+00   1.11990150E-02  -4.99662655E+00   2.32782995E-01   1.89703705E+00   8.90352950E-01   1.83855772E+00  -2.02956570E+00  -1.01864086E+00  -1.37202419E+00  -1.01663096E+00  -2.73065652E+00  -9.50812356E-01  -8.60422647E+00   4.70828689E-01   1.98340063E-01  -1.83609102E+00  -6.94979465E-01   5.48164965E-01  -6.96891596E-02   4.64369181E-01  -1.76485726E+00  -6.65332229E+00  -2.99236833E+01  -8.50320093E-01  -7.85299956E+00  -3.34427818E+00  -3.11400822E+01  -4.24782615E+00   1.06799020E+00
   1.48750000E+02   5.00000000E-01   5.00000000E-01  -7.71990246E+00  -2.04786680E+00  -5.29715116E+00  -2.64283000E+00  -2.74463377E+00   1.11990150E-02  -4.92925195E+00   2.46599957E-01   1.88914775E+00   9.03761879E-01   1.83926095E+00  -1.98179638E+00  -9.89634518E-01  -1.32466600E+00  -9.79130800E-01  -2.71098678E+00  -9.02028926E-01  -8.53154501E+00   4.77300060E-01   1.99404083E-01  -1.80713553E+00  -6.60099008E-01   5.63090442E-01  -3.50468397E-02   4.88228036E-01  -1.74098260E+00  -6.61784155E+00  -2.97349684E+01  -8.31005927E-01  -7.79844917E+00  -3.31524577E+00  -3.09774614E+01  -4.23188734E+00   1.06747422E+00
   1.66250000E+02   5.00000000E-01   5.00000000E-01  -7.66886325E+00  -1.95783938E+00  -5.27611018E+00  -2.63288039E+00  -2.73281483E+00   1.11990150E-02  -4.86481145E+00   2.64648254E-01   1.88576390E+00   9.21409883E-01   1.84436765E+00  -1.95080741E+00  -9.77203291E-01  -1.29408013E+00  -9.58307444E-01  -2.68936989E+00  -8.56705959E-01  -8.47025662E+00   4.76935957E-01   2.00330538E-01  -1.79923871E+00  -6.37033133E-01   5.66418517E-01  -1.22133007E-02   5.00383511E-01  -1.73095808E+00  -6.56848840E+00  -2.95520697E+01  -8.11529540E-01  -7.75301066E+00  -3.29801819E+00  -3.08213515E+01  -4.21941967E+00   1.06624650E+00
   1.83750000E+02   5.00000000E-01   5.00000000E-01  -7.61546513E+00  -1.87402475E+00  -5.25378020E+00  -2.61893184E+00  -2.71701616E+00   1.11990150E-02  -4.80355898E+00   2.85362674E-01   1.88530333E+00   9.41730051E-01   1.85229595E+00  -1.92897227E+00  -9.73723038E-01  -1.27264178E+00  -9.46536496E-01  -2.66665053E+00  -8.14603383E-01  -8.41553943E+00   4.73135150E-01   2.01045714E-01  -1.80328466E+00  -6.20197300E-01   5.63731181E-01   4.39433827E-03   5.06417914E-01  -1.72863110E+00  -6.51067446E+00  -2.93729647E+01  -7.91899960E-01  -7.71270218E+00  -3.28727958E+00  -3.06706349E+01  -4.21021747E+00   1.06480387E+00
   2.01250000E+02   5.00000000E-01   5.00000000E-01  -7.56080892E+00  -1.79594886E+00  -5.23082033E+00  -2.60253358E+00  -2.69878670E+00   1.11990150E-02  -4.74536400E+00   3.07896745E-01   1.88690846E+00   9.63874635E-01   1.86218900E+00  -1.91247908E+00  -9.75384711E-01  -1.25654037E+00  -9.40008177E-01  -2.64327015E+00  -7.75374659E-01  -8.36493810E+00   4.67557108E-01   2.01559312E-01  -1.81460736E+00  -6.06838139E-01   5.57778810E-01   1.75282080E-02   5.09082411E-01  -1.73089448E+00  -6.44727118E+00  -2.91966110E+01  -7.72126121E-01  -7.67550755E+00  -3.28035861E+00  -3.05245160E+01  -4.20393526E+00   1.06336510E+00
   2.18750000E+02   5.00000000E-01   5.00000000E-01  -7.50536063E+00  -1.72289704E+00  -5.20751419E+00  -2.58434064E+00  -2.67878119E+00   1.11990149E-02  -4.68991755E+00   3.31911902E-01   1.89023396E+00   9.87504042E-01   1.87370246E+00  -1.89964639E+00  -9.80509840E-01  -1.24409547E+00  -9.37043054E-01  -2.61941092E+00  -7.38611083E-01  -8.31736725E+00   4.60943865E-01   2.01898737E-01  -1.83116135E+00  -5.95730622E-01   5.49783265E-01   2.84123457E-02   5.09599882E-01  -1.73638511E+00  -6.37945411E+00  -2.90224935E+01  -7.52216830E-01  -7.64052264E+00  -3.27607018E+00  -3.03824051E+01  -4.20018028E+00   1.06203267E+00
   2.36250000E+02   5.00000000E-01   5.00000000E-01  -7.44968834E+00  -1.65451939E+00  -5.18414416E+00  -2.56521328E+00  -2.65785959E+00   1.11990149E-02  -4.63704088E+00   3.56746311E-01   1.89460840E+00   1.01195552E+00   1.88616610E+00  -1.88879520E+00  -9.87422653E-01  -1.23362903E+00  -9.35964127E-01  -2.59535828E+00  -7.04138595E-01  -8.27162525E+00   4.53886725E-01   2.02108943E-01  -1.85056279E+00  -5.85797690E-01   5.40818228E-01   3.81229254E-02   5.09045294E-01  -1.74362425E+00  -6.30922709E+00  -2.88502306E+01  -7.32180707E-01  -7.60683088E+00  -3.27321742E+00  -3.02438496E+01  -4.19869422E+00   1.06080456E+00
   2.53750000E+02   5.00000000E-01   5.00000000E-01  -7.39391885E+00  -1.59022463E+00  -5.16077083E+00  -2.54535097E+00  -2.63622110E+00   1.11990149E-02  -4.58643338E+00   3.82243735E-01   1.89987034E+00   1.03707205E+00   1.89941979E+00  -1.87951703E+00  -9.95717865E-01  -1.22473335E+00  -9.36364822E-01  -2.57117827E+00  -6.71663685E-01  -8.22740478E+00   4.46525132E-01   2.02226657E-01  -1.87221210E+00  -5.76780644E-01   5.31139036E-01   4.69179071E-02   5.07675327E-01  -1.75224850E+00  -6.23706209E+00  -2.86796810E+01  -7.12026205E-01  -7.57419139E+00  -3.27150020E+00  -3.01084957E+01  -4.19917030E+00   1.05967630E+00
   2.71250000E+02   5.00000000E-01   5.00000000E-01  -7.33812762E+00  -1.52951170E+00  -5.13742543E+00  -2.52487974E+00  -2.61399147E+00   1.11990149E-02  -4.53783591E+00   4.08290894E-01   1.90590181E+00   1.06273965E+00   1.91334690E+00  -1.87158574E+00  -1.00517256E+00  -1.21718302E+00  -9.38020851E-01  -2.54691492E+00  -6.40941645E-01  -8.18452131E+00   4.38922541E-01   2.02276635E-01  -1.89574694E+00  -5.68549078E-01   5.20872728E-01   5.49270292E-02   5.05618441E-01  -1.76204623E+00  -6.16328503E+00  -2.85107629E+01  -6.91761579E-01  -7.54246441E+00  -3.27074855E+00  -2.99760598E+01  -4.20135245E+00   1.05863600E+00
   2.88750000E+02   5.00000000E-01   5.00000000E-01  -7.28242155E+00  -1.47201684E+00  -5.11415034E+00  -2.50397731E+00  -2.59134816E+00   1.11990149E-02  -4.49105339E+00   4.34718607E-01   1.91252849E+00   1.08878851E+00   1.92777456E+00  -1.86472147E+00  -1.01551007E+00  -1.21069881E+00  -9.40654104E-01  -2.52263262E+00  -6.11801035E-01  -8.14274377E+00   4.31147406E-01   2.02277006E-01  -1.92070186E+00  -5.60951731E-01   5.10167188E-01   6.23009384E-02   5.03024026E-01  -1.77274786E+00  -6.08837388E+00  -2.83434085E+01  -6.71394873E-01  -7.51148422E+00  -3.27075517E+00  -2.98463114E+01  -4.20504505E+00   1.05766258E+00
   3.06250000E+02   5.00000000E-01   5.00000000E-01  -7.22693519E+00  -1.41748548E+00  -5.09099810E+00  -2.48286641E+00  -2.56851361E+00   1.11990149E-02  -4.44594175E+00   4.61310464E-01   1.91952848E+00   1.11500160E+00   1.94248237E+00  -1.85859330E+00  -1.02640273E+00  -1.20495044E+00  -9.43935384E-01  -2.49841322E+00  -5.84128666E-01  -8.10179822E+00   4.23275180E-01   2.02241439E-01  -1.94651762E+00  -5.53815359E-01   4.99192285E-01   6.92123152E-02   5.00063521E-01  -1.78403048E+00  -6.01293647E+00  -2.81775582E+01  -6.50933909E-01  -7.48105991E+00  -3.27127716E+00  -2.97190614E+01  -4.21010038E+00   1.05672760E+00
   3.23750000E+02   5.00000000E-01   5.00000000E-01  -7.17181116E+00  -1.36573518E+00  -5.06802337E+00  -2.46178372E+00  -2.54572429E+00   1.11990149E-02  -4.40239107E+00   4.87832409E-01   1.92666215E+00   1.14114433E+00   1.95723227E+00  -1.85286304E+00  -1.03751554E+00  -1.19960026E+00  -9.47528134E-01  -2.47434458E+00  -5.57849407E-01  -8.06140209E+00   4.15377915E-01   2.02180529E-01  -1.97261303E+00  -5.46967873E-01   4.88116756E-01   7.58327360E-02   4.96907277E-01  -1.79556022E+00  -5.93762700E+00  -2.80131620E+01  -6.30386277E-01  -7.45099817E+00  -3.27206692E+00  -2.95941533E+01  -4.21640450E+00   1.05579871E+00
   3.41250000E+02   5.00000000E-01   5.00000000E-01  -7.11717835E+00  -1.31662091E+00  -5.04527396E+00  -2.44094530E+00  -2.52319596E+00   1.11990149E-02  -4.36031016E+00   5.14066058E-01   1.93370571E+00   1.16699782E+00   1.97180203E+00  -1.84723409E+00  -1.04855506E+00  -1.19435217E+00  -9.51137323E-01  -2.45050768E+00  -5.32906828E-01  -8.02130277E+00   4.07512838E-01   2.02102904E-01  -1.99846610E+00  -5.40264012E-01   4.77082539E-01   8.23069965E-02   4.93698877E-01  -1.80703976E+00  -5.86305198E+00  -2.78501806E+01  -6.09759319E-01  -7.42112902E+00  -3.27290678E+00  -2.94714562E+01  -4.22386451E+00   1.05484353E+00
   3.58750000E+02   5.00000000E-01   5.00000000E-01  -7.06311965E+00  -1.26999325E+00  -5.02277732E+00  -2.42049542E+00  -2.50107267E+00   1.11990149E-02  -4.31960832E+00   5.39856750E-01   1.94049972E+00   1.19240698E+00   1.98603380E+00  -1.84152651E+00  -1.05934450E+00  -1.18902669E+00  -9.54584547E-01  -2.42695788E+00  -5.09239673E-01  -7.98133619E+00   3.99703580E-01   2.02015944E-01  -2.02373643E+00  -5.33625972E-01   4.66164171E-01   8.87124914E-02   4.90514513E-01  -1.81828040E+00  -5.78963356E+00  -2.76885900E+01  -5.89060117E-01  -7.39134557E+00  -3.27366235E+00  -2.93508589E+01  -4.23239399E+00   1.05383495E+00
   3.76250000E+02   5.00000000E-01   5.00000000E-01  -7.00967653E+00  -1.22569517E+00  -5.00054366E+00  -2.40051266E+00  -2.47943275E+00   1.11990148E-02  -4.28019454E+00   5.65111526E-01   1.94694701E+00   1.21727843E+00   1.99983201E+00  -1.83565909E+00  -1.06980572E+00  -1.18354301E+00  -9.57790064E-01  -2.40372636E+00  -4.86779442E-01  -7.94141597E+00   3.91948896E-01   2.01925836E-01  -2.04824521E+00  -5.27029550E-01   4.55382642E-01   9.50730554E-02   4.87376827E-01  -1.82918813E+00  -5.71761805E+00  -2.75283758E+01  -5.68295484E-01  -7.36159468E+00  -3.27426998E+00  -2.92322655E+01  -4.24191094E+00   1.05275276E+00
   3.93750000E+02   5.00000000E-01   5.00000000E-01  -6.95684453E+00  -1.18355181E+00  -4.97856450E+00  -2.38100244E+00  -2.45828138E+00   1.11990148E-02  -4.24197316E+00   5.89807404E-01   1.95302107E+00   1.24158886E+00   2.01317171E+00  -1.82965710E+00  -1.07996697E+00  -1.17792677E+00  -9.60780548E-01  -2.38081714E+00  -4.65444506E-01  -7.90154045E+00   3.84222166E-01   2.01837891E-01  -2.07199089E+00  -5.20506937E-01   4.44702621E-01   1.01356175E-01   4.84252121E-01  -1.83977218E+00  -5.64705341E+00  -2.73695320E+01  -5.47471951E-01  -7.33188092E+00  -3.27474229E+00  -2.91155923E+01  -4.25233339E+00   1.05158517E+00
   4.11250000E+02   5.00000000E-01   5.00000000E-01  -6.90458422E+00  -1.14337673E+00  -4.95681784E+00  -2.36191360E+00  -2.43756717E+00   1.11990148E-02  -4.20484678E+00   6.13977807E-01   1.95875231E+00   1.26537138E+00   2.02608487E+00  -1.82362263E+00  -1.08993328E+00  -1.17228036E+00  -9.63659457E-01  -2.35821271E+00  -4.45143446E-01  -7.86177137E+00   3.76481191E-01   2.01756469E-01  -2.09510608E+00  -5.14128351E-01   4.34050821E-01   1.07491349E-01   4.81068723E-01  -1.85011842E+00  -5.57782943E+00  -2.72120563E+01  -5.26595759E-01  -7.30225094E+00  -3.27514729E+00  -2.90007643E+01  -4.26358045E+00   1.05032840E+00
   4.28750000E+02   5.00000000E-01   5.00000000E-01  -6.85283553E+00  -1.10498242E+00  -4.93527465E+00  -2.34316071E+00  -2.41720446E+00   1.11990148E-02  -4.16872072E+00   6.37692958E-01   1.96420838E+00   1.28869592E+00   2.03864066E+00  -1.81769832E+00  -1.09985016E+00  -1.16674672E+00  -9.66570749E-01  -2.33588204E+00  -4.25781083E-01  -7.82220660E+00   3.68678804E-01   2.01685023E-01  -2.11780160E+00  -5.07980903E-01   4.23337138E-01   1.13391218E-01   4.77738113E-01  -1.86035576E+00  -5.50973466E+00  -2.70559457E+01  -5.05672861E-01  -7.27277409E+00  -3.27558260E+00  -2.88877146E+01  -4.27557482E+00   1.04898514E+00
   4.46250000E+02   5.00000000E-01   5.00000000E-01  -6.80152155E+00  -1.06818131E+00  -4.91390024E+00  -2.32463021E+00  -2.39707946E+00   1.11990148E-02  -4.13350309E+00   6.61053551E-01   1.96948769E+00   1.31166295E+00   2.05093898E+00  -1.81205915E+00  -1.10989536E+00  -1.16150107E+00  -9.69690689E-01  -2.31378289E+00  -4.07259450E-01  -7.78297322E+00   3.60764350E-01   2.01626405E-01  -2.14035166E+00  -5.02164715E-01   4.12458537E-01   1.18955446E-01   4.74158806E-01  -1.87064777E+00  -5.44247406E+00  -2.69011966E+01  -4.84708915E-01  -7.24353787E+00  -3.27616952E+00  -2.87763820E+01  -4.28824225E+00   1.04756357E+00
   4.63750000E+02   5.00000000E-01   5.00000000E-01  -6.75055594E+00  -1.03279080E+00  -4.89265731E+00  -2.30619223E+00  -2.37706210E+00   1.11990147E-02  -4.09910658E+00   6.84179497E-01   1.97470814E+00   1.33439217E+00   2.06309920E+00  -1.80689533E+00  -1.12026182E+00  -1.15673385E+00  -9.73210728E-01  -2.29186625E+00  -3.89480988E-01  -7.74421395E+00   3.52687778E-01   2.01582923E-01  -2.16306541E+00  -4.96783834E-01   4.01308131E-01   1.24079801E-01   4.70225432E-01  -1.88117616E+00  -5.37570104E+00  -2.67478028E+01  -4.63709285E-01  -7.21463877E+00  -3.27704084E+00  -2.86667103E+01  -4.30151244E+00   1.04607605E+00
   4.81250000E+02   5.00000000E-01   5.00000000E-01  -6.69984992E+00  -9.98638303E-01  -4.87150874E+00  -2.28771180E+00  -2.35701718E+00   1.11990147E-02  -4.06545035E+00   7.07199065E-01   1.97999613E+00   1.35701166E+00   2.07524912E+00  -1.80239649E+00  -1.13114176E+00  -1.15263485E+00  -9.77321670E-01  -2.27008047E+00  -3.72351772E-01  -7.70607445E+00   3.44403222E-01   2.01556437E-01  -2.18626016E+00  -4.91938046E-01   3.89783381E-01   1.28664347E-01   4.65836928E-01  -1.89212521E+00  -5.30904812E+00  -2.65957556E+01  -4.42679048E-01  -7.18617370E+00  -3.27832946E+00  -2.85586480E+01  -4.31532018E+00   1.04453768E+00
   4.98750000E+02   5.00000000E-01   5.00000000E-01  -6.64877209E+00  -9.65029560E-01  -4.85017196E+00  -2.26821407E+00  -2.33596964E+00   1.11990147E-02  -4.03221856E+00   7.30974931E-01   1.98621872E+00   1.38038415E+00   2.08825718E+00  -1.80012380E+00  -1.14409891E+00  -1.15076524E+00  -9.83585856E-01  -2.24807677E+00  -3.55491193E-01  -7.66972227E+00   3.35457380E-01   2.01561938E-01  -2.21234607E+00  -4.88532071E-01   3.76976922E-01   1.31804421E-01   4.60087349E-01  -1.90494532E+00  -5.24001842E+00  -2.64451977E+01  -4.21623068E-01  -7.15896552E+00  -3.28113848E+00  -2.84521181E+01  -4.32942382E+00   1.04301528E+00
   5.16250000E+02   5.00000000E-01   5.00000000E-01  -6.59769951E+00  -9.32273495E-01  -4.82883118E+00  -2.24827422E+00  -2.31449445E+00   1.11990147E-02  -3.99955958E+00   7.55045018E-01   1.99290720E+00   1.40404726E+00   2.10165604E+00  -1.79904224E+00  -1.15810074E+00  -1.15009027E+00  -9.90969374E-01  -2.22604802E+00  -3.39057684E-01  -7.63441884E+00   3.26200264E-01   2.01576841E-01  -2.23984984E+00  -4.85915602E-01   3.63536420E-01   1.34150069E-01   4.53625793E-01  -1.91871589E+00  -5.16997751E+00  -2.62959691E+01  -4.00545782E-01  -7.13247064E+00  -3.28473974E+00  -2.83470996E+01  -4.34392829E+00   1.04150074E+00
   5.33750000E+02   5.00000000E-01   5.00000000E-01  -6.54666246E+00  -9.00344614E-01  -4.80750454E+00  -2.22793990E+00  -2.29263907E+00   1.11990146E-02  -3.96746189E+00   7.79383536E-01   2.00003278E+00   1.42797509E+00   2.11541824E+00  -1.79902336E+00  -1.17302125E+00  -1.15048163E+00  -9.99344883E-01  -2.20400642E+00  -3.23035186E-01  -7.60007578E+00   3.16686027E-01   2.01608512E-01  -2.26861107E+00  -4.83996382E-01   3.49551587E-01   1.35793446E-01   4.46543339E-01  -1.93333168E+00  -5.09901341E+00  -2.61480119E+01  -3.79451405E-01  -7.10661589E+00  -3.28904066E+00  -2.82435569E+01  -4.35882068E+00   1.04000055E+00
   5.51250000E+02   5.00000000E-01   5.00000000E-01  -6.49557247E+00  -8.69107923E-01  -4.78615469E+00  -2.20707672E+00  -2.27026890E+00   1.11990146E-02  -3.93586313E+00   8.04117489E-01   2.00772088E+00   1.45229459E+00   2.12967045E+00  -1.80025543E+00  -1.18905102E+00  -1.15212764E+00  -1.00890171E+00  -2.18190094E+00  -3.07349028E-01  -7.56683706E+00   3.06868177E-01   2.01662331E-01  -2.29894083E+00  -4.82874376E-01   3.34920001E-01   1.36634563E-01   4.38738883E-01  -1.94897486E+00  -5.02676451E+00  -2.60013166E+01  -3.58343904E-01  -7.08149761E+00  -3.29417330E+00  -2.81414504E+01  -4.37404979E+00   1.03852891E+00
   5.68750000E+02   5.00000000E-01   5.00000000E-01  -6.44435517E+00  -8.38449327E-01  -4.76475123E+00  -2.18557142E+00  -2.24727048E+00   1.11990146E-02  -3.90471131E+00   8.29356659E-01   2.01607964E+00   1.47711551E+00   2.14452206E+00  -1.80289183E+00  -1.20634572E+00  -1.15518171E+00  -1.01979427E+00  -2.15968766E+00  -2.91935082E-01  -7.53482275E+00   2.96711924E-01   2.01739959E-01  -2.33110175E+00  -4.82627742E-01   3.19561113E-01   1.36595259E-01   4.30133162E-01  -1.96579659E+00  -4.95291932E+00  -2.58558727E+01  -3.37226992E-01  -7.05719546E+00  -3.30024593E+00  -2.80407431E+01  -4.38957214E+00   1.03709985E+00
   5.86250000E+02   5.00000000E-01   5.00000000E-01  -6.39296753E+00  -8.08291867E-01  -4.74327832E+00  -2.16335881E+00  -2.22357844E+00   1.11990145E-02  -3.87397191E+00   8.55169636E-01   2.02517572E+00   1.50250646E+00   2.16004093E+00  -1.80700606E+00  -1.22498106E+00  -1.15971735E+00  -1.03209705E+00  -2.13733950E+00  -2.76748950E-01  -7.50409453E+00   2.86207097E-01   2.01841382E-01  -2.36523704E+00  -4.83286875E-01   3.03442212E-01   1.35645159E-01   4.20694708E-01  -1.98387504E+00  -4.87728653E+00  -2.57116621E+01  -3.16104135E-01  -7.03374754E+00  -3.30731076E+00  -2.79414022E+01  -4.40535753E+00   1.03572507E+00
   6.03750000E+02   5.00000000E-01   5.00000000E-01  -6.34139587E+00  -7.78592967E-01  -4.72173325E+00  -2.14041920E+00  -2.19917290E+00   1.11990145E-02  -3.84362610E+00   8.81584890E-01   2.03503544E+00   1.52849590E+00   2.17625453E+00  -1.81259855E+00  -1.24495959E+00  -1.16573497E+00  -1.04581146E+00  -2.11484555E+00  -2.61764937E-01  -7.47465959E+00   2.75364819E-01   2.01965669E-01  -2.40137761E+00  -4.84839681E-01   2.86573134E-01   1.33796391E-01   4.10434570E-01  -2.00322062E+00  -4.79979114E+00  -2.55686597E+01  -2.94978566E-01  -7.01115376E+00  -3.31536849E+00  -2.78433990E+01  -4.42138804E+00   1.03441325E+00
   6.21250000E+02   5.00000000E-01   5.00000000E-01  -6.28965016E+00  -7.49338103E-01  -4.70012365E+00  -2.11676982E+00  -2.17407091E+00   1.11990145E-02  -3.81366760E+00   9.08597339E-01   2.04565131E+00   1.55507880E+00   2.19315652E+00  -1.81961247E+00  -1.26622660E+00  -1.17317773E+00  -1.06088162E+00  -2.09220829E+00  -2.46972908E-01  -7.44648167E+00   2.64211886E-01   2.02111405E-01  -2.43946403E+00  -4.87241760E-01   2.68996087E-01   1.31093409E-01   3.99396133E-01  -2.02378988E+00  -4.72045479E+00  -2.54268360E+01  -2.73853291E-01  -6.98938392E+00  -3.32437940E+00  -2.77467082E+01  -4.43765572E+00   1.03317002E+00
   6.38750000E+02   5.00000000E-01   5.00000000E-01  -6.23775634E+00  -7.20532555E-01  -4.67846381E+00  -2.09245310E+00  -2.14831471E+00   1.11990145E-02  -3.78409871E+00   9.36178136E-01   2.05699196E+00   1.58222635E+00   2.21071662E+00  -1.82795402E+00  -1.28869027E+00  -1.18195177E+00  -1.07721462E+00  -2.06943946E+00  -2.32373968E-01  -7.41949566E+00   2.52784247E-01   2.02277061E-01  -2.47937619E+00  -4.90428790E-01   2.50773261E-01   1.27600609E-01   3.87642737E-01  -2.04550375E+00  -4.63936704E+00  -2.52861596E+01  -2.52731105E-01  -6.96838840E+00  -3.33427760E+00  -2.76513079E+01  -4.45415977E+00   1.03199831E+00
   6.56250000E+02   5.00000000E-01   5.00000000E-01  -6.18574760E+00  -6.92192277E-01  -4.65677064E+00  -2.06752324E+00  -2.12195832E+00   1.11990144E-02  -3.75492613E+00   9.64286217E-01   2.06901375E+00   1.60989759E+00   2.22889228E+00  -1.83751466E+00  -1.31224405E+00  -1.19194847E+00  -1.09470283E+00  -2.04655544E+00  -2.17975547E-01  -7.39362404E+00   2.41120183E-01   2.02461324E-01  -2.52096681E+00  -4.94329798E-01   2.31973561E-01   1.23389064E-01   3.75244396E-01  -2.06826801E+00  -4.55665173E+00  -2.51465995E+01  -2.31614600E-01  -6.94810986E+00  -3.34498672E+00  -2.75571783E+01  -4.47090323E+00   1.03089911E+00
   6.73750000E+02   5.00000000E-01   5.00000000E-01  -6.13365689E+00  -6.64336129E-01  -4.63506038E+00  -2.04203468E+00  -2.09505602E+00   1.11990144E-02  -3.72615743E+00   9.92878447E-01   2.08167104E+00   1.63804946E+00   2.24763889E+00  -1.84818982E+00  -1.33678529E+00  -1.20306317E+00  -1.11324255E+00  -2.02357310E+00  -2.03787140E-01  -7.36879086E+00   2.29254824E-01   2.02663291E-01  -2.56409007E+00  -4.98878054E-01   2.12661696E-01   1.18525624E-01   3.62266908E-01  -2.09199053E+00  -4.47243762E+00  -2.50081273E+01  -2.10506180E-01  -6.92849307E+00  -3.35643315E+00  -2.74643012E+01  -4.48789025E+00   1.02987217E+00
   6.91250000E+02   5.00000000E-01   5.00000000E-01  -6.08150953E+00  -6.36978181E-01  -4.61334520E+00  -2.01603050E+00  -2.06765070E+00   1.11990144E-02  -3.69779758E+00   1.02191991E+00   2.09492650E+00   1.66664719E+00   2.26692014E+00  -1.85989756E+00  -1.36223388E+00  -1.21521380E+00  -1.13275265E+00  -2.00050570E+00  -1.89816068E-01  -7.34493566E+00   2.17214741E-01   2.02882655E-01  -2.60863034E+00  -5.04021897E-01   1.92887371E-01   1.13062098E-01   3.48761032E-01  -2.11659863E+00  -4.38682867E+00  -2.48707190E+01  -1.89408066E-01  -6.90949483E+00  -3.36855920E+00  -2.73726594E+01  -4.50512327E+00   1.02891680E+00
   7.08750000E+02   5.00000000E-01   5.00000000E-01  -6.02932068E+00  -6.10125093E-01  -4.59163223E+00  -1.98953847E+00  -2.03976999E+00   1.11990144E-02  -3.66984791E+00   1.05138762E+00   2.10875490E+00   1.69566795E+00   2.28671180E+00  -1.87258422E+00  -1.38853798E+00  -1.22834654E+00  -1.15318029E+00  -1.97736140E+00  -1.76065935E-01  -7.32201805E+00   2.05016602E-01   2.03119608E-01  -2.65451173E+00  -5.09727724E-01   1.72682278E-01   1.07032262E-01   3.34759492E-01  -2.14204456E+00  -4.29989339E+00  -2.47343554E+01  -1.68322305E-01  -6.89108699E+00  -3.38132718E+00  -2.72822359E+01  -4.52260204E+00   1.02803235E+00
   7.26250000E+02   5.00000000E-01   5.00000000E-01  -5.97709450E+00  -5.83775093E-01  -4.56992328E+00  -1.96256966E+00  -2.01142477E+00   1.11990144E-02  -3.64230570E+00   1.08127211E+00   2.12314469E+00   1.72510245E+00   2.30700328E+00  -1.88622618E+00  -1.41567574E+00  -1.24243761E+00  -1.17450265E+00  -1.95414271E+00  -1.62535977E-01  -7.30001923E+00   1.92666953E-01   2.03374758E-01  -2.70170144E+00  -5.15980729E-01   1.52059367E-01   1.00451122E-01   3.20276243E-01  -2.16830736E+00  -4.21166053E+00  -2.45990221E+01  -1.47250782E-01  -6.87325745E+00  -3.39472069E+00  -2.71930138E+01  -4.54032320E+00   1.02721845E+00
   7.43750000E+02   5.00000000E-01   5.00000000E-01  -5.92482443E+00  -5.57918127E-01  -4.54821499E+00  -1.93511876E+00  -1.98260958E+00   1.11990143E-02  -3.61516436E+00   1.11157733E+00   2.13809791E+00   1.75495484E+00   2.32779756E+00  -1.90082887E+00  -1.44365427E+00  -1.25749222E+00  -1.19672591E+00  -1.93084656E+00  -1.49221075E-01  -7.27894142E+00   1.80162750E-01   2.03649031E-01  -2.75020878E+00  -5.22784082E-01   1.31013657E-01   9.33157294E-02   3.05307287E-01  -2.19539215E+00  -4.12211944E+00  -2.44647093E+01  -1.26195228E-01  -6.85600963E+00  -3.40874389E+00  -2.71049762E+01  -4.55828032E+00   1.02647520E+00
   7.61250000E+02   5.00000000E-01   5.00000000E-01  -5.87249441E+00  -5.32537017E-01  -4.52649951E+00  -1.90716593E+00  -1.95330441E+00   1.11990143E-02  -3.58841393E+00   1.14231916E+00   2.15362867E+00   1.78524123E+00   2.34910969E+00  -1.91642331E+00  -1.47250629E+00  -1.27354118E+00  -1.21988184E+00  -1.90746491E+00  -1.36112339E-01  -7.25880550E+00   1.67492544E-01   2.03943560E-01  -2.80008041E+00  -5.30156763E-01   1.09524404E-01   8.56073466E-02   2.89832839E-01  -2.22332704E+00  -4.03122443E+00  -2.43314114E+01  -1.05157225E-01  -6.83936072E+00  -3.42341913E+00  -2.70181061E+01  -4.57646425E+00   1.02580309E+00
   7.78750000E+02   5.00000000E-01   5.00000000E-01  -5.82008101E+00  -5.07609481E-01  -4.50476544E+00  -1.87868006E+00  -1.92347801E+00   1.11990143E-02  -3.56204213E+00   1.17352271E+00   2.16976044E+00   1.81598699E+00   2.37096404E+00  -1.93306064E+00  -1.50228456E+00  -1.29063539E+00  -1.24402230E+00  -1.88398588E+00  -1.23198175E-01  -7.23964695E+00   1.54638244E-01   2.04259547E-01  -2.85139220E+00  -5.38130205E-01   8.75584551E-02   7.72948065E-02   2.73820689E-01  -2.25215822E+00  -3.93890275E+00  -2.41991261E+01  -8.41382173E-02  -6.82333876E+00  -3.43878307E+00  -2.69323865E+01  -4.59486383E+00   1.02520292E+00
   7.96250000E+02   5.00000000E-01   5.00000000E-01  -5.76755651E+00  -4.83111056E-01  -4.48299928E+00  -1.84962348E+00  -1.89309255E+00   1.11990143E-02  -3.53603564E+00   1.20521834E+00   2.18652203E+00   1.84722273E+00   2.39339030E+00  -1.95080428E+00  -1.53305407E+00  -1.30883798E+00  -1.26921140E+00  -1.86039540E+00  -1.10465852E-01  -7.22151016E+00   1.41577567E-01   2.04598112E-01  -2.90423762E+00  -5.46743572E-01   6.50749675E-02   6.83392231E-02   2.57230914E-01  -2.28194276E+00  -3.84506613E+00  -2.40678536E+01  -6.31395203E-02  -6.80797853E+00  -3.45488113E+00  -2.68478007E+01  -4.61346698E+00   1.02467561E+00