 TITLE = "Mineral Saturation State" 
VARIABLES = "X"          "Y"              "Z"            "Forsterite"     "Fayalite"       "Brucite"        "Lizardite"      "Chrysotile"     "Hematite"       "Magnetite(am)"  "Saponite(Ca)"   "Saponite(K)"    "Saponite(Mg)"   "Saponite(Na)"   "Beidellite(Ca)" "Beidellite(K)"  "Beidellite(Mg)" "Beidellite(Na)" "Enstatite(alph" "Ferrosilite(al" "Anorthite"      "Albite(low)"    "Clinochlore"    "Sudoite"        "Montmor(MgCa)"  "Montmor(MgK)"   "Montmor(MgMg)"  "Montmor(MgNa)"  "Kaolinite"      "Tremolite"      "Pargasite"      "Anhydrite"      "Epidote"        "Scolecite"      "Pyrite"         "FeS(am)"        "Quartz(alpha)" 
 ZONE I=         200 , J=           1 , K=           1  F=POINT
   8.75000000E+00   5.00000000E-01   5.00000000E-01  -7.09864322E+00  -3.00524689E+00  -4.76518820E+00  -1.34221863E+00  -1.45970693E+00   9.68992301E-03  -5.38651843E+00   5.71997380E-01   2.39938020E+00   1.23295443E+00   2.27810710E+00  -6.32855862E+00  -5.18057805E+00  -5.66759884E+00  -5.24065400E+00  -2.55351099E+00  -1.56896845E+00  -1.15133076E+01  -1.49685207E+00   1.86529336E-01  -6.44095681E+00  -3.99808374E+00  -2.60918976E+00  -3.37065347E+00  -2.75827332E+00  -5.00491451E+00  -5.03881647E+00  -3.25386459E+01  -9.80319327E-01  -1.03131104E+01  -6.30452699E+00  -3.29723214E+01  -4.54020334E+00   7.06249302E-01
   2.62500000E+01   5.00000000E-01   5.00000000E-01  -7.68184954E+00  -2.97669304E+00  -5.13830587E+00  -2.21141296E+00  -2.32686662E+00   9.68992300E-03  -5.42823813E+00   1.57171922E-01   1.95718808E+00   8.17570775E-01   1.84516933E+00  -4.02537779E+00  -2.89758443E+00  -3.36498182E+00  -2.94850922E+00  -2.77222786E+00  -1.47727662E+00  -1.00193901E+01  -4.75096499E-01   1.84765004E-01  -3.73147406E+00  -2.30085627E+00  -9.33430271E-01  -1.67379953E+00  -1.07289142E+00  -3.17003063E+00  -6.52466799E+00  -3.17170488E+01  -9.62472977E-01  -9.07764192E+00  -4.70305486E+00  -3.24699879E+01  -4.47159141E+00   8.59118063E-01
   4.37500000E+01   5.00000000E-01   5.00000000E-01  -7.84191587E+00  -2.82005961E+00  -5.27019383E+00  -2.47493037E+00  -2.58837125E+00   9.68992298E-03  -5.37646821E+00   1.15437409E-01   1.89169369E+00   7.75326212E-01   1.78882417E+00  -3.10382021E+00  -1.99599029E+00  -2.44393948E+00  -2.03786863E+00  -2.80900519E+00  -1.35121715E+00  -9.43354553E+00  -2.57081365E-02   1.82363325E-01  -2.77723571E+00  -1.57302745E+00  -2.26832412E-01  -9.46298332E-01  -3.56780560E-01  -2.48404356E+00  -6.79567511E+00  -3.12293063E+01  -9.44410366E-01  -8.56817023E+00  -4.06866400E+00  -3.21536371E+01  -4.41441059E+00   9.52657927E-01
   6.12500000E+01   5.00000000E-01   5.00000000E-01  -7.88452792E+00  -2.65885101E+00  -5.32330671E+00  -2.58169508E+00  -2.69314468E+00   9.68992297E-03  -5.30257019E+00   1.30501513E-01   1.88381179E+00   7.89914559E-01   1.79000511E+00  -2.63794330E+00  -1.54987595E+00  -1.97854312E+00  -1.58279325E+00  -2.80707356E+00  -1.24292936E+00  -9.12483932E+00   2.05221109E-01   1.79560244E-01  -2.33577349E+00  -1.19400536E+00   1.31172645E-01  -5.67571778E-01   1.06474212E-02  -2.15364490E+00  -6.83508132E+00  -3.08835461E+01  -9.26131087E-01  -8.29691604E+00  -3.75119749E+00  -3.19036035E+01  -4.36681310E+00   1.00609439E+00
   7.87500000E+01   5.00000000E-01   5.00000000E-01  -7.89130947E+00  -2.52140207E+00  -5.34577269E+00  -2.64683369E+00  -2.75631316E+00   9.68992296E-03  -5.22802541E+00   1.37009579E-01   1.86757866E+00   7.95972669E-01   1.78275137E+00  -2.35072443E+00  -1.28222429E+00  -1.69177861E+00  -1.30626299E+00  -2.79992804E+00  -1.15926322E+00  -8.91410207E+00   3.36538037E-01   1.77573474E-01  -2.06349490E+00  -9.65469434E-01   3.38899766E-01  -3.39307733E-01   2.27710432E-01  -1.95158621E+00  -6.86263516E+00  -3.06077126E+01  -9.07641272E-01  -8.11816098E+00  -3.55685433E+00  -3.16872314E+01  -4.33022958E+00   1.03406199E+00
   9.62500000E+01   5.00000000E-01   5.00000000E-01  -7.87691310E+00  -2.39994513E+00  -5.35024904E+00  -2.68700131E+00  -2.79453146E+00   9.68992296E-03  -5.15427864E+00   1.39266924E-01   1.84731356E+00   7.97800778E-01   1.77137661E+00  -2.16805217E+00  -1.11891998E+00  -1.50953964E+00  -1.13416833E+00  -2.78956350E+00  -1.09100286E+00  -8.76081306E+00   4.09825466E-01   1.76905534E-01  -1.89009375E+00  -8.24806474E-01   4.58965861E-01  -1.98898046E-01   3.57019642E-01  -1.82471866E+00  -6.88159431E+00  -3.03722988E+01  -8.88950056E-01  -7.99335516E+00  -3.43445299E+00  -3.14917952E+01  -4.30087980E+00   1.04722451E+00
   1.13750000E+02   5.00000000E-01   5.00000000E-01  -7.84709330E+00  -2.28840891E+00  -5.34303325E+00  -2.70741653E+00  -2.81301784E+00   9.68992295E-03  -5.08171212E+00   1.44166737E-01   1.82995978E+00   8.02287665E-01   1.76281799E+00  -2.05339826E+00  -1.02343012E+00  -1.39530238E+00  -1.02998271E+00  -2.77543650E+00  -1.03169138E+00  -8.64683014E+00   4.47834367E-01   1.77302278E-01  -1.78619149E+00  -7.38952345E-01   5.24439509E-01  -1.13282944E-01   4.31637346E-01  -1.74862794E+00  -6.88127748E+00  -3.01610349E+01  -8.70067251E-01  -7.90379278E+00  -3.35901198E+00  -3.13107298E+01  -4.27661732E+00   1.05242418E+00
   1.31250000E+02   5.00000000E-01   5.00000000E-01  -7.80670521E+00  -2.18459521E+00  -5.32855301E+00  -2.71336899E+00  -2.81706162E+00   9.68992295E-03  -5.01122455E+00   1.53940116E-01   1.81776439E+00   8.11660735E-01   1.75931847E+00  -1.98164363E+00  -9.70633192E-01  -1.32395146E+00  -9.68588884E-01  -2.75797413E+00  -9.78228599E-01  -8.55896355E+00   4.65158468E-01   1.78200820E-01  -1.72946532E+00  -6.86195391E-01   5.57034639E-01  -6.07544226E-02   4.73273271E-01  -1.70571780E+00  -6.86064541E+00  -2.99642556E+01  -8.51002697E-01  -7.83669505E+00  -3.31334259E+00  -3.11401758E+01  -4.25664930E+00   1.05366286E+00
   1.48750000E+02   5.00000000E-01   5.00000000E-01  -7.75943841E+00  -2.08767454E+00  -5.30974742E+00  -2.70930565E+00  -2.81110943E+00   9.68992294E-03  -4.94349320E+00   1.68584151E-01   1.81072230E+00   8.25914279E-01   1.76087082E+00  -1.93626153E+00  -9.44002134E-01  -1.27896294E+00  -9.33462014E-01  -2.73792648E+00  -9.29104516E-01  -8.48805572E+00   4.70751774E-01   1.79154334E-01  -1.70383462E+00  -6.52882690E-01   5.70404295E-01  -2.76623150E-02   4.95578292E-01  -1.68390760E+00  -6.82274176E+00  -2.97763416E+01  -8.31766156E-01  -7.78364358E+00  -3.28609991E+00  -3.09777120E+01  -4.24057340E+00   1.05313079E+00
   1.66250000E+02   5.00000000E-01   5.00000000E-01  -7.70805713E+00  -1.99735318E+00  -5.28854289E+00  -2.69883543E+00  -2.79876987E+00   9.68992294E-03  -4.87891322E+00   1.87018542E-01   1.80774106E+00   8.43965929E-01   1.76638199E+00  -1.90637496E+00  -9.32661269E-01  -1.24946192E+00  -9.13727121E-01  -2.71613105E+00  -8.83627087E-01  -8.42767492E+00   4.70004828E-01   1.79945638E-01  -1.69756145E+00  -6.30519249E-01   5.73041975E-01  -5.51365762E-03   5.07045269E-01  -1.67485096E+00  -6.77233041E+00  -2.95940038E+01  -8.12367267E-01  -7.73903737E+00  -3.26976494E+00  -3.08217366E+01  -4.22810291E+00   1.05191805E+00
   1.83750000E+02   5.00000000E-01   5.00000000E-01  -7.65461897E+00  -1.91352817E+00  -5.26619837E+00  -2.68482135E+00  -2.78290567E+00   9.68992293E-03  -4.81766103E+00   2.07761807E-01   1.80732286E+00   8.64332658E-01   1.77435447E+00  -1.88478772E+00  -9.29416754E-01  -1.22825376E+00  -9.02190045E-01  -2.69338620E+00  -8.41513842E-01  -8.37325860E+00   4.66116748E-01   1.80533266E-01  -1.70201169E+00  -6.13843385E-01   5.70206830E-01   1.09517278E-02   5.12933730E-01  -1.67273519E+00  -6.71453545E+00  -2.94153075E+01  -7.92815529E-01  -7.69910847E+00  -3.25931625E+00  -3.06711430E+01  -4.21898668E+00   1.05048637E+00
   2.01250000E+02   5.00000000E-01   5.00000000E-01  -7.60015033E+00  -1.83565511E+00  -5.24332611E+00  -2.66871063E+00  -2.76496376E+00   9.68992293E-03  -4.75956128E+00   2.30017128E-01   1.80866022E+00   8.86216492E-01   1.78398155E+00  -1.86794452E+00  -9.30716087E-01  -1.21178433E+00  -8.95297530E-01  -2.67010579E+00  -8.02392711E-01  -8.32250954E+00   4.60629562E-01   1.80937686E-01  -1.71281480E+00  -6.00292621E-01   5.64458390E-01   2.42951997E-02   5.15804014E-01  -1.67465736E+00  -6.65205609E+00  -2.92392715E+01  -7.73120304E-01  -7.66197196E+00  -3.25225991E+00  -3.05251413E+01  -4.21285263E+00   1.04903524E+00
   2.18750000E+02   5.00000000E-01   5.00000000E-01  -7.54508823E+00  -1.76299192E+00  -5.22018946E+00  -2.65112057E+00  -2.74556111E+00   9.68992292E-03  -4.70428555E+00   2.53456821E-01   1.81141886E+00   9.09288820E-01   1.79492995E+00  -1.85427911E+00  -9.34995954E-01  -1.19848833E+00  -8.91485290E-01  -2.64646325E+00  -7.65847051E-01  -8.27441102E+00   4.54228130E-01   1.81187758E-01  -1.72804997E+00  -5.88731964E-01   5.56928534E-01   3.56508628E-02   5.16789030E-01  -1.67934267E+00  -6.58601932E+00  -2.90654174E+01  -7.53290768E-01  -7.62678422E+00  -3.24749100E+00  -3.03831451E+01  -4.20929686E+00   1.04765562E+00
   2.36250000E+02   5.00000000E-01   5.00000000E-01  -7.48995464E+00  -1.69514392E+00  -5.19704608E+00  -2.63284395E+00  -2.72549026E+00   9.68992292E-03  -4.65163101E+00   2.77465450E-01   1.81497420E+00   9.32933364E-01   1.80657629E+00  -1.84225546E+00  -9.40723478E-01  -1.18683058E+00  -8.89219223E-01  -2.62272266E+00  -7.31682087E-01  -8.22785908E+00   4.47448349E-01   1.81326781E-01  -1.74552436E+00  -5.78180880E-01   5.48594476E-01   4.59984447E-02   5.16867272E-01  -1.68543433E+00  -6.51828381E+00  -2.88933967E+01  -7.33335853E-01  -7.59270545E+00  -3.24391370E+00  -3.02447037E+01  -4.20804639E+00   1.04634212E+00
   2.53750000E+02   5.00000000E-01   5.00000000E-01  -7.43486277E+00  -1.63150617E+00  -5.17394918E+00  -2.61406046E+00  -2.70493059E+00   9.68992291E-03  -4.60128963E+00   3.01899321E-01   1.81917758E+00   9.57005723E-01   1.81877320E+00  -1.83151295E+00  -9.47541196E-01  -1.17645118E+00  -8.88140581E-01  -2.59894384E+00  -6.99598074E-01  -8.18257994E+00   4.40410631E-01   1.81386709E-01  -1.76470356E+00  -5.68413439E-01   5.39678834E-01   5.55632015E-02   5.16262696E-01  -1.69260951E+00  -6.44927998E+00  -2.87230854E+01  -7.13264261E-01  -7.55952249E+00  -3.24126260E+00  -3.01094647E+01  -4.20879026E+00   1.04508907E+00
   2.71250000E+02   5.00000000E-01   5.00000000E-01  -7.37988195E+00  -1.57157092E+00  -5.15092683E+00  -2.59488700E+00  -2.68399873E+00   9.68992290E-03  -4.55299884E+00   3.26651324E-01   1.82391726E+00   9.81398127E-01   1.83141030E+00  -1.82184746E+00  -9.55248173E-01  -1.16714669E+00  -8.88047059E-01  -2.57516785E+00  -6.69347026E-01  -8.13840531E+00   4.33170141E-01   1.81388714E-01  -1.78525700E+00  -5.59313839E-01   5.30294071E-01   6.44603123E-02   5.15089190E-01  -1.70067564E+00  -6.37931350E+00  -2.85544110E+01  -6.93084435E-01  -7.52710909E+00  -3.23938410E+00  -2.99771452E+01  -4.21127073E+00   1.04388447E+00
   2.88750000E+02   5.00000000E-01   5.00000000E-01  -7.32510906E+00  -1.51496362E+00  -5.12801694E+00  -2.57548573E+00  -2.66285658E+00   9.68992289E-03  -4.50655871E+00   3.51565576E-01   1.82903239E+00   1.00595408E+00   1.84432819E+00  -1.81300715E+00  -9.63595762E-01  -1.15866589E+00  -8.88688556E-01  -2.55145354E+00  -6.40751580E-01  -8.09512560E+00   4.25786764E-01   1.81348639E-01  -1.80676288E+00  -5.50747494E-01   5.20571417E-01   7.28237832E-02   5.13479491E-01  -1.70938893E+00  -6.30882291E+00  -2.83873124E+01  -6.72804548E-01  -7.49531566E+00  -3.23809132E+00  -2.98475152E+01  -4.21528941E+00   1.04270826E+00
   3.06250000E+02   5.00000000E-01   5.00000000E-01  -7.27066279E+00  -1.46141293E+00  -5.10526525E+00  -2.55605445E+00  -2.64170166E+00   9.68992288E-03  -4.46181792E+00   3.76448347E-01   1.83432396E+00   1.03047928E+00   1.85732936E+00  -1.80470090E+00  -9.72296068E-01  -1.15071824E+00  -8.89775655E-01  -2.52787367E+00  -6.13689042E-01  -8.05249772E+00   4.18325100E-01   1.81278853E-01  -1.82872569E+00  -5.42563555E-01   5.10658355E-01   8.08039187E-02   5.11582656E-01  -1.71846401E+00  -6.23835055E+00  -2.82217357E+01  -6.52432498E-01  -7.46397323E+00  -3.23716996E+00  -2.97203858E+01  -4.22069413E+00   1.04153430E+00
   3.23750000E+02   5.00000000E-01   5.00000000E-01  -7.21666538E+00  -1.41071511E+00  -5.08271791E+00  -2.53679764E+00  -2.62073820E+00   9.68992287E-03  -4.41865755E+00   4.01095706E-01   1.83958271E+00   1.05476926E+00   1.87020611E+00  -1.79663928E+00  -9.81062849E-01  -1.14301486E+00  -8.91020541E-01  -2.50450426E+00  -5.88071948E-01  -8.01027731E+00   4.10844776E-01   1.81189252E-01  -1.85064384E+00  -5.34616532E-01   5.00697020E-01   8.85457087E-02   5.09542442E-01  -1.72761367E+00  -6.16846447E+00  -2.80576355E+01  -6.31975900E-01  -7.43291488E+00  -3.23640730E+00  -2.95956004E+01  -4.22736505E+00   1.04033355E+00
   3.41250000E+02   5.00000000E-01   5.00000000E-01  -7.16322337E+00  -1.36270171E+00  -5.06041355E+00  -2.51789574E+00  -2.60014640E+00   9.68992286E-03  -4.37697674E+00   4.25323205E-01   1.84461907E+00   1.07863907E+00   1.88277047E+00  -1.78857759E+00  -9.89654619E-01  -1.13531157E+00  -8.92180123E-01  -2.48141310E+00  -5.63830143E-01  -7.96825290E+00   4.03390549E-01   1.81088003E-01  -1.87208165E+00  -5.26788752E-01   4.90801749E-01   9.61663623E-02   5.07474843E-01  -1.73659086E+00  -6.09967465E+00  -2.78949763E+01  -6.11442083E-01  -7.40199856E+00  -3.23562274E+00  -2.94730278E+01  -4.23520275E+00   1.03907770E+00
   3.58750000E+02   5.00000000E-01   5.00000000E-01  -7.11039965E+00  -1.31720218E+00  -5.03837178E+00  -2.49946095E+00  -2.58003820E+00   9.68992285E-03  -4.33667634E+00   4.49007723E-01   1.84930537E+00   1.10196516E+00   1.89489637E+00  -1.78038068E+00  -9.97939354E-01  -1.12747365E+00  -8.93120758E-01  -2.45864341E+00  -5.40889674E-01  -7.92629669E+00   3.95976386E-01   1.80981863E-01  -1.89277566E+00  -5.19025122E-01   4.81024344E-01   1.03720552E-01   5.05433328E-01  -1.74525108E+00  -6.03231407E+00  -2.77337364E+01  -5.90838078E-01  -7.37114151E+00  -3.23471392E+00  -2.93525561E+01  -4.24411491E+00   1.03774388E+00
   3.76250000E+02   5.00000000E-01   5.00000000E-01  -7.05821952E+00  -1.27404204E+00  -5.01659674E+00  -2.48154555E+00  -2.56046564E+00   9.68992283E-03  -4.29765865E+00   4.72083020E-01   1.85357137E+00   1.12468086E+00   1.90651517E+00  -1.77200205E+00  -1.00587366E+00  -1.11945504E+00  -8.93797435E-01  -2.43621627E+00  -5.19171290E-01  -7.88435128E+00   3.88594610E-01   1.80876264E-01  -1.91260923E+00  -5.11318021E-01   4.71369184E-01   1.11215515E-01   5.03423944E-01  -1.75353548E+00  -5.96655399E+00  -2.75739025E+01  -5.70170614E-01  -7.34030933E+00  -3.23364212E+00  -2.92340885E+01  -4.25401467E+00   1.03631593E+00
   3.93750000E+02   5.00000000E-01   5.00000000E-01  -7.00666781E+00  -1.23303430E+00  -4.99507633E+00  -2.46413716E+00  -2.54141610E+00   9.68992282E-03  -4.25982370E+00   4.94545338E-01   1.85740990E+00   1.14678204E+00   1.91762127E+00  -1.76348802E+00  -1.01350691E+00  -1.11130244E+00  -8.94257910E-01  -2.41412858E+00  -4.98585552E-01  -7.84243376E+00   3.81216162E-01   1.80775533E-01  -1.93162210E+00  -5.03708263E-01   4.61792276E-01   1.18610092E-01   5.01404350E-01  -1.76147575E+00  -5.90238891E+00  -2.74154680E+01  -5.49446115E-01  -7.30951812E+00  -3.23243520E+00  -2.91175402E+01  -4.26481674E+00   1.03478557E+00
   4.11250000E+02   5.00000000E-01   5.00000000E-01  -6.95569998E+00  -1.19398580E+00  -4.97378738E+00  -2.44717557E+00  -2.52282914E+00   9.68992280E-03  -4.22307206E+00   5.16439325E-01   1.86086266E+00   1.16831301E+00   1.92825798E+00  -1.75494831E+00  -1.02095178E+00  -1.10312593E+00  -8.94613296E-01  -2.39235893E+00  -4.79036317E-01  -7.80061430E+00   3.73800027E-01   1.80682915E-01  -1.94996683E+00  -4.96267165E-01   4.52219190E-01   1.25832652E-01   4.99301750E-01  -1.76916759E+00  -5.83967805E+00  -2.72584290E+01  -5.28670696E-01  -7.27881885E+00  -3.23116689E+00  -2.90028353E+01  -4.27643847E+00   1.03315173E+00
   4.28750000E+02   5.00000000E-01   5.00000000E-01  -6.90525549E+00  -1.15670681E+00  -4.95270157E+00  -2.43057369E+00  -2.50461744E+00   9.68992278E-03  -4.18730895E+00   5.37839411E-01   1.86400149E+00   1.18934789E+00   1.93849865E+00  -1.74652244E+00  -1.02835070E+00  -1.09506532E+00  -8.95004447E-01  -2.37087507E+00  -4.60426333E-01  -7.75899072E+00   3.66302830E-01   1.80600736E-01  -1.96785646E+00  -4.89077196E-01   4.42564421E-01   1.32800443E-01   4.97032241E-01  -1.77673931E+00  -5.77819924E+00  -2.71027802E+01  -5.07850167E-01  -7.24827941E+00  -3.22993282E+00  -2.88899058E+01  -4.28880206E+00   1.03141903E+00
   4.46250000E+02   5.00000000E-01   5.00000000E-01  -6.85526128E+00  -1.12101166E+00  -4.93178670E+00  -2.41422320E+00  -2.48667246E+00   9.68992276E-03  -4.15244395E+00   5.58843839E-01   1.86692230E+00   1.20998464E+00   1.94844071E+00  -1.73837248E+00  -1.03586858E+00  -1.08728300E+00  -8.95594755E-01  -2.34963616E+00  -4.42658029E-01  -7.71768221E+00   3.58679956E-01   1.80530680E-01  -1.98555100E+00  -4.82228736E-01   4.32734627E-01   1.39422830E-01   4.94504049E-01  -1.78434439E+00  -5.71766557E+00  -2.69485150E+01  -4.86990033E-01  -7.21798059E+00  -3.22884532E+00  -2.87786896E+01  -4.30183389E+00   1.02959676E+00
   4.63750000E+02   5.00000000E-01   5.00000000E-01  -6.80563852E+00  -1.08672304E+00  -4.91100937E+00  -2.39800535E+00  -2.46887522E+00   9.68992274E-03  -4.11839256E+00   5.79564277E-01   1.86973463E+00   1.23033469E+00   1.95819516E+00  -1.73066770E+00  -1.04367743E+00  -1.07994847E+00  -8.96554750E-01  -2.32859677E+00  -4.25636343E-01  -7.67681709E+00   3.50889100E-01   1.80473905E-01  -2.00333156E+00  -4.75812045E-01   4.22636668E-01   1.45609329E-01   4.91625560E-01  -1.79214642E+00  -5.65775482E+00  -2.67956242E+01  -4.66095501E-01  -7.18800779E+00  -3.22802244E+00  -2.86691297E+01  -4.31546534E+00   1.02769758E+00
   4.81250000E+02   5.00000000E-01   5.00000000E-01  -6.75630873E+00  -1.05367620E+00  -4.89033742E+00  -2.38180076E+00  -2.45110613E+00   9.68992272E-03  -4.08507766E+00   6.00116159E-01   1.87255189E+00   1.25051323E+00   1.96787686E+00  -1.72357086E+00  -1.05194270E+00  -1.07322475E+00  -8.98048436E-01  -2.30771060E+00  -4.09271454E-01  -7.63652163E+00   3.42893210E-01   1.80431178E-01  -2.02147689E+00  -4.69910324E-01   4.12184543E-01   1.51276542E-01   4.88312262E-01  -1.80030563E+00  -5.59813672E+00  -2.66440957E+01  -4.45171482E-01  -7.15844364E+00  -3.22757810E+00  -2.85611736E+01  -4.32963355E+00   1.02573622E+00
   4.98750000E+02   5.00000000E-01   5.00000000E-01  -6.70671342E+00  -1.02124536E+00  -4.86952244E+00  -2.36474625E+00  -2.43250181E+00   9.68992270E-03  -4.05221536E+00   6.21267221E-01   1.87614541E+00   1.27128798E+00   1.97825851E+00  -1.71845897E+00  -1.06204394E+00  -1.06848887E+00  -9.01453981E-01  -2.28666761E+00  -3.93219272E-01  -7.59782968E+00   3.34296619E-01   1.80409526E-01  -2.04212595E+00  -4.65317301E-01   4.00581833E-01   1.55630731E-01   4.83769167E-01  -1.81010495E+00  -5.53658928E+00  -2.64940559E+01  -4.24222675E-01  -7.13001561E+00  -3.22848625E+00  -2.84547461E+01  -4.34411977E+00   1.02377491E+00
   5.16250000E+02   5.00000000E-01   5.00000000E-01  -6.65721949E+00  -9.89726213E-01  -4.84874241E+00  -2.34740294E+00  -2.41362317E+00   9.68992267E-03  -4.01994628E+00   6.42563640E-01   1.88005472E+00   1.29220478E+00   1.98888101E+00  -1.71432515E+00  -1.07297684E+00  -1.06473428E+00  -9.05765677E-01  -2.26565676E+00  -3.77632797E-01  -7.56001855E+00   3.25436601E-01   1.80392907E-01  -2.06383531E+00  -4.61403505E-01   3.88455334E-01   1.59301063E-01   4.78624499E-01  -1.82064615E+00  -5.47445264E+00  -2.63453443E+01  -4.03253362E-01  -7.10219184E+00  -3.23003695E+00  -2.83498250E+01  -4.35902366E+00   1.02180323E+00
   5.33750000E+02   5.00000000E-01   5.00000000E-01  -6.60785106E+00  -9.59083782E-01  -4.82801188E+00  -2.32980976E+00  -2.39450892E+00   9.68992265E-03  -3.98825362E+00   6.63984727E-01   1.88425617E+00   1.31324278E+00   1.99972201E+00  -1.71106197E+00  -1.08463642E+00  -1.06185374E+00  -9.10877231E-01  -2.24468767E+00  -3.62491725E-01  -7.52301338E+00   3.16358414E-01   1.80388225E-01  -2.08647116E+00  -4.58091596E-01   3.75879811E-01   1.62364733E-01   4.72954387E-01  -1.83184134E+00  -5.41179731E+00  -2.61979084E+01  -3.82267604E-01  -7.07490988E+00  -3.23215217E+00  -2.82463733E+01  -4.37432829E+00   1.01982664E+00
   5.51250000E+02   5.00000000E-01   5.00000000E-01  -6.55852948E+00  -9.29188947E-01  -4.80729766E+00  -2.31184778E+00  -2.37503995E+00   9.68992262E-03  -3.95707720E+00   6.85642920E-01   1.88886045E+00   1.33451432E+00   2.01089349E+00  -1.70883600E+00  -1.09719161E+00  -1.06001390E+00  -9.16956299E-01  -2.22371498E+00  -3.47725075E-01  -7.48694121E+00   3.07020945E-01   1.80399361E-01  -2.11030979E+00  -4.55469845E-01   3.62764507E-01   1.64733397E-01   4.66669389E-01  -1.84385191E+00  -5.34830214E+00  -2.60517380E+01  -3.61269223E-01  -7.04825449E+00  -3.23494852E+00  -2.81443505E+01  -4.38998395E+00   1.01785784E+00
   5.68750000E+02   5.00000000E-01   5.00000000E-01  -6.50919577E+00  -8.99938550E-01  -4.78657606E+00  -2.29342778E+00  -2.35512684E+00   9.68992259E-03  -3.92636954E+00   7.07626136E-01   1.89395363E+00   1.35610724E+00   2.02248273E+00  -1.70776385E+00  -1.11076133E+00  -1.05933148E+00  -9.24120571E-01  -2.20270343E+00  -3.33275169E-01  -7.45189394E+00   2.97399452E-01   1.80427048E-01  -2.13555615E+00  -4.53595695E-01   3.49049564E-01   1.66349554E-01   4.59710919E-01  -1.85679444E+00  -5.28371771E+00  -2.59068199E+01  -3.40261795E-01  -7.02228548E+00  -3.23850808E+00  -2.80437190E+01  -4.40595043E+00   1.01590890E+00
   5.86250000E+02   5.00000000E-01   5.00000000E-01  -6.45982163E+00  -8.71265502E-01  -4.76583754E+00  -2.27450779E+00  -2.33472742E+00   9.68992256E-03  -3.89609999E+00   7.29981659E-01   1.89958089E+00   1.37806876E+00   2.03453610E+00  -1.70788380E+00  -1.12538610E+00  -1.05984481E+00  -9.32409355E-01  -2.18163438E+00  -3.19103597E-01  -7.41790589E+00   2.87493136E-01   1.80470892E-01  -2.16229729E+00  -4.52479950E-01   3.34721836E-01   1.67202363E-01   4.52067066E-01  -1.87071378E+00  -5.21791315E+00  -2.57631326E+01  -3.19248658E-01  -6.99702174E+00  -3.24285778E+00  -2.79444454E+01  -4.42220045E+00   1.01398941E+00
   6.03750000E+02   5.00000000E-01   5.00000000E-01  -6.41040513E+00  -8.43133703E-01  -4.74508429E+00  -2.25508669E+00  -2.31384039E+00   9.68992254E-03  -3.86625197E+00   7.52720448E-01   1.90575083E+00   1.40040980E+00   2.04706336E+00  -1.70916876E+00  -1.14104096E+00  -1.06152684E+00  -9.41796549E-01  -2.16050378E+00  -3.05188895E-01  -7.38496238E+00   2.77319989E-01   1.80530022E-01  -2.19051902E+00  -4.52095660E-01   3.19805999E-01   1.67318756E-01   4.43763706E-01  -1.88559387E+00  -5.15086287E+00  -2.56206482E+01  -2.98232922E-01  -6.97244781E+00  -3.24797846E+00  -2.78465001E+01  -4.43871778E+00   1.01210607E+00
   6.21250000E+02   5.00000000E-01   5.00000000E-01  -6.36096437E+00  -8.15531112E-01  -4.72432714E+00  -2.23519476E+00  -2.29249585E+00   9.68992251E-03  -3.83681957E+00   7.75824692E-01   1.91244314E+00   1.42311254E+00   2.06004531E+00  -1.71154351E+00  -1.15765281E+00  -1.06430239E+00  -9.52207934E-01  -2.13931901E+00  -2.91523033E-01  -7.35301194E+00   2.66910862E-01   1.80603398E-01  -2.22013043E+00  -4.52389038E-01   3.04353630E-01   1.66752517E-01   4.34853578E-01  -1.90137321E+00  -5.08262403E+00  -2.54793354E+01  -2.77217489E-01  -6.94852291E+00  -3.25381692E+00  -2.77498567E+01  -4.45549481E+00   1.01026277E+00
   6.38750000E+02   5.00000000E-01   5.00000000E-01  -6.31153004E+00  -7.88461819E-01  -4.70358204E+00  -2.21488227E+00  -2.27074387E+00   9.68992248E-03  -3.80780382E+00   7.99257405E-01   1.91961821E+00   1.44613998E+00   2.07344343E+00  -1.71490420E+00  -1.17511983E+00  -1.06806759E+00  -9.63540576E-01  -2.11809492E+00  -2.78107216E-01  -7.32198046E+00   2.56303333E-01   1.80690044E-01  -2.25099266E+00  -4.53291217E-01   2.88431451E-01   1.65572536E-01   4.25404535E-01  -1.91796236E+00  -5.01330845E+00  -2.53391617E+01  -2.56205056E-01  -6.92519118E+00  -3.26029964E+00  -2.76544914E+01  -4.47252974E+00   1.00846108E+00
   6.56250000E+02   5.00000000E-01   5.00000000E-01  -6.26213757E+00  -7.61937761E-01  -4.68286653E+00  -2.19420730E+00  -2.24864238E+00   9.68992245E-03  -3.77920886E+00   8.22972984E-01   1.92722781E+00   1.46944654E+00   2.08721056E+00  -1.71913830E+00  -1.19333148E+00  -1.07270992E+00  -9.75682881E-01  -2.09684952E+00  -2.64947389E-01  -7.29178610E+00   2.45535675E-01   1.80789232E-01  -2.28294931E+00  -4.54730086E-01   2.72109489E-01   1.63850966E-01   4.15487701E-01  -1.93526247E+00  -4.94305194E+00  -2.52000954E+01  -2.35198130E-01  -6.90239225E+00  -3.26734698E+00  -2.75603827E+01  -4.48982363E+00   1.00670091E+00
   6.73750000E+02   5.00000000E-01   5.00000000E-01  -6.21282071E+00  -7.35972009E-01  -4.66219684E+00  -2.17322585E+00  -2.22624719E+00   9.68992242E-03  -3.75103901E+00   8.46926047E-01   1.93522401E+00   1.49298690E+00   2.10129978E+00  -1.72414058E+00  -1.21218444E+00  -1.07812409E+00  -9.88530508E-01  -2.07560045E+00  -2.52050525E-01  -7.26235121E+00   2.34642280E-01   1.80900571E-01  -2.31585115E+00  -4.56639482E-01   2.55451881E-01   1.61654038E-01   4.05168281E-01  -1.95318006E+00  -4.87198871E+00  -2.50621078E+01  -2.14199038E-01  -6.88006969E+00  -3.27488439E+00  -2.74675104E+01  -4.50737800E+00   1.00498128E+00
   6.91250000E+02   5.00000000E-01   5.00000000E-01  -6.16360533E+00  -7.10572312E-01  -4.64158519E+00  -2.15198210E+00  -2.20360231E+00   9.68992239E-03  -3.72329583E+00   8.71080111E-01   1.94356790E+00   1.51672465E+00   2.11567319E+00  -1.72982852E+00  -1.23159805E+00  -1.08422750E+00  -1.00200179E+00  -2.05436150E+00  -2.39421037E-01  -7.23361405E+00   2.23649287E-01   1.81024093E-01  -2.34958007E+00  -4.58968037E-01   2.38508025E-01   1.59033214E-01   3.94496712E-01  -1.97164140E+00  -4.80022635E+00  -2.49251743E+01  -1.93209934E-01  -6.85817919E+00  -3.28285339E+00  -2.73758546E+01  -4.52519248E+00   1.00330100E+00
   7.08750000E+02   5.00000000E-01   5.00000000E-01  -6.11450791E+00  -6.85739365E-01  -4.62103920E+00  -2.13050596E+00  -2.18073748E+00   9.68992236E-03  -3.69597749E+00   8.95410104E-01   1.95223212E+00   1.54063481E+00   2.13030440E+00  -1.73614557E+00  -1.25151758E+00  -1.09096352E+00  -1.01604102E+00  -2.03314166E+00  -2.27059716E-01  -7.20553148E+00   2.12573971E-01   1.81160135E-01  -2.38405504E+00  -4.61680750E-01   2.21311003E-01   1.56023609E-01   3.83507092E-01  -1.99059588E+00  -4.72783877E+00  -2.47892747E+01  -1.72232809E-01  -6.83669037E+00  -3.29121390E+00  -2.72853959E+01  -4.54326416E+00   1.00165906E+00
   7.26250000E+02   5.00000000E-01   5.00000000E-01  -6.06553521E+00  -6.61466350E-01  -4.60056184E+00  -2.10881251E+00  -2.15766762E+00   9.68992233E-03  -3.66907864E+00   9.19903117E-01   1.96120166E+00   1.56470459E+00   2.14517936E+00  -1.74306141E+00  -1.27191449E+00  -1.09830171E+00  -1.03061869E+00  -2.01194485E+00  -2.14963392E-01  -7.17807942E+00   2.01424982E-01   1.81309279E-01  -2.41923315E+00  -4.64758828E-01   2.03877744E-01   1.52644157E-01   3.72217337E-01  -2.01001644E+00  -4.65486419E+00  -2.46543932E+01  -1.51269498E-01  -6.81558689E+00  -3.29994446E+00  -2.71961148E+01  -4.56158737E+00   1.00005488E+00
   7.43750000E+02   5.00000000E-01   5.00000000E-01  -6.01668489E+00  -6.37739379E-01  -4.58015181E+00  -2.08690287E+00  -2.13439368E+00   9.68992230E-03  -3.64259066E+00   9.44557877E-01   1.97047327E+00   1.58893287E+00   2.16029574E+00  -1.75057007E+00  -1.29278451E+00  -1.10623594E+00  -1.04572961E+00  -1.99077020E+00  -2.03125116E-01  -7.15125161E+00   1.90203117E-01   1.81472267E-01  -2.45510729E+00  -4.68198374E-01   1.86210326E-01   1.48898915E-01   3.60630494E-01  -2.02989800E+00  -4.58130681E+00  -2.45205176E+01  -1.30321687E-01  -6.79486552E+00  -3.30904091E+00  -2.71079918E+01  -4.58015382E+00   9.98488372E-01
   7.61250000E+02   5.00000000E-01   5.00000000E-01  -5.96794687E+00  -6.14538703E-01  -4.55980415E+00  -2.06476621E+00  -2.11090469E+00   9.68992227E-03  -3.61650228E+00   9.69383120E-01   1.98005384E+00   1.61332854E+00   2.17566135E+00  -1.75868630E+00  -1.31414408E+00  -1.11478083E+00  -1.06138931E+00  -1.96961273E+00  -1.91534772E-01  -7.12505701E+00   1.78902553E-01   1.81649933E-01  -2.49170099E+00  -4.72008114E-01   1.68298252E-01   1.44779334E-01   3.48737010E-01  -2.05025428E+00  -4.50714162E+00  -2.43876389E+01  -1.09390922E-01  -6.77453422E+00  -3.31851382E+00  -2.70210072E+01  -4.59895300E+00   9.96959910E-01
   7.78750000E+02   5.00000000E-01   5.00000000E-01  -5.91930523E+00  -5.91840518E-01  -4.53951119E+00  -2.04238274E+00  -2.08718069E+00   9.68992225E-03  -3.59080039E+00   9.94395105E-01   1.98995791E+00   1.63790803E+00   2.19129163E+00  -1.76744053E+00  -1.33602527E+00  -1.12396663E+00  -1.07762895E+00  -1.94846434E+00  -1.80180045E-01  -7.09951615E+00   1.67512461E-01   1.81843116E-01  -2.52906091E+00  -4.76206320E-01   1.50121520E-01   1.40267335E-01   3.36517810E-01  -2.07111318E+00  -4.43232164E+00  -2.42557510E+01  -8.84786144E-02  -6.75460945E+00  -3.32838497E+00  -2.69351413E+01  -4.61797282E+00   9.95470220E-01
   7.96250000E+02   5.00000000E-01   5.00000000E-01  -5.87074078E+00  -5.69619396E-01  -4.51926371E+00  -2.01972760E+00  -2.06319666E+00   9.68992222E-03  -3.56547119E+00   1.01961425E+00   2.00020425E+00   1.66269197E+00   2.20720620E+00  -1.77687224E+00  -1.35846913E+00  -1.13383261E+00  -1.09448873E+00  -1.92731524E+00  -1.69047728E-01  -7.07465624E+00   1.56019060E-01   1.82052569E-01  -2.56724703E+00  -4.80816842E-01   1.31654596E-01   1.35339277E-01   3.23948265E-01  -2.09251074E+00  -4.35678777E+00  -2.41248494E+01  -6.75860500E-02  -6.73511267E+00  -3.33868262E+00  -2.68503746E+01  -4.63720050E+00   9.94020195E-01