 TITLE = "Mineral Saturation State" 
VARIABLES = "X"          "Y"              "Z"            "Forsterite"     "Enstatite(alph" "Anorthite"      "Ferropargasite" "Anhydrite"      "Clinochlore"    "Albite(low)"    "Fayalite"       "Epidote"        "Kaolinite"      "Muscovite(orde" "Sudoite"        "Saponite(Mg)"   "Scolecite"      "Pyrite"         "Quartz(alpha)" 
 ZONE I=         100 , J=           1 , K=           1  F=POINT
   1.75000000E+01   5.00000000E-01   5.00000000E-01  -8.02676923E+00  -3.10432207E+00  -8.13016707E+00  -2.09853697E+01  -1.89858493E-01   1.32717829E+00  -4.27235956E-01  -4.54892074E+00   3.71836026E-09  -1.77673472E+00   1.18559679E+00  -5.80418535E-01   5.84383877E-05  -3.10143494E+00  -2.49182664E+02   5.33971270E-01
   5.25000000E+01   5.00000000E-01   5.00000000E-01  -8.07052545E+00  -3.08988216E+00  -7.98088228E+00  -1.98211554E+01  -4.02066741E-02   1.00076263E+00  -2.67985286E-01  -4.07284436E+00  -3.88755112E-11  -1.67082809E+00   1.23614888E+00  -6.72006684E-01   6.11873556E-05  -2.93068455E+00  -2.46688356E+02   6.16098746E-01
   8.75000000E+01   5.00000000E-01   5.00000000E-01  -8.05477275E+00  -3.06991811E+00  -7.91552044E+00  -1.91774349E+01  -6.02015671E-03   8.32122970E-01  -2.09996376E-01  -3.78020269E+00  -9.48034177E-11  -1.63132282E+00   1.21660695E+00  -7.38381974E-01   7.43233638E-05  -2.89186500E+00  -2.44478369E+02   6.49644026E-01
   1.22500000E+02   5.00000000E-01   5.00000000E-01  -8.01807030E+00  -3.04905895E+00  -7.85236212E+00  -1.87027546E+01   1.98297092E-03   7.41375534E-01  -1.82677341E-01  -3.56737249E+00  -1.13028435E-10  -1.59770237E+00   1.19985304E+00  -7.55705251E-01   7.98532413E-05  -2.87396075E+00  -2.42383415E+02   6.63910432E-01
   1.57500000E+02   5.00000000E-01   5.00000000E-01  -7.97178499E+00  -3.02807937E+00  -7.78383023E+00  -1.83136206E+01   3.90008710E-03   6.91294434E-01  -1.69033959E-01  -3.40078559E+00  -1.23730155E-10  -1.56399946E+00   1.18927333E+00  -7.43075637E-01   8.30309119E-05  -2.85958214E+00  -2.40355357E+02   6.68717680E-01
   1.92500000E+02   5.00000000E-01   5.00000000E-01  -7.92060199E+00  -3.00720638E+00  -7.71088282E+00  -1.79787033E+01   4.38778759E-03   6.64428099E-01  -1.62580052E-01  -3.26461527E+00  -1.33827050E-10  -1.52955759E+00   1.18353661E+00  -7.12358445E-01   8.53347256E-05  -2.84546096E+00  -2.38375659E+02   6.68299060E-01
   2.27500000E+02   5.00000000E-01   5.00000000E-01  -7.86680079E+00  -2.98652028E+00  -7.63526030E+00  -1.76827070E+01   4.53302749E-03   6.51626090E-01  -1.60308059E-01  -3.15002743E+00  -1.45923573E-10  -1.49460273E+00   1.18116223E+00  -6.70553005E-01   8.72772090E-05  -2.83122359E+00  -2.36435356E+02   6.64775585E-01
   2.62500000E+02   5.00000000E-01   5.00000000E-01  -7.81160777E+00  -2.96605176E+00  -7.55829634E+00  -1.74166788E+01   4.58806889E-03   6.47713203E-01  -1.60648848E-01  -3.05156878E+00  -1.60896107E-10  -1.45945055E+00   1.18104832E+00  -6.21876143E-01   8.90686421E-05  -2.81704355E+00  -2.34529316E+02   6.59314279E-01
   2.97500000E+02   5.00000000E-01   5.00000000E-01  -7.75572611E+00  -2.94581208E+00  -7.48088008E+00  -1.71747155E+01   4.61126693E-03   6.49609905E-01  -1.62717475E-01  -2.96562527E+00  -1.79108781E-10  -1.42435651E+00   1.18243876E+00  -5.68931735E-01   9.08065377E-05  -2.80313410E+00  -2.32654242E+02   6.52597783E-01
   3.32500000E+02   5.00000000E-01   5.00000000E-01  -7.69957631E+00  -2.92580409E+00  -7.40358219E+00  -1.69526167E+01   4.61658543E-03   6.55415936E-01  -1.65986735E-01  -2.88967038E+00  -2.00715888E-10  -1.38950334E+00   1.18482527E+00  -5.13363051E-01   9.25396938E-05  -2.78965588E+00  -2.30807835E+02   6.45042867E-01
   3.67500000E+02   5.00000000E-01   5.00000000E-01  -7.64341723E+00  -2.90602668E+00  -7.32676531E+00  -1.67472423E+01   4.60799641E-03   6.63924561E-01  -1.70129134E-01  -2.82186390E+00  -2.25896406E-10  -1.35501597E+00   1.18786623E+00  -4.56227884E-01   9.42929342E-05  -2.77671512E+00  -2.28988391E+02   6.36912518E-01
   4.02500000E+02   5.00000000E-01   5.00000000E-01  -7.58741176E+00  -2.88647682E+00  -7.25065946E+00  -1.65561658E+01   4.58725424E-03   6.74349331E-01  -1.74933815E-01  -2.76082222E+00  -2.54829315E-10  -1.32097811E+00   1.19132966E+00  -3.98220747E-01   9.60777618E-05  -2.76437756E+00  -2.27194588E+02   6.28377573E-01
   4.37500000E+02   5.00000000E-01   5.00000000E-01  -7.53166442E+00  -2.86715051E+00  -7.17541052E+00  -1.63774689E+01   4.55561325E-03   6.86163667E-01  -1.80260075E-01  -2.70547893E+00  -2.87878746E-10  -1.28744525E+00   1.19505538E+00  -3.39807672E-01   9.78973854E-05  -2.75268118E+00  -2.25425353E+02   6.19552349E-01
   4.72500000E+02   5.00000000E-01   5.00000000E-01  -7.47624372E+00  -2.84804332E+00  -7.10111089E+00  -1.62096099E+01   4.51419355E-03   6.99003687E-01  -1.86010091E-01  -2.65499598E+00  -3.25384141E-10  -1.25445373E+00   1.19893043E+00  -2.81309539E-01   9.97492934E-05  -2.74164557E+00  -2.23679791E+02   6.10516014E-01
   5.07500000E+02   5.00000000E-01   5.00000000E-01  -7.42119598E+00  -2.82915067E+00  -7.02781898E+00  -1.60513354E+01   4.46405231E-03   7.12607914E-01  -1.92112310E-01  -2.60870476E+00  -3.67740488E-10  -1.22202680E+00   1.20287311E+00  -2.22954352E-01   1.01626684E-04  -2.73127820E+00  -2.21957129E+02   6.01325779E-01
   5.42500000E+02   5.00000000E-01   5.00000000E-01  -7.36655398E+00  -2.81046804E+00  -6.95557156E+00  -1.59016179E+01   4.40619345E-03   7.26779216E-01  -1.98511030E-01  -2.56606552E+00  -4.15534100E-10  -1.19017853E+00   1.20682288E+00  -1.64910376E-01   1.03519340E-04  -2.72157845E+00  -2.20256688E+02   5.92025210E-01
   5.77500000E+02   5.00000000E-01   5.00000000E-01  -7.31234249E+00  -2.79199101E+00  -6.88439165E+00  -1.57596103E+01   4.34156595E-03   7.41360482E-01  -2.05159719E-01  -2.52663867E+00  -4.69326600E-10  -1.15891628E+00   1.21073387E+00  -1.07307276E-01   1.05414222E-04  -2.71254021E+00  -2.18577854E+02   5.82649544E-01
   6.12500000E+02   5.00000000E-01   5.00000000E-01  -7.25858184E+00  -2.77371540E+00  -6.81429354E+00  -1.56246118E+01   4.27106117E-03   7.56218987E-01  -2.12016676E-01  -2.49006393E+00  -5.29895621E-10  -1.12824221E+00   1.21457084E+00  -5.02496060E-02   1.07295945E-04  -2.70415341E+00  -2.16920069E+02   5.73229118E-01
   6.47500000E+02   5.00000000E-01   5.00000000E-01  -7.20529003E+00  -2.75563617E+00  -6.74530956E+00  -1.54960751E+01   4.19551102E-03   7.71211138E-01  -2.19050000E-01  -2.45604445E+00  -5.98345898E-10  -1.09817702E+00   1.21827205E+00   6.12522189E-03   1.09147794E-04  -2.69642666E+00  -2.15282813E+02   5.63793606E-01
   6.82500000E+02   5.00000000E-01   5.00000000E-01  -7.15248344E+00  -2.73774114E+00  -6.67762594E+00  -1.53737785E+01   4.11568718E-03   7.86031719E-01  -2.26278842E-01  -2.42433408E+00  -6.77892884E-10  -1.06888877E+00   1.22155284E+00   6.13617985E-02   1.10956463E-04  -2.68950967E+00  -2.13665595E+02   5.54385339E-01
   7.17500000E+02   5.00000000E-01   5.00000000E-01  -7.10019284E+00  -2.72003593E+00  -6.61107807E+00  -1.52571070E+01   4.03230229E-03   8.00720758E-01  -2.33589074E-01  -2.39474388E+00  -7.66160476E-10  -1.04019705E+00   1.22465294E+00   1.15730392E-01   1.12704203E-04  -2.68322262E+00  -2.12067953E+02   5.45025324E-01
   7.52500000E+02   5.00000000E-01   5.00000000E-01  -7.04843443E+00  -2.70251753E+00  -6.54566351E+00  -1.51457212E+01   3.94600979E-03   8.15184280E-01  -2.40941611E-01  -2.36710531E+00  -8.66012341E-10  -1.01208843E+00   1.22756494E+00   1.69176812E-01   1.14366312E-04  -2.67754495E+00  -2.10489453E+02   5.35737328E-01
   7.87500000E+02   5.00000000E-01   5.00000000E-01  -6.99722590E+00  -2.68518316E+00  -6.48138032E+00  -1.50393443E+01   3.85740653E-03   8.29325550E-01  -2.48295319E-01  -2.34128013E+00  -9.79198154E-10  -9.84547826E-01   1.23028367E+00   2.21647286E-01   1.15921986E-04  -2.67245564E+00  -2.08929681E+02   5.26546028E-01
   8.22500000E+02   5.00000000E-01   5.00000000E-01  -6.94658634E+00  -2.66803039E+00  -6.41822574E+00  -1.49377496E+01   3.76703487E-03   8.43046834E-01  -2.55606745E-01  -2.31715552E+00  -1.10771755E-09  -9.57557274E-01   1.23280805E+00   2.73091401E-01   1.17350702E-04  -2.66793206E+00  -2.07388239E+02   5.17476815E-01
   8.57500000E+02   5.00000000E-01   5.00000000E-01  -6.89653587E+00  -2.65105709E+00  -6.35619590E+00  -1.48407522E+01   3.67538527E-03   8.56250558E-01  -2.62830596E-01  -2.29463996E+00  -1.25395587E-09  -9.31096044E-01   1.23514110E+00   3.23462794E-01   1.18632632E-04  -2.66394996E+00  -2.05864743E+02   5.08555501E-01
   8.92500000E+02   5.00000000E-01   5.00000000E-01  -6.84709526E+00  -2.63426138E+00  -6.29528564E+00  -1.47482018E+01   3.58289914E-03   8.68840692E-01  -2.69920392E-01  -2.27365973E+00  -1.42066263E-09  -9.05140863E-01   1.23728975E+00   3.72719848E-01   1.19749087E-04  -2.66048366E+00  -2.04358822E+02   4.99807952E-01
   9.27500000E+02   5.00000000E-01   5.00000000E-01  -6.79828537E+00  -2.61764161E+00  -6.23548835E+00  -1.46599758E+01   3.48997178E-03   8.80724289E-01  -2.76829246E-01  -2.25415589E+00  -1.61107179E-09  -8.79666270E-01   1.23926455E+00   4.20826322E-01   1.20682947E-04  -2.65750633E+00  -2.02870119E+02   4.91259672E-01
   9.62500000E+02   5.00000000E-01   5.00000000E-01  -6.75012659E+00  -2.60119631E+00  -6.17679590E+00  -1.45759745E+01   3.39695546E-03   8.91813115E-01  -2.83510785E-01  -2.23608163E+00  -1.82896042E-09  -8.54645101E-01   1.24107915E+00   4.67751886E-01   1.21419076E-04  -2.65499037E+00  -2.01398288E+02   4.82935331E-01
   9.97500000E+02   5.00000000E-01   5.00000000E-01  -6.70263824E+00  -2.58492410E+00  -6.11919863E+00  -1.44961158E+01   3.30416248E-03   9.02025297E-01  -2.89920145E-01  -2.21939989E+00  -2.07865797E-09  -8.30049087E-01   1.24274972E+00   5.13472495E-01   1.21944704E-04  -2.65290790E+00  -1.99942992E+02   4.74858277E-01
   1.03250000E+03   5.00000000E-01   5.00000000E-01  -6.65583793E+00  -2.56882366E+00  -6.06268546E+00  -1.44203312E+01   3.21186817E-03   9.11286935E-01  -2.96015044E-01  -2.20408130E+00  -2.36527460E-09  -8.05849562E-01   1.24429411E+00   5.57970600E-01   1.22249769E-04  -2.65123135E+00  -1.98503909E+02   4.67050031E-01
   1.06750000E+03   5.00000000E-01   5.00000000E-01  -6.60974095E+00  -2.55289365E+00  -6.00724403E+00  -1.43485622E+01   3.12031385E-03   9.19533623E-01  -3.01756856E-01  -2.19010227E+00  -2.69470738E-09  -7.82018247E-01   1.24573101E+00   6.01235192E-01   1.22327213E-04  -2.64993413E+00  -1.97080726E+02   4.59529801E-01
   1.10250000E+03   5.00000000E-01   5.00000000E-01  -6.56435962E+00  -2.53713261E+00  -5.95286093E+00  -1.42807570E+01   3.02970967E-03   9.26711832E-01  -3.07111680E-01  -2.17744329E+00  -3.07376367E-09  -7.58528065E-01   1.24707894E+00   6.43261696E-01   1.22173231E-04  -2.64899132E+00  -1.95673141E+02   4.52314010E-01
   1.13750000E+03   5.00000000E-01   5.00000000E-01  -6.51970276E+00  -2.52153896E+00  -5.89952195E+00  -1.42168679E+01   2.94023729E-03   9.32780105E-01  -3.12051315E-01  -2.16608744E+00  -3.51035560E-09  -7.35353949E-01   1.24835535E+00   6.84051738E-01   1.21787452E-04  -2.64838031E+00  -1.94280864E+02   4.45415877E-01
   1.17250000E+03   5.00000000E-01   5.00000000E-01  -6.47577523E+00  -2.50611085E+00  -5.84721236E+00  -1.41568490E+01   2.85205247E-03   9.37710024E-01  -3.16554126E-01  -2.15601905E+00  -4.01357715E-09  -7.12473594E-01   1.24957565E+00   7.23612833E-01   1.21173045E-04  -2.64808148E+00  -1.92903615E+02   4.38845062E-01
   1.20750000E+03   5.00000000E-01   5.00000000E-01  -6.43257753E+00  -2.49084620E+00  -5.79591713E+00  -1.41006537E+01   2.76528747E-03   9.41486912E-01  -3.20605727E-01  -2.14722263E+00  -4.59389244E-09  -6.89868092E-01   1.25075252E+00   7.61958020E-01   1.20336760E-04  -2.64807864E+00  -1.91541126E+02   4.32607388E-01
   1.24250000E+03   5.00000000E-01   5.00000000E-01  -6.39010553E+00  -2.47574260E+00  -5.74562114E+00  -1.40482340E+01   2.68005328E-03   9.44110223E-01  -3.24199447E-01  -2.13968191E+00  -5.26337021E-09  -6.67522421E-01   1.25189521E+00   7.99105484E-01   1.19288860E-04  -2.64835948E+00  -1.90193138E+02   4.26704671E-01
   1.27750000E+03   5.00000000E-01   5.00000000E-01  -6.34835043E+00  -2.46079731E+00  -5.69630930E+00  -1.39995382E+01   2.59644176E-03   9.45593608E-01  -3.27336537E-01  -2.13337917E+00  -6.03574250E-09  -6.45425739E-01   1.25300923E+00   8.35078201E-01   1.18042971E-04  -2.64891573E+00  -1.88859405E+02   4.21134649E-01
   1.31250000E+03   5.00000000E-01   5.00000000E-01  -6.30729872E+00  -2.44600727E+00  -5.64796663E+00  -1.39545109E+01   2.51452749E-03   9.45964622E-01  -3.30026115E-01  -2.12829475E+00  -6.92682736E-09  -6.23571471E-01   1.25409620E+00   8.69903594E-01   1.16615822E-04  -2.64974317E+00  -1.87539689E+02   4.15891039E-01
   1.34750000E+03   5.00000000E-01   5.00000000E-01  -6.26693244E+00  -2.43136907E+00  -5.60057826E+00  -1.39130916E+01   2.43436965E-03   9.45264067E-01  -3.32284813E-01  -2.12440675E+00  -7.95456590E-09  -6.01957182E-01   1.25515395E+00   9.03613231E-01   1.15026878E-04  -2.65084147E+00  -1.86233765E+02   4.10963715E-01
   1.38250000E+03   5.00000000E-01   5.00000000E-01  -6.22722951E+00  -2.41687904E+00  -5.55412934E+00  -1.38752150E+01   2.35601358E-03   9.43544980E-01  -3.34136171E-01  -2.12169100E+00  -9.13940187E-09  -5.80584248E-01   1.25617687E+00   9.36242522E-01   1.13297886E-04  -2.65221381E+00  -1.84941414E+02   4.06339005E-01
   1.41750000E+03   5.00000000E-01   5.00000000E-01  -6.18816423E+00  -2.40253322E+00  -5.50860496E+00  -1.38408109E+01   2.27949229E-03   9.40871293E-01  -3.35609786E-01  -2.12012117E+00  -1.05045779E-08  -5.59457365E-01   1.25715649E+00   9.67830409E-01   1.11452327E-04  -2.65386636E+00  -1.83662428E+02   4.02000090E-01
   1.45250000E+03   5.00000000E-01   5.00000000E-01  -6.14970788E+00  -2.38832749E+00  -5.46399000E+00  -1.38098043E+01   2.20482789E-03   9.37316195E-01  -3.36740278E-01  -2.11966900E+00  -1.20764038E-08  -5.38583918E-01   1.25808205E+00   9.98419013E-01   1.09514817E-04  -2.65580773E+00  -1.82396607E+02   3.97927502E-01
   1.48750000E+03   5.00000000E-01   5.00000000E-01  -6.11182939E+00  -2.37425757E+00  -5.42026905E+00  -1.37821166E+01   2.13203277E-03   9.32960275E-01  -3.37566128E-01  -2.12030475E+00  -1.38846366E-08  -5.17973293E-01   1.25894136E+00   1.02805322E+00   1.07510461E-04  -2.65804818E+00  -1.81143757E+02   3.94099683E-01
   1.52250000E+03   5.00000000E-01   5.00000000E-01  -6.07449608E+00  -2.36031913E+00  -5.37742627E+00  -1.37576659E+01   2.06111079E-03   9.27889509E-01  -3.38128440E-01  -2.12199765E+00  -1.59629582E-08  -4.97636151E-01   1.25972145E+00   1.05678020E+00   1.05464219E-04  -2.66059906E+00  -1.79903691E+02   3.90493582E-01
   1.55750000E+03   5.00000000E-01   5.00000000E-01  -6.03767441E+00  -2.34650781E+00  -5.33544541E+00  -1.37363685E+01   1.99205836E-03   9.22193187E-01  -3.38469725E-01  -2.12471640E+00  -1.83493524E-08  -4.77583743E-01   1.26040930E+00   1.08464879E+00   1.03400295E-04  -2.66347207E+00  -1.78676229E+02   3.87085266E-01
   1.59250000E+03   5.00000000E-01   5.00000000E-01  -6.00133064E+00  -2.33281934E+00  -5.29430978E+00  -1.37181398E+01   1.92486535E-03   9.15961864E-01  -3.38632729E-01  -2.12842978E+00  -2.10867556E-08  -4.57827284E-01   1.26099246E+00   1.11170887E+00   1.01341592E-04  -2.66667873E+00  -1.77461193E+02   3.83850511E-01
   1.62750000E+03   5.00000000E-01   5.00000000E-01  -5.96543157E+00  -2.31924952E+00  -5.25400233E+00  -1.37028954E+01   1.85951605E-03   9.09285413E-01  -3.38659391E-01  -2.13310706E+00  -2.42236156E-08  -4.38377435E-01   1.26145947E+00   1.13801064E+00   9.93092567E-05  -2.67022986E+00  -1.76258410E+02   3.80765352E-01
   1.66250000E+03   5.00000000E-01   5.00000000E-01  -5.92994500E+00  -2.30579432E+00  -5.21450577E+00  -1.36905525E+01   1.79598993E-03   9.02251277E-01  -3.38589938E-01  -2.13871849E+00  -2.78146013E-08  -4.19243897E-01   1.26180021E+00   1.16360389E+00   9.73223328E-05  -2.67413527E+00  -1.75067713E+02   3.77806564E-01
   1.69750000E+03   5.00000000E-01   5.00000000E-01  -5.89484030E+00  -2.29244988E+00  -5.17580274E+00  -1.36810306E+01   1.73426239E-03   8.94942948E-01  -3.38462171E-01  -2.14523568E+00  -3.19214883E-08  -4.00435128E-01   1.26200609E+00   1.18853726E+00   9.53975262E-05  -2.67840347E+00  -1.73888934E+02   3.74952074E-01
   1.73250000E+03   5.00000000E-01   5.00000000E-01  -5.86008872E+00  -2.27921255E+00  -5.13787596E+00  -1.36742524E+01   1.67430547E-03   8.87438736E-01  -3.38310916E-01  -2.15263182E+00  -3.66140754E-08  -3.81958174E-01   1.26207009E+00   1.21285759E+00   9.35490889E-05  -2.68304155E+00  -1.72721908E+02   3.72181276E-01
   1.76750000E+03   5.00000000E-01   5.00000000E-01  -5.82566366E+00  -2.26607889E+00  -5.10070845E+00  -1.36701449E+01   1.61608844E-03   8.79810829E-01  -3.38167671E-01  -2.16088193E+00  -4.19712893E-08  -3.63818607E-01   1.26198673E+00   1.23660928E+00   9.17888101E-05  -2.68805510E+00  -1.71566475E+02   3.69475270E-01
   1.80250000E+03   5.00000000E-01   5.00000000E-01  -5.79154082E+00  -2.25304570E+00  -5.06428368E+00  -1.36686391E+01   1.55957838E-03   8.72124656E-01  -3.38060409E-01  -2.16996291E+00  -4.80823728E-08  -3.46020538E-01   1.26175193E+00   1.25983385E+00   9.01260995E-05  -2.69344830E+00  -1.70422473E+02   3.66817004E-01
   1.83750000E+03   5.00000000E-01   5.00000000E-01  -5.75769830E+00  -2.24010997E+00  -5.02858572E+00  -1.36696711E+01   1.50474062E-03   8.64438525E-01  -3.38013524E-01  -2.17985355E+00  -5.50483565E-08  -3.28566711E-01   1.26136286E+00   1.28256951E+00   8.85681455E-05  -2.69922392E+00  -1.69289743E+02   3.64191349E-01
   1.87250000E+03   5.00000000E-01   5.00000000E-01  -5.72411653E+00  -2.22726892E+00  -4.99359940E+00  -1.36731816E+01   1.45153926E-03   8.56803522E-01  -3.38047902E-01  -2.19053451E+00  -6.29836019E-08  -3.11458621E-01   1.26081768E+00   1.30485093E+00   8.71201292E-05  -2.70538354E+00  -1.68168127E+02   3.61585100E-01
   1.90750000E+03   5.00000000E-01   5.00000000E-01  -5.69077822E+00  -2.21451996E+00  -4.95931035E+00  -1.36791158E+01   1.39993751E-03   8.49263613E-01  -3.38181084E-01  -2.20198817E+00  -7.20176097E-08  -2.94696677E-01   1.26011537E+00   1.32670911E+00   8.57854733E-05  -2.71192760E+00  -1.67057468E+02   3.58986924E-01
   1.94250000E+03   5.00000000E-01   5.00000000E-01  -5.65766827E+00  -2.20186067E+00  -4.92570511E+00  -1.36874238E+01   1.34989804E-03   8.41855935E-01  -3.38427493E-01  -2.21419847E+00  -8.22970503E-08  -2.78280366E-01   1.25925548E+00   1.34817134E+00   8.45661092E-05  -2.71885563E+00  -1.65957612E+02   3.56387264E-01
   1.97750000E+03   5.00000000E-01   5.00000000E-01  -5.62477354E+00  -2.18928883E+00  -4.89277111E+00  -1.36980594E+01   1.30138326E-03   8.34611206E-01  -3.38798713E-01  -2.22715073E+00  -9.39880348E-08  -2.62208421E-01   1.25823796E+00   1.36926130E+00   8.34627483E-05  -2.72616634E+00  -1.64868404E+02   3.53778216E-01
   2.01250000E+03   5.00000000E-01   5.00000000E-01  -5.59208271E+00  -2.17680233E+00  -4.86049667E+00  -1.37109801E+01   1.25435560E-03   8.27554246E-01  -3.39303788E-01  -2.24083146E+00  -1.07278652E-07  -2.46478977E-01   1.25706301E+00   1.38999920E+00   8.24751441E-05  -2.73385779E+00  -1.63789692E+02   3.51153373E-01
   2.04750000E+03   5.00000000E-01   5.00000000E-01  -5.55958610E+00  -2.16439921E+00  -4.82887094E+00  -1.37261467E+01   1.20877771E-03   8.20704549E-01  -3.39949535E-01  -2.25522812E+00  -1.22381794E-07  -2.31089724E-01   1.25573089E+00   1.41040199E+00   8.16023383E-05  -2.74192749E+00  -1.62721326E+02   3.48507671E-01
   2.08250000E+03   5.00000000E-01   5.00000000E-01  -5.52727541E+00  -2.15207764E+00  -4.79788388E+00  -1.37435225E+01   1.16461260E-03   8.14076886E-01  -3.40740854E-01  -2.27032891E+00  -1.39538392E-07  -2.16038027E-01   1.25424185E+00   1.43048366E+00   8.08428845E-05  -2.75037251E+00  -1.61663156E+02   3.45837220E-01
   2.11750000E+03   5.00000000E-01   5.00000000E-01  -5.49514361E+00  -2.13983585E+00  -4.76752613E+00  -1.37630727E+01   1.12182381E-03   8.07681917E-01  -3.41681021E-01  -2.28612260E+00  -1.59020843E-07  -2.01321045E-01   1.25259603E+00   1.45025551E+00   8.01950472E-05  -2.75918956E+00  -1.60615035E+02   3.43139145E-01
   2.15250000E+03   5.00000000E-01   5.00000000E-01  -5.46318467E+00  -2.12767220E+00  -4.73778896E+00  -1.37847643E+01   1.08037554E-03   8.01526795E-01  -3.42771973E-01  -2.30259829E+00  -1.81137019E-07  -1.86935821E-01   1.25079342E+00   1.46972645E+00   7.96569738E-05  -2.76837507E+00  -1.59576818E+02   3.40411423E-01
   2.18750000E+03   5.00000000E-01   5.00000000E-01  -5.43139347E+00  -2.11558511E+00  -4.70866412E+00  -1.38085652E+01   1.04023268E-03   7.95615730E-01  -3.44014565E-01  -2.31974528E+00  -2.06234562E-07  -1.72879363E-01   1.24883376E+00   1.48890334E+00   7.92268416E-05  -2.77792523E+00  -1.58548362E+02   3.37652739E-01
   2.22250000E+03   5.00000000E-01   5.00000000E-01  -5.39976556E+00  -2.10357305E+00  -4.68014381E+00  -1.38344437E+01   1.00136090E-03   7.89950531E-01  -3.45408797E-01  -2.33755290E+00  -2.34705565E-07  -1.59148706E-01   1.24671658E+00   1.50779124E+00   7.89029800E-05  -2.78783600E+00  -1.57529526E+02   3.34862347E-01
   2.25750000E+03   5.00000000E-01   5.00000000E-01  -5.36829708E+00  -2.09163455E+00  -4.65222050E+00  -1.38623684E+01   9.63726691E-04   7.84531098E-01  -3.46954032E-01  -2.35601037E+00  -2.66991901E-07  -1.45740961E-01   1.24444117E+00   1.52639378E+00   7.86839699E-05  -2.79810318E+00  -1.56520172E+02   3.32039946E-01
   2.29250000E+03   5.00000000E-01   5.00000000E-01  -5.33698459E+00  -2.07976820E+00  -4.62488689E+00  -1.38923074E+01   9.27297380E-04   7.79355867E-01  -3.48649173E-01  -2.37510668E+00  -3.03590893E-07  -1.32653361E-01   1.24200655E+00   1.54471334E+00   7.85687235E-05  -2.80872240E+00  -1.55520164E+02   3.29185564E-01
   2.32750000E+03   5.00000000E-01   5.00000000E-01  -5.30582499E+00  -2.06797262E+00  -4.59813575E+00  -1.39242282E+01   8.92041132E-04   7.74422208E-01  -3.50492831E-01  -2.39483053E+00  -3.45061418E-07  -1.19883288E-01   1.23941150E+00   1.56275138E+00   7.85565450E-05  -2.81968912E+00  -1.54529369E+02   3.26299464E-01
   2.36250000E+03   5.00000000E-01   5.00000000E-01  -5.27481535E+00  -2.05624645E+00  -4.57195993E+00  -1.39580973E+01   8.57926946E-04   7.69726779E-01  -3.52483460E-01  -2.41517018E+00  -3.92030780E-07  -1.07428307E-01   1.23665456E+00   1.58050858E+00   7.86471767E-05  -2.83099863E+00  -1.53547656E+02   3.23382053E-01
   2.39750000E+03   5.00000000E-01   5.00000000E-01  -5.24395293E+00  -2.04458838E+00  -4.54635218E+00  -1.39938800E+01   8.24924639E-04   7.65265833E-01  -3.54619482E-01  -2.43611345E+00  -4.45201649E-07  -9.52861817E-02   1.23373403E+00   1.59798510E+00   7.88408310E-05  -2.84264607E+00  -1.52574897E+02   3.20433804E-01
   2.43250000E+03   5.00000000E-01   5.00000000E-01  -5.21323501E+00  -2.03299708E+00  -4.52130513E+00  -1.40315400E+01   7.93004818E-04   7.61035481E-01  -3.56899390E-01  -2.45764766E+00  -5.05359835E-07  -8.34548932E-02   1.23064798E+00   1.61518071E+00   7.91382099E-05  -2.85462638E+00  -1.51610968E+02   3.17455196E-01
   2.46750000E+03   5.00000000E-01   5.00000000E-01  -5.18265886E+00  -2.02147128E+00  -4.49681121E+00  -1.40710397E+01   7.62138845E-04   7.57031920E-01  -3.59321832E-01  -2.47975958E+00  -5.73382235E-07  -7.19326553E-02   1.22739428E+00   1.63209494E+00   7.95405144E-05  -2.86693433E+00  -1.50655745E+02   3.14446652E-01
   2.50250000E+03   5.00000000E-01   5.00000000E-01  -5.15222169E+00  -2.01000970E+00  -4.47286259E+00  -1.41123392E+01   7.32298801E-04   7.53251617E-01  -3.61885686E-01  -2.50243540E+00  -6.50245202E-07  -6.07179255E-02   1.22397057E+00   1.64872722E+00   8.00494445E-05  -2.87956450E+00  -1.49709111E+02   3.11408500E-01
   2.53750000E+03   5.00000000E-01   5.00000000E-01  -5.12192062E+00  -1.99861107E+00  -4.44945115E+00  -1.41553971E+01   7.03457445E-04   7.49691472E-01  -3.64590115E-01  -2.52566076E+00  -7.37033112E-07  -4.98094158E-02   1.22037430E+00   1.66507695E+00   8.06671899E-05  -2.89251124E+00  -1.48770948E+02   3.08340926E-01
   2.57250000E+03   5.00000000E-01   5.00000000E-01  -5.09175259E+00  -1.98727414E+00  -4.42656837E+00  -1.42001697E+01   6.75588167E-04   7.46348935E-01  -3.67434624E-01  -2.54942069E+00  -8.34947009E-07  -3.92061011E-02   1.21660269E+00   1.68114361E+00   8.13964129E-05  -2.90576869E+00  -1.47841144E+02   3.05243949E-01
   2.60750000E+03   5.00000000E-01   5.00000000E-01  -5.06171439E+00  -1.97599764E+00  -4.40420538E+00  -1.42466115E+01   6.48664949E-04   7.43222113E-01  -3.70419085E-01  -2.57369967E+00  -9.45313150E-07  -2.89072268E-02   1.21265281E+00   1.69692679E+00   8.22402236E-05  -2.91933074E+00  -1.46919588E+02   3.02117395E-01
   2.64250000E+03   5.00000000E-01   5.00000000E-01  -5.03180260E+00  -1.96478032E+00  -4.38235286E+00  -1.42946747E+01   6.22662314E-04   7.40309837E-01  -3.73543778E-01  -2.59848162E+00  -1.06959112E-06  -1.89123144E-02   1.20852148E+00   1.71242626E+00   8.32021465E-05  -2.93319103E+00  -1.46006173E+02   2.98960877E-01
   2.67750000E+03   5.00000000E-01   5.00000000E-01  -5.00201360E+00  -1.95362094E+00  -4.36100103E+00  -1.43443095E+01   5.97555287E-04   7.37611718E-01  -3.76809399E-01  -2.62374991E+00  -1.20938149E-06  -9.22116536E-03   1.20420536E+00   1.72764199E+00   8.42860795E-05  -2.94734295E+00  -1.45100796E+02   2.95773784E-01
   2.71250000E+03   5.00000000E-01   5.00000000E-01  -4.97234353E+00  -1.94251824E+00  -4.34013966E+00  -1.43954640E+01   5.73319353E-04   7.35128175E-01  -3.80217077E-01  -2.64948741E+00  -1.36643220E-06   1.66136708E-04   1.19970091E+00   1.74257417E+00   8.54962441E-05  -2.96177959E+00  -1.44203357E+02   2.92555273E-01
   2.74750000E+03   5.00000000E-01   5.00000000E-01  -4.94278832E+00  -1.93147097E+00  -4.31975797E+00  -1.44480841E+01   5.49930418E-04   7.32860456E-01  -3.83768370E-01  -2.67567649E+00  -1.54264410E-06   9.24923413E-03   1.19500438E+00   1.75722325E+00   8.68371247E-05  -2.97649374E+00  -1.43313756E+02   2.89304263E-01
   2.78250000E+03   5.00000000E-01   5.00000000E-01  -4.91334365E+00  -1.92047787E+00  -4.29984470E+00  -1.45021138E+01   5.27364772E-04   7.30810632E-01  -3.87465259E-01  -2.70229908E+00  -1.74007337E-06   1.80275007E-02   1.19011188E+00   1.77158990E+00   8.83134038E-05  -2.99147787E+00  -1.42431901E+02   2.86019444E-01
   2.81750000E+03   5.00000000E-01   5.00000000E-01  -4.88400499E+00  -1.90953769E+00  -4.28038806E+00  -1.45574950E+01   5.05599056E-04   7.28981560E-01  -3.91310149E-01  -2.72933673E+00  -1.96093287E-06   2.65000229E-02   1.18501930E+00   1.78567501E+00   8.99298859E-05  -3.00672412E+00  -1.41557700E+02   2.82699274E-01
   2.85250000E+03   5.00000000E-01   5.00000000E-01  -4.85476760E+00  -1.89864917E+00  -4.26137572E+00  -1.46141677E+01   4.84610235E-04   7.27376857E-01  -3.95305836E-01  -2.75677058E+00  -2.20758867E-06   3.46656283E-02   1.17972235E+00   1.79947967E+00   9.16914076E-05  -3.02222431E+00  -1.40691064E+02   2.79341995E-01
   2.88750000E+03   5.00000000E-01   5.00000000E-01  -4.82562655E+00  -1.88781106E+00  -4.24279483E+00  -1.46720703E+01   4.64375571E-04   7.26000853E-01  -3.99455479E-01  -2.78458148E+00  -2.48255392E-06   4.25229016E-02   1.17421661E+00   1.81300518E+00   9.36027389E-05  -3.03796986E+00  -1.39831910E+02   2.75945648E-01
   2.92250000E+03   5.00000000E-01   5.00000000E-01  -4.79657673E+00  -1.87702211E+00  -4.22463196E+00  -1.47311392E+01   4.44872600E-04   7.24858522E-01  -4.03762565E-01  -2.81275004E+00  -2.78847794E-06   5.00702062E-02   1.16849750E+00   1.82625302E+00   9.56684742E-05  -3.05395180E+00  -1.38980154E+02   2.72508089E-01
   2.95750000E+03   5.00000000E-01   5.00000000E-01  -4.76761288E+00  -1.86628105E+00  -4.20687317E+00  -1.47913093E+01   4.26079115E-04   7.23955408E-01  -4.08230858E-01  -2.84125662E+00  -3.12812927E-06   5.73057124E-02   1.16256035E+00   1.83922483E+00   9.78929122E-05  -3.07016077E+00  -1.38135718E+02   2.69027013E-01
   2.99250000E+03   5.00000000E-01   5.00000000E-01  -4.73872964E+00  -1.85558665E+00  -4.18950396E+00  -1.48525140E+01   4.07973149E-04   7.23297531E-01  -4.12864344E-01  -2.87008149E+00  -3.50437308E-06   6.42274315E-02   1.15640038E+00   1.85192239E+00   1.00279926E-04  -3.08658693E+00  -1.37298527E+02   2.65499982E-01
   3.02750000E+03   5.00000000E-01   5.00000000E-01  -4.70992156E+00  -1.84493768E+00  -4.17250928E+00  -1.49146854E+01   3.90532966E-04   7.22891286E-01  -4.17667172E-01  -2.89920483E+00  -3.92014091E-06   7.08332575E-02   1.15001283E+00   1.86434760E+00   1.02832822E-04  -3.10321999E+00  -1.36468506E+02   2.61924457E-01
   3.06250000E+03   5.00000000E-01   5.00000000E-01  -4.68118319E+00  -1.83433291E+00  -4.15587356E+00  -1.49777546E+01   3.73737047E-04   7.22743320E-01  -4.22643572E-01  -2.92860680E+00  -4.37839315E-06   7.71210160E-02   1.14339290E+00   1.87650248E+00   1.05554196E-04  -3.12004916E+00  -1.35645587E+02   2.58297835E-01
   3.09750000E+03   5.00000000E-01   5.00000000E-01  -4.65250905E+00  -1.82377114E+00  -4.13958068E+00  -1.50416515E+01   3.57564083E-04   7.22860406E-01  -4.27797778E-01  -2.95826769E+00  -4.88207295E-06   8.30885220E-02   1.13653591E+00   1.88838911E+00   1.08445775E-04  -3.13706310E+00  -1.34829701E+02   2.54617485E-01
   3.13250000E+03   5.00000000E-01   5.00000000E-01  -4.62389378E+00  -1.81325119E+00  -4.12361402E+00  -1.51063054E+01   3.41992972E-04   7.23249305E-01  -4.33133935E-01  -2.98816792E+00  -5.43405181E-06   8.87336446E-02   1.12943727E+00   1.90000965E+00   1.11508260E-04  -3.15424992E+00  -1.34020784E+02   2.50880799E-01
   3.16750000E+03   5.00000000E-01   5.00000000E-01  -4.59533212E+00  -1.80277191E+00  -4.10795646E+00  -1.51716450E+01   3.27002814E-04   7.23916604E-01  -4.38655994E-01  -3.01828818E+00  -6.03706624E-06   9.40543802E-02   1.12209265E+00   1.91136633E+00   1.14741170E-04  -3.17159713E+00  -1.33218773E+02   2.47085235E-01