 TITLE = "Mineral Saturation State" 
VARIABLES = "X"          "Y"              "Z"            "Forsterite"     "Fayalite"       "Brucite"        "Lizardite"      "Chrysotile"     "Saponite(Mg)"   "Enstatite(alph" "Ferrosilite(al" "Anorthite"      "Albite(low)"    "Clinochlore"    "Sudoite"        "Montmorillonit" "Kaolinite"      "Tremolite"      "Pargasite"      "Anhydrite"      "Epidote"        "Scolecite"      "Pyrite"         "FeS(am)"        "Quartz(alpha)" 
 ZONE I=         100 , J=           1 , K=           1  F=POINT
   1.75000000E+01   5.00000000E-01   5.00000000E-01  -6.54837100E+00  -3.76451302E-01  -4.79616123E+00  -2.48729617E-01  -3.65197849E-01   3.02665928E+00  -1.97658346E+00   4.94903225E-02  -1.20731895E+01  -5.87941758E-01   1.98473611E-03  -8.29007488E+00  -1.83118700E+00  -5.57958755E+00  -3.87835245E-01  -3.16983544E+01  -9.52474135E-01  -4.11122749E-06  -6.27996667E+00  -3.18094872E+01  -3.49553424E+00   1.31338878E+00
   5.25000000E+01   5.00000000E-01   5.00000000E-01  -6.58818298E+00  -1.38599032E-01  -4.89958393E+00  -3.75478193E-01  -4.87920769E-01   3.18777859E+00  -1.93017056E+00   2.43709344E-01  -1.14796453E+01  -6.55158579E-02   1.92032488E-03  -7.53378124E+00  -1.03882460E+00  -4.96424909E+00  -9.41911879E-02  -3.08978479E+01  -9.04000944E-01   1.60774026E-06  -5.62971611E+00  -3.13179545E+01  -3.42575932E+00   1.46008321E+00
   8.75000000E+01   5.00000000E-01   5.00000000E-01  -6.52856752E+00  -5.33221318E-02  -4.89843710E+00  -4.05478885E-01  -5.13981117E-01   3.24767579E+00  -1.88877964E+00   3.06741891E-01  -1.12055326E+01   8.00322575E-02   1.84947631E-03  -7.29310471E+00  -7.97300707E-01  -4.76763846E+00   4.95502752E-02  -3.03851476E+01  -8.56680991E-01   2.50534297E-07  -5.40737083E+00  -3.09734667E+01  -3.42328268E+00   1.49703985E+00
   1.22500000E+02   5.00000000E-01   5.00000000E-01  -6.45328128E+00  -2.36131715E-02  -4.87316067E+00  -4.25862677E-01  -5.30507149E-01   3.26263274E+00  -1.85572377E+00   3.25661805E-01  -1.10037445E+01   1.26086556E-01   1.82052430E-03  -7.15556778E+00  -6.96936310E-01  -4.66445547E+00   1.01702186E-01  -2.99586041E+01  -8.09838866E-01   2.23757049E-08  -5.28870995E+00  -3.06744439E+01  -3.44348148E+00   1.50139650E+00
   1.57500000E+02   5.00000000E-01   5.00000000E-01  -6.37505478E+00  -1.34625792E-02  -4.84110644E+00  -4.44794954E-01  -5.45661642E-01   3.26156215E+00  -1.82637854E+00   3.29468226E-01  -1.08255689E+01   1.40714308E-01   1.81175574E-03  -7.04809610E+00  -6.41162164E-01  -4.58976790E+00   1.18761838E-01  -2.95651038E+01  -7.63146522E-01  -4.16056225E-08  -5.20305821E+00  -3.03945131E+01  -3.47206571E+00   1.49513954E+00
   1.92500000E+02   5.00000000E-01   5.00000000E-01  -6.29739647E+00  -1.02912402E-02  -4.80763712E+00  -4.63984759E-01  -5.61151138E-01   3.25471227E+00  -1.79888705E+00   3.28066300E-01  -1.06560994E+01   1.45670400E-01   1.81139164E-03  -6.94924784E+00  -5.99397298E-01  -4.52382995E+00   1.21882840E-01  -2.91870693E+01  -7.16474065E-01  -6.06048298E-08  -5.12830281E+00  -3.01249726E+01  -3.50410722E+00   1.48549798E+00
   2.27500000E+02   5.00000000E-01   5.00000000E-01  -6.22687731E+00  -1.12692249E-02  -4.77809163E+00  -4.91288539E-01  -5.84829694E-01   3.24259357E+00  -1.77447915E+00   3.24930924E-01  -1.04775169E+01   1.57928538E-01   1.82375125E-03  -6.82841673E+00  -5.45860629E-01  -4.44389524E+00   1.07279207E-01  -2.88118956E+01  -6.69679044E-01  -5.08414047E-08  -5.04252939E+00  -2.98606448E+01  -3.53816336E+00   1.47658963E+00
   2.62500000E+02   5.00000000E-01   5.00000000E-01  -6.19756191E+00  -2.49663640E-02  -4.77412787E+00  -5.73229757E-01  -6.63218480E-01   3.20406985E+00  -1.76555975E+00   3.20408685E-01  -1.02112323E+01   2.34836332E-01   1.89896813E-03  -6.53979330E+00  -3.87569448E-01  -4.25072730E+00  -7.16022763E-04  -2.84016841E+01  -6.22185109E-01   7.19859057E-08  -4.85790947E+00  -2.95880688E+01  -3.57540760E+00   1.47767558E+00
   2.97500000E+02   5.00000000E-01   5.00000000E-01  -6.19623904E+00  -4.19670144E-02  -4.78632448E+00  -6.92858181E-01  -7.79365067E-01   3.14321234E+00  -1.76833758E+00   3.16397047E-01  -9.88941379E+00   3.48936959E-01   1.98718498E-03  -6.14176102E+00  -1.67321717E-01  -3.98570915E+00  -1.81711882E-01  -2.79748021E+01  -5.74014876E-01   2.07690441E-07  -4.61225534E+00  -2.93103122E+01  -3.61239612E+00   1.48313332E+00
   3.32500000E+02   5.00000000E-01   5.00000000E-01  -6.13911965E+00  -2.94304050E-02  -4.76653163E+00  -7.30795073E-01  -8.13888610E-01   3.13226304E+00  -1.74717233E+00   3.23065983E-01  -9.69356198E+00   3.84943625E-01   1.97358361E-03  -5.98203053E+00  -7.93396960E-02  -3.87705781E+00  -2.01705123E-01  -2.76012424E+01  -5.25934414E-01   2.83002674E-08  -4.49959117E+00  -2.90531312E+01  -3.64300857E+00   1.48046031E+00
   3.67500000E+02   5.00000000E-01   5.00000000E-01  -6.06281619E+00  -1.75341893E-02  -4.73449561E+00  -7.40567375E-01  -8.20314029E-01   3.13446255E+00  -1.71892939E+00   3.26771161E-01  -9.54715740E+00   3.86964058E-01   1.95435871E-03  -5.91090009E+00  -4.71525533E-02  -3.82869475E+00  -1.75598602E-01  -2.72560525E+01  -4.78112852E-01  -3.79522255E-08  -4.44053072E+00  -2.88120326E+01  -3.67631666E+00   1.47254395E+00
   4.02500000E+02   5.00000000E-01   5.00000000E-01  -5.98358228E+00  -1.14577038E-02  -4.69971175E+00  -7.45234071E-01  -8.21698367E-01   3.13637033E+00  -1.69036654E+00   3.26295464E-01  -9.41448488E+00   3.78303236E-01   1.94549453E-03  -5.86041293E+00  -3.19045717E-02  -3.79573851E+00  -1.47399452E-01  -2.69246330E+01  -4.30576204E-01  -5.26854950E-08  -4.39663543E+00  -2.85812934E+01  -3.71296195E+00   1.46212783E+00
   4.37500000E+02   5.00000000E-01   5.00000000E-01  -5.90465397E+00  -8.71388293E-03  -4.66445158E+00  -7.49041611E-01  -8.22286212E-01   3.13679795E+00  -1.66244806E+00   3.23539565E-01  -9.28743749E+00   3.65585337E-01   1.94293772E-03  -5.81615864E+00  -2.32404816E-02  -3.76802154E+00  -1.22224706E-01  -2.66021028E+01  -3.83325952E-01  -5.46810326E-08  -4.35850529E+00  -2.83580141E+01  -3.75158839E+00   1.45052480E+00
   4.72500000E+02   5.00000000E-01   5.00000000E-01  -5.82681444E+00  -7.52381831E-03  -4.62939549E+00  -7.52920645E-01  -8.23006421E-01   3.13595188E+00  -1.63527669E+00   3.19685024E-01  -9.16362424E+00   3.51117525E-01   1.94349913E-03  -5.77427158E+00  -1.77143179E-02  -3.74260629E+00  -1.00042292E-01  -2.62864641E+01  -3.36358550E-01  -5.21559573E-08  -4.32318582E+00  -2.81408486E+01  -3.79136618E+00   1.43831775E+00
   5.07500000E+02   5.00000000E-01   5.00000000E-01  -5.75031323E+00  -7.02792873E-03  -4.59479951E+00  -7.57157809E-01  -8.24143909E-01   3.13403166E+00  -1.60884616E+00   3.15295838E-01  -9.04207974E+00   3.35866268E-01   1.94559037E-03  -5.73333798E+00  -1.39091100E-02  -3.71836482E+00  -8.04508981E-02  -2.59767191E+01  -2.89669451E-01  -4.73500610E-08  -4.28946343E+00  -2.79291536E+01  -3.83190433E+00   1.42577380E+00
   5.42500000E+02   5.00000000E-01   5.00000000E-01  -5.67524140E+00  -6.84355451E-03  -4.56077388E+00  -7.61867378E-01  -8.25811299E-01   3.13115690E+00  -1.58313761E+00   3.10630721E-01  -8.92231359E+00   3.20297206E-01   1.94849186E-03  -5.69271463E+00  -1.11448731E-02  -3.69476838E+00  -6.31357455E-02  -2.56722713E+01  -2.43254080E-01  -4.10965625E-08  -4.25673270E+00  -2.77225902E+01  -3.87302810E+00   1.41302655E+00
   5.77500000E+02   5.00000000E-01   5.00000000E-01  -5.60162573E+00  -6.80254257E-03  -4.52736766E+00  -7.67095175E-01  -8.28052820E-01   3.12740710E+00  -1.55812931E+00   3.05811812E-01  -8.80403849E+00   3.04660953E-01   1.95187321E-03  -5.65207769E+00  -9.05625529E-03  -3.67153963E+00  -4.78434862E-02  -2.53727071E+01  -1.97108059E-01  -3.38144831E-08  -4.22464949E+00  -2.75209505E+01  -3.91465755E+00   1.40015097E+00
   6.12500000E+02   5.00000000E-01   5.00000000E-01  -5.52946155E+00  -6.83049178E-03  -4.49460052E+00  -7.72852487E-01  -8.30878229E-01   3.12284463E+00  -1.53379761E+00   3.00900446E-01  -8.68706967E+00   2.89104686E-01   1.95555619E-03  -5.61126088E+00  -7.42977215E-03  -3.64852453E+00  -3.43504043E-02  -2.50777078E+01  -1.51227204E-01  -2.57794970E-08  -4.19299961E+00  -2.73240834E+01  -3.95675217E+00   1.38719427E+00
   6.47500000E+02   5.00000000E-01   5.00000000E-01  -5.45872800E+00  -6.89447990E-03  -4.46247688E+00  -7.79132355E-01  -8.34279092E-01   3.11752307E+00  -1.51011801E+00   2.95929841E-01  -8.57127929E+00   2.73720908E-01   1.95941400E-03  -5.57018165E+00  -6.13229965E-03  -3.62563461E+00  -2.24524638E-02  -2.47870109E+01  -1.05607464E-01  -1.72114892E-08  -4.16164010E+00  -2.71318613E+01  -3.99928665E+00   1.37418895E+00
   6.82500000E+02   5.00000000E-01   5.00000000E-01  -5.38939602E+00  -6.98044613E-03  -4.43099289E+00  -7.85918726E-01  -8.38237935E-01   3.11148965E+00  -1.48706627E+00   2.90919388E-01  -8.45657295E+00   2.58570839E-01   1.96334699E-03  -5.52880283E+00  -5.07638218E-03  -3.60281785E+00  -1.19642594E-02  -2.45003905E+01  -6.02448326E-02  -8.30638341E-09  -4.13046981E+00  -2.69441660E+01  -4.04224037E+00   1.36115876E+00
   7.17500000E+02   5.00000000E-01   5.00000000E-01  -5.32143280E+00  -7.08310794E-03  -4.40014011E+00  -7.93191612E-01  -8.42733403E-01   3.10478597E+00  -1.46461903E+00   2.85881195E-01  -8.34287692E+00   2.43696571E-01   1.96729487E-03  -5.48711186E+00  -4.20210515E-03  -3.58004299E+00  -2.71932524E-03  -2.42176474E+01  -1.51352737E-02   7.52505599E-10  -4.09941358E+00  -2.67608820E+01  -4.08559284E+00   1.34812175E+00
   7.52500000E+02   5.00000000E-01   5.00000000E-01  -5.25480403E+00  -7.20121760E-03  -4.36990753E+00  -8.00929657E-01  -8.47742822E-01   3.09744879E+00  -1.44275414E+00   2.80823316E-01  -8.23013106E+00   2.29127762E-01   1.97122217E-03  -5.44510996E+00  -3.46721547E-03  -3.55729126E+00   5.43096017E-03  -2.39386027E+01   2.97253312E-02   9.79122859E-09  -4.06841358E+00  -2.65818933E+01  -4.12932185E+00   1.33509189E+00
   7.87500000E+02   5.00000000E-01   5.00000000E-01  -5.18947508E+00  -7.33528138E-03  -4.34028264E+00  -8.09111438E-01  -8.53243498E-01   3.08951066E+00  -1.42145072E+00   2.75751438E-01  -8.11828471E+00   2.14885714E-01   1.97510880E-03  -5.40280608E+00  -2.84121709E-03  -3.53455160E+00   1.26191944E-02  -2.36630936E+01   7.43412152E-02   1.86466954E-08  -4.03742399E+00  -2.64070829E+01  -4.17340288E+00   1.32208026E+00
   8.22500000E+02   5.00000000E-01   5.00000000E-01  -5.12541167E+00  -7.48639505E-03  -4.31125213E+00  -8.17716054E-01  -8.59213305E-01   3.08100067E+00  -1.40068907E+00   2.70669839E-01  -8.00729394E+00   2.00986030E-01   1.97894642E-03  -5.36021352E+00  -2.30165792E-03  -3.51181795E+00   1.89642476E-02  -2.33909701E+01   1.18716735E-01   2.71697300E-08  -4.00640756E+00  -2.62363326E+01  -4.21780909E+00   1.30909573E+00
   8.57500000E+02   5.00000000E-01   5.00000000E-01  -5.06258011E+00  -7.65561273E-03  -4.28280232E+00  -8.26723350E-01  -8.65630903E-01   3.07194507E+00  -1.38045058E+00   2.65581974E-01  -7.89711979E+00   1.87440402E-01   1.98274025E-03  -5.31734815E+00  -1.83172653E-03  -3.48908755E+00   2.45736416E-02  -2.31220923E+01   1.62856361E-01   3.52279928E-08  -3.97533334E+00  -2.60695230E+01  -4.26251157E+00   1.29614552E+00
   8.92500000E+02   5.00000000E-01   5.00000000E-01  -5.00094751E+00  -7.84358842E-03  -4.25491936E+00  -8.36113970E-01  -8.72475798E-01   3.06236783E+00  -1.36071758E+00   2.60490840E-01  -7.78772698E+00   1.74257861E-01   1.98650626E-03  -5.27422727E+00  -1.41866267E-03  -3.46635994E+00   2.95457792E-02  -2.28563286E+01   2.06764653E-01   4.27084768E-08  -3.94417498E+00  -2.59065349E+01  -4.30747979E+00   1.28323559E+00
   9.27500000E+02   5.00000000E-01   5.00000000E-01  -4.94048179E+00  -8.05037833E-03  -4.22758944E+00  -8.45869424E-01  -8.79728395E-01   3.05229093E+00  -1.34147332E+00   2.55399204E-01  -7.67908280E+00   1.61445690E-01   1.99027164E-03  -5.23086893E+00  -1.05265378E-03  -3.44363630E+00   3.39717325E-02  -2.25935530E+01   2.50446220E-01   4.95191004E-08  -3.91290942E+00  -2.57472493E+01  -4.35268194E+00   1.27037084E+00
   9.62500000E+02   5.00000000E-01   5.00000000E-01  -4.88115189E+00  -8.27533021E-03  -4.20079888E+00  -8.55972183E-01  -8.87370104E-01   3.04173450E+00  -1.32270191E+00   2.50309731E-01  -7.57115616E+00   1.49010095E-01   1.99407563E-03  -5.18729118E+00  -7.26049288E-04  -3.42091883E+00   3.79365806E-02  -2.23336442E+01   2.93905674E-01   5.55893365E-08  -3.88151575E+00  -2.55915486E+01  -4.39808535E+00   1.25755534E+00
   9.97500000E+02   5.00000000E-01   5.00000000E-01  -4.82292777E+00  -8.51702466E-03  -4.17453424E+00  -8.66405841E-01  -8.95383489E-01   3.03071683E+00  -1.30438834E+00   2.45225058E-01  -7.46391666E+00   1.36956708E-01   1.99796983E-03  -5.14351153E+00  -4.32790833E-04  -3.39821032E+00   4.15203220E-02  -2.20764835E+01   3.37147573E-01   6.08695894E-08  -3.84997426E+00  -2.54393171E+01  -4.44365686E+00   1.24479233E+00
   1.03250000E+03   5.00000000E-01   5.00000000E-01  -4.76578065E+00  -8.77325802E-03  -4.14878236E+00  -8.77155359E-01  -9.03752520E-01   3.01925417E+00  -1.28651855E+00   2.40147815E-01  -7.35733378E+00   1.25290969E-01   2.00201660E-03  -5.09954615E+00  -1.67987217E-04  -3.37551363E+00   4.47983208E-02  -2.18219537E+01   3.80176366E-01   6.53300034E-08  -3.81826557E+00  -2.52904414E+01  -4.48936313E+00   1.23208428E+00
   1.06750000E+03   5.00000000E-01   5.00000000E-01  -4.70968315E+00  -9.04104875E-03  -4.12353048E+00  -8.88207409E-01  -9.12462908E-01   3.00736038E+00  -1.26907954E+00   2.35080601E-01  -7.25137594E+00   1.14018411E-01   2.00630470E-03  -5.05540904E+00   7.24256885E-05  -3.35283118E+00   4.78412683E-02  -2.15699379E+01   4.22996331E-01   6.89584946E-08  -3.78636975E+00  -2.51448115E+01  -4.53517087E+00   1.21943286E+00
   1.10250000E+03   5.00000000E-01   5.00000000E-01  -4.65461003E+00  -9.31664351E-03  -4.09876638E+00  -8.99551633E-01  -9.21503366E-01   2.99504541E+00  -1.25205993E+00   2.30025820E-01  -7.14600891E+00   1.03144710E-01   2.01097133E-03  -5.01110938E+00   2.91957979E-04  -3.33016361E+00   5.07120015E-02  -2.13203188E+01   4.65611523E-01   7.17586268E-08  -3.75426508E+00  -2.50023204E+01  -4.58104690E+00   1.20683861E+00
   1.13750000E+03   5.00000000E-01   5.00000000E-01  -5.93223754E+00  -9.52886305E-01  -4.38158718E+00  -3.26747062E+00  -3.28715559E+00   5.53453103E-03  -2.26004051E+00  -6.05400639E-01  -5.10099098E+00  -3.73292470E-01  -2.28111189E-02  -4.06990451E-01   1.72384883E-02  -1.07931134E+00  -7.79792020E+00  -2.18326521E+01   5.07838791E-01   9.23955556E-07  -2.49920505E+00  -2.47883932E+01  -4.71092790E+00   4.76819065E-01
   1.17250000E+03   5.00000000E-01   5.00000000E-01  -5.49187631E+00  -3.71188532E-01  -4.26324638E+00  -2.59935865E+00  -2.61681298E+00   8.40405892E-01  -1.95108007E+00  -2.20319863E-01  -5.53104419E+00  -2.54542407E-01   2.46714497E-03  -1.66267368E+00  -3.63968241E-03  -1.70221886E+00  -5.51437879E+00  -2.13055110E+01   5.50216062E-01  -3.11562412E-08  -2.80272830E+00  -2.45323694E+01  -4.57622923E+00   6.62570070E-01
   1.20750000E+03   5.00000000E-01   5.00000000E-01  -5.25004131E+00  -1.12705547E-01  -4.19700053E+00  -2.27501496E+00  -2.29027394E+00   1.25374318E+00  -1.78843872E+00  -4.39739863E-02  -5.69209750E+00  -1.89199912E-01   2.34077462E-03  -2.27302811E+00  -1.02729182E-03  -1.99805113E+00  -4.35856011E+00  -2.09232180E+01   5.92998260E-01   2.70610341E-10  -2.93077852E+00  -2.43561758E+01  -4.55037627E+00   7.54089121E-01
   1.24250000E+03   5.00000000E-01   5.00000000E-01  -5.08063529E+00   1.84764156E-03  -4.14738118E+00  -2.07773866E+00  -2.09083678E+00   1.50589361E+00  -1.68148933E+00   4.08595316E-02  -5.75447410E+00  -1.52112223E-01   2.24591066E-03  -2.63632951E+00   6.21470180E-04  -2.17382088E+00  -3.63852912E+00  -2.05972262E+01   6.35963181E-01   9.70191798E-09  -2.99853116E+00  -2.42211314E+01  -4.57463608E+00   8.06535871E-01
   1.27750000E+03   5.00000000E-01   5.00000000E-01  -4.94484362E+00   4.82410662E-02  -4.10556237E+00  -1.93875105E+00  -1.94972198E+00   1.68398216E+00  -1.60024494E+00   8.26468484E-02  -5.77226632E+00  -1.28013764E-01   2.21004819E-03  -2.88654050E+00   1.58399899E-03  -2.29474116E+00  -3.11868106E+00  -2.02987813E+01   6.78896387E-01   1.36215249E-08  -3.03892836E+00  -2.41071728E+01  -4.62280037E+00   8.41072186E-01
   1.31250000E+03   5.00000000E-01   5.00000000E-01  -4.82974221E+00   6.21606462E-02  -4.06874728E+00  -1.83502469E+00  -1.84390136E+00   1.81756747E+00  -1.53457997E+00   1.02895911E-01  -5.76182106E+00  -1.10504808E-01   2.21552548E-03  -3.06798631E+00   3.10660831E-03  -2.38209378E+00  -2.71658511E+00  -2.00143840E+01   7.21789582E-01   1.95064250E-08  -3.06099885E+00  -2.40032424E+01  -4.68116843E+00   8.65027638E-01
   1.34750000E+03   5.00000000E-01   5.00000000E-01  -4.72913507E+00   6.17924749E-02  -4.03542687E+00  -1.75569994E+00  -1.76251454E+00   1.92014476E+00  -1.47980914E+00   1.12288467E-01  -5.73096740E+00  -9.72169660E-02   2.26913953E-03  -3.20218555E+00   4.73954247E-03  -2.44654615E+00  -2.39366115E+00  -1.97374487E+01   7.64681875E-01   2.59618644E-08  -3.06940588E+00  -2.39035533E+01  -4.74248999E+00   8.81579245E-01
   1.38250000E+03   5.00000000E-01   5.00000000E-01  -5.52989257E+00  -5.53086981E-01  -4.20957994E+00  -3.27056154E+00  -3.27534554E+00   9.16360624E-03  -2.11882573E+00  -4.28743981E-01  -4.36555774E+00  -3.89194822E-01  -1.90711700E-03  -2.29053757E-01   2.61968612E-02  -9.93522191E-01  -7.36202681E+00  -1.99301347E+01   8.06298629E-01   2.06078924E-07  -2.22892659E+00  -2.37612494E+01  -4.85554925E+00   4.11813178E-01
   1.41750000E+03   5.00000000E-01   5.00000000E-01  -5.46865616E+00  -3.64678736E-01  -4.18196615E+00  -3.26215491E+00  -3.26493907E+00   1.25371557E-02  -2.09751321E+00  -3.38863356E-01  -4.25616844E+00  -3.91337963E-01   2.19725808E-03  -2.32056523E-01   1.16235643E-02  -1.00154504E+00  -7.24062673E+00  -1.96181376E+01   8.48131457E-01   3.46175843E-08  -2.18527123E+00  -2.35722006E+01  -4.80993952E+00   4.00606253E-01
   1.45250000E+03   5.00000000E-01   5.00000000E-01  -5.41110122E+00  -2.25495404E-01  -4.15837298E+00  -3.25606494E+00  -3.25687938E+00   2.03095743E-02  -2.07576113E+00  -2.71376550E-01  -4.14087030E+00  -3.81178769E-01   2.25011262E-03  -2.27189239E-01   1.35765973E-02  -9.99864455E-01  -7.10890527E+00  -1.93031378E+01   8.90182167E-01   2.50995720E-08  -2.13062257E+00  -2.34096140E+01  -4.79051226E+00   3.93856958E-01
   1.48750000E+03   5.00000000E-01   5.00000000E-01  -5.34460648E+00  -1.16059949E-01  -4.13298102E+00  -3.23288962E+00  -3.23176377E+00   4.97507975E-02  -2.04676932E+00  -2.16054231E-01  -4.04082938E+00  -3.67332117E-01   2.30965070E-03  -2.55772167E-01   1.55881436E-02  -1.01445849E+00  -6.92034229E+00  -1.89858494E+01   9.32418587E-01   1.73439862E-08  -2.08517561E+00  -2.32670367E+01  -4.78830299E+00   3.92546596E-01
   1.52250000E+03   5.00000000E-01   5.00000000E-01  -5.17172218E+00   2.83428313E-02  -4.08323679E+00  -3.02030352E+00  -3.01726620E+00   3.18102077E-01  -1.93564315E+00  -1.14367846E-01  -4.10506711E+00  -3.19593980E-01   2.68595825E-03  -6.54577226E-01   1.37417346E-02  -1.21008529E+00  -6.11201390E+00  -1.86268020E+01   9.74950925E-01   7.46273421E-09  -2.14562021E+00  -2.31473183E+01  -4.79796755E+00   4.49016761E-01
   1.55750000E+03   5.00000000E-01   5.00000000E-01  -5.05404287E+00   8.37948688E-02  -4.04714057E+00  -2.90351547E+00  -2.89859488E+00   4.67443030E-01  -1.86597851E+00  -7.10738681E-02  -4.09203057E+00  -2.88412692E-01   2.65063128E-03  -8.64214700E-01   1.73153589E-02  -1.31183718E+00  -5.62544086E+00  -1.83058462E+01   1.01747126E+00   6.74328267E-09  -2.15600844E+00  -2.30502810E+01  -4.83683291E+00   4.77672270E-01
   1.59250000E+03   5.00000000E-01   5.00000000E-01  -4.96385228E+00   1.01741986E-01  -4.01737118E+00  -2.83443376E+00  -2.82765750E+00   5.56008134E-01  -1.81738198E+00  -5.39129278E-02  -4.03954014E+00  -2.66521174E-01   2.68099253E-03  -9.81460370E-01   2.05216056E-02  -1.36887707E+00  -5.29679801E+00  -1.79998391E+01   1.05966896E+00   6.05397369E-09  -2.14109764E+00  -2.29635166E+01  -4.88638601E+00   4.91585752E-01
   1.62750000E+03   5.00000000E-01   5.00000000E-01  -4.89513790E+00   1.02780070E-01  -3.99267266E+00  -2.80230841E+00  -2.79370350E+00   5.97720856E-01  -1.78509860E+00  -5.08372774E-02  -3.95331601E+00  -2.49661211E-01   2.75885994E-03  -1.02684103E+00   2.46021188E-02  -1.39096515E+00  -5.08377656E+00  -1.76976834E+01   1.10081353E+00   5.44493996E-09  -2.10311808E+00  -2.28811843E+01  -4.93833092E+00   4.94256535E-01
   1.66250000E+03   5.00000000E-01   5.00000000E-01  -4.85375556E+00   9.37048076E-02  -3.97462732E+00  -2.81728739E+00  -2.80688030E+00   5.80418242E-01  -1.77340348E+00  -5.97951828E-02  -3.82228985E+00  -2.37190946E-01   2.87885704E-03  -9.79577853E-01   3.17862795E-02  -1.36746671E+00  -5.01500507E+00  -1.73962608E+01   1.13811241E+00   4.75537794E-09  -2.03370312E+00  -2.28002355E+01  -4.98802085E+00   4.82992132E-01
   1.69750000E+03   5.00000000E-01   5.00000000E-01  -4.84914585E+00   7.82979458E-02  -3.96571439E+00  -2.89579090E+00  -2.88360753E+00   4.84215308E-01  -1.78925960E+00  -8.11373847E-02  -3.63226542E+00  -2.28956753E-01   3.03567000E-03  -8.06345288E-01   4.50006938E-02  -1.28147257E+00  -5.14421639E+00  -1.70983382E+01   1.16006119E+00   3.79758940E-09  -1.92314901E+00  -2.27210379E+01  -5.03146093E+00   4.53309056E-01
   1.73250000E+03   5.00000000E-01   5.00000000E-01  -4.90227248E+00   5.51613720E-02  -3.97221561E+00  -3.07348231E+00  -3.05954805E+00   2.68066785E-01  -1.84735046E+00  -1.19763569E-01  -3.35542939E+00  -2.21768370E-01   3.24167805E-03  -4.31609496E-01   7.55530228E-02  -1.09312615E+00  -5.59415978E+00  -1.68184872E+01   1.12954199E+00   2.68284692E-09  -1.75205276E+00  -2.26527382E+01  -5.06535735E+00   3.96805797E-01
   1.76750000E+03   5.00000000E-01   5.00000000E-01  -4.93501794E+00   7.15457386E-02  -3.97540048E+00  -3.21287449E+00  -3.19721421E+00   1.03446111E-01  -1.88829064E+00  -1.31720735E-01  -3.11856177E+00  -1.92573089E-01   3.28270533E-03  -1.27559351E-01   1.16374305E-01  -9.36916458E-01  -5.93056439E+00  -1.65371522E+01   1.00015778E+00   1.42909471E-09  -1.60654788E+00  -2.26203484E+01  -5.08733203E+00   3.54137465E-01
   1.80250000E+03   5.00000000E-01   5.00000000E-01  -4.91726702E+00   1.16318970E-01  -3.97183884E+00  -3.25718406E+00  -3.23982211E+00   7.15553070E-02  -1.88539660E+00  -1.10948011E-01  -2.94376165E+00  -1.15903507E-01   3.17946501E-03   8.69228308E-03   1.89258652E-01  -8.53195141E-01  -5.91378533E+00  -1.61957414E+01   7.96784377E-01   8.11519353E-10  -1.48548836E+00  -2.26372512E+01  -5.11407463E+00   3.48557644E-01
   1.83750000E+03   5.00000000E-01   5.00000000E-01  -4.88830795E+00   1.49206194E-01  -3.98404496E+00  -3.26248969E+00  -3.24344996E+00   1.38250231E-01  -1.85544381E+00  -7.47132436E-02  -2.71945389E+00   6.33375953E-02   3.04454243E-03   1.40314081E-01   3.85415219E-01  -7.34986220E-01  -5.60132246E+00  -1.57073046E+01   5.84605528E-01   5.56114527E-10  -1.27156837E+00  -2.26945471E+01  -5.16738462E+00   3.85805286E-01
   1.87250000E+03   5.00000000E-01   5.00000000E-01  -4.85228242E+00   1.67085805E-01  -3.98731188E+00  -3.26179787E+00  -3.24110376E+00   1.92162357E-01  -1.82728242E+00  -5.13556169E-02  -2.48328762E+00   2.17316305E-01   3.01546966E-03   2.30641314E-01   5.34801771E-01  -6.52099841E-01  -5.23381222E+00  -1.51598958E+01   4.04581301E-01   2.67001442E-10  -1.05600213E+00  -2.27647125E+01  -5.22347535E+00   4.12323416E-01
   1.90750000E+03   5.00000000E-01   5.00000000E-01  -4.83085260E+00   1.71724791E-01  -3.98389759E+00  -3.29619071E+00  -3.27386516E+00   1.74029442E-01  -1.82031811E+00  -4.85653303E-02  -2.19735275E+00   3.33909584E-01   3.08312539E-03   3.49205953E-01   6.22846028E-01  -5.76078413E-01  -4.94085670E+00  -1.45444580E+01   2.70112307E-01   1.01908582E-10  -8.18035105E-01  -2.28379479E+01  -5.27406007E+00   4.10964433E-01
   1.94250000E+03   5.00000000E-01   5.00000000E-01  -4.87882272E+00   1.62260160E-01  -3.99655651E+00  -3.45253755E+00  -3.42860306E+00   1.76411373E-03  -1.86660211E+00  -7.14221230E-02  -1.73173547E+00   4.62567942E-01   3.21503758E-03   7.05911091E-01   7.24415279E-01  -3.83857071E-01  -4.89693921E+00  -1.37750951E+01   1.78760243E-01   2.79701249E-11  -4.37057955E-01  -2.29169539E+01  -5.31650483E+00   3.72431648E-01
   1.97750000E+03   5.00000000E-01   5.00000000E-01  -4.93989032E+00   1.51415548E-01  -3.99624209E+00  -3.64729510E+00  -3.62177372E+00  -2.62906546E-01  -1.93887998E+00  -1.14460112E-01  -1.16269001E+00   5.63733497E-01   3.35682114E-03   1.07369287E+00   7.38272648E-01  -2.18903340E-01  -4.83677133E+00  -1.27860145E+01   1.20933144E-01   3.74004759E-12   8.87541988E-03  -2.30439334E+01  -5.35096757E+00   2.94932994E-01
   2.01250000E+03   5.00000000E-01   5.00000000E-01  -4.69853548E+00   1.38125126E-01  -3.84790780E+00  -3.38448462E+00  -3.35739799E+00  -1.63620235E-01  -1.85667972E+00  -1.55499346E-01  -8.45751087E-01   5.51935020E-01   3.33411650E-03   2.35593902E-01   2.80948828E-01  -8.02022854E-01  -2.99120794E+00  -1.10673423E+01   8.59385761E-02   1.99037186E-13   2.09648347E-01  -2.35210250E+01  -5.46132727E+00   2.23894011E-01
   2.04750000E+03   5.00000000E-01   5.00000000E-01  -4.32684417E+00   2.87324970E-02  -3.63630421E+00  -2.92354187E+00  -2.89491121E+00   9.48341545E-02  -1.70733817E+00  -2.42661049E-01  -5.79036811E-01   5.24387876E-01   3.06004186E-03  -1.12275737E+00  -3.66267178E-01  -1.70693734E+00  -2.53517198E-01  -8.88596853E+00   6.41117734E-02  -7.71461963E-15   3.64549178E-01  -2.44073519E+01  -5.77377917E+00   1.56728463E-01
   2.08250000E+03   5.00000000E-01   5.00000000E-01  -4.22561670E+00   1.62655137E-03  -3.54007687E+00  -2.88743585E+00  -2.85728197E+00  -3.90844836E-02  -1.71301143E+00  -3.08505942E-01  -3.13986031E-01   4.20121091E-01   2.42093716E-03  -1.44185421E+00  -7.38882877E-01  -1.99699668E+00   3.58779156E-01  -7.90048737E+00   4.93474636E-02   6.17169570E-15   4.78621377E-01  -2.47747388E+01  -5.92661988E+00   4.99258380E-02
   2.11750000E+03   5.00000000E-01   5.00000000E-01  -4.15411231E+00   3.92586333E-04  -3.46087140E+00  -2.89305307E+00  -2.86139640E+00  -1.98377157E-01  -1.73131448E+00  -3.59225981E-01  -1.90799655E-01   2.55938131E-01   2.15827122E-03  -1.63910381E+00  -1.07777729E+00  -2.20723732E+00   4.79338088E-01  -7.40201488E+00   3.99890984E-02   3.08584785E-15   4.55687624E-01  -2.49218805E+01  -6.00356938E+00  -5.24832469E-02
   2.15250000E+03   5.00000000E-01   5.00000000E-01  -4.08213823E+00   1.94768871E-04  -3.38978586E+00  -2.88892332E+00  -2.85578391E+00  -3.23412481E-01  -1.74095786E+00  -4.01045230E-01  -1.32963114E-01   9.40590516E-02   2.05829085E-03  -1.82327579E+00  -1.37588242E+00  -2.39474617E+00   5.18942262E-01  -7.07022206E+00   3.42833926E-02  -4.62877178E-15   3.84643136E-01  -2.49875410E+01  -6.05823804E+00  -1.38111258E-01
   2.18750000E+03   5.00000000E-01   5.00000000E-01  -4.01117066E+00   1.28812403E-04  -3.32656297E+00  -2.87826926E+00  -2.84366678E+00  -4.19893459E-01  -1.74367633E+00  -4.35411774E-01  -1.01712722E-01  -5.04937655E-02   2.00557545E-03  -1.99064799E+00  -1.63090437E+00  -2.55890953E+00   5.39212128E-01  -6.81413809E+00   3.08109838E-02   1.54292393E-15   3.02252801E-01  -2.50084253E+01  -6.10174445E+00  -2.08950243E-01
   2.22250000E+03   5.00000000E-01   5.00000000E-01  -3.94221001E+00   9.92546465E-05  -3.26992384E+00  -2.86438338E+00  -2.82833715E+00  -4.96075406E-01  -1.74175051E+00  -4.64153049E-01  -8.29596822E-02  -1.77989383E-01   1.97268785E-03  -2.14079380E+00  -1.85028220E+00  -2.70256705E+00   5.51893869E-01  -6.60146094E+00   2.86539017E-02  -2.31438589E-15   2.19039228E-01  -2.50002015E+01  -6.13802806E+00  -2.68559771E-01
   2.25750000E+03   5.00000000E-01   5.00000000E-01  -3.87538679E+00   8.39906368E-05  -3.21850146E+00  -2.84890615E+00  -2.81143511E+00  -5.57820608E-01  -1.73667919E+00  -4.88712936E-01  -7.08204318E-02  -2.91327298E-01   1.95078001E-03  -2.27603625E+00  -2.04190442E+00  -2.82967456E+00   5.60546725E-01  -6.41676714E+00   2.72653615E-02   1.00290055E-14   1.38013684E-01  -2.49719468E+01  -6.16922440E+00  -3.19805654E-01
   2.29250000E+03   5.00000000E-01   5.00000000E-01  -3.81053052E+00   7.54130401E-05  -3.17116957E+00  -2.83263500E+00  -2.79375777E+00  -6.09084099E-01  -1.72941941E+00  -5.10136838E-01  -6.24986248E-02  -3.93341583E-01   1.93565996E-03  -2.39911150E+00  -2.21213955E+00  -2.94376263E+00   5.66761819E-01  -6.25134785E+00   2.63314079E-02   5.40023374E-15   5.98828036E-02  -2.49295352E+01  -6.19670976E+00  -3.64771241E-01
   2.32750000E+03   5.00000000E-01   5.00000000E-01  -3.74740880E+00   7.03163314E-05  -3.12706551E+00  -2.81597971E+00  -2.77571458E+00  -6.52576221E-01  -1.72060265E+00  -5.29173385E-01  -5.65336738E-02  -4.86331464E-01   1.92497362E-03  -2.51241133E+00  -2.36580395E+00  -3.04763163E+00   5.71393999E-01  -6.09982643E+00   2.56707921E-02  -1.31148534E-14  -1.53932632E-02  -2.48769454E+01  -6.22142679E+00  -4.04950737E-01
   2.36250000E+03   5.00000000E-01   5.00000000E-01  -3.68580457E+00   6.71754677E-05  -3.08554240E+00  -2.79916468E+00  -2.75752960E+00  -6.90196549E-01  -1.71065999E+00  -5.46362281E-01  -5.21051627E-02  -5.72069814E-01   1.91732273E-03  -2.61784900E+00  -2.50647994E+00  -3.14341894E+00   5.74943245E-01  -5.95868993E+00   2.51761913E-02  -2.23723969E-14  -8.80782388E-02  -2.48169496E+01  -6.24404145E+00  -4.41422167E-01
   2.39750000E+03   5.00000000E-01   5.00000000E-01  -3.62553527E+00   6.51993669E-05  -3.04611664E+00  -2.78231973E+00  -2.73933232E+00  -7.23303008E-01  -1.69989362E+00  -5.62096784E-01  -4.87243282E-02  -6.51902757E-01   1.91184478E-03  -2.71690740E+00  -2.63682914E+00  -3.23273751E+00   5.77718630E-01  -5.82554745E+00   2.47894079E-02   1.54292393E-15  -1.58475221E-01  -2.47515174E+01  -6.26503477E+00  -4.74971395E-01