 TITLE = "Mineral Saturation State" 
VARIABLES = "X"          "Y"              "Z"            "Forsterite"     "Fayalite"       "Brucite"        "Lizardite"      "Chrysotile"     "Hematite"       "Magnetite(am)"  "Saponite(Ca)"   "Saponite(K)"    "Saponite(Mg)"   "Saponite(Na)"   "Beidellite(Ca)" "Beidellite(K)"  "Beidellite(Mg)" "Beidellite(Na)" "Enstatite(alph" "Ferrosilite(al" "Anorthite"      "Albite(low)"    "Clinochlore"    "Sudoite"        "Montmor(MgCa)"  "Montmor(MgK)"   "Montmor(MgMg)"  "Montmor(MgNa)"  "Kaolinite"      "Tremolite"      "Pargasite"      "Anhydrite"      "Epidote"        "Scolecite"      "Pyrite"         "FeS(am)"        "Quartz(alpha)"  "Titanite"       "Rutile"         "Barite"         "Fluorite"       "Spessartine(al" "Andradite"      "Celestite"      "Zincite"        "Chalcocyanite"  "Chalcocite(alp"
 ZONE I=         200 , J=           1 , K=           1  F=POINT
   8.75000000E+00   5.00000000E-01   5.00000000E-01  -7.01425235E+00  -2.92730353E+00  -4.72909714E+00  -1.20952793E+00  -1.32701624E+00   9.37038940E-02  -5.26963715E+00   6.66574955E-01   2.49585459E+00   1.32751798E+00   2.37451589E+00  -6.72183755E+00  -5.57379754E+00  -6.06089180E+00  -5.63394109E+00  -2.50521117E+00  -1.52389239E+00  -1.18322998E+01  -1.63195468E+00   2.40275941E-02  -7.09131505E+00  -4.24588240E+00  -2.85692899E+00  -3.61846616E+00  -3.00608014E+00  -5.36008032E+00  -4.68834396E+00  -3.27999941E+01  -9.80286779E-01  -1.05417133E+01  -6.61131045E+00  -5.53487362E+01  -1.94348093E+01   7.18458057E-01  -6.83297616E-01   1.49231160E-01   2.99539874E-01  -5.70033492E-01  -2.63436740E+01  -6.91099184E+00  -1.70344999E+00  -3.60253612E+00  -1.59370349E+01   1.52715671E+00
   2.62500000E+01   5.00000000E-01   5.00000000E-01  -7.53379495E+00  -2.83594198E+00  -5.07539571E+00  -1.97821393E+00  -2.09366760E+00   9.37038940E-02  -5.28496576E+00   3.45824943E-01   2.14860944E+00   1.00619550E+00   2.03642393E+00  -4.56767841E+00  -3.43973023E+00  -3.90731074E+00  -3.49082683E+00  -2.68708342E+00  -1.39578394E+00  -1.04540681E+01  -6.48016900E-01   2.37954435E-02  -4.62339726E+00  -2.62985190E+00  -1.26227108E+00  -2.00282346E+00  -1.40190403E+00  -3.66778524E+00  -5.90608972E+00  -3.19876957E+01  -9.62400353E-01  -9.38500202E+00  -5.11549857E+00  -5.62601975E+01  -2.02909755E+01   8.81352346E-01  -8.72828930E-01   1.63904576E-01   1.37972138E-01  -5.87344128E-01  -2.46352585E+01  -7.50759349E+00  -1.71041087E+00  -3.71697585E+00  -1.58703322E+01   1.16796790E-01
   4.37500000E+01   5.00000000E-01   5.00000000E-01  -7.69693589E+00  -2.68017199E+00  -5.21321373E+00  -2.24195053E+00  -2.35539141E+00   9.37038939E-02  -5.23802030E+00   3.18376487E-01   2.09758590E+00   9.78215011E-01   1.99444711E+00  -3.60870659E+00  -2.50062436E+00  -2.94887613E+00  -2.54278012E+00  -2.72100532E+00  -1.26576345E+00  -9.85111528E+00  -1.72527343E-01   2.34380076E-02  -3.64398648E+00  -1.86545292E+00  -5.19005577E-01  -1.23877408E+00  -6.49231146E-01  -2.95888916E+00  -6.14806474E+00  -3.14774792E+01  -9.44296116E-01  -8.85543736E+00  -4.45521398E+00  -5.54156932E+01  -1.98852481E+01   9.83677692E-01  -9.15593890E-01   1.77358890E-01   5.13819166E-02  -6.03823782E-01  -2.37195821E+01  -7.66042211E+00  -1.71682985E+00  -3.71891928E+00  -1.58038542E+01   1.16796790E-01
   6.12500000E+01   5.00000000E-01   5.00000000E-01  -7.75278966E+00  -2.53038989E+00  -5.27737629E+00  -2.36414897E+00  -2.47559857E+00   9.37038938E-02  -5.17426438E+00   3.36116421E-01   2.09248299E+00   9.95453621E-01   1.99828444E+00  -3.07607119E+00  -1.98763330E+00  -2.41674685E+00  -2.02095433E+00  -2.72126571E+00  -1.15876008E+00  -9.50465942E+00   9.49682702E-02   2.28930845E-02  -3.13618344E+00  -1.43093506E+00  -1.05386509E-01  -8.04577317E-01  -2.26315472E-01  -2.57984158E+00  -6.19365662E+00  -3.11036433E+01  -9.25974928E-01  -8.54847515E+00  -4.09114016E+00  -5.47065974E+01  -1.95386372E+01   1.04597182E+00  -9.25837337E-01   1.89585258E-01   8.50504102E-03  -6.19502421E-01  -2.31059408E+01  -7.71218248E+00  -1.72268595E+00  -3.69032625E+00  -1.57375987E+01   1.16796790E-01
   7.87500000E+01   5.00000000E-01   5.00000000E-01  -7.77383522E+00  -2.40583120E+00  -5.31081692E+00  -2.44684095E+00  -2.55632042E+00   9.37038937E-02  -5.11000737E+00   3.41644143E-01   2.07537039E+00   1.00050499E+00   1.99000665E+00  -2.72364561E+00  -1.65463456E+00  -2.06480203E+00  -1.67922597E+00  -2.71740955E+00  -1.07769641E+00  -9.25610787E+00   2.60537662E-01   2.23520225E-02  -2.79627209E+00  -1.14962025E+00   1.55259859E-01  -5.23560794E-01   4.35178178E-02  -2.32914920E+00  -6.23624012E+00  -3.08027758E+01  -9.07443244E-01  -8.33503987E+00  -3.85129740E+00  -5.40633326E+01  -1.92245085E+01   1.08162472E+00  -9.33045812E-01   2.00612688E-01  -1.24843665E-02  -6.34411547E-01  -2.26388890E+01  -7.75141810E+00  -1.72798730E+00  -3.65554328E+00  -1.56715698E+01   1.16796790E-01
   9.62500000E+01   5.00000000E-01   5.00000000E-01  -7.77473200E+00  -2.29859854E+00  -5.32565556E+00  -2.50723258E+00  -2.61476274E+00   9.37038937E-02  -5.04608845E+00   3.37041912E-01   2.04832219E+00   9.95447799E-01   1.97168965E+00  -2.48095694E+00  -1.43115923E+00  -1.82257238E+00  -1.44712425E+00  -2.71197587E+00  -1.01383249E+00  -9.06637788E+00   3.62880907E-01   2.19560108E-02  -2.55572303E+00  -9.62785673E-01   3.21652177E-01  -3.37005212E-01   2.18989287E-01  -2.15562969E+00  -6.28398129E+00  -3.05480940E+01  -8.88710148E-01  -8.17857262E+00  -3.68702365E+00  -5.34624572E+01  -1.89315598E+01   1.10021866E+00  -9.39708621E-01   2.10474100E-01  -2.31989388E-02  -6.48582609E-01  -2.22631136E+01  -7.78569259E+00  -1.73275129E+00  -3.61795833E+00  -1.56057743E+01   1.16796790E-01
   1.13750000E+02   5.00000000E-01   5.00000000E-01  -7.75989932E+00  -2.20123833E+00  -5.32745405E+00  -2.54860778E+00  -2.65420909E+00   9.37038936E-02  -4.98213065E+00   3.30532272E-01   2.01961260E+00   9.88500988E-01   1.95160981E+00  -2.31531706E+00  -1.28452307E+00  -1.65737339E+00  -1.29196274E+00  -2.70382172E+00  -9.60088303E-01  -8.91983117E+00   4.23224930E-01   2.17582774E-02  -2.39001983E+00  -8.39996235E-01   4.24221472E-01  -2.14479046E-01   3.30532231E-01  -2.03810352E+00  -6.32214777E+00  -3.03238184E+01  -8.69785592E-01  -8.06227668E+00  -3.57597743E+00  -5.28924330E+01  -1.86538324E+01   1.10845975E+00  -9.44633685E-01   2.19201552E-01  -2.91491370E-02  -6.62045920E-01  -2.19509053E+01  -7.81152286E+00  -1.73699709E+00  -3.57832034E+00  -1.55402197E+01   1.16796790E-01
   1.31250000E+02   5.00000000E-01   5.00000000E-01  -7.73335638E+00  -2.11066203E+00  -5.32041963E+00  -2.57480471E+00  -2.67849734E+00   9.37038935E-02  -4.91878502E+00   3.26192622E-01   1.99334056E+00   9.83738378E-01   1.93386824E+00  -2.20217677E+00  -1.19018061E+00  -1.54465946E+00  -1.18919380E+00  -2.69275868E+00  -9.12720982E-01  -8.80402291E+00   4.56581773E-01   2.17284583E-02  -2.27872332E+00  -7.59304211E-01   4.84911530E-01  -1.34038105E-01   4.00092667E-01  -1.95993916E+00  -6.34499801E+00  -3.01191140E+01  -8.50679644E-01  -7.97350337E+00  -3.50131990E+00  -5.23454606E+01  -1.83877510E+01   1.11074492E+00  -9.47583583E-01   2.26827031E-01  -3.28613952E-02  -6.74830497E-01  -2.16839858E+01  -7.82828971E+00  -1.74074360E+00  -3.53789772E+00  -1.54749132E+01   1.16796790E-01
   1.48750000E+02   5.00000000E-01   5.00000000E-01  -7.69861454E+00  -2.02580541E+00  -5.30766695E+00  -2.58973837E+00  -2.69154215E+00   9.37038935E-02  -4.85687613E+00   3.25345967E-01   1.97083084E+00   9.82479922E-01   1.91979163E+00  -2.12348106E+00  -1.13008053E+00  -1.46637865E+00  -1.12076414E+00  -2.67918307E+00  -8.69838483E-01  -8.70923536E+00   4.73244901E-01   2.18055559E-02  -2.20516475E+00  -7.05297887E-01   5.19130236E-01  -8.02736863E-02   4.43080500E-01  -1.90832167E+00  -6.35256706E+00  -2.99268089E+01  -8.31402270E-01  -7.90291886E+00  -3.45061661E+00  -5.18160956E+01  -1.81310047E+01   1.10979372E+00  -9.48908247E-01   2.33382960E-01  -3.54969337E-02  -6.86964182E-01  -2.14497912E+01  -7.83713730E+00  -1.74400921E+00  -3.49787948E+00  -1.54098618E+01   1.16796790E-01
   1.66250000E+02   5.00000000E-01   5.00000000E-01  -7.65832710E+00  -1.94622238E+00  -5.29132164E+00  -2.59659663E+00  -2.69653107E+00   9.37038934E-02  -4.79697761E+00   3.28082198E-01   1.95216699E+00   9.84813121E-01   1.90946525E+00  -2.06695454E+00  -1.09195093E+00  -1.41025797E+00  -1.07440014E+00  -2.66362228E+00  -8.30417929E-01  -8.62858477E+00   4.79850110E-01   2.19349968E-02  -2.15721533E+00  -6.67852823E-01   5.36998314E-01  -4.30636963E-02   4.69618252E-01  -1.87425539E+00  -6.34693482E+00  -2.97424013E+01  -8.11963280E-01  -7.84415814E+00  -3.41538728E+00  -5.13006145E+01  -1.78820178E+01   1.10720557E+00  -9.49091987E-01   2.38902211E-01  -3.75991508E-02  -6.98473701E-01  -2.12397520E+01  -7.83961441E+00  -1.74681189E+00  -3.45906222E+00  -1.53450722E+01   1.16796790E-01
   1.83750000E+02   5.00000000E-01   5.00000000E-01  -7.61437921E+00  -1.87161031E+00  -5.27277364E+00  -2.59776655E+00  -2.69585087E+00   9.37038934E-02  -4.73938329E+00   3.33985653E-01   1.93692415E+00   9.90320482E-01   1.90246578E+00  -2.02458566E+00  -1.06778375E+00  -1.36828772E+00  -1.04209216E+00  -2.64657116E+00  -7.93859759E-01  -8.55741250E+00   4.80514028E-01   2.20802241E-02  -2.12648652E+00  -6.40570033E-01   5.44911131E-01  -1.60109424E-02   4.86102910E-01  -1.85170218E+00  -6.33066316E+00  -2.95631618E+01  -7.92372309E-01  -7.79305198E+00  -3.39007984E+00  -5.07964811E+01  -1.76396680E+01   1.10387668E+00  -9.48589543E-01   2.43417945E-01  -3.94283128E-02  -7.09384680E-01  -2.10480030E+01  -7.83718197E+00  -1.74916916E+00  -3.42188114E+00  -1.52805507E+01   1.16796790E-01
   2.01250000E+02   5.00000000E-01   5.00000000E-01  -7.56807824E+00  -1.80167809E+00  -5.25291391E+00  -2.59497864E+00  -2.69123176E+00   9.37038933E-02  -4.68418265E+00   3.42476949E-01   1.92451324E+00   9.98421204E-01   1.89820559E+00  -1.99124209E+00  -1.05244999E+00  -1.33533701E+00  -1.01870977E+00  -2.62844589E+00  -7.59780353E-01  -8.49262210E+00   4.77731418E-01   2.22209720E-02  -2.10728891E+00  -6.19488756E-01   5.46825925E-01   4.84395616E-03   4.96493210E-01  -1.83668276E+00  -6.30618783E+00  -2.93874729E+01  -7.72638799E-01  -7.74691700E+00  -3.37112477E+00  -5.03019494E+01  -1.74031266E+01   1.10028294E+00  -9.47779199E-01   2.46963404E-01  -4.11120340E-02  -7.19721655E-01  -2.08704759E+01  -7.83107189E+00  -1.75109808E+00  -3.38651889E+00  -1.52163033E+01   1.16796790E-01
   2.18750000E+02   5.00000000E-01   5.00000000E-01  -7.52032112E+00  -1.73612026E+00  -5.23230771E+00  -2.58946810E+00  -2.68390864E+00   9.37038933E-02  -4.63133756E+00   3.52975034E-01   1.91434406E+00   1.00853310E+00   1.89609583E+00  -1.96366549E+00  -1.04269457E+00  -1.30814863E+00  -1.00099653E+00  -2.60957789E+00  -7.27909408E-01  -8.43217005E+00   4.72988591E-01   2.23479828E-02  -2.09579433E+00  -6.02189133E-01   5.45159124E-01   2.19197655E-02   5.03206992E-01  -1.82659479E+00  -6.27559547E+00  -2.92143922E+01  -7.52771985E-01  -7.70403955E+00  -3.35624641E+00  -4.98157956E+01  -1.71717618E+01   1.09665924E+00  -9.46956219E-01   2.49571719E-01  -4.27141756E-02  -7.29508086E-01  -2.07042962E+01  -7.82226674E+00  -1.75261523E+00  -3.35300111E+00  -1.51523355E+01   1.16796790E-01
   2.36250000E+02   5.00000000E-01   5.00000000E-01  -7.47171877E+00  -1.67462070E+00  -5.21131099E+00  -2.58210731E+00  -2.67475362E+00   9.37038932E-02  -4.58073828E+00   3.64967715E-01   1.90589620E+00   1.02014305E+00   1.89561738E+00  -1.93979944E+00  -1.03646427E+00  -1.28466713E+00  -9.86897924E-01  -2.59022188E+00  -6.98037635E-01  -8.37471253E+00   4.67156744E-01   2.24583333E-02  -2.08943905E+00  -5.87208664E-01   5.41369878E-01   3.66780828E-02   5.07704764E-01  -1.81974393E+00  -6.24057058E+00  -2.90433796E+01  -7.32780872E-01  -7.66333010E+00  -3.34400146E+00  -4.93371422E+01  -1.69450794E+01   1.09310780E+00  -9.46340553E-01   2.51275724E-01  -4.42671511E-02  -7.38766378E-01  -2.05473905E+01  -7.81152230E+00  -1.75373666E+00  -3.32126355E+00  -1.50886528E+01   1.16796790E-01
   2.53750000E+02   5.00000000E-01   5.00000000E-01  -7.42268363E+00  -1.61686206E+00  -5.19014577E+00  -2.57350560E+00  -2.66437573E+00   9.37038932E-02  -4.53223977E+00   3.78035339E-01   1.89874281E+00   1.03283059E+00   1.89634465E+00  -1.91835556E+00  -1.03247381E+00  -1.26360494E+00  -9.75127398E-01  -2.57056812E+00  -6.69989858E-01  -8.31937001E+00   4.60736101E-01   2.25523065E-02  -2.08651659E+00  -5.73675043E-01   5.36327228E-01   4.99904483E-02   5.10856885E-01  -1.81503327E+00  -6.20241698E+00  -2.88741303E+01  -7.12674221E-01  -7.62409956E+00  -3.33348034E+00  -4.88653440E+01  -1.67226841E+01   1.08966139E+00  -9.46088829E-01   2.52107791E-01  -4.57874680E-02  -7.47517909E-01  -2.03982310E+01  -7.79940306E+00  -1.75447793E+00  -3.29119479E+00  -1.50252602E+01   1.16796790E-01
   2.71250000E+02   5.00000000E-01   5.00000000E-01  -7.37349025E+00  -1.56253394E+00  -5.16894825E+00  -2.56408219E+00  -2.65319392E+00   9.37038931E-02  -4.48568365E+00   3.91851385E-01   1.89255112E+00   1.04626850E+00   1.89794609E+00  -1.89853680E+00  -1.02992916E+00  -1.24416572E+00  -9.64889698E-01  -2.55075474E+00  -6.43611269E-01  -8.26557196E+00   4.54004990E-01   2.26315706E-02  -2.08590355E+00  -5.61078477E-01   5.30537781E-01   6.23659841E-02   5.13171250E-01  -1.81176023E+00  -6.16210845E+00  -2.87064760E+01  -6.92460526E-01  -7.58591628E+00  -3.32411621E+00  -4.83999147E+01  -1.65042529E+01   1.08631900E+00  -9.46306679E-01   2.52099694E-01  -4.72833993E-02  -7.55783062E-01  -2.02556686E+01  -7.78631879E+00  -1.75485401E+00  -3.26266218E+00  -1.49621622E+01   1.16796790E-01
   2.88750000E+02   5.00000000E-01   5.00000000E-01  -7.32431707E+00  -1.51133879E+00  -5.14779952E+00  -2.55411916E+00  -2.64149001E+00   9.37038930E-02  -4.44091091E+00   4.06172693E-01   1.88707255E+00   1.06021297E+00   1.90017435E+00  -1.87986127E+00  -1.02835140E+00  -1.22586823E+00  -9.55704679E-01  -2.53087896E+00  -6.18760586E-01  -8.21295446E+00   4.47110167E-01   2.26982160E-02  -2.08687454E+00  -5.49131199E-01   5.24286189E-01   7.40918525E-02   5.14933780E-01  -1.80948359E+00  -6.12034694E+00  -2.85403253E+01  -6.72147998E-01  -7.54851458E+00  -3.31556302E+00  -4.79404779E+01  -1.62895178E+01   1.08306542E+00  -9.47059863E-01   2.51282478E-01  -4.87588668E-02  -7.63581260E-01  -2.01188215E+01  -7.77255750E+00  -1.75487938E+00  -3.23552703E+00  -1.48993633E+01   1.16796790E-01
   3.06250000E+02   5.00000000E-01   5.00000000E-01  -7.27527564E+00  -1.46299566E+00  -5.12674528E+00  -2.54380013E+00  -2.62944733E+00   9.37038929E-02  -4.39776892E+00   4.20825947E-01   1.88212905E+00   1.07449012E+00   1.90285256E+00  -1.86204928E+00  -1.02746373E+00  -1.20843338E+00  -9.47294350E-01  -2.51100650E+00  -5.95306810E-01  -8.16129199E+00   4.40121419E-01   2.27542932E-02  -2.08897623E+00  -5.37680639E-01   5.17721985E-01   8.53200772E-02   5.16295254E-01  -1.80793566E+00  -6.07761833E+00  -2.83756292E+01  -6.51744559E-01  -7.51173594E+00  -3.30761704E+00  -4.74867350E+01  -1.60782532E+01   1.07988150E+00  -9.48383746E-01   2.49686352E-01  -5.02154538E-02  -7.70931006E-01  -1.99870003E+01  -7.75831357E+00  -1.75456791E+00  -3.20965315E+00  -1.48368675E+01   1.16796790E-01
   3.23750000E+02   5.00000000E-01   5.00000000E-01  -7.22643132E+00  -1.41724262E+00  -5.10580864E+00  -2.53323878E+00  -2.61717935E+00   9.37038928E-02  -4.35611510E+00   4.35693507E-01   1.87759879E+00   1.08898177E+00   1.90586009E+00  -1.84494982E+00  -1.02711795E+00  -1.19171070E+00  -9.39509334E-01  -2.49117947E+00  -5.73127940E-01  -8.11045113E+00   4.33064668E-01   2.28016207E-02  -2.09193982E+00  -5.26655262E-01   5.10913732E-01   9.61216876E-02   5.17325465E-01  -1.80696316E+00  -6.03424255E+00  -2.82123611E+01  -6.31257826E-01  -7.47549050E+00  -3.30016558E+00  -4.70384435E+01  -1.58702662E+01   1.07674908E+00  -9.50291217E-01   2.47340601E-01  -5.16534725E-02  -7.77849912E-01  -1.98596560E+01  -7.74371120E+00  -1.75393297E+00  -3.18491161E+00  -1.47746784E+01   1.16796790E-01
   3.41250000E+02   5.00000000E-01   5.00000000E-01  -7.17781843E+00  -1.37383833E+00  -5.08499878E+00  -2.52250063E+00  -2.60475130E+00   9.37038928E-02  -4.31581878E+00   4.50699936E-01   1.87340260E+00   1.10361198E+00   1.90911890E+00  -1.82849149E+00  -1.02724542E+00  -1.17562929E+00  -9.32279818E-01  -2.47142293E+00  -5.52110751E-01  -8.06035820E+00   4.25942224E-01   2.28417294E-02  -2.09561855E+00  -5.16030241E-01   5.03883357E-01   1.06521047E-01   5.18047554E-01  -1.80648638E+00  -5.99041718E+00  -2.80505052E+01  -6.10695109E-01  -7.43973126E+00  -3.29315264E+00  -4.65954012E+01  -1.56653905E+01   1.07365310E+00  -9.52779265E-01   2.44273503E-01  -5.30725412E-02  -7.84354742E-01  -1.97363438E+01  -7.72882397E+00  -1.75298734E+00  -3.16118319E+00  -1.47127994E+01   1.16796790E-01
   3.58750000E+02   5.00000000E-01   5.00000000E-01  -7.12945156E+00  -1.33256330E+00  -5.06431681E+00  -2.51161973E+00  -2.59219698E+00   9.37038926E-02  -4.27676200E+00   4.65799784E-01   1.86949161E+00   1.11833485E+00   1.91258128E+00  -1.81264885E+00  -1.02782339E+00  -1.16016419E+00  -9.25581916E-01  -2.45175029E+00  -5.32151157E-01  -8.01097617E+00   4.18745320E-01   2.28758731E-02  -2.09994188E+00  -5.05805225E-01   4.96628376E-01   1.16518074E-01   5.18460234E-01  -1.80647010E+00  -5.94625496E+00  -2.78900494E+01  -5.90063405E-01  -7.40443633E+00  -3.28655526E+00  -4.61574358E+01  -1.54634810E+01   1.07058203E+00  -9.55834456E-01   2.40512268E-01  -5.44719025E-02  -7.90461444E-01  -1.96166958E+01  -7.71369098E+00  -1.75174327E+00  -3.13835975E+00  -1.46512333E+01   1.16796790E-01
   3.76250000E+02   5.00000000E-01   5.00000000E-01  -7.08133413E+00  -1.29322061E+00  -5.04375986E+00  -2.50061165E+00  -2.57953174E+00   9.37038925E-02  -4.23883978E+00   4.80967063E-01   1.86583662E+00   1.13312395E+00   1.91621917E+00  -1.79741914E+00  -1.02885173E+00  -1.14531308E+00  -9.19414358E-01  -2.43216776E+00  -5.13154760E-01  -7.96228779E+00   4.11461861E-01   2.29050658E-02  -2.10488156E+00  -4.95989850E-01   4.89136379E-01   1.26102734E-01   5.18552280E-01  -1.80690271E+00  -5.90181512E+00  -2.77309819E+01  -5.69369398E-01  -7.36959651E+00  -3.28036700E+00  -4.57243964E+01  -1.52644099E+01   1.06752756E+00  -9.59437396E-01   2.36082990E-01  -5.58506011E-02  -7.96185189E-01  -1.95004021E+01  -7.69833019E+00  -1.75021249E+00  -3.11634476E+00  -1.45899829E+01   1.16796790E-01
   3.93750000E+02   5.00000000E-01   5.00000000E-01  -7.03346446E+00  -1.25563603E+00  -5.02332386E+00  -2.48948292E+00  -2.56676186E+00   9.37038924E-02  -4.20195980E+00   4.96186938E-01   1.86241977E+00   1.14796406E+00   1.92001581E+00  -1.78280682E+00  -1.03033747E+00  -1.13108082E+00  -9.13783059E-01  -2.41267769E+00  -4.95037210E-01  -7.91428403E+00   4.04080950E-01   2.29301273E-02  -2.11042790E+00  -4.86594744E-01   4.81394031E-01   1.35264030E-01   5.18311520E-01  -1.80778191E+00  -5.85712747E+00  -2.75732893E+01  -5.48619462E-01  -7.33520710E+00  -3.27458706E+00  -4.52961480E+01  -1.50680638E+01   1.06448398E+00  -9.63566115E-01   2.31010609E-01  -5.72075844E-02  -8.01540402E-01  -1.93871961E+01  -7.68274839E+00  -1.74840617E+00  -3.09505328E+00  -1.45290504E+01   1.16796790E-01
   4.11250000E+02   5.00000000E-01   5.00000000E-01  -6.98583946E+00  -1.21965701E+00  -5.00300502E+00  -2.47823689E+00  -2.55389046E+00   9.37038923E-02  -4.16604160E+00   5.11450160E-01   1.85922888E+00   1.16284556E+00   1.92396014E+00  -1.76881495E+00  -1.03228619E+00  -1.11747085E+00  -9.08692487E-01  -2.39328077E+00  -4.77724026E-01  -7.86695727E+00   3.96594994E-01   2.29517279E-02  -2.11657550E+00  -4.77626897E-01   4.73391692E-01   1.43994632E-01   5.17729468E-01  -1.80910638E+00  -5.81220820E+00  -2.74169559E+01  -5.27819658E-01  -7.30126321E+00  -3.26921406E+00  -4.48725677E+01  -1.48743413E+01   1.06144753E+00  -9.68198262E-01   2.25318880E-01  -5.85417604E-02  -8.06540796E-01  -1.92768449E+01  -7.66694773E+00  -1.74633498E+00  -3.07441132E+00  -1.44684379E+01   1.16796790E-01
   4.28750000E+02   5.00000000E-01   5.00000000E-01  -6.93845616E+00  -1.18515048E+00  -4.98280034E+00  -2.46687627E+00  -2.54092002E+00   9.37038921E-02  -4.13101525E+00   5.26750326E-01   1.85625472E+00   1.17776170E+00   1.92804400E+00  -1.75544229E+00  -1.03469909E+00  -1.10448227E+00  -9.04142760E-01  -2.37397698E+00  -4.61149740E-01  -7.82029871E+00   3.89000018E-01   2.29704252E-02  -2.12331754E+00  -4.69088495E-01   4.65124588E-01   1.52292043E-01   5.16802481E-01  -1.81087266E+00  -5.76706750E+00  -2.72619638E+01  -5.06975746E-01  -7.26775821E+00  -3.26424395E+00  -4.44535420E+01  -1.46831511E+01   1.05841589E+00  -9.73312130E-01   2.19030364E-01  -5.98520307E-02  -8.11199406E-01  -1.91691422E+01  -7.65092874E+00  -1.74400908E+00  -3.05435465E+00  -1.44081470E+01   1.16796790E-01
   4.46250000E+02   5.00000000E-01   5.00000000E-01  -6.89131164E+00  -1.15199978E+00  -4.96270746E+00  -2.45540316E+00  -2.52785242E+00   9.37038920E-02  -4.09681961E+00   5.42083386E-01   1.85349046E+00   1.19270815E+00   1.93226165E+00  -1.74268434E+00  -1.03757408E+00  -1.09211091E+00  -9.00130718E-01  -2.35476576E+00  -4.45256510E-01  -7.77429878E+00   3.81294867E-01   2.29866924E-02  -2.13064640E+00  -4.60978016E-01   4.56591710E-01   1.60157506E-01   5.15530671E-01  -1.81307576E+00  -5.72171052E+00  -2.71082937E+01  -4.86093182E-01  -7.23468422E+00  -3.25967074E+00  -4.40389659E+01  -1.44944105E+01   1.05538792E+00  -9.78886770E-01   2.12166414E-01  -6.11373107E-02  -8.15528617E-01  -1.90639049E+01  -7.63469064E+00  -1.74143811E+00  -3.03482716E+00  -1.43481790E+01   1.16796790E-01
   4.63750000E+02   5.00000000E-01   5.00000000E-01  -6.84440222E+00  -1.12010146E+00  -4.94272417E+00  -2.44381795E+00  -2.51468782E+00   9.37038918E-02  -4.06340075E+00   5.57448256E-01   1.85093234E+00   1.20768352E+00   1.93661039E+00  -1.73053600E+00  -1.04090840E+00  -1.08035192E+00  -8.96652531E-01  -2.33564568E+00  -4.29992605E-01  -7.72894883E+00   3.73480068E-01   2.30009369E-02  -2.13855681E+00  -4.53292106E-01   4.47793936E-01   1.67594120E-01   5.13916019E-01  -1.81571130E+00  -5.67613539E+00  -2.69559251E+01  -4.65177132E-01  -7.20203352E+00  -3.25548829E+00  -4.36287414E+01  -1.43080443E+01   1.05236347E+00  -9.84901680E-01   2.04747175E-01  -6.23965411E-02  -8.19540195E-01  -1.89609700E+01  -7.61823043E+00  -1.73863128E+00  -3.01577933E+00  -1.42885350E+01   1.16796790E-01
   4.81250000E+02   5.00000000E-01   5.00000000E-01  -6.79772295E+00  -1.08936277E+00  -4.92284809E+00  -2.43211852E+00  -2.50142390E+00   9.37038917E-02  -4.03071054E+00   5.72847291E-01   1.84858014E+00   1.22268992E+00   1.94109101E+00  -1.71899339E+00  -1.04470048E+00  -1.06920172E+00  -8.93705589E-01  -2.31661415E+00  -4.15311174E-01  -7.68424233E+00   3.65557037E-01   2.30135112E-02  -2.14704821E+00  -4.46026920E-01   4.38732690E-01   1.74605509E-01   5.11961036E-01  -1.81877705E+00  -5.63033160E+00  -2.68048374E+01  -4.44232476E-01  -7.16979951E+00  -3.25169167E+00  -4.32227779E+01  -1.41239835E+01   1.04934335E+00  -9.91336559E-01   1.96791593E-01  -6.36286946E-02  -8.23245317E-01  -1.88601922E+01  -7.60154215E+00  -1.73559729E+00  -2.99716697E+00  -1.42292158E+01   1.16796789E-01
   4.98750000E+02   5.00000000E-01   5.00000000E-01  -6.75126772E+00  -1.05970021E+00  -4.90307670E+00  -2.42030059E+00  -2.48805615E+00   9.37038915E-02  -3.99870594E+00   5.88285825E-01   1.84643667E+00   1.23773249E+00   1.94570739E+00  -1.70805374E+00  -1.04894978E+00  -1.05865773E+00  -8.91288324E-01  -2.29766765E+00  -4.01169586E-01  -7.64017462E+00   3.57527959E-01   2.30247195E-02  -2.15612412E+00  -4.39178180E-01   4.29409883E-01   1.81195757E-01   5.09668707E-01  -1.82227266E+00  -5.58428124E+00  -2.66550096E+01  -4.23263814E-01  -7.13797657E+00  -3.24827696E+00  -4.28209903E+01  -1.39421650E+01   1.04632914E+00  -9.98171453E-01   1.88317427E-01  -6.48327799E-02  -8.26654594E-01  -1.87614420E+01  -7.58461732E+00  -1.73234443E+00  -2.97895046E+00  -1.41702218E+01   1.16796789E-01
   5.16250000E+02   5.00000000E-01   5.00000000E-01  -6.70503033E+00  -1.03103910E+00  -4.88340774E+00  -2.40835928E+00  -2.47457951E+00   9.37038913E-02  -3.96734867E+00   6.03770629E-01   1.84450626E+00   1.25281778E+00   1.95046485E+00  -1.69771308E+00  -1.05365452E+00  -1.04871620E+00  -8.89397953E-01  -2.27880227E+00  -3.87529331E-01  -7.59674111E+00   3.49396306E-01   2.30348221E-02  -2.16578831E+00  -4.32740000E-01   4.19829087E-01   1.87370583E-01   5.07043660E-01  -1.82619741E+00  -5.53796330E+00  -2.65064200E+01  -4.02275478E-01  -7.10655890E+00  -3.24523969E+00  -4.24232985E+01  -1.37625301E+01   1.04332305E+00  -1.00538732E+00   1.79341271E-01  -6.60078422E-02  -8.29778103E-01  -1.86646023E+01  -7.56744679E+00  -1.72888054E+00  -2.96109452E+00  -1.41115532E+01   1.16796788E-01
   5.33750000E+02   5.00000000E-01   5.00000000E-01  -6.65900581E+00  -1.00331386E+00  -4.86383976E+00  -2.39629138E+00  -2.46099054E+00   9.37038911E-02  -3.93660519E+00   6.19307815E-01   1.84279263E+00   1.26795177E+00   1.95536812E+00  -1.68796306E+00  -1.05880849E+00  -1.03936892E+00  -8.88027247E-01  -2.26001455E+00  -3.74356257E-01  -7.55393470E+00   3.41167619E-01   2.30440415E-02  -2.17603952E+00  -4.26703161E-01   4.09997256E-01   1.93139070E-01   5.04093892E-01  -1.83054713E+00  -5.49135969E+00  -2.63590466E+01  -3.81271541E-01  -7.07553875E+00  -3.24257249E+00  -4.20296259E+01  -1.35850248E+01   1.04032765E+00  -1.01296681E+00   1.69878581E-01  -6.71529633E-02  -8.32625405E-01  -1.85695660E+01  -7.55002309E+00  -1.72521306E+00  -2.94356829E+00  -1.40532100E+01   1.16796787E-01
   5.51250000E+02   5.00000000E-01   5.00000000E-01  -6.61319162E+00  -9.76468097E-01  -4.84437262E+00  -2.38409710E+00  -2.44728927E+00   9.37038908E-02  -3.90644670E+00   6.34901038E-01   1.84129707E+00   1.28313797E+00   1.96041947E+00  -1.67878833E+00  -1.06439846E+00  -1.03060071E+00  -8.87161991E-01  -2.24130216E+00  -3.61620760E-01  -7.51174376E+00   3.32850070E-01   2.30525691E-02  -2.18686704E+00  -4.21053809E-01   3.99926030E-01   1.98514961E-01   5.00832070E-01  -1.83531168E+00  -5.44446025E+00  -2.62128663E+01  -3.60255821E-01  -7.04490505E+00  -3.24026329E+00  -4.16398987E+01  -1.34095986E+01   1.03734562E+00  -1.02089494E+00   1.59943711E-01  -6.82672612E-02  -8.35205574E-01  -1.84762333E+01  -7.53234257E+00  -1.72134904E+00  -2.92634528E+00  -1.39951919E+01   1.16796785E-01
   5.68750000E+02   5.00000000E-01   5.00000000E-01  -6.56758795E+00  -9.50454161E-01  -4.82500752E+00  -2.37178069E+00  -2.43347975E+00   9.37038906E-02  -3.87684875E+00   6.50550793E-01   1.84001774E+00   1.29837676E+00   1.96561804E+00  -1.67016619E+00  -1.07040374E+00  -1.02238895E+00  -8.86780537E-01  -2.22266416E+00  -3.49297608E-01  -7.47015159E+00   3.24454371E-01   2.30605744E-02  -2.19824962E+00  -4.15773413E-01   3.89631775E-01   2.03516703E-01   4.97275574E-01  -1.84047435E+00  -5.39726461E+00  -2.60678555E+01  -3.39231897E-01  -7.01464314E+00  -3.23829499E+00  -4.12540453E+01  -1.32362043E+01   1.03437963E+00  -1.02915927E+00   1.49549950E-01  -6.93498894E-02  -8.37527220E-01  -1.83845108E+01  -7.51440605E+00  -1.71729513E+00  -2.90940308E+00  -1.39374983E+01   1.16796782E-01
   5.86250000E+02   5.00000000E-01   5.00000000E-01  -6.52219698E+00  -9.25231637E-01  -4.80574663E+00  -2.35934939E+00  -2.41956902E+00   9.37038903E-02  -3.84779051E+00   6.66255167E-01   1.83895043E+00   1.31366616E+00   1.97096056E+00  -1.66206874E+00  -1.07679848E+00  -1.01470585E+00  -8.86856054E-01  -2.20410063E+00  -3.37365242E-01  -7.42913795E+00   3.15992912E-01   2.30682140E-02  -2.21015841E+00  -4.10840263E-01   3.79134081E-01   2.08165946E-01   4.93444991E-01  -1.84601382E+00  -5.34977990E+00  -2.59239904E+01  -3.18203115E-01  -6.98473598E+00  -3.23664700E+00  -4.08719963E+01  -1.30647979E+01   1.03143225E+00  -1.03774952E+00   1.38709562E-01  -7.04000379E-02  -8.39598508E-01  -1.82943105E+01  -7.49621782E+00  -1.71305765E+00  -2.89272267E+00  -1.38801285E+01   1.16796778E-01
   6.03750000E+02   5.00000000E-01   5.00000000E-01  -6.47702128E+00  -9.00765182E-01  -4.78659234E+00  -2.34681093E+00  -2.40556463E+00   9.37038901E-02  -3.81925372E+00   6.82011783E-01   1.83809048E+00   1.32900374E+00   1.97644334E+00  -1.65446728E+00  -1.08355590E+00  -1.00752276E+00  -8.87360844E-01  -2.18561187E+00  -3.25804658E-01  -7.38868219E+00   3.07478320E-01   2.30756394E-02  -2.22256326E+00  -4.06232175E-01   3.68453062E-01   2.12484843E-01   4.89361421E-01  -1.85190797E+00  -5.30201490E+00  -2.57812476E+01  -2.97172598E-01  -6.95516639E+00  -3.23529831E+00  -4.04936849E+01  -1.28953379E+01   1.02850602E+00  -1.04665673E+00   1.27433835E-01  -7.14169354E-02  -8.41427180E-01  -1.82055516E+01  -7.47778319E+00  -1.70864256E+00  -2.87628735E+00  -1.38230814E+01   1.16796771E-01
   6.21250000E+02   5.00000000E-01   5.00000000E-01  -6.43206195E+00  -8.77022133E-01  -4.76754632E+00  -2.33417073E+00  -2.39147182E+00   9.37038898E-02  -3.79122151E+00   6.97820236E-01   1.83743530E+00   1.34438906E+00   1.98206472E+00  -1.64733726E+00  -1.09065339E+00  -1.00081516E+00  -8.88271344E-01  -2.16719741E+00  -3.14598147E-01  -7.34876685E+00   2.98921873E-01   2.30830017E-02  -2.23544012E+00  -4.01929511E-01   3.57606327E-01   2.16493023E-01   4.85043444E-01  -1.85813847E+00  -5.25397290E+00  -2.56396049E+01  -2.76143258E-01  -6.92591969E+00  -3.23423103E+00  -4.01190476E+01  -1.27277853E+01   1.02560357E+00  -1.05587218E+00   1.15733128E-01  -7.23998513E-02  -8.43020576E-01  -1.81181602E+01  -7.45910545E+00  -1.70405551E+00  -2.86008164E+00  -1.37663558E+01   1.16796761E-01