 TITLE = "Mineral Saturation State" 
VARIABLES = "X"          "Y"              "Z"            "Forsterite"     "Fayalite"       "Saponite(Mg)"   "Enstatite(alph" "Ferrosilite(al" "Anorthite"      "Albite(low)"    "Clinochlore"    "Sudoite"        "Montmorillonit" "Kaolinite"      "Tremolite"      "Pargasite"      "Anhydrite"      "Epidote"        "Scolecite"      "Pyrite"         "FeS(am)"        "Quartz(alpha)" 
 ZONE I=         100 , J=           1 , K=           1  F=POINT
   1.75000000E+01   5.00000000E-01   5.00000000E-01  -8.10697194E+00  -1.38561440E+00   1.09024266E-02  -3.05982035E+00  -7.59027647E-01  -9.57054319E+00  -5.43438274E-01   1.30859238E-02  -2.64134158E+00  -1.00952430E+00  -2.58379327E+00  -8.61393426E+00  -3.21536817E+01  -9.70404875E-01  -7.34954000E-07  -4.38519325E+00  -3.14354821E+01  -3.47150372E+00   7.05515935E-01
   5.25000000E+01   5.00000000E-01   5.00000000E-01  -8.11311508E+00  -9.08411866E-01   1.08706643E-02  -3.04688002E+00  -4.95440492E-01  -9.15718377E+00  -3.04861538E-01   1.31092154E-02  -2.12016190E+00  -6.12965312E-01  -2.20346021E+00  -8.67985364E+00  -3.15944366E+01  -9.37102287E-01   1.69317781E-07  -4.01574137E+00  -3.08268235E+01  -3.24367445E+00   7.51596370E-01
   8.75000000E+01   5.00000000E-01   5.00000000E-01  -8.05323394E+00  -6.33338021E-01   1.08689649E-02  -3.02048577E+00  -3.52638981E-01  -8.92238703E+00  -2.33118705E-01   1.30875566E-02  -1.91070872E+00  -4.71938315E-01  -2.05285311E+00  -8.68849757E+00  -3.11573798E+01  -9.02728117E-01   2.35418468E-08  -3.86297113E+00  -3.03712670E+01  -3.12395593E+00   7.58293999E-01
   1.22500000E+02   5.00000000E-01   5.00000000E-01  -7.98473410E+00  -4.60633155E-01   1.08450064E-02  -2.99260944E+00  -2.64007444E-01  -8.71768422E+00  -1.87083324E-01   1.30639591E-02  -1.74958815E+00  -3.70393148E-01  -1.93805776E+00  -8.69035665E+00  -3.07466384E+01  -8.67347837E-01   2.87981196E-09  -3.74496823E+00  -2.99838268E+01  -3.05988499E+00   7.59077986E-01
   1.57500000E+02   5.00000000E-01   5.00000000E-01  -7.91436253E+00  -3.46525147E-01   1.07996171E-02  -2.96464382E+00  -2.05674466E-01  -8.52541069E+00  -1.50033244E-01   1.30344767E-02  -1.60564248E+00  -2.82746453E-01  -1.83611003E+00  -8.69123235E+00  -3.03505854E+01  -8.31048155E-01  -5.11639745E-09  -3.64012282E+00  -2.96372559E+01  -3.02851246E+00   7.57916724E-01
   1.92500000E+02   5.00000000E-01   5.00000000E-01  -7.84268224E+00  -2.68180765E-01   1.07378519E-02  -2.93669200E+00  -1.66040528E-01  -8.34381148E+00  -1.20407202E-01   1.30001496E-02  -1.47605140E+00  -2.06660018E-01  -1.74491298E+00  -8.69137248E+00  -2.99677356E+01  -7.93925023E-01  -1.17282832E-08  -3.54633907E+00  -2.93187329E+01  -3.01773582E+00   7.55173845E-01
   2.27500000E+02   5.00000000E-01   5.00000000E-01  -7.76990800E+00  -2.12882538E-01   1.06663128E-02  -2.90878480E+00  -1.38666044E-01  -8.17200724E+00  -9.74863725E-02   1.29635863E-02  -1.35959494E+00  -1.41103938E-01  -1.66354963E+00  -8.69066280E+00  -2.95971175E+01  -7.56075636E-01  -1.75670529E-08  -3.46260034E+00  -2.90210166E+01  -3.02071942E+00   7.51009006E-01
   2.62500000E+02   5.00000000E-01   5.00000000E-01  -7.69638103E+00  -1.73073374E-01   1.05921643E-02  -2.88097992E+00  -1.19655432E-01  -8.00879563E+00  -8.02427264E-02   1.29267907E-02  -1.25448239E+00  -8.45782976E-02  -1.59068351E+00  -8.68909481E+00  -2.92375506E+01  -7.17593592E-01  -2.24255908E-08  -3.38749402E+00  -2.87395932E+01  -3.03334798E+00   7.45654359E-01
   2.97500000E+02   5.00000000E-01   5.00000000E-01  -7.62247170E+00  -1.43996410E-01   1.05195673E-02  -2.85334251E+00  -1.06506250E-01  -7.85291736E+00  -6.75893809E-02   1.28915174E-02  -1.15879893E+00  -3.54869390E-02  -1.52488899E+00  -8.68671559E+00  -2.88878438E+01  -6.78566365E-01  -2.62483884E-08  -3.31953611E+00  -2.84714726E+01  -3.05300058E+00   7.39356119E-01
   3.32500000E+02   5.00000000E-01   5.00000000E-01  -7.54850905E+00  -1.22519713E-01   1.04509355E-02  -2.82593006E+00  -9.75417021E-02  -7.70324368E+00  -5.85552520E-02   1.28586829E-02  -1.07082879E+00   7.59853415E-03  -1.46488830E+00  -8.68357438E+00  -2.85469270E+01  -6.39074184E-01  -2.90849492E-08  -3.25739893E+00  -2.82145885E+01  -3.07793201E+00   7.32334248E-01
   3.67500000E+02   5.00000000E-01   5.00000000E-01  -7.47475986E+00  -1.06512765E-01   1.03884021E-02  -2.79878767E+00  -9.16045744E-02  -7.55883097E+00  -5.23353675E-02   1.28283328E-02  -9.89150342E-01   4.58623225E-02  -1.40962094E+00  -8.67970346E+00  -2.82138873E+01  -5.99189725E-01  -3.10147088E-08  -3.19997718E+00  -2.79674646E+01  -3.10694008E+00   7.24771053E-01
   4.02500000E+02   5.00000000E-01   5.00000000E-01  -7.40143178E+00  -9.44933655E-02   1.03323990E-02  -2.77194904E+00  -8.78801193E-02  -7.41891146E+00  -4.82840685E-02   1.28004433E-02  -9.12620540E-01   8.02548165E-02  -1.35823307E+00  -8.67512253E+00  -2.78879624E+01  -5.58978249E-01  -3.21145112E-08  -3.14637752E+00  -2.77290162E+01  -3.13917465E+00   7.16812321E-01
   4.37500000E+02   5.00000000E-01   5.00000000E-01  -7.32868258E+00  -8.54137483E-02   1.02826092E-02  -2.74543813E+00  -8.57861394E-02  -7.28286698E+00  -4.58900981E-02   1.27748149E-02  -8.40332009E-01   1.11529417E-01  -1.31004546E+00  -8.66984085E+00  -2.75685189E+01  -5.18497987E-01  -3.24535471E-08  -3.09588633E+00  -2.74984241E+01  -3.17402136E+00   7.08573259E-01
   4.72500000E+02   5.00000000E-01   5.00000000E-01  -7.25663055E+00  -7.85251932E-02   1.02385081E-02  -2.71927118E+00  -8.49020915E-02  -7.15019943E+00  -4.47491520E-02   1.27511202E-02  -7.71564760E-01   1.40283200E-01  -1.26451768E+00  -8.66386087E+00  -2.72550291E+01  -4.77800621E-01  -3.20937434E-08  -3.04793387E+00  -2.72750533E+01  -3.21102759E+00   7.00144890E-01
   5.07500000E+02   5.00000000E-01   5.00000000E-01  -7.18536377E+00  -7.32890132E-02   1.01993910E-02  -2.69345857E+00  -8.49218478E-02  -7.02050463E+00  -4.45399122E-02   1.27290322E-02  -7.05743245E-01   1.66992420E-01  -1.22121647E+00  -8.65718228E+00  -2.69470502E+01  -4.36931814E-01  -3.10925185E-08  -3.00206260E+00  -2.70583978E+01  -3.24985368E+00   6.91599517E-01
   5.42500000E+02   5.00000000E-01   5.00000000E-01  -7.11494731E+00  -6.93160393E-02   1.01645207E-02  -2.66800632E+00  -8.56212726E-02  -6.89345162E+00  -4.50051395E-02   1.27082476E-02  -6.42403005E-01   1.92040379E-01  -1.17979112E+00  -8.64980433E+00  -2.66442072E+01  -3.95931747E-01  -2.95067630E-08  -2.95790223E+00  -2.68480434E+01  -3.29023982E+00   6.82995045E-01
   5.77500000E+02   5.00000000E-01   5.00000000E-01  -7.04542853E+00  -6.63245072E-02   1.01332153E-02  -2.64291711E+00  -8.68355671E-02  -6.76876721E+00  -4.59376089E-02   1.26884957E-02  -5.81166029E-01   2.15738023E-01  -1.13995520E+00  -8.64172719E+00  -2.63461803E+01  -3.54835632E-01  -2.73954135E-08  -2.91515101E+00  -2.66436413E+01  -3.33198311E+00   6.74378176E-01
   6.12500000E+02   5.00000000E-01   5.00000000E-01  -6.97684082E+00  -6.41101493E-02   1.01048826E-02  -2.61819105E+00  -8.84431962E-02  -6.64622492E+00  -4.71701585E-02   1.26695409E-02  -5.21723486E-01   2.38338406E-01  -1.10147382E+00  -8.63295243E+00  -2.60526948E+01  -3.13674204E-01  -2.48214708E-08  -2.87356250E+00  -2.64448906E+01  -3.37492131E+00   6.65786643E-01
   6.47500000E+02   5.00000000E-01   5.00000000E-01  -6.90920603E+00  -6.25245959E-02   1.00790289E-02  -2.59382616E+00  -9.03543440E-02  -6.52563730E+00  -4.85689482E-02   1.26511803E-02  -4.63824233E-01   2.60046337E-01  -1.06415514E+00  -8.62348291E+00  -2.57635141E+01  -2.72474178E-01  -2.18527957E-08  -2.83293637E+00  -2.62515248E+01  -3.41892130E+00   6.57250693E-01
   6.82500000E+02   5.00000000E-01   5.00000000E-01  -6.84253609E+00  -6.14595850E-02   1.00552548E-02  -2.56981867E+00  -9.25025410E-02  -6.40685080E+00  -5.00290190E-02   1.26332396E-02  -4.07267469E-01   2.81024602E-01  -1.02784485E+00  -8.61332208E+00  -2.54784345E+01  -2.31258666E-01  -1.85616957E-08  -2.79311237E+00  -2.60633037E+01  -3.46387062E+00   6.48794046E-01
   7.17500000E+02   5.00000000E-01   5.00000000E-01  -6.77683394E+00  -6.08353433E-02   1.00332435E-02  -2.54616322E+00  -9.48385454E-02  -6.28974216E+00  -5.14713143E-02   1.26155703E-02  -3.51898008E-01   3.01397991E-01  -9.92422741E-01  -8.60247301E+00  -2.51972810E+01  -1.90047561E-01  -1.50236508E-08  -2.75396607E+00  -2.58800063E+01  -3.50967138E+00   6.40434502E-01
   7.52500000E+02   5.00000000E-01   5.00000000E-01  -6.71209426E+00  -6.05920446E-02   1.00127454E-02  -2.52285301E+00  -9.73258492E-02  -6.17421565E+00  -5.28404433E-02   1.25980492E-02  -2.97602861E-01   3.21256244E-01  -9.57800089E-01  -8.59093741E+00  -2.49199042E+01  -1.48857892E-01  -1.13149740E-08  -2.71540567E+00  -2.57014270E+01  -3.55623586E+00   6.32184388E-01
   7.87500000E+02   5.00000000E-01   5.00000000E-01  -6.64830417E+00  -6.06835945E-02   9.99355821E-03  -2.49987991E+00  -9.99373653E-02  -6.06020046E+00  -5.41026165E-02   1.25805802E-02  -2.44308073E-01   3.40656766E-01  -9.23917351E-01  -8.57871464E+00  -2.46461766E+01  -1.07704143E-01  -7.51002483E-09  -2.67736903E+00  -2.55273723E+01  -3.60348338E+00   6.24050966E-01
   8.22500000E+02   5.00000000E-01   5.00000000E-01  -6.58544391E+00  -6.10732002E-02   9.97550724E-03  -2.47723461E+00  -1.02652978E-01  -5.94764797E+00  -5.52433598E-02   1.25630961E-02  -1.91975089E-01   3.59627711E-01  -8.90741446E-01  -8.56580099E+00  -2.43759897E+01  -6.65985530E-02  -3.67822263E-09  -2.63982042E+00  -2.53576587E+01  -3.65133821E+00   6.16036898E-01
   8.57500000E+02   5.00000000E-01   5.00000000E-01  -6.52348784E+00  -6.17303106E-02   9.95843292E-03  -2.45490679E+00  -1.05457725E-01  -5.83652852E+00  -5.62648098E-02   1.25455586E-02  -1.40596293E-01   3.78171748E-01  -8.58262454E-01  -8.55218916E+00  -2.41092509E+01  -2.55513877E-02   1.18484214E-10  -2.60274677E+00  -2.51921113E+01  -3.69972820E+00   6.08140820E-01
   8.92500000E+02   5.00000000E-01   5.00000000E-01  -6.46240557E+00  -6.26285850E-02   9.94219828E-03  -2.43288539E+00  -1.08340433E-01  -5.72682785E+00  -5.71825665E-02   1.25279516E-02  -9.01896909E-02   3.96270550E-01  -8.26489669E-01  -8.53786817E+00  -2.38458796E+01   1.54287977E-02   3.82776899E-09  -2.56615340E+00  -2.50305629E+01  -3.74858409E+00   6.00358035E-01
   9.27500000E+02   5.00000000E-01   5.00000000E-01  -6.40216317E+00  -6.37446114E-02   9.92671530E-03  -2.41115879E+00  -1.11292689E-01  -5.61854324E+00  -5.80222305E-02   1.25102701E-02  -4.07929659E-02   4.13889802E-01  -7.95447178E-01  -8.52282336E+00  -2.35858041E+01   5.63349132E-02   7.40775983E-09  -2.53005941E+00  -2.48728535E+01  -3.79783922E+00   5.92681292E-01
   9.62500000E+02   5.00000000E-01   5.00000000E-01  -6.34272459E+00  -6.50571380E-02   9.91197036E-03  -2.38971513E+00  -1.14308040E-01  -5.51167958E+00  -5.88158391E-02   1.24925076E-02   7.54274990E-03   4.30984437E-01  -7.65169245E-01  -8.50703671E+00  -2.33289582E+01   9.71610984E-02   1.08272557E-08  -2.49449290E+00  -2.47188302E+01  -3.84742957E+00   5.85101608E-01
   9.97500000E+02   5.00000000E-01   5.00000000E-01  -6.28405289E+00  -6.65466400E-02   9.89800211E-03  -2.36854254E+00  -1.17381391E-01  -5.40624560E+00  -5.95984475E-02   1.24746579E-02   5.47590314E-02   4.47503704E-01  -7.35695760E-01  -8.49048750E+00  -2.30752780E+01   1.37902496E-01   1.40649304E-08  -2.45948648E+00  -2.45683463E+01  -3.89729387E+00   5.77609044E-01
   1.03250000E+03   5.00000000E-01   5.00000000E-01  -6.22611153E+00  -6.81950790E-02   9.88478258E-03  -2.34762943E+00  -1.20508540E-01  -5.30225043E+00  -6.04050778E-02   1.24567400E-02   1.00795927E-01   4.63395773E-01  -7.07068037E-01  -8.47315325E+00  -2.28246995E+01   1.78555035E-01   1.71078232E-08  -2.42507311E+00  -2.44212623E+01  -3.94737394E+00   5.70193388E-01
   1.06750000E+03   5.00000000E-01   5.00000000E-01  -6.16886537E+00  -6.99856899E-02   9.87211142E-03  -2.32696473E+00  -1.23685793E-01  -5.19970085E+00  -6.12682323E-02   1.24388181E-02   1.45596722E-01   4.78611507E-01  -6.79325338E-01  -8.45501061E+00  -2.25771565E+01   2.19115220E-01   1.99495280E-08  -2.39128281E+00  -2.42774448E+01  -3.99761482E+00   5.62844715E-01
   1.10250000E+03   5.00000000E-01   5.00000000E-01  -6.11228131E+00  -7.19026318E-02   9.85974984E-03  -2.30653795E+00  -1.26909555E-01  -5.09859942E+00  -6.22160921E-02   1.24209577E-02   1.89110957E-01   4.93107166E-01  -6.52502563E-01  -8.43603551E+00  -2.23325795E+01   2.59579935E-01   2.25877335E-08  -2.35814035E+00  -2.41367671E+01  -4.04796490E+00   5.55553850E-01
   1.13750000E+03   5.00000000E-01   5.00000000E-01  -6.05632862E+00  -7.39305586E-02   9.84767377E-03  -2.28633922E+00  -1.30175940E-01  -4.99894357E+00  -6.32713459E-02   1.24031558E-02   2.31296070E-01   5.06846149E-01  -6.26628887E-01  -8.41620289E+00  -2.20908944E+01   2.99946259E-01   2.50223934E-08  -2.32566398E+00  -2.39991084E+01  -4.09837590E+00   5.48312718E-01
   1.17250000E+03   5.00000000E-01   5.00000000E-01  -6.00097914E+00  -7.60542318E-02   9.83617575E-03  -2.26635925E+00  -1.33480481E-01  -4.90072492E+00  -6.44505306E-02   1.23853173E-02   2.72118458E-01   5.19800010E-01  -6.01726913E-01  -8.39548669E+00  -2.18520227E+01   3.40211292E-01   2.72544304E-08  -2.29386457E+00  -2.38643543E+01  -4.14880281E+00   5.41114533E-01
   1.20750000E+03   5.00000000E-01   5.00000000E-01  -5.94620753E+00  -7.82582505E-02   9.82562040E-03  -2.24658948E+00  -1.36817990E-01  -4.80392883E+00  -6.57637702E-02   1.23673267E-02   3.11554576E-01   5.31948973E-01  -5.77811985E-01  -8.37386079E+00  -2.16158808E+01   3.80371994E-01   2.92850201E-08  -2.26274516E+00  -2.37323962E+01  -4.19920373E+00   5.33953817E-01
   1.24250000E+03   5.00000000E-01   5.00000000E-01  -5.89199152E+00  -8.05269195E-02   9.81577327E-03  -2.22702226E+00  -1.40182566E-01  -4.70853376E+00  -6.72148063E-02   1.23492290E-02   3.49592431E-01   5.43282117E-01  -5.54891426E-01  -8.35130092E+00  -2.13823804E+01   4.20425038E-01   3.11153445E-08  -2.23230046E+00  -2.36031311E+01  -4.24953969E+00   5.26826238E-01
   1.27750000E+03   5.00000000E-01   5.00000000E-01  -5.83831172E+00  -8.28437063E-02   9.80581141E-03  -2.20765084E+00  -1.43567384E-01  -4.61451190E+00  -6.88015616E-02   1.23312097E-02   3.86230544E-01   5.53796549E-01  -5.32965278E-01  -8.32778456E+00  -2.11514286E+01   4.60366671E-01   3.27451720E-08  -2.20251763E+00  -2.34764612E+01  -4.29977431E+00   5.19728493E-01
   1.31250000E+03   5.00000000E-01   5.00000000E-01  -5.78515074E+00  -8.51902841E-02   9.79531108E-03  -2.18846888E+00  -1.46964199E-01  -4.52183112E+00  -7.05170577E-02   1.23133096E-02   4.21474092E-01   5.63495769E-01  -5.12028601E-01  -8.30328799E+00  -2.09229293E+01   5.00192596E-01   3.41717595E-08  -2.17337820E+00  -2.33522938E+01  -4.34987327E+00   5.12658349E-01
   1.34750000E+03   5.00000000E-01   5.00000000E-01  -5.73249258E+00  -8.75458970E-02   9.78494963E-03  -2.16947019E+00  -1.50363013E-01  -4.43045639E+00  -7.23501151E-02   1.22952429E-02   4.55332112E-01   5.72388438E-01  -4.92073152E-01  -8.27778415E+00  -2.06967833E+01   5.39897869E-01   3.53909379E-08  -2.14485946E+00  -2.32305407E+01  -4.39980388E+00   5.05614657E-01
   1.38250000E+03   5.00000000E-01   5.00000000E-01  -5.68032178E+00  -8.98866457E-02   9.77749986E-03  -2.15064822E+00  -1.53751696E-01  -4.34035165E+00  -7.42861704E-02   1.22761345E-02   4.87813828E-01   5.80486884E-01  -4.73089557E-01  -8.25123964E+00  -2.04728892E+01   5.79476814E-01   3.63972421E-08  -2.11693626E+00  -2.31111181E+01  -4.44953472E+00   4.98597413E-01
   1.41750000E+03   5.00000000E-01   5.00000000E-01  -5.62862487E+00  -9.21866886E-02   9.77526800E-03  -2.13199707E+00  -1.57116841E-01  -4.25147663E+00  -7.63067724E-02   1.22552769E-02   5.18935342E-01   5.87808590E-01  -4.55063768E-01  -8.22362202E+00  -2.02511425E+01   6.18922935E-01   3.71883116E-08  -2.08957844E+00  -2.29939463E+01  -4.49903580E+00   4.91607235E-01
   1.45250000E+03   5.00000000E-01   5.00000000E-01  -5.57739573E+00  -9.44225250E-02   9.77064977E-03  -2.11351509E+00  -1.60446815E-01  -4.16377508E+00  -7.83873154E-02   1.22347942E-02   5.48744767E-01   5.94382205E-01  -4.37963605E-01  -8.19492658E+00  -2.00314323E+01   6.58228801E-01   3.77705169E-08  -2.06274077E+00  -2.28789501E+01  -4.54827958E+00   4.84643548E-01
   1.48750000E+03   5.00000000E-01   5.00000000E-01  -5.52662519E+00  -9.65635427E-02   9.76077952E-03  -2.09519884E+00  -1.63726190E-01  -4.07719839E+00  -8.05054835E-02   1.22151841E-02   5.77273450E-01   6.00230550E-01  -4.21766642E-01  -8.16513259E+00  -1.98136498E+01   6.97386015E-01   3.81327415E-08  -2.03638495E+00  -2.27660568E+01  -4.59723718E+00   4.77706272E-01
   1.52250000E+03   5.00000000E-01   5.00000000E-01  -5.47629701E+00  -9.85693272E-02   9.75500518E-03  -2.07704024E+00  -1.66933604E-01  -3.99171412E+00  -8.26423977E-02   1.21933149E-02   6.04517445E-01   6.05366869E-01  -4.06469901E-01  -8.13418225E+00  -1.95976902E+01   7.36385207E-01   3.82617824E-08  -2.01048658E+00  -2.26551961E+01  -4.64587768E+00   4.70797404E-01
   1.55750000E+03   5.00000000E-01   5.00000000E-01  -5.42639978E+00  -1.00400606E-01   9.75716584E-03  -2.05903380E+00  -1.70048432E-01  -3.90727894E+00  -8.47738926E-02   1.21678231E-02   6.30493675E-01   6.09813065E-01  -3.92058187E-01  -8.10203294E+00  -1.93834433E+01   7.75215964E-01   3.81653990E-08  -1.98501046E+00  -2.25463017E+01  -4.69417207E+00   4.63918617E-01
   1.59250000E+03   5.00000000E-01   5.00000000E-01  -5.37693221E+00  -1.02022957E-01   9.75427866E-03  -2.04118062E+00  -1.73054076E-01  -3.82382759E+00  -8.68707051E-02   1.21421464E-02   6.55264301E-01   6.13602385E-01  -3.78492124E-01  -8.06868808E+00  -1.91707910E+01   8.13866724E-01   3.78572339E-08  -1.95990244E+00  -2.24393111E+01  -4.74209356E+00   4.57068398E-01
   1.62750000E+03   5.00000000E-01   5.00000000E-01  -5.32788340E+00  -1.03389164E-01   9.74387872E-03  -2.02347711E+00  -1.75927653E-01  -3.74131804E+00  -8.89151418E-02   1.21160661E-02   6.78843872E-01   6.16746321E-01  -3.65761465E-01  -8.03411511E+00  -1.89596246E+01   8.52324810E-01   3.73261178E-08  -1.93513163E+00  -2.23341620E+01  -4.78961033E+00   4.50245018E-01
   1.66250000E+03   5.00000000E-01   5.00000000E-01  -5.27923495E+00  -1.04442604E-01   9.73307031E-03  -2.00591562E+00  -1.78641336E-01  -3.65972606E+00  -9.08969644E-02   1.20862877E-02   7.01209679E-01   6.19241298E-01  -3.53878142E-01  -7.99825003E+00  -1.87498417E+01   8.90576431E-01   3.65701653E-08  -1.91068423E+00  -2.22307940E+01  -4.83668740E+00   4.43447238E-01
   1.69750000E+03   5.00000000E-01   5.00000000E-01  -5.23097046E+00  -1.05126334E-01   9.72314293E-03  -1.98849055E+00  -1.81168177E-01  -3.57902395E+00  -9.28078785E-02   1.20510540E-02   7.22346612E-01   6.21081373E-01  -3.42851618E-01  -7.96104205E+00  -1.85413392E+01   9.28606624E-01   3.56022259E-08  -1.88654485E+00  -2.21291491E+01  -4.88328965E+00   4.36671753E-01
   1.73250000E+03   5.00000000E-01   5.00000000E-01  -5.18307100E+00  -1.05379110E-01   9.71221947E-03  -1.97119664E+00  -1.83480724E-01  -3.49919215E+00  -9.46497710E-02   1.20089712E-02   7.42225367E-01   6.22244887E-01  -3.32703281E-01  -7.92244341E+00  -1.83340202E+01   9.66399202E-01   3.44321356E-08  -1.86270935E+00  -2.20291709E+01  -4.92937916E+00   4.29911970E-01
   1.76750000E+03   5.00000000E-01   5.00000000E-01  -5.13550841E+00  -1.05130385E-01   9.70396399E-03  -1.95402525E+00  -1.85548173E-01  -3.42023504E+00  -9.64411673E-02   1.19563015E-02   7.60770959E-01   6.22682319E-01  -3.23484821E-01  -7.88238350E+00  -1.81278006E+01   1.00393664E+00   3.30676848E-08  -1.83919990E+00  -2.19308033E+01  -4.97491305E+00   4.23158713E-01
   1.80250000E+03   5.00000000E-01   5.00000000E-01  -5.08824763E+00  -1.04303977E-01   9.70473462E-03  -1.93696568E+00  -1.87338256E-01  -3.34217570E+00  -9.82148190E-02   1.18879665E-02   7.77874172E-01   6.22321006E-01  -3.15271437E-01  -7.84077885E+00  -1.79226082E+01   1.04119981E+00   3.15243983E-08  -1.81605995E+00  -2.18339917E+01  -5.01984504E+00   4.16400100E-01
   1.83750000E+03   5.00000000E-01   5.00000000E-01  -5.04124881E+00  -1.02821265E-01   9.72101509E-03  -1.92000619E+00  -1.88818928E-01  -3.26505181E+00  -1.00015813E-01   1.17984460E-02   7.93401422E-01   6.21069013E-01  -3.08156029E-01  -7.79754235E+00  -1.77183819E+01   1.07816741E+00   2.98236965E-08  -1.79335021E+00  -2.17386836E+01  -5.06412688E+00   4.09621376E-01
   1.87250000E+03   5.00000000E-01   5.00000000E-01  -4.99446857E+00  -1.00603823E-01   9.75730296E-03  -1.90313491E+00  -1.89959851E-01  -3.18891387E+00  -1.01901064E-01   1.16824032E-02   8.07200957E-01   6.18816824E-01  -3.02245784E-01  -7.75259185E+00  -1.75150732E+01   1.11481470E+00   2.79907939E-08  -1.77114723E+00  -2.16448293E+01  -5.10770936E+00   4.02804575E-01
   1.90750000E+03   5.00000000E-01   5.00000000E-01  -4.94785711E+00  -9.75727302E-02   9.81231714E-03  -1.88634013E+00  -1.90733859E-01  -3.11383671E+00  -1.03951636E-01   1.15347901E-02   8.19087785E-01   6.15419937E-01  -2.97674778E-01  -7.70586063E+00  -1.73126603E+01   1.15111079E+00   2.60496213E-08  -1.74955861E+00  -2.15523816E+01  -5.15054017E+00   3.95924897E-01
   1.94250000E+03   5.00000000E-01   5.00000000E-01  -4.90134997E+00  -9.36445060E-02   9.88522342E-03  -1.86960693E+00  -1.91115657E-01  -3.03994412E+00  -1.06286460E-01   1.13485816E-02   8.28804792E-01   6.10676902E-01  -2.94628995E-01  -7.65728400E+00  -1.71111670E+01   1.18701281E+00   2.40210204E-08  -1.72874900E+00  -2.14612961E+01  -5.19256111E+00   3.88949247E-01
   1.97750000E+03   5.00000000E-01   5.00000000E-01  -4.85487241E+00  -8.87394725E-02   9.98038130E-03  -1.85291694E+00  -1.91083541E-01  -2.96740278E+00  -1.09046252E-01   1.11150493E-02   8.36045816E-01   6.04353689E-01  -2.93327663E-01  -7.60680854E+00  -1.69106678E+01   1.22245284E+00   2.19305621E-08  -1.70892919E+00  -2.13715380E+01  -5.23371459E+00   3.81841157E-01
   2.01250000E+03   5.00000000E-01   5.00000000E-01  -4.80835651E+00  -8.28009137E-02   1.01042463E-02  -1.83625278E+00  -1.90624902E-01  -2.89639221E+00  -1.12355028E-01   1.08269071E-02   8.40538554E-01   5.96244410E-01  -2.93965081E-01  -7.55444622E+00  -1.67112894E+01   1.25730897E+00   1.98080728E-08  -1.69031785E+00  -2.12830956E+01  -5.27395712E+00   3.74568940E-01
   2.04750000E+03   5.00000000E-01   5.00000000E-01  -4.76175830E+00  -7.58132685E-02   1.02607518E-02  -1.81960292E+00  -1.89741609E-01  -2.82709317E+00  -1.16283502E-01   1.04809111E-02   8.42125546E-01   5.86229167E-01  -2.96654164E-01  -7.50036604E+00  -1.65132487E+01   1.29134035E+00   1.76756748E-08  -1.67312254E+00  -2.11960031E+01  -5.31327216E+00   3.67113109E-01
   2.08250000E+03   5.00000000E-01   5.00000000E-01  -4.71506556E+00  -6.78136767E-02   1.04488970E-02  -1.80296390E+00  -1.88454097E-01  -2.75974047E+00  -1.20833069E-01   1.00777392E-02   8.40798739E-01   5.74299426E-01  -3.01401854E-01  -7.44504996E+00  -1.63169869E+01   1.32404159E+00   1.55294306E-08  -1.65758915E+00  -2.11103826E+01  -5.35167790E+00   3.59469757E-01
   2.11750000E+03   5.00000000E-01   5.00000000E-01  -4.66830395E+00  -5.89093865E-02   1.06632098E-02  -1.78634144E+00  -1.86808104E-01  -2.69476658E+00  -1.25920797E-01   9.62059894E-03   8.36725145E-01   5.60581007E-01  -3.08089293E-01  -7.38961343E+00  -1.61234767E+01   1.35431914E+00   1.33188711E-08  -1.64414158E+00  -2.10265353E+01  -5.38923869E+00   3.51654480E-01
   2.15250000E+03   5.00000000E-01   5.00000000E-01  -4.62155014E+00  -4.93208211E-02   1.08944547E-02  -1.76975289E+00  -1.84892101E-01  -2.63310593E+00  -1.31347914E-01   9.11284711E-03   8.30302811E-01   5.45383024E-01  -3.16429065E-01  -7.33648720E+00  -1.59348774E+01   1.37979997E+00   1.09148876E-08  -1.63367784E+00  -2.09451408E+01  -5.42609223E+00   3.43710590E-01
   2.18750000E+03   5.00000000E-01   5.00000000E-01  -4.57495280E+00  -3.94753115E-02   1.11306892E-02  -1.75323112E+00  -1.82877560E-01  -2.57678435E+00  -1.36752975E-01   8.55297297E-03   8.22247934E-01   5.29274286E-01  -3.25897942E-01  -7.29071064E+00  -1.57557890E+01   1.39550571E+00   8.05788625E-09  -1.62814628E+00  -2.08676475E+01  -5.46250600E+00   3.35722309E-01
   2.22250000E+03   5.00000000E-01   5.00000000E-01  -4.52873981E+00  -3.01530583E-02   1.13626068E-02  -1.73682435E+00  -1.81088146E-01  -2.52978176E+00  -1.41605311E-01   7.92662359E-03   8.13615403E-01   5.13109746E-01  -3.35715425E-01  -7.26167640E+00  -1.55950144E+01   1.39197735E+00   4.30327577E-09  -1.63140074E+00  -2.07968498E+01  -5.49895903E+00   3.27822348E-01
   2.25750000E+03   5.00000000E-01   5.00000000E-01  -4.48311286E+00  -2.24927739E-02   1.16032377E-02  -1.72056908E+00  -1.80028172E-01  -2.49833672E+00  -1.45470767E-01   7.20346057E-03   8.05319656E-01   4.97654953E-01  -3.45187276E-01  -7.26307096E+00  -1.54658289E+01   1.35487259E+00  -9.41293913E-10  -1.64955631E+00  -2.07370918E+01  -5.53612437E+00   3.20140640E-01
   2.29250000E+03   5.00000000E-01   5.00000000E-01  -4.43791058E+00  -1.73140055E-02   1.19196177E-02  -1.70441297E+00  -1.80135080E-01  -2.48839007E+00  -1.48796660E-01   6.36298091E-03   7.96656309E-01   4.82384718E-01  -3.54795764E-01  -7.30574382E+00  -1.53797057E+01   1.27108507E+00  -8.05687795E-09  -1.68861571E+00  -2.06925974E+01  -5.57443273E+00   3.12621694E-01
   2.32750000E+03   5.00000000E-01   5.00000000E-01  -4.39241099E+00  -1.38733670E-02   1.24031498E-02  -1.68818359E+00  -1.81225073E-01  -2.49959933E+00  -1.53309542E-01   5.45259476E-03   7.84492974E-01   4.64758934E-01  -3.66838076E-01  -7.38470820E+00  -1.53335741E+01   1.14123391E+00  -1.63476639E-08  -1.74861861E+00  -2.06638125E+01  -5.61334352E+00   3.04889571E-01
   2.36250000E+03   5.00000000E-01   5.00000000E-01  -4.34596931E+00  -1.00175405E-02   1.30345470E-02  -1.67175564E+00  -1.82417921E-01  -2.52253858E+00  -1.60484899E-01   4.59411783E-03   7.66136977E-01   4.42443547E-01  -3.83370148E-01  -7.47757913E+00  -1.53063236E+01   9.83307608E-01  -2.32413601E-08  -1.82053822E+00  -2.06461308E+01  -5.65152336E+00   2.96551269E-01
   2.39750000E+03   5.00000000E-01   5.00000000E-01  -4.29873819E+00  -4.05831553E-03   1.36546964E-02  -1.65520466E+00  -1.82868114E-01  -2.54421536E+00  -1.69915434E-01   3.89530431E-03   7.42452054E-01   4.15896481E-01  -4.03875466E-01  -7.55980011E+00  -1.52723909E+01   8.20512464E-01  -2.52106718E-08  -1.89138540E+00  -2.06332103E+01  -5.68801723E+00   2.87609461E-01
   2.43250000E+03   5.00000000E-01   5.00000000E-01  -4.25140034E+00   4.26789315E-03   1.41218064E-02  -1.63870899E+00  -1.82280226E-01  -2.55502186E+00  -1.79960581E-01   3.38376786E-03   7.16585593E-01   3.87530892E-01  -4.26106340E-01  -7.61658635E+00  -1.52148646E+01   6.69916029E-01  -2.05768377E-08  -1.95123109E+00  -2.06201220E+01  -5.72277629E+00   2.78391271E-01
   2.46750000E+03   5.00000000E-01   5.00000000E-01  -4.20459022E+00   1.42949552E-02   1.44030597E-02  -1.62240692E+00  -1.80807780E-01  -2.55081741E+00  -1.89096756E-01   3.02533400E-03   6.91399431E-01   3.59686568E-01  -4.47950285E-01  -7.64352056E+00  -1.51276844E+01   5.40516810E-01  -1.12086345E-08  -1.99558142E+00  -2.06038475E+01  -5.75629588E+00   2.69255657E-01
   2.50250000E+03   5.00000000E-01   5.00000000E-01  -4.15868217E+00   2.51032867E-02   1.45387408E-02  -1.60636339E+00  -1.78787735E-01  -2.53176786E+00  -1.96428885E-01   2.76768977E-03   6.68564462E-01   3.33811047E-01  -4.68133899E-01  -7.64309329E+00  -1.50125587E+01   4.34859211E-01  -1.11575849E-09  -2.02436239E+00  -2.05829711E+01  -5.78918051E+00   2.60448152E-01
   2.53750000E+03   5.00000000E-01   5.00000000E-01  -4.11382455E+00   3.58978647E-02   1.45875053E-02  -1.59059201E+00  -1.76556471E-01  -2.50033777E+00  -2.01615993E-01   2.56816180E-03   6.48742797E-01   3.10529046E-01  -4.86124685E-01  -7.62102377E+00  -1.48750313E+01   3.51096279E-01   6.53628052E-09  -2.03992194E+00  -2.05573816E+01  -5.82192063E+00   2.52090892E-01
   2.57250000E+03   5.00000000E-01   5.00000000E-01  -4.07002973E+00   4.61461472E-02   1.45960441E-02  -1.57508191E+00  -1.74362629E-01  -2.45952417E+00  -2.04650749E-01   2.40335901E-03   6.32003439E-01   2.89947238E-01  -5.01841816E-01  -7.58333082E+00  -1.47212336E+01   2.85396356E-01   1.08438796E-08  -2.04522744E+00  -2.05277419E+01  -5.85482762E+00   2.44219014E-01
   2.60750000E+03   5.00000000E-01   5.00000000E-01  -4.02725188E+00   5.55680407E-02   1.45905046E-02  -1.55981595E+00  -1.72351496E-01  -2.41189222E+00  -2.05665218E-01   2.26650558E-03   6.18169395E-01   2.71936009E-01  -5.15402416E-01  -7.53487907E+00  -1.45562126E+01   2.33831439E-01   1.24275548E-08  -2.04285996E+00  -2.04949231E+01  -5.88805645E+00   2.36821917E-01
   2.64250000E+03   5.00000000E-01   5.00000000E-01  -3.98543165E+00   6.40653565E-02   1.45807987E-02  -1.54477867E+00  -1.70585839E-01  -2.35933119E+00  -2.04818181E-01   2.15963208E-03   6.07009621E-01   2.56300336E-01  -5.26974379E-01  -7.47913826E+00  -1.43835956E+01   1.93241756E-01   1.22871821E-08  -2.03474150E+00  -2.04596708E+01  -5.92165673E+00   2.29872134E-01
   2.67750000E+03   5.00000000E-01   5.00000000E-01  -3.94451082E+00   7.16472857E-02   1.45686379E-02  -1.52995701E+00  -1.69076567E-01  -2.30317207E+00  -2.02258675E-01   2.08636586E-03   5.98296536E-01   2.42841909E-01  -5.36727060E-01  -7.41848106E+00  -1.42058805E+01   1.61296559E-01   1.12340193E-08  -2.02223930E+00  -2.04225377E+01  -5.95561863E+00   2.23338545E-01
   2.71250000E+03   5.00000000E-01   5.00000000E-01  -3.90443305E+00   7.83732879E-02   1.45532964E-02  -1.51533881E+00  -1.67809477E-01  -2.24438023E+00  -1.98126702E-01   2.04855259E-03   5.91805777E-01   2.31366691E-01  -5.44827426E-01  -7.35455807E+00  -1.40248311E+01   1.36206787E-01   9.79337596E-09  -2.00635494E+00  -2.03839602E+01  -5.98990474E+00   2.17189981E-01