 TITLE = "Mineral Saturation State" 
VARIABLES = "X"          "Y"              "Z"            "Forsterite"     "Enstatite(alph" "Anorthite"      "Ferropargasite" "Anhydrite"      "Clinochlore"    "Albite(low)"    "Fayalite"       "Epidote"        "Kaolinite"      "Muscovite(orde"
 ZONE I=          10 , J=           1 , K=           1  F=POINT
   1.75000000E+02   5.00000000E-01   5.00000000E-01  -4.61609412E+00  -8.01509374E-01  -1.16700849E+01  -1.56638091E+01  -2.08822829E-02   2.21513489E-02  -2.44577198E-02   9.35984444E-02  -1.11337390E-11  -6.69014578E+00  -6.70388266E+00
   5.25000000E+02   5.00000000E-01   5.00000000E-01  -4.53364769E+00  -9.00176281E-01  -1.03930794E+01  -1.44119172E+01   1.79762236E-04   2.14595167E-02  -2.29213991E-02   1.03859676E-01  -3.31080616E-11  -5.64372122E+00  -5.59908547E+00
   8.75000000E+02   5.00000000E-01   5.00000000E-01  -4.43401552E+00  -9.71414902E-01  -9.30724179E+00  -1.33679323E+01   7.74025463E-03   2.06757259E-02  -2.11904333E-02   1.16267362E-01  -7.95840161E-11  -4.75830994E+00  -4.66267878E+00
   1.22500000E+03   5.00000000E-01   5.00000000E-01  -4.31959170E+00  -1.01910667E+00  -8.38087848E+00  -1.24940060E+01   9.62564922E-03   1.98769497E-02  -1.94366346E-02   1.30404392E-01  -1.60939309E-10  -4.00960876E+00  -3.87156456E+00
   1.57500000E+03   5.00000000E-01   5.00000000E-01  -4.18816188E+00  -1.04359174E+00  -7.59750605E+00  -1.17750358E+01   1.01633649E-02   1.90734208E-02  -1.76827050E-02   1.44166190E-01  -2.89159373E-10  -3.38609489E+00  -3.21789168E+00
   1.92500000E+03   5.00000000E-01   5.00000000E-01  -4.02861091E+00  -1.03927309E+00  -6.95818102E+00  -1.12224055E+01   1.05720669E-02   1.86687833E-02  -1.68037085E-02   1.50745380E-01  -4.44971545E-10  -2.89747538E+00  -2.72021086E+00
   2.27500000E+03   5.00000000E-01   5.00000000E-01  -3.83659770E+00  -1.00533838E+00  -6.45549908E+00  -1.08506735E+01   1.09813349E-02   1.95535727E-02  -1.87315575E-02   1.37242434E-01  -3.24924349E-10  -2.54325234E+00  -2.38107562E+00
   2.62500000E+03   5.00000000E-01   5.00000000E-01  -3.62141914E+00  -9.50026066E-01  -6.06182610E+00  -1.06615986E+01   1.14063913E-02   2.25720043E-02  -2.54021121E-02   8.69206697E-02   1.61929557E-09  -2.29798465E+00  -2.16815870E+00
   2.97500000E+03   5.00000000E-01   5.00000000E-01  -3.39921018E+00  -8.85352044E-01  -5.73849308E+00  -1.06393142E+01   1.18734321E-02   2.75090512E-02  -3.66422210E-02  -1.42989979E-02   9.89336167E-09  -2.12320749E+00  -2.03180766E+00
   3.32500000E+03   5.00000000E-01   5.00000000E-01  -3.18442075E+00  -8.21155304E-01  -5.44713517E+00  -1.07438939E+01   1.24596134E-02   3.27369570E-02  -4.90166809E-02  -1.70245160E-01   3.06600832E-08  -1.98364867E+00  -1.92711345E+00
