 TITLE = "Mineral Saturation State" 
VARIABLES = "X"          "Y"              "Z"            "Forsterite"     "Fayalite"       "Brucite"        "Lizardite"      "Chrysotile"     "Hematite"       "Magnetite(am)"  "Saponite(Ca)"   "Saponite(K)"    "Saponite(Mg)"   "Saponite(Na)"   "Beidellite(Ca)" "Beidellite(K)"  "Beidellite(Mg)" "Beidellite(Na)" "Enstatite(alph" "Ferrosilite(al" "Anorthite"      "Albite(low)"    "Clinochlore"    "Sudoite"        "Montmor(MgCa)"  "Montmor(MgK)"   "Montmor(MgMg)"  "Montmor(MgNa)"  "Kaolinite"      "Tremolite"      "Pargasite"      "Anhydrite"      "Epidote"        "Scolecite"      "Pyrite"         "FeS(am)"        "Quartz(alpha)" 
 ZONE I=         200 , J=           1 , K=           1  F=POINT
   8.75000000E+00   5.00000000E-01   5.00000000E-01  -7.14122671E+00  -3.04453966E+00  -4.78443748E+00  -1.40813631E+00  -1.52562462E+00   9.30397182E-03  -5.40450830E+00   5.13449880E-01   2.34037670E+00   1.17441095E+00   2.21910739E+00  -6.22684335E+00  -5.07886169E+00  -5.56587956E+00  -5.13893373E+00  -2.57684519E+00  -1.59065730E+00  -1.14382354E+01  -1.46747112E+00   1.80543099E-01  -6.28668028E+00  -3.93915717E+00  -2.55026210E+00  -3.31172289E+00  -2.69934175E+00  -4.91056942E+00  -5.20628800E+00  -3.25345476E+01  -9.80347064E-01  -1.02615890E+01  -6.23353970E+00  -3.29678275E+01  -4.54949059E+00   7.02164383E-01
   2.62500000E+01   5.00000000E-01   5.00000000E-01  -7.70147558E+00  -2.99560958E+00  -5.14646189E+00  -2.24250901E+00  -2.35796268E+00   9.30397180E-03  -5.43642535E+00   1.26822636E-01   1.92662755E+00   7.87232702E-01   1.81461274E+00  -3.98628416E+00  -2.85848497E+00  -3.32587698E+00  -2.90940570E+00  -2.78369787E+00  -1.48839188E+00  -9.98926526E+00  -4.66632936E-01   1.79017758E-01  -3.66777839E+00  -2.28095389E+00  -9.13522063E-01  -1.65388594E+00  -1.05297914E+00  -3.13168376E+00  -6.60840397E+00  -3.17226204E+01  -9.62529247E-01  -9.05924598E+00  -4.67624397E+00  -3.24688489E+01  -4.47615445E+00   8.55804074E-01
   4.37500000E+01   5.00000000E-01   5.00000000E-01  -7.85557497E+00  -2.83350039E+00  -5.27537032E+00  -2.49707209E+00  -2.61051297E+00   9.30397179E-03  -5.38192148E+00   9.20338212E-02   1.86814218E+00   7.51940242E-01   1.76527740E+00  -3.08155361E+00  -1.97371396E+00  -2.42165526E+00  -2.01558741E+00  -2.81748780E+00  -1.35959060E+00  -9.41529719E+00  -2.31532175E-02   1.76703220E-01  -2.73722563E+00  -1.56389278E+00  -2.17688018E-01  -9.37146047E-01  -3.47631273E-01  -2.46051509E+00  -6.85856680E+00  -3.12377952E+01  -9.44493828E-01  -8.55870110E+00  -4.05372178E+00  -3.21531840E+01  -4.41752982E+00   9.49351801E-01
   6.12500000E+01   5.00000000E-01   5.00000000E-01  -7.89706919E+00  -2.67130799E+00  -5.32781637E+00  -2.60226796E+00  -2.71371756E+00   9.30397178E-03  -5.30742366E+00   1.07980609E-01   1.86115379E+00   7.67417206E-01   1.76735296E+00  -2.61935516E+00  -1.53127464E+00  -1.95993142E+00  -1.56418592E+00  -2.81510517E+00  -1.25091882E+00  -9.10895135E+00   2.06177633E-01   1.74026164E-01  -2.30019852E+00  -1.18752519E+00   1.37665983E-01  -5.61068057E-01   1.71467822E-02  -2.13310873E+00  -6.89510161E+00  -3.08929103E+01  -9.26240685E-01  -8.28939119E+00  -3.73883147E+00  -3.19033498E+01  -4.36964603E+00   1.00257244E+00
   7.87500000E+01   5.00000000E-01   5.00000000E-01  -7.90336311E+00  -2.53344682E+00  -5.34992977E+00  -2.66678390E+00  -2.77626337E+00   9.30397177E-03  -5.23256400E+00   1.14635483E-01   1.84507194E+00   7.73627844E-01   1.76025153E+00  -2.33404124E+00  -1.26552456E+00  -1.67506615E+00  -1.28955617E+00  -2.80782461E+00  -1.16715534E+00  -8.89932425E+00   3.36517468E-01   1.72155680E-01  -2.02985540E+00  -9.60510333E-01   3.43875407E-01  -3.34319362E-01   2.32693160E-01  -1.93247912E+00  -6.92199495E+00  -3.06176524E+01  -9.07776112E-01  -8.11164489E+00  -3.54581600E+00  -3.16870960E+01  -4.33292165E+00   1.03032251E+00
   9.62500000E+01   5.00000000E-01   5.00000000E-01  -7.88845014E+00  -2.41153025E+00  -5.35407434E+00  -2.70625009E+00  -2.81378024E+00   9.30397177E-03  -5.15851393E+00   1.17207386E-01   1.82512747E+00   7.75776049E-01   1.74919824E+00  -2.15318967E+00  -1.10403749E+00  -1.49464233E+00  -1.11927789E+00  -2.79727524E+00  -1.09873864E+00  -8.74716988E+00   4.08956371E-01   1.71565831E-01  -1.85851142E+00  -8.21217650E-01   4.62574672E-01  -1.95274413E-01   3.60636408E-01  -1.80704541E+00  -6.93987245E+00  -3.03827425E+01  -8.89109304E-01  -7.98782145E+00  -3.42469623E+00  -3.14917490E+01  -4.30342237E+00   1.04333807E+00
   1.13750000E+02   5.00000000E-01   5.00000000E-01  -7.85817504E+00  -2.29958035E+00  -5.34659260E+00  -2.72602068E+00  -2.83162199E+00   9.30397176E-03  -5.08570226E+00   1.22482164E-01   1.80815549E+00   7.80643244E-01   1.74102209E+00  -2.04003134E+00  -1.01003971E+00  -1.38189531E+00  -1.01658365E+00  -2.78295890E+00  -1.03925863E+00  -8.63417833E+00   4.46328689E-01   1.71989839E-01  -1.75645244E+00  -7.36430017E-01   5.26985326E-01  -1.10720465E-01   4.34191813E-01  -1.73218060E+00  -6.93836972E+00  -3.01718847E+01  -8.70250094E-01  -7.89909253E+00  -3.35032323E+00  -3.13107507E+01  -4.27903682E+00   1.04846112E+00
   1.31250000E+02   5.00000000E-01   5.00000000E-01  -7.81745944E+00  -2.19546805E+00  -5.33193430E+00  -2.73149616E+00  -2.83518879E+00   9.30397176E-03  -5.01505109E+00   1.32571407E-01   1.79628241E+00   7.90337335E-01   1.73784545E+00  -1.96931109E+00  -9.58273660E-01  -1.31157360E+00  -9.56220122E-01  -2.76534707E+00  -9.85660851E-01  -8.54703727E+00   4.63244794E-01   1.72876820E-01  -1.70108807E+00  -6.84379166E-01   5.58877850E-01  -5.88928895E-02   4.75125713E-01  -1.69014373E+00  -6.91678074E+00  -2.99754076E+01  -8.51208340E-01  -7.83260121E+00  -3.30540798E+00  -3.11402480E+01  -4.25899163E+00   1.04967119E+00
   1.48750000E+02   5.00000000E-01   5.00000000E-01  -7.76999793E+00  -2.09837202E+00  -5.31302951E+00  -2.72714260E+00  -2.82894638E+00   9.30397175E-03  -4.94723021E+00   1.47423739E-01   1.78945414E+00   8.04804165E-01   1.73961213E+00  -1.92453411E+00  -9.32244286E-01  -1.26718522E+00  -9.21694418E-01  -2.74520391E+00  -9.36450926E-01  -8.47658279E+00   4.68615695E-01   1.73799445E-01  -1.67630167E+00  -6.51463729E-01   5.71853678E-01  -2.61930570E-02   4.97037423E-01  -1.66885672E+00  -6.87827087E+00  -2.97877064E+01  -8.31993828E-01  -7.77993692E+00  -3.27862233E+00  -3.09778255E+01  -4.24288275E+00   1.04913544E+00
   1.66250000E+02   5.00000000E-01   5.00000000E-01  -7.71853104E+00  -2.00797744E+00  -5.29178452E+00  -2.71654162E+00  -2.81647606E+00   9.30397175E-03  -4.88261597E+00   1.65955932E-01   1.78657520E+00   8.22958462E-01   1.74522606E+00  -1.89492279E+00  -9.21175325E-01  -1.23795461E+00  -9.02230944E-01  -2.72336333E+00  -8.90934547E-01  -8.41643231E+00   4.67774241E-01   1.74555453E-01  -1.67043685E+00  -6.29274620E-01   5.74320374E-01  -4.21388643E-03   5.08333902E-01  -1.66004237E+00  -6.82759577E+00  -2.96055149E+01  -8.12616224E-01  -7.73554439E+00  -3.26251299E+00  -3.08218855E+01  -4.23041331E+00   1.04792739E+00
   1.83750000E+02   5.00000000E-01   5.00000000E-01  -7.66508347E+00  -1.92415043E+00  -5.26943724E+00  -2.70251146E+00  -2.80059579E+00   9.30397175E-03  -4.82136475E+00   1.86707707E-01   1.78616912E+00   8.43338418E-01   1.75321111E+00  -1.87339297E+00  -9.17984987E-01  -1.21679915E+00  -8.90747583E-01  -2.70061182E+00  -8.48818346E-01  -8.36209086E+00   4.63867473E-01   1.75110872E-01  -1.67498523E+00  -6.12634302E-01   5.71452933E-01   1.22206694E-02   5.14190528E-01  -1.65797646E+00  -6.76980576E+00  -2.94269223E+01  -7.93085057E-01  -7.69571144E+00  -3.25213525E+00  -3.06713239E+01  -4.22132027E+00   1.04649963E+00
   2.01250000E+02   5.00000000E-01   5.00000000E-01  -7.61066247E+00  -1.84632844E+00  -5.24658791E+00  -2.68647311E+00  -2.78272624E+00   9.30397174E-03  -4.76328963E+00   2.08895012E-01   1.78744129E+00   8.65158837E-01   1.76277343E+00  -1.85645589E+00  -9.19187283E-01  -1.20023124E+00  -8.83757591E-01  -2.67735613E+00  -8.09723649E-01  -8.31130226E+00   4.58407033E-01   1.75488415E-01  -1.68565333E+00  -5.99029727E-01   5.65761460E-01   2.56225558E-02   5.17118219E-01  -1.65980909E+00  -6.70755538E+00  -2.92509635E+01  -7.73409717E-01  -7.65858718E+00  -3.24504117E+00  -3.05253526E+01  -4.21522466E+00   1.04504670E+00
   2.18750000E+02   5.00000000E-01   5.00000000E-01  -7.55569747E+00  -1.77376221E+00  -5.22349461E+00  -2.66903390E+00  -2.76347445E+00   9.30397174E-03  -4.70805718E+00   2.32193256E-01   1.79006057E+00   8.88094211E-01   1.77358287E+00  -1.84257532E+00  -9.23248922E-01  -1.18671559E+00  -8.79726708E-01  -2.65376734E+00  -7.73231657E-01  -8.26306778E+00   4.52063044E-01   1.75717064E-01  -1.70055331E+00  -5.87349202E-01   5.58354537E-01   3.71025808E-02   5.18226583E-01  -1.66428865E+00  -6.64195810E+00  -2.90771695E+01  -7.53599412E-01  -7.62334366E+00  -3.24014669E+00  -3.03833855E+01  -4.21171964E+00   1.04365669E+00
   2.36250000E+02   5.00000000E-01   5.00000000E-01  -7.50069847E+00  -1.70604541E+00  -5.20040868E+00  -2.65096902E+00  -2.74361533E+00   9.30397173E-03  -4.65545839E+00   2.55999313E-01   1.79341481E+00   9.11540580E-01   1.78502849E+00  -1.83025227E+00  -9.28674054E-01  -1.17475403E+00  -8.77157865E-01  -2.63010389E+00  -7.39142152E-01  -8.21630888E+00   4.45357227E-01   1.75839442E-01  -1.71754236E+00  -5.76637032E-01   5.50184553E-01   4.76156451E-02   5.18469282E-01  -1.67009006E+00  -6.57483405E+00  -2.89052007E+01  -7.33663101E-01  -7.58916095E+00  -3.23638214E+00  -3.02449728E+01  -4.21052843E+00   1.04232347E+00
   2.53750000E+02   5.00000000E-01   5.00000000E-01  -7.44577507E+00  -1.64256958E+00  -5.17738139E+00  -2.63245285E+00  -2.72332298E+00   9.30397172E-03  -4.60518335E+00   2.80173055E-01   1.79735896E+00   9.35357109E-01   1.79696650E+00  -1.81913837E+00  -9.35117468E-01  -1.16399895E+00  -8.75704575E-01  -2.60642393E+00  -7.07153711E-01  -8.17076048E+00   4.38405287E-01   1.75886220E-01  -1.73610320E+00  -5.66675516E-01   5.41465905E-01   5.73787771E-02   5.18062045E-01  -1.67690105E+00  -6.50660201E+00  -2.87349370E+01  -7.13609516E-01  -7.55583287E+00  -3.23349101E+00  -3.01097623E+01  -4.21133901E+00   1.04104120E+00
   2.71250000E+02   5.00000000E-01   5.00000000E-01  -7.39099486E+00  -1.58282514E+00  -5.15444002E+00  -2.61359963E+00  -2.70271136E+00   9.30397172E-03  -4.55696864E+00   3.04609406E-01   1.80178336E+00   9.59438073E-01   1.80928861E+00  -1.80903535E+00  -9.42384047E-01  -1.15425271E+00  -8.75170354E-01  -2.58276757E+00  -6.77017397E-01  -8.12625865E+00   4.31260379E-01   1.75877633E-01  -1.75591405E+00  -5.57352545E-01   5.32307374E-01   6.65034704E-02   5.17115073E-01  -1.68453424E+00  -6.43756117E+00  -2.85663082E+01  -6.93447128E-01  -7.52323668E+00  -3.23132397E+00  -2.99774712E+01  -4.21389320E+00   1.03979794E+00
   2.88750000E+02   5.00000000E-01   5.00000000E-01  -7.33645193E+00  -1.52643467E+00  -5.13162126E+00  -2.59456715E+00  -2.68193800E+00   9.30397171E-03  -4.51061308E+00   3.29156406E-01   1.80653111E+00   9.83630900E-01   1.82183937E+00  -1.79969878E+00  -9.50232575E-01  -1.14527153E+00  -8.75312537E-01  -2.55919208E+00  -6.48554216E-01  -8.08259962E+00   4.23980295E-01   1.75828907E-01  -1.77656508E+00  -5.48537783E-01   5.22835949E-01   7.51194833E-02   5.15756856E-01  -1.69275281E+00  -6.36813858E+00  -2.83992546E+01  -6.73184134E-01  -7.49122703E+00  -3.22969956E+00  -2.98478697E+01  -4.21799194E+00   1.03857404E+00
   3.06250000E+02   5.00000000E-01   5.00000000E-01  -7.28226073E+00  -1.47312253E+00  -5.10896912E+00  -2.57554647E+00  -2.66119368E+00   9.30397170E-03  -4.46596356E+00   3.53626619E-01   1.81140957E+00   1.00774758E+00   1.83442763E+00  -1.79084791E+00  -9.58385490E-01  -1.13677522E+00  -8.75852041E-01  -2.53576775E+00  -6.21638946E-01  -8.03954849E+00   4.16627013E-01   1.75752025E-01  -1.79757780E+00  -5.40086016E-01   5.13193483E-01   8.33714897E-02   5.14130820E-01  -1.70128131E+00  -6.29885850E+00  -2.82337237E+01  -6.52828461E-01  -7.45964065E+00  -3.22841094E+00  -2.97207691E+01  -4.22348192E+00   1.03734409E+00
   3.23750000E+02   5.00000000E-01   5.00000000E-01  -7.22853818E+00  -1.42267955E+00  -5.08652755E+00  -2.55673359E+00  -2.64067415E+00   9.30397169E-03  -4.42289897E+00   3.77824232E-01   1.81621767E+00   1.03159178E+00   1.84685388E+00  -1.78220569E+00  -9.66568945E-01  -1.12848728E+00  -8.76513450E-01  -2.51256742E+00  -5.96180926E-01  -7.99687077E+00   4.09257220E-01   1.75656640E-01  -1.81847139E+00  -5.31858306E-01   5.03515566E-01   9.13979309E-02   5.12374175E-01  -1.70984456E+00  -6.23026590E+00  -2.80696711E+01  -6.32387748E-01  -7.42831738E+00  -3.22725426E+00  -2.95960129E+01  -4.23024191E+00   1.03608004E+00
   3.41250000E+02   5.00000000E-01   5.00000000E-01  -7.17538508E+00  -1.37493152E+00  -5.06433295E+00  -2.53829978E+00  -2.62055044E+00   9.30397168E-03  -4.38131613E+00   4.01573766E-01   1.82077490E+00   1.05498752E+00   1.85893920E+00  -1.77354036E+00  -9.74554373E-01  -1.12017645E+00  -8.77066592E-01  -2.48965542E+00  -5.72106509E-01  -7.95436546E+00   4.01912832E-01   1.75550732E-01  -1.83883226E+00  -5.23743597E-01   4.93909921E-01   9.93094021E-02   5.10596300E-01  -1.71820823E+00  -6.16284542E+00  -2.79070622E+01  -6.11869349E-01  -7.39712221E+00  -3.22605822E+00  -2.94734696E+01  -4.23817093E+00   1.03475477E+00
   3.58750000E+02   5.00000000E-01   5.00000000E-01  -7.12285934E+00  -1.32970276E+00  -5.04240301E+00  -2.52034909E+00  -2.60092634E+00   9.30397166E-03  -4.34111397E+00   4.24760342E-01   1.82496188E+00   1.07781948E+00   1.87056582E+00  -1.76472757E+00  -9.82220563E-01  -1.11171884E+00  -8.77388634E-01  -2.46707187E+00  -5.49338573E-01  -7.91191381E+00   3.94605778E-01   1.75440839E-01  -1.85841620E+00  -5.15691999E-01   4.84423150E-01   1.07155376E-01   5.08845466E-01  -1.72623873E+00  -6.09690695E+00  -2.77458758E+01  -5.91280318E-01  -7.36597830E+00  -3.22472827E+00  -2.93530275E+01  -4.24717536E+00   1.03334666E+00
   3.76250000E+02   5.00000000E-01   5.00000000E-01  -7.07098223E+00  -1.28681473E+00  -5.02074049E+00  -2.50292723E+00  -2.58184732E+00   9.30397165E-03  -4.30219334E+00   4.47324643E-01   1.82871537E+00   1.10002793E+00   1.88167210E+00  -1.75572890E+00  -9.89532196E-01  -1.10307644E+00  -8.77442637E-01  -2.44483524E+00  -5.27795244E-01  -7.86946546E+00   3.87327229E-01   1.75332158E-01  -1.87712181E+00  -5.07699418E-01   4.75056106E-01   1.14939566E-01   5.07124197E-01  -1.73388563E+00  -6.03260254E+00  -2.75860983E+01  -5.70627407E-01  -7.33485574E+00  -3.22323152E+00  -2.92345897E+01  -4.25716731E+00   1.03184071E+00
   3.93750000E+02   5.00000000E-01   5.00000000E-01  -7.01973605E+00  -1.24607778E+00  -4.99933251E+00  -2.48601746E+00  -2.56329640E+00   9.30397163E-03  -4.26445345E+00   4.69267891E-01   1.83203321E+00   1.12161372E+00   1.89225748E+00  -1.74659518E+00  -9.96543138E-01  -1.09430047E+00  -8.77280856E-01  -2.42294064E+00  -5.07385236E-01  -7.82704188E+00   3.80048017E-01   1.75228739E-01  -1.89499860E+00  -4.99808115E-01   4.65763347E-01   1.22619368E-01   5.05388708E-01  -1.74118576E+00  -5.96991309E+00  -2.74277230E+01  -5.49917061E-01  -7.30377321E+00  -3.22159921E+00  -2.91180711E+01  -4.26806089E+00   1.03022968E+00
   4.11250000E+02   5.00000000E-01   5.00000000E-01  -6.96907510E+00  -1.20729750E+00  -4.97815575E+00  -2.46955744E+00  -2.54521101E+00   9.30397162E-03  -4.22779468E+00   4.90637685E-01   1.83496009E+00   1.14262411E+00   1.90236822E+00  -1.73743722E+00  -1.00336719E+00  -1.08550209E+00  -8.77015500E-01  -2.40136567E+00  -4.88011355E-01  -7.78471500E+00   3.72727930E-01   1.75133536E-01  -1.91220348E+00  -4.92088951E-01   4.56470900E-01   1.30123609E-01   5.03566664E-01  -1.74823672E+00  -5.90869004E+00  -2.72707452E+01  -5.29155416E-01  -7.27278247E+00  -3.21990596E+00  -2.90033960E+01  -4.27977326E+00   1.02851336E+00
   4.28750000E+02   5.00000000E-01   5.00000000E-01  -6.91893883E+00  -1.17028401E+00  -4.95718222E+00  -2.45345974E+00  -2.52750349E+00   9.30397160E-03  -4.19212248E+00   5.11509680E-01   1.83756907E+00   1.16313445E+00   1.91207893E+00  -1.72839299E+00  -1.01014522E+00  -1.07681958E+00  -8.76785883E-01  -2.38007777E+00  -4.69575961E-01  -7.74258231E+00   3.65325036E-01   1.75048593E-01  -1.92894943E+00  -4.84622533E-01   4.47095118E-01   1.37371400E-01   5.01576024E-01  -1.75516618E+00  -5.84870837E+00  -2.71151589E+01  -5.08348301E-01  -7.24195077E+00  -3.21824647E+00  -2.88904960E+01  -4.29222674E+00   1.02669698E+00
   4.46250000E+02   5.00000000E-01   5.00000000E-01  -6.86925522E+00  -1.13485251E+00  -4.93638042E+00  -2.43761736E+00  -2.51006661E+00   9.30397158E-03  -4.15734707E+00   5.31981736E-01   1.83995568E+00   1.18324232E+00   1.92148665E+00  -1.71962070E+00  -1.01703827E+00  -1.06841144E+00  -8.76751506E-01  -2.35903638E+00  -4.51981705E-01  -7.70076082E+00   3.57796693E-01   1.74975319E-01  -1.94549249E+00  -4.77496165E-01   4.37545733E-01   1.44275185E-01   4.99328095E-01  -1.76212467E+00  -5.78968283E+00  -2.69609565E+01  -4.87501239E-01  -7.21135700E+00  -3.21673043E+00  -2.87793091E+01  -4.30534817E+00   1.02479026E+00
   4.63750000E+02   5.00000000E-01   5.00000000E-01  -6.81994730E+00  -1.10082739E+00  -4.91571802E+00  -2.42191424E+00  -2.49278411E+00   9.30397156E-03  -4.12338495E+00   5.52163779E-01   1.84222770E+00   1.20305740E+00   1.93070064E+00  -1.71128387E+00  -1.02421260E+00  -1.06044143E+00  -8.77077151E-01  -2.33819690E+00  -4.35134254E-01  -7.65937508E+00   3.50102949E-01   1.74914606E-01  -1.96210654E+00  -4.70796104E-01   4.27733605E-01   1.50748483E-01   4.96735270E-01  -1.76927099E+00  -5.73129670E+00  -2.68081279E+01  -4.66619453E-01  -7.18108366E+00  -3.21547191E+00  -2.86697783E+01  -4.31906959E+00   1.02280611E+00
   4.81250000E+02   5.00000000E-01   5.00000000E-01  -6.77093908E+00  -1.06804619E+00  -4.89516415E+00  -2.40623473E+00  -2.47554010E+00   9.30397154E-03  -4.09016016E+00   5.72168467E-01   1.84449575E+00   1.22269212E+00   1.93983294E+00  -1.70353822E+00  -1.03182664E+00  -1.05306553E+00  -8.77919790E-01  -2.31751422E+00  -4.18944885E-01  -7.61854659E+00   3.42209327E-01   1.74866983E-01  -1.97906075E+00  -4.64600951E-01   4.17577329E-01   1.56712495E-01   4.93717635E-01  -1.77675926E+00  -5.67322809E+00  -2.66566597E+01  -4.45707874E-01  -7.15120978E+00  -3.21457994E+00  -2.85618512E+01  -4.33332899E+00   1.02075934E+00
   4.98750000E+02   5.00000000E-01   5.00000000E-01  -6.72168995E+00  -1.03590031E+00  -4.87447885E+00  -2.38974289E+00  -2.45749846E+00   9.30397152E-03  -4.05739694E+00   5.92740596E-01   1.84750801E+00   1.24289124E+00   1.94963313E+00  -1.69771494E+00  -1.04121412E+00  -1.04761495E+00  -8.80611768E-01  -2.29668773E+00  -4.03078602E-01  -7.57927610E+00   3.33734752E-01   1.74837772E-01  -1.99842704E+00  -4.59676585E-01   4.06308336E-01   1.61401331E-01   4.89508057E-01  -1.78583094E+00  -5.61332184E+00  -2.65066740E+01  -4.24771214E-01  -7.12243915E+00  -3.21499638E+00  -2.84554532E+01  -4.34791355E+00   1.01871121E+00
   5.16250000E+02   5.00000000E-01   5.00000000E-01  -6.67256339E+00  -1.00468181E+00  -4.85383822E+00  -2.37299492E+00  -2.43921515E+00   9.30397149E-03  -4.02523389E+00   6.13429909E-01   1.85080761E+00   1.26320418E+00   1.95964571E+00  -1.69281599E+00  -1.05137956E+00  -1.04309199E+00  -8.84156218E-01  -2.27590484E+00  -3.87686730E-01  -7.54084654E+00   3.25013042E-01   1.74812494E-01  -2.01877282E+00  -4.55399542E-01   3.94547410E-01   1.65438152E-01   4.84728753E-01  -1.79559523E+00  -5.55290768E+00  -2.63580103E+01  -4.03813768E-01  -7.09424399E+00  -3.21601721E+00  -2.83505621E+01  -4.36292163E+00   1.01665096E+00
   5.33750000E+02   5.00000000E-01   5.00000000E-01  -6.62358158E+00  -9.74353446E-01  -4.83325586E+00  -2.35602683E+00  -2.42072600E+00   9.30397147E-03  -3.99365312E+00   6.34217942E-01   1.85437313E+00   1.28361231E+00   1.96985059E+00  -1.68873955E+00  -1.06222360E+00  -1.03939501E+00  -8.88452452E-01  -2.25517422E+00  -3.72747841E-01  -7.50318703E+00   3.16087489E-01   1.74797892E-01  -2.03997228E+00  -4.51696068E-01   3.82365731E-01   1.68896570E-01   4.79452268E-01  -1.80596920E+00  -5.49204933E+00  -2.62106173E+01  -3.82839617E-01  -7.06656488E+00  -3.21756839E+00  -2.82471408E+01  -4.37833555E+00   1.01458407E+00
   5.51250000E+02   5.00000000E-01   5.00000000E-01  -6.57466802E+00  -9.44787795E-01  -4.81269957E+00  -2.33872294E+00  -2.40191511E+00   9.30397144E-03  -3.96259522E+00   6.55214402E-01   1.85831253E+00   1.30422523E+00   1.98035696E+00  -1.68564693E+00  -1.07390992E+00  -1.03668541E+00  -8.93662873E-01  -2.23445160E+00  -3.58191853E-01  -7.46642088E+00   3.06918639E-01   1.74797503E-01  -2.06229407E+00  -4.48651257E-01   3.69675719E-01   1.71691415E-01   4.73592338E-01  -1.81710948E+00  -5.43043356E+00  -2.60644844E+01  -3.61852595E-01  -7.03948393E+00  -3.21976290E+00  -2.81451487E+01  -4.39410622E+00   1.01252313E+00
   5.68750000E+02   5.00000000E-01   5.00000000E-01  -6.52576701E+00  -9.15884512E-01  -4.79214722E+00  -2.32099910E+00  -2.38269815E+00   9.30397142E-03  -3.93201402E+00   6.76502897E-01   1.86270753E+00   1.32512649E+00   1.99124780E+00  -1.68364621E+00  -1.08654889E+00  -1.03507135E+00  -8.99896619E-01  -2.21370350E+00  -3.43962605E-01  -7.43063373E+00   2.97484436E-01   1.74811877E-01  -2.08593044E+00  -4.46317395E-01   3.56422671E-01   1.73770345E-01   4.67095536E-01  -1.82912488E+00  -5.36782351E+00  -2.59195976E+01  -3.40856294E-01  -7.01305650E+00  -3.22267677E+00  -2.80445486E+01  -4.41019448E+00   1.01047999E+00
   5.86250000E+02   5.00000000E-01   5.00000000E-01  -6.47685325E+00  -8.87578942E-01  -4.77159064E+00  -2.30281793E+00  -2.36303756E+00   9.30397139E-03  -3.90187996E+00   6.98126772E-01   1.86759933E+00   1.34635936E+00   2.00256548E+00  -1.68276792E+00  -1.10017327E+00  -1.03458344E+00  -9.07185252E-01  -2.19291289E+00  -3.30023020E-01  -7.39585420E+00   2.87786474E-01   1.74840569E-01  -2.11095684E+00  -4.44700654E-01   3.42598074E-01   1.75127149E-01   4.59954584E-01  -1.84205315E+00  -5.30409981E+00  -2.57759343E+01  -3.19854064E-01  -6.98729736E+00  -3.22633149E+00  -2.79453071E+01  -4.42657395E+00   1.00846400E+00
   6.03750000E+02   5.00000000E-01   5.00000000E-01  -6.42792696E+00  -8.59836514E-01  -4.75103301E+00  -2.28418162E+00  -2.34293532E+00   9.30397136E-03  -3.87217714E+00   7.20094153E-01   1.87299367E+00   1.36793193E+00   2.01431692E+00  -1.68297939E+00  -1.11475256E+00  -1.03518905E+00  -9.15497111E-01  -2.17207688E+00  -3.16352491E-01  -7.36206347E+00   2.77844445E-01   1.74882756E-01  -2.13735063E+00  -4.43770780E-01   3.28229908E-01   1.75792061E-01   4.52198663E-01  -1.85587315E+00  -5.23924515E+00  -2.56334659E+01  -2.98849032E-01  -6.96218806E+00  -3.23070393E+00  -2.78473947E+01  -4.44322904E+00   1.00648169E+00
   6.21250000E+02   5.00000000E-01   5.00000000E-01  -6.37900738E+00  -8.32645721E-01  -4.73048567E+00  -2.26512225E+00  -2.32242334E+00   9.30397133E-03  -3.84289986E+00   7.42385684E-01   1.87886869E+00   1.38982482E+00   2.02648136E+00  -1.68420231E+00  -1.13021054E+00  -1.03680989E+00  -9.24754845E-01  -2.15120349E+00  -3.02943308E-01  -7.32920772E+00   2.67690165E-01   1.74937509E-01  -2.16501611E+00  -4.43472121E-01   3.13371617E-01   1.75820730E-01   4.43882380E-01  -1.87052048E+00  -5.17332124E+00  -2.54921605E+01  -2.77844112E-01  -6.93768613E+00  -3.23573864E+00  -2.77507851E+01  -4.46015238E+00   1.00453683E+00
   6.38750000E+02   5.00000000E-01   5.00000000E-01  -6.33012553E+00  -8.06010304E-01  -4.70996474E+00  -2.24569054E+00  -2.30155215E+00   9.30397130E-03  -3.81404896E+00   7.64964016E-01   1.88518441E+00   1.41200069E+00   2.03901990E+00  -1.68633178E+00  -1.14644435E+00  -1.03934108E+00  -9.34854518E-01  -2.13030772E+00  -2.89796508E-01  -7.29721212E+00   2.57361560E-01   1.75003996E-01  -2.19381290E+00  -4.43735177E-01   2.98090557E-01   1.75282678E-01   4.35074219E-01  -1.88590484E+00  -5.10644106E+00  -2.53519852E+01  -2.56842017E-01  -6.91373509E+00  -3.24136139E+00  -2.76554544E+01  -4.47734213E+00   1.00263098E+00
   6.56250000E+02   5.00000000E-01   5.00000000E-01  -6.28131650E+00  -7.79941202E-01  -4.68948760E+00  -2.22594409E+00  -2.28037917E+00   9.30397127E-03  -3.78562815E+00   7.87784088E-01   1.89189316E+00   1.43441449E+00   2.05188594E+00  -1.68925584E+00  -1.16334400E+00  -1.04267061E+00  -9.45685060E-01  -2.10940738E+00  -2.76917502E-01  -7.26599520E+00   2.46896841E-01   1.75081636E-01  -2.22358555E+00  -4.44488060E-01   2.82456532E-01   1.74249834E-01   4.25845085E-01  -1.90192791E+00  -5.03873893E+00  -2.52129081E+01  -2.35845267E-01  -6.89027479E+00  -3.24749287E+00  -2.75613811E+01  -4.49479906E+00   1.00076413E+00
   6.73750000E+02   5.00000000E-01   5.00000000E-01  -6.23261338E+00  -7.54450113E-01  -4.66907025E+00  -2.20593778E+00  -2.25895912E+00   9.30397124E-03  -3.75764109E+00   8.10801616E-01   1.89894809E+00   1.45702198E+00   2.06503366E+00  -1.69287060E+00  -1.18080753E+00  -1.04669459E+00  -9.57143497E-01  -2.08851972E+00  -2.64312505E-01  -7.23548045E+00   2.36330142E-01   1.75170161E-01  -2.25418714E+00  -4.45665271E-01   2.66533014E-01   1.72787762E-01   4.16259516E-01  -1.91849757E+00  -4.97034603E+00  -2.50749004E+01  -2.14856204E-01  -6.86724948E+00  -3.25405948E+00  -2.74685446E+01  -4.51252430E+00   9.98935427E-01
   6.91250000E+02   5.00000000E-01   5.00000000E-01  -6.18404129E+00  -7.29543337E-01  -4.64872461E+00  -2.18571460E+00  -2.23733481E+00   9.30397121E-03  -3.73008874E+00   8.33981366E-01   1.90631157E+00   1.47978802E+00   2.07842642E+00  -1.69709497E+00  -1.19875571E+00  -1.05133183E+00  -9.69149588E-01  -2.06765804E+00  -2.51985110E-01  -7.20560729E+00   2.25687389E-01   1.75269684E-01  -2.28550218E+00  -4.47216082E-01   2.50368765E-01   1.70947285E-01   4.06367315E-01  -1.93554159E+00  -4.90136650E+00  -2.49379372E+01  -1.93876996E-01  -6.84461558E+00  -3.26100375E+00  -2.73769250E+01  -4.53051704E+00   9.97143876E-01
   7.08750000E+02   5.00000000E-01   5.00000000E-01  -6.13561612E+00  -7.05220256E-01  -4.62845812E+00  -2.16530346E+00  -2.21553498E+00   9.30397118E-03  -3.70296871E+00   8.57299381E-01   1.91395736E+00   1.50268873E+00   2.09203897E+00  -1.70187337E+00  -1.21713477E+00  -1.05652667E+00  -9.81648587E-01  -2.04683095E+00  -2.39935344E-01  -7.17633350E+00   2.14985844E-01   1.75380589E-01  -2.31745166E+00  -4.49105797E-01   2.33996565E-01   1.68763211E-01   3.96202273E-01  -1.95301045E+00  -4.83187120E+00  -2.48019984E+01  -1.72909650E-01  -6.82234318E+00  -3.26828629E+00  -2.72865027E+01  -4.54877398E+00   9.95388693E-01
   7.26250000E+02   5.00000000E-01   5.00000000E-01  -6.08734434E+00  -6.81472996E-01  -4.60827373E+00  -2.14471889E+00  -2.19357400E+00   9.30397115E-03  -3.67627523E+00   8.80743544E-01   1.92187125E+00   1.52571213E+00   2.10585804E+00  -1.70717564E+00  -1.23591633E+00  -1.06224882E+00  -9.94611151E-01  -2.02604210E+00  -2.28159399E-01  -7.14763534E+00   2.04234424E-01   1.75503457E-01  -2.34999363E+00  -4.51315418E-01   2.17433546E-01   1.66254677E-01   3.85782514E-01  -1.97087748E+00  -4.76189630E+00  -2.46670675E+01  -1.51956013E-01  -6.80041603E+00  -3.27588575E+00  -2.71972580E+01  -4.56728916E+00   9.93669514E-01
   7.43750000E+02   5.00000000E-01   5.00000000E-01  -6.03922367E+00  -6.58286928E-01  -4.58817024E+00  -2.12396199E+00  -2.17145281E+00   9.30397112E-03  -3.64999943E+00   9.04312940E-01   1.93005034E+00   1.54885742E+00   2.11988167E+00  -1.71299505E+00  -1.25509535E+00  -1.06849143E+00  -1.00803133E+00  -2.00529055E+00  -2.16649846E-01  -7.11950624E+00   1.93434515E-01   1.75639010E-01  -2.38312059E+00  -4.53840253E-01   2.00682583E-01   1.63426531E-01   3.75111878E-01  -1.98913717E+00  -4.69144520E+00  -2.45331319E+01  -1.31017786E-01  -6.77883051E+00  -3.28379745E+00  -2.71091712E+01  -4.58605412E+00   9.91986462E-01
   7.61250000E+02   5.00000000E-01   5.00000000E-01  -5.99124444E+00  -6.35641883E-01  -4.56814304E+00  -2.10302247E+00  -2.14916095E+00   9.30397108E-03  -3.62412992E+00   9.28016212E-01   1.93850146E+00   1.57213343E+00   2.13411758E+00  -1.71934462E+00  -1.27468657E+00  -1.07526736E+00  -1.02192292E+00  -1.98457141E+00  -2.05396262E-01  -7.09195416E+00   1.82581192E-01   1.75788033E-01  -2.41685431E+00  -4.56687649E-01   1.83734558E-01   1.60271599E-01   3.64182192E-01  -2.00780196E+00  -4.62049341E+00  -2.44001822E+01  -1.10096529E-01  -6.75759364E+00  -3.29203078E+00  -2.70222223E+01  -4.60505828E+00   9.90340109E-01
   7.78750000E+02   5.00000000E-01   5.00000000E-01  -5.94339146E+00  -6.13513903E-01  -4.54818488E+00  -2.08188152E+00  -2.12667947E+00   9.30397105E-03  -3.59865361E+00   9.51869108E-01   1.94723860E+00   1.59555606E+00   2.14858069E+00  -1.72625225E+00  -1.29471948E+00  -1.08260432E+00  -1.03631454E+00  -1.96387689E+00  -1.94386168E-01  -7.06499802E+00   1.71664787E-01   1.75951310E-01  -2.45123844E+00  -4.59873999E-01   1.66571354E-01   1.56773681E-01   3.52976265E-01  -2.02689768E+00  -4.54899570E+00  -2.42682115E+01  -8.91936671E-02  -6.73672053E+00  -3.30060571E+00  -2.69363916E+01  -4.62428957E+00   9.88731360E-01
   7.96250000E+02   5.00000000E-01   5.00000000E-01  -5.89564651E+00  -5.91877571E-01  -4.52828711E+00  -2.06051567E+00  -2.10398473E+00   9.30397102E-03  -3.57355676E+00   9.75891238E-01   1.95627975E+00   1.61914512E+00   2.16328981E+00  -1.73375428E+00  -1.31523202E+00  -1.09053849E+00  -1.05124326E+00  -1.94319757E+00  -1.83606282E-01  -7.03866299E+00   1.60672851E-01   1.76129537E-01  -2.48632909E+00  -4.63420938E-01   1.49169649E-01   1.52911344E-01   3.41471682E-01  -2.04645784E+00  -4.47689555E+00  -2.41372146E+01  -6.83105002E-02  -6.71623098E+00  -3.30954831E+00  -2.68516594E+01  -4.64373530E+00   9.87161261E-01