 TITLE = "Tortuosity" 
 VARIABLES = "X"          "Y"              "Z"     "Tortuosity" 
 ZONE I=          35 , J=           1 , K=           1  F=POINT
   5.00000000E+01   5.00000000E-01   5.00000000E-01   1.00000000E+00
   1.50000000E+02   5.00000000E-01   5.00000000E-01   1.00000000E+00
   2.50000000E+02   5.00000000E-01   5.00000000E-01   1.00000000E+00
   3.50000000E+02   5.00000000E-01   5.00000000E-01   1.00000000E+00
   4.50000000E+02   5.00000000E-01   5.00000000E-01   1.00000000E+00
   5.50000000E+02   5.00000000E-01   5.00000000E-01   1.00000000E+00
   6.50000000E+02   5.00000000E-01   5.00000000E-01   1.00000000E+00
   7.50000000E+02   5.00000000E-01   5.00000000E-01   1.00000000E+00
   8.50000000E+02   5.00000000E-01   5.00000000E-01   1.00000000E+00
   9.50000000E+02   5.00000000E-01   5.00000000E-01   1.00000000E+00
   1.05000000E+03   5.00000000E-01   5.00000000E-01   1.00000000E+00
   1.15000000E+03   5.00000000E-01   5.00000000E-01   1.00000000E+00
   1.25000000E+03   5.00000000E-01   5.00000000E-01   1.00000000E+00
   1.35000000E+03   5.00000000E-01   5.00000000E-01   1.00000000E+00
   1.45000000E+03   5.00000000E-01   5.00000000E-01   1.00000000E+00
   1.55000000E+03   5.00000000E-01   5.00000000E-01   1.00000000E+00
   1.65000000E+03   5.00000000E-01   5.00000000E-01   1.00000000E+00
   1.75000000E+03   5.00000000E-01   5.00000000E-01   1.00000000E+00
   1.85000000E+03   5.00000000E-01   5.00000000E-01   1.00000000E+00
   1.95000000E+03   5.00000000E-01   5.00000000E-01   1.00000000E+00
   2.05000000E+03   5.00000000E-01   5.00000000E-01   1.00000000E+00
   2.15000000E+03   5.00000000E-01   5.00000000E-01   1.00000000E+00
   2.25000000E+03   5.00000000E-01   5.00000000E-01   1.00000000E+00
   2.35000000E+03   5.00000000E-01   5.00000000E-01   1.00000000E+00
   2.45000000E+03   5.00000000E-01   5.00000000E-01   1.00000000E+00
   2.55000000E+03   5.00000000E-01   5.00000000E-01   1.00000000E+00
   2.65000000E+03   5.00000000E-01   5.00000000E-01   1.00000000E+00
   2.75000000E+03   5.00000000E-01   5.00000000E-01   1.00000000E+00
   2.85000000E+03   5.00000000E-01   5.00000000E-01   1.00000000E+00
   2.95000000E+03   5.00000000E-01   5.00000000E-01   1.00000000E+00
   3.05000000E+03   5.00000000E-01   5.00000000E-01   1.00000000E+00
   3.15000000E+03   5.00000000E-01   5.00000000E-01   1.00000000E+00
   3.25000000E+03   5.00000000E-01   5.00000000E-01   1.00000000E+00
   3.35000000E+03   5.00000000E-01   5.00000000E-01   1.00000000E+00
   3.45000000E+03   5.00000000E-01   5.00000000E-01   1.00000000E+00
