 TITLE = "Tortuosity" 
 VARIABLES = "X"          "Y"              "Z"     "Tortuosity" 
 ZONE I=         200 , J=           1 , K=           1  F=POINT
   8.75000000E+00   5.00000000E-01   5.00000000E-01   1.00000000E+00
   2.62500000E+01   5.00000000E-01   5.00000000E-01   1.00000000E+00
   4.37500000E+01   5.00000000E-01   5.00000000E-01   1.00000000E+00
   6.12500000E+01   5.00000000E-01   5.00000000E-01   1.00000000E+00
   7.87500000E+01   5.00000000E-01   5.00000000E-01   1.00000000E+00
   9.62500000E+01   5.00000000E-01   5.00000000E-01   1.00000000E+00
   1.13750000E+02   5.00000000E-01   5.00000000E-01   1.00000000E+00
   1.31250000E+02   5.00000000E-01   5.00000000E-01   1.00000000E+00
   1.48750000E+02   5.00000000E-01   5.00000000E-01   1.00000000E+00
   1.66250000E+02   5.00000000E-01   5.00000000E-01   1.00000000E+00
   1.83750000E+02   5.00000000E-01   5.00000000E-01   1.00000000E+00
   2.01250000E+02   5.00000000E-01   5.00000000E-01   1.00000000E+00
   2.18750000E+02   5.00000000E-01   5.00000000E-01   1.00000000E+00
   2.36250000E+02   5.00000000E-01   5.00000000E-01   1.00000000E+00
   2.53750000E+02   5.00000000E-01   5.00000000E-01   1.00000000E+00
   2.71250000E+02   5.00000000E-01   5.00000000E-01   1.00000000E+00
   2.88750000E+02   5.00000000E-01   5.00000000E-01   1.00000000E+00
   3.06250000E+02   5.00000000E-01   5.00000000E-01   1.00000000E+00
   3.23750000E+02   5.00000000E-01   5.00000000E-01   1.00000000E+00
   3.41250000E+02   5.00000000E-01   5.00000000E-01   1.00000000E+00
   3.58750000E+02   5.00000000E-01   5.00000000E-01   1.00000000E+00
   3.76250000E+02   5.00000000E-01   5.00000000E-01   1.00000000E+00
   3.93750000E+02   5.00000000E-01   5.00000000E-01   1.00000000E+00
   4.11250000E+02   5.00000000E-01   5.00000000E-01   1.00000000E+00
   4.28750000E+02   5.00000000E-01   5.00000000E-01   1.00000000E+00
   4.46250000E+02   5.00000000E-01   5.00000000E-01   1.00000000E+00
   4.63750000E+02   5.00000000E-01   5.00000000E-01   1.00000000E+00
   4.81250000E+02   5.00000000E-01   5.00000000E-01   1.00000000E+00
   4.98750000E+02   5.00000000E-01   5.00000000E-01   1.00000000E+00
   5.16250000E+02   5.00000000E-01   5.00000000E-01   1.00000000E+00
   5.33750000E+02   5.00000000E-01   5.00000000E-01   1.00000000E+00
   5.51250000E+02   5.00000000E-01   5.00000000E-01   1.00000000E+00
   5.68750000E+02   5.00000000E-01   5.00000000E-01   1.00000000E+00
   5.86250000E+02   5.00000000E-01   5.00000000E-01   1.00000000E+00
   6.03750000E+02   5.00000000E-01   5.00000000E-01   1.00000000E+00
   6.21250000E+02   5.00000000E-01   5.00000000E-01   1.00000000E+00
   6.38750000E+02   5.00000000E-01   5.00000000E-01   1.00000000E+00
   6.56250000E+02   5.00000000E-01   5.00000000E-01   1.00000000E+00
   6.73750000E+02   5.00000000E-01   5.00000000E-01   1.00000000E+00
   6.91250000E+02   5.00000000E-01   5.00000000E-01   1.00000000E+00
   7.08750000E+02   5.00000000E-01   5.00000000E-01   1.00000000E+00
   7.26250000E+02   5.00000000E-01   5.00000000E-01   1.00000000E+00
   7.43750000E+02   5.00000000E-01   5.00000000E-01   1.00000000E+00
   7.61250000E+02   5.00000000E-01   5.00000000E-01   1.00000000E+00
   7.78750000E+02   5.00000000E-01   5.00000000E-01   1.00000000E+00
   7.96250000E+02   5.00000000E-01   5.00000000E-01   1.00000000E+00
   8.13750000E+02   5.00000000E-01   5.00000000E-01   1.00000000E+00
   8.31250000E+02   5.00000000E-01   5.00000000E-01   1.00000000E+00
   8.48750000E+02   5.00000000E-01   5.00000000E-01   1.00000000E+00
   8.66250000E+02   5.00000000E-01   5.00000000E-01   1.00000000E+00
   8.83750000E+02   5.00000000E-01   5.00000000E-01   1.00000000E+00
   9.01250000E+02   5.00000000E-01   5.00000000E-01   1.00000000E+00
   9.18750000E+02   5.00000000E-01   5.00000000E-01   1.00000000E+00
   9.36250000E+02   5.00000000E-01   5.00000000E-01   1.00000000E+00
   9.53750000E+02   5.00000000E-01   5.00000000E-01   1.00000000E+00
   9.71250000E+02   5.00000000E-01   5.00000000E-01   1.00000000E+00
   9.88750000E+02   5.00000000E-01   5.00000000E-01   1.00000000E+00
   1.00625000E+03   5.00000000E-01   5.00000000E-01   1.00000000E+00
   1.02375000E+03   5.00000000E-01   5.00000000E-01   1.00000000E+00
   1.04125000E+03   5.00000000E-01   5.00000000E-01   1.00000000E+00
   1.05875000E+03   5.00000000E-01   5.00000000E-01   1.00000000E+00
   1.07625000E+03   5.00000000E-01   5.00000000E-01   1.00000000E+00
   1.09375000E+03   5.00000000E-01   5.00000000E-01   1.00000000E+00
   1.11125000E+03   5.00000000E-01   5.00000000E-01   1.00000000E+00
   1.12875000E+03   5.00000000E-01   5.00000000E-01   1.00000000E+00
   1.14625000E+03   5.00000000E-01   5.00000000E-01   1.00000000E+00
   1.16375000E+03   5.00000000E-01   5.00000000E-01   1.00000000E+00
   1.18125000E+03   5.00000000E-01   5.00000000E-01   1.00000000E+00
   1.19875000E+03   5.00000000E-01   5.00000000E-01   1.00000000E+00
   1.21625000E+03   5.00000000E-01   5.00000000E-01   1.00000000E+00
   1.23375000E+03   5.00000000E-01   5.00000000E-01   1.00000000E+00
   1.25125000E+03   5.00000000E-01   5.00000000E-01   1.00000000E+00
   1.26875000E+03   5.00000000E-01   5.00000000E-01   1.00000000E+00
   1.28625000E+03   5.00000000E-01   5.00000000E-01   1.00000000E+00
   1.30375000E+03   5.00000000E-01   5.00000000E-01   1.00000000E+00
   1.32125000E+03   5.00000000E-01   5.00000000E-01   1.00000000E+00
   1.33875000E+03   5.00000000E-01   5.00000000E-01   1.00000000E+00
   1.35625000E+03   5.00000000E-01   5.00000000E-01   1.00000000E+00
   1.37375000E+03   5.00000000E-01   5.00000000E-01   1.00000000E+00
   1.39125000E+03   5.00000000E-01   5.00000000E-01   1.00000000E+00
   1.40875000E+03   5.00000000E-01   5.00000000E-01   1.00000000E+00
   1.42625000E+03   5.00000000E-01   5.00000000E-01   1.00000000E+00
   1.44375000E+03   5.00000000E-01   5.00000000E-01   1.00000000E+00
   1.46125000E+03   5.00000000E-01   5.00000000E-01   1.00000000E+00
   1.47875000E+03   5.00000000E-01   5.00000000E-01   1.00000000E+00
   1.49625000E+03   5.00000000E-01   5.00000000E-01   1.00000000E+00
   1.51375000E+03   5.00000000E-01   5.00000000E-01   1.00000000E+00
   1.53125000E+03   5.00000000E-01   5.00000000E-01   1.00000000E+00
   1.54875000E+03   5.00000000E-01   5.00000000E-01   1.00000000E+00
   1.56625000E+03   5.00000000E-01   5.00000000E-01   1.00000000E+00
   1.58375000E+03   5.00000000E-01   5.00000000E-01   1.00000000E+00
   1.60125000E+03   5.00000000E-01   5.00000000E-01   1.00000000E+00
   1.61875000E+03   5.00000000E-01   5.00000000E-01   1.00000000E+00
   1.63625000E+03   5.00000000E-01   5.00000000E-01   1.00000000E+00
   1.65375000E+03   5.00000000E-01   5.00000000E-01   1.00000000E+00
   1.67125000E+03   5.00000000E-01   5.00000000E-01   1.00000000E+00
   1.68875000E+03   5.00000000E-01   5.00000000E-01   1.00000000E+00
   1.70625000E+03   5.00000000E-01   5.00000000E-01   1.00000000E+00
   1.72375000E+03   5.00000000E-01   5.00000000E-01   1.00000000E+00
   1.74125000E+03   5.00000000E-01   5.00000000E-01   1.00000000E+00
   1.75875000E+03   5.00000000E-01   5.00000000E-01   1.00000000E+00
   1.77625000E+03   5.00000000E-01   5.00000000E-01   1.00000000E+00
   1.79375000E+03   5.00000000E-01   5.00000000E-01   1.00000000E+00
   1.81125000E+03   5.00000000E-01   5.00000000E-01   1.00000000E+00
   1.82875000E+03   5.00000000E-01   5.00000000E-01   1.00000000E+00
   1.84625000E+03   5.00000000E-01   5.00000000E-01   1.00000000E+00
   1.86375000E+03   5.00000000E-01   5.00000000E-01   1.00000000E+00
   1.88125000E+03   5.00000000E-01   5.00000000E-01   1.00000000E+00
   1.89875000E+03   5.00000000E-01   5.00000000E-01   1.00000000E+00
   1.91625000E+03   5.00000000E-01   5.00000000E-01   1.00000000E+00
   1.93375000E+03   5.00000000E-01   5.00000000E-01   1.00000000E+00
   1.95125000E+03   5.00000000E-01   5.00000000E-01   1.00000000E+00
   1.96875000E+03   5.00000000E-01   5.00000000E-01   1.00000000E+00
   1.98625000E+03   5.00000000E-01   5.00000000E-01   1.00000000E+00
   2.00375000E+03   5.00000000E-01   5.00000000E-01   1.00000000E+00
   2.02125000E+03   5.00000000E-01   5.00000000E-01   1.00000000E+00
   2.03875000E+03   5.00000000E-01   5.00000000E-01   1.00000000E+00
   2.05625000E+03   5.00000000E-01   5.00000000E-01   1.00000000E+00
   2.07375000E+03   5.00000000E-01   5.00000000E-01   1.00000000E+00
   2.09125000E+03   5.00000000E-01   5.00000000E-01   1.00000000E+00
   2.10875000E+03   5.00000000E-01   5.00000000E-01   1.00000000E+00
   2.12625000E+03   5.00000000E-01   5.00000000E-01   1.00000000E+00
   2.14375000E+03   5.00000000E-01   5.00000000E-01   1.00000000E+00
   2.16125000E+03   5.00000000E-01   5.00000000E-01   1.00000000E+00
   2.17875000E+03   5.00000000E-01   5.00000000E-01   1.00000000E+00
   2.19625000E+03   5.00000000E-01   5.00000000E-01   1.00000000E+00
   2.21375000E+03   5.00000000E-01   5.00000000E-01   1.00000000E+00
   2.23125000E+03   5.00000000E-01   5.00000000E-01   1.00000000E+00
   2.24875000E+03   5.00000000E-01   5.00000000E-01   1.00000000E+00
   2.26625000E+03   5.00000000E-01   5.00000000E-01   1.00000000E+00
   2.28375000E+03   5.00000000E-01   5.00000000E-01   1.00000000E+00
   2.30125000E+03   5.00000000E-01   5.00000000E-01   1.00000000E+00
   2.31875000E+03   5.00000000E-01   5.00000000E-01   1.00000000E+00
   2.33625000E+03   5.00000000E-01   5.00000000E-01   1.00000000E+00
   2.35375000E+03   5.00000000E-01   5.00000000E-01   1.00000000E+00
   2.37125000E+03   5.00000000E-01   5.00000000E-01   1.00000000E+00
   2.38875000E+03   5.00000000E-01   5.00000000E-01   1.00000000E+00
   2.40625000E+03   5.00000000E-01   5.00000000E-01   1.00000000E+00
   2.42375000E+03   5.00000000E-01   5.00000000E-01   1.00000000E+00
   2.44125000E+03   5.00000000E-01   5.00000000E-01   1.00000000E+00
   2.45875000E+03   5.00000000E-01   5.00000000E-01   1.00000000E+00
   2.47625000E+03   5.00000000E-01   5.00000000E-01   1.00000000E+00
   2.49375000E+03   5.00000000E-01   5.00000000E-01   1.00000000E+00
   2.51125000E+03   5.00000000E-01   5.00000000E-01   1.00000000E+00
   2.52875000E+03   5.00000000E-01   5.00000000E-01   1.00000000E+00
   2.54625000E+03   5.00000000E-01   5.00000000E-01   1.00000000E+00
   2.56375000E+03   5.00000000E-01   5.00000000E-01   1.00000000E+00
   2.58125000E+03   5.00000000E-01   5.00000000E-01   1.00000000E+00
   2.59875000E+03   5.00000000E-01   5.00000000E-01   1.00000000E+00
   2.61625000E+03   5.00000000E-01   5.00000000E-01   1.00000000E+00
   2.63375000E+03   5.00000000E-01   5.00000000E-01   1.00000000E+00
   2.65125000E+03   5.00000000E-01   5.00000000E-01   1.00000000E+00
   2.66875000E+03   5.00000000E-01   5.00000000E-01   1.00000000E+00
   2.68625000E+03   5.00000000E-01   5.00000000E-01   1.00000000E+00
   2.70375000E+03   5.00000000E-01   5.00000000E-01   1.00000000E+00
   2.72125000E+03   5.00000000E-01   5.00000000E-01   1.00000000E+00
   2.73875000E+03   5.00000000E-01   5.00000000E-01   1.00000000E+00
   2.75625000E+03   5.00000000E-01   5.00000000E-01   1.00000000E+00
   2.77375000E+03   5.00000000E-01   5.00000000E-01   1.00000000E+00
   2.79125000E+03   5.00000000E-01   5.00000000E-01   1.00000000E+00
   2.80875000E+03   5.00000000E-01   5.00000000E-01   1.00000000E+00
   2.82625000E+03   5.00000000E-01   5.00000000E-01   1.00000000E+00
   2.84375000E+03   5.00000000E-01   5.00000000E-01   1.00000000E+00
   2.86125000E+03   5.00000000E-01   5.00000000E-01   1.00000000E+00
   2.87875000E+03   5.00000000E-01   5.00000000E-01   1.00000000E+00
   2.89625000E+03   5.00000000E-01   5.00000000E-01   1.00000000E+00
   2.91375000E+03   5.00000000E-01   5.00000000E-01   1.00000000E+00
   2.93125000E+03   5.00000000E-01   5.00000000E-01   1.00000000E+00
   2.94875000E+03   5.00000000E-01   5.00000000E-01   1.00000000E+00
   2.96625000E+03   5.00000000E-01   5.00000000E-01   1.00000000E+00
   2.98375000E+03   5.00000000E-01   5.00000000E-01   1.00000000E+00
   3.00125000E+03   5.00000000E-01   5.00000000E-01   1.00000000E+00
   3.01875000E+03   5.00000000E-01   5.00000000E-01   1.00000000E+00
   3.03625000E+03   5.00000000E-01   5.00000000E-01   1.00000000E+00
   3.05375000E+03   5.00000000E-01   5.00000000E-01   1.00000000E+00
   3.07125000E+03   5.00000000E-01   5.00000000E-01   1.00000000E+00
   3.08875000E+03   5.00000000E-01   5.00000000E-01   1.00000000E+00
   3.10625000E+03   5.00000000E-01   5.00000000E-01   1.00000000E+00
   3.12375000E+03   5.00000000E-01   5.00000000E-01   1.00000000E+00
   3.14125000E+03   5.00000000E-01   5.00000000E-01   1.00000000E+00
   3.15875000E+03   5.00000000E-01   5.00000000E-01   1.00000000E+00
   3.17625000E+03   5.00000000E-01   5.00000000E-01   1.00000000E+00
   3.19375000E+03   5.00000000E-01   5.00000000E-01   1.00000000E+00
   3.21125000E+03   5.00000000E-01   5.00000000E-01   1.00000000E+00
   3.22875000E+03   5.00000000E-01   5.00000000E-01   1.00000000E+00
   3.24625000E+03   5.00000000E-01   5.00000000E-01   1.00000000E+00
   3.26375000E+03   5.00000000E-01   5.00000000E-01   1.00000000E+00
   3.28125000E+03   5.00000000E-01   5.00000000E-01   1.00000000E+00
   3.29875000E+03   5.00000000E-01   5.00000000E-01   1.00000000E+00
   3.31625000E+03   5.00000000E-01   5.00000000E-01   1.00000000E+00
   3.33375000E+03   5.00000000E-01   5.00000000E-01   1.00000000E+00
   3.35125000E+03   5.00000000E-01   5.00000000E-01   1.00000000E+00
   3.36875000E+03   5.00000000E-01   5.00000000E-01   1.00000000E+00
   3.38625000E+03   5.00000000E-01   5.00000000E-01   1.00000000E+00
   3.40375000E+03   5.00000000E-01   5.00000000E-01   1.00000000E+00
   3.42125000E+03   5.00000000E-01   5.00000000E-01   1.00000000E+00
   3.43875000E+03   5.00000000E-01   5.00000000E-01   1.00000000E+00
   3.45625000E+03   5.00000000E-01   5.00000000E-01   1.00000000E+00
   3.47375000E+03   5.00000000E-01   5.00000000E-01   1.00000000E+00
   3.49125000E+03   5.00000000E-01   5.00000000E-01   1.00000000E+00
