 TITLE = "Total Concentrations" 
VARIABLES = "X"          "Y"              "Z"            "H+"             "Al+++"          "CO2(aq)"        "Mg++"           "Ca++"           "Fe++"           "Fe+++"          "Ba++"           "Sr++"           "Li+"            "Rb+"            "Mn++"           "Zn++"           "Cu++"           "Cu+"            "Cl-"            "F-"             "K+"             "HS-"            "Na+"            "SO4--"          "O2(aq)"         "B(OH)3(aq)"     "HPO4--"         "NO3-"           "H4SiO4(aq)"     "Ti(OH)4(aq)"   
 ZONE I=         200 , J=           1 , K=           1  F=POINT
   8.75000000E+00   5.00000000E-01   5.00000000E-01  -4.69186426E-03   5.40273876E-13   4.74997155E-03   5.07993453E-02   1.05978174E-02   5.29828242E-05   1.39867990E-22   1.19144902E-07   8.99994824E-06   2.45998526E-05   1.39999161E-06   5.78410559E-06   3.88202062E-07   1.42214624E-09   1.21807934E-09   5.48189429E-01   6.79996184E-05   1.19999281E-02   1.20034680E-25   4.74034390E-01   2.79997514E-02   1.79996994E-08   3.99997604E-04   1.69998982E-06   3.89997664E-05   4.24986636E-04   2.09551907E-09
   2.62500000E+01   5.00000000E-01   5.00000000E-01  -4.61336828E-03   2.00258799E-12   4.74999810E-03   5.04878169E-02   1.07958173E-02   1.05929368E-04   6.12969881E-22   8.92129254E-08   9.00000071E-06   2.45999902E-05   1.39999944E-06   1.15631218E-05   7.00431275E-07   1.42430895E-09   1.21617257E-09   5.48192494E-01   6.80000246E-05   1.19999952E-02   1.40428763E-26   4.74068186E-01   2.79998780E-02   1.79996072E-08   3.99999840E-04   1.69999932E-06   3.89999844E-05   6.47113290E-04   2.10151186E-09
   4.37500000E+01   5.00000000E-01   5.00000000E-01  -4.56314627E-03   3.34089857E-12   4.75018787E-03   5.01956469E-02   1.09942467E-02   1.58849668E-04   1.27670449E-21   7.92292737E-08   9.00036241E-06   2.46009730E-05   1.40005537E-06   1.73448275E-05   1.01270135E-06   1.42652070E-09   1.21430727E-09   5.48214394E-01   6.80027676E-05   1.20004746E-02   3.18901362E-26   4.74111078E-01   2.80009867E-02   1.80001335E-08   4.00015821E-04   1.70006724E-06   3.90015425E-05   8.58247900E-04   2.10677640E-09
   6.12500000E+01   5.00000000E-01   5.00000000E-01  -4.52513442E-03   4.44778486E-12   4.75053372E-03   4.99166490E-02   1.11931047E-02   2.11735117E-04   2.03651697E-21   7.76630650E-08   9.00101986E-06   2.46027641E-05   1.40015731E-06   2.31296868E-05   1.32503761E-06   1.42877956E-09   1.21248146E-09   5.48254309E-01   6.80077454E-05   1.20013483E-02   6.49625555E-26   4.74158504E-01   2.80030238E-02   1.80012511E-08   4.00044945E-04   1.70019102E-06   3.90043821E-05   1.03857903E-03   2.11116376E-09
   7.87500000E+01   5.00000000E-01   5.00000000E-01  -4.49168024E-03   5.58573861E-12   4.75102913E-03   4.96473418E-02   1.13923976E-02   2.64583993E-04   2.90835285E-21   7.99093136E-08   9.00196068E-06   2.46053298E-05   1.40030332E-06   2.89181430E-05   1.63746717E-06   1.43108379E-09   1.21069327E-09   5.48311483E-01   6.80148645E-05   1.20025999E-02   1.26014308E-25   4.74208949E-01   2.80059463E-02   1.80029355E-08   4.00086663E-04   1.70036832E-06   3.90084497E-05   1.18187505E-03   2.11472443E-09
   9.62500000E+01   5.00000000E-01   5.00000000E-01  -4.46085717E-03   6.80033077E-12   4.75166807E-03   4.93858878E-02   1.15921330E-02   3.17394720E-04   3.88509386E-21   8.40299543E-08   9.00317345E-06   2.46086388E-05   1.40049164E-06   3.47106210E-05   1.95001607E-06   1.43343176E-09   1.20894102E-09   5.48385222E-01   6.80240387E-05   1.20042140E-02   2.36731621E-25   4.74263398E-01   2.80097168E-02   1.80051636E-08   4.00140469E-04   1.70059699E-06   3.90136957E-05   1.29250729E-03   2.11753131E-09
   1.13750000E+02   5.00000000E-01   5.00000000E-01  -4.43199799E-03   8.04989275E-12   4.75244499E-03   4.91304875E-02   1.17923174E-02   3.70163096E-04   4.94760917E-21   8.91727198E-08   9.00464767E-06   2.46126625E-05   1.40072063E-06   4.05075291E-05   2.26270895E-06   1.43582201E-09   1.20722313E-09   5.48474886E-01   6.80351885E-05   1.20061768E-02   4.33870598E-25   4.74324086E-01   2.80143017E-02   1.80079145E-08   4.00205894E-04   1.70087505E-06   3.90200747E-05   1.37936219E-03   2.11965477E-09
   1.31250000E+02   5.00000000E-01   5.00000000E-01  -4.40434136E-03   9.30564733E-12   4.75335479E-03   4.88793234E-02   1.19929559E-02   4.22882766E-04   6.09271097E-21   9.49478080E-08   9.00637365E-06   2.46173743E-05   1.40098878E-06   4.63092606E-05   2.57556934E-06   1.43825316E-09   1.20553813E-09   5.48579885E-01   6.80482406E-05   1.20084752E-02   7.80226736E-25   4.74393251E-01   2.80196704E-02   1.80111688E-08   4.00282508E-04   1.70120066E-06   3.90275446E-05   1.45115150E-03   2.12116665E-09
   1.48750000E+02   5.00000000E-01   5.00000000E-01  -4.37711929E-03   1.05602748E-11   4.75439272E-03   4.86308894E-02   1.21940522E-02   4.75546053E-04   7.33317642E-21   1.01170283E-07   9.00834243E-06   2.46227497E-05   1.40129470E-06   5.21161958E-05   2.88861980E-06   1.44072397E-09   1.20388468E-09   5.48699672E-01   6.80631275E-05   1.20110974E-02   1.38284660E-24   4.74472555E-01   2.80257950E-02   1.80149086E-08   4.00369914E-04   1.70157213E-06   3.90360666E-05   1.51456020E-03   2.12214272E-09
   1.66250000E+02   5.00000000E-01   5.00000000E-01  -4.34969376E-03   1.18186401E-11   4.75555443E-03   4.83840901E-02   1.23956095E-02   5.28144476E-04   8.69070333E-21   1.07749218E-07   9.01054572E-06   2.46287661E-05   1.40163710E-06   5.79287030E-05   3.20188204E-06   1.44323328E-09   1.20226152E-09   5.48833744E-01   6.80797865E-05   1.20140322E-02   2.42324904E-24   4.74563014E-01   2.80326495E-02   1.80191172E-08   4.00467742E-04   1.70198790E-06   3.90456048E-05   1.57409873E-03   2.12266257E-09
   1.83750000E+02   5.00000000E-01   5.00000000E-01  -4.32157811E-03   1.30913344E-11   4.75683587E-03   4.81381800E-02   1.25976306E-02   5.80669086E-04   1.01912410E-20   1.14638216E-07   9.01297586E-06   2.46354026E-05   1.40201478E-06   6.37471402E-05   3.51537700E-06   1.44578004E-09   1.20066748E-09   5.48981633E-01   6.80981596E-05   1.20172695E-02   4.20757232E-24   4.74665140E-01   2.80402100E-02   1.80237794E-08   4.00575652E-04   1.70244652E-06   3.90561261E-05   1.63257184E-03   2.12280871E-09
   2.01250000E+02   5.00000000E-01   5.00000000E-01  -4.29241241E-03   1.43911868E-11   4.75823327E-03   4.78926667E-02   1.28001183E-02   6.33110685E-04   1.18628591E-20   1.21812570E-07   9.01562574E-06   2.46426397E-05   1.40242665E-06   6.95718561E-05   3.82912486E-06   1.44836326E-09   1.19910148E-09   5.49142906E-01   6.81181931E-05   1.20207998E-02   7.24943447E-24   4.74779102E-01   2.80484545E-02   1.80288808E-08   4.00693328E-04   1.70294664E-06   3.90675995E-05   1.69162039E-03   2.12266548E-09
   2.18750000E+02   5.00000000E-01   5.00000000E-01  -4.26193159E-03   1.57314383E-11   4.75974317E-03   4.76472270E-02   1.30030751E-02   6.85459974E-04   1.37350414E-20   1.29258389E-07   9.01848876E-06   2.46504593E-05   1.40287167E-06   7.54031911E-05   4.14314516E-06   1.45098204E-09   1.19756251E-09   5.49317162E-01   6.81398371E-05   1.20246142E-02   1.24061783E-23   4.74904861E-01   2.80573623E-02   1.80344084E-08   4.00820477E-04   1.70348703E-06   3.90799965E-05   1.75215116E-03   2.12231801E-09
   2.36250000E+02   5.00000000E-01   5.00000000E-01  -4.22993865E-03   1.71248343E-11   4.76136232E-03   4.74016459E-02   1.32065037E-02   7.37707667E-04   1.58386389E-20   1.36967270E-07   9.02155880E-06   2.46588449E-05   1.40334889E-06   8.12414784E-05   4.45745678E-06   1.45363554E-09   1.19604961E-09   5.49504027E-01   6.81630455E-05   1.20287047E-02   2.11017981E-23   4.75042258E-01   2.80669144E-02   1.80403497E-08   4.00956827E-04   1.70406651E-06   3.90932906E-05   1.81463156E-03   2.12185120E-09
   2.53750000E+02   5.00000000E-01   5.00000000E-01  -4.19628488E-03   1.85832080E-11   4.76308773E-03   4.71557767E-02   1.34104070E-02   7.89844546E-04   1.82060700E-20   1.44933614E-07   9.02483016E-06   2.46677806E-05   1.40385744E-06   8.70870443E-05   4.77207804E-06   1.45632300E-09   1.19456191E-09   5.49703154E-01   6.81877751E-05   1.20330636E-02   3.56899224E-23   4.75191076E-01   2.80770932E-02   1.80466935E-08   4.01102124E-04   1.70468403E-06   3.91074571E-05   1.87927755E-03   2.12134889E-09
   2.71250000E+02   5.00000000E-01   5.00000000E-01  -4.16085636E-03   2.01173257E-11   4.76491659E-03   4.69095155E-02   1.36147879E-02   8.41861500E-04   2.08715828E-20   1.53153245E-07   9.02829756E-06   2.46772523E-05   1.40439647E-06   9.29402096E-05   5.08702669E-06   1.45904371E-09   1.19309857E-09   5.49914222E-01   6.82139860E-05   1.20376839E-02   6.00419934E-23   4.75351072E-01   2.80878820E-02   1.80534292E-08   4.01256134E-04   1.70533857E-06   3.91224731E-05   1.94616842E-03   2.12089310E-09
   2.88750000E+02   5.00000000E-01   5.00000000E-01  -4.12356500E-03   2.17368605E-11   4.76684632E-03   4.66627856E-02   1.38196499E-02   8.93749525E-04   2.38715017E-20   1.61622685E-07   9.03195606E-06   2.46872462E-05   1.40496523E-06   9.88012897E-05   5.40232001E-06   1.46179701E-09   1.19165883E-09   5.50136930E-01   6.82416409E-05   1.20425590E-02   1.00495814E-22   4.75521998E-01   2.80992656E-02   1.80605468E-08   4.01418638E-04   1.70602921E-06   3.91383172E-05   2.01531491E-03   2.12056344E-09
   3.06250000E+02   5.00000000E-01   5.00000000E-01  -4.08434264E-03   2.34504324E-11   4.76887449E-03   4.64155278E-02   1.40249966E-02   9.45499700E-04   2.72444403E-20   1.70338763E-07   9.03580107E-06   2.46977500E-05   1.40556301E-06   1.04670595E-04   5.71797478E-06   1.46458228E-09   1.19024196E-09   5.50370998E-01   6.82707051E-05   1.20476828E-02   1.67378037E-22   4.75703611E-01   2.81112298E-02   1.80680372E-08   4.01589430E-04   1.70675508E-06   3.91549695E-05   2.08669864E-03   2.12043656E-09
   3.23750000E+02   5.00000000E-01   5.00000000E-01  -4.04313722E-03   2.52656891E-11   4.77099883E-03   4.61676948E-02   1.42308319E-02   9.97103157E-04   3.10314861E-20   1.79298405E-07   9.03982833E-06   2.47087519E-05   1.40618913E-06   1.10548432E-04   6.03400738E-06   1.46739898E-09   1.18884727E-09   5.50616167E-01   6.83011464E-05   1.20530496E-02   2.77436533E-22   4.75895683E-01   2.81237611E-02   1.80758918E-08   4.01768323E-04   1.70751537E-06   3.91724115E-05   2.16029400E-03   2.12058578E-09
   3.41250000E+02   5.00000000E-01   5.00000000E-01  -3.99991025E-03   2.71894288E-11   4.77321726E-03   4.59192479E-02   1.44371602E-02   1.04855102E-03   3.52763802E-20   1.88498521E-07   9.04403384E-06   2.47202410E-05   1.40684298E-06   1.16435102E-04   6.35043378E-06   1.47024659E-09   1.18747414E-09   5.50872193E-01   6.83329347E-05   1.20586540E-02   4.57708708E-22   4.76097998E-01   2.81368472E-02   1.80841026E-08   4.01955138E-04   1.70830933E-06   3.91906259E-05   2.23607946E-03   2.12108072E-09
   3.58750000E+02   5.00000000E-01   5.00000000E-01  -3.95463487E-03   2.92277735E-11   4.77552780E-03   4.56701552E-02   1.46439860E-02   1.09983439E-03   4.00257224E-20   1.97935946E-07   9.04841389E-06   2.47322071E-05   1.40752398E-06   1.22330904E-04   6.66726959E-06   1.47312462E-09   1.18612194E-09   5.51138850E-01   6.83660417E-05   1.20644912E-02   7.51646162E-22   4.76310357E-01   2.81504766E-02   1.80926623E-08   4.02149709E-04   1.70913626E-06   3.92095967E-05   2.31404248E-03   2.12198715E-09
   3.76250000E+02   5.00000000E-01   5.00000000E-01  -3.90729449E-03   3.13863879E-11   4.77792862E-03   4.54203904E-02   1.48513142E-02   1.15094424E-03   4.53292205E-20   2.07607405E-07   9.05296501E-06   2.47446409E-05   1.40823159E-06   1.28236133E-04   6.98453008E-06   1.47603264E-09   1.18479013E-09   5.51415927E-01   6.84004413E-05   1.20705564E-02   1.22876977E-21   4.76532574E-01   2.81646384E-02   1.81015638E-08   4.02351884E-04   1.70999551E-06   3.92293087E-05   2.39418043E-03   2.12336675E-09
   3.93750000E+02   5.00000000E-01   5.00000000E-01  -3.85788175E-03   3.36707175E-11   4.78041802E-03   4.51699327E-02   1.50591502E-02   1.20187149E-03   5.12399827E-20   2.17509500E-07   9.05768396E-06   2.47575333E-05   1.40896531E-06   1.34151080E-04   7.30223022E-06   1.47897025E-09   1.18347816E-09   5.51703226E-01   6.84361091E-05   1.20768454E-02   1.99982574E-21   4.76764478E-01   2.81793226E-02   1.81108006E-08   4.02561517E-04   1.71088645E-06   3.92497480E-05   2.47649966E-03   2.12527710E-09
   4.11250000E+02   5.00000000E-01   5.00000000E-01  -3.80639809E-03   3.60861877E-11   4.78299440E-03   4.49187663E-02   1.52674994E-02   1.25260690E-03   5.78148134E-20   2.27638700E-07   9.06256771E-06   2.47708762E-05   1.40972466E-06   1.40076033E-04   7.62038468E-06   1.48193706E-09   1.18218554E-09   5.52000563E-01   6.84730222E-05   1.20833541E-02   3.24047760E-21   4.77005910E-01   2.81945196E-02   1.81203668E-08   4.02778476E-04   1.71180852E-06   3.92709014E-05   2.56101371E-03   2.12777162E-09
   4.28750000E+02   5.00000000E-01   5.00000000E-01  -3.75285390E-03   3.86383107E-11   4.78565626E-03   4.46668806E-02   1.54763674E-02   1.30314115E-03   6.51144535E-20   2.37991349E-07   9.06761345E-06   2.47846619E-05   1.41050921E-06   1.46011277E-04   7.93900788E-06   1.48493273E-09   1.18091179E-09   5.52307766E-01   6.85111592E-05   1.20900789E-02   5.22818772E-21   4.77256723E-01   2.82102209E-02   1.81302566E-08   4.03002633E-04   1.71276119E-06   3.92927567E-05   2.64774202E-03   2.13089958E-09
   4.46250000E+02   5.00000000E-01   5.00000000E-01  -3.69726921E-03   4.13326741E-11   4.78840223E-03   4.44142713E-02   1.56857602E-02   1.35346481E-03   7.32037220E-20   2.48563657E-07   9.07281853E-06   2.47988831E-05   1.41131855E-06   1.51957096E-04   8.25811402E-06   1.48795695E-09   1.17965646E-09   5.52624675E-01   6.85505002E-05   1.20970160E-02   8.39939418E-21   4.77516778E-01   2.82264181E-02   1.81404647E-08   4.03233872E-04   1.71374396E-06   3.93153025E-05   2.73670927E-03   2.13470616E-09
   4.63750000E+02   5.00000000E-01   5.00000000E-01  -3.63967472E-03   4.41748429E-11   4.79123099E-03   4.41609398E-02   1.58956839E-02   1.40356831E-03   8.21515554E-20   2.59351715E-07   9.07818049E-06   2.48135331E-05   1.41215229E-06   1.57913767E-04   8.57771705E-06   1.49100943E-09   1.17841912E-09   5.52951140E-01   6.85910267E-05   1.21041624E-02   1.34377879E-20   4.77785947E-01   2.82431036E-02   1.81509863E-08   4.03472084E-04   1.71475636E-06   3.93385282E-05   2.82794556E-03   2.13923256E-09
   4.81250000E+02   5.00000000E-01   5.00000000E-01  -3.58011256E-03   4.71702444E-11   4.79414134E-03   4.39068947E-02   1.61061447E-02   1.45344199E-03   9.20310039E-20   2.70351491E-07   9.08369705E-06   2.48286057E-05   1.41301008E-06   1.63881569E-04   8.89783075E-06   1.49408991E-09   1.17719939E-09   5.53287020E-01   6.86327212E-05   1.21115148E-02   2.14100572E-20   4.78064110E-01   2.82602702E-02   1.81618168E-08   4.03717166E-04   1.71579795E-06   3.93624237E-05   2.92148671E-03   2.14451603E-09
   4.98750000E+02   5.00000000E-01   5.00000000E-01  -3.51863665E-03   5.03241169E-11   4.79713214E-03   4.36521511E-02   1.63171490E-02   1.50307606E-03   1.02919273E-19   2.81558842E-07   9.08936604E-06   2.48440949E-05   1.41389158E-06   1.69860775E-04   9.21846870E-06   1.49719813E-09   1.17599688E-09   5.53632186E-01   6.86755676E-05   1.21190705E-02   3.39738034E-20   4.78351156E-01   2.82779113E-02   1.81729517E-08   4.03969023E-04   1.71686835E-06   3.93869797E-05   3.01737448E-03   2.15059007E-09
   5.16250000E+02   5.00000000E-01   5.00000000E-01  -3.45531245E-03   5.36415728E-11   4.80020234E-03   4.33967307E-02   1.65287034E-02   1.55246056E-03   1.14897897E-19   2.92969515E-07   9.09518547E-06   2.48599953E-05   1.41479648E-06   1.75851657E-04   9.53964434E-06   1.50033388E-09   1.17481123E-09   5.53986514E-01   6.87195506E-05   1.21268268E-02   5.36947844E-20   4.78646981E-01   2.82960206E-02   1.81843872E-08   4.04227566E-04   1.71796715E-06   3.94121876E-05   3.11565606E-03   2.15748449E-09
   5.33750000E+02   5.00000000E-01   5.00000000E-01  -3.39021626E-03   5.71277706E-11   4.80335095E-03   4.31406618E-02   1.67408146E-02   1.60158546E-03   1.28053077E-19   3.04579156E-07   9.10115347E-06   2.48763017E-05   1.41572449E-06   1.81854484E-04   9.86137092E-06   1.50349696E-09   1.17364210E-09   5.54349892E-01   6.87646563E-05   1.21347812E-02   8.45291806E-20   4.78951489E-01   2.83145923E-02   1.81961194E-08   4.04492711E-04   1.71909402E-06   3.94380394E-05   3.21638296E-03   2.16522564E-09
   5.51250000E+02   5.00000000E-01   5.00000000E-01  -3.32343434E-03   6.07881311E-11   4.80657704E-03   4.28839786E-02   1.69534893E-02   1.65044060E-03   1.42476131E-19   3.16383310E-07   9.10726829E-06   2.48930095E-05   1.41667534E-06   1.87869523E-04   1.01836616E-05   1.50668718E-09   1.17248919E-09   5.54722212E-01   6.88108713E-05   1.21429313E-02   1.32554063E-19   4.79264588E-01   2.83336209E-02   1.82081449E-08   4.04764382E-04   1.72024863E-06   3.94645273E-05   3.31960976E-03   2.17383651E-09
   5.68750000E+02   5.00000000E-01   5.00000000E-01  -3.25506235E-03   6.46284959E-11   4.80987977E-03   4.26267209E-02   1.71667344E-02   1.69901584E-03   1.58263932E-19   3.28377431E-07   9.11352831E-06   2.49101142E-05   1.41764877E-06   1.93897040E-04   1.05065294E-05   1.50990439E-09   1.17135217E-09   5.55103376E-01   6.88581834E-05   1.21512751E-02   2.07069811E-19   4.79586194E-01   2.83531015E-02   1.82204604E-08   4.05042507E-04   1.72143065E-06   3.94916444E-05   3.42539297E-03   2.18333697E-09
   5.86250000E+02   5.00000000E-01   5.00000000E-01  -3.18520524E-03   6.86551336E-11   4.81325833E-03   4.23689345E-02   1.73805566E-02   1.74730105E-03   1.75519156E-19   3.40556884E-07   9.11993202E-06   2.49276115E-05   1.41864456E-06   1.99937297E-04   1.08299872E-05   1.51314844E-09   1.17023076E-09   5.55493292E-01   6.89065812E-05   1.21598104E-02   3.22257849E-19   4.79916226E-01   2.83730292E-02   1.82330628E-08   4.05327017E-04   1.72263982E-06   3.95193842E-05   3.53379067E-03   2.19374387E-09
   6.03750000E+02   5.00000000E-01   5.00000000E-01  -3.11397755E-03   7.28745514E-11   4.81671197E-03   4.21106707E-02   1.75949630E-02   1.79528619E-03   1.94350232E-19   3.52916949E-07   9.12647800E-06   2.49454978E-05   1.41966248E-06   2.05990554E-04   1.11540478E-05   1.51641919E-09   1.16912469E-09   5.55891874E-01   6.89560541E-05   1.21685354E-02   4.99664315E-19   4.80254610E-01   2.83933998E-02   1.82459494E-08   4.05617850E-04   1.72387586E-06   3.95477404E-05   3.64486300E-03   2.20507123E-09
   6.21250000E+02   5.00000000E-01   5.00000000E-01  -3.04150397E-03   7.72931447E-11   4.82024002E-03   4.18519864E-02   1.78099605E-02   1.84296133E-03   2.14870934E-19   3.65452828E-07   9.13316496E-06   2.49637694E-05   1.42070232E-06   2.12057070E-04   1.14787239E-05   1.51971653E-09   1.16803369E-09   5.56299042E-01   6.90065921E-05   1.21774483E-02   7.71907495E-19   4.80601276E-01   2.84142091E-02   1.82591176E-08   4.05914949E-04   1.72513853E-06   3.95767075E-05   3.75867329E-03   2.21733045E-09
   6.38750000E+02   5.00000000E-01   5.00000000E-01  -2.96791955E-03   8.19167772E-11   4.82384182E-03   4.15929445E-02   1.80255561E-02   1.89031661E-03   2.37199732E-19   3.78159650E-07   9.13999166E-06   2.49824229E-05   1.42176391E-06   2.18137102E-04   1.18040283E-05   1.52304035E-09   1.16695753E-09   5.56714723E-01   6.90581861E-05   1.21865476E-02   1.18819167E-18   4.80956157E-01   2.84354533E-02   1.82725648E-08   4.06218259E-04   1.72642760E-06   3.96062802E-05   3.87528945E-03   2.23053039E-09
   6.56250000E+02   5.00000000E-01   5.00000000E-01  -2.89336936E-03   8.67504147E-11   4.82751678E-03   4.13336130E-02   1.82417569E-02   1.93734222E-03   2.61459056E-19   3.91032474E-07   9.14695700E-06   2.50014553E-05   1.42284705E-06   2.24230905E-04   1.21299734E-05   1.52639058E-09   1.16589597E-09   5.57138847E-01   6.91108275E-05   1.21958317E-02   1.82247784E-18   4.81319194E-01   2.84571290E-02   1.82862888E-08   4.06527729E-04   1.72774285E-06   3.96364536E-05   3.99478507E-03   2.24467758E-09
   6.73750000E+02   5.00000000E-01   5.00000000E-01  -2.81800740E-03   9.17979143E-11   4.83126436E-03   4.10740645E-02   1.84585701E-02   1.98402835E-03   2.87774700E-19   4.04066301E-07   9.15405991E-06   2.50208638E-05   1.42395160E-06   2.30338733E-04   1.24565718E-05   1.52976713E-09   1.16484878E-09   5.57571350E-01   6.91645084E-05   1.22052993E-02   2.78554868E-18   4.81690332E-01   2.84792328E-02   1.83002876E-08   4.06843314E-04   1.72908409E-06   3.96672232E-05   4.11723976E-03   2.25977632E-09
   6.91250000E+02   5.00000000E-01   5.00000000E-01  -2.74199467E-03   9.70620177E-11   4.83508403E-03   4.08143753E-02   1.86760028E-02   2.03036511E-03   3.16275504E-19   4.17256071E-07   9.16129944E-06   2.50406457E-05   1.42507740E-06   2.36460838E-04   1.27838359E-05   1.53316995E-09   1.16381575E-09   5.58012175E-01   6.92192217E-05   1.22149490E-02   4.24276195E-18   4.82069520E-01   2.85017618E-02   1.83145591E-08   4.07164971E-04   1.73045113E-06   3.96985847E-05   4.24273869E-03   2.27582887E-09
   7.08750000E+02   5.00000000E-01   5.00000000E-01  -2.66549694E-03   1.02544514E-10   4.83897534E-03   4.05546244E-02   1.88940622E-02   2.07634256E-03   3.47093345E-19   4.30596675E-07   9.16867470E-06   2.50607986E-05   1.42622431E-06   2.42597471E-04   1.31117781E-05   1.53659898E-09   1.16279669E-09   5.58461267E-01   6.92749604E-05   1.22247797E-02   6.44008614E-18   4.82456713E-01   2.85247133E-02   1.83291017E-08   4.07492660E-04   1.73184381E-06   3.97305344E-05   4.37137143E-03   2.29283555E-09
   7.26250000E+02   5.00000000E-01   5.00000000E-01  -2.58868247E-03   1.08246448E-10   4.84293785E-03   4.02948922E-02   1.91127555E-02   2.12195066E-03   3.80363238E-19   4.44082954E-07   9.17618487E-06   2.50813202E-05   1.42739221E-06   2.48748881E-04   1.34404108E-05   1.54005418E-09   1.16179140E-09   5.58918576E-01   6.93317186E-05   1.22347902E-02   9.74215279E-18   4.82851870E-01   2.85480845E-02   1.83439136E-08   4.07826345E-04   1.73326197E-06   3.97630687E-05   4.50323040E-03   2.31079491E-09
   7.43750000E+02   5.00000000E-01   5.00000000E-01  -2.51172028E-03   1.14168190E-10   4.84697116E-03   4.00352598E-02   1.93320900E-02   2.16717931E-03   4.16223158E-19   4.57709710E-07   9.18382921E-06   2.51022085E-05   1.42858097E-06   2.54915318E-04   1.37697463E-05   1.54353552E-09   1.16079971E-09   5.59384057E-01   6.93894904E-05   1.22449796E-02   1.46876806E-17   4.83254952E-01   2.85718733E-02   1.83589933E-08   4.08165993E-04   1.73470547E-06   3.97961843E-05   4.63840976E-03   2.32970385E-09
   7.61250000E+02   5.00000000E-01   5.00000000E-01  -2.43477918E-03   1.20309183E-10   4.85107492E-03   3.97758084E-02   1.95520729E-02   2.21201832E-03   4.54813073E-19   4.71471706E-07   9.19160701E-06   2.51234617E-05   1.42979050E-06   2.61097028E-04   1.40997969E-05   1.54704299E-09   1.15982143E-09   5.59857667E-01   6.94482707E-05   1.22553470E-02   2.20699134E-17   4.83665928E-01   2.85960775E-02   1.83743395E-08   4.08511572E-04   1.73617418E-06   3.98298783E-05   4.77700494E-03   2.34955774E-09
   7.78750000E+02   5.00000000E-01   5.00000000E-01  -2.35802749E-03   1.26667277E-10   4.85524879E-03   3.95166192E-02   1.97727115E-02   2.25645740E-03   4.96272776E-19   4.85363672E-07   9.19951767E-06   2.51450779E-05   1.43102070E-06   2.67294258E-04   1.44305747E-05   1.55057657E-09   1.15885641E-09   5.60339369E-01   6.95080549E-05   1.22658915E-02   3.30529222E-17   4.84084766E-01   2.86206950E-02   1.83899510E-08   4.08863056E-04   1.73766799E-06   3.98641479E-05   4.91911311E-03   2.37035055E-09
   7.96250000E+02   5.00000000E-01   5.00000000E-01  -2.28163315E-03   1.33237689E-10   4.85949247E-03   3.92577734E-02   1.99940131E-02   2.30048598E-03   5.40738378E-19   4.99380312E-07   9.20756061E-06   2.51670557E-05   1.43227147E-06   2.73507255E-04   1.47620921E-05   1.55413627E-09   1.15790450E-09   5.60829128E-01   6.95688385E-05   1.22766124E-02   4.93391060E-17   4.84511442E-01   2.86457243E-02   1.84058265E-08   4.09220419E-04   1.73918678E-06   3.98989908E-05   5.06483458E-03   2.39207494E-09
   8.13750000E+02   5.00000000E-01   5.00000000E-01  -2.20576365E-03   1.40011785E-10   4.86380570E-03   3.89993520E-02   2.02159850E-02   2.34409302E-03   5.88337726E-19   5.13516313E-07   9.21573533E-06   2.51893937E-05   1.43354273E-06   2.79736264E-04   1.50943612E-05   1.55772209E-09   1.15696555E-09   5.61326914E-01   6.96306178E-05   1.22875090E-02   7.34094579E-17   4.84945935E-01   2.86711636E-02   1.84219650E-08   4.09583638E-04   1.74073046E-06   3.99344047E-05   5.21427430E-03   2.41472238E-09
   8.31250000E+02   5.00000000E-01   5.00000000E-01  -2.13058528E-03   1.46975960E-10   4.86818824E-03   3.87414356E-02   2.04386344E-02   2.38726674E-03   6.39185311E-19   5.27766345E-07   9.22404137E-06   2.52120907E-05   1.43483443E-06   2.85981530E-04   1.54273942E-05   1.56133405E-09   1.15603942E-09   5.61832698E-01   6.96933894E-05   1.22985807E-02   1.08866811E-16   4.85388228E-01   2.86970116E-02   1.84383657E-08   4.09952694E-04   1.74229895E-06   3.99703876E-05   5.36754319E-03   2.43828322E-09
   8.48750000E+02   5.00000000E-01   5.00000000E-01  -2.05626143E-03   1.54110871E-10   4.87263986E-03   3.84841036E-02   2.06619688E-02   2.42999422E-03   6.93377452E-19   5.42125075E-07   9.23247833E-06   2.52351454E-05   1.43614649E-06   2.92243297E-04   1.57612031E-05   1.56497218E-09   1.15512600E-09   5.62346456E-01   6.97571501E-05   1.23098269E-02   1.60924227E-16   4.85838309E-01   2.87232669E-02   1.84550277E-08   4.10327568E-04   1.74389216E-06   4.00069378E-05   5.52475860E-03   2.46274679E-09
   8.66250000E+02   5.00000000E-01   5.00000000E-01  -1.98295019E-03   1.61391204E-10   4.87716040E-03   3.82274333E-02   2.08859956E-02   2.47226113E-03   7.50988387E-19   5.56587169E-07   9.24104584E-06   2.52585570E-05   1.43747885E-06   2.98521811E-04   1.60958001E-05   1.56863651E-09   1.15422517E-09   5.62868166E-01   6.98218973E-05   1.23212472E-02   2.37097155E-16   4.86296171E-01   2.87499285E-02   1.84719502E-08   4.10708244E-04   1.74551004E-06   4.00440538E-05   5.68604373E-03   2.48810148E-09
   8.83750000E+02   5.00000000E-01   5.00000000E-01  -1.91080133E-03   1.68786008E-10   4.88174967E-03   3.79714986E-02   2.11107224E-02   2.51405141E-03   8.12067693E-19   5.71147295E-07   9.24974360E-06   2.52823246E-05   1.43883148E-06   3.04817316E-04   1.64311971E-05   1.57232708E-09   1.15333682E-09   5.63397809E-01   6.98876286E-05   1.23328411E-02   3.48180568E-16   4.86761814E-01   2.87769954E-02   1.84891327E-08   4.11094709E-04   1.74715251E-06   4.00817341E-05   5.85152604E-03   2.51433484E-09
   9.01250000E+02   5.00000000E-01   5.00000000E-01  -1.83995338E-03   1.76259514E-10   4.88640754E-03   3.77163691E-02   2.13361566E-02   2.55534703E-03   8.76639138E-19   5.85800134E-07   9.25857135E-06   2.53064475E-05   1.44020433E-06   3.11130057E-04   1.67674061E-05   1.57604394E-09   1.15246088E-09   5.63935369E-01   6.99543421E-05   1.23446084E-02   5.09623156E-16   4.87235239E-01   2.88044668E-02   1.85065747E-08   4.11486951E-04   1.74881954E-06   4.01199777E-05   6.02133494E-03   2.54143367E-09
   9.18750000E+02   5.00000000E-01   5.00000000E-01  -1.77053109E-03   1.83772304E-10   4.89113389E-03   3.74621092E-02   2.15623061E-02   2.59612784E-03   9.44700829E-19   6.00540375E-07   9.26752886E-06   2.53309250E-05   1.44159736E-06   3.17460277E-04   1.71044390E-05   1.57978714E-09   1.15159728E-09   5.64480833E-01   7.00220360E-05   1.23565486E-02   7.43452677E-16   4.87716452E-01   2.88323420E-02   1.85242756E-08   4.11884959E-04   1.75051108E-06   4.01587835E-05   6.19559917E-03   2.56938409E-09
   9.36250000E+02   5.00000000E-01   5.00000000E-01  -1.70264345E-03   1.91282680E-10   4.89592864E-03   3.72087771E-02   2.17891785E-02   2.63637151E-03   1.01622647E-18   6.15362721E-07   9.27661596E-06   2.53557567E-05   1.44301055E-06   3.23808224E-04   1.74423077E-05   1.58355676E-09   1.15074596E-09   5.65034190E-01   7.00907091E-05   1.23686617E-02   1.08096357E-15   4.88205462E-01   2.88606203E-02   1.85422351E-08   4.12288727E-04   1.75222709E-06   4.01981509E-05   6.37444397E-03   2.59817163E-09
   9.53750000E+02   5.00000000E-01   5.00000000E-01  -1.63638248E-03   1.98748118E-10   4.90079170E-03   3.69564251E-02   2.20167817E-02   2.67605360E-03   1.09116754E-18   6.30261887E-07   9.28583250E-06   2.53809423E-05   1.44444387E-06   3.30174141E-04   1.77810239E-05   1.58735285E-09   1.14990694E-09   5.65595431E-01   7.01603601E-05   1.23809473E-02   1.56645495E-15   4.88702281E-01   2.88893013E-02   1.85604530E-08   4.12698248E-04   1.75396756E-06   4.02380792E-05   6.55798858E-03   2.62778132E-09
   9.71250000E+02   5.00000000E-01   5.00000000E-01  -1.57182281E-03   2.06126701E-10   4.90572302E-03   3.67050990E-02   2.22451235E-02   2.71514761E-03   1.16945613E-18   6.45232603E-07   9.29517839E-06   2.54064813E-05   1.44589731E-06   3.36558275E-04   1.81205994E-05   1.59117549E-09   1.14908022E-09   5.66164550E-01   7.02309885E-05   1.23934054E-02   2.26241081E-15   4.89206921E-01   2.89183848E-02   1.85789289E-08   4.13113518E-04   1.75573245E-06   4.02785680E-05   6.74634388E-03   2.65819778E-09
   9.88750000E+02   5.00000000E-01   5.00000000E-01  -1.50902172E-03   2.13378470E-10   4.91072257E-03   3.64548385E-02   2.24742117E-02   2.75362522E-03   1.25100840E-18   6.60269610E-07   9.30465356E-06   2.54323737E-05   1.44737086E-06   3.42960873E-04   1.84610458E-05   1.59502477E-09   1.14826590E-09   5.66741543E-01   7.03025937E-05   1.24060358E-02   3.25665301E-15   4.89719397E-01   2.89478702E-02   1.85976628E-08   4.13534532E-04   1.75752176E-06   4.03196169E-05   6.93961056E-03   2.68940529E-09