 TITLE = "Total Concentrations" 
VARIABLES = "X"          "Y"              "Z"            "H+"             "Al+++"          "CO2(aq)"        "Mg++"           "Ca++"           "Fe++"           "Fe+++"          "Ba++"           "Sr++"           "Cl-"            "F-"             "K+"             "Na+"            "SO4--"          "O2(aq)"         "B(OH)3(aq)"     "HPO4--"         "NO3-"           "H4SiO4(aq)"    
 ZONE I=         100 , J=           1 , K=           1  F=POINT
   1.75000000E+01   5.00000000E-01   5.00000000E-01  -4.60472704E-03   3.81658990E-11   4.75000053E-03   5.09642158E-02   4.02684595E-02   2.65079955E-05   5.06790232E-15   2.00000022E-07   9.00000100E-06   5.48166604E-01   6.80000076E-05   1.19839868E-02   4.74069992E-01   5.78545069E-02   1.80000020E-04   4.00000045E-04   1.70000019E-06   3.90000043E-05   2.72795378E-04
   5.25000000E+01   5.00000000E-01   5.00000000E-01  -4.56699652E-03   3.57456783E-11   4.75014842E-03   5.08896289E-02   4.82047485E-02   5.29904228E-05   6.33084338E-15   2.00006249E-07   9.00028122E-06   5.48183671E-01   6.80021248E-05   1.19662717E-02   4.74136446E-01   6.57773911E-02   1.80005624E-04   4.00012499E-04   1.70005312E-06   3.90012186E-05   3.49045458E-04
   8.75000000E+01   5.00000000E-01   5.00000000E-01  -4.53636921E-03   3.65513746E-11   4.75058151E-03   5.08253384E-02   4.93472319E-02   7.94774962E-05   8.80368646E-15   2.00024485E-07   9.00110182E-06   5.48233652E-01   6.80083248E-05   1.19501124E-02   4.74222870E-01   6.69075230E-02   1.80022036E-04   4.00048970E-04   1.70020812E-06   3.90047745E-05   4.00792521E-04
   1.22500000E+02   5.00000000E-01   5.00000000E-01  -4.50752758E-03   3.95310453E-11   4.75128379E-03   5.07665460E-02   4.87718616E-02   1.05973107E-04   1.16819177E-14   2.00054054E-07   9.00243244E-06   5.48314697E-01   6.80183784E-05   1.19353147E-02   4.74331758E-01   6.63207924E-02   1.80048649E-04   4.00108108E-04   1.70045946E-06   3.90105406E-05   4.40480419E-04
   1.57500000E+02   5.00000000E-01   5.00000000E-01  -4.47853894E-03   4.40558894E-11   4.75224091E-03   5.07112116E-02   4.77784274E-02   1.32480876E-04   1.48122878E-14   2.00094354E-07   9.00424593E-06   5.48425151E-01   6.80320803E-05   1.19215720E-02   4.74463789E-01   6.53169337E-02   1.80084919E-04   4.00188708E-04   1.70080201E-06   3.90183990E-05   4.73560191E-04
   1.92500000E+02   5.00000000E-01   5.00000000E-01  -4.44840422E-03   4.99239609E-11   4.75344002E-03   5.06581990E-02   4.66778958E-02   1.59004198E-04   1.81931446E-14   2.00144843E-07   9.00651793E-06   5.48563533E-01   6.80492466E-05   1.19086521E-02   4.74618882E-01   6.42068637E-02   1.80130359E-04   4.00289686E-04   1.70123117E-06   3.90282444E-05   5.02825729E-04
   2.27500000E+02   5.00000000E-01   5.00000000E-01  -4.41650121E-03   5.71084715E-11   4.75486958E-03   5.06067776E-02   4.55453228E-02   1.85546270E-04   2.18800071E-14   2.00205035E-07   9.00922658E-06   5.48728510E-01   6.80697119E-05   1.18963915E-02   4.74796608E-01   6.30655940E-02   1.80184532E-04   4.00410070E-04   1.70174280E-06   3.90399818E-05   5.29852770E-04
   2.62500000E+02   5.00000000E-01   5.00000000E-01  -4.38238801E-03   6.56702815E-11   4.75651919E-03   5.05564288E-02   4.44007652E-02   2.12110124E-04   2.59484812E-14   2.00274492E-07   9.01235216E-06   5.48918881E-01   6.80933274E-05   1.18846742E-02   4.74996394E-01   6.19131409E-02   1.80247043E-04   4.00548985E-04   1.70233318E-06   3.90535260E-05   5.55584045E-04
   2.97500000E+02   5.00000000E-01   5.00000000E-01  -4.34571862E-03   7.57245619E-11   4.75837947E-03   5.05067555E-02   4.32515229E-02   2.38698651E-04   3.04815089E-14   2.00352820E-07   9.01587689E-06   5.49133563E-01   6.81199587E-05   1.18734166E-02   4.75217609E-01   6.07567680E-02   1.80317538E-04   4.00705639E-04   1.70299897E-06   3.90687999E-05   5.80605613E-04
   3.32500000E+02   5.00000000E-01   5.00000000E-01  -4.30620267E-03   8.74272089E-11   4.76044193E-03   5.04574361E-02   4.21018233E-02   2.65314614E-04   3.55662820E-14   2.00439660E-07   9.01978471E-06   5.49371578E-01   6.81494844E-05   1.18625564E-02   4.75459617E-01   5.96006695E-02   1.80395694E-04   4.00879320E-04   1.70373711E-06   3.90857337E-05   6.05291536E-04
   3.67500000E+02   5.00000000E-01   5.00000000E-01  -4.26358527E-03   1.00969418E-10   4.76269889E-03   5.04081990E-02   4.09550020E-02   2.91960673E-04   4.12945452E-14   2.00534690E-07   9.02406106E-06   5.49632039E-01   6.81817946E-05   1.18520463E-02   4.75721803E-01   5.84481510E-02   1.80481221E-04   4.01069380E-04   1.70454487E-06   3.91042646E-05   6.29885311E-04
   4.02500000E+02   5.00000000E-01   5.00000000E-01  -4.21763711E-03   1.16576032E-10   4.76514339E-03   5.03588087E-02   3.98139860E-02   3.18639393E-04   4.77639839E-14   2.00637617E-07   9.02869275E-06   5.49914144E-01   6.82167896E-05   1.18418494E-02   4.76003581E-01   5.73021125E-02   1.80573855E-04   4.01275233E-04   1.70541974E-06   3.91243352E-05   6.54548214E-04
   4.37500000E+02   5.00000000E-01   5.00000000E-01  -4.16815013E-03   1.34505806E-10   4.76776912E-03   5.03090574E-02   3.86814033E-02   3.45353256E-04   5.50799547E-14   2.00748173E-07   9.03366780E-06   5.50217161E-01   6.82543790E-05   1.18319364E-02   4.76304404E-01   5.61651567E-02   1.80673356E-04   4.01496347E-04   1.70635947E-06   3.91458938E-05   6.79389199E-04
   4.72500000E+02   5.00000000E-01   5.00000000E-01  -4.11493629E-03   1.55052745E-10   4.77057031E-03   5.02587605E-02   3.75596115E-02   3.72104675E-04   6.33573699E-14   2.00866119E-07   9.03897533E-06   5.50540429E-01   6.82944803E-05   1.18222836E-02   4.76623764E-01   5.50396189E-02   1.80779507E-04   4.01732237E-04   1.70736201E-06   3.91688931E-05   7.04484019E-04
   5.07500000E+02   5.00000000E-01   5.00000000E-01  -4.05782847E-03   1.78548052E-10   4.77354176E-03   5.02077553E-02   3.64507128E-02   3.98895998E-04   7.27227354E-14   2.00991232E-07   9.04460543E-06   5.50883344E-01   6.83370188E-05   1.18128720E-02   4.76961188E-01   5.39275804E-02   1.80892109E-04   4.01982464E-04   1.70842547E-06   3.91932902E-05   7.29887834E-04
   5.42500000E+02   5.00000000E-01   5.00000000E-01  -3.99668254E-03   2.05362460E-10   4.77667868E-03   5.01558993E-02   3.53565659E-02   4.25729521E-04   8.33163995E-14   2.01123313E-07   9.05054908E-06   5.51245356E-01   6.83819264E-05   1.18036858E-02   4.77316241E-01   5.28308810E-02   1.81010982E-04   4.02246626E-04   1.70954816E-06   3.92190460E-05   7.55643753E-04
   5.77500000E+02   5.00000000E-01   5.00000000E-01  -3.93138021E-03   2.35908775E-10   4.77997675E-03   5.01030712E-02   3.42787995E-02   4.52607493E-04   9.52950929E-14   2.01262179E-07   9.05679806E-06   5.51625965E-01   6.84291409E-05   1.17947124E-02   4.77688520E-01   5.17511320E-02   1.81135961E-04   4.02524358E-04   1.71072852E-06   3.92461249E-05   7.81788778E-04
   6.12500000E+02   5.00000000E-01   5.00000000E-01  -3.86183241E-03   2.70644529E-10   4.78343201E-03   5.00491713E-02   3.32188256E-02   4.79532122E-04   1.08834845E-13   2.01407664E-07   9.06334486E-06   5.52024714E-01   6.84786056E-05   1.17859418E-02   4.78077652E-01   5.06897295E-02   1.81266897E-04   4.02815327E-04   1.71196514E-06   3.92744944E-05   8.08358032E-04
   6.47500000E+02   5.00000000E-01   5.00000000E-01  -3.78798121E-03   3.10055311E-10   4.78704085E-03   4.99941196E-02   3.21778544E-02   5.06505587E-04   1.24147791E-13   2.01559615E-07   9.07018267E-06   5.52441187E-01   6.85302691E-05   1.17773687E-02   4.78483295E-01   4.96478693E-02   1.81403653E-04   4.03119230E-04   1.71325673E-06   3.93041249E-05   8.35395479E-04
   6.82500000E+02   5.00000000E-01   5.00000000E-01  -3.70979954E-03   3.54621108E-10   4.79079999E-03   4.99378503E-02   3.11569085E-02   5.33530036E-04   1.41511083E-13   2.01717894E-07   9.07730523E-06   5.52875003E-01   6.85840840E-05   1.17689985E-02   4.78905137E-01   4.86265604E-02   1.81546105E-04   4.03435788E-04   1.71460210E-06   3.93349894E-05   8.62968385E-04
   7.17500000E+02   5.00000000E-01   5.00000000E-01  -3.62730266E-03   4.04983887E-10   4.79470640E-03   4.98803343E-02   3.01568375E-02   5.60607605E-04   1.61157696E-13   2.01882375E-07   9.08470687E-06   5.53325818E-01   6.86400075E-05   1.17608285E-02   4.79342878E-01   4.76266400E-02   1.81694137E-04   4.03764750E-04   1.71600019E-06   3.93670631E-05   8.91115461E-04
   7.52500000E+02   5.00000000E-01   5.00000000E-01  -3.54055418E-03   4.61791979E-10   4.79875737E-03   4.98215722E-02   2.91783320E-02   5.87740414E-04   1.83390723E-13   2.02052942E-07   9.09238239E-06   5.53793314E-01   6.86980003E-05   1.17528572E-02   4.79796240E-01   4.66487878E-02   1.81847648E-04   4.04105884E-04   1.71745001E-06   3.94003237E-05   9.19885823E-04
   7.87500000E+02   5.00000000E-01   5.00000000E-01  -3.44966331E-03   5.25747331E-10   4.80295040E-03   4.97615926E-02   2.82219380E-02   6.14930573E-04   2.08559009E-13   2.02229490E-07   9.10032707E-06   5.54277203E-01   6.87580267E-05   1.17450842E-02   4.80264962E-01   4.56935391E-02   1.82006541E-04   4.04458981E-04   1.71895067E-06   3.94347506E-05   9.49336585E-04
   8.22500000E+02   5.00000000E-01   5.00000000E-01  -3.35478697E-03   5.97607624E-10   4.80728320E-03   4.97004531E-02   2.72880696E-02   6.42180194E-04   2.37064728E-13   2.02411924E-07   9.10853659E-06   5.54777224E-01   6.88200543E-05   1.17375098E-02   4.80748800E-01   4.47612985E-02   1.82170732E-04   4.04823849E-04   1.72050136E-06   3.94703252E-05   9.79533066E-04
   8.57500000E+02   5.00000000E-01   5.00000000E-01  -3.25613123E-03   6.78187911E-10   4.81175372E-03   4.96382407E-02   2.63770221E-02   6.69491391E-04   2.69372498E-13   2.02600157E-07   9.11700704E-06   5.55293137E-01   6.88840532E-05   1.17301350E-02   4.81247524E-01   4.38523526E-02   1.82340141E-04   4.05200313E-04   1.72210133E-06   3.95070305E-05   1.01054878E-03
   8.92500000E+02   5.00000000E-01   5.00000000E-01  -3.15395174E-03   7.68362217E-10   4.81636006E-03   4.95750721E-02   2.54889838E-02   6.96866287E-04   3.06019990E-13   2.02794108E-07   9.12573486E-06   5.55824726E-01   6.89499967E-05   1.17229609E-02   4.81760918E-01   4.29668815E-02   1.82514697E-04   4.05588216E-04   1.72374992E-06   3.95448511E-05   1.04246519E-03
   9.27500000E+02   5.00000000E-01   5.00000000E-01  -3.04855325E-03   8.69065200E-10   4.82110054E-03   4.95110930E-02   2.46240470E-02   7.24307017E-04   3.47630226E-13   2.02993707E-07   9.13471681E-06   5.56371793E-01   6.90178603E-05   1.17159890E-02   4.82288778E-01   4.21049703E-02   1.82694336E-04   4.05987414E-04   1.72544651E-06   3.95837728E-05   1.07537120E-03
   9.62500000E+02   5.00000000E-01   5.00000000E-01  -2.94028789E-03   9.81294026E-10   4.82597359E-03   4.94464772E-02   2.37822192E-02   7.51815735E-04   3.94925822E-13   2.03198888E-07   9.14394996E-06   5.56934160E-01   6.90876219E-05   1.17092204E-02   4.82830911E-01   4.12666194E-02   1.82878999E-04   4.06397776E-04   1.72719055E-06   3.96237832E-05   1.10936244E-03
   9.97500000E+02   5.00000000E-01   5.00000000E-01  -2.82955233E-03   1.10611059E-09   4.83097783E-03   4.93814245E-02   2.29634321E-02   7.79394617E-04   4.48745448E-13   2.03409593E-07   9.15343167E-06   5.57511666E-01   6.91592615E-05   1.17026562E-02   4.83387134E-01   4.04517546E-02   1.83068633E-04   4.06819185E-04   1.72898154E-06   3.96648706E-05   1.14454029E-03
   1.03250000E+03   5.00000000E-01   5.00000000E-01  -2.71678357E-03   1.24464429E-09   4.83611199E-03   4.93161590E-02   2.21675512E-02   8.07045861E-04   5.10062806E-13   2.03625768E-07   9.16315956E-06   5.58104167E-01   6.92327612E-05   1.16962970E-02   4.83957276E-01   3.96602354E-02   1.83263191E-04   4.07251536E-04   1.73081903E-06   3.97070248E-05   1.18101070E-03
   1.06750000E+03   5.00000000E-01   5.00000000E-01  -2.60245363E-03   1.39809550E-09   4.84137496E-03   4.92509251E-02   2.13943837E-02   8.34771693E-04   5.80008477E-13   2.03847367E-07   9.17313150E-06   5.58711532E-01   6.93081047E-05   1.16901431E-02   4.84541175E-01   3.88918639E-02   1.83462630E-04   4.07694733E-04   1.73270262E-06   3.97502365E-05   1.21888282E-03
   1.10250000E+03   5.00000000E-01   5.00000000E-01  -2.48706289E-03   1.56774006E-09   4.84676572E-03   4.91859846E-02   2.06436864E-02   8.62574367E-04   6.59894997E-13   2.04074346E-07   9.18334558E-06   5.59333644E-01   6.93852777E-05   1.16841942E-02   4.85138676E-01   3.81463921E-02   1.83666912E-04   4.08148692E-04   1.73463194E-06   3.97944975E-05   1.25826736E-03
   1.13750000E+03   5.00000000E-01   5.00000000E-01  -2.37113244E-03   1.75493485E-09   4.85228339E-03   4.91216118E-02   1.99151724E-02   8.90456164E-04   7.51245581E-13   2.04306669E-07   9.19380010E-06   5.59970402E-01   6.94642674E-05   1.16784495E-02   4.85749637E-01   3.74235287E-02   1.83876002E-04   4.08613338E-04   1.73660669E-06   3.98398004E-05   1.29927494E-03
   1.17250000E+03   5.00000000E-01   5.00000000E-01  -2.25519543E-03   1.96112484E-09   4.85792716E-03   4.90580892E-02   1.92085177E-02   9.18419396E-04   8.55826903E-13   2.04544302E-07   9.20449357E-06   5.60621714E-01   6.95450626E-05   1.16729080E-02   4.86373924E-01   3.67229457E-02   1.84089871E-04   4.09088603E-04   1.73862656E-06   3.98861388E-05   1.34201416E-03
   1.20750000E+03   5.00000000E-01   5.00000000E-01  -2.13978779E-03   2.18785161E-09   4.86369637E-03   4.89957018E-02   1.85233666E-02   9.46466399E-04   9.75686416E-13   2.04787215E-07   9.21542469E-06   5.61287500E-01   6.96276532E-05   1.16675682E-02   4.87011413E-01   3.60442838E-02   1.84308494E-04   4.09574431E-04   1.74069133E-06   3.99335070E-05   1.38658971E-03
   1.24250000E+03   5.00000000E-01   5.00000000E-01  -2.02543849E-03   2.43676378E-09   4.86959040E-03   4.89347321E-02   1.78593371E-02   9.74599537E-04   1.11319467E-12   2.05035385E-07   9.22659233E-06   5.61967691E-01   6.97120309E-05   1.16624284E-02   4.87661988E-01   3.53871577E-02   1.84531847E-04   4.10070770E-04   1.74280077E-06   3.99819001E-05   1.43310041E-03
   1.27750000E+03   5.00000000E-01   5.00000000E-01  -1.91265980E-03   2.70962926E-09   4.87560875E-03   4.88754545E-02   1.72160254E-02   1.00282120E-03   1.27109320E-12   2.05288789E-07   9.23799552E-06   5.62662230E-01   6.97981884E-05   1.16574870E-02   4.88325547E-01   3.47511607E-02   1.84759910E-04   4.10577579E-04   1.74495471E-06   4.00313139E-05   1.48163737E-03
   1.31250000E+03   5.00000000E-01   5.00000000E-01  -1.80193781E-03   3.00834951E-09   4.88175099E-03   4.88181301E-02   1.65930102E-02   1.03113378E-03   1.45254845E-12   2.05547410E-07   9.24963346E-06   5.63371066E-01   6.98861194E-05   1.16527426E-02   4.89001994E-01   3.41358689E-02   1.84992669E-04   4.11094820E-04   1.74715299E-06   4.00817450E-05   1.53228219E-03
   1.34750000E+03   5.00000000E-01   5.00000000E-01  -1.69372363E-03   3.33497587E-09   4.88801678E-03   4.87630018E-02   1.59898566E-02   1.05953972E-03   1.66121254E-12   2.05811233E-07   9.26150548E-06   5.64094160E-01   6.99758192E-05   1.16481938E-02   4.89691247E-01   3.35408449E-02   1.85230110E-04   4.11622466E-04   1.74939548E-06   4.01331904E-05   1.58510546E-03
   1.38250000E+03   5.00000000E-01   5.00000000E-01  -1.58842566E-03   3.69172783E-09   4.89440585E-03   4.87102902E-02   1.54061189E-02   1.08804144E-03   1.90129137E-12   2.06080246E-07   9.27361108E-06   5.64831481E-01   7.00672837E-05   1.16438401E-02   4.90393233E-01   3.29656411E-02   1.85472222E-04   4.12160492E-04   1.75168209E-06   4.01856480E-05   1.64016550E-03
   1.41750000E+03   5.00000000E-01   5.00000000E-01  -1.48640314E-03   4.08101312E-09   4.90091798E-03   4.86601895E-02   1.48413443E-02   1.11664140E-03   2.17762112E-12   2.06354441E-07   9.28594986E-06   5.65583004E-01   7.01605100E-05   1.16396811E-02   4.91107891E-01   3.24098027E-02   1.85718997E-04   4.12708883E-04   1.75401275E-06   4.02391160E-05   1.69750740E-03
   1.45250000E+03   5.00000000E-01   5.00000000E-01  -1.38796133E-03   4.50544957E-09   4.90755305E-03   4.86128654E-02   1.42950750E-02   1.14534205E-03   2.49575395E-12   2.06633813E-07   9.29852156E-06   5.66348713E-01   7.02554963E-05   1.16357175E-02   4.91835171E-01   3.18728704E-02   1.85970431E-04   4.13267625E-04   1.75638741E-06   4.02935934E-05   1.75716253E-03
   1.48750000E+03   5.00000000E-01   5.00000000E-01  -1.29334841E-03   4.96788818E-09   4.91431098E-03   4.85684528E-02   1.37668508E-02   1.17414585E-03   2.86205428E-12   2.06918357E-07   9.31132606E-06   5.67128602E-01   7.03522413E-05   1.16319505E-02   4.92575034E-01   3.13543827E-02   1.86226521E-04   4.13836714E-04   1.75880603E-06   4.03490796E-05   1.81914842E-03
   1.52250000E+03   5.00000000E-01   5.00000000E-01  -1.20275407E-03   5.47143750E-09   4.92119175E-03   4.85270552E-02   1.32562111E-02   1.20305526E-03   3.28380685E-12   2.07208074E-07   9.32436332E-06   5.67922667E-01   7.04507451E-05   1.16283823E-02   4.93327451E-01   3.08538777E-02   1.86487266E-04   4.14416147E-04   1.76126863E-06   4.04055744E-05   1.88346902E-03
   1.55750000E+03   5.00000000E-01   5.00000000E-01  -1.11630991E-03   6.01948869E-09   4.92819542E-03   4.84887448E-02   1.27626967E-02   1.23207273E-03   3.76933852E-12   2.07502965E-07   9.33763343E-06   5.68730915E-01   7.05510081E-05   1.16250157E-02   4.94092405E-01   3.03708954E-02   1.86752669E-04   4.15005930E-04   1.76377520E-06   4.04630782E-05   1.95011543E-03
   1.59250000E+03   5.00000000E-01   5.00000000E-01  -1.03409132E-03   6.61574129E-09   4.93532209E-03   4.84535634E-02   1.22858515E-02   1.26120073E-03   4.32815555E-12   2.07803035E-07   9.35113659E-06   5.69553357E-01   7.06530320E-05   1.16218544E-02   4.94869890E-01   2.99049787E-02   1.87022732E-04   4.15606070E-04   1.76632580E-06   4.05215919E-05   2.01906686E-03
   1.62750000E+03   5.00000000E-01   5.00000000E-01  -9.56120717E-04   7.26422928E-09   4.94257190E-03   4.84215240E-02   1.18252235E-02   1.29044171E-03   4.97109898E-12   2.08108291E-07   9.36487308E-06   5.70390011E-01   7.07568188E-05   1.16189027E-02   4.95659910E-01   2.94556754E-02   1.87297462E-04   4.16216581E-04   1.76892047E-06   4.05811167E-05   2.09029196E-03
   1.66250000E+03   5.00000000E-01   5.00000000E-01  -8.82371860E-04   7.96934757E-09   4.94994507E-03   4.83926131E-02   1.13803662E-02   1.31979812E-03   5.71052060E-12   2.08418740E-07   9.37884330E-06   5.71240901E-01   7.08623716E-05   1.16161657E-02   4.96462478E-01   2.90225384E-02   1.87576866E-04   4.16837480E-04   1.77155929E-06   4.06416543E-05   2.16375025E-03
   1.69750000E+03   5.00000000E-01   5.00000000E-01  -8.12774862E-04   8.73587858E-09   4.95744186E-03   4.83667934E-02   1.09508398E-02   1.34927241E-03   6.56048269E-12   2.08734394E-07   9.39304773E-06   5.72106056E-01   7.09696940E-05   1.16136490E-02   4.97277618E-01   2.86051278E-02   1.87860955E-04   4.17468788E-04   1.77424235E-06   4.07032068E-05   2.23939375E-03
   1.73250000E+03   5.00000000E-01   5.00000000E-01  -7.47221690E-04   9.56901924E-09   4.96506256E-03   4.83440068E-02   1.05362116E-02   1.37886701E-03   7.53698516E-12   2.09055266E-07   9.40748695E-06   5.72985511E-01   7.10787903E-05   1.16113588E-02   4.98105362E-01   2.82030108E-02   1.88149739E-04   4.18110531E-04   1.77696976E-06   4.07657768E-05   2.31716855E-03
   1.76750000E+03   5.00000000E-01   5.00000000E-01  -6.85571827E-04   1.04744084E-08   4.97280752E-03   4.83241772E-02   1.01360566E-02   1.40858437E-03   8.65822385E-12   2.09381369E-07   9.42216162E-06   5.73879307E-01   7.11896656E-05   1.16093014E-02   4.98945750E-01   2.78157626E-02   1.88443232E-04   4.18762739E-04   1.77974164E-06   4.08293670E-05   2.39701639E-03
   1.80250000E+03   5.00000000E-01   5.00000000E-01  -6.27657846E-04   1.14581547E-08   4.98067715E-03   4.83072137E-02   9.74995854E-03   1.43842693E-03   9.94488459E-12   2.09712722E-07   9.43707249E-06   5.74787489E-01   7.13023255E-05   1.16074837E-02   4.99798833E-01   2.74429672E-02   1.88741450E-04   4.19425444E-04   1.78255814E-06   4.08939808E-05   2.47887612E-03
   1.83750000E+03   5.00000000E-01   5.00000000E-01  -5.73290719E-04   1.25268658E-08   4.98867187E-03   4.82930136E-02   9.37750981E-03   1.46839711E-03   1.14204778E-11   2.10049342E-07   9.45222038E-06   5.75710108E-01   7.14167762E-05   1.16059130E-02   5.00664664E-01   2.70842174E-02   1.89044408E-04   4.20098684E-04   1.78541941E-06   4.09596217E-05   2.56268497E-03
   1.87250000E+03   5.00000000E-01   5.00000000E-01  -5.22264690E-04   1.36876775E-08   4.99679217E-03   4.82814645E-02   9.01831193E-03   1.49849736E-03   1.31117195E-11   2.10391249E-07   9.46760621E-06   5.76647219E-01   7.15330247E-05   1.16045964E-02   5.01543309E-01   2.67391153E-02   1.89352124E-04   4.20782498E-04   1.78832562E-06   4.10262936E-05   2.64837969E-03
   1.90750000E+03   5.00000000E-01   5.00000000E-01  -4.74361635E-04   1.49482856E-08   5.00503857E-03   4.82724475E-02   8.67197569E-03   1.52873011E-03   1.50489642E-11   2.10738466E-07   9.48323097E-06   5.77598882E-01   7.16510784E-05   1.16035415E-02   5.02434835E-01   2.64072724E-02   1.89664619E-04   4.21476932E-04   1.79127696E-06   4.10940009E-05   2.73589746E-03
   1.94250000E+03   5.00000000E-01   5.00000000E-01  -4.29354831E-04   1.63169785E-08   5.01341163E-03   4.82658386E-02   8.33812130E-03   1.55909780E-03   1.72666968E-11   2.11091016E-07   9.49909571E-06   5.78565162E-01   7.17709454E-05   1.16027559E-02   5.03339318E-01   2.60883098E-02   1.89981914E-04   4.22182032E-04   1.79427363E-06   4.11627481E-05   2.82517660E-03
   1.97750000E+03   5.00000000E-01   5.00000000E-01  -3.87012124E-04   1.78026710E-08   5.02191195E-03   4.82615107E-02   8.01637838E-03   1.58960287E-03   1.98040917E-11   2.11448924E-07   9.51520159E-06   5.79546129E-01   7.18926342E-05   1.16022473E-02   5.04256839E-01   2.57818581E-02   1.90304032E-04   4.22897848E-04   1.79731586E-06   4.12325402E-05   2.91615708E-03
   2.01250000E+03   5.00000000E-01   5.00000000E-01  -3.47098507E-04   1.94149414E-08   5.03054018E-03   4.82593351E-02   7.70638598E-03   1.62024777E-03   2.27056458E-11   2.11812218E-07   9.53154981E-06   5.80541856E-01   7.20161541E-05   1.16020236E-02   5.05187484E-01   2.54875575E-02   1.90630996E-04   4.23624436E-04   1.80040385E-06   4.13033825E-05   3.00878083E-03
   2.04750000E+03   5.00000000E-01   5.00000000E-01  -3.09378137E-04   2.11640694E-08   5.03929698E-03   4.82591825E-02   7.40779243E-03   1.65103496E-03   2.60218960E-11   2.12180926E-07   9.54814165E-06   5.81552422E-01   7.21415147E-05   1.16020924E-02   5.06131343E-01   2.52050575E-02   1.90962833E-04   4.24361851E-04   1.80353787E-06   4.13752805E-05   3.10299193E-03
   2.08250000E+03   5.00000000E-01   5.00000000E-01  -2.73615834E-04   2.30610767E-08   5.04818308E-03   4.82609241E-02   7.12025530E-03   1.68196689E-03   2.98102306E-11   2.12555077E-07   9.56497847E-06   5.82577909E-01   7.22687262E-05   1.16024618E-02   5.07088511E-01   2.49340171E-02   1.91299569E-04   4.25110154E-04   1.80671816E-06   4.14482401E-05   3.19873660E-03
   2.11750000E+03   5.00000000E-01   5.00000000E-01  -2.39578111E-04   2.51177701E-08   5.05719923E-03   4.82644321E-02   6.84344119E-03   1.71304605E-03   3.41358052E-11   2.12934704E-07   9.58206170E-06   5.83618404E-01   7.23977995E-05   1.16031396E-02   5.08059088E-01   2.46741045E-02   1.91641234E-04   4.25869409E-04   1.80994499E-06   4.15222674E-05   3.29596309E-03
   2.15250000E+03   5.00000000E-01   5.00000000E-01  -2.07033807E-04   2.73467871E-08   5.06634622E-03   4.82695797E-02   6.57702555E-03   1.74427491E-03   3.90725764E-11   2.13319841E-07   9.59939283E-06   5.84673998E-01   7.25287458E-05   1.16041339E-02   5.09043176E-01   2.44249965E-02   1.91987857E-04   4.26639681E-04   1.81321865E-06   4.15973689E-05   3.39462148E-03
   2.18750000E+03   5.00000000E-01   5.00000000E-01  -1.75754358E-04   2.97616430E-08   5.07562486E-03   4.82762421E-02   6.32069251E-03   1.77565597E-03   4.47044643E-11   2.13710520E-07   9.61697341E-06   5.85744786E-01   7.26615769E-05   1.16054527E-02   5.10040882E-01   2.41863792E-02   1.92339468E-04   4.27421041E-04   1.81653942E-06   4.16735515E-05   3.49466335E-03
   2.22250000E+03   5.00000000E-01   5.00000000E-01  -1.45513779E-04   3.23767823E-08   5.08503602E-03   4.82842959E-02   6.07413464E-03   1.80719175E-03   5.11266598E-11   2.14106780E-07   9.63480509E-06   5.86830866E-01   7.27963051E-05   1.16071042E-02   5.11052317E-01   2.39579469E-02   1.92696102E-04   4.28213559E-04   1.81990763E-06   4.17508220E-05   3.59604147E-03
   2.25750000E+03   5.00000000E-01   5.00000000E-01  -1.16088390E-04   3.52076314E-08   5.09458059E-03   4.82936193E-02   5.83705272E-03   1.83888477E-03   5.84470888E-11   2.14508656E-07   9.65288954E-06   5.87932343E-01   7.29329432E-05   1.16090965E-02   5.12077595E-01   2.37394024E-02   1.93057791E-04   4.29017313E-04   1.82332358E-06   4.18291880E-05   3.69870931E-03
   2.29250000E+03   5.00000000E-01   5.00000000E-01  -8.72563518E-05   3.82706545E-08   5.10425951E-03   4.83040915E-02   5.60915554E-03   1.87073759E-03   6.67880523E-11   2.14916190E-07   9.67122854E-06   5.89049324E-01   7.30715045E-05   1.16114378E-02   5.13116832E-01   2.35304565E-02   1.93424571E-04   4.29832379E-04   1.82678761E-06   4.19086570E-05   3.80262067E-03
   2.32750000E+03   5.00000000E-01   5.00000000E-01  -5.87970239E-05   4.15834125E-08   5.11407373E-03   4.83155932E-02   5.39015963E-03   1.90275277E-03   7.62880551E-11   2.15329420E-07   9.68982390E-06   5.90181919E-01   7.32120028E-05   1.16141365E-02   5.14170151E-01   2.33308279E-02   1.93796478E-04   4.30658840E-04   1.83030007E-06   4.19892369E-05   3.90772914E-03
   2.36250000E+03   5.00000000E-01   5.00000000E-01  -3.04902068E-05   4.51646240E-08   5.12402425E-03   4.83280053E-02   5.17978907E-03   1.93493290E-03   8.71038425E-11   2.15748389E-07   9.70867753E-06   5.91330244E-01   7.33544524E-05   1.16172009E-02   5.15237673E-01   2.31402431E-02   1.94173551E-04   4.31496779E-04   1.83386131E-06   4.20709359E-05   4.01398765E-03
   2.39750000E+03   5.00000000E-01   5.00000000E-01  -2.11528085E-06   4.90342299E-08   5.13411211E-03   4.83412092E-02   4.97777525E-03   1.96728060E-03   9.94126602E-11   2.16173141E-07   9.72779136E-06   5.92494418E-01   7.34988681E-05   1.16206394E-02   5.16319528E-01   2.29584357E-02   1.94555827E-04   4.32346283E-04   1.83747170E-06   4.21537626E-05   4.12134796E-03
   2.43250000E+03   5.00000000E-01   5.00000000E-01   2.65497248E-05   5.32134605E-08   5.14433837E-03   4.83550857E-02   4.78385665E-03   1.99979851E-03   1.13414753E-10   2.16603721E-07   9.74716744E-06   5.93674565E-01   7.36452651E-05   1.16244606E-02   5.17415844E-01   2.27851469E-02   1.94943349E-04   4.33207442E-04   1.84113163E-06   4.22377256E-05   4.22976016E-03
   2.46750000E+03   5.00000000E-01   5.00000000E-01   5.57291108E-05   5.77249050E-08   5.15470414E-03   4.83695151E-02   4.59777868E-03   2.03248929E-03   1.29336120E-10   2.17040174E-07   9.76680784E-06   5.94870810E-01   7.37936592E-05   1.16286731E-02   5.18526756E-01   2.26201246E-02   1.95336157E-04   4.34080348E-04   1.84484148E-06   4.23228340E-05   4.33917218E-03
   2.50250000E+03   5.00000000E-01   5.00000000E-01   8.56505148E-05   6.25925843E-08   5.16521054E-03   4.83843764E-02   4.41929340E-03   2.06535565E-03   1.47431536E-10   2.17482549E-07   9.78671472E-06   5.96083286E-01   7.39440667E-05   1.16332855E-02   5.19652400E-01   2.24631236E-02   1.95734294E-04   4.34965098E-04   1.84860167E-06   4.24090971E-05   4.44952932E-03
   2.53750000E+03   5.00000000E-01   5.00000000E-01   1.16545927E-04   6.78420264E-08   5.17585876E-03   4.83995466E-02   4.24815947E-03   2.09840031E-03   1.67987857E-10   2.17930895E-07   9.80689028E-06   5.97312127E-01   7.40965044E-05   1.16383067E-02   5.20792917E-01   2.23139054E-02   1.96137806E-04   4.35861790E-04   1.85241261E-06   4.24965246E-05   4.56077374E-03
   2.57250000E+03   5.00000000E-01   5.00000000E-01   1.48652700E-04   7.35003445E-08   5.18664999E-03   4.84149005E-02   4.08414184E-03   2.13162603E-03   1.91327605E-10   2.18385263E-07   9.82733682E-06   5.98557472E-01   7.42509893E-05   1.16437455E-02   5.21948450E-01   2.21722379E-02   1.96546736E-04   4.36770525E-04   1.85627473E-06   4.25851262E-05   4.67284408E-03
   2.60750000E+03   5.00000000E-01   5.00000000E-01   1.82214534E-04   7.95963173E-08   5.19758547E-03   4.84303101E-02   3.92701171E-03   2.16503562E-03   2.17812850E-10   2.18845704E-07   9.84805668E-06   5.99819465E-01   7.44075393E-05   1.16496107E-02   5.23119145E-01   2.20378953E-02   1.96961134E-04   4.37691408E-04   1.86018848E-06   4.26749123E-05   4.78567499E-03
   2.64250000E+03   5.00000000E-01   5.00000000E-01   2.17482419E-04   8.61604720E-08   5.20866647E-03   4.84456440E-02   3.77654634E-03   2.19863192E-03   2.47849373E-10   2.19312273E-07   9.86905227E-06   6.01098252E-01   7.45661727E-05   1.16559114E-02   5.24305154E-01   2.19106581E-02   1.97381045E-04   4.38624545E-04   1.86415432E-06   4.27658932E-05   4.89919673E-03
   2.67750000E+03   5.00000000E-01   5.00000000E-01   2.54715531E-04   9.32251698E-08   5.21989431E-03   4.84607669E-02   3.63252891E-03   2.23241780E-03   2.81891104E-10   2.19785024E-07   9.89032607E-06   6.02393983E-01   7.47269081E-05   1.16626567E-02   5.25506630E-01   2.17903127E-02   1.97806521E-04   4.39570047E-04   1.86817270E-06   4.28580796E-05   5.01333487E-03
   2.71250000E+03   5.00000000E-01   5.00000000E-01   2.94182048E-04   1.00824693E-07   5.23127033E-03   4.84755395E-02   3.49474844E-03   2.26639617E-03   3.20444808E-10   2.20264014E-07   9.91188062E-06   6.03706815E-01   7.48897647E-05   1.16698556E-02   5.26723730E-01   2.16766514E-02   1.98237612E-04   4.40528028E-04   1.87224412E-06   4.29514827E-05   5.12800989E-03