 TITLE = "Total Concentrations" 
VARIABLES = "X"          "Y"              "Z"            "H+"             "Al+++"          "CO2(aq)"        "Mg++"           "Ca++"           "Fe++"           "Fe+++"          "Ba++"           "Sr++"           "Cl-"            "F-"             "K+"             "Na+"            "SO4--"          "O2(aq)"         "B(OH)3(aq)"     "HPO4--"         "NO3-"           "H4SiO4(aq)"    
 ZONE I=         100 , J=           1 , K=           1  F=POINT
   1.75000000E+01   5.00000000E-01   5.00000000E-01  -4.60424577E-03   3.78845869E-11   4.75000053E-03   5.09645264E-02   3.49769145E-02   2.64881300E-05   6.62234416E-15   2.00000022E-07   9.00000100E-06   5.48166604E-01   6.80000076E-05   1.19844716E-02   4.74070334E-01   5.25639067E-02   1.80000020E-04   4.00000045E-04   1.70000019E-06   3.90000043E-05   2.72652360E-04
   5.25000000E+01   5.00000000E-01   5.00000000E-01  -4.56686838E-03   3.54925408E-11   4.75014842E-03   5.08906735E-02   4.65364987E-02   5.29506911E-05   6.82303235E-15   2.00006249E-07   9.00028122E-06   5.48183671E-01   6.80021248E-05   1.19671897E-02   4.74137169E-01   6.41110309E-02   1.80005624E-04   4.00012499E-04   1.70005312E-06   3.90012186E-05   3.49078008E-04
   8.75000000E+01   5.00000000E-01   5.00000000E-01  -4.53636396E-03   3.62590770E-11   4.75058151E-03   5.08269866E-02   4.89464366E-02   7.94179021E-05   9.05666583E-15   2.00024485E-07   9.00110182E-06   5.48233652E-01   6.80083248E-05   1.19514563E-02   4.74224014E-01   6.65095627E-02   1.80022036E-04   4.00048970E-04   1.70020812E-06   3.90047745E-05   4.00947630E-04
   1.22500000E+02   5.00000000E-01   5.00000000E-01  -4.50753277E-03   3.91889350E-11   4.75128379E-03   5.07687315E-02   4.86792738E-02   1.05893650E-04   1.18993540E-14   2.00054054E-07   9.00243244E-06   5.48314697E-01   6.80183784E-05   1.19370822E-02   4.74333345E-01   6.62319854E-02   1.80048649E-04   4.00108108E-04   1.70045946E-06   3.90105406E-05   4.40759339E-04
   1.57500000E+02   5.00000000E-01   5.00000000E-01  -4.47852155E-03   4.36525715E-11   4.75224091E-03   5.07139150E-02   4.77561074E-02   1.32381553E-04   1.50637773E-14   2.00094354E-07   9.00424593E-06   5.48425151E-01   6.80320803E-05   1.19237630E-02   4.74465827E-01   6.52993411E-02   1.80084919E-04   4.00188708E-04   1.70080201E-06   3.90183990E-05   4.73965929E-04
   1.92500000E+02   5.00000000E-01   5.00000000E-01  -4.44835664E-03   4.94479949E-11   4.75344002E-03   5.06614178E-02   4.66710909E-02   1.58885001E-04   1.85048545E-14   2.00144843E-07   9.00651793E-06   5.48563533E-01   6.80492466E-05   1.19112680E-02   4.74621368E-01   6.42057335E-02   1.80130359E-04   4.00289686E-04   1.70123117E-06   3.90282444E-05   5.03350066E-04
   2.27500000E+02   5.00000000E-01   5.00000000E-01  -4.41642388E-03   5.65485891E-11   4.75486958E-03   5.06105152E-02   4.55416692E-02   1.85407193E-04   2.22640638E-14   2.00205035E-07   9.00922658E-06   5.48728510E-01   6.80697119E-05   1.18994344E-02   4.74799537E-01   6.30685632E-02   1.80184532E-04   4.00410070E-04   1.70174280E-06   3.90399818E-05   5.30480101E-04
   2.62500000E+02   5.00000000E-01   5.00000000E-01  -4.38228413E-03   6.50150123E-11   4.75651919E-03   5.05606908E-02   4.43975227E-02   2.11951160E-04   2.64130417E-14   2.00274492E-07   9.01235216E-06   5.48918881E-01   6.80933274E-05   1.18881465E-02   4.74999756E-01   6.19174705E-02   1.80247043E-04   4.00548985E-04   1.70233318E-06   3.90535260E-05   5.56295886E-04
   2.97500000E+02   5.00000000E-01   5.00000000E-01  -4.34559239E-03   7.49618295E-11   4.75837947E-03   5.05115481E-02   4.32480973E-02   2.38519787E-04   3.10341598E-14   2.00352820E-07   9.01587689E-06   5.49133563E-01   6.81199587E-05   1.18773206E-02   4.75221396E-01   6.07618646E-02   1.80317538E-04   4.00705639E-04   1.70299897E-06   3.90687999E-05   5.81383326E-04
   3.32500000E+02   5.00000000E-01   5.00000000E-01  -4.30605860E-03   8.65439957E-11   4.76044193E-03   5.04627655E-02   4.20980901E-02   2.65115840E-04   3.62151954E-14   2.00439660E-07   9.01978471E-06   5.49371578E-01   6.81494844E-05   1.18668944E-02   4.75463821E-01   5.96064101E-02   1.80395694E-04   4.00879320E-04   1.70373711E-06   3.90857337E-05   6.06117640E-04
   3.67500000E+02   5.00000000E-01   5.00000000E-01  -4.26342800E-03   9.99514920E-11   4.76269889E-03   5.04140713E-02   4.09509380E-02   2.91741975E-04   4.20489140E-14   2.00534690E-07   9.02406106E-06   5.49632039E-01   6.81817946E-05   1.18568203E-02   4.75726418E-01   5.84545138E-02   1.80481221E-04   4.01069380E-04   1.70454487E-06   3.91042646E-05   6.30743975E-04
   4.02500000E+02   5.00000000E-01   5.00000000E-01  -4.21747130E-03   1.15407709E-10   4.76514339E-03   5.03652296E-02   3.98095894E-02   3.18400754E-04   4.86342332E-14   2.00637617E-07   9.02869275E-06   5.49914144E-01   6.82167896E-05   1.18470612E-02   4.76008601E-01   5.73090970E-02   1.80573855E-04   4.01275233E-04   1.70541974E-06   3.91243352E-05   6.55425318E-04
   4.37500000E+02   5.00000000E-01   5.00000000E-01  -4.16798044E-03   1.33169737E-10   4.76776912E-03   5.03160325E-02   3.86766769E-02   3.45094658E-04   5.60778894E-14   2.00748173E-07   9.03366780E-06   5.50217161E-01   6.82543790E-05   1.18375878E-02   4.76309824E-01   5.61727675E-02   1.80673356E-04   4.01496347E-04   1.70635947E-06   3.91458938E-05   6.80272200E-04
   4.72500000E+02   5.00000000E-01   5.00000000E-01  -4.11476741E-03   1.53529702E-10   4.77057031E-03   5.02662955E-02   3.75545593E-02   3.71826096E-04   6.44963137E-14   2.00866119E-07   9.03897533E-06   5.50540429E-01   6.82944803E-05   1.18283762E-02   4.76629580E-01   5.50478615E-02   1.80779507E-04   4.01732237E-04   1.70736201E-06   3.91688931E-05   7.05361746E-04
   5.07500000E+02   5.00000000E-01   5.00000000E-01  -4.05766513E-03   1.76816722E-10   4.77354176E-03   5.02158555E-02   3.64453390E-02   3.98597416E-04   7.40176837E-14   2.00991232E-07   9.04460543E-06   5.50883344E-01   6.83370188E-05   1.18194073E-02   4.76967395E-01   5.39364610E-02   1.80892109E-04   4.01982464E-04   1.70842547E-06   3.91932902E-05   7.30750279E-04
   5.42500000E+02   5.00000000E-01   5.00000000E-01  -3.99652951E-03   2.03399223E-10   4.77667868E-03   5.01645700E-02   3.53508751E-02   4.25410909E-04   8.47842007E-14   2.01123313E-07   9.05054908E-06   5.51245356E-01   6.83819264E-05   1.18106655E-02   4.77322836E-01   5.28404061E-02   1.81010982E-04   4.02246626E-04   1.70954816E-06   3.92190460E-05   7.56481873E-04
   5.77500000E+02   5.00000000E-01   5.00000000E-01  -3.93124231E-03   2.33687479E-10   4.77997675E-03   5.01123177E-02   3.42727964E-02   4.52268821E-04   9.69546659E-14   2.01262179E-07   9.05679806E-06   5.51625965E-01   6.84291409E-05   1.18021380E-02   4.77695500E-01   5.17613083E-02   1.81135961E-04   4.02524358E-04   1.71072852E-06   3.92461249E-05   7.82594335E-04
   6.12500000E+02   5.00000000E-01   5.00000000E-01  -3.86171447E-03   2.68136239E-10   4.78343201E-03   5.00589990E-02   3.32125152E-02   4.79173361E-04   1.10707443E-13   2.01407664E-07   9.06334486E-06   5.52024714E-01   6.84786056E-05   1.17938149E-02   4.78085013E-01   5.07005643E-02   1.81266897E-04   4.02815327E-04   1.71196514E-06   3.92744944E-05   8.09123463E-04
   6.47500000E+02   5.00000000E-01   5.00000000E-01  -3.78789871E-03   3.07358004E-10   4.78704085E-03   5.00045568E-02   3.21712418E-02   5.06126702E-04   1.26165188E-13   2.01559615E-07   9.07018267E-06   5.52441187E-01   6.85302691E-05   1.17856715E-02   4.78491019E-01   4.96593697E-02   1.81403653E-04   4.03119230E-04   1.71325673E-06   3.93041249E-05   8.36062437E-04
   6.82500000E+02   5.00000000E-01   5.00000000E-01  -3.70975631E-03   3.51490731E-10   4.79079999E-03   4.99488861E-02   3.11499993E-02   5.33130987E-04   1.43849453E-13   2.01717894E-07   9.07730523E-06   5.52875003E-01   6.85840840E-05   1.17777474E-02   4.78913238E-01   4.86387344E-02   1.81546105E-04   4.03435788E-04   1.71460210E-06   3.93349894E-05   8.63587053E-04
   7.17500000E+02   5.00000000E-01   5.00000000E-01  -3.62729405E-03   4.01468115E-10   4.79470640E-03   4.98919694E-02   3.01496372E-02   5.60188353E-04   1.63787868E-13   2.01882375E-07   9.08470687E-06   5.53325818E-01   6.86400075E-05   1.17700248E-02   4.79351353E-01   4.76394957E-02   1.81694137E-04   4.03764750E-04   1.71600019E-06   3.93670631E-05   8.91673885E-04
   7.52500000E+02   5.00000000E-01   5.00000000E-01  -3.54058470E-03   4.57850885E-10   4.79875737E-03   4.98338122E-02   2.91708465E-02   5.87300915E-04   1.86346265E-13   2.02052942E-07   9.09238239E-06   5.53793314E-01   6.86980003E-05   1.17625021E-02   4.79805087E-01   4.66623333E-02   1.81847648E-04   4.04105884E-04   1.71745001E-06   3.94003237E-05   9.20377568E-04
   7.87500000E+02   5.00000000E-01   5.00000000E-01  -3.44973709E-03   5.21336313E-10   4.80295040E-03   4.97744427E-02   2.82141733E-02   6.14470784E-04   2.11878678E-13   2.02229490E-07   9.10032707E-06   5.54277203E-01   6.87580267E-05   1.17551790E-02   4.80274178E-01   4.57077831E-02   1.82006541E-04   4.04458981E-04   1.71895067E-06   3.94347506E-05   9.49755750E-04
   8.22500000E+02   5.00000000E-01   5.00000000E-01  -3.35490762E-03   5.92677867E-10   4.80728320E-03   4.97139184E-02   2.72800321E-02   6.41700067E-04   2.40792702E-13   2.02411924E-07   9.10853659E-06   5.54777224E-01   6.88200543E-05   1.17480557E-02   4.80758383E-01   4.47762501E-02   1.82170732E-04   4.04823849E-04   1.72050136E-06   3.94703252E-05   9.79874191E-04
   8.57500000E+02   5.00000000E-01   5.00000000E-01  -3.25630167E-03   6.72686095E-10   4.81175372E-03   4.96523260E-02   2.63687182E-02   6.68990877E-04   2.73559255E-13   2.02600157E-07   9.11700704E-06   5.55293137E-01   6.88840532E-05   1.17411332E-02   4.81257471E-01   4.38680209E-02   1.82340141E-04   4.05200313E-04   1.72210133E-06   3.95070305E-05   1.01080681E-03
   8.92500000E+02   5.00000000E-01   5.00000000E-01  -3.15417414E-03   7.62230204E-10   4.81636006E-03   4.95897817E-02   2.54804201E-02   6.96345333E-04   3.10723346E-13   2.02794108E-07   9.12573486E-06   5.55824726E-01   6.89499967E-05   1.17344127E-02   4.81771228E-01   4.29832761E-02   1.82514697E-04   4.05588216E-04   1.72374992E-06   3.95448511E-05   1.04263547E-03
   9.27500000E+02   5.00000000E-01   5.00000000E-01  -3.04882890E-03   8.62239713E-10   4.82110054E-03   4.95264307E-02   2.46152306E-02   7.23765569E-04   3.52916559E-13   2.02993707E-07   9.13471681E-06   5.56371793E-01   6.90178603E-05   1.17278956E-02   4.82299449E-01   4.21221009E-02   1.82694336E-04   4.05987414E-04   1.72544651E-06   3.95837728E-05   1.07544943E-03
   9.62500000E+02   5.00000000E-01   5.00000000E-01  -2.94061713E-03   9.73706310E-10   4.82597359E-03   4.94624464E-02   2.37731571E-02   7.51253737E-04   4.00871497E-13   2.03198888E-07   9.14394996E-06   5.56934160E-01   6.90876219E-05   1.17215831E-02   4.82841941E-01   4.12844963E-02   1.82878999E-04   4.06397776E-04   1.72719055E-06   3.96237832E-05   1.10934472E-03
   9.97500000E+02   5.00000000E-01   5.00000000E-01  -2.82993448E-03   1.09768606E-09   4.83097783E-03   4.93980281E-02   2.29541316E-02   7.78812008E-04   4.55438491E-13   2.03409593E-07   9.15343167E-06   5.57511666E-01   6.91592615E-05   1.17154763E-02   4.83398522E-01   4.04703880E-02   1.83068633E-04   4.06819185E-04   1.72898154E-06   3.96648706E-05   1.14442309E-03
   1.03250000E+03   5.00000000E-01   5.00000000E-01  -2.71721692E-03   1.23530213E-09   4.83611199E-03   4.93333992E-02   2.21580199E-02   8.06442581E-04   5.17604862E-13   2.03625768E-07   9.16315956E-06   5.58104167E-01   6.92327612E-05   1.17095757E-02   4.83969021E-01   3.96796361E-02   1.83263191E-04   4.07251536E-04   1.73081903E-06   3.97070248E-05   1.18079090E-03
   1.06750000E+03   5.00000000E-01   5.00000000E-01  -2.60293543E-03   1.38774830E-09   4.84137496E-03   4.92688038E-02   2.13846293E-02   8.34147679E-04   5.88517105E-13   2.03847367E-07   9.17313150E-06   5.58711532E-01   6.93081047E-05   1.17038817E-02   4.84553275E-01   3.89120427E-02   1.83462630E-04   4.07694733E-04   1.73270262E-06   3.97502365E-05   1.21855767E-03
   1.10250000E+03   5.00000000E-01   5.00000000E-01  -2.48758941E-03   1.55629333E-09   4.84676572E-03   4.92045029E-02   2.06337168E-02   8.61929553E-04   6.69506357E-13   2.04074346E-07   9.18334558E-06   5.59333644E-01   6.93852777E-05   1.16983938E-02   4.85151132E-01   3.81673602E-02   1.83666912E-04   4.08148692E-04   1.73463194E-06   3.97944975E-05   1.25783456E-03
   1.13750000E+03   5.00000000E-01   5.00000000E-01  -2.37169903E-03   1.74228655E-09   4.85228339E-03   4.91407705E-02   1.99049957E-02   8.89790484E-04   7.62117579E-13   2.04306669E-07   9.19380010E-06   5.59970402E-01   6.94642674E-05   1.16931113E-02   4.85762447E-01   3.74452976E-02   1.83876002E-04   4.08613338E-04   1.73660669E-06   3.98398004E-05   1.29873259E-03
   1.17250000E+03   5.00000000E-01   5.00000000E-01  -2.25579668E-03   1.94716477E-09   4.85792716E-03   4.90778886E-02   1.91981422E-02   9.17732780E-04   8.68142882E-13   2.04544302E-07   9.20449357E-06   5.60621714E-01   6.95450626E-05   1.16880331E-02   4.86387089E-01   3.67455270E-02   1.84089871E-04   4.09088603E-04   1.73862656E-06   3.98861388E-05   1.34136079E-03
   1.20750000E+03   5.00000000E-01   5.00000000E-01  -2.14041766E-03   2.17246082E-09   4.86369637E-03   4.90161418E-02   1.85128008E-02   9.45758778E-04   9.89659471E-13   2.04787215E-07   9.21542469E-06   5.61287500E-01   6.96276532E-05   1.16831577E-02   4.87024932E-01   3.60676895E-02   1.84308494E-04   4.09574431E-04   1.74069133E-06   3.99335070E-05   1.38582430E-03
   1.24250000E+03   5.00000000E-01   5.00000000E-01  -2.02609049E-03   2.41981379E-09   4.86959040E-03   4.89558125E-02   1.78485895E-02   9.73870839E-04   1.12907270E-12   2.05035385E-07   9.22659233E-06   5.61967691E-01   6.97120309E-05   1.16784833E-02   4.87675862E-01   3.54114001E-02   1.84531847E-04   4.10070770E-04   1.74280077E-06   3.99819001E-05   1.43222239E-03
   1.27750000E+03   5.00000000E-01   5.00000000E-01  -1.91332719E-03   2.69098121E-09   4.87560875E-03   4.88971748E-02   1.72051049E-02   1.00207135E-03   1.28916479E-12   2.05288789E-07   9.23799552E-06   5.62662230E-01   6.97981884E-05   1.16740082E-02   4.88339776E-01   3.47762521E-02   1.84759910E-04   4.10577579E-04   1.74495471E-06   4.00313139E-05   1.48064658E-03
   1.31250000E+03   5.00000000E-01   5.00000000E-01  -1.80261381E-03   2.98785318E-09   4.88175099E-03   4.88404900E-02   1.65819259E-02   1.03036271E-03   1.47314977E-12   2.05547410E-07   9.24963346E-06   5.63371066E-01   6.98861194E-05   1.16697308E-02   4.89016579E-01   3.41618221E-02   1.84992669E-04   4.11094820E-04   1.74715299E-06   4.00817450E-05   1.53117889E-03
   1.34750000E+03   5.00000000E-01   5.00000000E-01  -1.69440160E-03   3.31246856E-09   4.88801678E-03   4.87860010E-02   1.59786174E-02   1.05874734E-03   1.68473531E-12   2.05811233E-07   9.26150548E-06   5.64094160E-01   6.99758192E-05   1.16656498E-02   4.89706189E-01   3.35676726E-02   1.85230110E-04   4.11622466E-04   1.74939548E-06   4.01331904E-05   1.58389032E-03
   1.38250000E+03   5.00000000E-01   5.00000000E-01  -1.58909927E-03   3.66703313E-09   4.89440585E-03   4.87339285E-02   1.53947342E-02   1.08722769E-03   1.92819216E-12   2.06080246E-07   9.27361108E-06   5.64831481E-01   7.00672837E-05   1.16617645E-02   4.90408534E-01   3.29933565E-02   1.85472222E-04   4.12160492E-04   1.75168209E-06   4.01856480E-05   1.63883951E-03
   1.41750000E+03   5.00000000E-01   5.00000000E-01  -1.48706657E-03   4.05393955E-09   4.90091798E-03   4.86844672E-02   1.48298234E-02   1.11580620E-03   2.20843201E-12   2.06354441E-07   9.28594986E-06   5.65583004E-01   7.01605100E-05   1.16580744E-02   4.91123551E-01   3.24384191E-02   1.85718997E-04   4.12708883E-04   1.75401275E-06   4.02391160E-05   1.69607186E-03
   1.45250000E+03   5.00000000E-01   5.00000000E-01  -1.38860935E-03   4.47578903E-09   4.90755305E-03   4.86377829E-02   1.42834274E-02   1.14448531E-03   2.53109497E-12   2.06633813E-07   9.29852156E-06   5.66348713E-01   7.02554963E-05   1.16545801E-02   4.91851192E-01   3.19024013E-02   1.85970431E-04   4.13267625E-04   1.75638741E-06   4.02935934E-05   1.75561899E-03
   1.48750000E+03   5.00000000E-01   5.00000000E-01  -1.29397647E-03   4.93541443E-09   4.91431098E-03   4.85940111E-02   1.37550862E-02   1.17326749E-03   2.90264754E-12   2.06918357E-07   9.31132606E-06   5.67128602E-01   7.03522413E-05   1.16512828E-02   4.92591417E-01   3.13848417E-02   1.86226521E-04   4.13836714E-04   1.75880603E-06   4.03490796E-05   1.81749857E-03
   1.52250000E+03   5.00000000E-01   5.00000000E-01  -1.20335836E-03   5.43590440E-09   4.92119175E-03   4.85532558E-02   1.32443392E-02   1.20215520E-03   3.33049292E-12   2.07208074E-07   9.32436332E-06   5.67922667E-01   7.04507451E-05   1.16481843E-02   4.93344198E-01   3.08852786E-02   1.86487266E-04   4.14416147E-04   1.76126863E-06   4.04055744E-05   1.88171466E-03
   1.55750000E+03   5.00000000E-01   5.00000000E-01  -1.11688737E-03   5.98062846E-09   4.92819542E-03   4.85155897E-02   1.27507272E-02   1.23115089E-03   3.82309502E-12   2.07502965E-07   9.33763343E-06   5.68730915E-01   7.05510081E-05   1.16452875E-02   4.94109517E-01   3.04032522E-02   1.86752669E-04   4.15005930E-04   1.76377520E-06   4.04630782E-05   1.94825834E-03
   1.59250000E+03   5.00000000E-01   5.00000000E-01  -1.03463962E-03   6.57326263E-09   4.93532209E-03   4.84810549E-02   1.22737943E-02   1.26025702E-03   4.39011857E-12   2.07803035E-07   9.35113659E-06   5.69553357E-01   7.06530320E-05   1.16425960E-02   4.94887369E-01   2.99383055E-02   1.87022732E-04   4.15606070E-04   1.76632580E-06   4.05215919E-05   2.01710875E-03
   1.62750000E+03   5.00000000E-01   5.00000000E-01  -9.56638215E-04   7.21781553E-09   4.94257190E-03   4.84496649E-02   1.18130884E-02   1.28947604E-03   5.04258738E-12   2.08108291E-07   9.36487308E-06   5.70390011E-01   7.07568188E-05   1.16401140E-02   4.95677758E-01   2.94899863E-02   1.87297462E-04   4.16216581E-04   1.76892047E-06   4.05811167E-05   2.08823433E-03
   1.66250000E+03   5.00000000E-01   5.00000000E-01  -8.82857518E-04   7.91865469E-09   4.94994507E-03   4.84214069E-02   1.13681632E-02   1.31881041E-03   5.79306379E-12   2.08418740E-07   9.37884330E-06   5.71240901E-01   7.08623716E-05   1.16378464E-02   4.96480696E-01   2.90578479E-02   1.87576866E-04   4.16837480E-04   1.77155929E-06   4.06416543E-05   2.16159438E-03
   1.69750000E+03   5.00000000E-01   5.00000000E-01  -8.13228175E-04   8.68053318E-09   4.95744186E-03   4.83962438E-02   1.09385787E-02   1.34826255E-03   6.65585235E-12   2.08734394E-07   9.39304773E-06   5.72106056E-01   7.09696940E-05   1.16357988E-02   4.97296207E-01   2.86414501E-02   1.87860955E-04   4.17468788E-04   1.77424235E-06   4.07032068E-05   2.23714055E-03
   1.73250000E+03   5.00000000E-01   5.00000000E-01  -7.47642595E-04   9.50861653E-09   4.96506256E-03   4.83741179E-02   1.05239022E-02   1.37783493E-03   7.64723130E-12   2.09055266E-07   9.40748695E-06   5.72985511E-01   7.10787903E-05   1.16339771E-02   4.98124324E-01   2.82403603E-02   1.88149739E-04   4.18110531E-04   1.77696976E-06   4.07657768E-05   2.31481853E-03
   1.76750000E+03   5.00000000E-01   5.00000000E-01  -6.85960605E-04   1.04085100E-08   4.97280752E-03   4.83549534E-02   1.01237088E-02   1.40752996E-03   8.78571598E-12   2.09381369E-07   9.42216162E-06   5.73879307E-01   7.11896656E-05   1.16323878E-02   4.98965087E-01   2.78541539E-02   1.88443232E-04   4.18762739E-04   1.77974164E-06   4.08293670E-05   2.39456958E-03
   1.80250000E+03   5.00000000E-01   5.00000000E-01  -6.28015034E-04   1.13862867E-08   4.98067715E-03   4.83386599E-02   9.73758214E-03   1.43735010E-03   1.00923587E-11   2.09712722E-07   9.43707249E-06   5.74787489E-01   7.13023255E-05   1.16310377E-02   4.99818545E-01   2.74824146E-02   1.88741450E-04   4.19425444E-04   1.78255814E-06   4.08939808E-05   2.47633201E-03
   1.83750000E+03   5.00000000E-01   5.00000000E-01  -5.73617019E-04   1.24485159E-08   4.98867187E-03   4.83251346E-02   9.36511445E-03   1.46729776E-03   1.15910898E-11   2.10049342E-07   9.45222038E-06   5.75710108E-01   7.14167762E-05   1.16299338E-02   5.00684754E-01   2.71247354E-02   1.89044408E-04   4.20098684E-04   1.78541941E-06   4.09596217E-05   2.56004247E-03
   1.87250000E+03   5.00000000E-01   5.00000000E-01  -5.22560894E-04   1.36022935E-08   4.99679217E-03   4.83142657E-02   9.00590715E-03   1.49737539E-03   1.33091063E-11   2.10391249E-07   9.46760621E-06   5.76647219E-01   7.15330247E-05   1.16290833E-02   5.01563776E-01   2.67807183E-02   1.89352124E-04   4.20782498E-04   1.78832562E-06   4.10262936E-05   2.64563712E-03
   1.90750000E+03   5.00000000E-01   5.00000000E-01  -4.74628546E-04   1.48552722E-08   5.00503857E-03   4.83059342E-02   8.65957094E-03   1.52758541E-03   1.52773133E-11   2.10738466E-07   9.48323097E-06   5.77598882E-01   7.16510784E-05   1.16284937E-02   5.02455680E-01   2.64499748E-02   1.89664619E-04   4.21476932E-04   1.79127696E-06   4.10940009E-05   2.73305248E-03
   1.94250000E+03   5.00000000E-01   5.00000000E-01  -4.29593202E-04   1.62156948E-08   5.01341163E-03   4.83000163E-02   8.32572584E-03   1.55793027E-03   1.75308263E-11   2.11091016E-07   9.49909571E-06   5.78565162E-01   7.17709454E-05   1.16281725E-02   5.03360543E-01   2.61321259E-02   1.89981914E-04   4.22182032E-04   1.79427363E-06   4.11627481E-05   2.82222623E-03
   1.97750000E+03   5.00000000E-01   5.00000000E-01  -3.87222601E-04   1.76924283E-08   5.02191195E-03   4.82963851E-02   8.00400133E-03   1.58841240E-03   2.01095406E-11   2.11448924E-07   9.51520159E-06   5.79546129E-01   7.18926342E-05   1.16281274E-02   5.04278444E-01   2.58268021E-02   1.90304032E-04   4.22897848E-04   1.79731586E-06   4.12325402E-05   2.91309765E-03
   2.01250000E+03   5.00000000E-01   5.00000000E-01  -3.47281581E-04   1.92949997E-08   5.03054018E-03   4.82949119E-02   7.69403621E-03   1.61903425E-03   2.30587777E-11   2.11812218E-07   9.53154981E-06   5.80541856E-01   7.20161541E-05   1.16283660E-02   5.05209470E-01   2.55336434E-02   1.90630996E-04   4.23624436E-04   1.80040385E-06   4.13033825E-05   3.00560801E-03
   2.04750000E+03   5.00000000E-01   5.00000000E-01  -3.09534102E-04   2.10336346E-08   5.03929698E-03   4.82954675E-02   7.39547864E-03   1.64979827E-03   2.64300176E-11   2.12180926E-07   9.54814165E-06   5.81552422E-01   7.21415147E-05   1.16288962E-02   5.06153710E-01   2.52522993E-02   1.90962833E-04   4.24361851E-04   1.80353787E-06   4.13752805E-05   3.09970071E-03
   2.08250000E+03   5.00000000E-01   5.00000000E-01  -2.73744743E-04   2.29192974E-08   5.04818308E-03   4.82979232E-02   7.10798590E-03   1.68070692E-03   3.02817263E-11   2.12555077E-07   9.56497847E-06   5.82577909E-01   7.22687262E-05   1.16297257E-02   5.07111260E-01   2.49824286E-02   1.91299569E-04   4.25110154E-04   1.80671816E-06   4.14482401E-05   3.19532130E-03
   2.11750000E+03   5.00000000E-01   5.00000000E-01  -2.39679751E-04   2.49637342E-08   5.05719923E-03   4.83021511E-02   6.83122433E-03   1.71176268E-03   3.46802914E-11   2.12934704E-07   9.58206170E-06   5.83618404E-01   7.23977995E-05   1.16308625E-02   5.08082219E-01   2.47236991E-02   1.91641234E-04   4.25869409E-04   1.80994499E-06   4.15222674E-05   3.29241736E-03
   2.15250000E+03   5.00000000E-01   5.00000000E-01  -2.07107659E-04   2.71795180E-08   5.06634622E-03   4.83080245E-02   6.56486910E-03   1.74296803E-03   3.97010762E-11   2.13319841E-07   9.59939283E-06   5.84673998E-01   7.25287458E-05   1.16323145E-02   5.09066689E-01   2.44757878E-02   1.91987857E-04   4.26639681E-04   1.81321865E-06   4.15973689E-05   3.39093830E-03
   2.18750000E+03   5.00000000E-01   5.00000000E-01  -1.75799573E-04   2.95800961E-08   5.07562486E-03   4.83154186E-02   6.30860403E-03   1.77432545E-03   4.54296079E-11   2.13710520E-07   9.61697341E-06   5.85744786E-01   7.26615769E-05   1.16340897E-02   5.10064778E-01   2.42383802E-02   1.92339468E-04   4.27421041E-04   1.81653942E-06   4.16735515E-05   3.49083507E-03
   2.22250000E+03   5.00000000E-01   5.00000000E-01  -1.45529144E-04   3.21798406E-08   5.08503602E-03   4.83242100E-02   6.06212134E-03   1.80583747E-03   5.19629109E-11   2.14106780E-07   9.63480509E-06   5.86830866E-01   7.27963051E-05   1.16361961E-02   5.11076595E-01   2.40111705E-02   1.92696102E-04   4.28213559E-04   1.81990763E-06   4.17508220E-05   3.59205976E-03
   2.25750000E+03   5.00000000E-01   5.00000000E-01  -1.16072301E-04   3.49941013E-08   5.09458059E-03   4.83342766E-02   5.82512149E-03   1.83750660E-03   5.94110035E-11   2.14508656E-07   9.65288954E-06   5.87932343E-01   7.29329432E-05   1.16386418E-02   5.12102256E-01   2.37938612E-02   1.93057791E-04   4.29017313E-04   1.82332358E-06   4.18291880E-05   3.69456523E-03
   2.29250000E+03   5.00000000E-01   5.00000000E-01  -8.72067812E-05   3.80392613E-08   5.10425951E-03   4.83454980E-02   5.59731287E-03   1.86933540E-03   6.78985717E-11   2.14916190E-07   9.67122854E-06   5.89049324E-01   7.30715045E-05   1.16414352E-02   5.13141876E-01   2.35861629E-02   1.93424571E-04   4.29832379E-04   1.82678761E-06   4.19086570E-05   3.79830462E-03
   2.32750000E+03   5.00000000E-01   5.00000000E-01  -5.87114862E-05   4.13327952E-08   5.11407373E-03   4.83577544E-02   5.37841164E-03   1.90132644E-03   7.75668384E-11   2.15329420E-07   9.68982390E-06   5.90181919E-01   7.32120028E-05   1.16445842E-02   5.14195577E-01   2.33877941E-02   1.93796478E-04   4.30658840E-04   1.83030007E-06   4.19892369E-05   3.90323091E-03
   2.36250000E+03   5.00000000E-01   5.00000000E-01  -3.03657240E-05   4.48933307E-08   5.12402425E-03   4.83709268E-02   5.16814148E-03   1.93348229E-03   8.85756431E-11   2.15748389E-07   9.70867753E-06   5.91330244E-01   7.33544524E-05   1.16480974E-02   5.15263482E-01   2.31984806E-02   1.94173551E-04   4.31496779E-04   1.83386131E-06   4.20709359E-05   4.00929638E-03
   2.39750000E+03   5.00000000E-01   5.00000000E-01  -1.94834279E-06   4.87407119E-08   5.13411211E-03   4.83848963E-02   4.96623335E-03   1.96580558E-03   1.01105751E-10   2.16173141E-07   9.72779136E-06   5.92494418E-01   7.34988681E-05   1.16519831E-02   5.16345718E-01   2.30179562E-02   1.94555827E-04   4.32346283E-04   1.83747170E-06   4.21537626E-05   4.11645218E-03
   2.43250000E+03   5.00000000E-01   5.00000000E-01   2.67632020E-05   5.28960662E-08   5.14433837E-03   4.83995438E-02   4.77242531E-03   1.99829893E-03   1.15361408E-10   2.16603721E-07   9.74716744E-06   5.93674565E-01   7.36452651E-05   1.16562498E-02   5.17442417E-01   2.28459613E-02   1.94943349E-04   4.33207442E-04   1.84113163E-06   4.22377256E-05   4.22464777E-03
   2.46750000E+03   5.00000000E-01   5.00000000E-01   5.59938311E-05   5.73818742E-08   5.15470414E-03   4.84147494E-02   4.58646232E-03   2.03096502E-03   1.31573153E-10   2.17040174E-07   9.76680784E-06   5.94870810E-01   7.37936592E-05   1.16609060E-02   5.18553710E-01   2.26822436E-02   1.95336157E-04   4.34080348E-04   1.84484148E-06   4.23228340E-05   4.33383042E-03
   2.50250000E+03   5.00000000E-01   5.00000000E-01   8.59718516E-05   6.22220413E-08   5.16521054E-03   4.84303916E-02   4.40809602E-03   2.06380655E-03   1.50000911E-10   2.17482549E-07   9.78671472E-06   5.96083286E-01   7.39440667E-05   1.16659604E-02   5.19679736E-01   2.25265577E-02   1.95734294E-04   4.34965098E-04   1.84860167E-06   4.24090971E-05   4.44394479E-03
   2.53750000E+03   5.00000000E-01   5.00000000E-01   1.16929977E-04   6.74419729E-08   5.17585876E-03   4.84463474E-02   4.23708457E-03   2.09682623E-03   1.70937368E-10   2.17930895E-07   9.80689028E-06   5.97312127E-01   7.40965044E-05   1.16714218E-02   5.20820633E-01   2.23786646E-02   1.96137806E-04   4.35861790E-04   1.85241261E-06   4.24965246E-05   4.55493240E-03
   2.57250000E+03   5.00000000E-01   5.00000000E-01   1.49106341E-04   7.30686522E-08   5.18664999E-03   4.84624914E-02   4.07319249E-03   2.13002684E-03   1.94711640E-10   2.18385263E-07   9.82733682E-06   5.98557472E-01   7.42509893E-05   1.16772989E-02   5.21976547E-01   2.22383319E-02   1.96546736E-04   4.36770525E-04   1.85627473E-06   4.25851262E-05   4.66673120E-03
   2.60750000E+03   5.00000000E-01   5.00000000E-01   1.82745486E-04   7.91307196E-08   5.19758547E-03   4.84786952E-02   3.91619049E-03   2.16341117E-03   2.21693242E-10   2.18845704E-07   9.84805668E-06   5.99819465E-01   7.44075393E-05   1.16836006E-02   5.23147623E-01   2.21053334E-02   1.96961134E-04   4.37691408E-04   1.86018848E-06   4.26749123E-05   4.77927515E-03
   2.64250000E+03   5.00000000E-01   5.00000000E-01   2.18099312E-04   8.56585559E-08   5.20866647E-03   4.84948269E-02   3.76585537E-03   2.19698205E-03   2.52296344E-10   2.19312273E-07   9.86905227E-06   6.01098252E-01   7.45661727E-05   1.16903359E-02   5.24334012E-01   2.19794491E-02   1.97381045E-04   4.38624545E-04   1.86415432E-06   4.27658932E-05   4.89249382E-03
   2.67750000E+03   5.00000000E-01   5.00000000E-01   2.55427973E-04   9.26843662E-08   5.21989431E-03   4.85107512E-02   3.62196983E-03   2.23074237E-03   2.86984312E-10   2.19785024E-07   9.89032607E-06   6.02393983E-01   7.47269081E-05   1.16975139E-02   5.25535867E-01   2.18604653E-02   1.97806521E-04   4.39570047E-04   1.86817270E-06   4.28580796E-05   5.00631202E-03
   2.71250000E+03   5.00000000E-01   5.00000000E-01   2.95000696E-04   1.00242267E-07   5.23127033E-03   4.85263281E-02   3.48432241E-03   2.26469503E-03   3.26274506E-10   2.20264014E-07   9.91188062E-06   6.03706815E-01   7.48897647E-05   1.17051437E-02   5.26753347E-01   2.17481738E-02   1.98237612E-04   4.40528028E-04   1.87224412E-06   4.29514827E-05   5.12064950E-03