 TITLE = "Total Concentrations" 
VARIABLES = "X"          "Y"              "Z"            "H+"             "Al+++"          "CO2(aq)"        "Mg++"           "Ca++"           "Fe++"           "Fe+++"          "Ba++"           "Sr++"           "Cl-"            "F-"             "K+"             "HS-"            "Na+"            "SO4--"          "O2(aq)"         "B(OH)3(aq)"     "HPO4--"         "NO3-"           "H4SiO4(aq)"    
 ZONE I=         200 , J=           1 , K=           1  F=POINT
   8.75000000E+00   5.00000000E-01   5.00000000E-01  -4.70133240E-03   5.11743158E-13   4.74997155E-03   5.08088270E-02   1.05989332E-02   5.29878875E-05   1.04593447E-22   1.99998802E-07   8.99994609E-06   5.48163260E-01   6.79995927E-05   1.19962187E-02   1.00959907E-10   4.74038541E-01   2.79998323E-02   1.79996985E-08   3.99997604E-04   1.69998982E-06   3.89997664E-05   4.28720957E-04
   2.62500000E+01   5.00000000E-01   5.00000000E-01  -4.60565426E-03   3.00111957E-12   4.74999810E-03   5.04947687E-02   1.07984546E-02   1.05972247E-04   6.21009302E-22   1.99999920E-07   8.99999641E-06   5.48166324E-01   6.79999729E-05   1.19878947E-02   1.01922417E-10   4.74077670E-01   2.79999888E-02   1.79996052E-08   3.99999840E-04   1.69999932E-06   3.89999844E-05   6.31607654E-04
   4.37500000E+01   5.00000000E-01   5.00000000E-01  -4.55113518E-03   5.38280448E-12   4.75018787E-03   5.02072400E-02   1.09990083E-02   1.58945112E-04   1.33597789E-21   2.00007910E-07   9.00035596E-06   5.48188224E-01   6.80026895E-05   1.19802148E-02   1.02890556E-10   4.74122976E-01   2.80011074E-02   1.80001298E-08   4.00015821E-04   1.70006724E-06   3.90015425E-05   8.21086727E-04
   6.12500000E+01   5.00000000E-01   5.00000000E-01  -4.51394076E-03   7.07843311E-12   4.75053372E-03   4.99357509E-02   1.12007002E-02   2.11896734E-04   2.07633981E-21   2.00022473E-07   9.00101126E-06   5.48228136E-01   6.80076407E-05   1.19714466E-02   1.03864594E-10   4.74172238E-01   2.80031462E-02   1.80012454E-08   4.00044945E-04   1.70019102E-06   3.90043821E-05   9.76052312E-04
   7.87500000E+01   5.00000000E-01   5.00000000E-01  -4.48266274E-03   8.67290730E-12   4.75102913E-03   4.96741004E-02   1.14035507E-02   2.64823906E-04   2.87094869E-21   2.00043332E-07   9.00194993E-06   5.48285308E-01   6.80147328E-05   1.19612914E-02   1.04844502E-10   4.74225882E-01   2.80060664E-02   1.80029270E-08   4.00086663E-04   1.70036832E-06   3.90084497E-05   1.09406306E-03
   9.62500000E+01   5.00000000E-01   5.00000000E-01  -4.45457864E-03   1.02580064E-11   4.75166807E-03   4.94193644E-02   1.16075140E-02   3.17721176E-04   3.71706116E-21   2.00070234E-07   9.00316055E-06   5.48359044E-01   6.80238797E-05   1.19503138E-02   1.05830057E-10   4.74285807E-01   2.80098328E-02   1.80051520E-08   4.00140469E-04   1.70059699E-06   3.90136957E-05   1.18398342E-03
   1.13750000E+02   5.00000000E-01   5.00000000E-01  -4.42859951E-03   1.17809770E-11   4.75244499E-03   4.91692899E-02   1.18125082E-02   3.70578851E-04   4.60445194E-21   2.00102947E-07   9.00463261E-06   5.48448703E-01   6.80350020E-05   1.19391987E-02   1.06820936E-10   4.74354223E-01   2.80144126E-02   1.80078994E-08   4.00205894E-04   1.70087505E-06   3.90200747E-05   1.25662930E-03
   1.31250000E+02   5.00000000E-01   5.00000000E-01  -4.40372491E-03   1.32150075E-11   4.75335479E-03   4.89220482E-02   1.20184398E-02   4.23383941E-04   5.53944263E-21   2.00141254E-07   9.00635643E-06   5.48553697E-01   6.80480264E-05   1.19284666E-02   1.07816789E-10   4.74432827E-01   2.80197756E-02   1.80111498E-08   4.00282508E-04   1.70120066E-06   3.90275446E-05   1.32048303E-03
   1.48750000E+02   5.00000000E-01   5.00000000E-01  -4.37911264E-03   1.45616919E-11   4.75439272E-03   4.86763505E-02   1.22252179E-02   4.76121121E-04   6.53934428E-21   2.00184957E-07   9.00832306E-06   5.48673479E-01   6.80628853E-05   1.19184511E-02   1.08817282E-10   4.74522634E-01   2.80258940E-02   1.80148853E-08   4.00369914E-04   1.70157213E-06   3.90360666E-05   1.38109841E-03
   1.66250000E+02   5.00000000E-01   5.00000000E-01  -4.35408544E-03   1.58465533E-11   4.75555443E-03   4.84313635E-02   1.24327619E-02   5.28773610E-04   7.62812254E-21   2.00233871E-07   9.01052419E-06   5.48807544E-01   6.80795161E-05   1.19093356E-02   1.09822123E-10   4.74624087E-01   2.80327419E-02   1.80190895E-08   4.00467742E-04   1.70198790E-06   3.90456048E-05   1.44163309E-03
   1.83750000E+02   5.00000000E-01   5.00000000E-01  -4.32810632E-03   1.71112196E-11   4.75683587E-03   4.81865773E-02   1.26410046E-02   5.81324004E-04   8.83412324E-21   2.00287826E-07   9.01295217E-06   5.48955426E-01   6.80978608E-05   1.19012003E-02   1.10831066E-10   4.74737244E-01   2.80402956E-02   1.80237471E-08   4.00575652E-04   1.70244652E-06   3.90561261E-05   1.50360077E-03
   2.01250000E+02   5.00000000E-01   5.00000000E-01  -4.30087772E-03   1.83791481E-11   4.75823327E-03   4.79417219E-02   1.28498925E-02   6.33754021E-04   1.01809655E-20   2.00346664E-07   9.01559988E-06   5.49116691E-01   6.81178658E-05   1.18940791E-02   1.11843911E-10   4.74861979E-01   2.80485330E-02   1.80288438E-08   4.00693328E-04   1.70294664E-06   3.90675995E-05   1.56778682E-03
   2.18750000E+02   5.00000000E-01   5.00000000E-01  -4.27225154E-03   1.96578310E-11   4.75974317E-03   4.76966523E-02   1.30593847E-02   6.86044015E-04   1.16880994E-20   2.00410239E-07   9.01846074E-06   5.49290938E-01   6.81394811E-05   1.18879829E-02   1.12860503E-10   4.74998101E-01   2.80574334E-02   1.80343665E-08   4.00820477E-04   1.70348703E-06   3.90799965E-05   1.63467328E-03
   2.36250000E+02   5.00000000E-01   5.00000000E-01  -4.24204866E-03   2.09677182E-11   4.76136232E-03   4.74512531E-02   1.32694514E-02   7.38173548E-04   1.33807576E-20   2.00478413E-07   9.02152861E-06   5.49477794E-01   6.81626606E-05   1.18828976E-02   1.13880721E-10   4.75145365E-01   2.80669779E-02   1.80403030E-08   4.00956827E-04   1.70406651E-06   3.90932906E-05   1.70439840E-03
   2.53750000E+02   5.00000000E-01   5.00000000E-01  -4.21020154E-03   2.23120225E-11   4.76308773E-03   4.72054691E-02   1.34800714E-02   7.90120618E-04   1.52796389E-20   2.00551062E-07   9.02479780E-06   5.49676912E-01   6.81873611E-05   1.18788033E-02   1.14904472E-10   4.75303539E-01   2.80771487E-02   1.80466418E-08   4.01102124E-04   1.70468403E-06   3.91074571E-05   1.77710005E-03
   2.71250000E+02   5.00000000E-01   5.00000000E-01  -4.17665613E-03   2.36924096E-11   4.76491659E-03   4.69592556E-02   1.36912308E-02   8.41861449E-04   1.74064597E-20   2.00628067E-07   9.02826302E-06   5.49887970E-01   6.82135428E-05   1.18756730E-02   1.15931690E-10   4.75472405E-01   2.80879294E-02   1.80533724E-08   4.01256134E-04   1.70533857E-06   3.91224731E-05   1.85289125E-03
   2.88750000E+02   5.00000000E-01   5.00000000E-01  -4.14134811E-03   2.51135451E-11   4.76684632E-03   4.67125680E-02   1.39029203E-02   8.93370526E-04   1.97860529E-20   2.00709319E-07   9.03191935E-06   5.50110667E-01   6.82411684E-05   1.18734728E-02   1.16962326E-10   4.75651760E-01   2.80993046E-02   1.80604850E-08   4.01418638E-04   1.70602921E-06   3.91383172E-05   1.93184295E-03
   3.06250000E+02   5.00000000E-01   5.00000000E-01  -4.10420258E-03   2.65835574E-11   4.76887449E-03   4.64653637E-02   1.41151346E-02   9.44620737E-04   2.24471229E-20   2.00794715E-07   9.03576219E-06   5.50344724E-01   6.82702032E-05   1.18721629E-02   1.17996346E-10   4.75841412E-01   2.81112601E-02   1.80679703E-08   4.01589430E-04   1.70675508E-06   3.91549695E-05   2.01398160E-03
   3.23750000E+02   5.00000000E-01   5.00000000E-01  -4.06513919E-03   2.81133365E-11   4.77099883E-03   4.62176041E-02   1.43278703E-02   9.95583573E-04   2.54225369E-20   2.00884161E-07   9.03978726E-06   5.50589882E-01   6.83006149E-05   1.18716999E-02   1.19033728E-10   4.76041177E-01   2.81237826E-02   1.80758199E-08   4.01768323E-04   1.70751537E-06   3.91724115E-05   2.09929546E-03
   3.41250000E+02   5.00000000E-01   5.00000000E-01  -4.02407955E-03   2.97152410E-11   4.77321726E-03   4.59692576E-02   1.45411262E-02   1.04622930E-03   2.87492304E-20   2.00977569E-07   9.04399059E-06   5.50845895E-01   6.83323734E-05   1.18720374E-02   1.20074459E-10   4.76250880E-01   2.81368596E-02   1.80840256E-08   4.01955138E-04   1.70830933E-06   3.91906259E-05   2.18774741E-03
   3.58750000E+02   5.00000000E-01   5.00000000E-01  -3.98096046E-03   3.14004060E-11   4.77552780E-03   4.57203027E-02   1.47549022E-02   1.09652700E-03   3.24670461E-20   2.01074855E-07   9.04836846E-06   5.51112540E-01   6.83654506E-05   1.18731288E-02   1.21118533E-10   4.76470361E-01   2.81504797E-02   1.80925802E-08   4.02149709E-04   1.70913626E-06   3.92095967E-05   2.27930004E-03
   3.76250000E+02   5.00000000E-01   5.00000000E-01  -3.93573546E-03   3.31782861E-11   4.77792862E-03   4.54707279E-02   1.49691992E-02   1.14644452E-03   3.66185350E-20   2.01175942E-07   9.05291739E-06   5.51389603E-01   6.83998203E-05   1.18749275E-02   1.22165949E-10   4.76699472E-01   2.81646319E-02   1.81014765E-08   4.02351884E-04   1.70999551E-06   3.92293087E-05   2.37392783E-03
   3.93750000E+02   5.00000000E-01   5.00000000E-01  -3.88838020E-03   3.50553931E-11   4.78041802E-03   4.52205322E-02   1.51840195E-02   1.19594839E-03   4.12480249E-20   2.01280759E-07   9.05763414E-06   5.51676888E-01   6.84354580E-05   1.18773883E-02   1.23216712E-10   4.76938082E-01   2.81793062E-02   1.81107083E-08   4.02561517E-04   1.71088645E-06   3.92497480E-05   2.47163182E-03
   4.11250000E+02   5.00000000E-01   5.00000000E-01  -3.83889181E-03   3.70352196E-11   4.78299440E-03   4.49697242E-02   1.53993656E-02   1.24500357E-03   4.64012550E-20   2.01389238E-07   9.06251570E-06   5.51974211E-01   6.84723408E-05   1.18804680E-02   1.24270829E-10   4.77186074E-01   2.81944933E-02   1.81202693E-08   4.02778476E-04   1.71180852E-06   3.92709014E-05   2.57244555E-03
   4.28750000E+02   5.00000000E-01   5.00000000E-01  -3.78728610E-03   3.91187030E-11   4.78565626E-03   4.47183208E-02   1.56152413E-02   1.29357329E-03   5.21253480E-20   2.01501316E-07   9.06755924E-06   5.52281400E-01   6.85104476E-05   1.18841257E-02   1.25328311E-10   4.77443349E-01   2.82101843E-02   1.81301540E-08   4.03002633E-04   1.71276119E-06   3.92927567E-05   2.67643465E-03
   4.46250000E+02   5.00000000E-01   5.00000000E-01  -3.73359837E-03   4.13039203E-11   4.78840223E-03   4.44663473E-02   1.58316507E-02   1.34161877E-03   5.84681393E-20   2.01616936E-07   9.07276212E-06   5.52598294E-01   6.85497582E-05   1.18883231E-02   1.26389171E-10   4.77709822E-01   2.82263710E-02   1.81403570E-08   4.03233872E-04   1.71374396E-06   3.93153025E-05   2.78369862E-03
   4.63750000E+02   5.00000000E-01   5.00000000E-01  -3.67788208E-03   4.35862307E-11   4.79123099E-03   4.42138379E-02   1.60485986E-02   1.38909887E-03   6.54777737E-20   2.01736042E-07   9.07812188E-06   5.52924743E-01   6.85902542E-05   1.18930247E-02   1.27453424E-10   4.77985420E-01   2.82430459E-02   1.81508734E-08   4.03472084E-04   1.71475636E-06   3.93385282E-05   2.89436946E-03
   4.81250000E+02   5.00000000E-01   5.00000000E-01  -3.62020679E-03   4.59585853E-11   4.79414134E-03   4.39608346E-02   1.62660903E-02   1.43596982E-03   7.32024148E-20   2.01858583E-07   9.08363623E-06   5.53260608E-01   6.86319182E-05   1.18981981E-02   1.28521087E-10   4.78270085E-01   2.82602016E-02   1.81616987E-08   4.03717166E-04   1.71579795E-06   3.93624237E-05   3.00860846E-03
   4.98750000E+02   5.00000000E-01   5.00000000E-01  -3.56094209E-03   4.83427797E-11   4.79713214E-03   4.37074998E-02   1.64841315E-02   1.48217696E-03   8.16170463E-20   2.01984511E-07   9.08930301E-06   5.53605757E-01   6.86747338E-05   1.19038168E-02   1.29592180E-10   4.78563841E-01   2.82778316E-02   1.81728285E-08   4.03969023E-04   1.71686835E-06   3.93869797E-05   3.12698579E-03
   5.16250000E+02   5.00000000E-01   5.00000000E-01  -3.49995132E-03   5.07764129E-11   4.80020234E-03   4.34537846E-02   1.67027283E-02   1.52766684E-03   9.08156110E-20   2.02113783E-07   9.09512023E-06   5.53960068E-01   6.87186861E-05   1.19098505E-02   1.30666721E-10   4.78866641E-01   2.82959296E-02   1.81842588E-08   4.04227566E-04   1.71796715E-06   3.94121876E-05   3.24956604E-03
   5.33750000E+02   5.00000000E-01   5.00000000E-01  -3.43728940E-03   5.32594246E-11   4.80335095E-03   4.31997369E-02   1.69218872E-02   1.57238285E-03   1.00855376E-19   2.02246356E-07   9.10108600E-06   5.54323428E-01   6.87637609E-05   1.19162738E-02   1.31744733E-10   4.79178443E-01   2.83144898E-02   1.81959859E-08   4.04492711E-04   1.71909402E-06   3.94380394E-05   3.37651878E-03
   5.51250000E+02   5.00000000E-01   5.00000000E-01  -3.37308961E-03   5.57745137E-11   4.80657704E-03   4.29454442E-02   1.71416147E-02   1.61626315E-03   1.11774696E-19   2.02382191E-07   9.10719860E-06   5.54695731E-01   6.88099450E-05   1.19230648E-02   1.32826238E-10   4.79499221E-01   2.83335068E-02   1.82080062E-08   4.04764382E-04   1.72024863E-06   3.94645273E-05   3.50808757E-03
   5.68750000E+02   5.00000000E-01   5.00000000E-01  -3.30749128E-03   5.83033498E-11   4.80987977E-03   4.26910010E-02   1.73619171E-02   1.65924038E-03   1.23609441E-19   2.02521253E-07   9.11345640E-06   5.55076877E-01   6.88572261E-05   1.19302037E-02   1.33911259E-10   4.79828958E-01   2.83529755E-02   1.82203165E-08   4.05042507E-04   1.72143065E-06   3.94916444E-05   3.64453512E-03
   5.86250000E+02   5.00000000E-01   5.00000000E-01  -3.24062818E-03   6.08298381E-11   4.81325833E-03   4.24365054E-02   1.75828006E-02   1.70124186E-03   1.36396525E-19   2.02663508E-07   9.11985788E-06   5.55466774E-01   6.89055929E-05   1.19376729E-02   1.34999822E-10   4.80167641E-01   2.83728912E-02   1.82329139E-08   4.05327017E-04   1.72263982E-06   3.95193841E-05   3.78612360E-03
   6.03750000E+02   5.00000000E-01   5.00000000E-01  -3.17262754E-03   6.33408988E-11   4.81671197E-03   4.21820601E-02   1.78042709E-02   1.74219003E-03   1.50175057E-19   2.02808925E-07   9.12640163E-06   5.55865337E-01   6.89550346E-05   1.19454566E-02   1.36091951E-10   4.80515257E-01   2.83932495E-02   1.82457953E-08   4.05617850E-04   1.72387586E-06   3.95477404E-05   3.93310362E-03
   6.21250000E+02   5.00000000E-01   5.00000000E-01  -3.10361133E-03   6.58265638E-11   4.82024002E-03   4.19277730E-02   1.80263329E-02   1.78200298E-03   1.64986829E-19   2.02957474E-07   9.13308635E-06   5.56272486E-01   6.90055413E-05   1.19535404E-02   1.37187674E-10   4.80871792E-01   2.84140464E-02   1.82589583E-08   4.05914949E-04   1.72513853E-06   3.95767075E-05   4.08570710E-03
   6.38750000E+02   5.00000000E-01   5.00000000E-01  -3.03369916E-03   6.82794824E-11   4.82384182E-03   4.16737590E-02   1.82489910E-02   1.82059537E-03   1.80875960E-19   2.03109129E-07   9.13991082E-06   5.56688146E-01   6.90571039E-05   1.19619114E-02   1.38287017E-10   4.81237230E-01   2.84352781E-02   1.82724003E-08   4.06218259E-04   1.72642760E-06   3.96062802E-05   4.24414404E-03
   6.56250000E+02   5.00000000E-01   5.00000000E-01  -2.96301246E-03   7.06939019E-11   4.82751678E-03   4.14201413E-02   1.84722486E-02   1.85787936E-03   1.97887469E-19   2.03263865E-07   9.14687390E-06   5.57112250E-01   6.91097139E-05   1.19705579E-02   1.39390010E-10   4.81611549E-01   2.84569410E-02   1.82861192E-08   4.06527729E-04   1.72774285E-06   3.96364536E-05   4.40860287E-03
   6.73750000E+02   5.00000000E-01   5.00000000E-01  -2.89167821E-03   7.30645119E-11   4.83126436E-03   4.11670517E-02   1.86961085E-02   1.89376594E-03   2.16065147E-19   2.03421657E-07   9.15397457E-06   5.57544733E-01   6.91633634E-05   1.19794695E-02   1.40496681E-10   4.81994727E-01   2.84790320E-02   1.83001128E-08   4.06843314E-04   1.72908409E-06   3.96672231E-05   4.57925247E-03
   6.91250000E+02   5.00000000E-01   5.00000000E-01  -2.81983307E-03   7.53849521E-11   4.83508403E-03   4.09146310E-02   1.89205725E-02   1.92816620E-03   2.35448105E-19   2.03582486E-07   9.16121185E-06   5.57985536E-01   6.92180451E-05   1.19886367E-02   1.41607060E-10   4.82386737E-01   2.85015480E-02   1.83143791E-08   4.07164971E-04   1.73045113E-06   3.96985847E-05   4.75624650E-03
   7.08750000E+02   5.00000000E-01   5.00000000E-01  -2.74762428E-03   7.76470527E-11   4.83897534E-03   4.06630273E-02   1.91456412E-02   1.96099304E-03   2.56067942E-19   2.03746330E-07   9.16858485E-06   5.58434607E-01   6.92737522E-05   1.19980511E-02   1.42721177E-10   4.82787553E-01   2.85244862E-02   1.83289165E-08   4.07492660E-04   1.73184381E-06   3.97305344E-05   4.93972561E-03
   7.26250000E+02   5.00000000E-01   5.00000000E-01  -2.67520932E-03   7.98403237E-11   4.84293785E-03   4.04123941E-02   1.93713144E-02   1.99216296E-03   2.77945779E-19   2.03913172E-07   9.17609276E-06   5.58891894E-01   6.93304786E-05   1.20077049E-02   1.43839065E-10   4.83197144E-01   2.85478442E-02   1.83437232E-08   4.07826345E-04   1.73326197E-06   3.97630686E-05   5.12981869E-03
   7.43750000E+02   5.00000000E-01   5.00000000E-01  -2.60275471E-03   8.19516818E-11   4.84697116E-03   4.01628873E-02   1.95975904E-02   2.02159807E-03   3.01089267E-19   2.04082996E-07   9.18373482E-06   5.59357352E-01   6.93882187E-05   1.20175912E-02   1.44960754E-10   4.83615481E-01   2.85716195E-02   1.83587978E-08   4.08165992E-04   1.73470547E-06   3.97961842E-05   5.32664301E-03
   7.61250000E+02   5.00000000E-01   5.00000000E-01  -2.53043382E-03   8.39654510E-11   4.85107491E-03   3.99146625E-02   1.98244657E-02   2.04922825E-03   3.25489750E-19   2.04255786E-07   9.19151036E-06   5.59830940E-01   6.94469672E-05   1.20277038E-02   1.46086278E-10   4.84042535E-01   2.85958100E-02   1.83741388E-08   4.08511572E-04   1.73617418E-06   3.98298782E-05   5.53030300E-03
   7.78750000E+02   5.00000000E-01   5.00000000E-01  -2.45842394E-03   8.58636692E-11   4.85524878E-03   3.96678710E-02   2.00519351E-02   2.07499341E-03   3.51119898E-19   2.04431528E-07   9.19941874E-06   5.60312619E-01   6.95067194E-05   1.20380369E-02   1.47215671E-10   4.84478273E-01   2.86204139E-02   1.83897450E-08   4.08863055E-04   1.73766798E-06   3.98641479E-05   5.74088762E-03
   7.96250000E+02   5.00000000E-01   5.00000000E-01  -2.38690240E-03   8.76267689E-11   4.85949246E-03   3.94226566E-02   2.02799909E-02   2.09884575E-03   3.77932255E-19   2.04610209E-07   9.20745940E-06   5.60802354E-01   6.95674710E-05   1.20485853E-02   1.48348965E-10   4.84922664E-01   2.86454293E-02   1.84056153E-08   4.09220418E-04   1.73918678E-06   3.98989907E-05   5.95846614E-03
   8.13750000E+02   5.00000000E-01   5.00000000E-01  -2.31604201E-03   8.92346405E-11   4.86380569E-03   3.91791518E-02   2.05086229E-02   2.12075212E-03   4.05859156E-19   2.04791819E-07   9.21563183E-06   5.61300116E-01   6.96292183E-05   1.20593443E-02   1.49486197E-10   4.85375673E-01   2.86708546E-02   1.84217487E-08   4.09583637E-04   1.74073046E-06   3.99344046E-05   6.18308223E-03
   8.31250000E+02   5.00000000E-01   5.00000000E-01  -2.24600614E-03   9.06680114E-11   4.86818822E-03   3.89374736E-02   2.07378176E-02   2.14069623E-03   4.34814319E-19   2.04976346E-07   9.22393558E-06   5.61805875E-01   6.96919577E-05   1.20703093E-02   1.50627401E-10   4.85837263E-01   2.86966885E-02   1.84381441E-08   4.09952692E-04   1.74229894E-06   3.99703875E-05   6.41474671E-03
   8.48750000E+02   5.00000000E-01   5.00000000E-01  -2.17694367E-03   9.19100822E-11   4.87263985E-03   3.86977204E-02   2.09675583E-02   2.15868081E-03   4.64696476E-19   2.05163783E-07   9.23237024E-06   5.62319608E-01   6.97556862E-05   1.20814765E-02   1.51772614E-10   4.86307391E-01   2.87229296E-02   1.84548009E-08   4.10327566E-04   1.74389216E-06   4.00069377E-05   6.65342942E-03
   8.66250000E+02   5.00000000E-01   5.00000000E-01  -2.10898376E-03   9.29484080E-11   4.87716037E-03   3.84599679E-02   2.11978246E-02   2.17472950E-03   4.95395622E-19   2.05354121E-07   9.24093544E-06   5.62841293E-01   6.98204011E-05   1.20928420E-02   1.52921873E-10   4.86786008E-01   2.87495770E-02   1.84717182E-08   4.10708242E-04   1.74551003E-06   4.00440536E-05   6.89905031E-03
   8.83750000E+02   5.00000000E-01   5.00000000E-01  -2.04237537E-03   9.37262984E-11   4.88174964E-03   3.82243365E-02   2.14285921E-02   2.18887768E-03   5.26613092E-19   2.05547353E-07   9.24963090E-06   5.63370910E-01   6.98861001E-05   1.21044025E-02   1.54075214E-10   4.87273081E-01   2.87766295E-02   1.84888955E-08   4.11094707E-04   1.74715250E-06   4.00817339E-05   7.15162700E-03
   9.01250000E+02   5.00000000E-01   5.00000000E-01  -1.97703514E-03   9.42982830E-11   4.88640751E-03   3.79907755E-02   2.16598340E-02   2.20119530E-03   5.58433812E-19   2.05743474E-07   9.25845633E-06   5.63908444E-01   6.99527812E-05   1.21161546E-02   1.55232675E-10   4.87768530E-01   2.88040864E-02   1.85063322E-08   4.11486948E-04   1.74881953E-06   4.01199774E-05   7.41083709E-03
   9.18750000E+02   5.00000000E-01   5.00000000E-01  -1.91296897E-03   9.46912001E-11   4.89113386E-03   3.77592585E-02   2.18915207E-02   2.21178063E-03   5.90844149E-19   2.05942478E-07   9.26741152E-06   5.64453882E-01   7.00204426E-05   1.21280950E-02   1.56394295E-10   4.88272263E-01   2.88319469E-02   1.85240279E-08   4.11884956E-04   1.75051106E-06   4.01587832E-05   7.67635025E-03
   9.36250000E+02   5.00000000E-01   5.00000000E-01  -1.85021256E-03   9.49199973E-11   4.89592860E-03   3.75297565E-02   2.21236207E-02   2.22075555E-03   6.23785242E-19   2.06144362E-07   9.27649629E-06   5.65007211E-01   7.00890830E-05   1.21402211E-02   1.57560114E-10   4.88784185E-01   2.88602106E-02   1.85419822E-08   4.12288724E-04   1.75222708E-06   4.01981506E-05   7.94781361E-03
   9.53750000E+02   5.00000000E-01   5.00000000E-01  -1.78876317E-03   9.50114950E-11   4.90079165E-03   3.73022058E-02   2.23561014E-02   2.22826525E-03   6.57252610E-19   2.06349122E-07   9.28571049E-06   5.65568424E-01   7.01587015E-05   1.21525303E-02   1.58730171E-10   4.89304187E-01   2.88888770E-02   1.85601948E-08   4.12698244E-04   1.75396754E-06   4.02380788E-05   8.22480455E-03
   9.71250000E+02   5.00000000E-01   5.00000000E-01  -1.72857494E-03   9.50071344E-11   4.90572296E-03   3.70765052E-02   2.25889301E-02   2.23447819E-03   6.91324009E-19   2.06556756E-07   9.29505404E-06   5.66137515E-01   7.02292972E-05   1.21650202E-02   1.59904506E-10   4.89832150E-01   2.89179457E-02   1.85786655E-08   4.13113513E-04   1.75573243E-06   4.02785675E-05   8.50682582E-03
   9.88750000E+02   5.00000000E-01   5.00000000E-01  -1.66956707E-03   9.49608295E-11   4.91072250E-03   3.68525194E-02   2.28220747E-02   2.23958552E-03   7.26168934E-19   2.06767263E-07   9.30452685E-06   5.66714480E-01   7.03008695E-05   1.21776886E-02   1.61083160E-10   4.90367945E-01   2.89474165E-02   1.85973941E-08   4.13534527E-04   1.75752174E-06   4.03196164E-05   8.79331395E-03
   1.00625000E+03   5.00000000E-01   5.00000000E-01  -1.61163292E-03   9.49364613E-11   4.91579026E-03   3.66300824E-02   2.30555050E-02   2.24379967E-03   7.62055042E-19   2.06980642E-07   9.31412891E-06   5.67299316E-01   7.03734184E-05   1.21905335E-02   1.62266175E-10   4.90911431E-01   2.89772893E-02   1.86163806E-08   4.13961285E-04   1.75933546E-06   4.03612253E-05   9.08365238E-03
   1.02375000E+03   5.00000000E-01   5.00000000E-01  -1.55464807E-03   9.50059285E-11   4.92092623E-03   3.64090013E-02   2.32891938E-02   2.24735233E-03   7.99354754E-19   2.07196894E-07   9.32386022E-06   5.67892025E-01   7.04469439E-05   1.22035531E-02   1.63453592E-10   4.91462464E-01   2.90075641E-02   1.86356251E-08   4.14393788E-04   1.76117360E-06   4.04033943E-05   9.37718687E-03
   1.04125000E+03   5.00000000E-01   5.00000000E-01  -1.49848065E-03   9.52467287E-11   4.92613044E-03   3.61890609E-02   2.35231181E-02   2.25049136E-03   8.38545694E-19   2.07416018E-07   9.33372083E-06   5.68492609E-01   7.05214463E-05   1.22167458E-02   1.64645456E-10   4.92020896E-01   2.90382410E-02   1.86551275E-08   4.14832037E-04   1.76303616E-06   4.04461236E-05   9.67324477E-03
   1.05875000E+03   5.00000000E-01   5.00000000E-01  -1.44299921E-03   9.57408747E-11   4.93140292E-03   3.59700276E-02   2.37572618E-02   2.25347690E-03   8.80214285E-19   2.07638018E-07   9.34371080E-06   5.69101072E-01   7.05969260E-05   1.22301102E-02   1.65841808E-10   4.92586582E-01   2.90693200E-02   1.86748880E-08   4.15276035E-04   1.76492315E-06   4.04894134E-05   9.97115308E-03
   1.07625000E+03   5.00000000E-01   5.00000000E-01  -1.38808428E-03   9.65728324E-11   4.93674373E-03   3.57516565E-02   2.39916179E-02   2.25657614E-03   9.25048691E-19   2.07862894E-07   9.35383023E-06   5.69717420E-01   7.06733840E-05   1.22436453E-02   1.67042693E-10   4.93159378E-01   2.91008015E-02   1.86949069E-08   4.15725788E-04   1.76683460E-06   4.05332643E-05   1.02702594E-02
   1.09375000E+03   5.00000000E-01   5.00000000E-01  -1.33364157E-03   9.78267934E-11   4.94215295E-03   3.55336992E-02   2.42261919E-02   2.26005636E-03   9.73820845E-19   2.08090650E-07   9.36407927E-06   5.70341662E-01   7.07508211E-05   1.22573499E-02   1.68248155E-10   4.93739152E-01   2.91326856E-02   1.87151843E-08   4.16181301E-04   1.76877053E-06   4.05776768E-05   1.05699545E-02
   1.11125000E+03   5.00000000E-01   5.00000000E-01  -1.27961505E-03   9.95834348E-11   4.94763065E-03   3.53159146E-02   2.44610051E-02   2.26417648E-03   1.02735724E-18   2.08321290E-07   9.37445807E-06   5.70973808E-01   7.08292388E-05   1.22712234E-02   1.69458239E-10   4.94325780E-01   2.91649727E-02   1.87357206E-08   4.16642581E-04   1.77073097E-06   4.06226516E-05   1.08696954E-02
   1.12875000E+03   5.00000000E-01   5.00000000E-01  -1.22599680E-03   1.01916683E-10   4.95317694E-03   3.50980794E-02   2.46960966E-02   2.26917748E-03   1.08650194E-18   2.08554819E-07   9.38496683E-06   5.71613869E-01   7.09086383E-05   1.22852652E-02   1.70672991E-10   4.94919155E-01   2.91976630E-02   1.87565161E-08   4.17109637E-04   1.77271596E-06   4.06681896E-05   1.11690254E-02
   1.14625000E+03   5.00000000E-01   5.00000000E-01  -1.17283097E-03   1.04891053E-10   4.95879194E-03   3.48799978E-02   2.49315237E-02   2.27527288E-03   1.15207750E-18   2.08791240E-07   9.39560578E-06   5.72261860E-01   7.09890214E-05   1.22994749E-02   1.71892457E-10   4.95519185E-01   2.92307568E-02   1.87775714E-08   4.17582479E-04   1.77472554E-06   4.07142917E-05   1.14675893E-02
   1.16375000E+03   5.00000000E-01   5.00000000E-01  -1.12021042E-03   1.08560061E-10   4.96447578E-03   3.46615085E-02   2.51673599E-02   2.28264078E-03   1.22485077E-18   2.09030559E-07   9.40637515E-06   5.72917794E-01   7.10703900E-05   1.23138524E-02   1.73116684E-10   4.96125796E-01   2.92642542E-02   1.87988869E-08   4.18061118E-04   1.77675975E-06   4.07609590E-05   1.17651404E-02
   1.18125000E+03   5.00000000E-01   5.00000000E-01  -1.06826607E-03   1.12966101E-10   4.97022860E-03   3.44424883E-02   2.54036911E-02   2.29141859E-03   1.30551004E-18   2.09272783E-07   9.41727523E-06   5.73581690E-01   7.11527462E-05   1.23283976E-02   1.74345719E-10   4.96738938E-01   2.92981552E-02   1.88204630E-08   4.18545566E-04   1.77881866E-06   4.08081927E-05   1.20615391E-02
   1.19875000E+03   5.00000000E-01   5.00000000E-01  -1.01715153E-03   1.18141786E-10   4.97605056E-03   3.42228516E-02   2.56406088E-02   2.30170125E-03   1.39465748E-18   2.09517918E-07   9.42830632E-06   5.74253565E-01   7.12360922E-05   1.23431108E-02   1.75579611E-10   4.97358579E-01   2.93324596E-02   1.88423006E-08   4.19035837E-04   1.78090231E-06   4.08559941E-05   1.23567427E-02
   1.21625000E+03   5.00000000E-01   5.00000000E-01  -9.67026385E-04   1.24112330E-10   4.98194184E-03   3.40025465E-02   2.58782052E-02   2.31354304E-03   1.49281500E-18   2.09765972E-07   9.43946875E-06   5.74933439E-01   7.13204305E-05   1.23579924E-02   1.76818408E-10   4.97984709E-01   2.93671667E-02   1.88644000E-08   4.19531944E-04   1.78301076E-06   4.09043646E-05   1.26507900E-02
   1.23375000E+03   5.00000000E-01   5.00000000E-01  -9.18041659E-04   1.30898227E-10   4.98790262E-03   3.37815497E-02   2.61165662E-02   2.32696209E-03   1.60043854E-18   2.10016952E-07   9.45076286E-06   5.75621334E-01   7.14057638E-05   1.23730427E-02   1.78062158E-10   4.98617335E-01   2.94022753E-02   1.88867622E-08   4.20033905E-04   1.78514410E-06   4.09533057E-05   1.29437828E-02
   1.25125000E+03   5.00000000E-01   5.00000000E-01  -8.70329282E-04   1.38517763E-10   4.99393310E-03   3.35598597E-02   2.63557683E-02   2.34194660E-03   1.71793558E-18   2.10270867E-07   9.46218903E-06   5.76317272E-01   7.14920949E-05   1.23882626E-02   1.79310913E-10   4.99256481E-01   2.94377834E-02   1.89093878E-08   4.20541735E-04   1.78730237E-06   4.10028191E-05   1.32358679E-02
   1.26875000E+03   5.00000000E-01   5.00000000E-01  -8.23995940E-04   1.46989005E-10   5.00003350E-03   3.33374910E-02   2.65958750E-02   2.35846175E-03   1.84568154E-18   2.10527726E-07   9.47374768E-06   5.77021279E-01   7.15794269E-05   1.24036528E-02   1.80564722E-10   4.99902185E-01   2.94736878E-02   1.89322775E-08   4.21055452E-04   1.78948567E-06   4.10529066E-05   1.35272202E-02
   1.28625000E+03   5.00000000E-01   5.00000000E-01  -7.79120471E-04   1.56331450E-10   5.00620403E-03   3.31144681E-02   2.68369360E-02   2.37645639E-03   1.98403525E-18   2.10787538E-07   9.48543921E-06   5.77733380E-01   7.16677629E-05   1.24192140E-02   1.81823637E-10   5.00554495E-01   2.95099836E-02   1.89554324E-08   4.21575076E-04   1.79169407E-06   4.11035699E-05   1.38180292E-02
   1.30375000E+03   5.00000000E-01   5.00000000E-01  -7.35754380E-04   1.66566913E-10   5.01244493E-03   3.28908211E-02   2.70789864E-02   2.39586896E-03   2.13334851E-18   2.11050313E-07   9.49726409E-06   5.78453602E-01   7.17571064E-05   1.24349473E-02   1.83087709E-10   5.01213467E-01   2.95466638E-02   1.89788531E-08   4.22100626E-04   1.79392766E-06   4.11548110E-05   1.41084883E-02