 TITLE = "Total Concentrations" 
VARIABLES = "X"          "Y"              "Z"            "H+"             "Al+++"          "CO2(aq)"        "Mg++"           "Ca++"           "Fe++"           "Fe+++"          "Ba++"           "Sr++"           "Cl-"            "K+"             "Na+"            "SO4--"          "O2(aq)"         "B(OH)3(aq)"     "HPO4--"         "NO3-"           "H4SiO4(aq)"    
 ZONE I=          10 , J=           1 , K=           1  F=POINT
   1.75000000E+02   5.00000000E-01   5.00000000E-01  -4.45311652E-03   9.20194574E-15   4.75000000E-03   4.18601962E-02   3.56071902E-02   1.81337337E-04   5.16967419E-12   2.00000000E-07   9.00000000E-06   5.48153279E-01   1.20000108E-02   4.83594945E-01   4.91288952E-02   1.80000000E-04   4.00000000E-04   1.70000000E-06   3.90000000E-05   2.52921692E-02
   5.25000000E+02   5.00000000E-01   5.00000000E-01  -3.85898320E-03   9.32667438E-14   4.75028113E-03   4.11623295E-02   2.60854374E-02   3.48183626E-04   1.38141504E-11   2.00011837E-07   9.00053267E-06   5.48185722E-01   1.20007205E-02   4.83994454E-01   3.95613068E-02   1.80010653E-04   4.00023674E-04   1.70010062E-06   3.90023082E-05   2.61127255E-02
   8.75000000E+02   5.00000000E-01   5.00000000E-01  -2.76176806E-03   7.42675935E-13   4.75037289E-03   4.00065445E-02   1.85283817E-02   6.42997683E-04   3.37206273E-11   2.00015700E-07   9.00070652E-06   5.48196310E-01   1.20009577E-02   4.84542030E-01   3.19583851E-02   1.80014130E-04   4.00031401E-04   1.70013345E-06   3.90030616E-05   2.72168607E-02
   1.22500000E+03   5.00000000E-01   5.00000000E-01  -1.52357381E-03   4.81192717E-12   4.75045412E-03   3.84817880E-02   1.29464180E-02   1.15678611E-03   7.61127143E-11   2.00019121E-07   9.00086043E-06   5.48205684E-01   1.20011890E-02   4.85221916E-01   2.63199159E-02   1.80017209E-04   4.00038241E-04   1.70016253E-06   3.90037285E-05   2.86151990E-02
   1.57500000E+03   5.00000000E-01   5.00000000E-01  -6.72763730E-04   2.61138480E-11   4.75053155E-03   3.66998672E-02   8.94409737E-03   2.07158273E-03   1.63253284E-10   2.00022381E-07   9.00100715E-06   5.48214621E-01   1.20014501E-02   4.85979837E-01   2.22504860E-02   1.80020143E-04   4.00044762E-04   1.70019024E-06   3.90043643E-05   3.03054135E-02
   1.92500000E+03   5.00000000E-01   5.00000000E-01  -2.30452594E-04   1.17573631E-10   4.75060825E-03   3.43536781E-02   6.12528669E-03   3.64759348E-03   3.33801032E-10   2.00025611E-07   9.00115248E-06   5.48223472E-01   1.20017672E-02   4.86930297E-01   1.93536145E-02   1.80023050E-04   4.00051221E-04   1.70021769E-06   3.90049941E-05   3.25789366E-02
   2.27500000E+03   5.00000000E-01   5.00000000E-01   3.43492057E-05   4.28129127E-10   4.75068622E-03   3.10265002E-02   4.17803307E-03   6.09249670E-03   6.36215777E-10   2.00028893E-07   9.00130020E-06   5.48232469E-01   1.20020914E-02   4.88259298E-01   1.73166542E-02   1.80026004E-04   4.00057787E-04   1.70024559E-06   3.90056342E-05   3.58427199E-02
   2.62500000E+03   5.00000000E-01   5.00000000E-01   3.19763614E-04   1.25981632E-09   4.75076694E-03   2.66113068E-02   2.87007210E-03   9.37266746E-03   1.08314940E-09   2.00032292E-07   9.00145315E-06   5.48241785E-01   1.20024158E-02   4.90048171E-01   1.59063438E-02   1.80029063E-04   4.00064585E-04   1.70027448E-06   3.90062970E-05   4.02503169E-02
   2.97500000E+03   5.00000000E-01   5.00000000E-01   7.77354827E-04   3.09769527E-09   4.75085169E-03   2.14207694E-02   2.02571865E-03   1.31457976E-02   1.55036894E-09   2.00035861E-07   9.00161373E-06   5.48251565E-01   1.20026315E-02   4.92202369E-01   1.49456945E-02   1.80032275E-04   4.00071721E-04   1.70030482E-06   3.90069928E-05   4.55264981E-02
   3.32500000E+03   5.00000000E-01   5.00000000E-01   1.52072769E-03   6.68781419E-09   4.75094183E-03   1.60441191E-02   1.50845048E-03   1.68861869E-02   1.73945769E-09   2.00039656E-07   9.00178451E-06   5.48261967E-01   1.20026175E-02   4.94477697E-01   1.42963225E-02   1.80035690E-04   4.00079312E-04   1.70033707E-06   3.90077329E-05   5.10325298E-02
