 TITLE = "Total Concentrations" 
VARIABLES = "X"          "Y"              "Z"            "H+"             "Al+++"          "CO2(aq)"        "Mg++"           "Ca++"           "Fe++"           "Fe+++"          "Cl-"            "K+"             "Na+"            "SO4--"          "O2(aq)"         "B(OH)3(aq)"     "HPO4--"         "NO3-"           "H4SiO4(aq)"    
 ZONE I=          35 , J=           1 , K=           1  F=POINT
   5.00000000E+01   5.00000000E-01   5.00000000E-01  -7.35591436E-03   2.36616678E-20   4.75006030E-03   5.08273328E-02   1.04017547E-02   3.45213865E-07   1.00001269E-13   5.45065557E-01   1.20001523E-02   4.74006895E-01   2.80010205E-02   1.80002285E-04   4.00005078E-04   1.70002158E-06   3.90004951E-05   3.36549397E-05
   1.50000000E+02   5.00000000E-01   5.00000000E-01  -7.25685284E-03   1.49002770E-19   4.75013060E-03   5.07784810E-02   1.04019080E-02   3.48715180E-07   1.00002749E-13   5.45073624E-01   1.20003299E-02   4.74013920E-01   2.80014237E-02   1.80004949E-04   4.00010998E-04   1.70004674E-06   3.90010723E-05   9.93293234E-06
   2.50000000E+02   5.00000000E-01   5.00000000E-01  -7.21838229E-03   2.68238228E-18   4.75014927E-03   5.07594274E-02   1.04019303E-02   3.49396296E-07   1.00003143E-13   5.45075767E-01   1.20003771E-02   4.74015785E-01   2.80015132E-02   1.80005657E-04   4.00012570E-04   1.70005342E-06   3.90012256E-05   1.29222814E-06
   3.50000000E+02   5.00000000E-01   5.00000000E-01  -7.21099661E-03   1.23373677E-16   4.75016626E-03   5.07558993E-02   1.04019453E-02   3.50138778E-07   1.00003500E-13   5.45077716E-01   1.20004200E-02   4.74017483E-01   2.80015890E-02   1.80006301E-04   4.00014001E-04   1.70005950E-06   3.90013651E-05   8.56317960E-08
   4.50000000E+02   5.00000000E-01   5.00000000E-01  -7.20926463E-03   1.09706266E-15   4.75018228E-03   5.07551878E-02   1.04019541E-02   3.50960187E-07   1.00003837E-13   5.45079554E-01   1.20004605E-02   4.74019083E-01   2.80016546E-02   1.80006907E-04   4.00015350E-04   1.70006524E-06   3.90014966E-05   1.70797649E-08
   5.50000000E+02   5.00000000E-01   5.00000000E-01  -7.20839487E-03   3.40054562E-15   4.75019752E-03   5.07548994E-02   1.04019564E-02   3.51857218E-07   1.00004158E-13   5.45081303E-01   1.20004990E-02   4.74020607E-01   2.80017107E-02   1.80007485E-04   4.00016633E-04   1.70007069E-06   3.90016218E-05   7.00581139E-09
   6.50000000E+02   5.00000000E-01   5.00000000E-01  -7.20789348E-03   9.63102316E-15   4.75021215E-03   5.07547887E-02   1.04019517E-02   3.52827244E-07   1.00004466E-13   5.45082981E-01   1.20005360E-02   4.74022069E-01   2.80017573E-02   1.80008039E-04   4.00017865E-04   1.70007593E-06   3.90017418E-05   3.11687558E-09
   7.50000000E+02   5.00000000E-01   5.00000000E-01  -7.20759110E-03   2.60775180E-14   4.75022628E-03   5.07547722E-02   1.04019394E-02   3.53868305E-07   1.00004764E-13   5.45084603E-01   1.20005717E-02   4.74023482E-01   2.80017942E-02   1.80008575E-04   4.00019055E-04   1.70008098E-06   3.90018579E-05   1.46107035E-09
   8.50000000E+02   5.00000000E-01   5.00000000E-01  -7.20739917E-03   6.75751949E-14   4.75024002E-03   5.07548067E-02   1.04019187E-02   3.54978987E-07   1.00005053E-13   5.45086180E-01   1.20006064E-02   4.74024856E-01   2.80018211E-02   1.80009096E-04   4.00020212E-04   1.70008590E-06   3.90019707E-05   7.21367016E-10
   9.50000000E+02   5.00000000E-01   5.00000000E-01  -7.20726970E-03   1.67773472E-13   4.75025346E-03   5.07548690E-02   1.04018886E-02   3.56158323E-07   1.00005336E-13   5.45087722E-01   1.20006403E-02   4.74026200E-01   2.80018372E-02   1.80009605E-04   4.00021344E-04   1.70009071E-06   3.90020810E-05   3.74743081E-10
   1.05000000E+03   5.00000000E-01   5.00000000E-01  -7.20717604E-03   3.99675808E-13   4.75026665E-03   5.07549464E-02   1.04018478E-02   3.57405727E-07   1.00005614E-13   5.45089236E-01   1.20006736E-02   4.74027520E-01   2.80018416E-02   1.80010105E-04   4.00022455E-04   1.70009543E-06   3.90021893E-05   2.04493536E-10
   1.15000000E+03   5.00000000E-01   5.00000000E-01  -7.20710305E-03   9.15075211E-13   4.75027966E-03   5.07550320E-02   1.04017951E-02   3.58720938E-07   1.00005888E-13   5.45090729E-01   1.20007065E-02   4.74028822E-01   2.80018331E-02   1.80010598E-04   4.00023551E-04   1.70010009E-06   3.90022962E-05   1.16974086E-10
   1.25000000E+03   5.00000000E-01   5.00000000E-01  -7.20704190E-03   2.01710950E-12   4.75029254E-03   5.07551218E-02   1.04017287E-02   3.60103973E-07   1.00006159E-13   5.45092207E-01   1.20007391E-02   4.74030112E-01   2.80018103E-02   1.80011086E-04   4.00024635E-04   1.70010470E-06   3.90024019E-05   6.99752770E-11
   1.35000000E+03   5.00000000E-01   5.00000000E-01  -7.20698731E-03   4.28852882E-12   4.75030533E-03   5.07552137E-02   1.04016468E-02   3.61555098E-07   1.00006428E-13   5.45093674E-01   1.20007714E-02   4.74031392E-01   2.80017715E-02   1.80011570E-04   4.00025712E-04   1.70010928E-06   3.90025069E-05   4.36665818E-11
   1.45000000E+03   5.00000000E-01   5.00000000E-01  -7.20693607E-03   8.81029187E-12   4.75031807E-03   5.07553063E-02   1.04015472E-02   3.63074801E-07   1.00006696E-13   5.45095135E-01   1.20008035E-02   4.74032667E-01   2.80017145E-02   1.80012053E-04   4.00026784E-04   1.70011383E-06   3.90026115E-05   2.83498235E-11
   1.55000000E+03   5.00000000E-01   5.00000000E-01  -7.20688619E-03   1.75220937E-11   4.75033078E-03   5.07553990E-02   1.04014275E-02   3.64663771E-07   1.00006964E-13   5.45096594E-01   1.20008356E-02   4.74033939E-01   2.80016371E-02   1.80012535E-04   4.00027855E-04   1.70011838E-06   3.90027158E-05   1.90959835E-11
   1.65000000E+03   5.00000000E-01   5.00000000E-01  -7.20683638E-03   3.38005055E-11   4.75034349E-03   5.07554914E-02   1.04012849E-02   3.66322885E-07   1.00007231E-13   5.45098053E-01   1.20008678E-02   4.74035213E-01   2.80015366E-02   1.80013017E-04   4.00028926E-04   1.70012293E-06   3.90028203E-05   1.33064404E-11
   1.75000000E+03   5.00000000E-01   5.00000000E-01  -7.20678583E-03   6.33653377E-11   4.75035624E-03   5.07555833E-02   1.04011161E-02   3.68053194E-07   1.00007500E-13   5.45099516E-01   1.20009000E-02   4.74036490E-01   2.80014099E-02   1.80013500E-04   4.00029999E-04   1.70012750E-06   3.90029249E-05   9.56280356E-12
   1.85000000E+03   5.00000000E-01   5.00000000E-01  -7.20673397E-03   1.15677338E-10   4.75036904E-03   5.07556746E-02   1.04009176E-02   3.69855915E-07   1.00007769E-13   5.45100985E-01   1.20009323E-02   4.74037772E-01   2.80012534E-02   1.80013985E-04   4.00031077E-04   1.70013208E-06   3.90030300E-05   7.06511678E-12
   1.95000000E+03   5.00000000E-01   5.00000000E-01  -7.20668044E-03   2.06072127E-10   4.75038192E-03   5.07557655E-02   1.04006854E-02   3.71732427E-07   1.00008040E-13   5.45102462E-01   1.20009648E-02   4.74039062E-01   2.80010633E-02   1.80014473E-04   4.00032162E-04   1.70013669E-06   3.90031357E-05   5.34811514E-12
   2.05000000E+03   5.00000000E-01   5.00000000E-01  -7.20662502E-03   3.59006309E-10   4.75039489E-03   5.07558558E-02   1.04004150E-02   3.73684264E-07   1.00008313E-13   5.45103951E-01   1.20009976E-02   4.74040362E-01   2.80008351E-02   1.80014964E-04   4.00033254E-04   1.70014133E-06   3.90032423E-05   4.13329297E-12
   2.15000000E+03   5.00000000E-01   5.00000000E-01  -7.20656757E-03   6.13005307E-10   4.75040798E-03   5.07559457E-02   1.04001016E-02   3.75713117E-07   1.00008589E-13   5.45105452E-01   1.20010307E-02   4.74041673E-01   2.80005641E-02   1.80015460E-04   4.00034356E-04   1.70014601E-06   3.90033497E-05   3.24943104E-12
   2.25000000E+03   5.00000000E-01   5.00000000E-01  -7.20650803E-03   1.02825456E-09   4.75042119E-03   5.07560352E-02   1.03997399E-02   3.77820830E-07   1.00008867E-13   5.45106969E-01   1.20010641E-02   4.74042998E-01   2.80002451E-02   1.80015961E-04   4.00035469E-04   1.70015074E-06   3.90034582E-05   2.58868096E-12
   2.35000000E+03   5.00000000E-01   5.00000000E-01  -7.20644646E-03   1.69835983E-09   4.75043456E-03   5.07561243E-02   1.03993244E-02   3.80009402E-07   1.00009149E-13   5.45108503E-01   1.20010978E-02   4.74044338E-01   2.79998725E-02   1.80016467E-04   4.00036594E-04   1.70015553E-06   3.90035679E-05   2.08164767E-12
   2.45000000E+03   5.00000000E-01   5.00000000E-01  -7.20638303E-03   2.76877661E-09   4.75044809E-03   5.07562131E-02   1.03988492E-02   3.82280991E-07   1.00009433E-13   5.45110055E-01   1.20011320E-02   4.74045694E-01   2.79994407E-02   1.80016980E-04   4.00037734E-04   1.70016037E-06   3.90036790E-05   1.68289385E-12
   2.55000000E+03   5.00000000E-01   5.00000000E-01  -7.20631808E-03   4.46603938E-09   4.75046180E-03   5.07563015E-02   1.03983084E-02   3.84637917E-07   1.00009722E-13   5.45111629E-01   1.20011666E-02   4.74047069E-01   2.79989436E-02   1.80017500E-04   4.00038888E-04   1.70016528E-06   3.90037916E-05   1.36229945E-12
   2.65000000E+03   5.00000000E-01   5.00000000E-01  -7.20625222E-03   7.14464796E-09   4.75047571E-03   5.07563894E-02   1.03976962E-02   3.87082665E-07   1.00010015E-13   5.45113224E-01   1.20012018E-02   4.74048463E-01   2.79983756E-02   1.80018027E-04   4.00040059E-04   1.70017025E-06   3.90039058E-05   1.09977714E-12
   2.75000000E+03   5.00000000E-01   5.00000000E-01  -7.20618646E-03   1.13628667E-08   4.75048983E-03   5.07564767E-02   1.03970071E-02   3.89617893E-07   1.00010312E-13   5.45114845E-01   1.20012375E-02   4.74049879E-01   2.79977312E-02   1.80018562E-04   4.00041248E-04   1.70017531E-06   3.90040217E-05   8.81945255E-13
   2.85000000E+03   5.00000000E-01   5.00000000E-01  -7.20612247E-03   1.80042232E-08   4.75050417E-03   5.07565631E-02   1.03962361E-02   3.92246437E-07   1.00010614E-13   5.45116491E-01   1.20012737E-02   4.74051318E-01   2.79970054E-02   1.80019105E-04   4.00042457E-04   1.70018044E-06   3.90041395E-05   6.99976859E-13
   2.95000000E+03   5.00000000E-01   5.00000000E-01  -7.20606293E-03   2.84591659E-08   4.75051876E-03   5.07566478E-02   1.03953792E-02   3.94971323E-07   1.00010921E-13   5.45118165E-01   1.20013106E-02   4.74052782E-01   2.79961944E-02   1.80019658E-04   4.00043685E-04   1.70018566E-06   3.90042593E-05   5.48200105E-13
   3.05000000E+03   5.00000000E-01   5.00000000E-01  -7.20601195E-03   4.48377028E-08   4.75053361E-03   5.07567300E-02   1.03944336E-02   3.97795771E-07   1.00011234E-13   5.45119869E-01   1.20013481E-02   4.74054272E-01   2.79952954E-02   1.80020221E-04   4.00044936E-04   1.70019098E-06   3.90043813E-05   4.23117591E-13
   3.15000000E+03   5.00000000E-01   5.00000000E-01  -7.20597528E-03   7.00689906E-08   4.75054874E-03   5.07568082E-02   1.03933979E-02   4.00723208E-07   1.00011552E-13   5.45121605E-01   1.20013863E-02   4.74055789E-01   2.79943069E-02   1.80020794E-04   4.00046210E-04   1.70019639E-06   3.90045055E-05   3.22381576E-13
   3.25000000E+03   5.00000000E-01   5.00000000E-01  -7.20595990E-03   1.07695457E-07   4.75056416E-03   5.07568809E-02   1.03922724E-02   4.03757280E-07   1.00011877E-13   5.45123375E-01   1.20014253E-02   4.74057336E-01   2.79932295E-02   1.80021379E-04   4.00047508E-04   1.70020191E-06   3.90046321E-05   2.43544298E-13
   3.35000000E+03   5.00000000E-01   5.00000000E-01  -7.20597313E-03   1.61445474E-07   4.75057989E-03   5.07569461E-02   1.03910592E-02   4.06901864E-07   1.00012208E-13   5.45125180E-01   1.20014650E-02   4.74058914E-01   2.79920651E-02   1.80021975E-04   4.00048833E-04   1.70020754E-06   3.90047612E-05   1.83303056E-13
   3.45000000E+03   5.00000000E-01   5.00000000E-01  -7.20556973E-03   2.34970689E-07   4.75029789E-03   5.07538174E-02   1.03891104E-02   4.10144078E-07   1.00006271E-13   5.45092820E-01   1.20007526E-02   4.74030783E-01   2.79890617E-02   1.80011288E-04   4.00025086E-04   1.70010661E-06   3.90024458E-05   1.37862675E-13
