 TITLE = "Total Concentrations" 
VARIABLES = "X"          "Y"              "Z"            "H+"             "Al+++"          "CO2(aq)"        "Mg++"           "Ca++"           "Fe++"           "Fe+++"          "Ba++"           "Sr++"           "Cl-"            "F-"             "K+"             "HS-"            "Na+"            "SO4--"          "O2(aq)"         "B(OH)3(aq)"     "HPO4--"         "NO3-"           "H4SiO4(aq)"    
 ZONE I=         100 , J=           1 , K=           1  F=POINT
   1.75000000E+01   5.00000000E-01   5.00000000E-01  -4.66942925E-03   8.99657367E-12   4.75010909E-03   4.95665895E-02   1.07502101E-02   1.00512381E-03   7.59213366E-13   2.00004593E-07   9.00020669E-06   5.48179132E-01   6.80015617E-05   1.20002756E-02   1.17570071E-10   4.74297727E-01   2.80006431E-02   1.79969087E-08   4.00009186E-04   1.70003904E-06   3.90008957E-05   4.15667542E-04
   5.25000000E+01   5.00000000E-01   5.00000000E-01  -4.67536984E-03   1.36088844E-11   4.75063957E-03   4.81935278E-02   1.11014983E-02   1.92605189E-03   6.04969145E-13   2.00026929E-07   9.00121182E-06   5.48240352E-01   6.80091559E-05   1.20016158E-02   1.35184670E-10   4.74571503E-01   2.80037701E-02   1.79954060E-08   4.00053859E-04   1.70022890E-06   3.90052512E-05   5.08128029E-04
   8.75000000E+01   5.00000000E-01   5.00000000E-01  -4.66673736E-03   1.81452312E-11   4.75176954E-03   4.69453049E-02   1.14543839E-02   2.73502345E-03   5.82910112E-13   2.00074507E-07   9.00335281E-06   5.48370754E-01   6.80253324E-05   1.20044704E-02   1.52853484E-10   4.74876493E-01   2.80104310E-02   1.79961658E-08   4.00149014E-04   1.70063331E-06   3.90145289E-05   5.66023335E-04
   1.22500000E+02   5.00000000E-01   5.00000000E-01  -4.63682138E-03   2.36096798E-11   4.75345252E-03   4.58192957E-02   1.18088835E-02   3.42693319E-03   5.79785766E-13   2.00145369E-07   9.00654161E-06   5.48564976E-01   6.80494255E-05   1.20087222E-02   1.70581572E-10   4.75215620E-01   2.80203517E-02   1.79990107E-08   4.00290738E-04   1.70123564E-06   3.90283470E-05   6.21044969E-04
   1.57500000E+02   5.00000000E-01   5.00000000E-01  -4.58929098E-03   3.03584352E-11   4.75564895E-03   4.48062309E-02   1.21650178E-02   4.01119200E-03   5.83957764E-13   2.00237850E-07   9.01070327E-06   5.48818451E-01   6.80808692E-05   1.20142710E-02   1.88373731E-10   4.75587297E-01   2.80332991E-02   1.80037899E-08   4.00475701E-04   1.70202173E-06   3.90463808E-05   6.77520623E-04
   1.92500000E+02   5.00000000E-01   5.00000000E-01  -4.52813867E-03   3.86347923E-11   4.75832501E-03   4.38911666E-02   1.25228108E-02   4.50304654E-03   5.94131910E-13   2.00350527E-07   9.01577370E-06   5.49127278E-01   6.81191790E-05   1.20210316E-02   2.06234287E-10   4.75990646E-01   2.80490738E-02   1.80103742E-08   4.00701053E-04   1.70297948E-06   3.90683527E-05   7.35569530E-04
   2.27500000E+02   5.00000000E-01   5.00000000E-01  -4.45601867E-03   4.87020955E-11   4.76145164E-03   4.30574023E-02   1.28822890E-02   4.91871214E-03   6.09613397E-13   2.00482174E-07   9.02169785E-06   5.49488102E-01   6.81639393E-05   1.20289305E-02   2.24167091E-10   4.76425615E-01   2.80675045E-02   1.80186527E-08   4.00964349E-04   1.70409848E-06   3.90940240E-05   7.95052034E-04
   2.62500000E+02   5.00000000E-01   5.00000000E-01  -4.37443227E-03   6.08743401E-11   4.76500382E-03   4.22889910E-02   1.32434815E-02   5.27313662E-03   6.29530642E-13   2.00631740E-07   9.02842829E-06   5.49898036E-01   6.82147915E-05   1.20379044E-02   2.42175586E-10   4.76892523E-01   2.80884437E-02   1.80285297E-08   4.01263479E-04   1.70536979E-06   3.91231892E-05   8.56005969E-04
   2.97500000E+02   5.00000000E-01   5.00000000E-01  -4.28411633E-03   7.55262090E-11   4.76895988E-03   4.15718936E-02   1.36064194E-02   5.57915672E-03   6.52963787E-13   2.00798311E-07   9.03592398E-06   5.50354579E-01   6.82714256E-05   1.20478986E-02   2.60262904E-10   4.77391751E-01   2.81117636E-02   1.80399225E-08   4.01596621E-04   1.70678564E-06   3.91556706E-05   9.18586673E-04
   3.32500000E+02   5.00000000E-01   5.00000000E-01  -4.18535158E-03   9.31005027E-11   4.77330104E-03   4.08943239E-02   1.39711356E-02   5.84734992E-03   6.79036816E-13   2.00981096E-07   9.04414934E-06   5.50855564E-01   6.83335728E-05   1.20588658E-02   2.78431956E-10   4.77923590E-01   2.81373536E-02   1.80527592E-08   4.01962193E-04   1.70833932E-06   3.91913138E-05   9.82996147E-04
   3.67500000E+02   5.00000000E-01   5.00000000E-01  -4.07818229E-03   1.14116727E-10   4.77801099E-03   4.02466807E-02   1.43376653E-02   6.08621028E-03   7.06943644E-13   2.01179410E-07   9.05307346E-06   5.51399109E-01   6.84009995E-05   1.20707646E-02   2.96685508E-10   4.78488192E-01   2.81651176E-02   1.80669775E-08   4.02358821E-04   1.71002499E-06   3.92299850E-05   1.04944575E-03
   4.02500000E+02   5.00000000E-01   5.00000000E-01  -3.96257276E-03   1.39181864E-10   4.78307553E-03   3.96213037E-02   1.47060449E-02   6.30245112E-03   7.35945773E-13   2.01392654E-07   9.06266942E-06   5.51983574E-01   6.84735023E-05   1.20835592E-02   3.15026244E-10   4.79085572E-01   2.81949717E-02   1.80825230E-08   4.02785308E-04   1.71183756E-06   3.92715675E-05   1.11813969E-03
   4.37500000E+02   5.00000000E-01   5.00000000E-01  -3.83852105E-03   1.69002939E-10   4.78848227E-03   3.90121770E-02   1.50763130E-02   6.50133093E-03   7.65364878E-13   2.01620306E-07   9.07291377E-06   5.52607531E-01   6.85509041E-05   1.20972184E-02   3.33456807E-10   4.79715623E-01   2.82268430E-02   1.80993481E-08   4.03240612E-04   1.71377260E-06   3.93159597E-05   1.18927024E-03
   4.72500000E+02   5.00000000E-01   5.00000000E-01  -3.70614213E-03   2.04401727E-10   4.79422042E-03   3.84146431E-02   1.54485095E-02   6.68695459E-03   7.94575928E-13   2.01861912E-07   9.08378605E-06   5.53269733E-01   6.86330502E-05   1.21117147E-02   3.51979830E-10   4.80378138E-01   2.82606679E-02   1.81174114E-08   4.03723825E-04   1.71582625E-06   3.93630729E-05   1.26301802E-03
   5.07500000E+02   5.00000000E-01   5.00000000E-01  -3.56572691E-03   2.46331864E-10   4.80028056E-03   3.78251494E-02   1.58226759E-02   6.86253149E-03   8.23003093E-13   2.02117076E-07   9.09526844E-06   5.53969095E-01   6.87198060E-05   1.21270246E-02   3.70597956E-10   4.81072839E-01   2.82963909E-02   1.81366766E-08   4.04234153E-04   1.71799515E-06   3.94128299E-05   1.33955389E-03
   5.42500000E+02   5.00000000E-01   5.00000000E-01  -3.41778074E-03   2.95898415E-10   4.80665451E-03   3.72410358E-02   1.61988551E-02   7.03058698E-03   8.50118999E-13   2.02385453E-07   9.10734539E-06   5.54704671E-01   6.88110541E-05   1.21431272E-02   3.89313849E-10   4.81799393E-01   2.83339637E-02   1.81571122E-08   4.04770906E-04   1.72027635E-06   3.94651634E-05   1.41904131E-03
   5.77500000E+02   5.00000000E-01   5.00000000E-01  -3.26304235E-03   3.54380111E-10   4.81333513E-03   3.66603585E-02   1.65770915E-02   7.19313017E-03   8.75446621E-13   2.02666742E-07   9.12000341E-06   5.55475638E-01   6.89066924E-05   1.21600045E-02   4.08130207E-10   4.82557430E-01   2.83733442E-02   1.81786906E-08   4.05333485E-04   1.72266731E-06   3.95200148E-05   1.50163813E-03
   6.12500000E+02   5.00000000E-01   5.00000000E-01  -3.10248398E-03   4.23254353E-10   4.82031624E-03   3.60817450E-02   1.69574309E-02   7.35178426E-03   8.98562977E-13   2.02960684E-07   9.13323077E-06   5.56281282E-01   6.90066325E-05   1.21776410E-02   4.27049759E-10   4.83346558E-01   2.84144960E-02   1.82013877E-08   4.05921368E-04   1.72516581E-06   3.95773334E-05   1.58749743E-03
   6.47500000E+02   5.00000000E-01   5.00000000E-01  -2.93729328E-03   5.04225053E-10   4.82759249E-03   3.55042731E-02   1.73399202E-02   7.50788564E-03   9.19103653E-13   2.03267052E-07   9.14701735E-06   5.57120987E-01   6.91107978E-05   1.21960231E-02   4.46075272E-10   4.84166376E-01   2.84573876E-02   1.82251827E-08   4.06534105E-04   1.72776994E-06   3.96370752E-05   1.67676711E-03
   6.82500000E+02   5.00000000E-01   5.00000000E-01  -2.76883855E-03   5.99253274E-10   4.83515929E-03   3.49273681E-02   1.77246076E-02   7.66255776E-03   9.36767141E-13   2.03585654E-07   9.16135444E-06   5.57994221E-01   6.92191224E-05   1.22151393E-02   4.65209550E-10   4.85016486E-01   2.85019919E-02   1.82500576E-08   4.07171308E-04   1.73047806E-06   3.96992026E-05   1.76958852E-03
   7.17500000E+02   5.00000000E-01   5.00000000E-01  -2.59861989E-03   7.10590638E-10   4.84301271E-03   3.43507149E-02   1.81115428E-02   7.81676500E-03   9.51318021E-13   2.03916324E-07   9.17623460E-06   5.58900533E-01   6.93315503E-05   1.22349795E-02   4.84455433E-10   4.85896500E-01   2.85482857E-02   1.82759970E-08   4.07832649E-04   1.73328876E-06   3.97636833E-05   1.86609397E-03
   7.52500000E+02   5.00000000E-01   5.00000000E-01  -2.42821014E-03   8.40815402E-10   4.85114943E-03   3.37741808E-02   1.85007764E-02   7.97135104E-03   9.62588167E-13   2.04258923E-07   9.19165155E-06   5.59839539E-01   6.94480339E-05   1.22555354E-02   5.03815797E-10   4.86806054E-01   2.85962496E-02   1.83029876E-08   4.08517847E-04   1.73620085E-06   3.98304900E-05   1.96640377E-03
   7.87500000E+02   5.00000000E-01   5.00000000E-01  -2.25919051E-03   9.92871155E-10   4.85956668E-03   3.31977481E-02   1.88923604E-02   8.12706554E-03   9.70475454E-13   2.04613334E-07   9.20760002E-06   5.60810919E-01   6.95685335E-05   1.22768000E-02   5.23293553E-10   4.87744816E-01   2.86458671E-02   1.83310184E-08   4.09226668E-04   1.73921334E-06   3.98996001E-05   2.07062298E-03
   8.22500000E+02   5.00000000E-01   5.00000000E-01  -2.09308606E-03   1.17010817E-09   4.86826218E-03   3.26214570E-02   1.92863477E-02   8.28458228E-03   9.74939800E-13   2.04979460E-07   9.22407572E-06   5.61814411E-01   6.96930165E-05   1.22987676E-02   5.42891645E-10   4.88712493E-01   2.86971248E-02   1.83600802E-08   4.09958921E-04   1.74232541E-06   3.99709948E-05   2.17883840E-03
   8.57500000E+02   5.00000000E-01   5.00000000E-01  -1.93130648E-03   1.37632752E-09   4.87723412E-03   3.20453570E-02   1.96827927E-02   8.44451129E-03   9.75996765E-13   2.05357226E-07   9.24107517E-06   5.62849803E-01   6.98214568E-05   1.23214336E-02   5.62613050E-10   4.89708839E-01   2.87500120E-02   1.83901654E-08   4.10714452E-04   1.74553642E-06   4.00446591E-05   2.29111623E-03
   8.92500000E+02   5.00000000E-01   5.00000000E-01  -1.77509647E-03   1.61582816E-09   4.88648107E-03   3.14694697E-02   2.00817506E-02   8.60740706E-03   9.73709321E-13   2.05746571E-07   9.25859571E-06   5.63916934E-01   6.99538343E-05   1.23447943E-02   5.82460774E-10   4.90733661E-01   2.88045203E-02   1.84212681E-08   4.11493143E-04   1.74884586E-06   4.01205814E-05   2.40750072E-03
   9.27500000E+02   5.00000000E-01   5.00000000E-01  -1.62549894E-03   1.89345743E-09   4.89600201E-03   3.08937601E-02   2.04832779E-02   8.77377424E-03   9.68178573E-13   2.06147453E-07   9.27663539E-06   5.65015683E-01   7.00901340E-05   1.23688472E-02   6.02437854E-10   4.91786821E-01   2.88606438E-02   1.84533837E-08   4.12294906E-04   1.75225335E-06   4.01987533E-05   2.52801382E-03
   9.62500000E+02   5.00000000E-01   5.00000000E-01  -1.48333268E-03   2.21466523E-09   4.90579626E-03   3.03181189E-02   2.08874322E-02   8.94407195E-03   9.59534340E-13   2.06559843E-07   9.29519291E-06   5.66145974E-01   7.02303465E-05   1.23935906E-02   6.22547356E-10   4.92868238E-01   2.89183783E-02   1.84865090E-08   4.13119685E-04   1.75575866E-06   4.02791693E-05   2.65265602E-03
   9.97500000E+02   5.00000000E-01   5.00000000E-01  -1.34918446E-03   2.58556281E-09   4.91586347E-03   2.97423536E-02   2.12942722E-02   9.11871731E-03   9.47926377E-13   2.06983725E-07   9.31426762E-06   5.67307765E-01   7.03744665E-05   1.24190235E-02   6.42792372E-10   4.93977888E-01   2.89777218E-02   1.85206422E-08   4.13967450E-04   1.75936166E-06   4.03618264E-05   2.78140799E-03
   1.03250000E+03   5.00000000E-01   5.00000000E-01  -1.22341395E-03   3.01298671E-09   4.92620358E-03   2.91661877E-02   2.17038575E-02   9.29808858E-03   9.33516832E-13   2.07419098E-07   9.33385941E-06   5.68501050E-01   7.05224933E-05   1.24451459E-02   6.63176018E-10   4.95115803E-01   2.90386740E-02   1.85557823E-08   4.14838196E-04   1.76306233E-06   4.04467241E-05   2.91423284E-03
   1.06750000E+03   5.00000000E-01   5.00000000E-01  -1.10616931E-03   3.50456853E-09   4.93681683E-03   2.85892660E-02   2.21162490E-02   9.48252784E-03   9.16474440E-13   2.07865972E-07   9.35396873E-06   5.69725856E-01   7.06744304E-05   1.24719583E-02   6.83701437E-10   4.96282063E-01   2.91012363E-02   1.85919297E-08   4.15731944E-04   1.76686076E-06   4.05338645E-05   3.05107865E-03
   1.10250000E+03   5.00000000E-01   5.00000000E-01  -9.97410279E-04   4.06880949E-09   4.94770372E-03   2.80111656E-02   2.25315082E-02   9.67234319E-03   8.96970745E-13   2.08324367E-07   9.37459653E-06   5.70982241E-01   7.08302849E-05   1.24994620E-02   7.04371791E-10   4.97476796E-01   2.91654117E-02   1.86290855E-08   4.16648735E-04   1.77075712E-06   4.06232516E-05   3.19188126E-03
   1.13750000E+03   5.00000000E-01   5.00000000E-01  -8.96935677E-04   4.71515998E-09   4.95886500E-03   2.74314101E-02   2.29496978E-02   9.86781005E-03   8.75178066E-13   2.08794316E-07   9.39574422E-06   5.72270292E-01   7.09900674E-05   1.25276590E-02   7.25190261E-10   4.98700174E-01   2.92312044E-02   1.86672520E-08   4.17588632E-04   1.77475169E-06   4.07148916E-05   3.33656713E-03
   1.17250000E+03   5.00000000E-01   5.00000000E-01  -8.04412658E-04   5.45410508E-09   4.97030166E-03   2.68494851E-02   2.33708813E-02   1.00691717E-02   8.51268692E-13   2.09275859E-07   9.41741367E-06   5.73590122E-01   7.11537922E-05   1.25565516E-02   7.46160048E-10   4.99952399E-01   2.92986203E-02   1.87064323E-08   4.18551719E-04   1.77884481E-06   4.08087926E-05   3.48505572E-03
   1.20750000E+03   5.00000000E-01   5.00000000E-01  -7.19405323E-04   6.29725877E-09   4.98201490E-03   2.62648551E-02   2.37951232E-02   1.02766391E-02   8.25414822E-13   2.09769049E-07   9.43960719E-06   5.74941871E-01   7.13214765E-05   1.25861429E-02   7.67284365E-10   5.01233707E-01   2.93676666E-02   1.87466304E-08   4.19538097E-04   1.78303691E-06   4.09049645E-05   3.63726114E-03
   1.24250000E+03   5.00000000E-01   5.00000000E-01  -6.41401128E-04   7.25747021E-09   4.99400616E-03   2.56769792E-02   2.42224886E-02   1.04903907E-02   7.97788910E-13   2.10273944E-07   9.46232746E-06   5.76325704E-01   7.14931408E-05   1.26164366E-02   7.88566433E-10   5.02544360E-01   2.94383517E-02   1.87878509E-08   4.20547887E-04   1.78732852E-06   4.10034190E-05   3.79309273E-03
   1.27750000E+03   5.00000000E-01   5.00000000E-01  -5.69834174E-04   8.34893392E-09   5.00627706E-03   2.50853266E-02   2.46530432E-02   1.07105704E-02   7.68565088E-13   2.10790613E-07   9.48557759E-06   5.77741808E-01   7.16688084E-05   1.26474368E-02   8.10009483E-10   5.03884635E-01   2.95106850E-02   1.88300995E-08   4.21581226E-04   1.79172021E-06   4.11041695E-05   3.95245558E-03
   1.31250000E+03   5.00000000E-01   5.00000000E-01  -5.04104816E-04   9.58729377E-09   5.01882943E-03   2.44893911E-02   2.50868530E-02   1.09372844E-02   7.37921384E-13   2.11319134E-07   9.50936102E-06   5.79190395E-01   7.18485055E-05   1.26791480E-02   8.31616745E-10   5.05254828E-01   2.95846773E-02   1.88733824E-08   4.22638268E-04   1.79621264E-06   4.12072311E-05   4.11525174E-03
   1.34750000E+03   5.00000000E-01   5.00000000E-01  -4.43595335E-04   1.09897476E-08   5.03166528E-03   2.38887049E-02   2.55239848E-02   1.11705966E-02   7.06041337E-13   2.11859591E-07   9.53368159E-06   5.80671698E-01   7.20322609E-05   1.27115755E-02   8.53391446E-10   5.06655249E-01   2.96603404E-02   1.89177066E-08   4.23719182E-04   1.80080652E-06   4.13126202E-05   4.28138102E-03
   1.38250000E+03   5.00000000E-01   5.00000000E-01  -3.87681998E-04   1.25751385E-08   5.04478682E-03   2.32828512E-02   2.59645059E-02   1.14105225E-02   6.73115494E-13   2.12412077E-07   9.55854345E-06   5.82185969E-01   7.22201061E-05   1.27447246E-02   8.75336802E-10   5.08086214E-01   2.97376870E-02   1.89630799E-08   4.24824153E-04   1.80550265E-06   4.14203550E-05   4.45074149E-03
   1.41750000E+03   5.00000000E-01   5.00000000E-01  -3.35743570E-04   1.43641009E-08   5.05819642E-03   2.26714741E-02   2.64084844E-02   1.16570243E-02   6.39339931E-13   2.12976691E-07   9.58395112E-06   5.83733483E-01   7.24120751E-05   1.27786015E-02   8.97456018E-10   5.09548049E-01   2.98167309E-02   1.90095105E-08   4.25953383E-04   1.81030188E-06   4.15304548E-05   4.62322484E-03
   1.45250000E+03   5.00000000E-01   5.00000000E-01  -2.87166805E-04   1.63793928E-08   5.07189663E-03   2.20542837E-02   2.68559871E-02   1.19100110E-02   6.04910993E-13   2.13553542E-07   9.60990940E-06   5.85314535E-01   7.26082044E-05   1.28132125E-02   9.19752272E-10   5.11041085E-01   2.98974865E-02   1.90570076E-08   4.27107084E-04   1.81520511E-06   4.16429407E-05   4.79869864E-03
   1.48750000E+03   5.00000000E-01   5.00000000E-01  -2.41351860E-04   1.86456608E-08   5.08589015E-03   2.14310714E-02   2.73070795E-02   1.21693235E-02   5.70038794E-13   2.14142743E-07   9.63642345E-06   5.86929436E-01   7.28085327E-05   1.28485646E-02   9.42228717E-10   5.12565664E-01   2.99799689E-02   1.91055807E-08   4.28285487E-04   1.82021332E-06   4.17578349E-05   4.97700898E-03
   1.52250000E+03   5.00000000E-01   5.00000000E-01  -1.97714644E-04   2.11891156E-08   5.10017987E-03   2.08017271E-02   2.77618285E-02   1.24347124E-02   5.34950299E-13   2.14744416E-07   9.66349871E-06   5.88578520E-01   7.30131014E-05   1.28846649E-02   9.64888471E-10   5.14122141E-01   3.00641936E-02   1.91552402E-08   4.29488832E-04   1.82532753E-06   4.18751611E-05   5.15797994E-03
   1.55750000E+03   5.00000000E-01   5.00000000E-01  -1.55686549E-04   2.40377801E-08   5.11476883E-03   2.01662455E-02   2.82202996E-02   1.27058299E-02   4.99876576E-13   2.15358687E-07   9.69114093E-06   5.90262136E-01   7.32219537E-05   1.29215212E-02   9.87734610E-10   5.15710896E-01   3.01501753E-02   1.92059970E-08   4.30717375E-04   1.83054884E-06   4.19949441E-05   5.34137206E-03
   1.59250000E+03   5.00000000E-01   5.00000000E-01  -1.14715710E-04   2.72214092E-08   5.12966020E-03   1.95247353E-02   2.86825533E-02   1.29822173E-02   4.65053137E-13   2.15985693E-07   9.71935617E-06   5.91980652E-01   7.34351355E-05   1.29591416E-02   1.01077016E-09   5.17332343E-01   3.02379276E-02   1.92578626E-08   4.31971385E-04   1.83587839E-06   4.21172101E-05   5.52680771E-03
   1.62750000E+03   5.00000000E-01   5.00000000E-01  -7.42710916E-05   3.07693151E-08   5.14485734E-03   1.88774504E-02   2.91486435E-02   1.32632579E-02   4.30741109E-13   2.16625572E-07   9.74815075E-06   5.93734455E-01   7.36526946E-05   1.29975343E-02   1.03399810E-09   5.18986964E-01   3.03274596E-02   1.93108490E-08   4.33251144E-04   1.84131736E-06   4.22419866E-05   5.71372173E-03
   1.66250000E+03   5.00000000E-01   5.00000000E-01  -3.38444478E-05   3.47082601E-08   5.16036374E-03   1.82248214E-02   2.96186142E-02   1.35481262E-02   3.97221299E-13   2.17278473E-07   9.77753130E-06   5.95523948E-01   7.38746809E-05   1.30367084E-02   1.05742135E-09   5.20675348E-01   3.04187712E-02   1.93649690E-08   4.34556947E-04   1.84686702E-06   4.23693023E-05   5.90127899E-03
   1.69750000E+03   5.00000000E-01   5.00000000E-01   7.04535826E-06   3.90597740E-08   5.17618305E-03   1.75674862E-02   3.00924881E-02   1.38357348E-02   3.64785110E-13   2.17944549E-07   9.80750472E-06   5.97349551E-01   7.41011468E-05   1.30766730E-02   1.08104275E-09   5.22398237E-01   3.05118422E-02   1.94202357E-08   4.35889099E-04   1.85252867E-06   4.24991871E-05   6.08821929E-03
   1.73250000E+03   5.00000000E-01   5.00000000E-01   4.88434019E-05   4.38351351E-08   5.19231905E-03   1.69063346E-02   3.05702426E-02   1.41246616E-02   3.33733220E-13   2.18623960E-07   9.83807820E-06   5.99211702E-01   7.43321464E-05   1.31174376E-02   1.10486510E-09   5.24156597E-01   3.06066087E-02   1.94766632E-08   4.37247920E-04   1.85830366E-06   4.26316722E-05   6.27268950E-03
   1.76750000E+03   5.00000000E-01   5.00000000E-01   9.19516154E-05   4.90304188E-08   5.20877568E-03   1.62425483E-02   3.10517568E-02   1.44130872E-02   3.04351891E-13   2.19316871E-07   9.86925919E-06   6.01110855E-01   7.45677361E-05   1.31590123E-02   1.12889110E-09   5.25951665E-01   3.07029098E-02   1.95342656E-08   4.38633742E-04   1.86419340E-06   4.27667898E-05   6.45222219E-03
   1.80250000E+03   5.00000000E-01   5.00000000E-01   1.36729134E-04   5.46260305E-08   5.22555703E-03   1.55776043E-02   3.15366910E-02   1.46987974E-02   2.76864097E-13   2.20023454E-07   9.90105543E-06   6.03047481E-01   7.48079744E-05   1.32014072E-02   1.15312339E-09   5.27784942E-01   3.08003674E-02   1.95930580E-08   4.40046908E-04   1.87019936E-06   4.29045735E-05   6.62396753E-03
   1.83750000E+03   5.00000000E-01   5.00000000E-01   1.83503755E-04   6.05942356E-08   5.24266732E-03   1.49132153E-02   3.20242039E-02   1.49792898E-02   2.51377079E-13   2.20743887E-07   9.93347493E-06   6.05022068E-01   7.50529217E-05   1.32446332E-02   1.17756456E-09   5.29658080E-01   3.08981028E-02   1.96530560E-08   4.41487775E-04   1.87632304E-06   4.30450580E-05   6.78527547E-03
   1.87250000E+03   5.00000000E-01   5.00000000E-01   2.32588805E-04   6.69144275E-08   5.26011093E-03   1.42512117E-02   3.25122749E-02   1.52519833E-02   2.27861066E-13   2.21478355E-07   9.96652597E-06   6.07035121E-01   7.53026406E-05   1.32887013E-02   1.20221710E-09   5.31572690E-01   3.09940594E-02   1.97142756E-08   4.42956710E-04   1.88256602E-06   4.31882792E-05   6.93445201E-03
   1.90750000E+03   5.00000000E-01   5.00000000E-01   2.84271226E-04   7.35840391E-08   5.27789236E-03   1.35934446E-02   3.29960437E-02   1.55144092E-02   2.06207343E-13   2.22227047E-07   1.00002171E-05   6.09087160E-01   7.55571959E-05   1.33336228E-02   1.22708343E-09   5.33530163E-01   3.10833437E-02   1.97767335E-08   4.44454094E-04   1.88892990E-06   4.33342741E-05   7.07103051E-03
   1.94250000E+03   5.00000000E-01   5.00000000E-01   3.38753789E-04   8.06271690E-08   5.29601629E-03   1.29417199E-02   3.34636831E-02   1.57643645E-02   1.86306575E-13   2.22990159E-07   1.00345572E-05   6.11178724E-01   7.58166542E-05   1.33794096E-02   1.25216593E-09   5.35531557E-01   3.11540980E-02   1.98404468E-08   4.45980319E-04   1.89541636E-06   4.34830811E-05   7.19586467E-03
   1.97750000E+03   5.00000000E-01   5.00000000E-01   3.95985340E-04   8.81069576E-08   5.31448752E-03   1.22977601E-02   3.38860668E-02   1.60000833E-02   1.68138422E-13   2.23767895E-07   1.00695553E-05   6.13310368E-01   7.60810844E-05   1.34260737E-02   1.27746691E-09   5.37577493E-01   3.11771669E-02   1.99054335E-08   4.47535791E-04   1.90202711E-06   4.36347396E-05   7.31134782E-03
   2.01250000E+03   5.00000000E-01   5.00000000E-01   4.55136393E-04   9.61288374E-08   5.33331100E-03   1.16633558E-02   3.41913772E-02   1.62203651E-02   1.51959595E-13   2.24560463E-07   1.01052208E-05   6.15482664E-01   7.63505575E-05   1.34736278E-02   1.30298862E-09   5.39668124E-01   3.10807046E-02   1.99717118E-08   4.49120927E-04   1.90876394E-06   4.37892903E-05   7.42122450E-03
   2.04750000E+03   5.00000000E-01   5.00000000E-01   5.13206181E-04   1.04830369E-07   5.35249186E-03   1.10409818E-02   3.42076927E-02   1.64246276E-02   1.38661677E-13   2.25368078E-07   1.01415635E-05   6.17696202E-01   7.66251466E-05   1.35220847E-02   1.32873328E-09   5.41803186E-01   3.06927617E-02   2.00393007E-08   4.50736157E-04   1.91562867E-06   4.39467753E-05   7.52998135E-03
   2.08250000E+03   5.00000000E-01   5.00000000E-01   5.62074062E-04   1.14367871E-07   5.37203535E-03   1.04350587E-02   3.35649848E-02   1.66130669E-02   1.30385536E-13   2.26190962E-07   1.01785933E-05   6.19951588E-01   7.69049271E-05   1.35714577E-02   1.35470308E-09   5.43982105E-01   2.96432815E-02   2.01082198E-08   4.52381924E-04   1.92262318E-06   4.41072376E-05   7.64239806E-03
   2.11750000E+03   5.00000000E-01   5.00000000E-01   5.85381386E-04   1.24902192E-07   5.39194689E-03   9.85286162E-03   3.16709574E-02   1.67872461E-02   1.31338433E-13   2.27029343E-07   1.02163204E-05   6.22249449E-01   7.71899765E-05   1.36217606E-02   1.38090019E-09   5.46204112E-01   2.73399371E-02   2.01784892E-08   4.54058685E-04   1.92974941E-06   4.42707218E-05   7.76332141E-03
   2.15250000E+03   5.00000000E-01   5.00000000E-01   5.64700527E-04   1.36529693E-07   5.41223206E-03   9.30078265E-03   2.81546562E-02   1.69505921E-02   1.47918152E-13   2.27883455E-07   1.02547555E-05   6.24590429E-01   7.74803747E-05   1.36730073E-02   1.40732677E-09   5.48468555E-01   2.34117390E-02   2.02501296E-08   4.55766910E-04   1.93700937E-06   4.44372737E-05   7.89512054E-03
   2.18750000E+03   5.00000000E-01   5.00000000E-01   5.00999136E-04   1.49188190E-07   5.43289660E-03   8.77492053E-03   2.36522216E-02   1.71068184E-02   1.85861897E-13   2.28753541E-07   1.02939094E-05   6.26975189E-01   7.77762040E-05   1.37252125E-02   1.43398499E-09   5.50775421E-01   1.84947919E-02   2.03231624E-08   4.57507082E-04   1.94440510E-06   4.46069405E-05   8.03289020E-03
   2.22250000E+03   5.00000000E-01   5.00000000E-01   4.19442515E-04   1.62802798E-07   5.45394644E-03   8.26178004E-03   1.94364497E-02   1.72568411E-02   2.43545756E-13   2.29639850E-07   1.03337933E-05   6.29404414E-01   7.80775491E-05   1.37783910E-02   1.46087706E-09   5.53125309E-01   1.38618614E-02   2.03976096E-08   4.59279700E-04   1.95193873E-06   4.47797708E-05   8.16762586E-03
   2.25750000E+03   5.00000000E-01   5.00000000E-01   3.44601146E-04   1.77521490E-07   5.47538766E-03   7.75160112E-03   1.62510623E-02   1.73981625E-02   3.06756122E-13   2.30542638E-07   1.03744187E-05   6.31878806E-01   7.83844971E-05   1.38325583E-02   1.48800522E-09   5.55518801E-01   1.02566442E-02   2.04734939E-08   4.61085277E-04   1.95961243E-06   4.49558145E-05   8.29567774E-03
   2.29250000E+03   5.00000000E-01   5.00000000E-01   2.86930376E-04   1.93647155E-07   5.49722654E-03   7.24349165E-03   1.41427154E-02   1.75266584E-02   3.53622436E-13   2.31462170E-07   1.04157977E-05   6.34399088E-01   7.86971378E-05   1.38877302E-02   1.51537178E-09   5.57956138E-01   7.72577410E-03   2.05508386E-08   4.62924340E-04   1.96742845E-06   4.51351232E-05   8.41970116E-03
   2.32750000E+03   5.00000000E-01   5.00000000E-01   2.46697193E-04   2.11485351E-07   5.51946953E-03   6.74172550E-03   1.28665430E-02   1.76382732E-02   3.69142840E-13   2.32398717E-07   1.04579423E-05   6.36966006E-01   7.90155637E-05   1.39439230E-02   1.54297913E-09   5.60437299E-01   6.02436306E-03   2.06296678E-08   4.64797434E-04   1.97538909E-06   4.53177498E-05   8.54407612E-03
   2.36250000E+03   5.00000000E-01   5.00000000E-01   2.20121855E-04   2.31290773E-07   5.54212328E-03   6.25186512E-03   1.21529205E-02   1.77297368E-02   3.53692472E-13   2.33352559E-07   1.05008652E-05   6.39580329E-01   7.93398702E-05   1.40011536E-02   1.57082978E-09   5.62962184E-01   4.88276296E-03   2.07100063E-08   4.66705119E-04   1.98349675E-06   4.55037491E-05   8.67187940E-03
   2.39750000E+03   5.00000000E-01   5.00000000E-01   2.03059308E-04   2.53275348E-07   5.56519467E-03   5.77881524E-03   1.17988489E-02   1.77986035E-02   3.17582559E-13   2.34323986E-07   1.05445794E-05   6.42242847E-01   7.96701552E-05   1.40594392E-02   1.59892634E-09   5.65530743E-01   4.09794945E-03   2.07918795E-08   4.68647972E-04   1.99175388E-06   4.56931773E-05   8.80425433E-03
   2.43250000E+03   5.00000000E-01   5.00000000E-01   1.92346525E-04   2.77636566E-07   5.58869075E-03   5.32626807E-03   1.16734105E-02   1.78431033E-02   2.72185231E-13   2.35313295E-07   1.05890983E-05   6.44954376E-01   8.00065202E-05   1.41187977E-02   1.62727158E-09   5.68143036E-01   3.53897734E-03   2.08753137E-08   4.70626589E-04   2.00016300E-06   4.58860925E-05   8.94103533E-03
   2.46750000E+03   5.00000000E-01   5.00000000E-01   1.85881904E-04   3.04581014E-07   5.61261882E-03   4.89676767E-03   1.16970851E-02   1.78620333E-02   2.25701093E-13   2.36320792E-07   1.06344357E-05   6.47715759E-01   8.03490694E-05   1.41792475E-02   1.65586844E-09   5.70799247E-01   3.12629719E-03   2.09603360E-08   4.72641585E-04   2.00872673E-06   4.60825545E-05   9.08150543E-03
   2.50250000E+03   5.00000000E-01   5.00000000E-01   1.82259618E-04   3.34336803E-07   5.63698639E-03   4.49193130E-03   1.18206373E-02   1.78547265E-02   1.82833285E-13   2.37346796E-07   1.06806058E-05   6.50527862E-01   8.06979105E-05   1.42408077E-02   1.68472006E-09   5.73499666E-01   2.81064200E-03   2.10469744E-08   4.74693591E-04   2.01744776E-06   4.62826251E-05   9.22486298E-03
   2.53750000E+03   5.00000000E-01   5.00000000E-01   1.80470444E-04   3.67162050E-07   5.66180124E-03   4.11261217E-03   1.20121060E-02   1.78210506E-02   1.45693536E-13   2.38391631E-07   1.07276234E-05   6.53391582E-01   8.10531546E-05   1.43034979E-02   1.71382978E-09   5.76244670E-01   2.56001700E-03   2.11352576E-08   4.76783262E-04   2.02632887E-06   4.64863681E-05   9.37043413E-03
   2.57250000E+03   5.00000000E-01   5.00000000E-01   1.79787100E-04   4.03354118E-07   5.68707137E-03   3.75899789E-03   1.22506036E-02   1.77613796E-02   1.14763772E-13   2.39455637E-07   1.07755037E-05   6.56307843E-01   8.14149165E-05   1.43673382E-02   1.74320118E-09   5.79034695E-01   2.35349897E-03   2.12252152E-08   4.78911273E-04   2.03537291E-06   4.66938492E-05   9.51774584E-03
   2.60750000E+03   5.00000000E-01   5.00000000E-01   1.79723003E-04   4.43257008E-07   5.71280506E-03   3.43071741E-03   1.25229285E-02   1.76765206E-02   8.96541064E-14   2.40539161E-07   1.08242622E-05   6.59277600E-01   8.17833146E-05   1.44323496E-02   1.77283810E-09   5.81870211E-01   2.17784813E-03   2.13168781E-08   4.81078321E-04   2.04458286E-06   4.69051363E-05   9.66651495E-03