 TITLE = "Total Concentrations" 
VARIABLES = "X"          "Y"              "Z"            "H+"             "Al+++"          "CO2(aq)"        "Mg++"           "Ca++"           "Fe++"           "Fe+++"          "Ba++"           "Sr++"           "Li+"            "Rb+"            "Mn++"           "Zn++"           "Cu++"           "Cu+"            "Cl-"            "F-"             "K+"             "HS-"            "Na+"            "SO4--"          "O2(aq)"         "B(OH)3(aq)"     "HPO4--"         "NO3-"           "H4SiO4(aq)"     "Ti(OH)4(aq)"   
 ZONE I=         200 , J=           1 , K=           1  F=POINT
   8.75000000E+00   5.00000000E-01   5.00000000E-01  -4.68274135E-03   7.12999598E-13   4.74997155E-03   5.07976917E-02   1.05956901E-02   5.29490638E-05   1.65303539E-22   1.19025695E-07   8.99994824E-06   2.45998526E-05   1.39999161E-06   5.65400721E-06   3.88094844E-07   1.42214624E-09   1.21809335E-09   5.48189429E-01   6.79996184E-05   1.19999281E-02   1.28400610E-25   4.74033156E-01   2.79997513E-02   1.79997010E-08   3.99997604E-04   1.69998982E-06   3.89997664E-05   4.14455949E-04   2.09609546E-09
   2.62500000E+01   5.00000000E-01   5.00000000E-01  -4.60648971E-03   2.37010212E-12   4.74999810E-03   5.04899833E-02   1.07915524E-02   1.05858209E-04   6.69698407E-22   8.91405790E-08   9.00000071E-06   2.45999902E-05   1.39999944E-06   1.13023369E-05   7.00211115E-07   1.42430895E-09   1.21620063E-09   5.48192494E-01   6.80000246E-05   1.19999952E-02   1.45892838E-26   4.74066169E-01   2.79998780E-02   1.79996104E-08   3.99999840E-04   1.69999932E-06   3.89999844E-05   6.32596294E-04   2.10231696E-09
   4.37500000E+01   5.00000000E-01   5.00000000E-01  -4.55733049E-03   3.80444331E-12   4.75018787E-03   5.02012464E-02   1.09878361E-02   1.58742277E-04   1.35374735E-21   7.91916457E-08   9.00036241E-06   2.46009730E-05   1.40005537E-06   1.69528638E-05   1.01236666E-06   1.42652070E-09   1.21434945E-09   5.48214394E-01   6.80027676E-05   1.20004746E-02   3.27674473E-26   4.74107884E-01   2.80009866E-02   1.80001382E-08   4.00015821E-04   1.70006724E-06   3.90015425E-05   8.37915429E-04   2.10774246E-09
   6.12500000E+01   5.00000000E-01   5.00000000E-01  -4.51931866E-03   5.03006529E-12   4.75053372E-03   4.99253187E-02   1.11845418E-02   2.11595742E-04   2.14100312E-21   7.76427986E-08   9.00101986E-06   2.46027641E-05   1.40015731E-06   2.26061341E-05   1.32458790E-06   1.42877956E-09   1.21253779E-09   5.48254309E-01   6.80077454E-05   1.20013483E-02   6.65492031E-26   4.74153801E-01   2.80030238E-02   1.80012575E-08   4.00044945E-04   1.70019102E-06   3.90043821E-05   1.01085787E-03   2.11227846E-09
   7.87500000E+01   5.00000000E-01   5.00000000E-01  -4.48573562E-03   6.30813207E-12   4.75102913E-03   4.96590594E-02   1.13816770E-02   2.64417928E-04   3.04282002E-21   7.98968469E-08   9.00196068E-06   2.46053298E-05   1.40030332E-06   2.82626616E-05   1.63690219E-06   1.43108379E-09   1.21076379E-09   5.48311483E-01   6.80148645E-05   1.20025999E-02   1.28877301E-25   4.74202655E-01   2.80059463E-02   1.80029434E-08   4.00086663E-04   1.70036832E-06   3.90084497E-05   1.14642511E-03   2.11598311E-09
   9.62500000E+01   5.00000000E-01   5.00000000E-01  -4.45496277E-03   7.65860692E-12   4.75166807E-03   4.94006305E-02   1.15792502E-02   3.17207418E-04   4.04368701E-21   8.40206555E-08   9.00317345E-06   2.46086388E-05   1.40049164E-06   3.39229313E-05   1.94933559E-06   1.43343176E-09   1.20902576E-09   5.48385222E-01   6.80240387E-05   1.20042140E-02   2.41641149E-25   4.74255735E-01   2.80097168E-02   1.80051731E-08   4.00140469E-04   1.70059699E-06   3.90136957E-05   1.25013532E-03   2.11892780E-09
   1.13750000E+02   5.00000000E-01   5.00000000E-01  -4.42624550E-03   9.03287049E-12   4.75244499E-03   4.91481076E-02   1.17772687E-02   3.69960318E-04   5.12436927E-21   8.91643688E-08   9.00464767E-06   2.46126625E-05   1.40072063E-06   3.95874024E-05   2.26191281E-06   1.43582201E-09   1.20732210E-09   5.48474886E-01   6.80351885E-05   1.20061768E-02   4.42022488E-25   4.74315439E-01   2.80143017E-02   1.80079257E-08   4.00205894E-04   1.70087505E-06   3.90200747E-05   1.33136372E-03   2.12118226E-09
   1.31250000E+02   5.00000000E-01   5.00000000E-01  -4.39871302E-03   1.04051371E-11   4.75335479E-03   4.88996166E-02   1.19757382E-02   4.22670913E-04   6.28535338E-21   9.49392975E-08   9.00637365E-06   2.46173743E-05   1.40098878E-06   4.52565110E-05   2.57465743E-06   1.43825316E-09   1.20565136E-09   5.48579885E-01   6.80482407E-05   1.20084752E-02   7.93636223E-25   4.74384003E-01   2.80196704E-02   1.80111816E-08   4.00282508E-04   1.70120066E-06   3.90275446E-05   1.39877593E-03   2.12281883E-09
   1.48750000E+02   5.00000000E-01   5.00000000E-01  -4.37154556E-03   1.17728499E-11   4.75439272E-03   4.86536639E-02   1.21746630E-02   4.75332398E-04   7.54293506E-21   1.01161014E-07   9.00834243E-06   2.46227497E-05   1.40129470E-06   5.09306729E-05   2.88759209E-06   1.44072397E-09   1.20401217E-09   5.48699672E-01   6.80631276E-05   1.20110974E-02   1.40498497E-24   4.74463011E-01   2.80257950E-02   1.80149229E-08   4.00369914E-04   1.70157213E-06   3.90360666E-05   1.45877229E-03   2.12391419E-09
   1.66250000E+02   5.00000000E-01   5.00000000E-01  -4.34409139E-03   1.31451167E-11   4.75555443E-03   4.84091937E-02   1.23740469E-02   5.27937327E-04   8.92131618E-21   1.07738824E-07   9.01054572E-06   2.46287661E-05   1.40163710E-06   5.66102850E-05   3.20073858E-06   1.44323328E-09   1.20240329E-09   5.48833744E-01   6.80797865E-05   1.20140322E-02   2.46011934E-24   4.74553383E-01   2.80326495E-02   1.80191332E-08   4.00467742E-04   1.70198790E-06   3.90456048E-05   1.51554218E-03   2.12454884E-09
   1.83750000E+02   5.00000000E-01   5.00000000E-01  -4.31586721E-03   1.45359251E-11   4.75683587E-03   4.81655017E-02   1.25738930E-02   5.80477886E-04   1.04481388E-20   1.14626437E-07   9.01297586E-06   2.46354026E-05   1.40201478E-06   6.22957278E-05   3.51411789E-06   1.44578004E-09   1.20082354E-09   5.48981633E-01   6.80981596E-05   1.20172695E-02   4.26954892E-24   4.74655549E-01   2.80402100E-02   1.80237969E-08   4.00575652E-04   1.70244652E-06   3.90561261E-05   1.57162147E-03   2.12480613E-09
   2.01250000E+02   5.00000000E-01   5.00000000E-01  -4.28652245E-03   1.59607303E-11   4.75823327E-03   4.79221292E-02   1.27742043E-02   6.32946085E-04   1.21526822E-20   1.21799193E-07   9.01562574E-06   2.46426397E-05   1.40242665E-06   6.79873670E-05   3.82775028E-06   1.44836326E-09   1.19927184E-09   5.49142906E-01   6.81181932E-05   1.20207998E-02   7.35440109E-24   4.74769616E-01   2.80484545E-02   1.80289000E-08   4.00693328E-04   1.70294664E-06   3.90675995E-05   1.62845486E-03   2.12477109E-09
   2.18750000E+02   5.00000000E-01   5.00000000E-01  -4.25580252E-03   1.74347845E-11   4.75974317E-03   4.76787774E-02   1.29749836E-02   6.85333882E-04   1.40654046E-20   1.29243221E-07   9.01848876E-06   2.46504593E-05   1.40287167E-06   7.36855547E-05   4.14165531E-06   1.45098203E-09   1.19774716E-09   5.49317162E-01   6.81398372E-05   1.20246142E-02   1.25848531E-23   4.74895504E-01   2.80573623E-02   1.80344292E-08   4.00820477E-04   1.70348703E-06   3.90799965E-05   1.68681748E-03   2.12452938E-09
   2.36250000E+02   5.00000000E-01   5.00000000E-01  -4.22351998E-03   1.89723899E-11   4.76136232E-03   4.74352479E-02   1.31762337E-02   7.37633268E-04   1.62180530E-20   1.36950124E-07   9.02155880E-06   2.46588449E-05   1.40334889E-06   7.93906311E-05   4.45585190E-06   1.45363554E-09   1.19624857E-09   5.49504027E-01   6.81630456E-05   1.20287047E-02   2.14067196E-23   4.75033029E-01   2.80669144E-02   1.80403721E-08   4.00956827E-04   1.70406651E-06   3.90932906E-05   1.74709373E-03   2.12416632E-09
   2.53750000E+02   5.00000000E-01   5.00000000E-01  -4.18953424E-03   2.05866255E-11   4.76308773E-03   4.71914048E-02   1.33779575E-02   7.89836316E-04   1.86439621E-20   1.44914301E-07   9.02483016E-06   2.46677806E-05   1.40385744E-06   8.51029254E-05   4.77035840E-06   1.45632300E-09   1.19477517E-09   5.49703154E-01   6.81877752E-05   1.20330637E-02   3.62105312E-23   4.75181956E-01   2.80770931E-02   1.80467176E-08   4.01102124E-04   1.70468403E-06   3.91074571E-05   1.80945025E-03   2.12376605E-09
   2.71250000E+02   5.00000000E-01   5.00000000E-01  -4.15373792E-03   2.22893047E-11   4.76491659E-03   4.69471506E-02   1.35801581E-02   8.41935201E-04   2.13783786E-20   1.53131574E-07   9.02829756E-06   2.46772523E-05   1.40439647E-06   9.08227570E-05   5.08519259E-06   1.45904371E-09   1.19332615E-09   5.49914222E-01   6.82139861E-05   1.20376839E-02   6.09298157E-23   4.75342034E-01   2.80878820E-02   1.80534548E-08   4.01256134E-04   1.70533857E-06   3.91224731E-05   1.87393899E-03   2.12341084E-09
   2.88750000E+02   5.00000000E-01   5.00000000E-01  -4.11604803E-03   2.40910362E-11   4.76684632E-03   4.67024124E-02   1.37828388E-02   8.93922200E-04   2.44587528E-20   1.61598458E-07   9.03195606E-06   2.46872462E-05   1.40496523E-06   9.65504364E-05   5.40037175E-06   1.46179700E-09   1.19190072E-09   5.50136930E-01   6.82416410E-05   1.20425590E-02   1.02006312E-22   4.75513010E-01   2.80992656E-02   1.80605740E-08   4.01418638E-04   1.70602921E-06   3.91383172E-05   1.94055705E-03   2.12318044E-09
   3.06250000E+02   5.00000000E-01   5.00000000E-01  -4.07640031E-03   2.60013276E-11   4.76887449E-03   4.64571326E-02   1.39860029E-02   9.45789668E-04   2.79249873E-20   1.70311776E-07   9.03580107E-06   2.46977500E-05   1.40556301E-06   1.02286266E-04   5.71591268E-06   1.46458228E-09   1.19049818E-09   5.50370998E-01   6.82707053E-05   1.20476828E-02   1.69939846E-22   4.75694640E-01   2.81112297E-02   1.80680660E-08   4.01589430E-04   1.70675508E-06   3.91549695E-05   2.00928037E-03   2.12315162E-09
   3.23750000E+02   5.00000000E-01   5.00000000E-01  -4.03474560E-03   2.80287128E-11   4.77099883E-03   4.62112647E-02   1.41896545E-02   9.97530007E-04   3.18196550E-20   1.79268446E-07   9.03982833E-06   2.47087519E-05   1.40618913E-06   1.08030541E-04   6.03183177E-06   1.46739898E-09   1.18911782E-09   5.50616167E-01   6.83011466E-05   1.20530496E-02   2.81765529E-22   4.75886693E-01   2.81237611E-02   1.80759223E-08   4.01768323E-04   1.70751537E-06   3.91724115E-05   2.08008195E-03   2.12339777E-09
   3.41250000E+02   5.00000000E-01   5.00000000E-01  -3.99104747E-03   3.01809080E-11   4.77321726E-03   4.59647699E-02   1.43937974E-02   1.04913562E-03   3.61882090E-20   1.88465374E-07   9.04403384E-06   2.47202410E-05   1.40684298E-06   1.13783550E-04   6.34814500E-06   1.47024659E-09   1.18775902E-09   5.50872193E-01   6.83329349E-05   1.20586540E-02   4.64995170E-22   4.76088955E-01   2.81368472E-02   1.80841347E-08   4.01955138E-04   1.70830933E-06   3.91906259E-05   2.15294079E-03   2.12398860E-09
   3.58750000E+02   5.00000000E-01   5.00000000E-01  -3.94528059E-03   3.24650085E-11   4.77552780E-03   4.57176158E-02   1.45984362E-02   1.10059889E-03   4.10792152E-20   1.97899384E-07   9.04841389E-06   2.47322071E-05   1.40752398E-06   1.19545575E-04   6.66486797E-06   1.47312462E-09   1.18642118E-09   5.51138850E-01   6.83660420E-05   1.20644912E-02   7.63860662E-22   4.76301227E-01   2.81504766E-02   1.80926960E-08   4.02149709E-04   1.70913626E-06   3.92095967E-05   2.22784541E-03   2.12498990E-09
   3.76250000E+02   5.00000000E-01   5.00000000E-01  -3.89742949E-03   3.48877245E-11   4.77792862E-03   4.54697757E-02   1.48035755E-02   1.15191212E-03   4.65446256E-20   2.07567197E-07   9.05296501E-06   2.47446409E-05   1.40823159E-06   1.25316893E-04   6.98201596E-06   1.47603264E-09   1.18510373E-09   5.51415927E-01   6.84004416E-05   1.20705564E-02   1.24916114E-21   4.76523323E-01   2.81646384E-02   1.81015991E-08   4.02351884E-04   1.70999551E-06   3.92293087E-05   2.30479412E-03   2.12646343E-09
   3.93750000E+02   5.00000000E-01   5.00000000E-01  -3.84748781E-03   3.74556285E-11   4.78041802E-03   4.52212279E-02   1.50092202E-02   1.20306755E-03   5.26400904E-20   2.17465404E-07   9.05768396E-06   2.47575333E-05   1.40896531E-06   1.31097777E-04   7.29960394E-06   1.47897024E-09   1.18380613E-09   5.51703226E-01   6.84361094E-05   1.20768454E-02   2.03372853E-21   4.76755074E-01   2.81793225E-02   1.81108376E-08   4.02561517E-04   1.71088645E-06   3.92497480E-05   2.38379372E-03   2.12846681E-09
   4.11250000E+02   5.00000000E-01   5.00000000E-01  -3.79545792E-03   4.01753601E-11   4.78299440E-03   4.49719560E-02   1.52153753E-02   1.25405732E-03   5.94252727E-20   2.27590471E-07   9.06256771E-06   2.47708762E-05   1.40972466E-06   1.36888493E-04   7.61764658E-06   1.48193705E-09   1.18252790E-09   5.52000563E-01   6.84730225E-05   1.20833542E-02   3.29661618E-21   4.76996319E-01   2.81945196E-02   1.81204054E-08   4.02778476E-04   1.71180852E-06   3.92709014E-05   2.46485781E-03   2.13105352E-09
   4.28750000E+02   5.00000000E-01   5.00000000E-01  -3.74135130E-03   4.30537332E-11   4.78565626E-03   4.47219490E-02   1.54220464E-02   1.30487352E-03   6.69641131E-20   2.37938732E-07   9.06761345E-06   2.47846619E-05   1.41050921E-06   1.42689305E-04   7.93615831E-06   1.48493273E-09   1.18126856E-09   5.52307766E-01   6.85111595E-05   1.20900789E-02   5.32077441E-21   4.77246911E-01   2.82102208E-02   1.81302968E-08   4.03002633E-04   1.71276119E-06   3.92927567E-05   2.54800540E-03   2.13427290E-09
   4.46250000E+02   5.00000000E-01   5.00000000E-01  -3.68518918E-03   4.60977255E-11   4.78840223E-03   4.44712020E-02   1.56292388E-02   1.35550815E-03   7.53250032E-20   2.48506391E-07   9.07281853E-06   2.47988831E-05   1.41131855E-06   1.48500473E-04   8.25515332E-06   1.48795695E-09   1.18002766E-09   5.52624675E-01   6.85505006E-05   1.20970161E-02   8.55149238E-21   4.77506712E-01   2.82264180E-02   1.81405066E-08   4.03233872E-04   1.71374396E-06   3.93153025E-05   2.63326041E-03   2.13817020E-09
   4.63750000E+02   5.00000000E-01   5.00000000E-01  -3.62700357E-03   4.93143818E-11   4.79123099E-03   4.42197163E-02   1.58369584E-02   1.40595314E-03   8.45808722E-20   2.59289531E-07   9.07818049E-06   2.48135331E-05   1.41215229E-06   1.54322252E-04   8.57464558E-06   1.49100943E-09   1.17880478E-09   5.52951140E-01   6.85910271E-05   1.21041624E-02   1.36866838E-20   4.77775593E-01   2.82431035E-02   1.81510298E-08   4.03472084E-04   1.71475636E-06   3.93385282E-05   2.72065177E-03   2.14278665E-09
   4.81250000E+02   5.00000000E-01   5.00000000E-01  -3.56683797E-03   5.27107036E-11   4.79414134E-03   4.39675002E-02   1.60452109E-02   1.45620036E-03   9.48092392E-20   2.70284114E-07   9.08369705E-06   2.48286057E-05   1.41301008E-06   1.60154896E-04   8.89464887E-06   1.49408990E-09   1.17759952E-09   5.53287020E-01   6.86327216E-05   1.21115149E-02   2.18158107E-20   4.78053435E-01   2.82602701E-02   1.81618618E-08   4.03717166E-04   1.71579795E-06   3.93624237E-05   2.81021374E-03   2.14815961E-09
   4.98750000E+02   5.00000000E-01   5.00000000E-01  -3.50474777E-03   5.62936073E-11   4.79713214E-03   4.37145684E-02   1.62540026E-02   1.50624158E-03   1.06092317E-19   2.81485991E-07   9.08936604E-06   2.48440949E-05   1.41389158E-06   1.65998655E-04   9.21517678E-06   1.49719812E-09   1.17641152E-09   5.53632186E-01   6.86755680E-05   1.21190706E-02   3.46328150E-20   4.78340125E-01   2.82779112E-02   1.81729984E-08   4.03969023E-04   1.71686835E-06   3.93869797E-05   2.90198603E-03   2.15432263E-09
   5.16250000E+02   5.00000000E-01   5.00000000E-01  -3.44079995E-03   6.00699974E-11   4.80020234E-03   4.34609427E-02   1.64633393E-02   1.55606852E-03   1.18517244E-19   2.92890903E-07   9.09518547E-06   2.48599953E-05   1.41479648E-06   1.71853776E-04   9.53624274E-06   1.50033387E-09   1.17524041E-09   5.53986514E-01   6.87195511E-05   1.21268269E-02   5.47612486E-20   4.78635559E-01   2.82960205E-02   1.81844355E-08   4.04227566E-04   1.71796715E-06   3.94121876E-05   2.99601336E-03   2.16130561E-09
   5.33750000E+02   5.00000000E-01   5.00000000E-01  -3.37507248E-03   6.40469489E-11   4.80335095E-03   4.32066512E-02   1.66732276E-02   1.60567282E-03   1.32176472E-19   3.04494488E-07   9.10115347E-06   2.48763017E-05   1.41572449E-06   1.77720504E-04   9.85786003E-06   1.50349695E-09   1.17408586E-09   5.54349892E-01   6.87646567E-05   1.21347812E-02   8.62488954E-20   4.78939640E-01   2.83145922E-02   1.81961694E-08   4.04492711E-04   1.71909402E-06   3.94380394E-05   3.09234450E-03   2.16913496E-09
   5.51250000E+02   5.00000000E-01   5.00000000E-01  -3.30765354E-03   6.82319297E-11   4.80657704E-03   4.29517281E-02   1.68836737E-02   1.65504612E-03   1.47168256E-19   3.16292287E-07   9.10726829E-06   2.48930095E-05   1.41667534E-06   1.83599084E-04   1.01800418E-05   1.50668718E-09   1.17294755E-09   5.54722212E-01   6.88108717E-05   1.21429314E-02   1.35317527E-19   4.79252277E-01   2.83336208E-02   1.82081965E-08   4.04764382E-04   1.72024863E-06   3.94645273E-05   3.19103109E-03   2.17783377E-09
   5.68750000E+02   5.00000000E-01   5.00000000E-01  -3.23864099E-03   7.26329586E-11   4.80987977E-03   4.26962134E-02   1.70946841E-02   1.70418006E-03   1.63597131E-19   3.28279749E-07   9.11352831E-06   2.49101142E-05   1.41764877E-06   1.89489755E-04   1.05028011E-05   1.50990439E-09   1.17182518E-09   5.55103376E-01   6.88581839E-05   1.21512751E-02   2.11495318E-19   4.79573382E-01   2.83531014E-02   1.82205136E-08   4.05042507E-04   1.72143065E-06   3.94916444E-05   3.29212676E-03   2.18742197E-09
   5.86250000E+02   5.00000000E-01   5.00000000E-01  -3.16814229E-03   7.72586059E-11   4.81325833E-03   4.24401529E-02   1.73062653E-02   1.75306639E-03   1.81574206E-19   3.40452234E-07   9.11993202E-06   2.49276115E-05   1.41864456E-06   1.95392758E-04   1.08261509E-05   1.51314843E-09   1.17071847E-09   5.55493292E-01   6.89065818E-05   1.21598104E-02   3.29321084E-19   4.79902875E-01   2.83730291E-02   1.82331178E-08   4.05327017E-04   1.72263982E-06   3.95193842E-05   3.39568680E-03   2.19791648E-09
   6.03750000E+02   5.00000000E-01   5.00000000E-01  -3.09627475E-03   8.21177955E-11   4.81671197E-03   4.21835983E-02   1.75184238E-02   1.80169699E-03   2.01217181E-19   3.52805017E-07   9.12647800E-06   2.49454978E-05   1.41966248E-06   2.01308331E-04   1.11501039E-05   1.51641918E-09   1.16962713E-09   5.55891874E-01   6.89560546E-05   1.21685354E-02   5.10899796E-19   4.80240681E-01   2.83933997E-02   1.82460060E-08   4.05617850E-04   1.72387586E-06   3.95477404E-05   3.50176875E-03   2.20933140E-09
   6.21250000E+02   5.00000000E-01   5.00000000E-01  -3.02316589E-03   8.72194453E-11   4.82024002E-03   4.19266068E-02   1.77311663E-02   1.85006387E-03   2.22650040E-19   3.65333298E-07   9.13316496E-06   2.49637694E-05   1.42070232E-06   2.07236710E-04   1.14746730E-05   1.51971652E-09   1.16855092E-09   5.56299042E-01   6.90065927E-05   1.21774484E-02   7.89720699E-19   4.80586729E-01   2.84142090E-02   1.82591758E-08   4.05914949E-04   1.72513853E-06   3.95767075E-05   3.61043335E-03   2.22167819E-09
   6.38750000E+02   5.00000000E-01   5.00000000E-01  -2.94895359E-03   9.25720451E-11   4.82384182E-03   4.16692413E-02   1.79444995E-02   1.89815917E-03   2.46002535E-19   3.78032203E-07   9.13999166E-06   2.49824229E-05   1.42176391E-06   2.13178132E-04   1.17998708E-05   1.52304035E-09   1.16748958E-09   5.56714723E-01   6.90581867E-05   1.21865476E-02   1.21634121E-18   4.80940952E-01   2.84354532E-02   1.82726247E-08   4.06218259E-04   1.72642760E-06   3.96062802E-05   3.72174585E-03   2.23496577E-09
   6.56250000E+02   5.00000000E-01   5.00000000E-01  -2.87378558E-03   9.81832929E-11   4.82751678E-03   4.14115700E-02   1.81584301E-02   1.94597514E-03   2.71409601E-19   3.90896791E-07   9.14695700E-06   2.50014553E-05   1.42284705E-06   2.19132831E-04   1.21257098E-05   1.52639058E-09   1.16644290E-09   5.57138847E-01   6.91108281E-05   1.21958318E-02   1.86681822E-18   4.81303289E-01   2.84571289E-02   1.82863504E-08   4.06527729E-04   1.72774285E-06   3.96364536E-05   3.83577683E-03   2.24920073E-09
   6.73750000E+02   5.00000000E-01   5.00000000E-01  -2.79781823E-03   1.04059896E-10   4.83126436E-03   4.11536655E-02   1.83729649E-02   1.99350410E-03   2.99010916E-19   4.03922058E-07   9.15405991E-06   2.50208638E-05   1.42395160E-06   2.25101041E-04   1.24522028E-05   1.52976713E-09   1.16541064E-09   5.57571350E-01   6.91645091E-05   1.22052993E-02   2.85517114E-18   4.81673684E-01   2.84792327E-02   1.83003509E-08   4.06843314E-04   1.72908409E-06   3.96672232E-05   3.95260250E-03   2.26438742E-09
   6.91250000E+02   5.00000000E-01   5.00000000E-01  -2.72121470E-03   1.10207579E-10   4.83508403E-03   4.08956037E-02   1.85881107E-02   2.04073838E-03   3.28950736E-19   4.17102947E-07   9.16129944E-06   2.50406457E-05   1.42507740E-06   2.31082995E-04   1.27793621E-05   1.53316994E-09   1.16439260E-09   5.58012175E-01   6.92192223E-05   1.22149490E-02   4.35174192E-18   4.82052086E-01   2.85017617E-02   1.83146241E-08   4.07164971E-04   1.73045113E-06   3.96985847E-05   4.07230410E-03   2.28052816E-09
   7.08750000E+02   5.00000000E-01   5.00000000E-01  -2.64414269E-03   1.16631255E-10   4.83897534E-03   4.06374632E-02   1.88038746E-02   2.08767037E-03   3.61377995E-19   4.30434347E-07   9.16867470E-06   2.50607986E-05   1.42622431E-06   2.37078925E-04   1.31072002E-05   1.53659897E-09   1.16338858E-09   5.58461267E-01   6.92749611E-05   1.22247797E-02   6.61015180E-18   4.82438447E-01   2.85247131E-02   1.83291684E-08   4.07492660E-04   1.73184381E-06   3.97305344E-05   4.19496679E-03   2.29762333E-09
   7.26250000E+02   5.00000000E-01   5.00000000E-01  -2.56677231E-03   1.23335236E-10   4.84293785E-03   4.03793238E-02   1.90202635E-02   2.13429244E-03   3.96446501E-19   4.43911101E-07   9.17618487E-06   2.50813202E-05   1.42739221E-06   2.43089065E-04   1.34357294E-05   1.54005417E-09   1.16239839E-09   5.58918576E-01   6.93317193E-05   1.22347902E-02   1.00067483E-17   4.82832726E-01   2.85480844E-02   1.83439820E-08   4.07826345E-04   1.73326197E-06   3.97630687E-05   4.32067821E-03   2.31567153E-09
   7.43750000E+02   5.00000000E-01   5.00000000E-01  -2.48927440E-03   1.30323280E-10   4.84697116E-03   4.01212659E-02   1.92372842E-02   2.18059704E-03   4.34314821E-19   4.57528012E-07   9.18382921E-06   2.51022085E-05   1.42858097E-06   2.49113646E-04   1.37649623E-05   1.54353552E-09   1.16142185E-09   5.59384057E-01   6.93894911E-05   1.22449797E-02   1.50981340E-17   4.83234883E-01   2.85718731E-02   1.83590634E-08   4.08165993E-04   1.73470547E-06   3.97961843E-05   4.44952744E-03   2.33466969E-09
   7.61250000E+02   5.00000000E-01   5.00000000E-01  -2.41181949E-03   1.37598295E-10   4.85107492E-03   3.98633701E-02   1.94549440E-02   2.22657665E-03   4.75145401E-19   4.71279846E-07   9.19160701E-06   2.51234617E-05   1.42979050E-06   2.55152900E-04   1.40949111E-05   1.54704298E-09   1.16045879E-09   5.59857667E-01   6.94482715E-05   1.22553470E-02   2.27047709E-17   4.83644884E-01   2.85960773E-02   1.83744113E-08   4.08511572E-04   1.73617418E-06   3.98298783E-05   4.58160461E-03   2.35461326E-09
   7.78750000E+02   5.00000000E-01   5.00000000E-01  -2.33457750E-03   1.45161612E-10   4.85524879E-03   3.96057164E-02   1.96732497E-02   2.27222375E-03   5.19102523E-19   4.85161337E-07   9.19951767E-06   2.51450779E-05   1.43102070E-06   2.61207059E-04   1.44255881E-05   1.55057657E-09   1.15950906E-09   5.60339369E-01   6.95080556E-05   1.22658915E-02   3.40320351E-17   4.84062697E-01   2.86206948E-02   1.83900245E-08   4.08863056E-04   1.73766799E-06   3.98641479E-05   4.71700134E-03   2.37549624E-09
   7.96250000E+02   5.00000000E-01   5.00000000E-01  -2.25771765E-03   1.53011866E-10   4.85949247E-03   3.93483848E-02   1.98922084E-02   2.31753071E-03   5.66349005E-19   4.99167193E-07   9.20756061E-06   2.51670557E-05   1.43227147E-06   2.67276354E-04   1.47570056E-05   1.55413626E-09   1.15857250E-09   5.60829128E-01   6.95688393E-05   1.22766124E-02   5.08448300E-17   4.84488296E-01   2.86457241E-02   1.84059017E-08   4.09220419E-04   1.73918678E-06   3.98989908E-05   4.85581194E-03   2.39731133E-09
   8.13750000E+02   5.00000000E-01   5.00000000E-01  -2.18140819E-03   1.61143704E-10   4.86380570E-03   3.90914546E-02   2.01118273E-02   2.36248964E-03   6.17041882E-19   5.13292104E-07   9.21573533E-06   2.51893937E-05   1.43354273E-06   2.73361017E-04   1.50891760E-05   1.55772208E-09   1.15764896E-09   5.61326914E-01   6.96306187E-05   1.22875090E-02   7.57184785E-17   4.84921657E-01   2.86711634E-02   1.84220420E-08   4.09583638E-04   1.74073046E-06   3.99344047E-05   4.99813474E-03   2.42005006E-09
   8.31250000E+02   5.00000000E-01   5.00000000E-01  -2.10581546E-03   1.69546598E-10   4.86818824E-03   3.88350042E-02   2.03321134E-02   2.40709211E-03   6.71327662E-19   5.27530747E-07   9.22404137E-06   2.52120907E-05   1.43483443E-06   2.79461281E-04   1.54221113E-05   1.56133404E-09   1.15673832E-09   5.61832698E-01   6.96933903E-05   1.22985807E-02   1.12397804E-16   4.85362763E-01   2.86970113E-02   1.84384444E-08   4.09952694E-04   1.74229895E-06   3.99703876E-05   5.14407313E-03   2.44370281E-09
   8.48750000E+02   5.00000000E-01   5.00000000E-01  -2.03110223E-03   1.78204034E-10   4.87263986E-03   3.85791101E-02   2.05530739E-02   2.45132895E-03   7.29337824E-19   5.41877794E-07   9.23247833E-06   2.52351454E-05   1.43614649E-06   2.85577379E-04   1.57558240E-05   1.56497217E-09   1.15584046E-09   5.62346456E-01   6.97571510E-05   1.23098269E-02   1.66309070E-16   4.85811599E-01   2.87232667E-02   1.84551081E-08   4.10327568E-04   1.74389216E-06   4.00069378E-05   5.29373583E-03   2.46825896E-09
   8.66250000E+02   5.00000000E-01   5.00000000E-01  -1.95742520E-03   1.87093229E-10   4.87716040E-03   3.83238461E-02   2.07747163E-02   2.49518995E-03   7.91185173E-19   5.56327915E-07   9.24104584E-06   2.52585570E-05   1.43747885E-06   2.91709544E-04   1.60903261E-05   1.56863650E-09   1.15495525E-09   5.62868166E-01   6.98218982E-05   1.23212472E-02   2.45287062E-16   4.86268157E-01   2.87499283E-02   1.84720325E-08   4.10708244E-04   1.74551004E-06   4.00440538E-05   5.44723623E-03   2.49370696E-09
   8.83750000E+02   5.00000000E-01   5.00000000E-01  -1.88493230E-03   1.96185425E-10   4.88174967E-03   3.80692820E-02   2.09970477E-02   2.53866363E-03   8.56961351E-19   5.70875785E-07   9.24974360E-06   2.52823246E-05   1.43883148E-06   2.97858009E-04   1.64256298E-05   1.57232707E-09   1.15408260E-09   5.63397809E-01   6.98876296E-05   1.23328411E-02   3.60603860E-16   4.86732433E-01   2.87769952E-02   1.84892168E-08   4.11094709E-04   1.74715251E-06   4.00817341E-05   5.60469092E-03   2.52003443E-09
   9.01250000E+02   5.00000000E-01   5.00000000E-01  -1.81375999E-03   2.05446628E-10   4.88640754E-03   3.78154826E-02   2.12200758E-02   2.58173710E-03   9.26735568E-19   5.85516090E-07   9.25857135E-06   2.53064475E-05   1.44020433E-06   3.04023008E-04   1.67617472E-05   1.57604393E-09   1.15322244E-09   5.63935369E-01   6.99543431E-05   1.23446084E-02   5.28419126E-16   4.87204425E-01   2.88044665E-02   1.85066605E-08   4.11486951E-04   1.74881954E-06   4.01199777E-05   5.76621754E-03   2.54722822E-09
   9.18750000E+02   5.00000000E-01   5.00000000E-01  -1.74403099E-03   2.14838673E-10   4.89113389E-03   3.75625071E-02   2.14438080E-02   2.62439593E-03   1.00055434E-18   6.00243522E-07   9.26752886E-06   2.53309250E-05   1.44159736E-06   3.10204778E-04   1.70986904E-05   1.57978713E-09   1.15237469E-09   5.64480833E-01   7.00220370E-05   1.23565486E-02   7.71817088E-16   4.87684139E-01   2.88323417E-02   1.85243632E-08   4.11884959E-04   1.75051108E-06   4.01587835E-05   5.93193253E-03   2.57527451E-09
   9.36250000E+02   5.00000000E-01   5.00000000E-01  -1.67585267E-03   2.24320439E-10   4.89592864E-03   3.73104081E-02   2.16682520E-02   2.66662412E-03   1.07844205E-18   6.15052789E-07   9.27661596E-06   2.53557567E-05   1.44301055E-06   3.16403555E-04   1.74364714E-05   1.58355675E-09   1.15153932E-09   5.65034190E-01   7.00907101E-05   1.23686617E-02   1.12365723E-15   4.88171578E-01   2.88606200E-02   1.85423245E-08   4.12288727E-04   1.75222709E-06   4.01981509E-05   6.10194879E-03   2.60415891E-09
   9.53750000E+02   5.00000000E-01   5.00000000E-01  -1.60931613E-03   2.33849093E-10   4.90079170E-03   3.70592319E-02   2.18934155E-02   2.70840412E-03   1.16040198E-18   6.29938611E-07   9.28583250E-06   2.53809423E-05   1.44444387E-06   3.22619574E-04   1.77751023E-05   1.58735284E-09   1.15071632E-09   5.65595431E-01   7.01603612E-05   1.23809473E-02   1.63054917E-15   4.88666753E-01   2.88893010E-02   1.85605441E-08   4.12698248E-04   1.75396756E-06   4.02380792E-05   6.27637365E-03   2.63386652E-09
   9.71250000E+02   5.00000000E-01   5.00000000E-01  -1.54449592E-03   2.43381283E-10   4.90572302E-03   3.68090180E-02   2.21193062E-02   2.74971689E-03   1.24641778E-18   6.44895725E-07   9.29517839E-06   2.54064813E-05   1.44589731E-06   3.28853075E-04   1.81145949E-05   1.59117548E-09   1.14990573E-09   5.66164550E-01   7.02309896E-05   1.23934054E-02   2.35837505E-15   4.89169674E-01   2.89183843E-02   1.85790219E-08   4.13113518E-04   1.75573245E-06   4.02785680E-05   6.45530707E-03   2.66438202E-09
   9.88750000E+02   5.00000000E-01   5.00000000E-01  -1.48145034E-03   2.52874186E-10   4.91072257E-03   3.65597999E-02   2.23459320E-02   2.79054205E-03   1.33645495E-18   6.59918881E-07   9.30465355E-06   2.54323737E-05   1.44737086E-06   3.35104296E-04   1.84549613E-05   1.59502476E-09   1.14910764E-09   5.66741543E-01   7.03025949E-05   1.24060358E-02   3.39993321E-15   4.89680353E-01   2.89478695E-02   1.85977576E-08   4.13534532E-04   1.75752176E-06   4.03196169E-05   6.63884039E-03   2.69568975E-09