 TITLE = "Total Concentrations" 
VARIABLES = "X"          "Y"              "Z"            "H+"             "Al+++"          "CO2(aq)"        "Mg++"           "Ca++"           "Fe++"           "Fe+++"          "Ba++"           "Sr++"           "Cl-"            "F-"             "K+"             "HS-"            "Na+"            "SO4--"          "O2(aq)"         "B(OH)3(aq)"     "HPO4--"         "NO3-"           "H4SiO4(aq)"    
 ZONE I=         200 , J=           1 , K=           1  F=POINT
   8.75000000E+00   5.00000000E-01   5.00000000E-01  -4.69735092E-03   5.75725960E-13   4.74997155E-03   5.08076563E-02   1.05983465E-02   5.29877927E-05   1.13342453E-22   1.99998802E-07   8.99994609E-06   5.48163260E-01   6.79995927E-05   1.19958740E-02   1.00957969E-10   4.74038419E-01   2.79998323E-02   1.79996990E-08   3.99997604E-04   1.69998982E-06   3.89997664E-05   4.24761439E-04
   2.62500000E+01   5.00000000E-01   5.00000000E-01  -4.60386622E-03   3.12966295E-12   4.74999810E-03   5.04958233E-02   1.07968701E-02   1.05964648E-04   6.37008079E-22   1.99999920E-07   8.99999641E-06   5.48166324E-01   6.79999729E-05   1.19875379E-02   1.01917194E-10   4.74077314E-01   2.79999888E-02   1.79996064E-08   3.99999840E-04   1.69999932E-06   3.89999844E-05   6.26717654E-04
   4.37500000E+01   5.00000000E-01   5.00000000E-01  -4.55021872E-03   5.51195219E-12   4.75018787E-03   5.02105335E-02   1.09958132E-02   1.58925293E-04   1.35008813E-21   2.00007910E-07   9.00035596E-06   5.48188224E-01   6.80026895E-05   1.19797159E-02   1.02880055E-10   4.74122401E-01   2.80011074E-02   1.80001322E-08   4.00015821E-04   1.70006724E-06   3.90015425E-05   8.13624392E-04
   6.12500000E+01   5.00000000E-01   5.00000000E-01  -4.51327554E-03   7.23373545E-12   4.75053372E-03   4.99416594E-02   1.11951808E-02   2.11858975E-04   2.09005996E-21   2.00022473E-07   9.00101126E-06   5.48228136E-01   6.80076407E-05   1.19707312E-02   1.03846505E-10   4.74171585E-01   2.80031462E-02   1.80012495E-08   4.00044945E-04   1.70019102E-06   3.90043821E-05   9.65173207E-04
   7.87500000E+01   5.00000000E-01   5.00000000E-01  -4.48214163E-03   8.86875800E-12   4.75102913E-03   4.96831882E-02   1.13949894E-02   2.64762453E-04   2.88406979E-21   2.00043332E-07   9.00194993E-06   5.48285308E-01   6.80147328E-05   1.19603312E-02   1.04816517E-10   4.74225391E-01   2.80060664E-02   1.80029334E-08   4.00086663E-04   1.70036832E-06   3.90084497E-05   1.07962246E-03
   9.62500000E+01   5.00000000E-01   5.00000000E-01  -4.45421978E-03   1.04952698E-11   4.75166807E-03   4.94321597E-02   1.15952554E-02   3.17632028E-04   3.72725495E-21   2.00070234E-07   9.00316055E-06   5.48359044E-01   6.80238797E-05   1.19490959E-02   1.05790074E-10   4.74285771E-01   2.80098328E-02   1.80051611E-08   4.00140469E-04   1.70059699E-06   3.90136957E-05   1.16619019E-03
   1.13750000E+02   5.00000000E-01   5.00000000E-01  -4.42841302E-03   1.20577517E-11   4.75244499E-03   4.91862255E-02   1.17959956E-02   3.70461392E-04   4.60952825E-21   2.00102947E-07   9.00463261E-06   5.48448703E-01   6.80350020E-05   1.19377051E-02   1.06767174E-10   4.74354919E-01   2.80144126E-02   1.80079115E-08   4.00205894E-04   1.70087505E-06   3.90200747E-05   1.23572746E-03
   1.31250000E+02   5.00000000E-01   5.00000000E-01  -4.40370704E-03   1.35298741E-11   4.75335479E-03   4.89434673E-02   1.19972270E-02   4.23242082E-04   5.53777993E-21   2.00141254E-07   9.00635643E-06   5.48553697E-01   6.80480264E-05   1.19266680E-02   1.07747825E-10   4.74434479E-01   2.80197756E-02   1.80111653E-08   4.00282508E-04   1.70120066E-06   3.90275446E-05   1.29661647E-03
   1.48750000E+02   5.00000000E-01   5.00000000E-01  -4.37925591E-03   1.49142561E-11   4.75439272E-03   4.87025167E-02   1.21989671E-02   4.75964046E-04   6.52961933E-21   2.00184957E-07   9.00832306E-06   5.48673479E-01   6.80628853E-05   1.19163087E-02   1.08732044E-10   4.74525403E-01   2.80258940E-02   1.80149046E-08   4.00369914E-04   1.70157213E-06   3.90360666E-05   1.35429018E-03
   1.66250000E+02   5.00000000E-01   5.00000000E-01  -4.35438523E-03   1.62374586E-11   4.75555443E-03   4.84624687E-02   1.24012338E-02   5.28616279E-04   7.60895265E-21   2.00233871E-07   9.01052419E-06   5.48807544E-01   6.80795161E-05   1.19068060E-02   1.09719852E-10   4.74628077E-01   2.80327419E-02   1.80191126E-08   4.00467742E-04   1.70198790E-06   3.90456048E-05   1.41181017E-03
   1.83750000E+02   5.00000000E-01   5.00000000E-01  -4.32856395E-03   1.75420445E-11   4.75683587E-03   4.82227491E-02   1.26040449E-02   5.81187539E-04   8.80375427E-21   2.00287826E-07   9.01295217E-06   5.48955426E-01   6.80978608E-05   1.18982409E-02   1.10711276E-10   4.74742510E-01   2.80402956E-02   1.80237741E-08   4.00575652E-04   1.70244652E-06   3.90561261E-05   1.47062733E-03
   2.01250000E+02   5.00000000E-01   5.00000000E-01  -4.30149852E-03   1.88522265E-11   4.75823327E-03   4.79830318E-02   1.28074180E-02   6.33666102E-04   1.01372240E-20   2.00346664E-07   9.01559988E-06   5.49116691E-01   6.81178658E-05   1.18906508E-02   1.11706346E-10   4.74868533E-01   2.80485330E-02   1.80288749E-08   4.00693328E-04   1.70294664E-06   3.90675995E-05   1.53147527E-03
   2.18750000E+02   5.00000000E-01   5.00000000E-01  -4.27304368E-03   2.01761467E-11   4.75974317E-03   4.77431257E-02   1.30113705E-02   6.86039339E-04   1.16283598E-20   2.00410239E-07   9.01846074E-06   5.49290938E-01   6.81394811E-05   1.18840525E-02   1.12705091E-10   4.75005914E-01   2.80574334E-02   1.80344016E-08   4.00820477E-04   1.70348703E-06   3.90799965E-05   1.59478209E-03
   2.36250000E+02   5.00000000E-01   5.00000000E-01  -4.24302563E-03   2.15349177E-11   4.76136232E-03   4.75028787E-02   1.32159195E-02   7.38294329E-04   1.33016243E-20   2.00478413E-07   9.02152861E-06   5.49477794E-01   6.81626606E-05   1.18784389E-02   1.13707539E-10   4.75154372E-01   2.80669779E-02   1.80403421E-08   4.00956827E-04   1.70406651E-06   3.90932906E-05   1.66063872E-03
   2.53750000E+02   5.00000000E-01   5.00000000E-01  -4.21138035E-03   2.29323394E-11   4.76308773E-03   4.72622062E-02   1.34210810E-02   7.90417220E-04   1.51769327E-20   2.00551062E-07   9.02479780E-06   5.49676912E-01   6.81873611E-05   1.18737978E-02   1.14713718E-10   4.75313637E-01   2.80771487E-02   1.80466849E-08   4.01102124E-04   1.70468403E-06   3.91074571E-05   1.72912914E-03
   2.71250000E+02   5.00000000E-01   5.00000000E-01  -4.17805771E-03   2.43706658E-11   4.76491659E-03   4.70210407E-02   1.36268702E-02   8.42393146E-04   1.72750217E-20   2.00628067E-07   9.02826302E-06   5.49887970E-01   6.82135428E-05   1.18701099E-02   1.15723654E-10   4.75483457E-01   2.80879294E-02   1.80534194E-08   4.01256134E-04   1.70533857E-06   3.91224731E-05   1.80030779E-03
   2.88750000E+02   5.00000000E-01   5.00000000E-01  -4.14299821E-03   2.58551735E-11   4.76684632E-03   4.67793207E-02   1.38333004E-02   8.94206408E-04   1.96194603E-20   2.00709319E-07   9.03191935E-06   5.50110667E-01   6.82411684E-05   1.18673489E-02   1.16737368E-10   4.75663597E-01   2.80993046E-02   1.80605358E-08   4.01418638E-04   1.70602921E-06   3.91383172E-05   1.87418534E-03
   3.06250000E+02   5.00000000E-01   5.00000000E-01  -4.10613242E-03   2.73946253E-11   4.76887449E-03   4.65369900E-02   1.40403830E-02   9.45840762E-04   2.22373464E-20   2.00794715E-07   9.03576219E-06   5.50344724E-01   6.82702032E-05   1.18654824E-02   1.17754882E-10   4.75853833E-01   2.81112601E-02   1.80680249E-08   4.01589430E-04   1.70675508E-06   3.91549695E-05   1.95072844E-03
   3.23750000E+02   5.00000000E-01   5.00000000E-01  -4.06738589E-03   2.90005575E-11   4.77099883E-03   4.62939990E-02   1.42481275E-02   9.97279739E-04   2.51595462E-20   2.00884161E-07   9.03978726E-06   5.50589882E-01   6.83006149E-05   1.18644736E-02   1.18776212E-10   4.76053953E-01   2.81237826E-02   1.80758780E-08   4.01768323E-04   1.70751537E-06   3.91724115E-05   2.02986762E-03
   3.41250000E+02   5.00000000E-01   5.00000000E-01  -4.02668634E-03   3.06859758E-11   4.77321726E-03   4.60503061E-02   1.44565414E-02   1.04850691E-03   2.84205576E-20   2.00977569E-07   9.04399059E-06   5.50845895E-01   6.83323734E-05   1.18642823E-02   1.19801373E-10   4.76263760E-01   2.81368596E-02   1.80840873E-08   4.01955138E-04   1.70830933E-06   3.91906259E-05   2.11151100E-03
   3.58750000E+02   5.00000000E-01   5.00000000E-01  -3.98397624E-03   3.24626492E-11   4.77552780E-03   4.58058808E-02   1.46656307E-02   1.09950596E-03   3.20573525E-20   2.01074855E-07   9.04836846E-06   5.51112540E-01   6.83654506E-05   1.18648672E-02   1.20830379E-10   4.76483068E-01   2.81504797E-02   1.80926452E-08   4.02149709E-04   1.70913626E-06   3.92095967E-05   2.19556897E-03
   3.76250000E+02   5.00000000E-01   5.00000000E-01  -3.93921423E-03   3.43406511E-11   4.77792862E-03   4.55607022E-02   1.48754000E-02   1.15026063E-03   3.61091494E-20   2.01175942E-07   9.05291739E-06   5.51389603E-01   6.83998203E-05   1.18661861E-02   1.21863238E-10   4.76711710E-01   2.81646319E-02   1.81015449E-08   4.02351884E-04   1.70999551E-06   3.92293087E-05   2.28196617E-03
   3.93750000E+02   5.00000000E-01   5.00000000E-01  -3.89238012E-03   3.63270984E-11   4.78041802E-03   4.53147592E-02   1.50858530E-02   1.20075461E-03   4.06164965E-20   2.01280759E-07   9.05763414E-06   5.51676888E-01   6.84354580E-05   1.18681976E-02   1.22899960E-10   4.76949539E-01   2.81793062E-02   1.81107798E-08   4.02561517E-04   1.71088645E-06   3.92497480E-05   2.37065529E-03
   4.11250000E+02   5.00000000E-01   5.00000000E-01  -3.84347412E-03   3.84260832E-11   4.78299440E-03   4.50680502E-02   1.52969926E-02   1.25097120E-03   4.56209088E-20   2.01389238E-07   9.06251570E-06   5.51974211E-01   6.84723408E-05   1.18708613E-02   1.23940550E-10   4.77196422E-01   2.81944933E-02   1.81203439E-08   4.02778476E-04   1.71180852E-06   3.92709014E-05   2.46162222E-03
   4.28750000E+02   5.00000000E-01   5.00000000E-01  -3.79251395E-03   4.06391518E-11   4.78565626E-03   4.48205805E-02   1.55088211E-02   1.30089308E-03   5.11648368E-20   2.01501316E-07   9.06755924E-06   5.52281400E-01   6.85104476E-05   1.18741383E-02   1.24985016E-10   4.77452246E-01   2.82101843E-02   1.81302315E-08   4.03002633E-04   1.71276119E-06   3.92927567E-05   2.55488506E-03
   4.46250000E+02   5.00000000E-01   5.00000000E-01  -3.73953543E-03   4.29650157E-11   4.78840223E-03   4.45723633E-02   1.57213405E-02   1.35050204E-03   5.72910416E-20   2.01616936E-07   9.07276212E-06   5.52598294E-01   6.85497582E-05   1.18779914E-02   1.26033362E-10   4.77716912E-01   2.82263710E-02   1.81404374E-08   4.03233872E-04   1.71374396E-06   3.93153025E-05   2.65049497E-03
   4.63750000E+02   5.00000000E-01   5.00000000E-01  -3.68459112E-03   4.53997135E-11   4.79123099E-03   4.43234194E-02   1.59345526E-02   1.39977859E-03   6.40422386E-20   2.01736042E-07   9.07812188E-06   5.52924743E-01   6.85902542E-05   1.18823857E-02   1.27085591E-10   4.77990338E-01   2.82430459E-02   1.81509565E-08   4.03472084E-04   1.71475636E-06   3.93385282E-05   2.74853389E-03
   4.81250000E+02   5.00000000E-01   5.00000000E-01  -3.62774823E-03   4.79369425E-11   4.79414134E-03   4.40737763E-02   1.61484590E-02   1.44870166E-03   7.14608665E-20   2.01858583E-07   9.08363623E-06   5.53260608E-01   6.86319182E-05   1.18872884E-02   1.28141707E-10   4.78272452E-01   2.82602016E-02   1.81617844E-08   4.03717166E-04   1.71579795E-06   3.93624237E-05   2.84911061E-03
   4.98750000E+02   5.00000000E-01   5.00000000E-01  -3.56935822E-03   5.04993141E-11   4.79713214E-03   4.38235783E-02   1.63630615E-02   1.49724126E-03   7.95211535E-20   2.01984511E-07   9.08930301E-06   5.53605757E-01   6.86747339E-05   1.18926719E-02   1.29201714E-10   4.78563257E-01   2.82778316E-02   1.81729167E-08   4.03969023E-04   1.71686835E-06   3.93869797E-05   2.95269718E-03
   5.16250000E+02   5.00000000E-01   5.00000000E-01  -3.50929280E-03   5.31251158E-11   4.80020234E-03   4.35727658E-02   1.65783618E-02   1.54537012E-03   8.83074320E-20   2.02113783E-07   9.09512023E-06   5.53960068E-01   6.87186861E-05   1.18985046E-02   1.30265616E-10   4.78862692E-01   2.82959296E-02   1.81843494E-08   4.04227566E-04   1.71796715E-06   3.94121876E-05   3.05930164E-03
   5.33750000E+02   5.00000000E-01   5.00000000E-01  -3.44760175E-03   5.58156270E-11   4.80335095E-03   4.33213669E-02   1.67943620E-02   1.59305983E-03   9.78704387E-20   2.02246356E-07   9.10108601E-06   5.54323428E-01   6.87637609E-05   1.19047595E-02   1.31333416E-10   4.79170706E-01   2.83144898E-02   1.81960788E-08   4.04492711E-04   1.71909402E-06   3.94380394E-05   3.16903069E-03
   5.51250000E+02   5.00000000E-01   5.00000000E-01  -3.38440820E-03   5.85550795E-11   4.80657704E-03   4.30694457E-02   1.70110640E-02   1.64027908E-03   1.08243566E-19   2.02382191E-07   9.10719861E-06   5.54695731E-01   6.88099450E-05   1.19114121E-02   1.32405120E-10   4.79487259E-01   2.83335068E-02   1.82081013E-08   4.04764382E-04   1.72024863E-06   3.94645273E-05   3.28205636E-03
   5.68750000E+02   5.00000000E-01   5.00000000E-01  -3.31984048E-03   6.13267758E-11   4.80987977E-03   4.28170707E-02   1.72284699E-02   1.68699344E-03   1.19458157E-19   2.02521253E-07   9.11345640E-06   5.55076877E-01   6.88572261E-05   1.19184404E-02   1.33480733E-10   4.79812319E-01   2.83529755E-02   1.82204138E-08   4.05042507E-04   1.72143065E-06   3.94916444E-05   3.39856495E-03
   5.86250000E+02   5.00000000E-01   5.00000000E-01  -3.25402068E-03   6.41164475E-11   4.81325833E-03   4.25643114E-02   1.74465815E-02   1.73316559E-03   1.31547070E-19   2.02663508E-07   9.11985788E-06   5.55466774E-01   6.89055929E-05   1.19258240E-02   1.34560261E-10   4.80145861E-01   2.83728912E-02   1.82330131E-08   4.05327017E-04   1.72263982E-06   3.95193842E-05   3.51874056E-03
   6.03750000E+02   5.00000000E-01   5.00000000E-01  -3.18706340E-03   6.69131114E-11   4.81671197E-03   4.23112379E-02   1.76654008E-02   1.77875562E-03   1.44546062E-19   2.02808925E-07   9.12640163E-06   5.55865337E-01   6.89550346E-05   1.19335441E-02   1.35643711E-10   4.80487859E-01   2.83932495E-02   1.82458966E-08   4.05617850E-04   1.72387586E-06   3.95477404E-05   3.64275713E-03
   6.21250000E+02   5.00000000E-01   5.00000000E-01  -3.11907681E-03   6.97092104E-11   4.82024002E-03   4.20579220E-02   1.78849293E-02   1.82372145E-03   1.58494587E-19   2.02957474E-07   9.13308635E-06   5.56272486E-01   6.90055413E-05   1.19415837E-02   1.36731092E-10   4.80838287E-01   2.84140464E-02   1.82590614E-08   4.05914949E-04   1.72513853E-06   3.95767075E-05   3.77077464E-03
   6.38750000E+02   5.00000000E-01   5.00000000E-01  -3.05016541E-03   7.25001464E-11   4.82384182E-03   4.18044381E-02   1.81051684E-02   1.86801920E-03   1.73435860E-19   2.03109129E-07   9.13991082E-06   5.56688146E-01   6.90571040E-05   1.19499271E-02   1.37822413E-10   4.81197120E-01   2.84352781E-02   1.82725053E-08   4.06218259E-04   1.72642760E-06   3.96062802E-05   3.90293890E-03
   6.56250000E+02   5.00000000E-01   5.00000000E-01  -2.98043394E-03   7.52832774E-11   4.82751678E-03   4.15508648E-02   1.83261195E-02   1.91160347E-03   1.89416027E-19   2.03263865E-07   9.14687391E-06   5.57112250E-01   6.91097140E-05   1.19585601E-02   1.38917684E-10   4.81564331E-01   2.84569411E-02   1.82862259E-08   4.06527729E-04   1.72774285E-06   3.96364536E-05   4.03938450E-03
   6.73750000E+02   5.00000000E-01   5.00000000E-01  -2.90999098E-03   7.80567689E-11   4.83126436E-03   4.12972861E-02   1.85477837E-02   1.95442755E-03   2.06482775E-19   2.03421657E-07   9.15397457E-06   5.57544733E-01   6.91633634E-05   1.19674698E-02   1.40016918E-10   4.81939897E-01   2.84790320E-02   1.83002212E-08   4.06843314E-04   1.72908409E-06   3.96672232E-05   4.18023910E-03
   6.91250000E+02   5.00000000E-01   5.00000000E-01  -2.83895293E-03   8.08181054E-11   4.83508403E-03   4.10437923E-02   1.87701622E-02   1.99644344E-03   2.24682893E-19   2.03582486E-07   9.16121185E-06   5.57985537E-01   6.92180451E-05   1.19766447E-02   1.41120127E-10   4.82323793E-01   2.85015480E-02   1.83144891E-08   4.07164971E-04   1.73045113E-06   3.96985847E-05   4.32562958E-03
   7.08750000E+02   5.00000000E-01   5.00000000E-01  -2.76744498E-03   8.35633155E-11   4.83897534E-03   4.07904801E-02   1.89932561E-02   2.03760173E-03   2.44060468E-19   2.03746330E-07   9.16858486E-06   5.58434607E-01   6.92737523E-05   1.19860744E-02   1.42227327E-10   4.82715998E-01   2.85244862E-02   1.83290281E-08   4.07492660E-04   1.73184381E-06   3.97305344E-05   4.47568606E-03
   7.26250000E+02   5.00000000E-01   5.00000000E-01  -2.69560101E-03   8.62864362E-11   4.84293785E-03   4.05374523E-02   1.92170668E-02   2.07785150E-03   2.64655086E-19   2.03913173E-07   9.17609277E-06   5.58891895E-01   6.93304787E-05   1.19957494E-02   1.43338532E-10   4.83116493E-01   2.85478442E-02   1.83438363E-08   4.07826345E-04   1.73326197E-06   3.97630687E-05   4.63054498E-03
   7.43750000E+02   5.00000000E-01   5.00000000E-01  -2.62356266E-03   8.89792009E-11   4.84697116E-03   4.02848169E-02   1.94415959E-02   2.11714005E-03   2.86500092E-19   2.04082996E-07   9.18373483E-06   5.59357353E-01   6.93882187E-05   1.20056615E-02   1.44453761E-10   4.83525265E-01   2.85716195E-02   1.83589123E-08   4.08165993E-04   1.73470547E-06   3.97961843E-05   4.79035106E-03
   7.61250000E+02   5.00000000E-01   5.00000000E-01  -2.55147750E-03   9.16309776E-11   4.85107492E-03   4.00326862E-02   1.96668448E-02   2.15541277E-03   3.09621070E-19   2.04255786E-07   9.19151037E-06   5.59830941E-01   6.94469672E-05   1.20158032E-02   1.45573031E-10   4.83942305E-01   2.85958101E-02   1.83742548E-08   4.08511572E-04   1.73617418E-06   3.98298783E-05   4.95525817E-03
   7.78750000E+02   5.00000000E-01   5.00000000E-01  -2.47949665E-03   9.42289829E-11   4.85524879E-03   3.97811758E-02   1.98928156E-02   2.19261284E-03   3.34034721E-19   2.04431528E-07   9.19941875E-06   5.60312620E-01   6.95067195E-05   1.20261678E-02   1.46696362E-10   4.84367606E-01   2.86204139E-02   1.83898624E-08   4.08863056E-04   1.73766799E-06   3.98641479E-05   5.12542883E-03
   7.96250000E+02   5.00000000E-01   5.00000000E-01  -2.40777152E-03   9.67588290E-11   4.85949247E-03   3.95304030E-02   2.01195102E-02   2.22868121E-03   3.59748488E-19   2.04610209E-07   9.20745942E-06   5.60802356E-01   6.95674712E-05   1.20367494E-02   1.47823776E-10   4.84801168E-01   2.86454293E-02   1.84057340E-08   4.09220419E-04   1.73918678E-06   3.98989908E-05   5.30103253E-03
   8.13750000E+02   5.00000000E-01   5.00000000E-01  -2.33645012E-03   9.92054048E-11   4.86380570E-03   3.92804852E-02   2.03469306E-02   2.26355664E-03   3.86761178E-19   2.04791819E-07   9.21563186E-06   5.61300117E-01   6.96292185E-05   1.20475427E-02   1.48955294E-10   4.85242993E-01   2.86708547E-02   1.84218686E-08   4.09583638E-04   1.74073046E-06   3.99344047E-05   5.48224258E-03
   8.31250000E+02   5.00000000E-01   5.00000000E-01  -2.26567311E-03   1.01554018E-10   4.86818824E-03   3.90315381E-02   2.05750791E-02   2.29717595E-03   4.15064713E-19   2.04976347E-07   9.22393561E-06   5.61805877E-01   6.96919579E-05   1.20585430E-02   1.50090941E-10   4.85693087E-01   2.86966886E-02   1.84382654E-08   4.09952694E-04   1.74229895E-06   3.99703876E-05   5.66923194E-03
   8.48750000E+02   5.00000000E-01   5.00000000E-01  -2.19556999E-03   1.03791733E-10   4.87263986E-03   3.87836737E-02   2.08039576E-02   2.32947461E-03   4.44647135E-19   2.05163784E-07   9.23237027E-06   5.62319610E-01   6.97556865E-05   1.20697460E-02   1.51230741E-10   4.86151457E-01   2.87229297E-02   1.84549234E-08   4.10327567E-04   1.74389216E-06   4.00069378E-05   5.86216829E-03
   8.66250000E+02   5.00000000E-01   5.00000000E-01  -2.12625545E-03   1.05908883E-10   4.87716039E-03   3.85369981E-02   2.10335678E-02   2.36038773E-03   4.75497125E-19   2.05354122E-07   9.24093548E-06   5.62841295E-01   6.98204014E-05   1.20811480E-02   1.52374721E-10   4.86618112E-01   2.87495771E-02   1.84718419E-08   4.10708244E-04   1.74551004E-06   4.00440538E-05   6.06120815E-03
   8.83750000E+02   5.00000000E-01   5.00000000E-01  -2.05794875E-03   1.07850848E-10   4.88174966E-03   3.82916715E-02   2.12639103E-02   2.38984154E-03   5.07455892E-19   2.05547354E-07   9.24963094E-06   5.63370913E-01   6.98861005E-05   1.20927458E-02   1.53522908E-10   4.87093080E-01   2.87766296E-02   1.84890204E-08   4.11094709E-04   1.74715251E-06   4.00817341E-05   6.26661457E-03
   9.01250000E+02   5.00000000E-01   5.00000000E-01  -1.99059152E-03   1.09669627E-10   4.88640754E-03   3.80477203E-02   2.14949859E-02   2.41777475E-03   5.40679884E-19   2.05743475E-07   9.25845638E-06   5.63908448E-01   6.99527816E-05   1.21045360E-02   1.54675330E-10   4.87576356E-01   2.88040865E-02   1.85064582E-08   4.11486950E-04   1.74881954E-06   4.01199777E-05   6.47840738E-03
   9.18750000E+02   5.00000000E-01   5.00000000E-01  -1.92420716E-03   1.11388698E-10   4.89113389E-03   3.78052053E-02   2.17267943E-02   2.44413411E-03   5.75246934E-19   2.05942480E-07   9.26741158E-06   5.64453885E-01   7.00204431E-05   1.21165158E-02   1.55832017E-10   4.88067937E-01   2.88319471E-02   1.85241551E-08   4.11884959E-04   1.75051108E-06   4.01587835E-05   6.69663629E-03
   9.36250000E+02   5.00000000E-01   5.00000000E-01  -1.85885317E-03   1.13016761E-10   4.89592863E-03   3.75641997E-02   2.19593340E-02   2.46887260E-03   6.11192300E-19   2.06144364E-07   9.27649636E-06   5.65007216E-01   7.00890836E-05   1.21286830E-02   1.56993000E-10   4.88567821E-01   2.88602108E-02   1.85421105E-08   4.12288727E-04   1.75222709E-06   4.01981509E-05   6.92136173E-03
   9.53750000E+02   5.00000000E-01   5.00000000E-01  -1.79456592E-03   1.14570050E-10   4.90079169E-03   3.73247620E-02   2.21926022E-02   2.49195211E-03   6.48581588E-19   2.06349124E-07   9.28571058E-06   5.65568430E-01   7.01587022E-05   1.21410352E-02   1.58158311E-10   4.89076003E-01   2.88888772E-02   1.85603241E-08   4.12698248E-04   1.75396755E-06   4.02380792E-05   7.15261179E-03
   9.71250000E+02   5.00000000E-01   5.00000000E-01  -1.73135887E-03   1.16074460E-10   4.90572302E-03   3.70869321E-02   2.24265944E-02   2.51334688E-03   6.87524588E-19   2.06556759E-07   9.29505414E-06   5.66137521E-01   7.02292979E-05   1.21535706E-02   1.59327982E-10   4.89592471E-01   2.89179459E-02   1.85787959E-08   4.13113517E-04   1.75573245E-06   4.02785679E-05   7.39037430E-03
   9.88750000E+02   5.00000000E-01   5.00000000E-01  -1.66923117E-03   1.17562860E-10   4.91072257E-03   3.68507335E-02   2.26613040E-02   2.53304647E-03   7.28172887E-19   2.06767266E-07   9.30452697E-06   5.66714487E-01   7.03008704E-05   1.21662873E-02   1.60502049E-10   4.90117209E-01   2.89474168E-02   1.85975256E-08   4.13534532E-04   1.75752176E-06   4.03196169E-05   7.63459840E-03
   1.00625000E+03   5.00000000E-01   5.00000000E-01  -1.60817571E-03   1.19072122E-10   4.91579033E-03   3.66161746E-02   2.28967225E-02   2.55105807E-03   7.70714326E-19   2.06980646E-07   9.31412905E-06   5.67299325E-01   7.03734195E-05   1.21791837E-02   1.61680545E-10   4.90650196E-01   2.89772896E-02   1.86165132E-08   4.13961291E-04   1.75933549E-06   4.03612259E-05   7.88519803E-03
   1.02375000E+03   5.00000000E-01   5.00000000E-01  -1.54818460E-03   1.20640991E-10   4.92092631E-03   3.63832505E-02   2.31328390E-02   2.56740823E-03   8.15368417E-19   2.07196897E-07   9.32386038E-06   5.67892035E-01   7.04469451E-05   1.21922586E-02   1.62863507E-10   4.91191405E-01   2.90075644E-02   1.86357587E-08   4.14393795E-04   1.76117363E-06   4.04033950E-05   8.14205518E-03
   1.04125000E+03   5.00000000E-01   5.00000000E-01  -1.48925383E-03   1.22307983E-10   4.92613053E-03   3.61519432E-02   2.33696397E-02   2.58214372E-03   8.62379521E-19   2.07416022E-07   9.33372101E-06   5.68492620E-01   7.05214476E-05   1.22055106E-02   1.64050971E-10   4.91740804E-01   2.90382412E-02   1.86552622E-08   4.14832045E-04   1.76303619E-06   4.04461244E-05   8.40502397E-03
   1.05875000E+03   5.00000000E-01   5.00000000E-01  -1.43138299E-03   1.24111577E-10   4.93140303E-03   3.59222220E-02   2.36071083E-02   2.59533210E-03   9.12018747E-19   2.07638022E-07   9.34371101E-06   5.69101085E-01   7.05969276E-05   1.22189387E-02   1.65242977E-10   4.92298358E-01   2.90693202E-02   1.86750237E-08   4.15276045E-04   1.76492319E-06   4.04894144E-05   8.67393138E-03
   1.07625000E+03   5.00000000E-01   5.00000000E-01  -1.37457477E-03   1.26090545E-10   4.93674386E-03   3.56940422E-02   2.38452253E-02   2.60706188E-03   9.64586324E-19   2.07862899E-07   9.35383047E-06   5.69717435E-01   7.06733858E-05   1.22325419E-02   1.66439562E-10   4.92864028E-01   2.91008013E-02   1.86950436E-08   4.15725799E-04   1.76683464E-06   4.05332654E-05   8.94857778E-03
   1.09375000E+03   5.00000000E-01   5.00000000E-01  -1.31883379E-03   1.28284805E-10   4.94215309E-03   3.54673451E-02   2.40839683E-02   2.61744234E-03   1.02041672E-18   2.08090656E-07   9.36407954E-06   5.70341679E-01   7.07508232E-05   1.22463195E-02   1.67640767E-10   4.93437773E-01   2.91326850E-02   1.87153220E-08   4.16181313E-04   1.76877058E-06   4.05776780E-05   9.22873689E-03
   1.11125000E+03   5.00000000E-01   5.00000000E-01  -1.26416508E-03   1.30736652E-10   4.94763081E-03   3.52420573E-02   2.43233121E-02   2.62660312E-03   1.07988641E-18   2.08321297E-07   9.37445838E-06   5.70973827E-01   7.08292411E-05   1.22602708E-02   1.68846632E-10   4.94019546E-01   2.91649712E-02   1.87358594E-08   4.16642595E-04   1.77073103E-06   4.06226530E-05   9.51415536E-03
   1.12875000E+03   5.00000000E-01   5.00000000E-01  -1.21057264E-03   1.33492192E-10   4.95317713E-03   3.50180903E-02   2.45632293E-02   2.63469344E-03   1.14342374E-18   2.08554826E-07   9.38496719E-06   5.71613891E-01   7.09086410E-05   1.22743952E-02   1.70057199E-10   4.94609298E-01   2.91976601E-02   1.87566560E-08   4.17109653E-04   1.77271602E-06   4.06681912E-05   9.80455233E-03
   1.14625000E+03   5.00000000E-01   5.00000000E-01  -1.15805893E-03   1.36602581E-10   4.95879215E-03   3.47953406E-02   2.48036908E-02   2.64188083E-03   1.21151872E-18   2.08791248E-07   9.39560618E-06   5.72261884E-01   7.09890245E-05   1.22886923E-02   1.71272511E-10   4.95206974E-01   2.92307517E-02   1.87777123E-08   4.17582497E-04   1.77472561E-06   4.07142935E-05   1.00996199E-02
   1.16375000E+03   5.00000000E-01   5.00000000E-01  -1.10662574E-03   1.40124546E-10   4.96447602E-03   3.45736910E-02   2.50446674E-02   2.64834916E-03   1.28472906E-18   2.09030569E-07   9.40637561E-06   5.72917822E-01   7.10703935E-05   1.23031618E-02   1.72492610E-10   4.95812516E-01   2.92642457E-02   1.87990288E-08   4.18061138E-04   1.77675984E-06   4.07609610E-05   1.03990254E-02
   1.18125000E+03   5.00000000E-01   5.00000000E-01  -1.05627634E-03   1.44119967E-10   4.97022887E-03   3.43530132E-02   2.52861308E-02   2.65429558E-03   1.36367981E-18   2.09272794E-07   9.41727575E-06   5.73581721E-01   7.11527501E-05   1.23178033E-02   1.73717541E-10   4.96425863E-01   2.92981413E-02   1.88206060E-08   4.18545589E-04   1.77881875E-06   4.08081949E-05   1.07024160E-02
   1.19875000E+03   5.00000000E-01   5.00000000E-01  -1.00701815E-03   1.48654601E-10   4.97605086E-03   3.41331705E-02   2.55280555E-02   2.65992635E-03   1.44905584E-18   2.09517931E-07   9.42830690E-06   5.74253600E-01   7.12360966E-05   1.23326166E-02   1.74947348E-10   4.97046950E-01   2.93324376E-02   1.88424445E-08   4.19035862E-04   1.78090241E-06   4.08559966E-05   1.10094253E-02
   1.21625000E+03   5.00000000E-01   5.00000000E-01  -9.58865226E-04   1.53796118E-10   4.98194218E-03   3.39140227E-02   2.57704203E-02   2.66545159E-03   1.54158695E-18   2.09765987E-07   9.43946939E-06   5.74933478E-01   7.13204354E-05   1.23476017E-02   1.76182078E-10   4.97675709E-01   2.93671323E-02   1.88645451E-08   4.19531973E-04   1.78301089E-06   4.09043674E-05   1.13196821E-02
   1.23375000E+03   5.00000000E-01   5.00000000E-01  -9.11839800E-04   1.59611666E-10   4.98790300E-03   3.36954300E-02   2.60132092E-02   2.67107939E-03   1.64202664E-18   2.10016968E-07   9.45076358E-06   5.75621378E-01   7.14057693E-05   1.23627585E-02   1.77421778E-10   4.98312074E-01   2.94022222E-02   1.88869083E-08   4.20033937E-04   1.78514423E-06   4.09533089E-05   1.16328187E-02
   1.25125000E+03   5.00000000E-01   5.00000000E-01  -8.65972257E-04   1.66165434E-10   4.99393353E-03   3.34772574E-02   2.62564123E-02   2.67700969E-03   1.75112770E-18   2.10270885E-07   9.46218984E-06   5.76317322E-01   7.14921010E-05   1.23780870E-02   1.78666493E-10   4.98955977E-01   2.94377022E-02   1.89095350E-08   4.20541771E-04   1.78730253E-06   4.10028227E-05   1.19484808E-02
   1.26875000E+03   5.00000000E-01   5.00000000E-01  -8.21299341E-04   1.73516625E-10   5.00003397E-03   3.32593782E-02   2.65000247E-02   2.68342866E-03   1.86961831E-18   2.10527746E-07   9.47374858E-06   5.77021334E-01   7.15794337E-05   1.23935874E-02   1.79916274E-10   4.99607355E-01   2.94735646E-02   1.89324259E-08   4.21055492E-04   1.78948584E-06   4.10529105E-05   1.22663344E-02
   1.28625000E+03   5.00000000E-01   5.00000000E-01  -7.77860433E-04   1.81718616E-10   5.00620456E-03   3.30416755E-02   2.67440461E-02   2.69050426E-03   1.99818568E-18   2.10787560E-07   9.48544022E-06   5.77733441E-01   7.16677705E-05   1.24092598E-02   1.81171168E-10   5.00266148E-01   2.95097980E-02   1.89555818E-08   4.21575121E-04   1.79169426E-06   4.11035743E-05   1.25860717E-02
   1.30375000E+03   5.00000000E-01   5.00000000E-01  -7.35693410E-04   1.90818654E-10   5.01244552E-03   3.28240439E-02   2.69884775E-02   2.69838315E-03   2.13746404E-18   2.11050338E-07   9.49726520E-06   5.78453670E-01   7.17571149E-05   1.24251044E-02   1.82431226E-10   5.00932304E-01   2.95463853E-02   1.89790037E-08   4.22100676E-04   1.79392787E-06   4.11548159E-05   1.29074138E-02