 TITLE = "Total Concentrations" 
VARIABLES = "X"          "Y"              "Z"            "H+"             "Al+++"          "CO2(aq)"        "Mg++"           "Ca++"           "Fe++"           "Fe+++"          "Ba++"           "Sr++"           "Cl-"            "F-"             "K+"             "HS-"            "Na+"            "SO4--"          "O2(aq)"         "B(OH)3(aq)"     "HPO4--"         "NO3-"           "H4SiO4(aq)"    
 ZONE I=         100 , J=           1 , K=           1  F=POINT
   1.75000000E+01   5.00000000E-01   5.00000000E-01  -4.75707488E-03   1.24517262E-13   4.75010909E-03   4.95411520E-02   1.12297345E-02   5.88074988E-04   3.41800219E-12   2.00004593E-07   9.00020669E-06   5.48179132E-01   6.80015617E-05   1.20002756E-02   1.10603195E-10   4.74311297E-01   2.80006431E-02   1.79984295E-08   4.00009186E-04   1.70003904E-06   3.90008957E-05   1.71077813E-03
   5.25000000E+01   5.00000000E-01   5.00000000E-01  -4.72421538E-03   1.74268828E-13   4.75063957E-03   4.84146007E-02   1.20223338E-02   8.68355830E-04   2.11883474E-12   2.00026929E-07   9.00121182E-06   5.48240352E-01   6.80091559E-05   1.20016158E-02   1.21235910E-10   4.74451923E-01   2.80037701E-02   1.79984515E-08   4.00053859E-04   1.70022890E-06   3.90052512E-05   2.61996975E-03
   8.75000000E+01   5.00000000E-01   5.00000000E-01  -4.68751658E-03   2.21684241E-13   4.75176954E-03   4.75503942E-02   1.27868578E-02   9.87787914E-04   1.89374184E-12   2.00074507E-07   9.00335281E-06   5.48370754E-01   6.80253324E-05   1.20044704E-02   1.31905826E-10   4.74516617E-01   2.80104310E-02   1.80007403E-08   4.00149014E-04   1.70063331E-06   3.90145289E-05   3.12023529E-03
   1.22500000E+02   5.00000000E-01   5.00000000E-01  -4.64725828E-03   2.80584284E-13   4.75345252E-03   4.67946419E-02   1.35407137E-02   1.04317862E-03   1.85356308E-12   2.00145369E-07   9.00654161E-06   5.48564976E-01   6.80494255E-05   1.20087222E-02   1.42615382E-10   4.74579214E-01   2.80203517E-02   1.80051191E-08   4.00290738E-04   1.70123564E-06   3.90283470E-05   3.44696183E-03
   1.57500000E+02   5.00000000E-01   5.00000000E-01  -4.60437182E-03   3.54293336E-13   4.75564895E-03   4.60781669E-02   1.42934579E-02   1.07596994E-03   1.86451208E-12   2.00237850E-07   9.01070327E-06   5.48818451E-01   6.80808692E-05   1.20142710E-02   1.53366858E-10   4.74672070E-01   2.80332991E-02   1.80114373E-08   4.00475701E-04   1.70202173E-06   3.90463808E-05   3.71359384E-03
   1.92500000E+02   5.00000000E-01   5.00000000E-01  -4.55821703E-03   4.47618077E-13   4.75832501E-03   4.53727684E-02   1.50504861E-02   1.10313571E-03   1.88149020E-12   2.00350527E-07   9.01577370E-06   5.49127278E-01   6.81191790E-05   1.20210316E-02   1.64162396E-10   4.74801992E-01   2.80490737E-02   1.80195662E-08   4.00701053E-04   1.70297948E-06   3.90683527E-05   3.97025750E-03
   2.27500000E+02   5.00000000E-01   5.00000000E-01  -4.50392934E-03   5.86272107E-13   4.76145164E-03   4.46569460E-02   1.58258282E-02   1.14483147E-03   1.81695977E-12   2.00482174E-07   9.02169785E-06   5.49488102E-01   6.81639393E-05   1.20289305E-02   1.75004029E-10   4.74935121E-01   2.80675044E-02   1.80293954E-08   4.00964349E-04   1.70409848E-06   3.90940240E-05   4.28130940E-03
   2.62500000E+02   5.00000000E-01   5.00000000E-01  -4.43005078E-03   8.61546098E-13   4.76500382E-03   4.39155187E-02   1.66462468E-02   1.23914880E-03   1.55323439E-12   2.00631740E-07   9.02842829E-06   5.49898036E-01   6.82147915E-05   1.20379044E-02   1.85893698E-10   4.74957532E-01   2.80884436E-02   1.80408293E-08   4.01263479E-04   1.70536979E-06   3.91231892E-05   4.72691516E-03
   2.97500000E+02   5.00000000E-01   5.00000000E-01  -4.35622859E-03   1.16535264E-12   4.76895988E-03   4.32227525E-02   1.74847352E-02   1.32815796E-03   1.42760178E-12   2.00798311E-07   9.03592398E-06   5.50354579E-01   6.82714256E-05   1.20478986E-02   1.96833245E-10   4.74907512E-01   2.81117635E-02   1.80537856E-08   4.01596621E-04   1.70678564E-06   3.91556706E-05   5.14807853E-03
   3.32500000E+02   5.00000000E-01   5.00000000E-01  -4.28545743E-03   1.44083659E-12   4.77330104E-03   4.25778598E-02   1.83257446E-02   1.38391412E-03   1.42427266E-12   2.00981096E-07   9.04414934E-06   5.50855564E-01   6.83335728E-05   1.20588658E-02   2.07824467E-10   4.74874278E-01   2.81373535E-02   1.80681927E-08   4.01962193E-04   1.70833932E-06   3.91913138E-05   5.51487553E-03
   3.67500000E+02   5.00000000E-01   5.00000000E-01  -4.21045325E-03   1.74390525E-12   4.77801099E-03   4.19492418E-02   1.91672156E-02   1.41912841E-03   1.45169298E-12   2.01179410E-07   9.05307346E-06   5.51399109E-01   6.84009995E-05   1.20707646E-02   2.18869126E-10   4.74890404E-01   2.81651175E-02   1.80839883E-08   4.02358821E-04   1.71002499E-06   3.92299850E-05   5.85620605E-03
   4.02500000E+02   5.00000000E-01   5.00000000E-01  -4.12916067E-03   2.09676953E-12   4.78307553E-03   4.13194246E-02   2.00091338E-02   1.44439607E-03   1.48676214E-12   2.01392654E-07   9.06266942E-06   5.51983574E-01   6.84735023E-05   1.20835592E-02   2.29968941E-10   4.74965851E-01   2.81949716E-02   1.81011182E-08   4.02785308E-04   1.71183756E-06   3.92715675E-05   6.19009758E-03
   4.37500000E+02   5.00000000E-01   5.00000000E-01  -4.04080109E-03   2.51226062E-12   4.78848227E-03   4.06804398E-02   2.08517531E-02   1.46515732E-03   1.52236071E-12   2.01620306E-07   9.07291377E-06   5.52607531E-01   6.85509041E-05   1.20972184E-02   2.41125601E-10   4.75102844E-01   2.82268429E-02   1.81195352E-08   4.03240612E-04   1.71377260E-06   3.93159597E-05   6.52490842E-03
   4.72500000E+02   5.00000000E-01   5.00000000E-01  -3.94491622E-03   3.00272018E-12   4.79422042E-03   4.00288665E-02   2.16953756E-02   1.48394998E-03   1.55535789E-12   2.01861912E-07   9.08378605E-06   5.53269733E-01   6.86330502E-05   1.21117147E-02   2.52340776E-10   4.75300743E-01   2.82606678E-02   1.81391980E-08   4.03723825E-04   1.71582625E-06   3.93630729E-05   6.86426428E-03
   5.07500000E+02   5.00000000E-01   5.00000000E-01  -3.84122988E-03   3.58196642E-12   4.80028056E-03   3.93633505E-02   2.25403300E-02   1.50194363E-03   1.58396738E-12   2.02117076E-07   9.09526844E-06   5.53969095E-01   6.87198060E-05   1.21270246E-02   2.63616119E-10   4.75557808E-01   2.82963908E-02   1.81600705E-08   4.04234153E-04   1.71799515E-06   3.94128299E-05   7.20973252E-03
   5.42500000E+02   5.00000000E-01   5.00000000E-01  -3.72964202E-03   4.26593901E-12   4.80665451E-03   3.86834982E-02   2.33869647E-02   1.51968584E-03   1.60700032E-12   2.02385453E-07   9.10734539E-06   5.54704671E-01   6.88110541E-05   1.21431272E-02   2.74953273E-10   4.75871913E-01   2.83339635E-02   1.81821214E-08   4.04770906E-04   1.72027635E-06   3.94651634E-05   7.56200926E-03
   5.77500000E+02   5.00000000E-01   5.00000000E-01  -3.61024202E-03   5.07312904E-12   4.81333513E-03   3.79893948E-02   2.42356386E-02   1.53743961E-03   1.62360904E-12   2.02666742E-07   9.12000341E-06   5.55475638E-01   6.89066924E-05   1.21600045E-02   2.86353873E-10   4.76240845E-01   2.83733440E-02   1.82053234E-08   4.05333485E-04   1.72266731E-06   3.95200148E-05   7.92141206E-03
   6.12500000E+02   5.00000000E-01   5.00000000E-01  -3.48332083E-03   6.02501649E-12   4.82031624E-03   3.72813925E-02   2.50867118E-02   1.55533573E-03   1.63318617E-12   2.02960684E-07   9.13323077E-06   5.56281282E-01   6.90066325E-05   1.21776410E-02   2.97819550E-10   4.76662436E-01   2.84144958E-02   1.82296526E-08   4.05921368E-04   1.72516581E-06   3.95773334E-05   8.28807865E-03
   6.47500000E+02   5.00000000E-01   5.00000000E-01  -3.34937653E-03   7.14656525E-12   4.82759249E-03   3.65600126E-02   2.59405383E-02   1.57344361E-03   1.63532056E-12   2.03267052E-07   9.14701735E-06   5.57120987E-01   6.91107978E-05   1.21960231E-02   3.09351932E-10   4.77134629E-01   2.84573874E-02   1.82550885E-08   4.06534105E-04   1.72776994E-06   3.96370752E-05   8.66204689E-03
   6.82500000E+02   5.00000000E-01   5.00000000E-01  -3.20911119E-03   8.46679063E-12   4.83515929E-03   3.58258957E-02   2.67974617E-02   1.59180548E-03   1.62977581E-12   2.03585654E-07   9.16135444E-06   5.57994221E-01   6.92191224E-05   1.22151393E-02   3.20952648E-10   4.77655500E-01   2.85019917E-02   1.82816134E-08   4.07171308E-04   1.73047806E-06   3.96992026E-05   9.04328740E-03
   7.17500000E+02   5.00000000E-01   5.00000000E-01  -3.06341766E-03   1.00194094E-11   4.84301271E-03   3.50797726E-02   2.76578125E-02   1.61045316E-03   1.61647742E-12   2.03916324E-07   9.17623460E-06   5.58900533E-01   6.93315503E-05   1.22349795E-02   3.32623332E-10   4.78223268E-01   2.85482855E-02   1.83092120E-08   4.07832649E-04   1.73328876E-06   3.97636833E-05   9.43171776E-03
   7.52500000E+02   5.00000000E-01   5.00000000E-01  -2.91335591E-03   1.18435796E-11   4.85114943E-03   3.43224411E-02   2.85219063E-02   1.62941622E-03   1.59550279E-12   2.04258923E-07   9.19165155E-06   5.59839539E-01   6.94480339E-05   1.22555354E-02   3.44365628E-10   4.78836291E-01   2.85962493E-02   1.83378714E-08   4.08517847E-04   1.73620085E-06   3.98304900E-05   9.82721033E-03
   7.87500000E+02   5.00000000E-01   5.00000000E-01  -2.76011970E-03   1.39847474E-11   4.85956668E-03   3.35547453E-02   2.93900438E-02   1.64872556E-03   1.56706998E-12   2.04613334E-07   9.20760003E-06   5.60810919E-01   6.95685335E-05   1.22768000E-02   3.56181190E-10   4.79493066E-01   2.86458668E-02   1.83675809E-08   4.09226668E-04   1.73921334E-06   3.98996001E-05   1.02295976E-02
   8.22500000E+02   5.00000000E-01   5.00000000E-01  -2.60499522E-03   1.64956153E-11   4.86826219E-03   3.27775538E-02   3.02625102E-02   1.66841456E-03   1.53152450E-12   2.04979460E-07   9.22407572E-06   5.61814411E-01   6.96930166E-05   1.22987676E-02   3.68071689E-10   4.80192222E-01   2.86971245E-02   1.83983315E-08   4.09958921E-04   1.74232541E-06   3.99709948E-05   1.06386768E-02
   8.57500000E+02   5.00000000E-01   5.00000000E-01  -2.44931448E-03   1.94372530E-11   4.87723412E-03   3.19917381E-02   3.11395756E-02   1.68851882E-03   1.48932364E-12   2.05357226E-07   9.24107518E-06   5.62849804E-01   6.98214569E-05   1.23214336E-02   3.80038813E-10   4.80932508E-01   2.87500117E-02   1.84301159E-08   4.10714452E-04   1.74553642E-06   4.00446591E-05   1.10542135E-02
   8.92500000E+02   5.00000000E-01   5.00000000E-01  -2.29440688E-03   2.28803702E-11   4.88648108E-03   3.11981513E-02   3.20214950E-02   1.70907503E-03   1.44101913E-12   2.05746572E-07   9.25859572E-06   5.63916934E-01   6.99538344E-05   1.23447943E-02   3.92084271E-10   4.81712788E-01   2.88045201E-02   1.84629285E-08   4.11493143E-04   1.74884586E-06   4.01205815E-05   1.14759444E-02
   9.27500000E+02   5.00000000E-01   5.00000000E-01  -2.14155210E-03   2.69067843E-11   4.89600202E-03   3.03976077E-02   3.29085086E-02   1.73011939E-03   1.38723849E-12   2.06147453E-07   9.27663541E-06   5.65015685E-01   7.00901342E-05   1.23688472E-02   4.04209796E-10   4.82532033E-01   2.88606435E-02   1.84967650E-08   4.12294907E-04   1.75225335E-06   4.01987534E-05   1.19035789E-02
   9.62500000E+02   5.00000000E-01   5.00000000E-01  -1.99193791E-03   3.16111133E-11   4.90579628E-03   2.95908665E-02   3.38008420E-02   1.75168571E-03   1.32866618E-12   2.06559843E-07   9.29519295E-06   5.66145976E-01   7.02303467E-05   1.23935906E-02   4.16417145E-10   4.83389309E-01   2.89183781E-02   1.85316226E-08   4.13119686E-04   1.75575867E-06   4.02791694E-05   1.23367996E-02
   9.97500000E+02   5.00000000E-01   5.00000000E-01  -1.84662521E-03   3.71027367E-11   4.91586349E-03   2.87786179E-02   3.46987062E-02   1.77380331E-03   1.26602524E-12   2.06983726E-07   9.31426767E-06   5.67307768E-01   7.03744669E-05   1.24190236E-02   4.28708102E-10   4.84283771E-01   2.89777216E-02   1.85674996E-08   4.13967452E-04   1.75936167E-06   4.03618266E-05   1.27752609E-02
   1.03250000E+03   5.00000000E-01   5.00000000E-01  -1.70652209E-03   4.35080773E-11   4.92620362E-03   2.79614748E-02   3.56022985E-02   1.79649478E-03   1.20006016E-12   2.07419100E-07   9.33385949E-06   5.68501055E-01   7.05224940E-05   1.24451460E-02   4.41084478E-10   4.85214655E-01   2.90386739E-02   1.86043954E-08   4.14838200E-04   1.76306235E-06   4.04467245E-05   1.32185866E-02
   1.06750000E+03   5.00000000E-01   5.00000000E-01  -1.57236771E-03   5.09732738E-11   4.93681690E-03   2.71399692E-02   3.65118025E-02   1.81977383E-03   1.13152130E-12   2.07865975E-07   9.35396886E-06   5.69725864E-01   7.06744314E-05   1.24719585E-02   4.53548114E-10   4.86181273E-01   2.91012363E-02   1.86423106E-08   4.15731949E-04   1.76686078E-06   4.05338651E-05   1.36663654E-02
   1.10250000E+03   5.00000000E-01   5.00000000E-01  -1.44472557E-03   5.96674185E-11   4.94770383E-03   2.63145512E-02   3.74273907E-02   1.84364394E-03   1.06115069E-12   2.08324372E-07   9.37459672E-06   5.70982253E-01   7.08302863E-05   1.24994623E-02   4.66100883E-10   4.87182997E-01   2.91654117E-02   1.86812468E-08   4.16648743E-04   1.77075716E-06   4.06232525E-05   1.41181354E-02
   1.13750000E+03   5.00000000E-01   5.00000000E-01  -1.02273492E-03   3.65184445E-09   4.95886516E-03   2.44499245E-02   3.84621826E-02   2.81461449E-03   3.10482746E-13   2.08794322E-07   9.39574451E-06   5.72270310E-01   7.09900696E-05   1.25276593E-02   4.78744705E-10   4.87870386E-01   2.92312046E-02   1.87212064E-08   4.17588645E-04   1.77475174E-06   4.07148929E-05   2.82329546E-03
   1.17250000E+03   5.00000000E-01   5.00000000E-01  -1.02881863E-03   1.42278091E-09   4.97030189E-03   2.28223951E-02   3.95043992E-02   3.44653432E-03   3.32073968E-13   2.09275869E-07   9.41741410E-06   5.73590148E-01   7.11537954E-05   1.25565521E-02   4.91481463E-10   4.89209262E-01   2.92986206E-02   1.87621929E-08   4.18551738E-04   1.77884489E-06   4.08087944E-05   4.56394759E-03
   1.20750000E+03   5.00000000E-01   5.00000000E-01  -9.81741711E-04   9.54951102E-10   4.98201524E-03   2.15730578E-02   4.05542144E-02   3.69772506E-03   3.26292532E-13   2.09769063E-07   9.43960782E-06   5.74941909E-01   7.13214813E-05   1.25861438E-02   5.04313150E-10   4.90519338E-01   2.93676670E-02   1.88042106E-08   4.19538125E-04   1.78303703E-06   4.09049672E-05   5.95110019E-03
   1.24250000E+03   5.00000000E-01   5.00000000E-01  -9.17736147E-04   7.88989852E-10   4.99400664E-03   2.05880322E-02   4.16118558E-02   3.69069568E-03   3.13476684E-13   2.10273964E-07   9.46232837E-06   5.76325759E-01   7.14931477E-05   1.26164378E-02   5.17241786E-10   4.91819318E-01   2.94383517E-02   1.88472644E-08   4.20547928E-04   1.78732869E-06   4.10034229E-05   7.09594563E-03
   1.27750000E+03   5.00000000E-01   5.00000000E-01  -8.48869085E-04   7.16221565E-10   5.00627774E-03   1.97306395E-02   4.26785103E-02   3.55821005E-03   2.97735811E-13   2.10790642E-07   9.48557888E-06   5.77741887E-01   7.16688182E-05   1.26474385E-02   5.30269419E-10   4.93126927E-01   2.95106837E-02   1.88913604E-08   4.21581284E-04   1.79172046E-06   4.11041751E-05   8.11834137E-03
   1.31250000E+03   5.00000000E-01   5.00000000E-01  -7.80231562E-04   6.88758242E-10   5.01883039E-03   1.89001805E-02   4.37691891E-02   3.38591230E-03   2.77424414E-13   2.11319174E-07   9.50936285E-06   5.79190506E-01   7.18485193E-05   1.26791505E-02   5.43398135E-10   4.94447574E-01   2.95846725E-02   1.89365050E-08   4.22638349E-04   1.79621298E-06   4.12072390E-05   9.05986615E-03
   1.34750000E+03   5.00000000E-01   5.00000000E-01  -7.14426727E-04   6.89633676E-10   5.03166662E-03   1.80448148E-02   4.48971236E-02   3.21466314E-03   2.52275102E-13   2.11859647E-07   9.53368413E-06   5.80671852E-01   7.20322801E-05   1.27115788E-02   5.56630062E-10   4.95779604E-01   2.96603265E-02   1.89827055E-08   4.23719295E-04   1.80080700E-06   4.13126312E-05   9.93301992E-03
   1.38250000E+03   5.00000000E-01   5.00000000E-01  -5.35270097E-04   9.91244185E-09   5.04478867E-03   1.62401178E-02   4.60618519E-02   4.01450019E-03   9.32817744E-14   2.12412155E-07   9.55854696E-06   5.82186182E-01   7.22201326E-05   1.27447293E-02   5.69967376E-10   4.96916765E-01   2.97376505E-02   1.90299702E-08   4.24824309E-04   1.80550331E-06   4.14203701E-05   3.64752299E-03
   1.41750000E+03   5.00000000E-01   5.00000000E-01  -5.00420822E-04   1.13664389E-08   5.05819894E-03   1.44967509E-02   4.72609574E-02   4.63521366E-03   6.52191421E-14   2.12976798E-07   9.58395589E-06   5.83733774E-01   7.24121112E-05   1.27786079E-02   5.83412264E-10   4.98400954E-01   2.98166374E-02   1.90783076E-08   4.25953595E-04   1.81030278E-06   4.15304755E-05   3.75455550E-03
   1.45250000E+03   5.00000000E-01   5.00000000E-01  -4.65101779E-04   1.29319848E-08   5.07190003E-03   1.29273669E-02   4.84934496E-02   5.05934355E-03   4.52479061E-14   2.13553685E-07   9.60991585E-06   5.85314927E-01   7.26082531E-05   1.28132211E-02   5.96966988E-10   4.99899175E-01   2.98972452E-02   1.91277273E-08   4.27107371E-04   1.81520633E-06   4.16429687E-05   3.91389044E-03
   1.48750000E+03   5.00000000E-01   5.00000000E-01  -4.36352345E-04   1.22834058E-08   5.08589470E-03   1.16226818E-02   4.97590191E-02   5.19882935E-03   3.37918024E-14   2.14142935E-07   9.63643206E-06   5.86929961E-01   7.28085978E-05   1.28485761E-02   6.10633854E-10   5.01413799E-01   2.99793262E-02   1.91782392E-08   4.28285869E-04   1.82021495E-06   4.17578723E-05   4.38670655E-03
   1.52250000E+03   5.00000000E-01   5.00000000E-01  -4.09065877E-04   1.04422826E-08   5.10018590E-03   1.05942205E-02   5.10573646E-02   5.04296847E-03   2.71762018E-14   2.14744669E-07   9.66351012E-06   5.88579215E-01   7.30131876E-05   1.28846802E-02   6.24415220E-10   5.02938039E-01   3.00623966E-02   1.92298540E-08   4.29489339E-04   1.82532969E-06   4.18752105E-05   5.13671457E-03
   1.55750000E+03   5.00000000E-01   5.00000000E-01  -3.76364450E-04   1.01269107E-08   5.11477673E-03   9.67372051E-03   5.23870431E-02   4.76300105E-03   2.11888195E-14   2.15359020E-07   9.69115591E-06   5.90263048E-01   7.32220669E-05   1.29215412E-02   6.38313492E-10   5.04459053E-01   3.01448378E-02   1.92825833E-08   4.30718040E-04   1.83055167E-06   4.19950089E-05   5.69791403E-03
   1.59250000E+03   5.00000000E-01   5.00000000E-01  -3.43522478E-04   1.06073703E-08   5.12967049E-03   8.76815537E-03   5.37425127E-02   4.45089145E-03   1.57776594E-14   2.15986126E-07   9.71937566E-06   5.91981839E-01   7.34352827E-05   1.29591675E-02   6.52331126E-10   5.05984235E-01   3.02209187E-02   1.93364388E-08   4.31972251E-04   1.83588207E-06   4.21172945E-05   6.11904332E-03
   1.62750000E+03   5.00000000E-01   5.00000000E-01  -3.12077520E-04   1.20541743E-08   5.14487062E-03   7.82947739E-03   5.51023751E-02   4.15670051E-03   1.09205316E-14   2.16626131E-07   9.74817591E-06   5.93735987E-01   7.36528846E-05   1.29975679E-02   6.66470632E-10   5.07510836E-01   3.02689160E-02   1.93914333E-08   4.33252263E-04   1.84132212E-06   4.22420956E-05   6.36221898E-03
   1.66250000E+03   5.00000000E-01   5.00000000E-01  -2.82298871E-04   1.55293030E-08   5.16038075E-03   6.82473562E-03   5.63792662E-02   3.91909933E-03   6.73756362E-15   2.17279189E-07   9.77756352E-06   5.95525911E-01   7.38749244E-05   1.30367514E-02   6.80734574E-10   5.09027218E-01   3.02010298E-02   1.94475801E-08   4.34558379E-04   1.84687311E-06   4.23694419E-05   6.30836989E-03
   1.69750000E+03   5.00000000E-01   5.00000000E-01  -2.56173657E-04   2.31494005E-08   5.17620467E-03   5.74551663E-03   5.72129421E-02   3.74715222E-03   3.58612253E-15   2.17945460E-07   9.80754569E-06   5.97352046E-01   7.41014563E-05   1.30767276E-02   6.95125573E-10   5.10532518E-01   2.96560306E-02   1.95048929E-08   4.35890919E-04   1.85253641E-06   4.24993646E-05   5.93354806E-03
   1.73250000E+03   5.00000000E-01   5.00000000E-01  -2.39617023E-04   3.69639001E-08   5.19234634E-03   4.64016518E-03   5.63715867E-02   3.58140156E-03   1.69424134E-15   2.18625109E-07   9.83812991E-06   5.99214851E-01   7.43325371E-05   1.31175065E-02   7.09646312E-10   5.12052969E-01   2.74009286E-02   1.95633864E-08   4.37250218E-04   1.85831343E-06   4.26318963E-05   5.50455937E-03
   1.76750000E+03   5.00000000E-01   5.00000000E-01  -2.41800644E-04   5.04288990E-08   5.20880989E-03   3.63655652E-03   5.21431050E-02   3.27465177E-03   8.30027768E-16   2.19318311E-07   9.86932401E-06   6.01114803E-01   7.45682258E-05   1.31590987E-02   7.24299536E-10   5.13630887E-01   2.17206363E-02   1.96230757E-08   4.38636623E-04   1.86420565E-06   4.27670707E-05   5.53972669E-03
   1.80250000E+03   5.00000000E-01   5.00000000E-01  -2.52452272E-04   6.22619469E-08   5.22559963E-03   2.76491890E-03   4.62847923E-02   2.81282939E-03   3.83617068E-16   2.20025248E-07   9.90113614E-06   6.03052397E-01   7.48085842E-05   1.32015149E-02   7.39088059E-10   5.15218320E-01   1.43695204E-02   1.96839765E-08   4.40050495E-04   1.87021461E-06   4.29049233E-05   6.14862811E-03
   1.83750000E+03   5.00000000E-01   5.00000000E-01  -2.66941998E-04   7.68975479E-08   5.24272003E-03   2.01051160E-03   4.21234475E-02   2.26246170E-03   1.43911474E-16   2.20746107E-07   9.93357480E-06   6.05028151E-01   7.50536763E-05   1.32447664E-02   7.54014757E-10   5.16706424E-01   8.67381320E-03   1.97461054E-08   4.41492213E-04   1.87634191E-06   4.30454908E-05   6.96295580E-03
   1.87250000E+03   5.00000000E-01   5.00000000E-01  -2.92714055E-04   1.00582437E-07   5.26017575E-03   1.35907888E-03   4.02972628E-02   1.67511920E-03   4.03006728E-17   2.21481084E-07   9.96664878E-06   6.07042601E-01   7.53035686E-05   1.32888650E-02   7.69082577E-10   5.18029456E-01   5.27217361E-03   1.98094794E-08   4.42962168E-04   1.88258921E-06   4.31888114E-05   7.37334630E-03
   1.90750000E+03   5.00000000E-01   5.00000000E-01  -3.36908938E-04   1.64673093E-07   5.27797160E-03   7.88264907E-04   4.00626829E-02   1.11417515E-03   5.98324157E-18   2.22230383E-07   1.00003672E-05   6.09096304E-01   7.55583303E-05   1.33338230E-02   7.84294535E-10   5.19121021E-01   3.42507177E-03   1.98741163E-08   4.44460766E-04   1.88895826E-06   4.33349247E-05   7.21916252E-03
   1.94250000E+03   5.00000000E-01   5.00000000E-01  -4.26733367E-04   3.84575846E-07   5.29611260E-03   3.53984956E-04   4.06766287E-02   6.21018117E-04   3.33091710E-19   2.22994215E-07   1.00347397E-05   6.11189839E-01   7.58180331E-05   1.33796529E-02   7.99653722E-10   5.19896253E-01   2.43058637E-03   1.99400345E-08   4.45988430E-04   1.89545083E-06   4.34838719E-05   6.29844247E-03
   1.97750000E+03   5.00000000E-01   5.00000000E-01  -8.14645198E-04   6.36145933E-07   5.31460395E-03   8.42959778E-05   4.16875389E-02   1.37388801E-04   3.18885754E-21   2.23772798E-07   1.00697759E-05   6.13323805E-01   7.60827513E-05   1.34263679E-02   8.15163309E-10   5.20743632E-01   1.87448429E-03   2.00072530E-08   4.47545596E-04   1.90206878E-06   4.36356956E-05   5.50603216E-03
   2.01250000E+03   5.00000000E-01   5.00000000E-01  -2.10846698E-03   9.42133750E-07   5.33345102E-03   8.78768351E-06   4.27859490E-02   9.36272861E-06   2.47134569E-24   2.24566359E-07   1.01054861E-05   6.15498822E-01   7.63525619E-05   1.34739815E-02   8.30826549E-10   5.21715607E-01   1.54501160E-03   2.00757918E-08   4.49132717E-04   1.90881405E-06   4.37904399E-05   4.96933365E-03
   2.04750000E+03   5.00000000E-01   5.00000000E-01  -2.96373541E-03   1.66740454E-06   5.35265937E-03   2.68636027E-06   4.34764506E-02   2.77058185E-06   5.66899842E-26   2.25375131E-07   1.01418809E-05   6.17715533E-01   7.66275447E-05   1.35225079E-02   8.46646767E-10   5.22970283E-01   1.33933311E-03   2.01456712E-08   4.50750263E-04   1.91568862E-06   4.39481506E-05   4.07089080E-03
   2.08250000E+03   5.00000000E-01   5.00000000E-01  -3.39975031E-03   2.54738878E-06   5.37223478E-03   1.46283071E-06   4.38554755E-02   1.61899097E-06   9.07203138E-27   2.26199359E-07   1.01789712E-05   6.19974603E-01   7.69077821E-05   1.35719615E-02   8.62627373E-10   5.24584355E-01   1.20133362E-03   2.02169125E-08   4.52398718E-04   1.92269455E-06   4.41088750E-05   3.30698424E-03
   2.11750000E+03   5.00000000E-01   5.00000000E-01  -3.67070392E-03   3.42103736E-06   5.39218320E-03   9.92925127E-07   4.40789673E-02   1.17366116E-06   3.07539590E-27   2.27039292E-07   1.02167682E-05   6.22276720E-01   7.71933594E-05   1.36223575E-02   8.78771869E-10   5.26458231E-01   1.10062795E-03   2.02895376E-08   4.54078585E-04   1.92983399E-06   4.42726620E-05   2.79010370E-03
   2.15250000E+03   5.00000000E-01   5.00000000E-01  -3.85483897E-03   4.27352120E-06   5.41251079E-03   7.51507495E-07   4.42142059E-02   9.44359397E-07   1.49141590E-27   2.27895191E-07   1.02552836E-05   6.24622595E-01   7.74843649E-05   1.36737115E-02   8.95083849E-10   5.28506573E-01   1.02132092E-03   2.03635693E-08   4.55790382E-04   1.93710912E-06   4.44395622E-05   2.44145525E-03
   2.18750000E+03   5.00000000E-01   5.00000000E-01  -3.98331276E-03   5.10903968E-06   5.43322392E-03   6.07453254E-07   4.42940099E-02   8.09503361E-07   8.92253192E-28   2.28767323E-07   1.02945295E-05   6.27012963E-01   7.77808899E-05   1.37260394E-02   9.11567001E-10   5.30679537E-01   9.55123624E-04   2.04390310E-08   4.57534646E-04   1.94452225E-06   4.46096280E-05   2.19678452E-03
   2.22250000E+03   5.00000000E-01   5.00000000E-01  -4.07279451E-03   5.93545680E-06   5.45432919E-03   5.12782440E-07   4.43369317E-02   7.23631114E-07   6.11564831E-28   2.29655966E-07   1.03345185E-05   6.29448585E-01   7.80830284E-05   1.37793580E-02   9.28225110E-10   5.32948808E-01   8.97643191E-04   2.05159470E-08   4.59311932E-04   1.95207571E-06   4.47829134E-05   2.01762809E-03
   2.25750000E+03   5.00000000E-01   5.00000000E-01  -4.13352566E-03   6.76165035E-06   5.47583339E-03   4.46008974E-07   4.43543968E-02   6.65931802E-07   4.59919967E-28   2.30561406E-07   1.03752633E-05   6.31930244E-01   7.83908780E-05   1.38336844E-02   9.45062063E-10   5.35297800E-01   8.46479154E-04   2.05943424E-08   4.61122812E-04   1.95977195E-06   4.49594741E-05   1.88132297E-03
   2.29250000E+03   5.00000000E-01   5.00000000E-01  -4.17226871E-03   7.59660052E-06   5.49774355E-03   3.96244910E-07   4.43538500E-02   6.25657204E-07   3.69247286E-28   2.31483939E-07   1.04167773E-05   6.34458753E-01   7.87045392E-05   1.38890363E-02   9.62081852E-10   5.37716446E-01   8.00255448E-04   2.06742430E-08   4.62967878E-04   1.96761348E-06   4.51393681E-05   1.77408066E-03
   2.32750000E+03   5.00000000E-01   5.00000000E-01  -4.19372191E-03   8.44905200E-06   5.52006693E-03   3.57472382E-07   4.43403445E-02   5.96763293E-07   3.10771594E-28   2.32423871E-07   1.04590742E-05   6.37034948E-01   7.90241160E-05   1.39454322E-02   9.79288575E-10   5.40198454E-01   7.58122223E-04   2.07556757E-08   4.64847741E-04   1.97560290E-06   4.53226548E-05   1.68719071E-03
   2.36250000E+03   5.00000000E-01   5.00000000E-01  -4.20128627E-03   9.32742836E-06   5.54281102E-03   3.26140747E-07   4.43174253E-02   5.75623536E-07   2.70777612E-28   2.33381517E-07   1.05021683E-05   6.39659696E-01   7.93497157E-05   1.40028910E-02   9.96686446E-10   5.42739828E-01   7.19508428E-04   2.08386680E-08   4.66763033E-04   1.98374289E-06   4.55093958E-05   1.61495729E-03
   2.39750000E+03   5.00000000E-01   5.00000000E-01  -4.19751056E-03   1.02398583E-05   5.56598357E-03   3.00045802E-07   4.42876636E-02   5.59947732E-07   2.42096906E-28   2.34357203E-07   1.05460741E-05   6.42333889E-01   7.96814490E-05   1.40614322E-02   1.01427979E-09   5.45338027E-01   6.84010358E-04   2.09232486E-08   4.68714406E-04   1.99203623E-06   4.56996546E-05   1.55354305E-03
   2.43250000E+03   5.00000000E-01   5.00000000E-01  -4.18436256E-03   1.11942540E-05   5.58959257E-03   2.77762733E-07   4.42529779E-02   5.48229209E-07   2.20700906E-28   2.35351266E-07   1.05908070E-05   6.45058450E-01   8.00194305E-05   1.41210760E-02   1.03207307E-09   5.47991466E-01   6.51328704E-04   2.10094469E-08   4.70702532E-04   2.00048576E-06   4.58934969E-05   1.50029637E-03
   2.46750000E+03   5.00000000E-01   5.00000000E-01  -4.16340115E-03   1.21984119E-05   5.61364627E-03   2.58339845E-07   4.42148238E-02   5.39443696E-07   2.04190503E-28   2.36364054E-07   1.06363824E-05   6.47834331E-01   8.03637782E-05   1.41818432E-02   1.05007084E-09   5.50699218E-01   6.21219543E-04   2.10972933E-08   4.72728107E-04   2.00909446E-06   4.60909905E-05   1.45334545E-03
   2.50250000E+03   5.00000000E-01   5.00000000E-01  -4.13588928E-03   1.32601184E-05   5.63815320E-03   2.41124096E-07   4.41743234E-02   5.32876616E-07   1.91068842E-28   2.37395924E-07   1.06828166E-05   6.50662515E-01   8.07146142E-05   1.42437555E-02   1.06827782E-09   5.53460820E-01   5.93471209E-04   2.11868194E-08   4.74791848E-04   2.01786536E-06   4.62922052E-05   1.41134487E-03
   2.53750000E+03   5.00000000E-01   5.00000000E-01  -4.10287027E-03   1.43872467E-05   5.66312215E-03   2.25657129E-07   4.41323570E-02   5.28019472E-07   1.80366411E-28   2.38447248E-07   1.07301262E-05   6.53544019E-01   8.10720645E-05   1.43068349E-02   1.08669885E-09   5.56276150E-01   5.67895741E-04   2.12780575E-08   4.76894497E-04   2.02680161E-06   4.64972134E-05   1.37331299E-03
   2.57250000E+03   5.00000000E-01   5.00000000E-01  -4.06522061E-03   1.55878259E-05   5.68856221E-03   2.11610815E-07   4.40896210E-02   5.24504886E-07   1.71436134E-28   2.39518409E-07   1.07783284E-05   6.56479891E-01   8.14362590E-05   1.43711045E-02   1.10533889E-09   5.59145347E-01   5.44319074E-04   2.13710412E-08   4.79036818E-04   2.03590648E-06   4.67060897E-05   1.33852620E-03
   2.60750000E+03   5.00000000E-01   5.00000000E-01  -4.02368579E-03   1.68700980E-05   5.71448276E-03   1.98746215E-07   4.40466714E-02   5.22065273E-07   1.63836187E-28   2.40609800E-07   1.08274410E-05   6.59471212E-01   8.18073321E-05   1.44365880E-02   1.12420309E-09   5.62068755E-01   5.22579077E-04   2.14658052E-08   4.81219601E-04   2.04518330E-06   4.69189111E-05   1.30644752E-03