 TITLE = "Total Concentrations" 
VARIABLES = "X"          "Y"              "Z"            "H+"             "Al+++"          "CO2(aq)"        "Mg++"           "Ca++"           "Fe++"           "Fe+++"          "Ba++"           "Sr++"           "Cl-"            "F-"             "K+"             "HS-"            "Na+"            "SO4--"          "O2(aq)"         "B(OH)3(aq)"     "HPO4--"         "NO3-"           "H4SiO4(aq)"    
 ZONE I=         100 , J=           1 , K=           1  F=POINT
   1.75000000E+01   5.00000000E-01   5.00000000E-01  -4.62632939E-03   2.21972823E-12   4.75000053E-03   5.04860321E-02   1.74091403E-02   2.20723065E-05   2.71492523E-13   2.00000022E-07   9.00000100E-06   5.48166604E-01   6.80000076E-05   1.20000013E-02   1.00000011E-10   4.74189669E-01   3.45696133E-02   1.80000020E-04   4.00000045E-04   1.70000019E-06   3.90000043E-05   6.38984329E-04
   5.25000000E+01   5.00000000E-01   5.00000000E-01  -4.58268601E-03   3.06930730E-12   4.75014842E-03   4.99362579E-02   2.37487546E-02   4.41166068E-05   1.15842209E-13   2.00006249E-07   9.00028122E-06   5.48183671E-01   6.80021248E-05   1.20003750E-02   1.00003125E-10   4.74340125E-01   4.04701993E-02   1.80005624E-04   4.00012499E-04   1.70005312E-06   3.90012186E-05   8.91084389E-04
   8.75000000E+01   5.00000000E-01   5.00000000E-01  -4.55713678E-03   3.60344560E-12   4.75058151E-03   4.94119804E-02   2.92608068E-02   6.61609023E-05   8.12703576E-14   2.00024485E-07   9.00110182E-06   5.48233652E-01   6.80083248E-05   1.20014691E-02   1.00012242E-10   4.74491744E-01   4.55441546E-02   1.80022036E-04   4.00048970E-04   1.70020812E-06   3.90047745E-05   1.02313628E-03
   1.22500000E+02   5.00000000E-01   5.00000000E-01  -4.53533873E-03   4.18399625E-12   4.75128379E-03   4.88974913E-02   3.38464670E-02   8.82070159E-05   6.72964004E-14   2.00054054E-07   9.00243244E-06   5.48314697E-01   6.80183784E-05   1.20032433E-02   1.00027027E-10   4.74659519E-01   4.96925165E-02   1.80048649E-04   4.00108108E-04   1.70045946E-06   3.90105406E-05   1.10587058E-03
   1.57500000E+02   5.00000000E-01   5.00000000E-01  -4.51353178E-03   4.85782909E-12   4.75224091E-03   4.83872439E-02   3.74809383E-02   1.10256636E-04   6.09491171E-14   2.00094354E-07   9.00424593E-06   5.48425151E-01   6.80320803E-05   1.20056612E-02   1.00047177E-10   4.74848920E-01   5.28903663E-02   1.80084919E-04   4.00188708E-04   1.70080201E-06   3.90183990E-05   1.17010790E-03
   1.92500000E+02   5.00000000E-01   5.00000000E-01  -4.49040664E-03   5.63467618E-12   4.75344002E-03   4.78790163E-02   4.02075048E-02   1.32311314E-04   5.85825000E-14   2.00144843E-07   9.00651793E-06   5.48563533E-01   6.80492466E-05   1.20086906E-02   1.00072421E-10   4.75061403E-01   5.51808760E-02   1.80130359E-04   4.00289686E-04   1.70123117E-06   3.90282444E-05   1.22817723E-03
   2.27500000E+02   5.00000000E-01   5.00000000E-01  -4.46538748E-03   6.52378669E-12   4.75486958E-03   4.73717872E-02   4.21186446E-02   1.54372466E-04   5.87409877E-14   2.00205035E-07   9.00922658E-06   5.48728510E-01   6.80697119E-05   1.20123021E-02   1.00102518E-10   4.75296923E-01   5.66564210E-02   1.80184532E-04   4.00410070E-04   1.70174280E-06   3.90399818E-05   1.28498629E-03
   2.62500000E+02   5.00000000E-01   5.00000000E-01  -4.43815551E-03   7.53697668E-12   4.75651919E-03   4.68649981E-02   4.33334432E-02   1.76441376E-04   6.07414957E-14   2.00274492E-07   9.01235216E-06   5.48918881E-01   6.80933274E-05   1.20164695E-02   1.00137246E-10   4.75554910E-01   5.74359913E-02   1.80247043E-04   4.00548985E-04   1.70233319E-06   3.90535260E-05   1.34251613E-03
   2.97500000E+02   5.00000000E-01   5.00000000E-01  -4.40848746E-03   8.68838554E-12   4.75837947E-03   4.63582788E-02   4.39779875E-02   1.98519204E-04   6.42382115E-14   2.00352820E-07   9.01587689E-06   5.49133563E-01   6.81199587E-05   1.20211692E-02   1.00176410E-10   4.75834643E-01   5.76455854E-02   1.80317538E-04   4.00705640E-04   1.70299897E-06   3.90687999E-05   1.40157986E-03
   3.32500000E+02   5.00000000E-01   5.00000000E-01  -4.37619652E-03   9.99421812E-12   4.76044193E-03   4.58513407E-02   4.41738053E-02   2.20606995E-04   6.90464423E-14   2.00439660E-07   9.01978471E-06   5.49371578E-01   6.81494844E-05   1.20263796E-02   1.00219830E-10   4.76135389E-01   5.74066489E-02   1.80395694E-04   4.00879320E-04   1.70373711E-06   3.90857337E-05   1.46251472E-03
   3.67500000E+02   5.00000000E-01   5.00000000E-01  -4.34111003E-03   1.14726760E-11   4.76269889E-03   4.53439344E-02   4.40299451E-02   2.42705697E-04   7.50637889E-14   2.00534690E-07   9.02406106E-06   5.49632039E-01   6.81817946E-05   1.20320814E-02   1.00267345E-10   4.76456450E-01   5.68281533E-02   1.80481221E-04   4.01069380E-04   1.70454487E-06   3.91042646E-05   1.52546035E-03
   4.02500000E+02   5.00000000E-01   5.00000000E-01  -4.30306069E-03   1.31439890E-11   4.76514339E-03   4.48358319E-02   4.36333838E-02   2.64816165E-04   8.22498603E-14   2.00637617E-07   9.02869275E-06   5.49914143E-01   6.82167897E-05   1.20382570E-02   1.00318808E-10   4.76797183E-01   5.59970032E-02   1.80573855E-04   4.01275233E-04   1.70541974E-06   3.91243352E-05   1.59047474E-03
   4.37500000E+02   5.00000000E-01   5.00000000E-01  -4.26188533E-03   1.50305557E-11   4.76776912E-03   4.43268195E-02   4.30522768E-02   2.86939171E-04   9.06001394E-14   2.00748173E-07   9.03366780E-06   5.50217161E-01   6.82543790E-05   1.20448904E-02   1.00374087E-10   4.77157002E-01   5.49812862E-02   1.80673356E-04   4.01496347E-04   1.70635947E-06   3.91458938E-05   1.65758269E-03
   4.72500000E+02   5.00000000E-01   5.00000000E-01  -4.21742642E-03   1.71571243E-11   4.77057031E-03   4.38166961E-02   4.23393758E-02   3.09075409E-04   1.00131219E-13   2.00866119E-07   9.03897533E-06   5.50540429E-01   6.82944803E-05   1.20519671E-02   1.00433059E-10   4.77535372E-01   5.38336898E-02   1.80779507E-04   4.01732237E-04   1.70736201E-06   3.91688931E-05   1.72679643E-03
   5.07500000E+02   5.00000000E-01   5.00000000E-01  -4.16953480E-03   1.95510087E-11   4.77354176E-03   4.33052730E-02   4.15350984E-02   3.31225498E-04   1.10872004E-13   2.00991232E-07   9.04460543E-06   5.50883344E-01   6.83370188E-05   1.20594739E-02   1.00495616E-10   4.77931808E-01   5.25945707E-02   1.80892109E-04   4.01982464E-04   1.70842547E-06   3.91932902E-05   1.79812445E-03
   5.42500000E+02   5.00000000E-01   5.00000000E-01  -4.11807298E-03   2.22423326E-11   4.77667868E-03   4.27923745E-02   4.06701522E-02   3.53389991E-04   1.22858013E-13   2.01123313E-07   9.05054908E-06   5.51245356E-01   6.83819264E-05   1.20673988E-02   1.00561656E-10   4.78345871E-01   5.12945787E-02   1.81010982E-04   4.02246626E-04   1.70954816E-06   3.92190460E-05   1.87157533E-03
   5.77500000E+02   5.00000000E-01   5.00000000E-01  -4.06291890E-03   2.52643049E-11   4.77997675E-03   4.22778396E-02   3.97677017E-02   3.75569369E-04   1.36127356E-13   2.01262179E-07   9.05679806E-06   5.51625965E-01   6.84291409E-05   1.20757307E-02   1.00631090E-10   4.78777158E-01   4.99568230E-02   1.81135961E-04   4.02524358E-04   1.71072852E-06   3.92461249E-05   1.94715946E-03
   6.12500000E+02   5.00000000E-01   5.00000000E-01  -4.00396978E-03   2.86535252E-11   4.78343201E-03   4.17615233E-02   3.88451142E-02   3.97764053E-04   1.50717584E-13   2.01407664E-07   9.06334487E-06   5.52024714E-01   6.84786056E-05   1.20844598E-02   1.00703832E-10   4.79225304E-01   4.85986182E-02   1.81266897E-04   4.02815327E-04   1.71196514E-06   3.92744944E-05   2.02488981E-03
   6.47500000E+02   5.00000000E-01   5.00000000E-01  -3.94114612E-03   3.24503247E-11   4.78704085E-03   4.12432984E-02   3.79153413E-02   4.19974400E-04   1.66663007E-13   2.01559615E-07   9.07018267E-06   5.52441186E-01   6.85302691E-05   1.20935769E-02   1.00779807E-10   4.79689975E-01   4.72328653E-02   1.81403653E-04   4.03119230E-04   1.71325673E-06   3.93041249E-05   2.10478226E-03
   6.82500000E+02   5.00000000E-01   5.00000000E-01  -3.87439558E-03   3.66991429E-11   4.79079999E-03   4.07230572E-02   3.69879951E-02   4.42200710E-04   1.83992241E-13   2.01717894E-07   9.07730524E-06   5.52875003E-01   6.85840840E-05   1.21030736E-02   1.00858947E-10   4.80170864E-01   4.58691275E-02   1.81546105E-04   4.03435788E-04   1.71460210E-06   3.93349894E-05   2.18685591E-03
   7.17500000E+02   5.00000000E-01   5.00000000E-01  -3.80369676E-03   4.14489465E-11   4.79470640E-03   4.02007136E-02   3.60701759E-02   4.64443225E-04   2.02725847E-13   2.01882375E-07   9.08470687E-06   5.53325818E-01   6.86400075E-05   1.21129425E-02   1.00941187E-10   4.80667689E-01   4.45144581E-02   1.81694137E-04   4.03764750E-04   1.71600019E-06   3.93670631E-05   2.27113315E-03
   7.52500000E+02   5.00000000E-01   5.00000000E-01  -3.72906265E-03   4.67536912E-11   4.79875737E-03   3.96762040E-02   3.51671031E-02   4.86702137E-04   2.22874032E-13   2.02052942E-07   9.09238239E-06   5.53793314E-01   6.86980003E-05   1.21231765E-02   1.01026471E-10   4.81180188E-01   4.31740312E-02   1.81847648E-04   4.04105884E-04   1.71745001E-06   3.94003237E-05   2.35763987E-03
   7.87500000E+02   5.00000000E-01   5.00000000E-01  -3.65054368E-03   5.26728325E-11   4.80295040E-03   3.91494892E-02   3.42825915E-02   5.08977591E-04   2.44434381E-13   2.02229490E-07   9.10032707E-06   5.54277203E-01   6.87580268E-05   1.21337694E-02   1.01114745E-10   4.81708122E-01   4.18516175E-02   1.82006541E-04   4.04458981E-04   1.71895067E-06   3.94347506E-05   2.44640555E-03
   8.22500000E+02   5.00000000E-01   5.00000000E-01  -3.56823015E-03   5.92718859E-11   4.80728320E-03   3.86205551E-02   3.34194081E-02   5.31269692E-04   2.67389677E-13   2.02411924E-07   9.10853659E-06   5.54777224E-01   6.88200543E-05   1.21447155E-02   1.01205962E-10   4.82251264E-01   4.05499411E-02   1.82170732E-04   4.04823849E-04   1.72050136E-06   3.94703252E-05   2.53746331E-03
   8.57500000E+02   5.00000000E-01   5.00000000E-01  -3.48225399E-03   6.66230414E-11   4.81175372E-03   3.80894139E-02   3.25795382E-02   5.53578508E-04   2.91705831E-13   2.02600157E-07   9.11700704E-06   5.55293137E-01   6.88840532E-05   1.21560094E-02   1.01300078E-10   4.82809407E-01   3.92709455E-02   1.82340141E-04   4.05200313E-04   1.72210133E-06   3.95070305E-05   2.63084992E-03
   8.92500000E+02   5.00000000E-01   5.00000000E-01  -3.39278987E-03   7.48057954E-11   4.81636006E-03   3.75561039E-02   3.17643822E-02   5.75904086E-04   3.17330207E-13   2.02794108E-07   9.12573486E-06   5.55824726E-01   6.89499967E-05   1.21676465E-02   1.01397054E-10   4.83382355E-01   3.80159907E-02   1.82514697E-04   4.05588216E-04   1.72374992E-06   3.95448511E-05   2.72660543E-03
   9.27500000E+02   5.00000000E-01   5.00000000E-01  -3.30005499E-03   8.39077290E-11   4.82110054E-03   3.70206895E-02   3.09749022E-02   5.98246449E-04   3.44189692E-13   2.02993707E-07   9.13471681E-06   5.56371793E-01   6.90178603E-05   1.21796224E-02   1.01496853E-10   4.83969923E-01   3.67859986E-02   1.82694336E-04   4.05987414E-04   1.72544651E-06   3.95837728E-05   2.82477335E-03
   9.62500000E+02   5.00000000E-01   5.00000000E-01  -3.20430818E-03   9.40252697E-11   4.82597359E-03   3.64832603E-02   3.02117292E-02   6.20605619E-04   3.72189517E-13   2.03198888E-07   9.14394996E-06   5.56934160E-01   6.90876219E-05   1.21919333E-02   1.01599444E-10   4.84571939E-01   3.55815616E-02   1.82878999E-04   4.06397776E-04   1.72719055E-06   3.96237832E-05   2.92540034E-03
   9.97500000E+02   5.00000000E-01   5.00000000E-01  -3.10584787E-03   1.05264521E-10   4.83097783E-03   3.59439298E-02   2.94752439E-02   6.42981618E-04   4.01212392E-13   2.03409593E-07   9.15343167E-06   5.57511666E-01   6.91592615E-05   1.22045756E-02   1.01704796E-10   4.85188240E-01   3.44030218E-02   1.83068633E-04   4.06819185E-04   1.72898154E-06   3.96648706E-05   3.02853574E-03
   1.03250000E+03   5.00000000E-01   5.00000000E-01  -3.00500908E-03   1.17742141E-10   4.83611199E-03   3.54028336E-02   2.87656356E-02   6.65374481E-04   4.31118115E-13   2.03625768E-07   9.16315956E-06   5.58104167E-01   6.92327612E-05   1.22175461E-02   1.01812884E-10   4.85818672E-01   3.32505310E-02   1.83263191E-04   4.07251536E-04   1.73081903E-06   3.97070248E-05   3.13423101E-03
   1.06750000E+03   5.00000000E-01   5.00000000E-01  -2.90215933E-03   1.31586279E-10   4.84137496E-03   3.48601270E-02   2.80829475E-02   6.87784271E-04   4.61743672E-13   2.03847367E-07   9.17313150E-06   5.58711532E-01   6.93081047E-05   1.22308420E-02   1.01923683E-10   4.86463092E-01   3.21240954E-02   1.83462630E-04   4.07694733E-04   1.73270262E-06   3.97502365E-05   3.24253893E-03
   1.10250000E+03   5.00000000E-01   5.00000000E-01  -2.79769365E-03   1.46937545E-10   4.84676572E-03   3.43159820E-02   2.74271105E-02   7.10211088E-04   4.92903878E-13   2.04074346E-07   9.18334558E-06   5.59333644E-01   6.93852777E-05   1.22444608E-02   1.02037173E-10   4.87121363E-01   3.10236094E-02   1.83666912E-04   4.08148692E-04   1.73463194E-06   3.97944975E-05   3.35351279E-03
   1.13750000E+03   5.00000000E-01   5.00000000E-01  -2.69202879E-03   1.63950028E-10   4.85228339E-03   3.37705839E-02   2.67979695E-02   7.32655078E-04   5.24392572E-13   2.04306669E-07   9.19380010E-06   5.59970402E-01   6.94642674E-05   1.22584001E-02   1.02153334E-10   4.87793357E-01   2.99488815E-02   1.83876002E-04   4.08613338E-04   1.73660669E-06   3.98398004E-05   3.46720545E-03
   1.17250000E+03   5.00000000E-01   5.00000000E-01  -2.58559675E-03   1.82792348E-10   4.85792716E-03   3.32241279E-02   2.61953037E-02   7.55116449E-04   5.55984341E-13   2.04544302E-07   9.20449357E-06   5.60621714E-01   6.95450626E-05   1.22726581E-02   1.02272151E-10   4.88478957E-01   2.88996553E-02   1.84089871E-04   4.09088603E-04   1.73862656E-06   3.98861388E-05   3.58366826E-03
   1.20750000E+03   5.00000000E-01   5.00000000E-01  -2.47883787E-03   2.03648734E-10   4.86369637E-03   3.26768147E-02   2.56188430E-02   7.77595477E-04   5.87436743E-13   2.04787215E-07   9.21542469E-06   5.61287500E-01   6.96276532E-05   1.22872329E-02   1.02393608E-10   4.89178050E-01   2.78756252E-02   1.84308494E-04   4.09574431E-04   1.74069133E-06   3.99335070E-05   3.70295010E-03
   1.24250000E+03   5.00000000E-01   5.00000000E-01  -2.37219369E-03   2.26720144E-10   4.86959040E-03   3.21288470E-02   2.50682810E-02   8.00092516E-04   6.18492970E-13   2.05035385E-07   9.22659233E-06   5.61967691E-01   6.97120309E-05   1.23021231E-02   1.02517693E-10   4.89890536E-01   2.68764499E-02   1.84531847E-04   4.10070770E-04   1.74280077E-06   3.99819001E-05   3.82509628E-03
   1.27750000E+03   5.00000000E-01   5.00000000E-01  -2.26609978E-03   2.52225406E-10   4.87560875E-03   3.15804249E-02   2.45432862E-02   8.22608008E-04   6.48884893E-13   2.05288789E-07   9.23799552E-06   5.62662230E-01   6.97981884E-05   1.23173274E-02   1.02644395E-10   4.90616322E-01   2.59017628E-02   1.84759910E-04   4.10577579E-04   1.74495471E-06   4.00313139E-05   3.95014752E-03
   1.31250000E+03   5.00000000E-01   5.00000000E-01  -2.16097879E-03   2.80402403E-10   4.88175099E-03   3.10317427E-02   2.40435103E-02   8.45142486E-04   6.78336406E-13   2.05547410E-07   9.24963346E-06   5.63371066E-01   6.98861194E-05   1.23328446E-02   1.02773705E-10   4.91355322E-01   2.49511810E-02   1.84992669E-04   4.11094820E-04   1.74715299E-06   4.00817450E-05   4.07813914E-03
   1.34750000E+03   5.00000000E-01   5.00000000E-01  -2.05723398E-03   3.11509290E-10   4.88801678E-03   3.04829845E-02   2.35685963E-02   8.67696582E-04   7.06566996E-13   2.05811233E-07   9.26150548E-06   5.64094160E-01   6.99758192E-05   1.23486740E-02   1.02905616E-10   4.92107464E-01   2.40243130E-02   1.85230110E-04   4.11622466E-04   1.74939548E-06   4.01331904E-05   4.20910021E-03
   1.38250000E+03   5.00000000E-01   5.00000000E-01  -1.95524343E-03   3.45825760E-10   4.89440585E-03   2.99343213E-02   2.31181845E-02   8.90271032E-04   7.33295470E-13   2.06080246E-07   9.27361108E-06   5.64831481E-01   7.00672837E-05   1.23648148E-02   1.03040123E-10   4.92872681E-01   2.31207647E-02   1.85472222E-04   4.12160492E-04   1.75168209E-06   4.01856480E-05   4.34305297E-03
   1.41750000E+03   5.00000000E-01   5.00000000E-01  -1.85535496E-03   3.83654378E-10   4.90091798E-03   2.93859084E-02   2.26919181E-02   9.12866674E-04   7.58243775E-13   2.06354441E-07   9.28594986E-06   5.65583004E-01   7.01605100E-05   1.23812665E-02   1.03177221E-10   4.93650918E-01   2.22401449E-02   1.85718997E-04   4.12708883E-04   1.75401275E-06   4.02391160E-05   4.48001242E-03
   1.45250000E+03   5.00000000E-01   5.00000000E-01  -1.75788218E-03   4.25321976E-10   4.90755305E-03   2.88378825E-02   2.22894472E-02   9.35484452E-04   7.81140861E-13   2.06633813E-07   9.29852156E-06   5.66348713E-01   7.02554963E-05   1.23980288E-02   1.03316906E-10   4.94442128E-01   2.13820696E-02   1.85970431E-04   4.13267625E-04   1.75638741E-06   4.02935934E-05   4.61998608E-03
   1.48750000E+03   5.00000000E-01   5.00000000E-01  -1.66310142E-03   4.71181141E-10   4.91431098E-03   2.82903607E-02   2.19104332E-02   9.58125415E-04   8.01726544E-13   2.06918357E-07   9.31132606E-06   5.67128602E-01   7.03522413E-05   1.24151014E-02   1.03459178E-10   4.95246276E-01   2.05461659E-02   1.86226521E-04   4.13836714E-04   1.75880603E-06   4.03490796E-05   4.76297396E-03
   1.52250000E+03   5.00000000E-01   5.00000000E-01  -1.57124986E-03   5.21611809E-10   4.92119175E-03   2.77434390E-02   2.15545517E-02   9.80790713E-04   8.19755341E-13   2.07208074E-07   9.32436332E-06   5.67922667E-01   7.04507451E-05   1.24324844E-02   1.03604037E-10   4.96063334E-01   1.97320751E-02   1.86487266E-04   4.14416148E-04   1.76126863E-06   4.04055744E-05   4.90896867E-03
   1.55750000E+03   5.00000000E-01   5.00000000E-01  -1.48252460E-03   5.77022976E-10   4.92819542E-03   2.71971916E-02   2.12214948E-02   1.00348160E-03   8.35000252E-13   2.07502965E-07   9.33763343E-06   5.68730915E-01   7.05510081E-05   1.24501779E-02   1.03751483E-10   4.96893286E-01   1.89394552E-02   1.86752669E-04   4.15005930E-04   1.76377520E-06   4.04630782E-05   5.05795579E-03
   1.59250000E+03   5.00000000E-01   5.00000000E-01  -1.39708281E-03   6.37854539E-10   4.93532209E-03   2.66516715E-02   2.09109735E-02   1.02619940E-03   8.47256467E-13   2.07803035E-07   9.35113659E-06   5.69553357E-01   7.06530320E-05   1.24681821E-02   1.03901518E-10   4.97736122E-01   1.81679828E-02   1.87022732E-04   4.15606071E-04   1.76632580E-06   4.05215919E-05   5.20991422E-03
   1.62750000E+03   5.00000000E-01   5.00000000E-01  -1.31504271E-03   7.04579299E-10   4.94257190E-03   2.61069104E-02   2.06227189E-02   1.04894557E-03   8.56344954E-13   2.08108291E-07   9.36487308E-06   5.70390011E-01   7.07568188E-05   1.24864974E-02   1.04054145E-10   4.98591844E-01   1.74173547E-02   1.87297462E-04   4.16216581E-04   1.76892047E-06   4.05811167E-05   5.36481677E-03
   1.66250000E+03   5.00000000E-01   5.00000000E-01  -1.23648537E-03   7.77705111E-10   4.94994507E-03   2.55629202E-02   2.03564835E-02   1.07172159E-03   8.62115912E-13   2.08418740E-07   9.37884330E-06   5.71240901E-01   7.08623716E-05   1.25051244E-02   1.04209370E-10   4.99460459E-01   1.66872888E-02   1.87576866E-04   4.16837480E-04   1.77155929E-06   4.06416543E-05   5.52263072E-03
   1.69750000E+03   5.00000000E-01   5.00000000E-01  -1.16145711E-03   8.57777220E-10   4.95744186E-03   2.50196938E-02   2.01120413E-02   1.09452905E-03   8.64452003E-13   2.08734394E-07   9.39304773E-06   5.72106056E-01   7.09696940E-05   1.25240636E-02   1.04367197E-10   5.00341986E-01   1.59775246E-02   1.87860955E-04   4.17468788E-04   1.77424235E-06   4.07032068E-05   5.68331842E-03
   1.73250000E+03   5.00000000E-01   5.00000000E-01  -1.08997238E-03   9.45380775E-10   4.96506256E-03   2.44772071E-02   1.98891882E-02   1.11736957E-03   8.63271314E-13   2.09055266E-07   9.40748695E-06   5.72985511E-01   7.10787903E-05   1.25433159E-02   1.04527633E-10   5.01236447E-01   1.52878234E-02   1.88149739E-04   4.18110531E-04   1.77696976E-06   4.07657768E-05   5.84683794E-03
   1.76750000E+03   5.00000000E-01   5.00000000E-01  -1.02201694E-03   1.04114355E-09   4.97280752E-03   2.39354204E-02   1.96877416E-02   1.14024482E-03   8.58529951E-13   2.09381369E-07   9.42216162E-06   5.73879307E-01   7.11896656E-05   1.25628822E-02   1.04690685E-10   5.02143876E-01   1.46179675E-02   1.88443232E-04   4.18762739E-04   1.77974164E-06   4.08293670E-05   6.01314357E-03
   1.80250000E+03   5.00000000E-01   5.00000000E-01  -9.57551269E-04   1.14573887E-09   4.98067715E-03   2.33942806E-02   1.95075392E-02   1.16315651E-03   8.50224163E-13   2.09712722E-07   9.43707249E-06   5.74787489E-01   7.13023255E-05   1.25827633E-02   1.04856361E-10   5.03064308E-01   1.39677596E-02   1.88741450E-04   4.19425444E-04   1.78255814E-06   4.08939808E-05   6.18218638E-03
   1.83750000E+03   5.00000000E-01   5.00000000E-01  -8.96514033E-04   1.25988876E-09   4.98867187E-03   2.28537228E-02   1.93484378E-02   1.18610632E-03   8.38391908E-13   2.10049342E-07   9.45222038E-06   5.75710108E-01   7.14167762E-05   1.26029605E-02   1.05024671E-10   5.03997789E-01   1.33370213E-02   1.89044408E-04   4.20098684E-04   1.78541941E-06   4.09596217E-05   6.35391465E-03
   1.87250000E+03   5.00000000E-01   5.00000000E-01  -8.38825481E-04   1.38436731E-09   4.99679217E-03   2.23136726E-02   1.92103118E-02   1.20909594E-03   8.23113722E-13   2.10391249E-07   9.46760621E-06   5.76647219E-01   7.15330247E-05   1.26234750E-02   1.05195625E-10   5.04944367E-01   1.27255913E-02   1.89352124E-04   4.20782498E-04   1.78832562E-06   4.10262936E-05   6.52827419E-03
   1.90750000E+03   5.00000000E-01   5.00000000E-01  -7.84390733E-04   1.52000436E-09   5.00503857E-03   2.17740475E-02   1.90930504E-02   1.23212702E-03   8.04512819E-13   2.10738466E-07   9.48323097E-06   5.77598882E-01   7.16510784E-05   1.26443080E-02   1.05369233E-10   5.05904097E-01   1.21333232E-02   1.89664619E-04   4.21476932E-04   1.79127696E-06   4.10940009E-05   6.70520860E-03
   1.94250000E+03   5.00000000E-01   5.00000000E-01  -7.33102876E-04   1.66768939E-09   5.01341163E-03   2.12347588E-02   1.89965553E-02   1.25520111E-03   7.82754320E-13   2.11091016E-07   9.49909572E-06   5.78565162E-01   7.17709454E-05   1.26654610E-02   1.05545508E-10   5.06877036E-01   1.15600827E-02   1.89981914E-04   4.22182032E-04   1.79427364E-06   4.11627481E-05   6.88465946E-03
   1.97750000E+03   5.00000000E-01   5.00000000E-01  -6.84845809E-04   1.82837582E-09   5.02191195E-03   2.06957135E-02   1.89207373E-02   1.27831968E-03   7.58043555E-13   2.11448924E-07   9.51520159E-06   5.79546129E-01   7.18926342E-05   1.26869355E-02   1.05724462E-10   5.07863249E-01   1.10057444E-02   1.90304032E-04   4.22897849E-04   1.79731586E-06   4.12325402E-05   7.06656635E-03
   2.01250000E+03   5.00000000E-01   5.00000000E-01  -6.39496830E-04   2.00308551E-09   5.03054018E-03   2.01568152E-02   1.88655131E-02   1.30148407E-03   7.30623414E-13   2.11812218E-07   9.53154981E-06   5.80541856E-01   7.20161541E-05   1.27087331E-02   1.05906109E-10   5.08862800E-01   1.04701883E-02   1.90630996E-04   4.23624436E-04   1.80040385E-06   4.13033825E-05   7.25086682E-03
   2.04750000E+03   5.00000000E-01   5.00000000E-01  -5.96928932E-04   2.19291385E-09   5.03929698E-03   1.96179662E-02   1.88308012E-02   1.32469540E-03   7.00770743E-13   2.12180926E-07   9.54814165E-06   5.81552422E-01   7.21415147E-05   1.27308555E-02   1.06090463E-10   5.09875759E-01   9.95329624E-03   1.90962833E-04   4.24361851E-04   1.80353787E-06   4.13752805E-05   7.43749630E-03
   2.08250000E+03   5.00000000E-01   5.00000000E-01  -5.57012813E-04   2.39903516E-09   5.04818308E-03   1.90790680E-02   1.88165182E-02   1.34795460E-03   6.68791843E-13   2.12555077E-07   9.56497848E-06   5.82577909E-01   7.22687263E-05   1.27533046E-02   1.06277539E-10   5.10902199E-01   9.45494748E-03   1.91299570E-04   4.25110154E-04   1.80671816E-06   4.14482401E-05   7.62638789E-03
   2.11750000E+03   5.00000000E-01   5.00000000E-01  -5.19618614E-04   2.62270868E-09   5.05719923E-03   1.85400225E-02   1.88225741E-02   1.37126229E-03   6.35017167E-13   2.12934705E-07   9.58206170E-06   5.83618404E-01   7.23977995E-05   1.27760823E-02   1.06467353E-10   5.11942194E-01   8.97501458E-03   1.91641234E-04   4.25869409E-04   1.80994499E-06   4.15222674E-05   7.81747206E-03
   2.15250000E+03   5.00000000E-01   5.00000000E-01  -4.84617390E-04   2.86528518E-09   5.06634622E-03   1.80007333E-02   1.88488684E-02   1.39461877E-03   5.99795343E-13   2.13319841E-07   9.59939283E-06   5.84673998E-01   7.25287458E-05   1.27991904E-02   1.06659922E-10   5.12995821E-01   8.51335912E-03   1.91987857E-04   4.26639681E-04   1.81321865E-06   4.15973689E-05   8.01067626E-03
   2.18750000E+03   5.00000000E-01   5.00000000E-01  -4.51882335E-04   3.12821431E-09   5.07562486E-03   1.74611061E-02   1.88952855E-02   1.41802391E-03   5.63486699E-13   2.13710520E-07   9.61697342E-06   5.85744786E-01   7.26615769E-05   1.28226312E-02   1.06855262E-10   5.14063158E-01   8.06982738E-03   1.92339468E-04   4.27421041E-04   1.81653942E-06   4.16735515E-05   8.20592455E-03
   2.22250000E+03   5.00000000E-01   5.00000000E-01  -4.21289792E-04   3.41305281E-09   5.08503602E-03   1.69210496E-02   1.89616909E-02   1.44147710E-03   5.26456495E-13   2.14106780E-07   9.63480509E-06   5.86830866E-01   7.27963051E-05   1.28464068E-02   1.07053392E-10   5.15144286E-01   7.64424629E-03   1.92696102E-04   4.28213560E-04   1.81990763E-06   4.17508221E-05   8.40313702E-03
   2.25750000E+03   5.00000000E-01   5.00000000E-01  -3.92720062E-04   3.72147382E-09   5.09458059E-03   1.63804761E-02   1.90479275E-02   1.46497715E-03   4.89068078E-13   2.14508657E-07   9.65288954E-06   5.87932343E-01   7.29329432E-05   1.28705194E-02   1.07254331E-10   5.16239285E-01   7.23641963E-03   1.93057791E-04   4.29017313E-04   1.82332358E-06   4.18291880E-05   8.60222918E-03
   2.29250000E+03   5.00000000E-01   5.00000000E-01  -3.66058044E-04   4.05527745E-09   5.10425951E-03   1.58393018E-02   1.91538120E-02   1.48852219E-03   4.51676199E-13   2.14916190E-07   9.67122854E-06   5.89049324E-01   7.30715045E-05   1.28949714E-02   1.07458098E-10   5.17348237E-01   6.84612474E-03   1.93424571E-04   4.29832380E-04   1.82678761E-06   4.19086570E-05   8.80311130E-03
   2.32750000E+03   5.00000000E-01   5.00000000E-01  -3.41193732E-04   4.41640293E-09   5.11407373E-03   1.52974479E-02   1.92791323E-02   1.51210953E-03   4.14620708E-13   2.15329420E-07   9.68982390E-06   5.90181919E-01   7.32120028E-05   1.29197652E-02   1.07664714E-10   5.18471226E-01   6.47310976E-03   1.93796478E-04   4.30658840E-04   1.83030007E-06   4.19892369E-05   9.00568757E-03
   2.36250000E+03   5.00000000E-01   5.00000000E-01  -3.18022591E-04   4.80694278E-09   5.12402425E-03   1.47548403E-02   1.94236456E-02   1.53573553E-03   3.78220838E-13   2.15748389E-07   9.70867753E-06   5.91330244E-01   7.33544524E-05   1.29449034E-02   1.07874199E-10   5.19608333E-01   6.11709153E-03   1.94173551E-04   4.31496779E-04   1.83386131E-06   4.20709360E-05   9.20985518E-03
   2.39750000E+03   5.00000000E-01   5.00000000E-01  -2.96445830E-04   5.22915933E-09   5.13411211E-03   1.42114108E-02   1.95870768E-02   1.55939539E-03   3.42770247E-13   2.16173141E-07   9.72779137E-06   5.92494418E-01   7.34988681E-05   1.29703885E-02   1.08086576E-10   5.20759642E-01   5.77775436E-03   1.94555827E-04   4.32346283E-04   1.83747170E-06   4.21537626E-05   9.41550326E-03
   2.43250000E+03   5.00000000E-01   5.00000000E-01  -2.76370606E-04   5.68550441E-09   5.14433837E-03   1.36670973E-02   1.97691184E-02   1.58308297E-03   3.08532959E-13   2.16603721E-07   9.74716744E-06   5.93674565E-01   7.36452651E-05   1.29962233E-02   1.08301867E-10   5.21925234E-01   5.45474953E-03   1.94943349E-04   4.33207442E-04   1.84113163E-06   4.22377256E-05   9.62251166E-03
   2.46750000E+03   5.00000000E-01   5.00000000E-01  -2.57710176E-04   6.17864294E-09   5.15470414E-03   1.31218442E-02   1.99694306E-02   1.60679051E-03   2.75740281E-13   2.17040174E-07   9.76680784E-06   5.94870810E-01   7.37936593E-05   1.30224105E-02   1.08520095E-10   5.23105191E-01   5.14769563E-03   1.95336157E-04   4.34080349E-04   1.84484148E-06   4.23228340E-05   9.83074946E-03
   2.50250000E+03   5.00000000E-01   5.00000000E-01  -2.40384005E-04   6.71148152E-09   5.16521055E-03   1.25756033E-02   2.01876426E-02   1.63050828E-03   2.44588732E-13   2.17482549E-07   9.78671472E-06   5.96083286E-01   7.39440668E-05   1.30489530E-02   1.08741284E-10   5.24299590E-01   4.85617983E-03   1.95734294E-04   4.34965099E-04   1.84860167E-06   4.24090971E-05   1.00400733E-02
   2.53750000E+03   5.00000000E-01   5.00000000E-01  -2.24317878E-04   7.28720363E-09   5.17585876E-03   1.20283348E-02   2.04233549E-02   1.65422417E-03   2.15238979E-13   2.17930895E-07   9.80689028E-06   5.97312127E-01   7.40965044E-05   1.30758537E-02   1.08965459E-10   5.25508510E-01   4.57975983E-03   1.96137806E-04   4.35861790E-04   1.85241261E-06   4.24965246E-05   1.02503253E-02
   2.57250000E+03   5.00000000E-01   5.00000000E-01  -2.09444004E-04   7.90931329E-09   5.18664999E-03   1.14800079E-02   2.06761414E-02   1.67792316E-03   1.87815705E-13   2.18385263E-07   9.82733682E-06   5.98557473E-01   7.42509893E-05   1.31031158E-02   1.09192645E-10   5.26732023E-01   4.31796652E-03   1.96546736E-04   4.36770525E-04   1.85627473E-06   4.25851262E-05   1.04613309E-02
   2.60750000E+03   5.00000000E-01   5.00000000E-01  -1.95701165E-04   8.58169025E-09   5.19758547E-03   1.09306021E-02   2.09455529E-02   1.70158660E-03   1.62408321E-13   2.18845704E-07   9.84805668E-06   5.99819465E-01   7.44075394E-05   1.31307422E-02   1.09422869E-10   5.27970199E-01   4.07030724E-03   1.96961134E-04   4.37691408E-04   1.86018848E-06   4.26749123E-05   1.06728955E-02