 TITLE = "Total Concentrations" 
VARIABLES = "X"          "Y"              "Z"            "H+"             "Al+++"          "CO2(aq)"        "Mg++"           "Ca++"           "Fe++"           "Fe+++"          "Ba++"           "Sr++"           "Li+"            "Rb+"            "Mn++"           "Zn++"           "Cu++"           "Cu+"            "Cl-"            "F-"             "K+"             "HS-"            "Na+"            "SO4--"          "O2(aq)"         "B(OH)3(aq)"     "HPO4--"         "NO3-"           "H4SiO4(aq)"     "Ti(OH)4(aq)"   
 ZONE I=         200 , J=           1 , K=           1  F=POINT
   8.75000000E+00   5.00000000E-01   5.00000000E-01  -4.68411699E-03   6.83795422E-13   4.74997155E-03   5.07978853E-02   1.05960569E-02   5.29554946E-05   1.61251043E-22   1.19046245E-07   8.99994824E-06   2.45998526E-05   1.39999161E-06   5.67634107E-06   3.88113719E-07   1.42214624E-09   1.21809093E-09   5.48189429E-01   6.79996184E-05   1.19999281E-02   1.27113236E-25   4.74033354E-01   2.79997513E-02   1.79997007E-08   3.99997604E-04   1.69998982E-06   3.89997664E-05   4.16132635E-04   2.09601334E-09
   2.62500000E+01   5.00000000E-01   5.00000000E-01  -4.60753334E-03   2.30971970E-12   4.74999810E-03   5.04895474E-02   1.07922886E-02   1.05871503E-04   6.60909336E-22   8.91530534E-08   9.00000071E-06   2.45999902E-05   1.39999944E-06   1.13471659E-05   7.00249728E-07   1.42430895E-09   1.21619578E-09   5.48192494E-01   6.80000246E-05   1.19999952E-02   1.45061929E-26   4.74066496E-01   2.79998780E-02   1.79996098E-08   3.99999840E-04   1.69999932E-06   3.89999844E-05   6.34966642E-04   2.10220075E-09
   4.37500000E+01   5.00000000E-01   5.00000000E-01  -4.55823128E-03   3.72756631E-12   4.75018787E-03   5.02002443E-02   1.09889437E-02   1.58762205E-04   1.34167572E-21   7.91981345E-08   9.00036241E-06   2.46009730E-05   1.40005537E-06   1.70203049E-05   1.01242527E-06   1.42652070E-09   1.21434214E-09   5.48214394E-01   6.80027676E-05   1.20004746E-02   3.26318297E-26   4.74108399E-01   2.80009866E-02   1.80001374E-08   4.00015821E-04   1.70006724E-06   3.90015425E-05   8.41259060E-04   2.10760143E-09
   6.12500000E+01   5.00000000E-01   5.00000000E-01  -4.52023168E-03   4.93248480E-12   4.75053372E-03   4.99238028E-02   1.11860221E-02   2.11621632E-04   2.12441682E-21   7.76462910E-08   9.00101986E-06   2.46027641E-05   1.40015731E-06   2.26962680E-05   1.32466660E-06   1.42877956E-09   1.21252803E-09   5.48254309E-01   6.80077454E-05   1.20013483E-02   6.63007621E-26   4.74154553E-01   2.80030238E-02   1.80012564E-08   4.00044945E-04   1.70019102E-06   3.90043821E-05   1.01540678E-03   2.11211423E-09
   7.87500000E+01   5.00000000E-01   5.00000000E-01  -4.48667087E-03   6.18679328E-12   4.75102913E-03   4.96570305E-02   1.13835308E-02   2.64448958E-04   3.02145711E-21   7.98989904E-08   9.00196068E-06   2.46053298E-05   1.40030332E-06   2.83755395E-05   1.63700100E-06   1.43108379E-09   1.21075157E-09   5.48311483E-01   6.80148645E-05   1.20025999E-02   1.28428423E-25   4.74203652E-01   2.80059463E-02   1.80029420E-08   4.00086663E-04   1.70036832E-06   3.90084497E-05   1.15221196E-03   2.11579639E-09
   9.62500000E+01   5.00000000E-01   5.00000000E-01  -4.45588909E-03   7.51457081E-12   4.75166807E-03   4.93980934E-02   1.15814780E-02   3.17242742E-04   4.01857759E-21   8.40222491E-08   9.00317345E-06   2.46086388E-05   1.40049164E-06   3.40585816E-05   1.94945455E-06   1.43343176E-09   1.20901107E-09   5.48385222E-01   6.80240387E-05   1.20042140E-02   2.40873340E-25   4.74256938E-01   2.80097168E-02   1.80051715E-08   4.00140469E-04   1.70059699E-06   3.90136957E-05   1.25701613E-03   2.11871961E-09
   1.13750000E+02   5.00000000E-01   5.00000000E-01  -4.42714876E-03   8.86812540E-12   4.75244499E-03   4.91450874E-02   1.17798706E-02   3.69999032E-04   5.09647058E-21   8.91657959E-08   9.00464767E-06   2.46126625E-05   1.40072063E-06   3.97458359E-05   2.26205191E-06   1.43582201E-09   1.20730495E-09   5.48474886E-01   6.80351885E-05   1.20061768E-02   4.40750676E-25   4.74316784E-01   2.80143017E-02   1.80079237E-08   4.00205894E-04   1.70087505E-06   3.90200747E-05   1.33912567E-03   2.12095368E-09
   1.31250000E+02   5.00000000E-01   5.00000000E-01  -4.39959675E-03   1.02210666E-11   4.75335479E-03   4.88961466E-02   1.19787142E-02   4.22712010E-04   6.25500225E-21   9.49407497E-08   9.00637365E-06   2.46173743E-05   1.40098878E-06   4.54377264E-05   2.57481667E-06   1.43825316E-09   1.20563174E-09   5.48579885E-01   6.80482407E-05   1.20084752E-02   7.91547254E-25   4.74385430E-01   2.80196704E-02   1.80111794E-08   4.00282508E-04   1.70120066E-06   3.90275446E-05   1.40722003E-03   2.12257087E-09
   1.48750000E+02   5.00000000E-01   5.00000000E-01  -4.37242119E-03   1.15700043E-11   4.75439272E-03   4.86497750E-02   1.21780130E-02   4.75374734E-04   7.50990532E-21   1.01162595E-07   9.00834243E-06   2.46227497E-05   1.40129470E-06   5.11346601E-05   2.88777144E-06   1.44072397E-09   1.20399009E-09   5.48699672E-01   6.80631276E-05   1.20110974E-02   1.40153825E-24   4.74464471E-01   2.80257950E-02   1.80149204E-08   4.00369914E-04   1.70157213E-06   3.90360666E-05   1.46774795E-03   2.12364770E-09
   1.66250000E+02   5.00000000E-01   5.00000000E-01  -4.34497230E-03   1.29233250E-11   4.75555443E-03   4.84049100E-02   1.23777706E-02   5.27979595E-04   8.88498989E-21   1.07740597E-07   9.01054572E-06   2.46287661E-05   1.40163710E-06   5.68370295E-05   3.20093800E-06   1.44323328E-09   1.20237875E-09   5.48833744E-01   6.80797865E-05   1.20140322E-02   2.45437865E-24   4.74554845E-01   2.80326495E-02   1.80191304E-08   4.00467742E-04   1.70198790E-06   3.90456048E-05   1.52495076E-03   2.12426452E-09
   1.83750000E+02   5.00000000E-01   5.00000000E-01  -4.31676606E-03   1.42944481E-11   4.75683587E-03   4.81608408E-02   1.25779902E-02   5.80518606E-04   1.04076364E-20   1.14628447E-07   9.01297586E-06   2.46354026E-05   1.40201478E-06   6.25452132E-05   3.51433734E-06   1.44578004E-09   1.20079654E-09   5.48981633E-01   6.80981596E-05   1.20172695E-02   4.25989458E-24   4.74656994E-01   2.80402100E-02   1.80237939E-08   4.00575652E-04   1.70244652E-06   3.90561261E-05   1.58140678E-03   2.12450455E-09
   2.01250000E+02   5.00000000E-01   5.00000000E-01  -4.28745034E-03   1.56983943E-11   4.75823327E-03   4.79171033E-02   1.27786747E-02   6.32983591E-04   1.21069384E-20   1.21801476E-07   9.01562574E-06   2.46426397E-05   1.40242665E-06   6.82595776E-05   3.82798969E-06   1.44836326E-09   1.19924238E-09   5.49142906E-01   6.81181931E-05   1.20207998E-02   7.33803875E-24   4.74771035E-01   2.80484545E-02   1.80288967E-08   4.00693328E-04   1.70294664E-06   3.90675995E-05   1.63859121E-03   2.12445270E-09
   2.18750000E+02   5.00000000E-01   5.00000000E-01  -4.25676886E-03   1.71500862E-11   4.75974317E-03   4.76733948E-02   1.29798269E-02   6.85366316E-04   1.40132038E-20   1.29245811E-07   9.01848876E-06   2.46504593E-05   1.40287167E-06   7.39804771E-05   4.14191464E-06   1.45098204E-09   1.19771525E-09   5.49317162E-01   6.81398372E-05   1.20246142E-02   1.25569800E-23   4.74896894E-01   2.80573623E-02   1.80344256E-08   4.00820477E-04   1.70348703E-06   3.90799965E-05   1.69729935E-03   2.12419455E-09
   2.36250000E+02   5.00000000E-01   5.00000000E-01  -4.22453263E-03   1.86635722E-11   4.76136232E-03   4.74295144E-02   1.31814498E-02   7.37658578E-04   1.61580407E-20   1.36953052E-07   9.02155880E-06   2.46588449E-05   1.40334889E-06   7.97082559E-05   4.45613109E-06   1.45363554E-09   1.19621420E-09   5.49504027E-01   6.81630456E-05   1.20287047E-02   2.13591176E-23   4.75034390E-01   2.80669144E-02   1.80403683E-08   4.00956827E-04   1.70406651E-06   3.90932906E-05   1.75792815E-03   2.12381534E-09
   2.53750000E+02   5.00000000E-01   5.00000000E-01  -4.19059978E-03   2.02517290E-11   4.76308773E-03   4.71853243E-02   1.33835464E-02   7.89852254E-04   1.85746407E-20   1.44917600E-07   9.02483016E-06   2.46677806E-05   1.40385744E-06   8.54432483E-05   4.77065739E-06   1.45632300E-09   1.19473835E-09   5.49703154E-01   6.81877752E-05   1.20330637E-02   3.61292045E-23   4.75183292E-01   2.80770931E-02   1.80467134E-08   4.01102124E-04   1.70468403E-06   3.91074571E-05   1.82065158E-03   2.12339917E-09
   2.71250000E+02   5.00000000E-01   5.00000000E-01  -4.15486189E-03   2.19261995E-11   4.76491659E-03   4.69407261E-02   1.35861197E-02   8.41939326E-04   2.12980934E-20   1.53135276E-07   9.02829756E-06   2.46772523E-05   1.40439647E-06   9.11857793E-05   5.08551132E-06   1.45904371E-09   1.19328688E-09   5.49914222E-01   6.82139861E-05   1.20376839E-02   6.07910467E-23   4.75343349E-01   2.80878820E-02   1.80534504E-08   4.01256134E-04   1.70533857E-06   3.91224731E-05   1.88552555E-03   2.12302827E-09
   2.88750000E+02   5.00000000E-01   5.00000000E-01  -4.11723518E-03   2.36974397E-11   4.76684632E-03   4.66956462E-02   1.37891731E-02   8.93911877E-04   2.43656711E-20   1.61602597E-07   9.03195606E-06   2.46872462E-05   1.40496523E-06   9.69361656E-05   5.40071018E-06   1.46179700E-09   1.19185900E-09   5.50136930E-01   6.82416410E-05   1.20425590E-02   1.01770105E-22   4.75514309E-01   2.80992656E-02   1.80605693E-08   4.01418638E-04   1.70602921E-06   3.91383172E-05   1.95254903E-03   2.12278236E-09
   3.06250000E+02   5.00000000E-01   5.00000000E-01  -4.07765477E-03   2.55748114E-11   4.76887449E-03   4.64500267E-02   1.39927104E-02   9.45762072E-04   2.78170726E-20   1.70316385E-07   9.03580107E-06   2.46977500E-05   1.40556301E-06   1.02694716E-04   5.71627075E-06   1.46458228E-09   1.19045400E-09   5.50370998E-01   6.82707053E-05   1.20476828E-02   1.69539082E-22   4.75695929E-01   2.81112297E-02   1.80680611E-08   4.01589430E-04   1.70675508E-06   3.91549695E-05   2.02169868E-03   2.12273820E-09
   3.23750000E+02   5.00000000E-01   5.00000000E-01  -4.03607105E-03   2.75667021E-11   4.77099883E-03   4.62038209E-02   1.41967352E-02   9.97482119E-04   3.16946348E-20   1.79273563E-07   9.03982833E-06   2.47087519E-05   1.40618913E-06   1.08461732E-04   6.03220944E-06   1.46739898E-09   1.18907119E-09   5.50616167E-01   6.83011466E-05   1.20530496E-02   2.81088089E-22   4.75887977E-01   2.81237611E-02   1.80759170E-08   4.01768323E-04   1.70751537E-06   3.91724115E-05   2.09294757E-03   2.12296918E-09
   3.41250000E+02   5.00000000E-01   5.00000000E-01  -3.99244728E-03   2.96806757E-11   4.77321726E-03   4.59569900E-02   1.44012520E-02   1.04906423E-03   3.60435391E-20   1.88471035E-07   9.04403384E-06   2.47202410E-05   1.40684298E-06   1.14237509E-04   6.34854222E-06   1.47024659E-09   1.18770993E-09   5.50872193E-01   6.83329348E-05   1.20586540E-02   4.63854611E-22   4.76090240E-01   2.81368472E-02   1.80841292E-08   4.01955138E-04   1.70830933E-06   3.91906259E-05   2.16627452E-03   2.12354497E-09
   3.58750000E+02   5.00000000E-01   5.00000000E-01  -3.94675788E-03   3.19236654E-11   4.77552780E-03   4.57095017E-02   1.46062650E-02   1.10050060E-03   4.09120390E-20   1.97905629E-07   9.04841389E-06   2.47322071E-05   1.40752398E-06   1.20022335E-04   6.66528471E-06   1.47312462E-09   1.18636963E-09   5.51138850E-01   6.83660419E-05   1.20644912E-02   7.61948276E-22   4.76302517E-01   2.81504766E-02   1.80926902E-08   4.02149709E-04   1.70913626E-06   3.92095967E-05   2.24166780E-03   2.12453140E-09
   3.76250000E+02   5.00000000E-01   5.00000000E-01  -3.89898723E-03   3.43022072E-11   4.77792862E-03   4.54613291E-02   1.48117791E-02   1.15178332E-03   4.63517300E-20   2.07574063E-07   9.05296501E-06   2.47446409E-05   1.40823159E-06   1.25816493E-04   6.98245218E-06   1.47603264E-09   1.18504971E-09   5.51415927E-01   6.84004416E-05   1.20705564E-02   1.24596791E-21   4.76524625E-01   2.81646384E-02   1.81015930E-08   4.02351884E-04   1.70999551E-06   3.92293087E-05   2.31912552E-03   2.12599019E-09
   3.93750000E+02   5.00000000E-01   5.00000000E-01  -3.84912877E-03   3.68226857E-11   4.78041802E-03   4.52124508E-02   1.50177993E-02   1.20290445E-03   5.24178587E-20   2.17472934E-07   9.05768396E-06   2.47575333E-05   1.40896531E-06   1.31620260E-04   7.30005960E-06   1.47897024E-09   1.18374965E-09   5.51703226E-01   6.84361094E-05   1.20768454E-02   2.02841856E-21   4.76756391E-01   2.81793225E-02   1.81108312E-08   4.02561517E-04   1.71088645E-06   3.92497480E-05   2.39865437E-03   2.12797897E-09
   4.11250000E+02   5.00000000E-01   5.00000000E-01  -3.79718477E-03   3.94915375E-11   4.78299440E-03   4.49628503E-02   1.52243308E-02   1.25385591E-03   5.91696342E-20   2.27598707E-07   9.06256771E-06   2.47708762E-05   1.40972466E-06   1.37433909E-04   7.61812165E-06   1.48193705E-09   1.18246894E-09   5.52000563E-01   6.84730224E-05   1.20833542E-02   3.28782227E-21   4.76997657E-01   2.81945196E-02   1.81203987E-08   4.02778476E-04   1.71180852E-06   3.92709014E-05   2.48026787E-03   2.13055122E-09
   4.28750000E+02   5.00000000E-01   5.00000000E-01  -3.74316650E-03   4.23153591E-11   4.78565626E-03   4.47125168E-02   1.54313790E-02   1.30462958E-03   6.66704890E-20   2.37947716E-07   9.06761345E-06   2.47846619E-05   1.41050921E-06   1.43257706E-04   7.93665275E-06   1.48493273E-09   1.18120712E-09   5.52307766E-01   6.85111595E-05   1.20900789E-02   5.30626915E-21   4.77248275E-01   2.82102209E-02   1.81302899E-08   4.03002633E-04   1.71276119E-06   3.92927567E-05   2.56398509E-03   2.13375626E-09
   4.46250000E+02   5.00000000E-01   5.00000000E-01  -3.68709501E-03   4.53008962E-11   4.78840223E-03   4.44614455E-02   1.56389494E-02   1.35521725E-03   7.49882477E-20   2.48516168E-07   9.07281853E-06   2.47988831E-05   1.41131855E-06   1.49091916E-04   8.25566710E-06   1.48795695E-09   1.17996373E-09   5.52624675E-01   6.85505005E-05   1.20970161E-02   8.52766085E-21   4.77508107E-01   2.82264181E-02   1.81404994E-08   4.03233872E-04   1.71374396E-06   3.93153025E-05   2.64983003E-03   2.13763934E-09
   4.63750000E+02   5.00000000E-01   5.00000000E-01  -3.62900209E-03   4.84549460E-11   4.79123099E-03   4.42096376E-02   1.58470480E-02   1.40561063E-03   8.41952057E-20   2.59300147E-07   9.07818049E-06   2.48135331E-05   1.41215229E-06   1.54936798E-04   8.57517867E-06   1.49100943E-09   1.17873836E-09   5.52951140E-01   6.85910270E-05   1.21041624E-02   1.36476814E-20   4.77777024E-01   2.82431035E-02   1.81510223E-08   4.03472084E-04   1.71475636E-06   3.93385282E-05   2.73783177E-03   2.14224171E-09
   4.81250000E+02   5.00000000E-01   5.00000000E-01  -3.56893102E-03   5.17842468E-11   4.79414134E-03   4.39571014E-02   1.60556805E-02   1.45580135E-03   9.43681728E-20   2.70295616E-07   9.08369705E-06   2.48286057E-05   1.41301008E-06   1.60792607E-04   8.89520123E-06   1.49408990E-09   1.17753061E-09   5.53287020E-01   6.86327215E-05   1.21115149E-02   2.17522223E-20   4.78054907E-01   2.82602702E-02   1.81618541E-08   4.03717166E-04   1.71579795E-06   3.93624237E-05   2.82802478E-03   2.14760068E-09
   4.98750000E+02   5.00000000E-01   5.00000000E-01  -3.50693695E-03   5.52954341E-11   4.79713214E-03   4.37038519E-02   1.62648532E-02   1.50578096E-03   1.05588568E-19   2.81498426E-07   9.08936604E-06   2.48440949E-05   1.41389158E-06   1.66659597E-04   9.21574837E-06   1.49719812E-09   1.17634011E-09   5.53632186E-01   6.86755679E-05   1.21190706E-02   3.45295278E-20   4.78341644E-01   2.82779112E-02   1.81729904E-08   4.03969023E-04   1.71686835E-06   3.93869797E-05   2.92044908E-03   2.15374982E-09
   5.16250000E+02   5.00000000E-01   5.00000000E-01  -3.44308662E-03   5.89951124E-11   4.80020234E-03   4.34499107E-02   1.64745721E-02   1.55554092E-03   1.17942639E-19   2.92904320E-07   9.09518547E-06   2.48599953E-05   1.41479648E-06   1.72538015E-04   9.53683352E-06   1.50033387E-09   1.17516649E-09   5.53986514E-01   6.87195510E-05   1.21268269E-02   5.45940877E-20   4.78637130E-01   2.82960205E-02   1.81844272E-08   4.04227566E-04   1.71796715E-06   3.94121876E-05   3.01514973E-03   2.16071902E-09
   5.33750000E+02   5.00000000E-01   5.00000000E-01  -3.37745771E-03   6.28900356E-11   4.80335095E-03   4.31953059E-02   1.66848435E-02   1.60507262E-03   1.31521848E-19   3.04508938E-07   9.10115347E-06   2.48763017E-05   1.41572449E-06   1.78428110E-04   9.85846997E-06   1.50349695E-09   1.17400942E-09   5.54349892E-01   6.87646566E-05   1.21347812E-02   8.59793224E-20   4.78941269E-01   2.83145922E-02   1.81961608E-08   4.04492711E-04   1.71909402E-06   3.94380394E-05   3.11217590E-03   2.16853468E-09
   5.51250000E+02   5.00000000E-01   5.00000000E-01  -3.31013810E-03   6.69873285E-11   4.80657704E-03   4.29400718E-02   1.68956739E-02   1.65436743E-03   1.46423351E-19   3.16307820E-07   9.10726829E-06   2.48930095E-05   1.41667534E-06   1.84330126E-04   1.01806709E-05   1.50668718E-09   1.17286858E-09   5.54722212E-01   6.88108717E-05   1.21429314E-02   1.34884313E-19   4.79253967E-01   2.83336208E-02   1.82081876E-08   4.04764382E-04   1.72024863E-06   3.94645273E-05   3.21157967E-03   2.17721988E-09
   5.68750000E+02   5.00000000E-01   5.00000000E-01  -3.24122528E-03   7.12946451E-11   4.80987977E-03   4.26842485E-02   1.71070696E-02   1.70341675E-03   1.62750467E-19   3.28296416E-07   9.11352831E-06   2.49101142E-05   1.41764877E-06   1.90244303E-04   1.05034492E-05   1.50990439E-09   1.17174368E-09   5.55103376E-01   6.88581838E-05   1.21512751E-02   2.10801515E-19   4.79575141E-01   2.83531014E-02   1.82205045E-08   4.05042507E-04   1.72143065E-06   3.94916444E-05   3.31341507E-03   2.18679453E-09
   5.86250000E+02   5.00000000E-01   5.00000000E-01  -3.17082632E-03   7.58201700E-11   4.81325833E-03   4.24278818E-02   1.73190373E-02   1.75221203E-03   1.80612969E-19   3.40470087E-07   9.11993202E-06   2.49276115E-05   1.41864456E-06   1.96170883E-04   1.08268180E-05   1.51314843E-09   1.17063442E-09   5.55493292E-01   6.89065817E-05   1.21598104E-02   3.28213699E-19   4.79904709E-01   2.83730291E-02   1.82331083E-08   4.05327017E-04   1.72263982E-06   3.95193842E-05   3.41773783E-03   2.19727556E-09
   6.03750000E+02   5.00000000E-01   5.00000000E-01  -3.09905808E-03   8.05724214E-11   4.81671197E-03   4.21710232E-02   1.75315835E-02   1.80074488E-03   2.00127086E-19   3.52824110E-07   9.12647800E-06   2.49454978E-05   1.41966248E-06   2.02110102E-04   1.11507899E-05   1.51641918E-09   1.16954054E-09   5.55891874E-01   6.89560545E-05   1.21685354E-02   5.09138207E-19   4.80242595E-01   2.83933997E-02   1.82459963E-08   4.05617850E-04   1.72387586E-06   3.95477404E-05   3.52460583E-03   2.20867707E-09
   6.21250000E+02   5.00000000E-01   5.00000000E-01  -3.02604763E-03   8.55598935E-11   4.82024002E-03   4.19137300E-02   1.77447147E-02   1.84900701E-03   2.21415187E-19   3.65353684E-07   9.13316496E-06   2.49637694E-05   1.42070232E-06   2.08062199E-04   1.14753778E-05   1.51971652E-09   1.16846177E-09   5.56299042E-01   6.90065926E-05   1.21774483E-02   7.86927706E-19   4.80588729E-01   2.84142090E-02   1.82591658E-08   4.05914949E-04   1.72513853E-06   3.95767075E-05   3.63408021E-03   2.22101048E-09
   6.38750000E+02   5.00000000E-01   5.00000000E-01  -2.95193239E-03   9.07906336E-11   4.82384182E-03   4.16560652E-02   1.79584377E-02   1.89699028E-03   2.44605233E-19   3.78053934E-07   9.13999166E-06   2.49824229E-05   1.42176391E-06   2.14027407E-04   1.18005944E-05   1.52304035E-09   1.16739788E-09   5.56714723E-01   6.90581866E-05   1.21865476E-02   1.21192743E-18   4.80943044E-01   2.84354532E-02   1.82726144E-08   4.06218259E-04   1.72642760E-06   3.96062802E-05   3.74622659E-03   2.23428473E-09
   6.56250000E+02   5.00000000E-01   5.00000000E-01  -2.87685968E-03   9.62718787E-11   4.82751678E-03   4.13980969E-02   1.81727592E-02   1.94468664E-03   2.69830175E-19   3.90919921E-07   9.14695700E-06   2.50014553E-05   1.42284705E-06   2.20005962E-04   1.21264522E-05   1.52639058E-09   1.16634863E-09   5.57138847E-01   6.91108280E-05   1.21958318E-02   1.85986560E-18   4.81305480E-01   2.84571289E-02   1.82863398E-08   4.06527729E-04   1.72774285E-06   3.96364536E-05   3.86111601E-03   2.24850639E-09
   6.73750000E+02   5.00000000E-01   5.00000000E-01  -2.80098548E-03   1.02009853E-10   4.83126436E-03   4.11398976E-02   1.83876860E-02   1.99208809E-03   2.97227488E-19   4.03946641E-07   9.15405991E-06   2.50208638E-05   1.42395160E-06   2.25998095E-04   1.24529637E-05   1.52976713E-09   1.16531379E-09   5.57571350E-01   6.91645090E-05   1.22052993E-02   2.84425408E-18   4.81675981E-01   2.84792327E-02   1.83003400E-08   4.06843314E-04   1.72908409E-06   3.96672232E-05   3.97882519E-03   2.26367983E-09
   6.91250000E+02   5.00000000E-01   5.00000000E-01  -2.72447262E-03   1.08009775E-10   4.83508403E-03   4.08815436E-02   1.86032250E-02   2.03918666E-03   3.26938981E-19   4.17129036E-07   9.16129944E-06   2.50406457E-05   1.42507740E-06   2.32004039E-04   1.27801415E-05   1.53316995E-09   1.16429317E-09   5.58012175E-01   6.92192222E-05   1.22149490E-02   4.33465322E-18   4.82054495E-01   2.85017617E-02   1.83146129E-08   4.07164971E-04   1.73045113E-06   3.96985847E-05   4.09943597E-03   2.27980733E-09
   7.08750000E+02   5.00000000E-01   5.00000000E-01  -2.64748849E-03   1.14276026E-10   4.83897534E-03   4.06231134E-02   1.88193830E-02   2.08597437E-03   3.59110880E-19   4.30461995E-07   9.16867470E-06   2.50607986E-05   1.42622431E-06   2.38024026E-04   1.31079979E-05   1.53659897E-09   1.16328656E-09   5.58461267E-01   6.92749610E-05   1.22247797E-02   6.58348421E-18   4.82440976E-01   2.85247131E-02   1.83291569E-08   4.07492660E-04   1.73184381E-06   3.97305344E-05   4.22303415E-03   2.29688927E-09
   7.26250000E+02   5.00000000E-01   5.00000000E-01  -2.57020291E-03   1.20812359E-10   4.84293785E-03   4.03646870E-02   1.90361669E-02   2.13244328E-03   3.93894007E-19   4.43940361E-07   9.17618487E-06   2.50813202E-05   1.42739221E-06   2.44058287E-04   1.34365455E-05   1.54005417E-09   1.16229378E-09   5.58918576E-01   6.93317192E-05   1.22347902E-02   9.96525736E-18   4.82835381E-01   2.85480844E-02   1.83439702E-08   4.07826345E-04   1.73326197E-06   3.97630687E-05   4.34970813E-03   2.31492425E-09
   7.43750000E+02   5.00000000E-01   5.00000000E-01  -2.49278643E-03   1.27621951E-10   4.84697116E-03   4.01063449E-02   1.92535839E-02   2.17858545E-03   4.31443658E-19   4.57558937E-07   9.18382921E-06   2.51022085E-05   1.42858097E-06   2.50107053E-04   1.37657964E-05   1.54353552E-09   1.16131464E-09   5.59384057E-01   6.93894910E-05   1.22449797E-02   1.50337708E-17   4.83237673E-01   2.85718732E-02   1.83590513E-08   4.08165993E-04   1.73470547E-06   3.97961843E-05   4.47954774E-03   2.33390922E-09
   7.61250000E+02   5.00000000E-01   5.00000000E-01  -2.41540931E-03   1.34707115E-10   4.85107492E-03   3.98481677E-02   1.94716407E-02   2.22439299E-03   4.71918704E-19   4.71312488E-07   9.19160701E-06   2.51234617E-05   1.42979050E-06   2.56170554E-04   1.40957632E-05   1.54704298E-09   1.16034897E-09   5.59857667E-01   6.94482714E-05   1.22553470E-02   2.26052182E-17   4.83647815E-01   2.85960773E-02   1.83743990E-08   4.08511572E-04   1.73617418E-06   3.98298783E-05   4.61264392E-03   2.35383958E-09
   7.78750000E+02   5.00000000E-01   5.00000000E-01  -2.33824122E-03   1.42068579E-10   4.85524879E-03   3.95902358E-02   1.96903445E-02   2.26985798E-03   5.15479527E-19   4.85195746E-07   9.19951767E-06   2.51450779E-05   1.43102070E-06   2.62249020E-04   1.44264580E-05   1.55057657E-09   1.15939663E-09   5.60339369E-01   6.95080555E-05   1.22658915E-02   3.38784982E-17   4.84065778E-01   2.86206949E-02   1.83900118E-08   4.08863056E-04   1.73766799E-06   3.98641479E-05   4.74908916E-03   2.37470934E-09
   7.96250000E+02   5.00000000E-01   5.00000000E-01  -2.26145121E-03   1.49704378E-10   4.85949247E-03   3.93326293E-02   1.99097023E-02   2.31497237E-03   5.62284685E-19   4.99203419E-07   9.20756061E-06   2.51670557E-05   1.43227147E-06   2.68342684E-04   1.47578931E-05   1.55413626E-09   1.15845744E-09   5.60829128E-01   6.95688392E-05   1.22766124E-02   5.06087116E-17   4.84491535E-01   2.86457241E-02   1.84058888E-08   4.09220419E-04   1.73918678E-06   3.98989908E-05   4.88897867E-03   2.39651121E-09
   8.13750000E+02   5.00000000E-01   5.00000000E-01  -2.18520739E-03   1.57608577E-10   4.86380570E-03   3.90754277E-02   2.01297211E-02   2.35972782E-03   6.12486547E-19   5.13330196E-07   9.21573533E-06   2.51893937E-05   1.43354273E-06   2.74451775E-04   1.50900809E-05   1.55772208E-09   1.15753128E-09   5.61326914E-01   6.96306185E-05   1.22875090E-02   7.53563859E-17   4.84925063E-01   2.86711634E-02   1.84220287E-08   4.09583638E-04   1.74073046E-06   3.99344047E-05   5.03241182E-03   2.41923670E-09
   8.31250000E+02   5.00000000E-01   5.00000000E-01  -2.10967614E-03   1.65770089E-10   4.86818824E-03   3.88187099E-02   2.03504081E-02   2.40411544E-03   6.66226485E-19   5.27570754E-07   9.22404137E-06   2.52120907E-05   1.43483443E-06   2.80576525E-04   1.54230335E-05   1.56133405E-09   1.15661801E-09   5.61832698E-01   6.96933901E-05   1.22985807E-02   1.11844071E-16   4.85366344E-01   2.86970114E-02   1.84384309E-08   4.09952694E-04   1.74229895E-06   3.99703876E-05   5.17949317E-03   2.44287618E-09
   8.48750000E+02   5.00000000E-01   5.00000000E-01  -2.03502032E-03   1.74171869E-10   4.87263986E-03   3.85625527E-02   2.05717704E-02   2.44812551E-03   7.23630320E-19   5.41919762E-07   9.23247833E-06   2.52351454E-05   1.43614649E-06   2.86717166E-04   1.57567631E-05   1.56497217E-09   1.15571750E-09   5.62346456E-01   6.97571509E-05   1.23098269E-02   1.65464579E-16   4.85815365E-01   2.87232667E-02   1.84550943E-08   4.10327568E-04   1.74389216E-06   4.00069378E-05   5.33033279E-03   2.46741905E-09
   8.66250000E+02   5.00000000E-01   5.00000000E-01  -1.96139687E-03   1.82790640E-10   4.87716040E-03   3.83070305E-02   2.07938154E-02   2.49174723E-03   7.84804622E-19   5.56371890E-07   9.24104584E-06   2.52585570E-05   1.43747885E-06   2.92873931E-04   1.60912819E-05   1.56863650E-09   1.15482965E-09   5.62868166E-01   6.98218981E-05   1.23212472E-02   2.44002576E-16   4.86272117E-01   2.87499283E-02   1.84720183E-08   4.10708244E-04   1.74551004E-06   4.00440538E-05   5.48504563E-03   2.49285373E-09
   8.83750000E+02   5.00000000E-01   5.00000000E-01  -1.88895404E-03   1.91597185E-10   4.88174967E-03   3.80522137E-02   2.10165503E-02   2.53496848E-03   8.49834201E-19   5.70921812E-07   9.24974360E-06   2.52823246E-05   1.43883148E-06   2.99047052E-04   1.64266021E-05   1.57232707E-09   1.15395436E-09   5.63397809E-01   6.98876294E-05   1.23328411E-02   3.58655239E-16   4.86736596E-01   2.87769952E-02   1.84892023E-08   4.11094709E-04   1.74715251E-06   4.00817341E-05   5.64374997E-03   2.51916783E-09
   9.01250000E+02   5.00000000E-01   5.00000000E-01  -1.81782863E-03   2.00557104E-10   4.88640754E-03   3.77981678E-02   2.12399827E-02   2.57777562E-03   9.18780836E-19   5.85564212E-07   9.25857135E-06   2.53064475E-05   1.44020433E-06   3.05236763E-04   1.67627357E-05   1.57604393E-09   1.15309153E-09   5.63935369E-01   6.99543429E-05   1.23446084E-02   5.25470550E-16   4.87208803E-01   2.88044666E-02   1.85066457E-08   4.11486951E-04   1.74881954E-06   4.01199777E-05   5.80656534E-03   2.54634820E-09
   9.18750000E+02   5.00000000E-01   5.00000000E-01  -1.74814371E-03   2.09631888E-10   4.89113389E-03   3.75449528E-02   2.14641201E-02   2.62015341E-03   9.91683071E-19   6.00293782E-07   9.26752886E-06   2.53309250E-05   1.44159736E-06   3.11443299E-04   1.70996947E-05   1.57978714E-09   1.15224112E-09   5.64480833E-01   7.00220369E-05   1.23565486E-02   7.67366694E-16   4.87688741E-01   2.88323417E-02   1.85243481E-08   4.11884959E-04   1.75051108E-06   4.01587835E-05   5.97361014E-03   2.57438101E-09
   9.36250000E+02   5.00000000E-01   5.00000000E-01  -1.68000696E-03   2.18780156E-10   4.89592864E-03   3.72926223E-02   2.16889701E-02   2.66208494E-03   1.06855683E-18   6.15105230E-07   9.27661596E-06   2.53557567E-05   1.44301055E-06   3.17666896E-04   1.74374913E-05   1.58355675E-09   1.15140308E-09   5.65034190E-01   7.00907099E-05   1.23686617E-02   1.11695698E-15   4.88176418E-01   2.88606200E-02   1.85423092E-08   4.12288727E-04   1.75222709E-06   4.01981509E-05   6.14499927E-03   2.60325187E-09
   9.53750000E+02   5.00000000E-01   5.00000000E-01  -1.61350967E-03   2.27958935E-10   4.90079170E-03   3.70412231E-02   2.19145405E-02   2.70355166E-03   1.14939666E-18   6.29993274E-07   9.28583250E-06   2.53809423E-05   1.44444387E-06   3.23907792E-04   1.77761372E-05   1.58735284E-09   1.15057740E-09   5.65595431E-01   7.01603610E-05   1.23809473E-02   1.62048726E-15   4.88671841E-01   2.88893010E-02   1.85605285E-08   4.12698248E-04   1.75396756E-06   4.02380792E-05   6.32084201E-03   2.63294585E-09
   9.71250000E+02   5.00000000E-01   5.00000000E-01  -1.54872648E-03   2.37124881E-10   4.90572302E-03   3.67907960E-02   2.21408389E-02   2.74453346E-03   1.23417729E-18   6.44952649E-07   9.29517839E-06   2.54064813E-05   1.44589731E-06   3.30166223E-04   1.81156446E-05   1.59117548E-09   1.14976412E-09   5.66164550E-01   7.02309894E-05   1.23934054E-02   2.34330396E-15   4.89175022E-01   2.89183843E-02   1.85790060E-08   4.13113518E-04   1.75573245E-06   4.02785680E-05   6.50124017E-03   2.66344764E-09
   9.88750000E+02   5.00000000E-01   5.00000000E-01  -1.48571565E-03   2.46235375E-10   4.91072257E-03   3.65413751E-02   2.23678732E-02   2.78500878E-03   1.32285544E-18   6.59978105E-07   9.30465355E-06   2.54323737E-05   1.44737086E-06   3.36442430E-04   1.84560252E-05   1.59502476E-09   1.14896334E-09   5.66741543E-01   7.03025947E-05   1.24060358E-02   3.37741969E-15   4.89685974E-01   2.89478697E-02   1.85977414E-08   4.13534532E-04   1.75752176E-06   4.03196169E-05   6.68628674E-03   2.69474156E-09