 TITLE = "Total Concentrations" 
VARIABLES = "X"          "Y"              "Z"            "H+"             "Al+++"          "CO2(aq)"        "Mg++"           "Ca++"           "Fe++"           "Fe+++"          "Ba++"           "Sr++"           "Cl-"            "F-"             "K+"             "HS-"            "Na+"            "SO4--"          "O2(aq)"         "B(OH)3(aq)"     "HPO4--"         "NO3-"           "H4SiO4(aq)"    
 ZONE I=         100 , J=           1 , K=           1  F=POINT
   1.75000000E+01   5.00000000E-01   5.00000000E-01  -4.67072020E-03   8.87528804E-12   4.75010909E-03   4.95750747E-02   1.07480852E-02   9.98751657E-04   7.79772067E-13   2.00004593E-07   9.00020669E-06   5.48179132E-01   6.80015617E-05   1.20002756E-02   1.16681780E-10   4.74299042E-01   2.80006431E-02   1.79971067E-08   4.00009186E-04   1.70003904E-06   3.90008957E-05   4.11208980E-04
   5.25000000E+01   5.00000000E-01   5.00000000E-01  -4.67598175E-03   1.34867087E-11   4.75063957E-03   4.82070374E-02   1.10972307E-02   1.91485033E-03   6.17297823E-13   2.00026929E-07   9.00121182E-06   5.48240352E-01   6.80091559E-05   1.20016158E-02   1.33399443E-10   4.74576033E-01   2.80037701E-02   1.79958041E-08   4.00053859E-04   1.70022890E-06   3.90052512E-05   5.04482321E-04
   8.75000000E+01   5.00000000E-01   5.00000000E-01  -4.66709037E-03   1.80139046E-11   4.75176954E-03   4.69620183E-02   1.14479618E-02   2.72091747E-03   5.93483965E-13   2.00074507E-07   9.00335281E-06   5.48370754E-01   6.80253324E-05   1.20044704E-02   1.50164968E-10   4.74884475E-01   2.80104310E-02   1.79967655E-08   4.00149014E-04   1.70063331E-06   3.90145289E-05   5.62739063E-04
   1.22500000E+02   5.00000000E-01   5.00000000E-01  -4.63715365E-03   2.34575862E-11   4.75345252E-03   4.58375902E-02   1.18002979E-02   3.41155418E-03   5.89814014E-13   2.00145369E-07   9.00654161E-06   5.48564976E-01   6.80494255E-05   1.20087222E-02   1.66984709E-10   4.75227293E-01   2.80203517E-02   1.79998132E-08   4.00290738E-04   1.70123564E-06   3.90283470E-05   6.17840597E-04
   1.57500000E+02   5.00000000E-01   5.00000000E-01  -4.58968254E-03   3.01790481E-11   4.75564895E-03   4.48248945E-02   1.21542620E-02   3.99569400E-03   5.93750955E-13   2.00237850E-07   9.01070327E-06   5.48818451E-01   6.80808692E-05   1.20142710E-02   1.83864209E-10   4.75602870E-01   2.80332991E-02   1.80047961E-08   4.00475701E-04   1.70202173E-06   3.90463808E-05   6.74321922E-04
   1.92500000E+02   5.00000000E-01   5.00000000E-01  -4.52861358E-03   3.84225947E-11   4.75832501E-03   4.39094347E-02   1.25098792E-02   4.48814348E-03   6.03849616E-13   2.00350527E-07   9.01577370E-06   5.49127278E-01   6.81191790E-05   1.20210316E-02   2.00808305E-10   4.76010254E-01   2.80490738E-02   1.80115851E-08   4.00701053E-04   1.70297948E-06   3.90683527E-05   7.32352441E-04
   2.27500000E+02   5.00000000E-01   5.00000000E-01  -4.45658211E-03   4.84507589E-11   4.76145164E-03   4.30748714E-02   1.28671770E-02   4.90478082E-03   6.19384766E-13   2.00482174E-07   9.02169785E-06   5.49488102E-01   6.81639393E-05   1.20289305E-02   2.17821268E-10   4.76449326E-01   2.80675045E-02   1.80200690E-08   4.00964349E-04   1.70409848E-06   3.90940240E-05   7.91798610E-04
   2.62500000E+02   5.00000000E-01   5.00000000E-01  -4.37508244E-03   6.05761702E-11   4.76500382E-03   4.23055072E-02   1.32261856E-02   5.26032447E-03   6.39466667E-13   2.00631740E-07   9.02842829E-06   5.49898036E-01   6.82147915E-05   1.20379044E-02   2.34906933E-10   4.76920357E-01   2.80884436E-02   1.80301522E-08   4.01263479E-04   1.70536979E-06   3.91231892E-05   8.52697373E-04
   2.97500000E+02   5.00000000E-01   5.00000000E-01  -4.28484905E-03   7.51718368E-11   4.76895988E-03   4.15874585E-02   1.35869368E-02   5.56746989E-03   6.63158108E-13   2.00798311E-07   9.03592398E-06   5.50354579E-01   6.82714256E-05   1.20478986E-02   2.52068797E-10   4.77423693E-01   2.81117636E-02   1.80417517E-08   4.01596621E-04   1.70678564E-06   3.91556706E-05   9.15203579E-04
   3.32500000E+02   5.00000000E-01   5.00000000E-01  -4.18616226E-03   9.26786275E-11   4.77330104E-03   4.09090257E-02   1.39494644E-02   5.83671652E-03   6.89566455E-13   2.00981096E-07   9.04414934E-06   5.50855564E-01   6.83335728E-05   1.20588658E-02   2.69310096E-10   4.77959606E-01   2.81373536E-02   1.80547958E-08   4.01962193E-04   1.70833932E-06   3.91913138E-05   9.79519546E-04
   3.67500000E+02   5.00000000E-01   5.00000000E-01  -4.07906657E-03   1.13613885E-10   4.77801099E-03   4.02606488E-02   1.43138038E-02   6.07652205E-03   7.17869969E-13   2.01179410E-07   9.05307346E-06   5.51399109E-01   6.84009995E-05   1.20707646E-02   2.86633858E-10   4.78528240E-01   2.81651176E-02   1.80692219E-08   4.02358821E-04   1.71002499E-06   3.92299850E-05   1.04585725E-03
   4.02500000E+02   5.00000000E-01   5.00000000E-01  -3.96352651E-03   1.38582077E-10   4.78307553E-03   3.96346807E-02   1.46799922E-02   6.29358869E-03   7.47315824E-13   2.01392654E-07   9.06266942E-06   5.51983574E-01   6.84735023E-05   1.20835592E-02   3.04042953E-10   4.79129602E-01   2.81949717E-02   1.80849755E-08   4.02785308E-04   1.71183756E-06   3.92715675E-05   1.11442187E-03
   4.37500000E+02   5.00000000E-01   5.00000000E-01  -3.83953998E-03   1.68287333E-10   4.78848227E-03   3.90251032E-02   1.50480682E-02   6.49317814E-03   7.77212274E-13   2.01620306E-07   9.07291377E-06   5.52607531E-01   6.85509041E-05   1.20972184E-02   3.21540126E-10   4.79763584E-01   2.82268430E-02   1.81020093E-08   4.03240612E-04   1.71377260E-06   3.93159597E-05   1.18540686E-03
   4.72500000E+02   5.00000000E-01   5.00000000E-01  -3.70722128E-03   2.03548132E-10   4.79422042E-03   3.84272475E-02   1.54180716E-02   6.67940592E-03   8.06921524E-13   2.01861912E-07   9.08378605E-06   5.53269733E-01   6.86330502E-05   1.21117147E-02   3.39128026E-10   4.80429981E-01   2.82606679E-02   1.81202816E-08   4.03723825E-04   1.71582625E-06   3.93630729E-05   1.25899406E-03
   5.07500000E+02   5.00000000E-01   5.00000000E-01  -3.56686021E-03   2.45314355E-10   4.80028056E-03   3.78375464E-02   1.57900438E-02   6.85549530E-03   8.35855559E-13   2.02117076E-07   9.09526844E-06   5.53969095E-01   6.87198060E-05   1.21270246E-02   3.56809232E-10   4.81128515E-01   2.82963909E-02   1.81397564E-08   4.04234153E-04   1.71799515E-06   3.94128299E-05   1.33535564E-03
   5.42500000E+02   5.00000000E-01   5.00000000E-01  -3.41896062E-03   2.94686829E-10   4.80665451E-03   3.72533237E-02   1.61640274E-02   7.02398636E-03   8.63475350E-13   2.02385453E-07   9.10734539E-06   5.54704671E-01   6.88110541E-05   1.21431272E-02   3.74586273E-10   4.81858854E-01   2.83339636E-02   1.81604019E-08   4.04770906E-04   1.72027635E-06   3.94651634E-05   1.41465647E-03
   5.77500000E+02   5.00000000E-01   5.00000000E-01  -3.26425952E-03   3.52939535E-10   4.81333513E-03   3.66726201E-02   1.65400662E-02   7.18690263E-03   8.89292785E-13   2.02666742E-07   9.12000341E-06   5.55475638E-01   6.89066924E-05   1.21600045E-02   3.92461648E-10   4.82620630E-01   2.83733441E-02   1.81821907E-08   4.05333485E-04   1.72266731E-06   3.95200148E-05   1.49705589E-03
   6.12500000E+02   5.00000000E-01   5.00000000E-01  -3.10372737E-03   4.21544605E-10   4.82031624E-03   3.60940486E-02   1.69182052E-02   7.34588076E-03   9.12874472E-13   2.02960684E-07   9.13323077E-06   5.56281282E-01   6.90066325E-05   1.21776410E-02   4.10437839E-10   4.83413452E-01   2.84144959E-02   1.82050987E-08   4.05921368E-04   1.72516581E-06   3.95773334E-05   1.58270855E-03
   6.47500000E+02   5.00000000E-01   5.00000000E-01  -2.93855025E-03   5.02200157E-10   4.82759249E-03   3.55166738E-02   1.72984909E-02   7.50226938E-03   9.33846436E-13   2.03267052E-07   9.14701735E-06   5.57120987E-01   6.91107978E-05   1.21960231E-02   4.28517323E-10   4.84236922E-01   2.84573875E-02   1.82291053E-08   4.06534105E-04   1.72776994E-06   3.96370752E-05   1.67176407E-03
   6.82500000E+02   5.00000000E-01   5.00000000E-01  -2.77009522E-03   5.96860947E-10   4.83515929E-03   3.49399100E-02   1.76809707E-02   7.65720297E-03   9.51898650E-13   2.03585654E-07   9.16135444E-06   5.57994221E-01   6.92191224E-05   1.22151393E-02   4.46702586E-10   4.85090642E-01   2.85019918E-02   1.82541925E-08   4.07171308E-04   1.73047806E-06   3.96992026E-05   1.76436558E-03
   7.17500000E+02   5.00000000E-01   5.00000000E-01  -2.59986167E-03   7.07771797E-10   4.84301271E-03   3.43634322E-02   1.80656933E-02   7.81165571E-03   9.66788421E-13   2.03916324E-07   9.17623460E-06   5.58900533E-01   6.93315503E-05   1.22349795E-02   4.64996132E-10   4.85974224E-01   2.85482857E-02   1.82803450E-08   4.07832649E-04   1.73328876E-06   3.97636833E-05   1.86064727E-03
   7.52500000E+02   5.00000000E-01   5.00000000E-01  -2.42942239E-03   8.37503688E-10   4.85114943E-03   3.37870997E-02   1.84527086E-02   7.96647995E-03   9.78341779E-13   2.04258923E-07   9.19165155E-06   5.59839539E-01   6.94480339E-05   1.22555354E-02   4.83400483E-10   4.86887306E-01   2.85962495E-02   1.83075495E-08   4.08517847E-04   1.73620085E-06   3.98304900E-05   1.96073134E-03
   7.87500000E+02   5.00000000E-01   5.00000000E-01  -2.26035921E-03   9.88992486E-10   4.85956668E-03   3.32108886E-02   1.88420677E-02   8.12243293E-03   9.86452309E-13   2.04613334E-07   9.20760003E-06   5.60810919E-01   6.95685335E-05   1.22768000E-02   5.01918194E-10   4.87829554E-01   2.86458670E-02   1.83357952E-08   4.09226668E-04   1.73921334E-06   3.98996001E-05   2.06472474E-03
   8.22500000E+02   5.00000000E-01   5.00000000E-01  -2.09419851E-03   1.16558029E-09   4.86826219E-03   3.26348342E-02   1.92338229E-02   8.28019497E-03   9.91077241E-13   2.04979460E-07   9.22407572E-06   5.61814411E-01   6.96930166E-05   1.22987676E-02   5.20551850E-10   4.88800675E-01   2.86971247E-02   1.83650728E-08   4.09958921E-04   1.74232541E-06   3.99709948E-05   2.17271608E-03
   8.57500000E+02   5.00000000E-01   5.00000000E-01  -1.93235187E-03   1.37105955E-09   4.87723412E-03   3.20589828E-02   1.96280276E-02   8.44038167E-03   9.92231016E-13   2.05357226E-07   9.24107518E-06   5.62849804E-01   6.98214569E-05   1.23214336E-02   5.39304070E-10   4.89800423E-01   2.87500119E-02   1.83953749E-08   4.10714452E-04   1.74553642E-06   4.00446591E-05   2.28477325E-03
   8.92500000E+02   5.00000000E-01   5.00000000E-01  -1.77606628E-03   1.60972016E-09   4.88648108E-03   3.14833537E-02   2.00247366E-02   8.60355212E-03   9.89976918E-13   2.05746572E-07   9.25859572E-06   5.63916934E-01   6.99538344E-05   1.23447943E-02   5.58177512E-10   4.90828601E-01   2.88045203E-02   1.84266957E-08   4.11493143E-04   1.74884586E-06   4.01205815E-05   2.40094197E-03
   9.27500000E+02   5.00000000E-01   5.00000000E-01  -1.62638720E-03   1.88639990E-09   4.89600202E-03   3.09079109E-02   2.04240056E-02   8.77021474E-03   9.84417582E-13   2.06147453E-07   9.27663541E-06   5.65015685E-01   7.00901342E-05   1.23688472E-02   5.77174872E-10   4.91885073E-01   2.88606438E-02   1.84590306E-08   4.12294907E-04   1.75225335E-06   4.01987534E-05   2.52124543E-03
   9.62500000E+02   5.00000000E-01   5.00000000E-01  -1.48413602E-03   2.20653871E-09   4.90579628E-03   3.03325447E-02   2.08258917E-02   8.94083158E-03   9.75685325E-13   2.06559843E-07   9.29519295E-06   5.66145976E-01   7.02303467E-05   1.23935906E-02   5.96298885E-10   4.92969753E-01   2.89183783E-02   1.84923767E-08   4.13119686E-04   1.75575867E-06   4.02791694E-05   2.64568508E-03
   9.97500000E+02   5.00000000E-01   5.00000000E-01  -1.34990195E-03   2.57623735E-09   4.91586349E-03   2.97570630E-02   2.12304534E-02   9.11582201E-03   9.63933096E-13   2.06983726E-07   9.31426767E-06   5.67307768E-01   7.03744669E-05   1.24190236E-02   6.15552328E-10   4.94082619E-01   2.89777219E-02   1.85267319E-08   4.13967452E-04   1.75936167E-06   4.03618266E-05   2.77424223E-03
   1.03250000E+03   5.00000000E-01   5.00000000E-01  -1.22404686E-03   3.00232125E-09   4.92620362E-03   2.91811895E-02   2.16377500E-02   9.29556584E-03   9.49326731E-13   2.07419100E-07   9.33385949E-06   5.68501055E-01   7.05224940E-05   1.24451460E-02   6.34938020E-10   4.95223698E-01   2.90386742E-02   1.85620956E-08   4.14838200E-04   1.76306235E-06   4.04467245E-05   2.90688040E-03
   1.06750000E+03   5.00000000E-01   5.00000000E-01  -1.10672075E-03   3.49240983E-09   4.93681690E-03   2.86045698E-02   2.20478425E-02   9.48040613E-03   9.32038939E-13   2.07865975E-07   9.35396886E-06   5.69725864E-01   7.06744314E-05   1.24719585E-02   6.54458824E-10   4.96393071E-01   2.91012366E-02   1.85984680E-08   4.15731949E-04   1.76686078E-06   4.05338651E-05   3.04354789E-03
   1.10250000E+03   5.00000000E-01   5.00000000E-01  -9.97884775E-04   4.05499107E-09   4.94770383E-03   2.80267816E-02   2.24607930E-02   9.67065139E-03   9.12245296E-13   2.08324372E-07   9.37459672E-06   5.70982253E-01   7.08302863E-05   1.24994623E-02   6.74117645E-10   4.97590865E-01   2.91654121E-02   1.86358506E-08   4.16648743E-04   1.77075716E-06   4.06232525E-05   3.18418060E-03
   1.13750000E+03   5.00000000E-01   5.00000000E-01  -8.97338761E-04   4.69950133E-09   4.95886516E-03   2.74473486E-02   2.28766646E-02   9.86657701E-03   8.90122024E-13   2.08794322E-07   9.39574451E-06   5.72270310E-01   7.09900696E-05   1.25276593E-02   6.93917439E-10   4.98817251E-01   2.92312051E-02   1.86742455E-08   4.17588645E-04   1.77475174E-06   4.07148929E-05   3.32870467E-03
   1.17250000E+03   5.00000000E-01   5.00000000E-01  -8.04750495E-04   5.43641092E-09   4.97030189E-03   2.68657563E-02   2.32955222E-02   1.00684259E-02   8.65845142E-13   2.09275869E-07   9.41741410E-06   5.73590148E-01   7.11537954E-05   1.25565521E-02   7.13861205E-10   5.00072432E-01   2.92986214E-02   1.87136560E-08   4.18551738E-04   1.77884489E-06   4.08087944E-05   3.47703873E-03
   1.20750000E+03   5.00000000E-01   5.00000000E-01  -7.19684424E-04   6.27731646E-09   4.98201524E-03   2.62814683E-02   2.37174319E-02   1.02764084E-02   8.39590635E-13   2.09769063E-07   9.43960782E-06   5.74941909E-01   7.13214813E-05   1.25861438E-02   7.33951997E-10   5.01356645E-01   2.93676682E-02   1.87540860E-08   4.19538125E-04   1.78303703E-06   4.09049672E-05   3.62909524E-03
   1.24250000E+03   5.00000000E-01   5.00000000E-01  -6.41628221E-04   7.23504015E-09   4.99400664E-03   2.56939429E-02   2.41424611E-02   1.04907008E-02   8.11535383E-13   2.10273964E-07   9.46232837E-06   5.76325759E-01   7.14931477E-05   1.26164378E-02   7.54192920E-10   5.02670152E-01   2.94383538E-02   1.87955405E-08   4.20547928E-04   1.78732869E-06   4.10034229E-05   3.78478048E-03
   1.27750000E+03   5.00000000E-01   5.00000000E-01  -5.70016280E-04   8.32372535E-09   5.00627774E-03   2.51026489E-02   2.45706786E-02   1.07114429E-02   7.81859493E-13   2.10790642E-07   9.48557888E-06   5.77741887E-01   7.16688182E-05   1.26474385E-02   7.74587133E-10   5.04013239E-01   2.95106878E-02   1.88380250E-08   4.21581284E-04   1.79172046E-06   4.11041751E-05   3.94399270E-03
   1.31250000E+03   5.00000000E-01   5.00000000E-01  -5.04249732E-04   9.55890635E-09   5.01883039E-03   2.45070817E-02   2.50021543E-02   1.09387317E-02   7.50750473E-13   2.11319174E-07   9.50936285E-06   5.79190506E-01   7.18485193E-05   1.26791505E-02   7.95137856E-10   5.05386211E-01   2.95846809E-02   1.88815459E-08   4.22638349E-04   1.79621298E-06   4.12072390E-05   4.10661624E-03
   1.34750000E+03   5.00000000E-01   5.00000000E-01  -4.43713074E-04   1.09575104E-08   5.03166662E-03   2.39067803E-02   2.54369594E-02   1.11726104E-02   7.18410004E-13   2.11859647E-07   9.53368413E-06   5.80671852E-01   7.20322801E-05   1.27115788E-02   8.15848370E-10   5.06789399E-01   2.96603445E-02   1.89261102E-08   4.23719295E-04   1.80080700E-06   4.13126312E-05   4.27250483E-03
   1.38250000E+03   5.00000000E-01   5.00000000E-01  -3.87788300E-04   1.25376606E-08   5.04478867E-03   2.33013492E-02   2.58751670E-02   1.14130458E-02   6.85067136E-13   2.12412155E-07   9.55854696E-06   5.82186182E-01   7.22201326E-05   1.27447293E-02   8.36722020E-10   5.08223172E-01   2.97376910E-02   1.89717258E-08   4.24824309E-04   1.80550331E-06   4.14203701E-05   4.44143887E-03
   1.41750000E+03   5.00000000E-01   5.00000000E-01  -3.35868055E-04   1.43179997E-08   5.05819894E-03   2.26904903E-02   2.63168513E-02   1.16598838E-02   6.51003395E-13   2.12976798E-07   9.58395589E-06   5.83733774E-01   7.24121112E-05   1.27786079E-02   8.57762219E-10   5.09687976E-01   2.98167327E-02   1.90184012E-08   4.25953595E-04   1.81030278E-06   4.15304755E-05   4.61301917E-03
   1.45250000E+03   5.00000000E-01   5.00000000E-01  -2.87371517E-04   1.63157673E-08   5.07190003E-03   2.20740629E-02   2.67620851E-02   1.19127545E-02   6.16605422E-13   2.13553685E-07   9.60991584E-06   5.85314927E-01   7.26082530E-05   1.28132211E-02   8.78972449E-10   5.11184423E-01   2.98974816E-02   1.90661454E-08   4.27107371E-04   1.81520633E-06   4.16429687E-05   4.78640835E-03
   1.48750000E+03   5.00000000E-01   5.00000000E-01  -2.41769895E-04   1.85413480E-08   5.08589470E-03   2.14522088E-02   2.72109387E-02   1.21708597E-02   5.82478993E-13   2.14142935E-07   9.63643206E-06   5.86929961E-01   7.28085978E-05   1.28485761E-02   9.00356270E-10   5.12713485E-01   2.99799468E-02   1.91149682E-08   4.28285869E-04   1.82021494E-06   4.17578723E-05   4.95978622E-03
   1.52250000E+03   5.00000000E-01   5.00000000E-01  -1.98621217E-04   2.09870545E-08   5.10018589E-03   2.08255732E-02   2.76634778E-02   1.24325861E-02   5.49595809E-13   2.14744669E-07   9.66351011E-06   5.88579215E-01   7.30131875E-05   1.28846801E-02   9.21917316E-10   5.14276863E-01   3.00641303E-02   1.91648802E-08   4.29489338E-04   1.82532969E-06   4.18752105E-05   5.12939165E-03
   1.55750000E+03   5.00000000E-01   5.00000000E-01  -1.57600629E-04   2.36107915E-08   5.11477673E-03   2.01956046E-02   2.81197521E-02   1.26949824E-02   5.19364392E-13   2.15359020E-07   9.69115590E-06   5.90263047E-01   7.32220668E-05   1.29215412E-02   9.43659303E-10   5.15877457E-01   3.01500166E-02   1.92158923E-08   4.30718040E-04   1.83055167E-06   4.19950089E-05   5.28842161E-03
   1.59250000E+03   5.00000000E-01   5.00000000E-01  -1.18474488E-04   2.63279553E-08   5.12967048E-03   1.95647559E-02   2.85797665E-02   1.29534382E-02   4.93355410E-13   2.15986125E-07   9.71937565E-06   5.91981839E-01   7.34352827E-05   1.29591675E-02   9.65586032E-10   5.17519593E-01   3.02375467E-02   1.92680163E-08   4.31972251E-04   1.83588207E-06   4.21172945E-05   5.42729374E-03
   1.62750000E+03   5.00000000E-01   5.00000000E-01  -8.09054093E-05   2.90528740E-08   5.14487061E-03   1.89359766E-02   2.90434187E-02   1.32025671E-02   4.72210463E-13   2.16626131E-07   9.74817589E-06   5.93735987E-01   7.36528845E-05   1.29975679E-02   9.87701388E-10   5.19208070E-01   3.03265542E-02   1.93212645E-08   4.33252262E-04   1.84132211E-06   4.22420955E-05   5.53869323E-03
   1.66250000E+03   5.00000000E-01   5.00000000E-01  -4.42079723E-05   3.17862656E-08   5.16038074E-03   1.83112503E-02   2.95103308E-02   1.34385851E-02   4.54538345E-13   2.17279189E-07   9.77756350E-06   5.95525909E-01   7.38749242E-05   1.30367513E-02   1.01000935E-09   5.20946077E-01   3.04165950E-02   1.93756498E-08   4.34558378E-04   1.84687311E-06   4.23694418E-05   5.62511167E-03
   1.69750000E+03   5.00000000E-01   5.00000000E-01  -7.44472585E-06   3.46313526E-08   5.17620465E-03   1.76905047E-02   2.99793867E-02   1.36609931E-02   4.37679358E-13   2.17945459E-07   9.80754566E-06   5.97352044E-01   7.41014561E-05   1.30767275E-02   1.03251399E-09   5.22734116E-01   3.05064857E-02   1.94311859E-08   4.35890918E-04   1.85253640E-06   4.24993645E-05   5.69807970E-03
   1.73250000E+03   5.00000000E-01   5.00000000E-01   3.02471701E-05   3.77209811E-08   5.19234632E-03   1.70719343E-02   3.04474234E-02   1.38720378E-02   4.19458448E-13   2.18625108E-07   9.83812986E-06   5.99214849E-01   7.43325368E-05   1.31175065E-02   1.05521947E-09   5.24570749E-01   3.05929950E-02   1.94878868E-08   4.37250216E-04   1.85831342E-06   4.26318961E-05   5.76992390E-03
   1.76750000E+03   5.00000000E-01   5.00000000E-01   6.94763887E-05   4.11631242E-08   5.20880986E-03   1.64530776E-02   3.09053938E-02   1.40750993E-02   3.98990349E-13   2.19318310E-07   9.86932395E-06   6.01114799E-01   7.45682254E-05   1.31590986E-02   1.07813005E-09   5.26453859E-01   3.06670061E-02   1.95457676E-08   4.38636620E-04   1.86420563E-06   4.27670704E-05   5.84857010E-03
   1.80250000E+03   5.00000000E-01   5.00000000E-01   1.10520262E-04   4.50312299E-08   5.22559959E-03   1.58318400E-02   3.13267969E-02   1.42733008E-02   3.76713315E-13   2.20025246E-07   9.90113606E-06   6.03052392E-01   7.48085836E-05   1.32015148E-02   1.10125012E-09   5.28381454E-01   3.07019474E-02   1.96048435E-08   4.40050492E-04   1.87021459E-06   4.29049229E-05   5.93724245E-03
   1.83750000E+03   5.00000000E-01   5.00000000E-01   1.53049336E-04   4.93765444E-08   5.24271997E-03   1.52072172E-02   3.16326902E-02   1.44687727E-02   3.54538778E-13   2.20746104E-07   9.93357469E-06   6.05028144E-01   7.50536754E-05   1.32447662E-02   1.12458413E-09   5.30351972E-01   3.06188036E-02   1.96651307E-08   4.41492208E-04   1.87634189E-06   4.30454903E-05   6.03634391E-03
   1.87250000E+03   5.00000000E-01   5.00000000E-01   1.95030036E-04   5.42422055E-08   5.26017567E-03   1.45801015E-02   3.15934218E-02   1.46623912E-02   3.37154797E-13   2.21481081E-07   9.96664863E-06   6.07042592E-01   7.53035674E-05   1.32888648E-02   1.14813668E-09   5.32364285E-01   3.01878486E-02   1.97266459E-08   4.42962161E-04   1.88258919E-06   4.31888107E-05   6.14539580E-03
   1.90750000E+03   5.00000000E-01   5.00000000E-01   2.29818097E-04   5.96720787E-08   5.27797149E-03   1.39547822E-02   3.06339779E-02   1.48537826E-02   3.35814380E-13   2.22230379E-07   1.00003670E-05   6.09096292E-01   7.55583287E-05   1.33338227E-02   1.17191244E-09   5.34417600E-01   2.88339931E-02   1.97894064E-08   4.44460757E-04   1.88895822E-06   4.33349238E-05   6.26451862E-03
   1.94250000E+03   5.00000000E-01   5.00000000E-01   2.43984795E-04   6.57154291E-08   5.29611246E-03   1.33392978E-02   2.78911168E-02   1.50421148E-02   3.73911760E-13   2.22994209E-07   1.00347394E-05   6.11189823E-01   7.58180310E-05   1.33796525E-02   1.19591624E-09   5.36511343E-01   2.56939175E-02   1.98534304E-08   4.45988418E-04   1.89545078E-06   4.34838707E-05   6.39519929E-03
   1.97750000E+03   5.00000000E-01   5.00000000E-01   2.29099599E-04   7.23981170E-08   5.31460376E-03   1.27376905E-02   2.34202369E-02   1.52278923E-02   4.83549997E-13   2.23772790E-07   1.00697756E-05   6.13323784E-01   7.60827486E-05   1.34263674E-02   1.22015298E-09   5.38645276E-01   2.08229395E-02   1.99187366E-08   4.47545580E-04   1.90206872E-06   4.36356941E-05   6.53632230E-03
   2.01250000E+03   5.00000000E-01   5.00000000E-01   1.97285996E-04   7.97203484E-08   5.33345077E-03   1.21422580E-02   1.87965064E-02   1.54128594E-02   6.80547671E-13   2.24566348E-07   1.01054857E-05   6.15498794E-01   7.63525584E-05   1.34739809E-02   1.24462772E-09   5.40819634E-01   1.57961462E-02   1.99853443E-08   4.49132696E-04   1.90881396E-06   4.37904379E-05   6.68075277E-03
   2.04750000E+03   5.00000000E-01   5.00000000E-01   1.66362168E-04   8.77310438E-08   5.35265905E-03   1.15433523E-02   1.52597261E-02   1.55977725E-02   9.33239366E-13   2.25375118E-07   1.01418803E-05   6.17715496E-01   7.66275401E-05   1.35225071E-02   1.26934561E-09   5.43034852E-01   1.18532578E-02   2.00532735E-08   4.50750236E-04   1.91568850E-06   4.39481480E-05   6.82281509E-03
   2.08250000E+03   5.00000000E-01   5.00000000E-01   1.44293401E-04   9.65321945E-08   5.37223436E-03   1.09380284E-02   1.29588766E-02   1.57816572E-02   1.16420315E-12   2.26199342E-07   1.01789704E-05   6.19974555E-01   7.69077761E-05   1.35719605E-02   1.29431194E-09   5.45291289E-01   9.14317433E-03   2.01225452E-08   4.52398683E-04   1.92269440E-06   4.41088716E-05   6.96227414E-03
   2.11750000E+03   5.00000000E-01   5.00000000E-01   1.31404565E-04   1.06236984E-07   5.39218266E-03   1.03284311E-02   1.15850501E-02   1.59623242E-02   1.30127294E-12   2.27039270E-07   1.02167671E-05   6.22276658E-01   7.71933518E-05   1.36223562E-02   1.31953214E-09   5.47589218E-01   7.35690543E-03   2.01931808E-08   4.54078540E-04   1.92983379E-06   4.42726576E-05   7.10104012E-03
   2.15250000E+03   5.00000000E-01   5.00000000E-01   1.25473210E-04   1.16954122E-07   5.41251010E-03   9.71865127E-03   1.08126851E-02   1.61369330E-02   1.32268420E-12   2.27895162E-07   1.02552823E-05   6.24622516E-01   7.74843551E-05   1.36737097E-02   1.34501176E-09   5.49928887E-01   6.16880507E-03   2.02652025E-08   4.55790324E-04   1.93710888E-06   4.44395566E-05   7.24066581E-03
   2.18750000E+03   5.00000000E-01   5.00000000E-01   1.24119712E-04   1.28790363E-07   5.43322305E-03   9.11315745E-03   1.04097956E-02   1.63023405E-02   1.25129520E-12   2.28767286E-07   1.02945279E-05   6.27012863E-01   7.77808774E-05   1.37260372E-02   1.37075649E-09   5.52310568E-01   5.34680089E-03   2.03386334E-08   4.57534573E-04   1.94452193E-06   4.46096208E-05   7.38187530E-03
   2.22250000E+03   5.00000000E-01   5.00000000E-01   1.25540390E-04   1.41857247E-07   5.45432809E-03   8.51622043E-03   1.02327593E-02   1.64552997E-02   1.12408597E-12   2.29655919E-07   1.03345164E-05   6.29448457E-01   7.80830126E-05   1.37793552E-02   1.39677215E-09   5.54734584E-01   4.74718206E-03   2.04134973E-08   4.59311839E-04   1.95207532E-06   4.47829043E-05   7.52482096E-03
   2.25750000E+03   5.00000000E-01   5.00000000E-01   1.28520722E-04   1.56275663E-07   5.47583200E-03   7.93178056E-03   1.01970623E-02   1.65925840E-02   9.72772218E-13   2.30561347E-07   1.03752606E-05   6.31930084E-01   7.83908581E-05   1.38336808E-02   1.42306471E-09   5.57201308E-01   4.28534439E-03   2.04898187E-08   4.61122695E-04   1.95977145E-06   4.49594628E-05   7.66936828E-03
   2.29250000E+03   5.00000000E-01   5.00000000E-01   1.32319043E-04   1.72180509E-07   5.49774181E-03   7.36340765E-03   1.02545302E-02   1.67110884E-02   8.18560219E-13   2.31483866E-07   1.04167740E-05   6.34458553E-01   7.87045144E-05   1.38890320E-02   1.44964030E-09   5.59711160E-01   3.91302149E-03   2.05676231E-08   4.62967732E-04   1.96761286E-06   4.51393538E-05   7.81530860E-03
   2.32750000E+03   5.00000000E-01   5.00000000E-01   1.36494441E-04   1.89723367E-07   5.52006477E-03   6.81429415E-03   1.03772155E-02   1.68079269E-02   6.73845947E-13   2.32423780E-07   1.04590701E-05   6.37034699E-01   7.90240851E-05   1.39454268E-02   1.47650519E-09   5.62264596E-01   3.60217212E-03   2.06469367E-08   4.64847559E-04   1.97560213E-06   4.53226370E-05   7.96246106E-03
   2.36250000E+03   5.00000000E-01   5.00000000E-01   1.40735530E-04   2.09070844E-07   5.54280835E-03   6.28725261E-03   1.05471522E-02   1.68805214E-02   5.45071468E-13   2.33381404E-07   1.05021632E-05   6.39659388E-01   7.93496774E-05   1.40028842E-02   1.50366580E-09   5.64862114E-01   3.33473457E-03   2.07277865E-08   4.66762808E-04   1.98374194E-06   4.55093738E-05   8.11063513E-03
   2.39750000E+03   5.00000000E-01   5.00000000E-01   1.44805762E-04   2.30404706E-07   5.56598028E-03   5.78465858E-03   1.07522931E-02   1.69266856E-02   4.34698608E-13   2.34357064E-07   1.05460679E-05   6.42333509E-01   7.96814019E-05   1.40614239E-02   1.53112872E-09   5.67504248E-01   3.09856436E-03   2.08102007E-08   4.68714129E-04   1.99203505E-06   4.56996275E-05   8.25960427E-03
   2.43250000E+03   5.00000000E-01   5.00000000E-01   1.48559201E-04   2.53924998E-07   5.58958853E-03   5.30836869E-03   1.09851582E-02   1.69447006E-02   3.42651518E-13   2.35351096E-07   1.05907993E-05   6.45057984E-01   8.00193727E-05   1.41210658E-02   1.55890070E-09   5.70191571E-01   2.88608275E-03   2.08942080E-08   4.70702192E-04   2.00048432E-06   4.58934637E-05   8.40913336E-03
   2.46750000E+03   5.00000000E-01   5.00000000E-01   1.51950617E-04   2.79853046E-07   5.61364135E-03   4.85966608E-03   1.12417183E-02   1.69333653E-02   2.67450411E-13   2.36363846E-07   1.06363731E-05   6.47833762E-01   8.03637077E-05   1.41818308E-02   1.58698867E-09   5.72924691E-01   2.69315987E-03   2.09798384E-08   4.72727692E-04   2.00909269E-06   4.60909500E-05   8.55900052E-03
   2.50250000E+03   5.00000000E-01   5.00000000E-01   1.54987550E-04   3.08433686E-07   5.63814722E-03   4.43926073E-03   1.15196003E-02   1.68920221E-02   2.07016885E-13   2.37395672E-07   1.06828052E-05   6.50661825E-01   8.07145286E-05   1.42437403E-02   1.61539973E-09   5.75704250E-01   2.51732049E-03   2.10671227E-08   4.74791344E-04   2.01786321E-06   4.62921561E-05   8.70900499E-03
   2.53750000E+03   5.00000000E-01   5.00000000E-01   1.57668462E-04   3.39938943E-07   5.66311491E-03   4.04732199E-03   1.18166793E-02   1.68205572E-02   1.59122913E-13   2.38446944E-07   1.07301125E-05   6.53543184E-01   8.10719609E-05   1.43068166E-02   1.64414116E-09   5.78530922E-01   2.35633615E-03   2.11560927E-08   4.76893887E-04   2.02679902E-06   4.64971540E-05   8.85898186E-03
   2.57250000E+03   5.00000000E-01   5.00000000E-01   1.59970722E-04   3.74673481E-07   5.68855349E-03   3.68352240E-03   1.21308961E-02   1.67193653E-02   1.21606439E-13   2.39518042E-07   1.07783119E-05   6.56478885E-01   8.14361342E-05   1.43710825E-02   1.67322045E-09   5.81405405E-01   2.20804257E-03   2.12467812E-08   4.79036084E-04   2.03590336E-06   4.67060182E-05   9.00881094E-03
   2.60750000E+03   5.00000000E-01   5.00000000E-01   1.61876425E-04   4.12980089E-07   5.71447231E-03   3.34710462E-03   1.24606509E-02   1.65892726E-02   9.24922855E-14   2.40609360E-07   1.08274212E-05   6.59470006E-01   8.18071825E-05   1.44365616E-02   1.70264525E-09   5.84328422E-01   2.07073363E-03   2.13392222E-08   4.81218721E-04   2.04517956E-06   4.69188253E-05   9.15840483E-03