 TITLE = "Total Concentrations" 
VARIABLES = "X"          "Y"              "Z"            "H+"             "Al+++"          "CO2(aq)"        "Mg++"           "Ca++"           "Fe++"           "Fe+++"          "Ba++"           "Sr++"           "Cl-"            "F-"             "K+"             "HS-"            "Na+"            "SO4--"          "O2(aq)"         "B(OH)3(aq)"     "HPO4--"         "NO3-"           "H4SiO4(aq)"    
 ZONE I=         200 , J=           1 , K=           1  F=POINT
   8.75000000E+00   5.00000000E-01   5.00000000E-01  -4.67640952E-03   1.04770319E-12   4.74997155E-03   5.08019993E-02   1.05948428E-02   5.29412076E-05   1.70570730E-22   1.99998802E-07   8.99994609E-06   5.48163260E-01   6.79995927E-05   1.19940206E-02   1.00946427E-10   4.74037746E-01   2.79998323E-02   1.79997016E-08   3.99997604E-04   1.69998982E-06   3.89997664E-05   4.03270921E-04
   2.62500000E+01   5.00000000E-01   5.00000000E-01  -4.59219020E-03   4.02016696E-12   4.74999810E-03   5.04988524E-02   1.07898581E-02   1.05852340E-04   7.49468752E-22   1.99999920E-07   8.99999641E-06   5.48166324E-01   6.79999729E-05   1.19857128E-02   1.01894104E-10   4.74075654E-01   2.79999888E-02   1.79996116E-08   3.99999840E-04   1.69999932E-06   3.89999844E-05   6.02384692E-04
   4.37500000E+01   5.00000000E-01   5.00000000E-01  -4.54176635E-03   6.46671140E-12   4.75018787E-03   5.02193907E-02   1.09852894E-02   1.58746457E-04   1.48703787E-21   2.00007910E-07   9.00035596E-06   5.48188224E-01   6.80026895E-05   1.19775660E-02   1.02845406E-10   4.74119789E-01   2.80011074E-02   1.80001400E-08   4.00015821E-04   1.70006724E-06   3.90015425E-05   7.82705320E-04
   6.12500000E+01   5.00000000E-01   5.00000000E-01  -4.50516700E-03   8.35095955E-12   4.75053372E-03   4.99549145E-02   1.11811376E-02   2.11618089E-04   2.26790675E-21   2.00022473E-07   9.00101126E-06   5.48228136E-01   6.80076407E-05   1.19681025E-02   1.03800275E-10   4.74168163E-01   2.80031462E-02   1.80012599E-08   4.00044945E-04   1.70019102E-06   3.90043821E-05   9.26327645E-04
   7.87500000E+01   5.00000000E-01   5.00000000E-01  -4.47395929E-03   1.01876893E-11   4.75102913E-03   4.97005032E-02   1.13774123E-02   2.64465526E-04   3.10793012E-21   2.00043332E-07   9.00194993E-06   5.48285308E-01   6.80147328E-05   1.19572458E-02   1.04758658E-10   4.74221412E-01   2.80060664E-02   1.80029464E-08   4.00086663E-04   1.70036832E-06   3.90084497E-05   1.03355088E-03
   9.62500000E+01   5.00000000E-01   5.00000000E-01  -4.44606891E-03   1.19916766E-11   4.75166807E-03   4.94533657E-02   1.15741211E-02   3.17285694E-04   3.99215160E-21   2.00070234E-07   9.00316055E-06   5.48359044E-01   6.80238797E-05   1.19456427E-02   1.05720513E-10   4.74281623E-01   2.80098328E-02   1.80051767E-08   4.00140469E-04   1.70059699E-06   3.90136957E-05   1.11447639E-03
   1.13750000E+02   5.00000000E-01   5.00000000E-01  -4.42028722E-03   1.37051531E-11   4.75244499E-03   4.92111157E-02   1.17712695E-02   3.70073236E-04   4.91329844E-21   2.00102947E-07   9.00463261E-06   5.48448703E-01   6.80350020E-05   1.19339663E-02   1.06685800E-10   4.74350980E-01   2.80144126E-02   1.80079299E-08   4.00205894E-04   1.70087505E-06   3.90200747E-05   1.17984365E-03
   1.31250000E+02   5.00000000E-01   5.00000000E-01  -4.39549626E-03   1.53153471E-11   4.75335479E-03   4.89718590E-02   1.19688616E-02   4.22821107E-04   5.88376930E-21   2.00141254E-07   9.00635643E-06   5.48553697E-01   6.80480264E-05   1.19226984E-02   1.07654485E-10   4.74431027E-01   2.80197756E-02   1.80111864E-08   4.00282508E-04   1.70120066E-06   3.90275446E-05   1.23754903E-03
   1.48750000E+02   5.00000000E-01   5.00000000E-01  -4.37081853E-03   1.68373549E-11   4.75439272E-03   4.87342939E-02   1.21669011E-02   4.75521080E-04   6.92540737E-21   2.00184957E-07   9.00832306E-06   5.48673479E-01   6.80628853E-05   1.19121374E-02   1.08626541E-10   4.74522600E-01   2.80258940E-02   1.80149283E-08   4.00369914E-04   1.70157213E-06   3.90360666E-05   1.29253313E-03
   1.66250000E+02   5.00000000E-01   5.00000000E-01  -4.34558928E-03   1.83065509E-11   4.75555443E-03   4.84975853E-02   1.23653914E-02   5.28164276E-04   8.06482514E-21   2.00233871E-07   9.01052419E-06   5.48807544E-01   6.80795161E-05   1.19024460E-02   1.09601941E-10   4.74625997E-01   2.80327419E-02   1.80191392E-08   4.00467742E-04   1.70198790E-06   3.90456048E-05   1.34749945E-03
   1.83750000E+02   5.00000000E-01   5.00000000E-01  -4.31930450E-03   1.97708119E-11   4.75683587E-03   4.82612152E-02   1.25643356E-02   5.80741730E-04   9.33163684E-21   2.00287826E-07   9.01295217E-06   5.48955426E-01   6.80978608E-05   1.18936978E-02   1.10580668E-10   4.74741171E-01   2.80402956E-02   1.80238036E-08   4.00575652E-04   1.70244652E-06   3.90561261E-05   1.40369247E-03
   2.01250000E+02   5.00000000E-01   5.00000000E-01  -4.29168616E-03   2.12576679E-11   4.75823327E-03   4.80248944E-02   1.27637373E-02   6.33244227E-04   1.07507723E-20   2.00346664E-07   9.01559988E-06   5.49116691E-01   6.81178658E-05   1.18859277E-02   1.11562703E-10   4.74867923E-01   2.80485330E-02   1.80289072E-08   4.00693328E-04   1.70294664E-06   3.90675995E-05   1.46172127E-03
   2.18750000E+02   5.00000000E-01   5.00000000E-01  -4.26259178E-03   2.27781966E-11   4.75974317E-03   4.77884547E-02   1.29636009E-02   6.85662021E-04   1.23435198E-20   2.00410239E-07   9.01846074E-06   5.49290938E-01   6.81394811E-05   1.18791513E-02   1.12548035E-10   4.75005999E-01   2.80574334E-02   1.80344370E-08   4.00820477E-04   1.70348703E-06   3.90799965E-05   1.52192637E-03
   2.36250000E+02   5.00000000E-01   5.00000000E-01  -4.23185644E-03   2.43560325E-11   4.76136232E-03   4.75517619E-02   1.31639310E-02   7.37985335E-04   1.41365537E-20   2.00478413E-07   9.02152861E-06   5.49477794E-01   6.81626606E-05   1.18733626E-02   1.13536652E-10   4.75155108E-01   2.80669779E-02   1.80403806E-08   4.00956827E-04   1.70406651E-06   3.90932906E-05   1.58435768E-03
   2.53750000E+02   5.00000000E-01   5.00000000E-01  -4.19941481E-03   2.59971531E-11   4.76308773E-03   4.73147410E-02   1.33647332E-02   7.90203892E-04   1.61526748E-20   2.00551062E-07   9.02479780E-06   5.49676912E-01   6.81873611E-05   1.18685501E-02   1.14528549E-10   4.75314972E-01   2.80771487E-02   1.80467266E-08   4.01102124E-04   1.70468403E-06   3.91074571E-05   1.64906546E-03
   2.71250000E+02   5.00000000E-01   5.00000000E-01  -4.16521278E-03   2.77063581E-11   4.76491659E-03   4.70773301E-02   1.35660133E-02   8.42306899E-04   1.84160903E-20   2.00628067E-07   9.02826302E-06   5.49887970E-01   6.82135428E-05   1.18646949E-02   1.15523721E-10   4.75485335E-01   2.80879294E-02   1.80534645E-08   4.01256134E-04   1.70533857E-06   3.91224731E-05   1.71607493E-03
   2.88750000E+02   5.00000000E-01   5.00000000E-01  -4.12918848E-03   2.94915598E-11   4.76684632E-03   4.68394713E-02   1.37677769E-02   8.94283227E-04   2.09542352E-20   2.00709319E-07   9.03191935E-06   5.50110667E-01   6.82411684E-05   1.18617709E-02   1.16522165E-10   4.75665957E-01   2.80993046E-02   1.80605843E-08   4.01418638E-04   1.70602921E-06   3.91383172E-05   1.78537448E-03
   3.06250000E+02   5.00000000E-01   5.00000000E-01  -4.09127305E-03   3.13640495E-11   4.76887449E-03   4.66011106E-02   1.39700293E-02   9.46121658E-04   2.37983663E-20   2.00794715E-07   9.03576219E-06   5.50344724E-01   6.82702032E-05   1.18597456E-02   1.17523883E-10   4.75856615E-01   2.81112601E-02   1.80680769E-08   4.01589430E-04   1.70675508E-06   3.91549695E-05   1.85691719E-03
   3.23750000E+02   5.00000000E-01   5.00000000E-01  -4.05139560E-03   3.33377129E-11   4.77099883E-03   4.63621992E-02   1.41727753E-02   9.97811132E-04   2.69837560E-20   2.00884161E-07   9.03978726E-06   5.50589882E-01   6.83006149E-05   1.18585816E-02   1.18528877E-10   4.76057096E-01   2.81237826E-02   1.80759338E-08   4.01768323E-04   1.70751537E-06   3.91724115E-05   1.93062897E-03
   3.41250000E+02   5.00000000E-01   5.00000000E-01  -4.00948972E-03   3.54277203E-11   4.77321726E-03   4.61226951E-02   1.43760193E-02   1.04934095E-03   3.05495546E-20   2.00977569E-07   9.04399059E-06   5.50845895E-01   6.83323734E-05   1.18582383E-02   1.19537152E-10   4.76267205E-01   2.81368596E-02   1.80841469E-08   4.01955138E-04   1.70830933E-06   3.91906259E-05   2.00642113E-03
   3.58750000E+02   5.00000000E-01   5.00000000E-01  -3.96550443E-03   3.76478681E-11   4.77552780E-03   4.58825653E-02   1.45797653E-02   1.10070080E-03   3.45377427E-20   2.01074855E-07   9.04836846E-06   5.51112540E-01   6.83654506E-05   1.18586729E-02   1.20548714E-10   4.76486762E-01   2.81504797E-02   1.80927087E-08   4.02149709E-04   1.70913626E-06   3.92095967E-05   2.08421158E-03
   3.76250000E+02   5.00000000E-01   5.00000000E-01  -3.91940483E-03   4.00102499E-11   4.77792862E-03   4.56417851E-02   1.47840174E-02   1.15188076E-03   3.89930023E-20   2.01175942E-07   9.05291739E-06   5.51389603E-01   6.83998203E-05   1.18598418E-02   1.21563572E-10   4.76715604E-01   2.81646319E-02   1.81016125E-08   4.02351884E-04   1.70999551E-06   3.92293087E-05   2.16393403E-03
   3.93750000E+02   5.00000000E-01   5.00000000E-01  -3.87117602E-03   4.25240698E-11   4.78041802E-03   4.54003381E-02   1.49887797E-02   1.20287111E-03   4.39619547E-20   2.01280759E-07   9.05763414E-06   5.51676888E-01   6.84354580E-05   1.18617017E-02   1.22581736E-10   4.76953587E-01   2.81793062E-02   1.81108515E-08   4.02561517E-04   1.71088645E-06   3.92497480E-05   2.24554857E-03
   4.11250000E+02   5.00000000E-01   5.00000000E-01  -3.82082198E-03   4.51956865E-11   4.78299440E-03   4.51582152E-02   1.51940565E-02   1.25366220E-03   4.94929560E-20   2.01389238E-07   9.06251570E-06   5.51974211E-01   6.84723408E-05   1.18642101E-02   1.23603217E-10   4.77200581E-01   2.81944933E-02   1.81204199E-08   4.02778476E-04   1.71180852E-06   3.92709014E-05   2.32904445E-03
   4.28750000E+02   5.00000000E-01   5.00000000E-01  -3.76836267E-03   4.80291732E-11   4.78565626E-03   4.49154138E-02   1.53998526E-02   1.30424425E-03   5.56362038E-20   2.01501316E-07   9.06755924E-06   5.52281400E-01   6.85104476E-05   1.18673261E-02   1.24628028E-10   4.77456475E-01   2.82101843E-02   1.81303120E-08   4.03002633E-04   1.71276119E-06   3.92927567E-05   2.41443781E-03
   4.46250000E+02   5.00000000E-01   5.00000000E-01  -3.71383452E-03   5.10260577E-11   4.78840223E-03   4.46719374E-02   1.56061730E-02   1.35460715E-03   6.24432899E-20   2.01616936E-07   9.07276212E-06   5.52598294E-01   6.85497582E-05   1.18710106E-02   1.25656185E-10   4.77721169E-01   2.82263710E-02   1.81405224E-08   4.03233872E-04   1.71374396E-06   3.93153025E-05   2.50177126E-03
   4.63750000E+02   5.00000000E-01   5.00000000E-01  -3.65728901E-03   5.41855460E-11   4.79123099E-03   4.44277962E-02   1.58130230E-02   1.40474027E-03   6.99670436E-20   2.01736042E-07   9.07812188E-06   5.52924743E-01   6.85902542E-05   1.18752268E-02   1.26687702E-10   4.77994577E-01   2.82430459E-02   1.81510462E-08   4.03472084E-04   1.71475636E-06   3.93385282E-05   2.59111093E-03
   4.81250000E+02   5.00000000E-01   5.00000000E-01  -3.59879084E-03   5.75049008E-11   4.79414134E-03   4.41830061E-02   1.60204085E-02   1.45463230E-03   7.82614984E-20   2.01858583E-07   9.08363623E-06   5.53260608E-01   6.86319182E-05   1.18799404E-02   1.27722596E-10   4.78276622E-01   2.82602016E-02   1.81618789E-08   4.03717166E-04   1.71579795E-06   3.93624237E-05   2.68254234E-03
   4.98750000E+02   5.00000000E-01   5.00000000E-01  -3.53864843E-03   6.09083415E-11   4.79713214E-03   4.39376821E-02   1.62283358E-02   1.50426608E-03   8.73191942E-20   2.01984511E-07   9.08930301E-06   5.53605757E-01   6.86747339E-05   1.18851219E-02   1.28760887E-10   4.78567291E-01   2.82778316E-02   1.81730161E-08   4.03969023E-04   1.71686835E-06   3.93869797E-05   2.77645490E-03
   5.16250000E+02   5.00000000E-01   5.00000000E-01  -3.47674161E-03   6.44452573E-11   4.80020234E-03   4.36917575E-02   1.64368115E-02   1.55362740E-03   9.72416075E-20   2.02113783E-07   9.09512023E-06   5.53960068E-01   6.87186861E-05   1.18907392E-02   1.29802593E-10   4.78866509E-01   2.82959296E-02   1.81844538E-08   4.04227566E-04   1.71796715E-06   3.94121876E-05   2.87281526E-03
   5.33750000E+02   5.00000000E-01   5.00000000E-01  -3.41312819E-03   6.81209163E-11   4.80335095E-03   4.34452520E-02   1.66458427E-02   1.60270177E-03   1.08095414E-19   2.02246356E-07   9.10108601E-06   5.54323428E-01   6.87637609E-05   1.18967650E-02   1.30847735E-10   4.79174211E-01   2.83144898E-02   1.81961883E-08   4.04492711E-04   1.71909402E-06   3.94380394E-05   2.97169200E-03
   5.51250000E+02   5.00000000E-01   5.00000000E-01  -3.34792892E-03   7.19233992E-11   4.80657704E-03   4.31982148E-02   1.68554367E-02   1.65147331E-03   1.19933338E-19   2.02382191E-07   9.10719861E-06   5.54695731E-01   6.88099450E-05   1.19031747E-02   1.31896334E-10   4.79490344E-01   2.83335068E-02   1.82082161E-08   4.04764382E-04   1.72024863E-06   3.94645273E-05   3.07320790E-03
   5.68750000E+02   5.00000000E-01   5.00000000E-01  -3.28126581E-03   7.58413632E-11   4.80987977E-03   4.29506973E-02   1.70656009E-02   1.69992473E-03   1.32809810E-19   2.02521253E-07   9.11345640E-06   5.55076877E-01   6.88572261E-05   1.19099462E-02   1.32948412E-10   4.79814861E-01   2.83529755E-02   1.82205338E-08   4.05042507E-04   1.72143065E-06   3.94916444E-05   3.17749125E-03
   5.86250000E+02   5.00000000E-01   5.00000000E-01  -3.21325524E-03   7.98668658E-11   4.81325833E-03   4.27027505E-02   1.72763427E-02   1.74803769E-03   1.46783976E-19   2.02663508E-07   9.11985788E-06   5.55466774E-01   6.89055929E-05   1.19170595E-02   1.34003994E-10   4.80147716E-01   2.83728912E-02   1.82331386E-08   4.05327017E-04   1.72263982E-06   3.95193842E-05   3.28466291E-03
   6.03750000E+02   5.00000000E-01   5.00000000E-01  -3.14400874E-03   8.39958045E-11   4.81671197E-03   4.24544262E-02   1.74876693E-02   1.79579307E-03   1.61920781E-19   2.02808925E-07   9.12640163E-06   5.55865337E-01   6.89550346E-05   1.19244962E-02   1.35063104E-10   4.80488863E-01   2.83932495E-02   1.82460275E-08   4.05617850E-04   1.72387586E-06   3.95477404E-05   3.39483119E-03
   6.21250000E+02   5.00000000E-01   5.00000000E-01  -3.07363486E-03   8.82278295E-11   4.82024002E-03   4.22057781E-02   1.76995879E-02   1.84317139E-03   1.78291634E-19   2.02957474E-07   9.13308635E-06   5.56272486E-01   6.90055413E-05   1.19322399E-02   1.36125766E-10   4.80838259E-01   2.84140464E-02   1.82591979E-08   4.05914949E-04   1.72513853E-06   3.95767075E-05   3.50808993E-03
   6.38750000E+02   5.00000000E-01   5.00000000E-01  -3.00224204E-03   9.25657239E-11   4.82384182E-03   4.19568624E-02   1.79121052E-02   1.89015303E-03   1.95974464E-19   2.03109129E-07   9.13991082E-06   5.56688146E-01   6.90571040E-05   1.19402757E-02   1.37192008E-10   4.81195858E-01   2.84352781E-02   1.82726474E-08   4.06218259E-04   1.72642760E-06   3.96062802E-05   3.62451942E-03
   6.56250000E+02   5.00000000E-01   5.00000000E-01  -2.92994205E-03   9.70142805E-11   4.82751678E-03   4.17077398E-02   1.81252279E-02   1.93671855E-03   2.15052990E-19   2.03263865E-07   9.14687391E-06   5.57112250E-01   6.91097140E-05   1.19485902E-02   1.38261855E-10   4.81561612E-01   2.84569411E-02   1.82863738E-08   4.06527729E-04   1.72774285E-06   3.96364536E-05   3.74418966E-03
   6.73750000E+02   5.00000000E-01   5.00000000E-01  -2.85685281E-03   1.01579080E-10   4.83126436E-03   4.14584755E-02   1.83389625E-02   1.98284879E-03   2.35615561E-19   2.03421657E-07   9.15397457E-06   5.57544733E-01   6.91633634E-05   1.19571714E-02   1.39335336E-10   4.81935479E-01   2.84790320E-02   1.83003749E-08   4.06843314E-04   1.72908409E-06   3.96672232E-05   3.86716445E-03
   6.91250000E+02   5.00000000E-01   5.00000000E-01  -2.78310132E-03   1.06264907E-10   4.83508403E-03   4.12091404E-02   1.85533152E-02   2.02852489E-03   2.57753046E-19   2.03582486E-07   9.16121185E-06   5.57985537E-01   6.92180451E-05   1.19660085E-02   1.40412480E-10   4.82317412E-01   2.85015480E-02   1.83146487E-08   4.07164971E-04   1.73045113E-06   3.96985847E-05   3.99350657E-03
   7.08750000E+02   5.00000000E-01   5.00000000E-01  -2.70882373E-03   1.11074996E-10   4.83897534E-03   4.09598106E-02   1.87682925E-02   2.07372826E-03   2.81557492E-19   2.03746330E-07   9.16858486E-06   5.58434607E-01   6.92737523E-05   1.19750920E-02   1.41493315E-10   4.82707372E-01   2.85244862E-02   1.83291936E-08   4.07492660E-04   1.73184381E-06   3.97305344E-05   4.12328088E-03
   7.26250000E+02   5.00000000E-01   5.00000000E-01  -2.63416457E-03   1.16010484E-10   4.84293785E-03   4.07105664E-02   1.89839006E-02   2.11844044E-03   3.07120774E-19   2.03913173E-07   9.17609277E-06   5.58891895E-01   6.93304787E-05   1.19844132E-02   1.42577871E-10   4.83105319E-01   2.85478442E-02   1.83440079E-08   4.07826345E-04   1.73326197E-06   3.97630687E-05   4.25655651E-03
   7.43750000E+02   5.00000000E-01   5.00000000E-01  -2.55927535E-03   1.21070055E-10   4.84697116E-03   4.04614917E-02   1.92001460E-02   2.16264301E-03   3.34533297E-19   2.04082996E-07   9.18373483E-06   5.59357353E-01   6.93882188E-05   1.19939646E-02   1.43666180E-10   4.83511219E-01   2.85716195E-02   1.83590900E-08   4.08165993E-04   1.73470547E-06   3.97961843E-05   4.39340809E-03
   7.61250000E+02   5.00000000E-01   5.00000000E-01  -2.48431254E-03   1.26249813E-10   4.85107492E-03   4.02126725E-02   1.94170353E-02   2.20631745E-03   3.63882861E-19   2.04255786E-07   9.19151037E-06   5.59830941E-01   6.94469673E-05   1.20037394E-02   1.44758273E-10   4.83925041E-01   2.85958101E-02   1.83744385E-08   4.08511572E-04   1.73617418E-06   3.98298783E-05   4.53391607E-03
   7.78750000E+02   5.00000000E-01   5.00000000E-01  -2.40943511E-03   1.31543393E-10   4.85524879E-03   3.99641963E-02   1.96345752E-02   2.24944495E-03   3.95253845E-19   2.04431528E-07   9.19941876E-06   5.60312620E-01   6.95067195E-05   1.20137316E-02   1.45854181E-10   4.84346756E-01   2.86204139E-02   1.83900523E-08   4.08863056E-04   1.73766799E-06   3.98641479E-05   4.67816619E-03
   7.96250000E+02   5.00000000E-01   5.00000000E-01  -2.33480163E-03   1.36942401E-10   4.85949247E-03   3.97161501E-02   1.98527728E-02   2.29200637E-03   4.28726958E-19   2.04610209E-07   9.20745942E-06   5.60802356E-01   6.95674712E-05   1.20239359E-02   1.46953939E-10   4.84776342E-01   2.86454293E-02   1.84059302E-08   4.09220419E-04   1.73918678E-06   3.98989908E-05   4.82624801E-03
   8.13750000E+02   5.00000000E-01   5.00000000E-01  -2.26056712E-03   1.42437162E-10   4.86380570E-03   3.94686192E-02   2.00716352E-02   2.33398220E-03   4.64379741E-19   2.04791819E-07   9.21563186E-06   5.61300117E-01   6.96292185E-05   1.20343473E-02   1.48057579E-10   4.85213777E-01   2.86708547E-02   1.84220711E-08   4.09583638E-04   1.74073046E-06   3.99344047E-05   4.97825260E-03
   8.31250000E+02   5.00000000E-01   5.00000000E-01  -2.18688001E-03   1.48017701E-10   4.86818824E-03   3.92216862E-02   2.02911697E-02   2.37535260E-03   5.02287844E-19   2.04976347E-07   9.22393561E-06   5.61805877E-01   6.96919579E-05   1.20449618E-02   1.49165135E-10   4.85659044E-01   2.86966886E-02   1.84384742E-08   4.09952694E-04   1.74229895E-06   3.99703876E-05   5.13426980E-03
   8.48750000E+02   5.00000000E-01   5.00000000E-01  -2.11387933E-03   1.53674903E-10   4.87263986E-03   3.89754289E-02   2.05113838E-02   2.41609762E-03   5.42527103E-19   2.05163784E-07   9.23237027E-06   5.62319610E-01   6.97556865E-05   1.20557754E-02   1.50276643E-10   4.86112128E-01   2.87229297E-02   1.84551386E-08   4.10327568E-04   1.74389216E-06   4.00069378E-05   5.29438518E-03
   8.66250000E+02   5.00000000E-01   5.00000000E-01  -2.04169235E-03   1.59401855E-10   4.87716040E-03   3.87299201E-02   2.07322849E-02   2.45619749E-03   5.85176636E-19   2.05354122E-07   9.24093549E-06   5.62841295E-01   6.98204014E-05   1.20667849E-02   1.51392138E-10   4.86573015E-01   2.87495771E-02   1.84720636E-08   4.10708244E-04   1.74551004E-06   4.00440538E-05   5.45867676E-03
   8.83750000E+02   5.00000000E-01   5.00000000E-01  -1.97054106E-03   1.65125783E-10   4.88174967E-03   3.84852777E-02   2.09538801E-02   2.49562660E-03   6.30151291E-19   2.05547354E-07   9.24963095E-06   5.63370913E-01   6.98861005E-05   1.20779871E-02   1.52511656E-10   4.87041709E-01   2.87766296E-02   1.84892485E-08   4.11094709E-04   1.74715251E-06   4.00817341E-05   5.62732212E-03
   9.01250000E+02   5.00000000E-01   5.00000000E-01  -1.90038744E-03   1.70927766E-10   4.88640754E-03   3.82414973E-02   2.11761769E-02   2.53436813E-03   6.77739225E-19   2.05743475E-07   9.25845639E-06   5.63908448E-01   6.99527816E-05   1.20893794E-02   1.53635233E-10   4.87518186E-01   2.88040865E-02   1.85066929E-08   4.11486951E-04   1.74881954E-06   4.01199777E-05   5.80027243E-03
   9.18750000E+02   5.00000000E-01   5.00000000E-01  -1.83129752E-03   1.76831129E-10   4.89113389E-03   3.79986212E-02   2.13991830E-02   2.57240856E-03   7.28097053E-19   2.05942480E-07   9.26741159E-06   5.64453886E-01   7.00204431E-05   1.21009591E-02   1.54762907E-10   4.88002426E-01   2.88319471E-02   1.85243962E-08   4.11884959E-04   1.75051108E-06   4.01587835E-05   5.97753786E-03
   9.36250000E+02   5.00000000E-01   5.00000000E-01  -1.76337156E-03   1.82832485E-10   4.89592864E-03   3.77567063E-02   2.16229056E-02   2.60973545E-03   7.81316872E-19   2.06144364E-07   9.27649637E-06   5.65007216E-01   7.00890837E-05   1.21127242E-02   1.55894717E-10   4.88494416E-01   2.88602108E-02   1.85423582E-08   4.12288727E-04   1.75222709E-06   4.01981509E-05   6.15915505E-03
   9.53750000E+02   5.00000000E-01   5.00000000E-01  -1.69668729E-03   1.88937927E-10   4.90079170E-03   3.75157977E-02   2.18473517E-02   2.64633845E-03   8.37517953E-19   2.06349124E-07   9.28571059E-06   5.65568430E-01   7.01587022E-05   1.21246727E-02   1.57030700E-10   4.88994143E-01   2.88888772E-02   1.85605785E-08   4.12698248E-04   1.75396756E-06   4.02380792E-05   6.34514383E-03
   9.71250000E+02   5.00000000E-01   5.00000000E-01  -1.63130236E-03   1.95164001E-10   4.90572302E-03   3.72759289E-02   2.20725285E-02   2.68221045E-03   8.96852924E-19   2.06556759E-07   9.29505415E-06   5.66137522E-01   7.02292980E-05   1.21368030E-02   1.58170895E-10   4.89501593E-01   2.89179458E-02   1.85790569E-08   4.13113518E-04   1.75573245E-06   4.02785680E-05   6.53550490E-03
   9.88750000E+02   5.00000000E-01   5.00000000E-01  -1.56726410E-03   2.01532129E-10   4.91072257E-03   3.70371257E-02   2.22984427E-02   2.71734815E-03   9.59495294E-19   2.06767266E-07   9.30452698E-06   5.66714488E-01   7.03008705E-05   1.21491134E-02   1.59315343E-10   4.90016750E-01   2.89474165E-02   1.85977934E-08   4.13534532E-04   1.75752176E-06   4.03196169E-05   6.73022548E-03
   1.00625000E+03   5.00000000E-01   5.00000000E-01  -1.50461623E-03   2.08063508E-10   4.91579034E-03   3.67994094E-02   2.25251011E-02   2.75175212E-03   1.02562548E-18   2.06980646E-07   9.31412906E-06   5.67299325E-01   7.03734196E-05   1.21616028E-02   1.60464084E-10   4.90539602E-01   2.89772889E-02   1.86167877E-08   4.13961292E-04   1.75933549E-06   4.03612259E-05   6.92928522E-03
   1.02375000E+03   5.00000000E-01   5.00000000E-01  -1.44340198E-03   2.14775635E-10   4.92092632E-03   3.65627979E-02   2.27525102E-02   2.78542644E-03   1.09541911E-18   2.07196898E-07   9.32386040E-06   5.67892036E-01   7.04469452E-05   1.21742699E-02   1.61617159E-10   4.91070135E-01   2.90075630E-02   1.86360399E-08   4.14393795E-04   1.76117363E-06   4.04033951E-05   7.13266064E-03
   1.04125000E+03   5.00000000E-01   5.00000000E-01  -1.38366658E-03   2.21678345E-10   4.92613054E-03   3.63273071E-02   2.29806767E-02   2.81837797E-03   1.16903122E-18   2.07416023E-07   9.33372103E-06   5.68492621E-01   7.05214478E-05   1.21871137E-02   1.62774609E-10   4.91608338E-01   2.90382384E-02   1.86555502E-08   4.14832046E-04   1.76303619E-06   4.04461245E-05   7.34033011E-03
   1.05875000E+03   5.00000000E-01   5.00000000E-01  -1.32545483E-03   2.28773815E-10   4.93140304E-03   3.60929504E-02   2.32096067E-02   2.85061557E-03   1.24659211E-18   2.07638023E-07   9.34371102E-06   5.69101086E-01   7.05969277E-05   1.22001333E-02   1.63936476E-10   4.92154204E-01   2.90693148E-02   1.86753185E-08   4.15276046E-04   1.76492319E-06   4.04894144E-05   7.55227477E-03
   1.07625000E+03   5.00000000E-01   5.00000000E-01  -1.26880949E-03   2.36056101E-10   4.93674387E-03   3.58597383E-02   2.34393064E-02   2.88214929E-03   1.32820102E-18   2.07862900E-07   9.35383049E-06   5.69717436E-01   7.06733859E-05   1.22133282E-02   1.65102804E-10   4.92707729E-01   2.91007915E-02   1.86953452E-08   4.15725800E-04   1.76683465E-06   4.05332655E-05   7.76847962E-03
   1.09375000E+03   5.00000000E-01   5.00000000E-01  -1.21376923E-03   2.43511430E-10   4.94215311E-03   3.56276780E-02   2.36697811E-02   2.91298957E-03   1.41392239E-18   2.08090657E-07   9.36407957E-06   5.70341681E-01   7.07508234E-05   1.22266977E-02   1.66273636E-10   4.93268910E-01   2.91326670E-02   1.87156305E-08   4.16181314E-04   1.76877059E-06   4.05776781E-05   7.98893361E-03
   1.11125000E+03   5.00000000E-01   5.00000000E-01  -1.16036629E-03   2.51119387E-10   4.94763083E-03   3.53967730E-02   2.39010351E-02   2.94314667E-03   1.50378556E-18   2.08321298E-07   9.37445841E-06   5.70973829E-01   7.08292414E-05   1.22402414E-02   1.67449016E-10   4.93837750E-01   2.91649390E-02   1.87361748E-08   4.16642596E-04   1.77073103E-06   4.06226531E-05   8.21362893E-03
   1.12875000E+03   5.00000000E-01   5.00000000E-01  -1.10862398E-03   2.58855212E-10   4.95317715E-03   3.51670220E-02   2.41330706E-02   2.97263025E-03   1.59778982E-18   2.08554827E-07   9.38496723E-06   5.71613893E-01   7.09086413E-05   1.22539590E-02   1.68628988E-10   4.94414253E-01   2.91976030E-02   1.87569783E-08   4.17109654E-04   1.77271603E-06   4.06681913E-05   8.44255914E-03
   1.14625000E+03   5.00000000E-01   5.00000000E-01  -1.05855459E-03   2.66692893E-10   4.95879217E-03   3.49384188E-02   2.43658863E-02   3.00144936E-03   1.69591423E-18   2.08791249E-07   9.39560622E-06   5.72261887E-01   7.09890248E-05   1.22678502E-02   1.69813598E-10   4.94998428E-01   2.92306510E-02   1.87780415E-08   4.17582499E-04   1.77472562E-06   4.07142936E-05   8.67571661E-03
   1.16375000E+03   5.00000000E-01   5.00000000E-01  -1.01015810E-03   2.74608351E-10   4.96447604E-03   3.47109509E-02   2.45994749E-02   3.02961270E-03   1.79812988E-18   2.09030570E-07   9.40637566E-06   5.72917825E-01   7.10703939E-05   1.22819149E-02   1.71002891E-10   4.95590283E-01   2.92640692E-02   1.87993650E-08   4.18061140E-04   1.77675985E-06   4.07609612E-05   8.91308996E-03
   1.18125000E+03   5.00000000E-01   5.00000000E-01  -9.63421943E-04   2.82582393E-10   4.97022890E-03   3.44846001E-02   2.48338188E-02   3.05712921E-03   1.90441355E-18   2.09272796E-07   9.41727580E-06   5.73581725E-01   7.11527505E-05   1.22961531E-02   1.72196914E-10   4.96189829E-01   2.92978335E-02   1.88209492E-08   4.18545591E-04   1.77881876E-06   4.08081951E-05   9.15466145E-03
   1.19875000E+03   5.00000000E-01   5.00000000E-01  -9.18321255E-04   2.90603634E-10   4.97605090E-03   3.42593412E-02   2.50688826E-02   3.08400883E-03   2.01476325E-18   2.09517933E-07   9.42830696E-06   5.74253604E-01   7.12360971E-05   1.23105649E-02   1.73395714E-10   4.96797077E-01   2.93319022E-02   1.88427948E-08   4.19035865E-04   1.78090243E-06   4.08559968E-05   9.40040462E-03
   1.21625000E+03   5.00000000E-01   5.00000000E-01  -8.74819671E-04   2.98671208E-10   4.98194222E-03   3.40351428E-02   2.53046000E-02   3.11026356E-03   2.12921524E-18   2.09765988E-07   9.43946947E-06   5.74933483E-01   7.13204360E-05   1.23251503E-02   1.74599338E-10   4.97412038E-01   2.93662032E-02   1.88649024E-08   4.19531976E-04   1.78301090E-06   4.09043677E-05   9.65028199E-03
   1.23375000E+03   5.00000000E-01   5.00000000E-01  -8.32870799E-04   3.06796650E-10   4.98790305E-03   3.38119663E-02   2.55408519E-02   3.13590859E-03   2.24785910E-18   2.10016970E-07   9.45076367E-06   5.75621383E-01   7.14057699E-05   1.23399097E-02   1.75807835E-10   4.98034721E-01   2.94006117E-02   1.88872727E-08   4.20033941E-04   1.78514425E-06   4.09533092E-05   9.90424337E-03
   1.25125000E+03   5.00000000E-01   5.00000000E-01  -7.92420084E-04   3.15004968E-10   4.99393358E-03   3.35897666E-02   2.57774273E-02   3.16096341E-03   2.37085028E-18   2.10270888E-07   9.46218994E-06   5.76317328E-01   7.14921018E-05   1.23548432E-02   1.77021254E-10   4.98665136E-01   2.94349113E-02   1.89099064E-08   4.20541775E-04   1.78730254E-06   4.10028231E-05   1.01622247E-02
   1.26875000E+03   5.00000000E-01   5.00000000E-01  -7.53407086E-04   3.23334464E-10   5.00003403E-03   3.33684921E-02   2.60139550E-02   3.18545290E-03   2.49841733E-18   2.10527749E-07   9.47374869E-06   5.77021341E-01   7.15794346E-05   1.23699512E-02   1.78239644E-10   4.99303291E-01   2.94687258E-02   1.89328044E-08   4.21055497E-04   1.78948586E-06   4.10529110E-05   1.04241481E-02
   1.28625000E+03   5.00000000E-01   5.00000000E-01  -7.15766675E-04   3.31838213E-10   5.00620463E-03   3.31480844E-02   2.62497843E-02   3.20940830E-03   2.63087771E-18   2.10787563E-07   9.48544035E-06   5.77733449E-01   7.16677715E-05   1.23852340E-02   1.79463055E-10   4.99949189E-01   2.95014000E-02   1.89559675E-08   4.21575126E-04   1.79169429E-06   4.11035748E-05   1.06899203E-02
   1.30375000E+03   5.00000000E-01   5.00000000E-01  -6.79431199E-04   3.40583273E-10   5.01244560E-03   3.29284789E-02   2.64837737E-02   3.23286803E-03   2.76864209E-18   2.11050341E-07   9.49726535E-06   5.78453679E-01   7.17571160E-05   1.24006922E-02   1.80691539E-10   5.00602836E-01   2.95317883E-02   1.89793965E-08   4.22100682E-04   1.79392790E-06   4.11548165E-05   1.09594342E-02