 TITLE = "Total Concentrations" 
VARIABLES = "X"          "Y"              "Z"            "H+"             "Al+++"          "CO2(aq)"        "Mg++"           "Ca++"           "Fe++"           "Fe+++"          "Ba++"           "Sr++"           "Cl-"            "F-"             "K+"             "Na+"            "SO4--"          "O2(aq)"         "B(OH)3(aq)"     "HPO4--"         "NO3-"           "H4SiO4(aq)"    
 ZONE I=         100 , J=           1 , K=           1  F=POINT
   1.75000000E+01   5.00000000E-01   5.00000000E-01  -4.60104897E-03   3.70160660E-11   4.75000053E-03   5.09642035E-02   1.04105645E-02   2.64316596E-05   6.73374645E-14   2.00000022E-07   9.00000100E-06   5.48166604E-01   6.80000076E-05   1.19858497E-02   4.74071411E-01   2.80000034E-02   1.80000020E-04   4.00000045E-04   1.70000019E-06   3.90000043E-05   2.72748588E-04
   5.25000000E+01   5.00000000E-01   5.00000000E-01  -4.56221553E-03   3.47916556E-11   4.75014842E-03   5.08907989E-02   1.55486158E-02   5.28375116E-05   5.35314028E-14   2.00006249E-07   9.00028122E-06   5.48183671E-01   6.80021248E-05   1.19697727E-02   4.74139688E-01   3.31280379E-02   1.80005624E-04   4.00012499E-04   1.70005312E-06   3.90012186E-05   3.50625893E-04
   8.75000000E+01   5.00000000E-01   5.00000000E-01  -4.53427582E-03   3.53133592E-11   4.75058151E-03   5.08299056E-02   3.80402902E-02   7.92481611E-05   1.49046308E-14   2.00024485E-07   9.00110182E-06   5.48233652E-01   6.80083248E-05   1.19551608E-02   4.74227395E-01   5.56107524E-02   1.80022036E-04   4.00048970E-04   1.70020812E-06   3.90047745E-05   4.03537888E-04
   1.22500000E+02   5.00000000E-01   5.00000000E-01  -4.50659173E-03   3.80600621E-11   4.75128379E-03   5.07737478E-02   4.60403790E-02   1.05667471E-04   1.38314736E-14   2.00054054E-07   9.00243244E-06   5.48314697E-01   6.80183784E-05   1.19419273E-02   4.74337548E-01   6.36028752E-02   1.80048649E-04   4.00108108E-04   1.70045946E-06   3.90105406E-05   4.43399834E-04
   1.57500000E+02   5.00000000E-01   5.00000000E-01  -4.47793206E-03   4.23862293E-11   4.75224091E-03   5.07205870E-02   4.71664250E-02   1.32098978E-04   1.62162949E-14   2.00094354E-07   9.00424593E-06   5.48425151E-01   6.80320803E-05   1.19297456E-02   4.74470946E-01   6.47218933E-02   1.80084919E-04   4.00188708E-04   1.70080201E-06   3.90183990E-05   4.76480554E-04
   1.92500000E+02   5.00000000E-01   5.00000000E-01  -4.44786657E-03   4.80258032E-11   4.75344002E-03   5.06695888E-02   4.65365982E-02   1.58546035E-04   1.95774422E-14   2.00144843E-07   9.00651793E-06   5.48563533E-01   6.80492466E-05   1.19183803E-02   4.74627475E-01   6.40859273E-02   1.80130359E-04   4.00289686E-04   1.70123117E-06   3.90282444E-05   5.05802754E-04
   2.27500000E+02   5.00000000E-01   5.00000000E-01  -4.41595328E-03   5.49349986E-11   4.75486958E-03   5.06201299E-02   4.55070107E-02   1.85011824E-04   2.34575686E-14   2.00205035E-07   9.00922658E-06   5.48728510E-01   6.80697119E-05   1.19076718E-02   4.74806671E-01   6.30510450E-02   1.80184532E-04   4.00410070E-04   1.70174280E-06   3.90399818E-05   5.32935869E-04
   2.62500000E+02   5.00000000E-01   5.00000000E-01  -4.38180549E-03   6.31722344E-11   4.75651919E-03   5.05717299E-02   4.43837976E-02   2.11499369E-04   2.77992439E-14   2.00274492E-07   9.01235216E-06   5.48918881E-01   6.80933274E-05   1.18975079E-02   4.75007934E-01   6.19233418E-02   1.80247043E-04   4.00548985E-04   1.70233318E-06   3.90535260E-05   5.58786727E-04
   2.97500000E+02   5.00000000E-01   5.00000000E-01  -4.34509722E-03   7.28518202E-11   4.75837947E-03   5.05240073E-02   4.32381230E-02   2.38011552E-04   3.26496405E-14   2.00352820E-07   9.01587689E-06   5.49133563E-01   6.81199587E-05   1.18878069E-02   4.75230623E-01   6.07739457E-02   1.80317538E-04   4.00705639E-04   1.70299897E-06   3.90687999E-05   5.83916093E-04
   3.32500000E+02   5.00000000E-01   5.00000000E-01  -4.30554675E-03   8.41277193E-11   4.76044193E-03   5.04766479E-02   4.20882016E-02   2.64551134E-04   3.80884250E-14   2.00439660E-07   9.01978471E-06   5.49371578E-01   6.81494844E-05   1.18785077E-02   4.75474095E-01   5.96210386E-02   1.80395694E-04   4.00879320E-04   1.70373711E-06   3.90857337E-05   6.08684328E-04
   3.67500000E+02   5.00000000E-01   5.00000000E-01  -4.26290367E-03   9.71878566E-11   4.76269889E-03   5.04293838E-02   4.09403746E-02   2.91120766E-04   4.42081635E-14   2.00534690E-07   9.02406106E-06   5.49632039E-01   6.81817946E-05   1.18695634E-02   4.75737731E-01   5.84709321E-02   1.80481221E-04   4.01069380E-04   1.70454487E-06   3.91042646E-05   6.33328734E-04
   4.02500000E+02   5.00000000E-01   5.00000000E-01  -4.21694132E-03   1.12252620E-10   4.76514339E-03   5.03819813E-02   3.97982030E-02   3.17723005E-04   5.11100341E-14   2.00637617E-07   9.02869275E-06   5.49914144E-01   6.82167896E-05   1.18609372E-02   4.76020947E-01   5.73271604E-02   1.80573855E-04   4.01275233E-04   1.70541974E-06   3.91243352E-05   6.58008600E-04
   4.37500000E+02   5.00000000E-01   5.00000000E-01  -4.16745338E-03   1.29575286E-10   4.76776912E-03   5.03342339E-02   3.86644459E-02   3.44360329E-04   5.89039920E-14   2.00748173E-07   9.03366780E-06   5.50217161E-01   6.82543790E-05   1.18525999E-02   4.76323194E-01   5.61924581E-02   1.80673356E-04   4.01496347E-04   1.70635947E-06   3.91458938E-05   6.82833054E-04
   4.72500000E+02   5.00000000E-01   5.00000000E-01  -4.11425311E-03   1.49443457E-10   4.77057031E-03   5.02859579E-02   3.75414885E-02   3.71035140E-04   6.77102605E-14   2.00866119E-07   9.03897533E-06   5.50540429E-01   6.82944803E-05   1.18445279E-02   4.76643965E-01   5.50691880E-02   1.80779507E-04   4.01732237E-04   1.70736201E-06   3.91688931E-05   7.07879047E-04
   5.07500000E+02   5.00000000E-01   5.00000000E-01  -4.05717437E-03   1.72181053E-10   4.77354176E-03   5.02369909E-02   3.64314387E-02   3.97749778E-04   7.76613186E-14   2.00991232E-07   9.04460543E-06   5.50883344E-01   6.83370188E-05   1.18367020E-02   4.76982788E-01   5.39594376E-02   1.80892109E-04   4.01982464E-04   1.70842547E-06   3.91932902E-05   7.33203336E-04
   5.42500000E+02   5.00000000E-01   5.00000000E-01  -3.99607384E-03   1.98150649E-10   4.77667868E-03   5.01871910E-02   3.53361571E-02   4.24506532E-04   8.89042162E-14   2.01123313E-07   9.05054908E-06   5.51245356E-01   6.83819264E-05   1.18291067E-02   4.77339228E-01   5.28650490E-02   1.81010982E-04   4.02246626E-04   1.70954816E-06   3.92190460E-05   7.58850727E-04
   5.77500000E+02   5.00000000E-01   5.00000000E-01  -3.93083383E-03   2.27756003E-10   4.77997675E-03   5.01364371E-02   3.42572733E-02   4.51307640E-04   1.01603235E-13   2.01262179E-07   9.05679806E-06   5.51625965E-01   6.84291409E-05   1.18217293E-02   4.77712883E-01   5.17876347E-02   1.81135961E-04   4.02524358E-04   1.71072852E-06   3.92461249E-05   7.84859876E-04
   6.12500000E+02   5.00000000E-01   5.00000000E-01  -3.86136565E-03   2.61444664E-10   4.78343201E-03   5.00846298E-02   3.31962002E-02   4.78155302E-04   1.15942967E-13   2.01407664E-07   9.06334486E-06   5.52024714E-01   6.84786056E-05   1.18145600E-02   4.78103380E-01   5.07285921E-02   1.81266897E-04   4.02815327E-04   1.71196514E-06   3.92744944E-05   8.11267463E-04
   6.47500000E+02   5.00000000E-01   5.00000000E-01  -3.78761313E-03   2.99710602E-10   4.78704085E-03   5.00316927E-02   3.21541488E-02   5.05051688E-04   1.32131891E-13   2.01559615E-07   9.07018267E-06   5.52441187E-01   6.85302691E-05   1.18075908E-02   4.78510374E-01   4.96891177E-02   1.81403653E-04   4.03119230E-04   1.71325673E-06   3.93041249E-05   8.38111270E-04
   6.82500000E+02   5.00000000E-01   5.00000000E-01  -3.70955444E-03   3.43070526E-10   4.79079999E-03   4.99775697E-02   3.11321425E-02   5.31998937E-04   1.50426487E-13   2.01717894E-07   9.07730523E-06   5.52875003E-01   6.85840840E-05   1.18008190E-02   4.78933550E-01   4.86702220E-02   1.81546105E-04   4.03435788E-04   1.71460210E-06   3.93349894E-05   8.65441512E-04
   7.17500000E+02   5.00000000E-01   5.00000000E-01  -3.62720217E-03   3.92038055E-10   4.79470640E-03   4.99222210E-02   3.01310316E-02   5.58999172E-04   1.71157237E-13   2.01882375E-07   9.08470687E-06   5.53325818E-01   6.86400075E-05   1.17942509E-02   4.79372617E-01   4.76727433E-02   1.81694137E-04   4.03764750E-04   1.71600019E-06   3.93670631E-05   8.93330923E-04
   7.52500000E+02   5.00000000E-01   5.00000000E-01  -3.54061322E-03   4.47300420E-10   4.79875737E-03   4.98656439E-02   2.91515077E-02   5.86054503E-04   1.94602956E-13   2.02052942E-07   9.09238239E-06   5.53793314E-01   6.86980003E-05   1.17878854E-02   4.79827297E-01   4.66973620E-02   1.81847648E-04   4.04105884E-04   1.71745001E-06   3.94003237E-05   9.21825749E-04
   7.87500000E+02   5.00000000E-01   5.00000000E-01  -3.44989559E-03   5.09546020E-10   4.80295040E-03   4.98078668E-02   2.81941173E-02   6.13167033E-04   2.21129243E-13   2.02229490E-07   9.10032707E-06   5.54277203E-01   6.87580267E-05   1.17817221E-02   4.80297328E-01   4.57446148E-02   1.82006541E-04   4.04458981E-04   1.71895067E-06   3.94347506E-05   9.50983514E-04
   8.22500000E+02   5.00000000E-01   5.00000000E-01  -3.35520456E-03   5.79517419E-10   4.80728320E-03   4.97489465E-02   2.72592755E-02   6.40338865E-04   2.51158209E-13   2.02411924E-07   9.10853659E-06   5.54777224E-01   6.88200543E-05   1.17757614E-02   4.80782468E-01   4.48149072E-02   1.82170732E-04   4.04823849E-04   1.72050136E-06   3.94703252E-05   9.80870129E-04
   8.57500000E+02   5.00000000E-01   5.00000000E-01  -3.25674400E-03   6.58013429E-10   4.81175372E-03   4.96889692E-02   2.63472782E-02   6.67572101E-04   2.85177727E-13   2.02600157E-07   9.11700704E-06   5.55293137E-01   6.88840532E-05   1.17700045E-02   4.81282486E-01   4.39085269E-02   1.82340141E-04   4.05200313E-04   1.72210133E-06   3.95070305E-05   1.01155983E-03
   8.92500000E+02   5.00000000E-01   5.00000000E-01  -3.15476693E-03   7.45890671E-10   4.81636006E-03   4.96280502E-02   2.54583144E-02   6.94868857E-04   3.23752603E-13   2.02794108E-07   9.12573486E-06   5.55824726E-01   6.89499967E-05   1.17644525E-02   4.81797166E-01   4.30256550E-02   1.82514697E-04   4.05588216E-04   1.72374992E-06   3.95448511E-05   1.04313490E-03
   9.27500000E+02   5.00000000E-01   5.00000000E-01  -3.04957499E-03   8.44065207E-10   4.82110054E-03   4.95663337E-02   2.45924774E-02   7.22231259E-04   3.67537531E-13   2.02993707E-07   9.13471681E-06   5.56371793E-01   6.90178603E-05   1.17591070E-02   4.82326306E-01   4.21663776E-02   1.82694336E-04   4.05987414E-04   1.72544651E-06   3.95837728E-05   1.07568521E-03
   9.62500000E+02   5.00000000E-01   5.00000000E-01  -2.94151688E-03   9.53514364E-10   4.82597359E-03   4.95039918E-02   2.37497752E-02   7.49661452E-04   4.17292102E-13   2.03198888E-07   9.14394996E-06   5.56934160E-01   6.90876219E-05   1.17539691E-02   4.82869712E-01   4.13306962E-02   1.82878999E-04   4.06397776E-04   1.72719055E-06   3.96237832E-05   1.10930742E-03
   9.97500000E+02   5.00000000E-01   5.00000000E-01  -2.83098554E-03   1.07527890E-09   4.83097783E-03   4.94412224E-02   2.29301404E-02   7.77161603E-04   4.73898161E-13   2.03409593E-07   9.15343167E-06   5.57511666E-01   6.91592615E-05   1.17490400E-02   4.83427203E-01   4.05185374E-02   1.83068633E-04   4.06819185E-04   1.72898154E-06   3.96648706E-05   1.14410406E-03
   1.03250000E+03   5.00000000E-01   5.00000000E-01  -2.71841416E-03   1.21046571E-09   4.83611199E-03   4.93782475E-02   2.21334391E-02   8.04733903E-04   5.38379833E-13   2.03625768E-07   9.16315956E-06   5.58104167E-01   6.92327612E-05   1.17443202E-02   4.83998608E-01   3.97297618E-02   1.83263191E-04   4.07251536E-04   1.73081903E-06   3.97070248E-05   1.18018231E-03
   1.06750000E+03   5.00000000E-01   5.00000000E-01  -2.60427092E-03   1.36025121E-09   4.84137496E-03   4.93153096E-02   2.13594792E-02   8.32380569E-04   6.11926603E-13   2.03847367E-07   9.17313150E-06   5.58711532E-01   6.93081047E-05   1.17398099E-02   4.84583765E-01   3.89641725E-02   1.83462630E-04   4.07694733E-04   1.73270262E-06   3.97502365E-05   1.21765262E-03
   1.10250000E+03   5.00000000E-01   5.00000000E-01  -2.48905253E-03   1.52588563E-09   4.84676572E-03   4.92526684E-02   2.06080182E-02   8.60103848E-04   6.95919843E-13   2.04074346E-07   9.18334558E-06   5.59333644E-01   6.93852777E-05   1.17355087E-02   4.85182521E-01   3.82215223E-02   1.83666912E-04   4.08148692E-04   1.73463194E-06   3.97944975E-05   1.25662714E-03
   1.13750000E+03   5.00000000E-01   5.00000000E-01  -2.37327669E-03   1.70869849E-09   4.85228339E-03   4.91905966E-02   1.98787700E-02   8.87906014E-04   7.91963223E-13   2.04306669E-07   9.19380010E-06   5.59970402E-01   6.94642674E-05   1.17314159E-02   4.85794736E-01   3.75015210E-02   1.83876002E-04   4.08613338E-04   1.73660669E-06   3.98398004E-05   1.29721792E-03
   1.17250000E+03   5.00000000E-01   5.00000000E-01  -2.25747364E-03   1.91010534E-09   4.85792716E-03   4.91293749E-02   1.91714110E-02   9.15789370E-04   9.01917493E-13   2.04544302E-07   9.20449357E-06   5.60621714E-01   6.95450626E-05   1.17275301E-02   4.86420274E-01   3.68038413E-02   1.84089871E-04   4.09088603E-04   1.73862656E-06   3.98861388E-05   1.33953511E-03
   1.20750000E+03   5.00000000E-01   5.00000000E-01  -2.14217694E-03   2.13161603E-09   4.86369637E-03   4.90692870E-02   1.84855862E-02   9.43756249E-04   1.02794012E-12   2.04787215E-07   9.21542469E-06   5.61287500E-01   6.96276532E-05   1.17238496E-02   4.87059014E-01   3.61281250E-02   1.84308494E-04   4.09574431E-04   1.74069133E-06   3.99335070E-05   1.38368497E-03
   1.24250000E+03   5.00000000E-01   5.00000000E-01  -2.02791389E-03   2.37484475E-09   4.86959040E-03   4.90106147E-02   1.78209143E-02   9.71809007E-04   1.17253030E-12   2.05035385E-07   9.22659233E-06   5.61967691E-01   6.97120309E-05   1.17203726E-02   4.87710841E-01   3.54739876E-02   1.84531847E-04   4.10070770E-04   1.74280077E-06   3.99819001E-05   1.42976791E-03
   1.27750000E+03   5.00000000E-01   5.00000000E-01  -1.91519580E-03   2.64152185E-09   4.87560875E-03   4.89536318E-02   1.71769920E-02   9.99950024E-04   1.33858000E-12   2.05288789E-07   9.23799552E-06   5.62662230E-01   6.97981884E-05   1.17170971E-02   4.88375652E-01   3.48410232E-02   1.84759910E-04   4.10577579E-04   1.74495471E-06   4.00313139E-05   1.47787660E-03
   1.31250000E+03   5.00000000E-01   5.00000000E-01  -1.80450857E-03   2.93350768E-09   4.88175099E-03   4.88985993E-02   1.65533987E-02   1.02818170E-03   1.52943150E-12   2.05547410E-07   9.24963346E-06   5.63371066E-01   6.98861194E-05   1.17140213E-02   4.89053354E-01   3.42288087E-02   1.84992669E-04   4.11094820E-04   1.74715299E-06   4.00817450E-05   1.52809420E-03
   1.34750000E+03   5.00000000E-01   5.00000000E-01  -1.69630385E-03   3.25280841E-09   4.88801678E-03   4.88457606E-02   1.59496998E-02   1.05650646E-03   1.74894227E-12   2.05811233E-07   9.26150548E-06   5.64094160E-01   6.99758192E-05   1.17111436E-02   4.89743865E-01   3.36369076E-02   1.85230110E-04   4.11622466E-04   1.74939548E-06   4.01331904E-05   1.58049271E-03
   1.38250000E+03   5.00000000E-01   5.00000000E-01  -1.59099126E-03   3.60159382E-09   4.89440585E-03   4.87953367E-02   1.53654504E-02   1.08492672E-03   2.00155782E-12   2.06080246E-07   9.27361108E-06   5.64831481E-01   7.00672837E-05   1.17084630E-02   4.90447113E-01   3.30648730E-02   1.85472222E-04   4.12160492E-04   1.75168209E-06   4.01856480E-05   1.63513176E-03
   1.41750000E+03   5.00000000E-01   5.00000000E-01  -1.48893185E-03   3.98221689E-09   4.90091798E-03   4.87475233E-02   1.48001978E-02   1.11344494E-03   2.29239358E-12   2.06354441E-07   9.28594986E-06   5.65583004E-01   7.01605100E-05   1.17059789E-02   4.91163037E-01   3.25122508E-02   1.85718997E-04   4.12708883E-04   1.75401275E-06   4.02391160E-05   1.69205756E-03
   1.45250000E+03   5.00000000E-01   5.00000000E-01  -1.39043316E-03   4.39723520E-09   4.90755305E-03   4.87024872E-02   1.42534848E-02   1.14206356E-03   2.62732667E-12   2.06633813E-07   9.29852156E-06   5.66348713E-01   7.02554963E-05   1.17036914E-02   4.91891587E-01   3.19785823E-02   1.85970431E-04   4.13267625E-04   1.75638741E-06   4.02935934E-05   1.75130239E-03
   1.48750000E+03   5.00000000E-01   5.00000000E-01  -1.29574596E-03   4.84943364E-09   4.91431098E-03   4.86603651E-02   1.37248516E-02   1.17078503E-03   3.01309905E-12   2.06918357E-07   9.31132606E-06   5.67128602E-01   7.03522413E-05   1.17016014E-02   4.92632724E-01   3.14634067E-02   1.86226521E-04   4.13836714E-04   1.75880603E-06   4.03490796E-05   1.81288440E-03
   1.52250000E+03   5.00000000E-01   5.00000000E-01  -1.20506274E-03   5.34184837E-09   4.92119175E-03   4.86212621E-02   1.32138378E-02   1.19961181E-03   3.45743335E-12   2.07208074E-07   9.32436332E-06   5.67922667E-01   7.04507451E-05   1.16997105E-02   4.93386421E-01   3.09662627E-02   1.86487266E-04   4.14416147E-04   1.76126863E-06   4.04055744E-05   1.87680791E-03
   1.55750000E+03   5.00000000E-01   5.00000000E-01  -1.11851795E-03   5.87779163E-09   4.92819542E-03   4.85852524E-02   1.27199845E-02   1.22854636E-03   3.96916338E-12   2.07502965E-07   9.33763343E-06   5.68730915E-01   7.05510081E-05   1.16980214E-02   4.94152661E-01   3.04866908E-02   1.86752669E-04   4.15005930E-04   1.76377520E-06   4.04630782E-05   1.94306401E-03
   1.59250000E+03   5.00000000E-01   5.00000000E-01  -1.03618975E-03   6.46087722E-09   4.93532209E-03   4.85523795E-02   1.22428356E-02   1.25759111E-03   4.55838135E-12   2.07803035E-07   9.35113659E-06   5.69553357E-01   7.06530320E-05   1.16965372E-02   4.94931436E-01   3.00242344E-02   1.87022732E-04   4.15606070E-04   1.76632580E-06   4.05215919E-05   2.01163165E-03
   1.62750000E+03   5.00000000E-01   5.00000000E-01  -9.58103174E-04   7.09504641E-09   4.94257190E-03   4.85226582E-02   1.17819394E-02   1.28674853E-03   5.23660435E-12   2.08108291E-07   9.36487308E-06   5.70390011E-01   7.07568188E-05   1.16952620E-02   4.95722751E-01   2.95784415E-02   1.87297462E-04   4.16216581E-04   1.76892047E-06   4.05811167E-05   2.08247882E-03
   1.66250000E+03   5.00000000E-01   5.00000000E-01  -8.84234319E-04   7.78459414E-09   4.94994507E-03   4.84960768E-02   1.13368495E-02   1.31602105E-03   6.01696304E-12   2.08418740E-07   9.37884330E-06   5.71240901E-01   7.08623716E-05   1.16942005E-02   4.96526620E-01   2.91488656E-02   1.87576866E-04   4.16837480E-04   1.77155929E-06   4.06416543E-05   2.15556412E-03
   1.69750000E+03   5.00000000E-01   5.00000000E-01  -8.14515340E-04   8.53419551E-09   4.95744186E-03   4.84725995E-02   1.09071260E-02   1.34541110E-03   6.91441575E-12   2.08734394E-07   9.39304773E-06   5.72106056E-01   7.09696940E-05   1.16933578E-02   4.97343066E-01   2.87350668E-02   1.87860955E-04   4.17468788E-04   1.77424235E-06   4.07032068E-05   2.23083833E-03
   1.73250000E+03   5.00000000E-01   5.00000000E-01  -7.48839908E-04   9.34893252E-09   4.96506256E-03   4.84521697E-02   1.04923359E-02   1.37492114E-03   7.94599202E-12   2.09055266E-07   9.40748695E-06   5.72985511E-01   7.10787903E-05   1.16927399E-02   4.98172120E-01   2.83366126E-02   1.88149739E-04   4.18110531E-04   1.77696976E-06   4.07657768E-05   2.30824602E-03
   1.76750000E+03   5.00000000E-01   5.00000000E-01  -6.87068851E-04   1.02343213E-08   4.97280752E-03   4.84347124E-02   1.00920543E-02   1.40455358E-03   9.13106953E-12   2.09381369E-07   9.42216162E-06   5.73879307E-01   7.11896656E-05   1.16923529E-02   4.99013824E-01   2.79530783E-02   1.88443232E-04   4.18762739E-04   1.77974164E-06   4.08293670E-05   2.38772719E-03
   1.80250000E+03   5.00000000E-01   5.00000000E-01  -6.29035746E-04   1.11963397E-08   4.98067715E-03   4.84201381E-02   9.70586462E-03   1.43431086E-03   1.04916895E-11   2.09712722E-07   9.43707249E-06   5.74787489E-01   7.13023255E-05   1.16922034E-02   4.99868225E-01   2.75840479E-02   1.88741450E-04   4.19425444E-04   1.78255814E-06   4.08939808E-05   2.46921873E-03
   1.83750000E+03   5.00000000E-01   5.00000000E-01  -5.74552236E-04   1.22414560E-08   4.98867187E-03   4.84083447E-02   9.33335883E-03   1.46419541E-03   1.20529157E-11   2.10049342E-07   9.45222038E-06   5.75710108E-01   7.14167762E-05   1.16922982E-02   5.00735379E-01   2.72291143E-02   1.89044408E-04   4.20098684E-04   1.78541941E-06   4.09596217E-05   2.55265576E-03
   1.87250000E+03   5.00000000E-01   5.00000000E-01  -5.23412936E-04   1.33766583E-08   4.99679217E-03   4.83992209E-02   8.97413808E-03   1.49420964E-03   1.38432431E-11   2.10391249E-07   9.46760621E-06   5.76647219E-01   7.15330247E-05   1.16926445E-02   5.01615348E-01   2.68878793E-02   1.89352124E-04   4.20782498E-04   1.78832562E-06   4.10262936E-05   2.63797277E-03
   1.90750000E+03   5.00000000E-01   5.00000000E-01  -4.75399820E-04   1.46094855E-08   5.00503857E-03   4.83926483E-02   8.62781267E-03   1.52435598E-03   1.58950628E-11   2.10738466E-07   9.48323097E-06   5.77598882E-01   7.16510784E-05   1.16932493E-02   5.02508203E-01   2.65599544E-02   1.89664619E-04   4.21476932E-04   1.79127696E-06   4.10940009E-05   2.72510458E-03
   1.94250000E+03   5.00000000E-01   5.00000000E-01  -4.30286016E-04   1.59480590E-08   5.01341163E-03   4.83885036E-02   8.29400222E-03   1.55463687E-03   1.82451905E-11   2.11091016E-07   9.49909571E-06   5.78565162E-01   7.17709454E-05   1.16941203E-02   5.03414017E-01   2.62449602E-02   1.89981914E-04   4.22182032E-04   1.79427363E-06   4.11627481E-05   2.81398711E-03
   1.97750000E+03   5.00000000E-01   5.00000000E-01  -3.87839016E-04   1.74011172E-08   5.02191195E-03   4.83866600E-02   7.97233569E-03   1.58505475E-03   2.09354664E-11   2.11448924E-07   9.51520159E-06   5.79546129E-01   7.18926342E-05   1.16952647E-02   5.04332871E-01   2.59425271E-02   1.90304032E-04   4.22897848E-04   1.79731586E-06   4.12325402E-05   2.90455784E-03
   2.01250000E+03   5.00000000E-01   5.00000000E-01  -3.47823274E-04   1.89780510E-08   5.03054018E-03   4.83869892E-02   7.66245137E-03   1.61561204E-03   2.40134363E-11   2.11812218E-07   9.53154981E-06   5.80541856E-01   7.20161541E-05   1.16966902E-02   5.05264850E-01   2.56522947E-02   1.90630996E-04   4.23624436E-04   1.80040385E-06   4.13033825E-05   2.99675623E-03
   2.04750000E+03   5.00000000E-01   5.00000000E-01  -3.10002248E-04   2.06889414E-08   5.03929698E-03   4.83893623E-02   7.36399679E-03   1.64631119E-03   2.75331227E-11   2.12180926E-07   9.54814165E-06   5.81552422E-01   7.21415147E-05   1.16984043E-02   5.06210045E-01   2.53739122E-02   1.90962833E-04   4.24361851E-04   1.80353787E-06   4.13752805E-05   3.09052386E-03
   2.08250000E+03   5.00000000E-01   5.00000000E-01  -2.74139917E-04   2.25445997E-08   5.04818308E-03   4.83936506E-02   7.07662860E-03   1.67715466E-03   3.15558977E-11   2.12555077E-07   9.56497847E-06   5.82577909E-01   7.22687262E-05   1.17004149E-02   5.07168550E-01   2.51070379E-02   1.91299569E-04   4.25110154E-04   1.80671816E-06   4.14482401E-05   3.18580447E-03
   2.11750000E+03   5.00000000E-01   5.00000000E-01  -2.40001833E-04   2.45566097E-08   5.05719923E-03   4.83997262E-02   6.80001240E-03   1.70814491E-03   3.61514690E-11   2.12934704E-07   9.58206170E-06   5.83618404E-01   7.23977995E-05   1.17027295E-02   5.08140464E-01   2.48513391E-02   1.91641234E-04   4.25869409E-04   1.80994499E-06   4.15222674E-05   3.28254385E-03
   2.15250000E+03   5.00000000E-01   5.00000000E-01  -2.07355756E-04   2.67373721E-08   5.06634622E-03   4.84074628E-02   6.53382261E-03   1.73928442E-03   4.13989924E-11   2.13319841E-07   9.59939283E-06   5.84673998E-01   7.25287458E-05   1.17053560E-02   5.09125890E-01   2.46064924E-02   1.91987857E-04   4.26639681E-04   1.81321865E-06   4.15973689E-05   3.38068963E-03
   2.18750000E+03   5.00000000E-01   5.00000000E-01  -1.75971936E-04   2.91001517E-08   5.07562486E-03   4.84167353E-02   6.27774219E-03   1.77057567E-03   4.73883246E-11   2.13710520E-07   9.61697341E-06   5.85744786E-01   7.26615769E-05   1.17083023E-02   5.10124934E-01   2.43721825E-02   1.92339468E-04   4.27421041E-04   1.81653942E-06   4.16735515E-05   3.48019100E-03
   2.22250000E+03   5.00000000E-01   5.00000000E-01  -1.45623096E-04   3.16591272E-08   5.08503602E-03   4.84274202E-02   6.03146253E-03   1.80202118E-03   5.42214312E-11   2.14106780E-07   9.63480509E-06   5.86830866E-01   7.27963051E-05   1.17115762E-02   5.11137706E-01   2.41481032E-02   1.92696102E-04   4.28213559E-04   1.81990763E-06   4.17508220E-05   3.58099832E-03
   2.25750000E+03   5.00000000E-01   5.00000000E-01  -1.16084161E-04   3.44294429E-08   5.09458059E-03   4.84393957E-02   5.79468312E-03   1.83362346E-03   6.20139663E-11   2.14508656E-07   9.65288954E-06   5.87932343E-01   7.29329432E-05   1.17151858E-02   5.12164320E-01   2.39339563E-02   1.93057791E-04   4.29017313E-04   1.82332358E-06   4.18291880E-05   3.68306273E-03
   2.29250000E+03   5.00000000E-01   5.00000000E-01  -8.71317806E-05   3.74272645E-08   5.10425951E-03   4.84525409E-02   5.56711141E-03   1.86538505E-03   7.08970410E-11   2.14916190E-07   9.67122854E-06   5.89049324E-01   7.30715045E-05   1.17191390E-02   5.13204894E-01   2.37294514E-02   1.93424571E-04   4.29832379E-04   1.82678761E-06   4.19086570E-05   3.78633568E-03
   2.32750000E+03   5.00000000E-01   5.00000000E-01  -5.85436919E-05   4.06698355E-08   5.11407373E-03   4.84667359E-02   5.34846254E-03   1.89730851E-03   8.10191974E-11   2.15329420E-07   9.68982390E-06   5.90181919E-01   7.32120028E-05   1.17234441E-02   5.14259547E-01   2.35343064E-02   1.93796478E-04   4.30658840E-04   1.83030007E-06   4.19892369E-05   3.89076846E-03
   2.36250000E+03   5.00000000E-01   5.00000000E-01  -3.00979460E-05   4.41755386E-08   5.12402425E-03   4.84818616E-02   5.13845914E-03   1.92939642E-03   9.25486072E-11   2.15748389E-07   9.70867753E-06   5.91330244E-01   7.33544524E-05   1.17281092E-02   5.15328403E-01   2.33482465E-02   1.94173551E-04   4.31496779E-04   1.83386131E-06   4.20709359E-05   3.99631168E-03
   2.39750000E+03   5.00000000E-01   5.00000000E-01  -1.57203924E-06   4.79639579E-08   5.13411211E-03   4.84977987E-02   4.93683109E-03   1.96165140E-03   1.05675513E-10   2.16173141E-07   9.72779136E-06   5.92494418E-01   7.34988681E-05   1.17331426E-02   5.16411589E-01   2.31710043E-02   1.94555827E-04   4.32346283E-04   1.83747170E-06   4.21537626E-05   4.10291480E-03
   2.43250000E+03   5.00000000E-01   5.00000000E-01   2.72580296E-05   5.20559448E-08   5.14433837E-03   4.85144277E-02   4.74331533E-03   1.99407606E-03   1.20614928E-10   2.16603721E-07   9.74716744E-06   5.93674565E-01   7.36452651E-05   1.17385526E-02   5.17509236E-01   2.30023196E-02   1.94943349E-04   4.33207442E-04   1.84113163E-06   4.22377256E-05   4.21052560E-03
   2.46750000E+03   5.00000000E-01   5.00000000E-01   5.66187506E-05   5.64736867E-08   5.15470414E-03   4.85316282E-02   4.55765567E-03   2.02667308E-03   1.37609618E-10   2.17040174E-07   9.76680784E-06   5.94870810E-01   7.37936592E-05   1.17443479E-02   5.18621477E-01   2.28419392E-02   1.95336157E-04   4.34080348E-04   1.84484148E-06   4.23228340E-05   4.31908967E-03
   2.50250000E+03   5.00000000E-01   5.00000000E-01   8.67401232E-05   6.12407780E-08   5.16521054E-03   4.85492785E-02   4.37960259E-03   2.05944514E-03   1.56933366E-10   2.17482549E-07   9.78671472E-06   5.96083286E-01   7.39440667E-05   1.17505368E-02   5.19748448E-01   2.26896167E-02   1.95734294E-04   4.34965098E-04   1.84860167E-06   4.24090971E-05   4.42854996E-03
   2.53750000E+03   5.00000000E-01   5.00000000E-01   1.17856686E-04   6.63822936E-08   5.17585876E-03   4.85672549E-02   4.20891306E-03   2.09239496E-03   1.78894553E-10   2.17930895E-07   9.80689028E-06   5.97312127E-01   7.40965044E-05   1.17571282E-02   5.20890289E-01   2.25451122E-02   1.96137806E-04   4.35861790E-04   1.85241261E-06   4.24965246E-05   4.53884623E-03
   2.57250000E+03   5.00000000E-01   5.00000000E-01   1.50208539E-04   7.19248652E-08   5.18664999E-03   4.85854314E-02   4.04535040E-03   2.12552531E-03   2.03840039E-10   2.18385263E-07   9.82733682E-06   5.98557472E-01   7.42509893E-05   1.17641306E-02   5.22047145E-01   2.24081923E-02   1.96546736E-04   4.36770525E-04   1.85627473E-06   4.25851262E-05   4.64991468E-03
   2.60750000E+03   5.00000000E-01   5.00000000E-01   1.84042346E-04   7.78967603E-08   5.19758547E-03   4.86036787E-02   3.88868412E-03   2.15883896E-03   2.32159373E-10   2.18845704E-07   9.84805668E-06   5.99819465E-01   7.44075393E-05   1.17715530E-02   5.23219161E-01   2.22786300E-02   1.96961134E-04   4.37691408E-04   1.86018848E-06   4.26749123E-05   4.76168744E-03
   2.64250000E+03   5.00000000E-01   5.00000000E-01   2.19612287E-04   8.43279626E-08   5.20866647E-03   4.86218643E-02   3.73868978E-03   2.19233876E-03   2.64289301E-10   2.19312273E-07   9.86905227E-06   6.01098252E-01   7.45661727E-05   1.17794044E-02   5.24406488E-01   2.21562045E-02   1.97381045E-04   4.38624545E-04   1.86415432E-06   4.27658932E-05   4.87409222E-03
   2.67750000E+03   5.00000000E-01   5.00000000E-01   2.57180971E-04   9.12502555E-08   5.21989431E-03   4.86398519E-02   3.59514889E-03   2.22602757E-03   3.00718588E-10   2.19785024E-07   9.89032607E-06   6.02393983E-01   7.47269081E-05   1.17876936E-02   5.25609280E-01   2.20407007E-02   1.97806521E-04   4.39570047E-04   1.86817270E-06   4.28580796E-05   4.98705190E-03
   2.71250000E+03   5.00000000E-01   5.00000000E-01   2.97020258E-04   9.86973068E-08   5.23127033E-03   4.86575005E-02   3.45784877E-03   2.25990830E-03   3.41993100E-10   2.20264014E-07   9.91188062E-06   6.03706815E-01   7.48897647E-05   1.17964299E-02   5.26827694E-01   2.19319098E-02   1.98237612E-04   4.40528028E-04   1.87224412E-06   4.29514827E-05   5.10048423E-03