 TITLE = "Total Concentrations" 
VARIABLES = "X"          "Y"              "Z"            "H+"             "Al+++"          "CO2(aq)"        "Mg++"           "Ca++"           "Fe++"           "Fe+++"          "Ba++"           "Sr++"           "Cl-"            "F-"             "K+"             "Na+"            "SO4--"          "O2(aq)"         "B(OH)3(aq)"     "HPO4--"         "NO3-"           "H4SiO4(aq)"    
 ZONE I=         100 , J=           1 , K=           1  F=POINT
   1.75000000E+01   5.00000000E-01   5.00000000E-01  -4.60479414E-03   3.82657447E-11   4.75000053E-03   5.09640311E-02   4.14123075E-02   2.65152812E-05   4.79766483E-15   2.00000022E-07   9.00000100E-06   5.48166604E-01   6.80000076E-05   1.19838113E-02   4.74069874E-01   5.89979974E-02   1.80000020E-04   4.00000045E-04   1.70000019E-06   3.90000043E-05   2.72884079E-04
   5.25000000E+01   5.00000000E-01   5.00000000E-01  -4.56699160E-03   3.58360459E-11   4.75014842E-03   5.08892008E-02   4.85386716E-02   5.30049820E-05   6.22677957E-15   2.00006249E-07   9.00028122E-06   5.48183671E-01   6.80021248E-05   1.19659329E-02   4.74136177E-01   6.61105997E-02   1.80005624E-04   4.00012499E-04   1.70005312E-06   3.90012186E-05   3.49085523E-04
   8.75000000E+01   5.00000000E-01   5.00000000E-01  -4.53634791E-03   3.66560956E-11   4.75058151E-03   5.08247017E-02   4.94262244E-02   7.94993145E-05   8.73564009E-15   2.00024485E-07   9.00110182E-06   5.48233652E-01   6.80083248E-05   1.19496137E-02   4.74222435E-01   6.69854444E-02   1.80022036E-04   4.00048970E-04   1.70020812E-06   3.90047745E-05   4.00778004E-04
   1.22500000E+02   5.00000000E-01   5.00000000E-01  -4.50751322E-03   3.96553763E-11   4.75128379E-03   5.07657153E-02   4.87903419E-02   1.06002158E-04   1.16107994E-14   2.00054054E-07   9.00243244E-06   5.48314697E-01   6.80183784E-05   1.19346573E-02   4.74331149E-01   6.63378453E-02   1.80048649E-04   4.00108108E-04   1.70045946E-06   3.90105406E-05   4.40407766E-04
   1.57500000E+02   5.00000000E-01   5.00000000E-01  -4.47853756E-03   4.42041613E-11   4.75224091E-03   5.07101903E-02   4.77831699E-02   1.32517080E-04   1.47234199E-14   2.00094354E-07   9.00424593E-06   5.48425151E-01   6.80320803E-05   1.19207559E-02   4.74463007E-01   6.53198929E-02   1.80084918E-04   4.00188708E-04   1.70080201E-06   3.90183990E-05   4.73431154E-04
   1.92500000E+02   5.00000000E-01   5.00000000E-01  -4.44841640E-03   5.01002380E-11   4.75344002E-03   5.06569870E-02   4.66796547E-02   1.59047306E-04   1.80803608E-14   2.00144843E-07   9.00651793E-06   5.48563533E-01   6.80492466E-05   1.19076771E-02   4.74617929E-01   6.42064838E-02   1.80130356E-04   4.00289686E-04   1.70123116E-06   3.90282444E-05   5.02646336E-04
   2.27500000E+02   5.00000000E-01   5.00000000E-01  -4.41652575E-03   5.73167628E-11   4.75486958E-03   5.06053741E-02   4.55465253E-02   1.85595591E-04   2.17399486E-14   2.00205035E-07   9.00922657E-06   5.48728509E-01   6.80697119E-05   1.18952571E-02   4.74795487E-01   6.30643026E-02   1.80184523E-04   4.00410070E-04   1.70174280E-06   3.90399818E-05   5.29630976E-04
   2.62500000E+02   5.00000000E-01   5.00000000E-01  -4.38242313E-03   6.59147220E-11   4.75651918E-03   5.05548344E-02   4.44019485E-02   2.12163945E-04   2.57785175E-14   2.00274492E-07   9.01235213E-06   5.48918879E-01   6.80933272E-05   1.18833811E-02   4.74995106E-01   6.19114762E-02   1.80247021E-04   4.00548983E-04   1.70233318E-06   3.90535259E-05   5.55328165E-04
   2.97500000E+02   5.00000000E-01   5.00000000E-01  -4.34576226E-03   7.60095526E-11   4.75837942E-03   5.05049742E-02   4.32528020E-02   2.38753176E-04   3.02790050E-14   2.00352818E-07   9.01587680E-06   5.49133558E-01   6.81199581E-05   1.18719666E-02   4.75216151E-01   6.07548470E-02   1.80317484E-04   4.00705636E-04   1.70299895E-06   3.90687995E-05   5.80323535E-04
   3.32500000E+02   5.00000000E-01   5.00000000E-01  -4.30625259E-03   8.77575207E-11   4.76044180E-03   5.04554781E-02   4.21032200E-02   2.65362214E-04   3.53283438E-14   2.00439655E-07   9.01978447E-06   5.49371563E-01   6.81494826E-05   1.18609544E-02   4.75457979E-01   5.95985181E-02   1.80395576E-04   4.00879310E-04   1.70373707E-06   3.90857327E-05   6.04990412E-04
   3.67500000E+02   5.00000000E-01   5.00000000E-01  -4.26363895E-03   1.01350270E-10   4.76269857E-03   5.04060850E-02   4.09565162E-02   2.91987246E-04   4.10179380E-14   2.00534677E-07   9.02406045E-06   5.49632003E-01   6.81817901E-05   1.18503013E-02   4.75719962E-01   5.84457764E-02   1.80480982E-04   4.01069353E-04   1.70454475E-06   3.91042620E-05   6.29571504E-04
   4.02500000E+02   5.00000000E-01   5.00000000E-01  -4.21769166E-03   1.17013145E-10   4.76514266E-03   5.03565752E-02   3.98156105E-02   3.18620727E-04   4.74451278E-14   2.00637586E-07   9.02869135E-06   5.49914059E-01   6.82167791E-05   1.18399770E-02   4.76001493E-01   5.72995196E-02   1.80573406E-04   4.01275171E-04   1.70541948E-06   3.91243292E-05   6.54227375E-04
   4.37500000E+02   5.00000000E-01   5.00000000E-01  -4.16820201E-03   1.35005443E-10   4.76776754E-03   5.03067637E-02   3.86831247E-02   3.45250398E-04   5.47149713E-14   2.00748107E-07   9.03366481E-06   5.50216979E-01   6.82543563E-05   1.18299614E-02   4.76301989E-01   5.61623520E-02   1.80672563E-04   4.01496214E-04   1.70635891E-06   3.91458808E-05   6.79066392E-04
   4.72500000E+02   5.00000000E-01   5.00000000E-01  -4.11498107E-03   1.55621722E-10   4.77056713E-03   5.02564967E-02   3.75614096E-02   3.71858430E-04   6.29421832E-14   2.00865984E-07   9.03896930E-06   5.50540061E-01   6.82944347E-05   1.18202430E-02   4.76620891E-01   5.50366113E-02   1.80778177E-04   4.01731969E-04   1.70736087E-06   3.91688670E-05   7.04163865E-04
   5.07500000E+02   5.00000000E-01   5.00000000E-01  -4.05786052E-03   1.79193732E-10   4.77353570E-03   5.02056499E-02   3.64525577E-02   3.98420846E-04   7.22532358E-14   2.00990977E-07   9.04459397E-06   5.50882645E-01   6.83369322E-05   1.18108182E-02   4.76957650E-01   5.39243819E-02   1.80889984E-04   4.01981954E-04   1.70842330E-06   3.91932405E-05   7.29574649E-04
   5.42500000E+02   5.00000000E-01   5.00000000E-01  -3.99669467E-03   2.06092711E-10   4.77666776E-03   5.01541275E-02   3.53584161E-02   4.24907321E-04   8.27886903E-14   2.01122853E-07   9.05052839E-06   5.51244095E-01   6.83817700E-05   1.18016901E-02   4.77311728E-01   5.28275069E-02   1.81007724E-04   4.02245706E-04   1.70954425E-06   3.92189563E-05   7.55341684E-04
   5.77500000E+02   5.00000000E-01   5.00000000E-01  -3.93136330E-03   2.36731900E-10   4.77995793E-03   5.01018620E-02   3.42805991E-02   4.51281392E-04   9.47058365E-14   2.01261386E-07   9.05676238E-06   5.51623792E-01   6.84288714E-05   1.17928676E-02   4.77682583E-01   5.17476005E-02   1.81131145E-04   4.02522773E-04   1.71072178E-06   3.92459703E-05   7.81501913E-04
   6.12500000E+02   5.00000000E-01   5.00000000E-01  -3.86177504E-03   2.71569170E-10   4.78340087E-03   5.00488128E-02   3.32205024E-02   4.77501098E-04   1.08181721E-13   2.01406353E-07   9.06328586E-06   5.52021120E-01   6.84781599E-05   1.17843646E-02   4.78069667E-01   5.06860615E-02   1.81260001E-04   4.02812705E-04   1.71195400E-06   3.92742387E-05   8.08090472E-04
   6.47500000E+02   5.00000000E-01   5.00000000E-01  -3.78786861E-03   3.11081603E-10   4.78699123E-03   4.99949609E-02   3.21793184E-02   5.03519957E-04   1.23435970E-13   2.01557525E-07   9.07008864E-06   5.52435460E-01   6.85295586E-05   1.17762029E-02   4.78472418E-01   4.96440877E-02   1.81394053E-04   4.03115051E-04   1.71323897E-06   3.93037174E-05   8.35154880E-04
   6.82500000E+02   5.00000000E-01   5.00000000E-01  -3.70961415E-03   3.55763065E-10   4.79072350E-03   4.99403052E-02   3.11580508E-02   5.29288218E-04   1.40738216E-13   2.01714674E-07   9.07716032E-06   5.52866177E-01   6.85829891E-05   1.17684136E-02   4.78890256E-01   4.86226896E-02   1.81533067E-04   4.03429348E-04   1.71457473E-06   3.93343614E-05   8.62758441E-04
   7.17500000E+02   5.00000000E-01   5.00000000E-01  -3.62702447E-03   4.06249516E-10   4.79459206E-03   4.98848789E-02   3.01575303E-02   5.54754254E-04   1.60329037E-13   2.01877560E-07   9.08449021E-06   5.53312622E-01   6.86383705E-05   1.17610212E-02   4.79322570E-01   4.76227050E-02   1.81676814E-04   4.03755120E-04   1.71595926E-06   3.93661242E-05   8.90940652E-04
   7.52500000E+02   5.00000000E-01   5.00000000E-01  -3.54015995E-03   4.63188469E-10   4.79859104E-03   4.98287408E-02   2.91784293E-02   5.79865993E-04   1.82516359E-13   2.02045939E-07   9.09206723E-06   5.53774118E-01   6.86956191E-05   1.17540509E-02   4.79768721E-01   4.66448131E-02   1.81825069E-04   4.04091877E-04   1.71739048E-06   3.93989580E-05   9.19751104E-04
   7.87500000E+02   5.00000000E-01   5.00000000E-01  -3.44912661E-03   5.27280682E-10   4.80271441E-03   4.97719718E-02   2.82212767E-02   6.04572289E-04   2.07655429E-13   2.02219554E-07   9.09987993E-06   5.54249969E-01   6.87546483E-05   1.17475278E-02   4.80228042E-01   4.56895483E-02   1.81977612E-04   4.04439108E-04   1.71886621E-06   3.94328130E-05   9.49247442E-04
   8.22500000E+02   5.00000000E-01   5.00000000E-01  -3.35407845E-03   5.99282150E-10   4.80695590E-03   4.97146741E-02   2.72864716E-02   6.28824169E-04   2.36156797E-13   2.02398143E-07   9.10791644E-06   5.54739452E-01   6.88153687E-05   1.17414761E-02   4.80699843E-01   4.47573133E-02   1.82134223E-04   4.04796286E-04   1.72038422E-06   3.94676379E-05   9.79495575E-04
   8.57500000E+02   5.00000000E-01   5.00000000E-01  -3.25521897E-03   6.80005654E-10   4.81130907E-03   4.96569707E-02   2.63742967E-02   6.52575880E-04   2.68495900E-13   2.02581435E-07   9.11616455E-06   5.55241823E-01   6.88776877E-05   1.17359183E-02   4.81183407E-01   4.38483920E-02   1.82294684E-04   4.05162869E-04   1.72194219E-06   3.95033797E-05   1.01056967E-03
   8.92500000E+02   5.00000000E-01   5.00000000E-01  -3.15280190E-03   7.70322276E-10   4.81576731E-03   4.95990043E-02   2.54849307E-02   6.75785743E-04   3.05224217E-13   2.02769150E-07   9.12461175E-06   5.55756320E-01   6.89415110E-05   1.17308749E-02   4.81678000E-01   4.29629614E-02   1.82458777E-04   4.05538300E-04   1.72353777E-06   3.95399842E-05   1.04255192E-03
   9.27500000E+02   5.00000000E-01   5.00000000E-01  -3.04713078E-03   8.71162986E-10   4.82032389E-03   4.95409366E-02   2.46184595E-02   6.98416772E-04   3.46982250E-13   2.02961006E-07   9.13324527E-06   5.56282165E-01   6.90067421E-05   1.17263637E-02   4.82182872E-01   4.21011029E-02   1.82626287E-04   4.05922012E-04   1.72516855E-06   3.95773962E-05   1.07553202E-03
   9.62500000E+02   5.00000000E-01   5.00000000E-01  -2.93855745E-03   9.83520430E-10   4.82497201E-03   4.94829474E-02   2.37748873E-02   7.20437090E-04   3.94514592E-13   2.03156716E-07   9.14205222E-06   5.56818574E-01   6.90732835E-05   1.17223997E-02   4.82697263E-01   4.12628128E-02   1.82796996E-04   4.06313432E-04   1.72683209E-06   3.96155596E-05   1.10960649E-03
   9.97500000E+02   5.00000000E-01   5.00000000E-01  -2.82747926E-03   1.10845109E-09   4.82970481E-03   4.94252329E-02   2.29541458E-02   7.41820153E-04   4.48687373E-13   2.03355992E-07   9.15101964E-06   5.57364756E-01   6.91410373E-05   1.17189948E-02   4.83220408E-01   4.04480123E-02   1.82970688E-04   4.06711984E-04   1.72852593E-06   3.96544184E-05   1.14487766E-03
   1.03250000E+03   5.00000000E-01   5.00000000E-01  -2.71433505E-03   1.24707800E-09   4.83451548E-03   4.93680037E-02   2.21561037E-02   7.62544803E-04   5.10508455E-13   2.03558547E-07   9.16013460E-06   5.57919924E-01   6.92099059E-05   1.17161578E-02   4.83751543E-01   3.96565565E-02   1.83147150E-04   4.07117093E-04   1.73024765E-06   3.96939166E-05   1.18145251E-03
   1.06750000E+03   5.00000000E-01   5.00000000E-01  -2.59959974E-03   1.40059422E-09   4.83939727E-03   4.93114831E-02   2.13805743E-02   7.82595177E-04   5.81150716E-13   2.03764096E-07   9.16938431E-06   5.58483300E-01   6.92797926E-05   1.17138946E-02   4.84289912E-01   3.88882425E-02   1.83326169E-04   4.07528192E-04   1.73199481E-06   3.97339987E-05   1.21944123E-03
   1.10250000E+03   5.00000000E-01   5.00000000E-01  -2.48377773E-03   1.57026736E-09   4.84434354E-03   4.92559037E-02   2.06273233E-02   8.01960512E-04   6.61978861E-13   2.03972360E-07   9.17875618E-06   5.59054116E-01   6.93506023E-05   1.17122080E-02   4.84834769E-01   3.81428176E-02   1.83507533E-04   4.07944719E-04   1.73376506E-06   3.97746101E-05   1.25895565E-03
   1.13750000E+03   5.00000000E-01   5.00000000E-01  -2.36739510E-03   1.75744519E-09   4.84934780E-03   4.92015039E-02   1.98960751E-02   8.20634857E-04   7.54580196E-13   2.04183065E-07   9.18823794E-06   5.59631625E-01   6.94222422E-05   1.17110984E-02   4.85385384E-01   3.74199857E-02   1.83691038E-04   4.08366131E-04   1.73555605E-06   3.98156977E-05   1.30010740E-03
   1.17250000E+03   5.00000000E-01   5.00000000E-01  -2.25099093E-03   1.96356287E-09   4.85440376E-03   4.91485246E-02   1.91865190E-02   8.38616727E-04   8.60799828E-13   2.04395948E-07   9.19781766E-06   5.60215101E-01   6.94946223E-05   1.17105637E-02   4.85941051E-01   3.67194136E-02   1.83876480E-04   4.08791896E-04   1.73736556E-06   3.98572098E-05   1.34300609E-03
   1.20750000E+03   5.00000000E-01   5.00000000E-01  -2.13510772E-03   2.19015176E-09   4.85950537E-03   4.90972045E-02   1.84983145E-02   8.55908712E-04   9.82780801E-13   2.04610752E-07   9.20748385E-06   5.60803844E-01   6.95676558E-05   1.17105995E-02   4.86501086E-01   3.60407373E-02   1.84063665E-04   4.09221505E-04   1.73919139E-06   3.98990967E-05   1.38775720E-03
   1.24250000E+03   5.00000000E-01   5.00000000E-01  -2.02028155E-03   2.43885010E-09   4.86464681E-03   4.90477757E-02   1.78310961E-02   8.72517072E-04   1.12300969E-12   2.04827234E-07   9.21722554E-06   5.61397184E-01   6.96412596E-05   1.17112000E-02   4.87064835E-01   3.53835666E-02   1.84252402E-04   4.09654468E-04   1.74103149E-06   3.99413107E-05   1.43446018E-03
   1.27750000E+03   5.00000000E-01   5.00000000E-01  -1.90703200E-03   2.71141581E-09   4.86982257E-03   4.90004591E-02   1.71844777E-02   8.88451311E-04   1.28436822E-12   2.05045161E-07   9.22703224E-06   5.61994485E-01   6.97153547E-05   1.17123578E-02   4.87631676E-01   3.47474900E-02   1.84442508E-04   4.10090322E-04   1.74288387E-06   3.99838064E-05   1.48320637E-03
   1.31250000E+03   5.00000000E-01   5.00000000E-01  -1.79585245E-03   3.00974129E-09   4.87502742E-03   4.89554598E-02   1.65580564E-02   9.03723768E-04   1.47019145E-12   2.05264312E-07   9.23689406E-06   5.62595143E-01   6.97898662E-05   1.17140647E-02   4.88201020E-01   3.41320785E-02   1.84633809E-04   4.10528625E-04   1.74474666E-06   4.00265409E-05   1.53407722E-03
   1.34750000E+03   5.00000000E-01   5.00000000E-01  -1.68720104E-03   3.33587055E-09   4.88025645E-03   4.89129630E-02   1.59514161E-02   9.18349210E-04   1.68433325E-12   2.05484482E-07   9.24680169E-06   5.63198591E-01   6.98647239E-05   1.17163113E-02   4.88772317E-01   3.35368900E-02   1.84826139E-04   4.10968964E-04   1.74661810E-06   4.00694740E-05   1.58714260E-03
   1.38250000E+03   5.00000000E-01   5.00000000E-01  -1.58149264E-03   3.69201838E-09   4.88550505E-03   4.88731303E-02   1.53641301E-02   9.32344452E-04   1.93123975E-12   2.05705476E-07   9.25674642E-06   5.63804298E-01   6.99398618E-05   1.17190882E-02   4.89345050E-01   3.29614719E-02   1.85019340E-04   4.11410952E-04   1.74849655E-06   4.01125678E-05   1.64245944E-03
   1.41750000E+03   5.00000000E-01   5.00000000E-01  -1.47909225E-03   4.08059155E-09   4.89076897E-03   4.88360964E-02   1.47957647E-02   9.45727993E-04   2.21603147E-12   2.05927115E-07   9.26672016E-06   5.64411773E-01   7.00152190E-05   1.17223855E-02   4.89918745E-01   3.24053645E-02   1.85213266E-04   4.11854229E-04   1.75038047E-06   4.01557874E-05   1.70007068E-03
   1.45250000E+03   5.00000000E-01   5.00000000E-01  -1.38030996E-03   4.50421188E-09   4.89604427E-03   4.88019672E-02   1.42458806E-02   9.58519689E-04   2.54459531E-12   2.06149232E-07   9.27671545E-06   5.65020560E-01   7.00907390E-05   1.17261931E-02   4.90492964E-01   3.18681032E-02   1.85407778E-04   4.12298464E-04   1.75226847E-06   4.01991003E-05   1.76000460E-03
   1.48750000E+03   5.00000000E-01   5.00000000E-01  -1.28539773E-03   4.96574086E-09   4.90132731E-03   4.87708178E-02   1.37140359E-02   9.70740444E-04   2.92368730E-12   2.06371676E-07   9.28672543E-06   5.65630242E-01   7.01663699E-05   1.17305014E-02   4.91067309E-01   3.13492215E-02   1.85602748E-04   4.12743352E-04   1.75415925E-06   4.02424769E-05   1.82227463E-03
   1.52250000E+03   5.00000000E-01   5.00000000E-01  -1.19454791E-03   5.46830559E-09   4.90661481E-03   4.87426928E-02   1.31997874E-02   9.82411937E-04   3.36104759E-12   2.06594308E-07   9.29674385E-06   5.66240437E-01   7.02420646E-05   1.17353005E-02   4.91641422E-01   3.08482521E-02   1.85798057E-04   4.13188615E-04   1.75605162E-06   4.02858900E-05   1.88687950E-03
   1.55750000E+03   5.00000000E-01   5.00000000E-01  -1.10789363E-03   6.01532573E-09   4.91190378E-03   4.87176060E-02   1.27026928E-02   9.93556375E-04   3.86552913E-12   2.06817001E-07   9.30676505E-06   5.66850803E-01   7.03177804E-05   1.17405808E-02   4.92214982E-01   3.03647294E-02   1.85993598E-04   4.13634002E-04   1.75794451E-06   4.03293152E-05   1.95380381E-03
   1.59250000E+03   5.00000000E-01   5.00000000E-01  -1.02551071E-03   6.61054134E-09   4.91719153E-03   4.86955421E-02   1.22223115E-02   1.00419628E-03   4.44724208E-12   2.07039643E-07   9.31678395E-06   5.67461028E-01   7.03934787E-05   1.17463330E-02   4.92787705E-01   2.98981908E-02   1.86189271E-04   4.14079287E-04   1.75983697E-06   4.03727304E-05   2.02301899E-03
   1.62750000E+03   5.00000000E-01   5.00000000E-01  -9.47420941E-04   7.25804117E-09   4.92247567E-03   4.86764583E-02   1.17582065E-02   1.01435429E-03   5.11771593E-12   2.07262134E-07   9.32679601E-06   5.68070836E-01   7.04691254E-05   1.17525478E-02   4.93359346E-01   2.94481779E-02   1.86384987E-04   4.14524267E-04   1.76172814E-06   4.04161161E-05   2.09448450E-03
   1.66250000E+03   5.00000000E-01   5.00000000E-01  -8.73596530E-04   7.96229163E-09   4.92775410E-03   4.86602870E-02   1.13099448E-02   1.02405299E-03   5.89008193E-12   2.07484383E-07   9.33679725E-06   5.68679986E-01   7.05446903E-05   1.17592162E-02   4.93929691E-01   2.90142378E-02   1.86580666E-04   4.14968767E-04   1.76361726E-06   4.04594547E-05   2.16814923E-03
   1.69750000E+03   5.00000000E-01   5.00000000E-01  -8.03965226E-04   8.72816606E-09   4.93302497E-03   4.86469385E-02   1.08770992E-02   1.03331480E-03   6.77927871E-12   2.07706315E-07   9.34678416E-06   5.69288262E-01   7.06201470E-05   1.17663291E-02   4.94498560E-01   2.85959238E-02   1.86776236E-04   4.15412629E-04   1.76550367E-06   4.05027314E-05   2.24395307E-03
   1.73250000E+03   5.00000000E-01   5.00000000E-01  -7.38415968E-04   9.56097469E-09   4.93828670E-03   4.86363040E-02   1.04592480E-02   1.04216181E-03   7.80228416E-12   2.07927861E-07   9.35675374E-06   5.69895483E-01   7.06954727E-05   1.17738775E-02   4.95065806E-01   2.81927965E-02   1.86971636E-04   4.15855722E-04   1.76738682E-06   4.05459329E-05   2.32182847E-03
   1.76750000E+03   5.00000000E-01   5.00000000E-01  -6.76804683E-04   1.04664951E-08   4.94353792E-03   4.86282592E-02   1.00559765E-02   1.05061570E-03   8.97837744E-12   2.08148965E-07   9.36670343E-06   5.70501493E-01   7.07706481E-05   1.17818523E-02   4.95631308E-01   2.78044243E-02   1.87166810E-04   4.16297930E-04   1.76926620E-06   4.05890482E-05   2.40170202E-03
   1.80250000E+03   5.00000000E-01   5.00000000E-01  -6.18960009E-04   1.14510038E-08   4.94877752E-03   4.86226670E-02   9.66687730E-03   1.05869766E-03   1.03294349E-11   2.08369580E-07   9.37663109E-06   5.71106161E-01   7.08456572E-05   1.17902445E-02   4.96194976E-01   2.74303838E-02   1.87361712E-04   4.16739160E-04   1.77114143E-06   4.06320681E-05   2.48349590E-03
   1.83750000E+03   5.00000000E-01   5.00000000E-01  -5.64688730E-04   1.25213081E-08   4.95400459E-03   4.86193804E-02   9.29155024E-03   1.06642833E-03   1.18802647E-11   2.08589667E-07   9.38653502E-06   5.71709383E-01   7.09204868E-05   1.17990451E-02   4.96756743E-01   2.70702603E-02   1.87556304E-04   4.17179334E-04   1.77301217E-06   4.06749851E-05   2.56712925E-03
   1.87250000E+03   5.00000000E-01   5.00000000E-01  -5.13780774E-04   1.36847803E-08   4.95921841E-03   4.86182457E-02   8.92960328E-03   1.07382771E-03   1.36589843E-11   2.08809196E-07   9.39641383E-06   5.72311077E-01   7.09951267E-05   1.18082450E-02   4.97316566E-01   2.67236480E-02   1.87750552E-04   4.17618393E-04   1.77487817E-06   4.07177933E-05   2.65251929E-03
   1.90750000E+03   5.00000000E-01   5.00000000E-01  -4.66013671E-04   1.49493926E-08   4.96441845E-03   4.86191043E-02   8.58065242E-03   1.08091515E-03   1.56974481E-11   2.09028145E-07   9.40626654E-06   5.72911179E-01   7.10695694E-05   1.18178351E-02   4.97874423E-01   2.63901503E-02   1.87944432E-04   4.18056291E-04   1.77673924E-06   4.07604884E-05   2.73958235E-03
   1.94250000E+03   5.00000000E-01   5.00000000E-01  -4.21156413E-04   1.63237535E-08   4.96960435E-03   4.86217953E-02   8.24432192E-03   1.08770932E-03   1.80317287E-11   2.09246499E-07   9.41609246E-06   5.73509650E-01   7.11438097E-05   1.18278065E-02   4.98430311E-01   2.60693799E-02   1.88137924E-04   4.18492998E-04   1.77859524E-06   4.08030673E-05   2.82823465E-03
   1.97750000E+03   5.00000000E-01   5.00000000E-01  -3.78972696E-04   1.78171468E-08   4.97477590E-03   4.86261570E-02   7.92024435E-03   1.09422818E-03   2.07026606E-11   2.09464249E-07   9.42589119E-06   5.74106465E-01   7.12178445E-05   1.18381501E-02   4.98984246E-01   2.57609587E-02   1.88331014E-04   4.18928497E-04   1.78044611E-06   4.08455285E-05   2.91839294E-03
   2.01250000E+03   5.00000000E-01   5.00000000E-01  -3.39223555E-04   1.94395718E-08   4.97993305E-03   4.86320282E-02   7.60806063E-03   1.10048895E-03   2.37564527E-11   2.09681391E-07   9.43566262E-06   5.74701618E-01   7.12916731E-05   1.18488574E-02   4.99536259E-01   2.54645178E-02   1.88523695E-04   4.19362783E-04   1.78229183E-06   4.08878713E-05   3.00997491E-03
   2.04750000E+03   5.00000000E-01   5.00000000E-01  -3.01669421E-04   2.12017863E-08   4.98507585E-03   4.86392499E-02   7.30741998E-03   1.10650813E-03   2.72453772E-11   2.09897931E-07   9.44540688E-06   5.75295115E-01   7.13652964E-05   1.18599197E-02   5.00086394E-01   2.51796977E-02   1.88715962E-04   4.19795861E-04   1.78413241E-06   4.09300965E-05   3.10289950E-03
   2.08250000E+03   5.00000000E-01   5.00000000E-01  -2.66071661E-04   2.31153510E-08   4.99020451E-03   4.86476652E-02   7.01797989E-03   1.11230150E-03   3.12285444E-11   2.10113874E-07   9.45512434E-06   5.75886980E-01   7.14387172E-05   1.18713290E-02   5.00634709E-01   2.49061479E-02   1.88907817E-04   4.20227748E-04   1.78596793E-06   4.09722055E-05   3.19708706E-03
   2.11750000E+03   5.00000000E-01   5.00000000E-01  -2.32193632E-04   2.51926771E-08   4.99531932E-03   4.86571209E-02   6.73940601E-03   1.11788410E-03   3.57727713E-11   2.10329235E-07   9.46481556E-06   5.76477247E-01   7.15119398E-05   1.18830773E-02   5.01181271E-01   2.46435268E-02   1.89099266E-04   4.20658469E-04   1.78779849E-06   4.10142008E-05   3.29245934E-03
   2.15250000E+03   5.00000000E-01   5.00000000E-01  -1.99801356E-04   2.74470796E-08   5.00042069E-03   4.86674670E-02   6.47137202E-03   1.12327029E-03   4.09535408E-11   2.10544029E-07   9.47448130E-06   5.77065962E-01   7.15849698E-05   1.18951571E-02   5.01726159E-01   2.43915017E-02   1.89290317E-04   4.21088058E-04   1.78962425E-06   4.10560856E-05   3.38893894E-03
   2.18750000E+03   5.00000000E-01   5.00000000E-01  -1.68663854E-04   2.98928393E-08   5.00550909E-03   4.86785573E-02   6.21355950E-03   1.12847369E-03   4.68560480E-11   2.10758278E-07   9.48412249E-06   5.77653182E-01   7.16578144E-05   1.19075612E-02   5.02269459E-01   2.41497484E-02   1.89480984E-04   4.21516555E-04   1.79144536E-06   4.10978641E-05   3.48644808E-03
   2.22250000E+03   5.00000000E-01   5.00000000E-01  -1.38553178E-04   3.25452709E-08   5.01058510E-03   4.86902494E-02   5.96565779E-03   1.13350726E-03   5.35763396E-11   2.10972004E-07   9.49374020E-06   5.78238972E-01   7.17304815E-05   1.19202824E-02   5.02811265E-01   2.39179513E-02   1.89671282E-04   4.21944009E-04   1.79326204E-06   4.11395409E-05   3.58490704E-03
   2.25750000E+03   5.00000000E-01   5.00000000E-01  -1.09244178E-04   3.54207968E-08   5.01564937E-03   4.87024040E-02   5.72736381E-03   1.13838329E-03   6.12225569E-11   2.11185236E-07   9.50333564E-06   5.78823405E-01   7.18029804E-05   1.19333135E-02   5.03351678E-01   2.36958027E-02   1.89861229E-04   4.22370473E-04   1.79507451E-06   4.11811211E-05   3.68423278E-03
   2.29250000E+03   5.00000000E-01   5.00000000E-01  -8.05140551E-05   3.85370204E-08   5.02070258E-03   4.87148851E-02   5.49838186E-03   1.14311344E-03   6.99163041E-11   2.11398003E-07   9.51291016E-06   5.79406564E-01   7.18753212E-05   1.19466472E-02   5.03890804E-01   2.34830033E-02   1.90050847E-04   4.22796007E-04   1.79688303E-06   4.12226107E-05   3.78433789E-03
   2.32750000E+03   5.00000000E-01   5.00000000E-01  -5.21417333E-05   4.19127985E-08   5.02574551E-03   4.87275590E-02   5.27842351E-03   1.14770873E-03   7.97941641E-11   2.11610337E-07   9.52246518E-06   5.79988536E-01   7.19475147E-05   1.19602760E-02   5.04428756E-01   2.32792614E-02   1.90240160E-04   4.23220675E-04   1.79868787E-06   4.12640158E-05   3.88513041E-03
   2.36250000E+03   5.00000000E-01   5.00000000E-01  -2.39071242E-05   4.55683120E-08   5.03077897E-03   4.87402940E-02   5.06720740E-03   1.15217958E-03   9.10093656E-11   2.11822272E-07   9.53200225E-06   5.80569414E-01   7.20195726E-05   1.19741927E-02   5.04965653E-01   2.30842927E-02   1.90429194E-04   4.23644545E-04   1.80048931E-06   4.13053431E-05   3.98651380E-03
   2.39750000E+03   5.00000000E-01   5.00000000E-01   4.40968548E-06   4.95251402E-08   5.03580380E-03   4.87529598E-02   4.86445904E-03   1.15653585E-03   1.03733601E-10   2.12033844E-07   9.54152299E-06   5.81149297E-01   7.20915070E-05   1.19883900E-02   5.05501615E-01   2.28978205E-02   1.90617975E-04   4.24067688E-04   1.80228768E-06   4.13465996E-05   4.08838699E-03
   2.43250000E+03   5.00000000E-01   5.00000000E-01   3.30293057E-05   5.38063326E-08   5.04082090E-03   4.87654272E-02   4.66991073E-03   1.16078683E-03   1.18159021E-10   2.12245091E-07   9.55102908E-06   5.81728288E-01   7.21633308E-05   1.20028612E-02   5.06036769E-01   2.27195753E-02   1.90806533E-04   4.24490181E-04   1.80408327E-06   4.13877927E-05   4.19064475E-03
   2.46750000E+03   5.00000000E-01   5.00000000E-01   6.21739571E-05   5.84364773E-08   5.04583120E-03   4.87775669E-02   4.48330134E-03   1.16494131E-03   1.34500426E-10   2.12456050E-07   9.56052227E-06   5.82306493E-01   7.22350571E-05   1.20176002E-02   5.06571243E-01   2.25492945E-02   1.90994899E-04   4.24912101E-04   1.80587643E-06   4.14289298E-05   4.29317838E-03
   2.50250000E+03   5.00000000E-01   5.00000000E-01   9.20684023E-05   6.34417683E-08   5.05083564E-03   4.87892497E-02   4.30437622E-03   1.16900754E-03   1.52997662E-10   2.12666764E-07   9.57000436E-06   5.82884023E-01   7.23066996E-05   1.20326017E-02   5.07105167E-01   2.23867225E-02   1.91183103E-04   4.25333527E-04   1.80766749E-06   4.14700189E-05   4.39587658E-03
   2.53750000E+03   5.00000000E-01   5.00000000E-01   1.22940874E-04   6.88500713E-08   5.05583520E-03   4.88003457E-02   4.13288702E-03   1.17299332E-03   1.73918226E-10   2.12877271E-07   9.57947722E-06   5.83460990E-01   7.23782723E-05   1.20478615E-02   5.07638672E-01   2.22316101E-02   1.91371180E-04   4.25754543E-04   1.80945681E-06   4.15110679E-05   4.49862620E-03
   2.57250000E+03   5.00000000E-01   5.00000000E-01   1.55023982E-04   7.46909902E-08   5.06083087E-03   4.88107240E-02   3.96859161E-03   1.17690598E-03   1.97560065E-10   2.13087616E-07   9.58894271E-06   5.84037509E-01   7.24497894E-05   1.20633767E-02   5.08171890E-01   2.20837149E-02   1.91559164E-04   4.26175232E-04   1.81124473E-06   4.15520851E-05   4.60131295E-03
   2.60750000E+03   5.00000000E-01   5.00000000E-01   1.88555589E-04   8.09959361E-08   5.06582368E-03   4.88202518E-02   3.81125393E-03   1.18075240E-03   2.24254573E-10   2.13297839E-07   9.59840276E-06   5.84613695E-01   7.25212653E-05   1.20791459E-02   5.08704952E-01   2.19428006E-02   1.91747087E-04   4.26595678E-04   1.81303163E-06   4.15930786E-05   4.70382172E-03
   2.64250000E+03   5.00000000E-01   5.00000000E-01   2.23779625E-04   8.77981980E-08   5.07081463E-03   4.88287950E-02   3.66064390E-03   1.18453909E-03   2.54369746E-10   2.13507984E-07   9.60785930E-06   5.85189669E-01   7.25927147E-05   1.20951689E-02   5.09237989E-01   2.18086376E-02   1.91934987E-04   4.27015969E-04   1.81481787E-06   4.16340570E-05   4.80603677E-03
   2.67750000E+03   5.00000000E-01   5.00000000E-01   2.60946763E-04   9.51330434E-08   5.07580477E-03   4.88362171E-02   3.51653733E-03   1.18827213E-03   2.88313251E-10   2.13718095E-07   9.61731429E-06   5.85765548E-01   7.26641524E-05   1.21114469E-02   5.09771129E-01   2.16810018E-02   1.92122899E-04   4.27436191E-04   1.81660381E-06   4.16750286E-05   4.90783976E-03
   2.71250000E+03   5.00000000E-01   5.00000000E-01   3.00315020E-04   1.03037815E-07   5.08079513E-03   4.88423793E-02   3.37871580E-03   1.19195725E-03   3.26535573E-10   2.13928216E-07   9.62676971E-06   5.86341453E-01   7.27355934E-05   1.21279823E-02   5.10304499E-01   2.15596757E-02   1.92310858E-04   4.27856432E-04   1.81838983E-06   4.17160021E-05   5.00910843E-03