 TITLE = "Total Concentrations" 
VARIABLES = "X"          "Y"              "Z"            "H+"             "Al+++"          "CO2(aq)"        "Mg++"           "Ca++"           "Fe++"           "Fe+++"          "Ba++"           "Sr++"           "Cl-"            "F-"             "K+"             "HS-"            "Na+"            "SO4--"          "O2(aq)"         "B(OH)3(aq)"     "HPO4--"         "NO3-"           "H4SiO4(aq)"    
 ZONE I=         100 , J=           1 , K=           1  F=POINT
   1.75000000E+01   5.00000000E-01   5.00000000E-01  -4.73713443E-03   2.24198737E-13   4.75010909E-03   4.93254582E-02   1.13794414E-02   6.80316519E-04   2.12913919E-12   2.00004593E-07   9.00020669E-06   5.48179132E-01   6.80015617E-05   1.20002756E-02   1.12253745E-10   4.74238847E-01   2.80006431E-02   1.79980767E-08   4.00009186E-04   1.70003904E-06   3.90008957E-05   1.70955219E-03
   5.25000000E+01   5.00000000E-01   5.00000000E-01  -4.71939262E-03   2.30431210E-13   4.75063957E-03   4.80795291E-02   1.23365373E-02   9.71504857E-04   1.61656138E-12   2.00026929E-07   9.00121182E-06   5.48240352E-01   6.80091559E-05   1.20016158E-02   1.24539824E-10   4.74282539E-01   2.80037701E-02   1.79977452E-08   4.00053859E-04   1.70022890E-06   3.90052512E-05   2.59820488E-03
   8.75000000E+01   5.00000000E-01   5.00000000E-01  -4.68403036E-03   2.74179777E-13   4.75176954E-03   4.71026960E-02   1.32719177E-02   1.08171153E-03   1.47140737E-12   2.00074507E-07   9.00335281E-06   5.48370754E-01   6.80253324E-05   1.20044704E-02   1.36866744E-10   4.74250560E-01   2.80104310E-02   1.79996797E-08   4.00149014E-04   1.70063331E-06   3.90145289E-05   3.09453082E-03
   1.22500000E+02   5.00000000E-01   5.00000000E-01  -4.63970167E-03   3.56282643E-13   4.75345252E-03   4.62225838E-02   1.42065509E-02   1.14550685E-03   1.35590980E-12   2.00145369E-07   9.00654161E-06   5.48564976E-01   6.80494255E-05   1.20087222E-02   1.49237658E-10   4.74179442E-01   2.80203517E-02   1.80037031E-08   4.00290738E-04   1.70123564E-06   3.90283470E-05   3.45151856E-03
   1.57500000E+02   5.00000000E-01   5.00000000E-01  -4.57999807E-03   5.49230762E-13   4.75564895E-03   4.53637356E-02   1.51714149E-02   1.25591106E-03   1.10612140E-12   2.00237850E-07   9.01070327E-06   5.48818451E-01   6.80808692E-05   1.20142710E-02   1.61655401E-10   4.73960763E-01   2.80332991E-02   1.80096648E-08   4.00475701E-04   1.70202173E-06   3.90463808E-05   3.82176968E-03
   1.92500000E+02   5.00000000E-01   5.00000000E-01  -4.52356826E-03   7.62466445E-13   4.75832501E-03   4.45702279E-02   1.61490061E-02   1.35184813E-03   1.00081792E-12   2.00350527E-07   9.01577370E-06   5.49127278E-01   6.81191790E-05   1.20210316E-02   1.74122552E-10   4.73677959E-01   2.80490738E-02   1.80174361E-08   4.00701053E-04   1.70297948E-06   3.90683527E-05   4.13101507E-03
   2.27500000E+02   5.00000000E-01   5.00000000E-01  -4.46943358E-03   9.63943660E-13   4.76145164E-03   4.38209682E-02   1.71311709E-02   1.41056409E-03   9.84399359E-13   2.00482174E-07   9.02169785E-06   5.49488102E-01   6.81639393E-05   1.20289305E-02   1.86641562E-10   4.73430430E-01   2.80675045E-02   1.80269063E-08   4.00964349E-04   1.70409848E-06   3.90940240E-05   4.40167768E-03
   2.62500000E+02   5.00000000E-01   5.00000000E-01  -4.41193071E-03   1.18824845E-12   4.76500382E-03   4.30845328E-02   1.81165340E-02   1.44620189E-03   9.89285836E-13   2.00631740E-07   9.02842829E-06   5.49898036E-01   6.82147915E-05   1.20379044E-02   1.99214764E-10   4.73246703E-01   2.80884436E-02   1.80379800E-08   4.01263479E-04   1.70536979E-06   3.91231892E-05   4.66429502E-03
   2.97500000E+02   5.00000000E-01   5.00000000E-01  -4.34977551E-03   1.44808165E-12   4.76895988E-03   4.23454797E-02   1.91045951E-02   1.46945017E-03   1.00050832E-12   2.00798311E-07   9.03592398E-06   5.50354579E-01   6.82714256E-05   1.20478986E-02   2.11844385E-10   4.73133300E-01   2.81117635E-02   1.80505745E-08   4.01596621E-04   1.70678564E-06   3.91556706E-05   4.93190671E-03
   3.32500000E+02   5.00000000E-01   5.00000000E-01  -4.28231618E-03   1.75210539E-12   4.77330104E-03   4.15968945E-02   2.00950590E-02   1.48607789E-03   1.01322585E-12   2.00981096E-07   9.04414934E-06   5.50855564E-01   6.83335728E-05   1.20588658E-02   2.24532570E-10   4.73090111E-01   2.81373536E-02   1.80646182E-08   4.01962193E-04   1.70833932E-06   3.91913138E-05   5.20869033E-03
   3.67500000E+02   5.00000000E-01   5.00000000E-01  -4.20897130E-03   2.10961622E-12   4.77801099E-03   4.08357103E-02   2.10877657E-02   1.49911802E-03   1.02510175E-12   2.01179410E-07   9.05307346E-06   5.51399109E-01   6.84009995E-05   1.20707646E-02   2.37281405E-10   4.73114906E-01   2.81651175E-02   1.80800489E-08   4.02358821E-04   1.71002499E-06   3.92299850E-05   5.49527379E-03
   4.02500000E+02   5.00000000E-01   5.00000000E-01  -4.12920304E-03   2.53149036E-12   4.78307553E-03   4.00605800E-02   2.20826777E-02   1.51022211E-03   1.03470076E-12   2.01392654E-07   9.06266942E-06   5.51983574E-01   6.84735023E-05   1.20835592E-02   2.50092930E-10   4.73204843E-01   2.81949716E-02   1.80968123E-08   4.02785308E-04   1.71183756E-06   3.92715675E-05   5.79107463E-03
   4.37500000E+02   5.00000000E-01   5.00000000E-01  -4.04254775E-03   3.03051930E-12   4.78848227E-03   3.92709601E-02   2.30798664E-02   1.52032134E-03   1.04103136E-12   2.01620306E-07   9.07291377E-06   5.52607531E-01   6.85509041E-05   1.20972184E-02   2.62969147E-10   4.73356996E-01   2.82268429E-02   1.81148610E-08   4.03240612E-04   1.71377260E-06   3.93159597E-05   6.09523522E-03
   4.72500000E+02   5.00000000E-01   5.00000000E-01  -3.94864689E-03   3.62170055E-12   4.79422042E-03   3.84667164E-02   2.40794925E-02   1.52994552E-03   1.04337887E-12   2.01861912E-07   9.08378605E-06   5.53269733E-01   6.86330502E-05   1.21117147E-02   2.75912021E-10   4.73568549E-01   2.82606678E-02   1.81341536E-08   4.03723825E-04   1.71582625E-06   3.93630729E-05   6.40696037E-03
   5.07500000E+02   5.00000000E-01   5.00000000E-01  -3.84727415E-03   4.32259258E-12   4.80028056E-03   3.76479495E-02   2.50817851E-02   1.53938772E-03   1.04123192E-12   2.02117076E-07   9.09526844E-06   5.53969095E-01   6.87198060E-05   1.21270246E-02   2.88923490E-10   4.73836856E-01   2.82963908E-02   1.81546542E-08   4.04234153E-04   1.71799515E-06   3.94128299E-05   6.72560796E-03
   5.42500000E+02   5.00000000E-01   5.00000000E-01  -3.73835849E-03   5.15375694E-12   4.80665451E-03   3.68149141E-02   2.60870217E-02   1.54879743E-03   1.03424519E-12   2.02385453E-07   9.10734539E-06   5.54704671E-01   6.88110541E-05   1.21431272E-02   3.02005470E-10   4.74159461E-01   2.83339635E-02   1.81763313E-08   4.04770906E-04   1.72027635E-06   3.94651634E-05   7.05068287E-03
   5.77500000E+02   5.00000000E-01   5.00000000E-01  -3.62200278E-03   6.13929475E-12   4.81333513E-03   3.59679806E-02   2.70955115E-02   1.55823716E-03   1.02221863E-12   2.02666742E-07   9.12000341E-06   5.55475638E-01   6.89066924E-05   1.21600045E-02   3.15159856E-10   4.74534093E-01   2.83733440E-02   1.81991574E-08   4.05333485E-04   1.72266731E-06   3.95200148E-05   7.38179925E-03
   6.12500000E+02   5.00000000E-01   5.00000000E-01  -3.49849660E-03   7.30748840E-12   4.82031624E-03   3.51076158E-02   2.81075821E-02   1.56771846E-03   1.00508414E-12   2.02960684E-07   9.13323077E-06   5.56281282E-01   6.90066325E-05   1.21776410E-02   3.28388532E-10   4.74958659E-01   2.84144958E-02   1.82231087E-08   4.05921368E-04   1.72516581E-06   3.95773334E-05   7.71863771E-03
   6.47500000E+02   5.00000000E-01   5.00000000E-01  -3.36832174E-03   8.69155987E-12   4.82759249E-03   3.42343710E-02   2.91235705E-02   1.57722466E-03   9.82895742E-13   2.03267052E-07   9.14701735E-06   5.57120987E-01   6.91107978E-05   1.21960231E-02   3.41693378E-10   4.75431231E-01   2.84573874E-02   1.82481646E-08   4.06534105E-04   1.72776994E-06   3.96370752E-05   8.06090953E-03
   6.82500000E+02   5.00000000E-01   5.00000000E-01  -3.23214904E-03   1.03305676E-11   4.83515929E-03   3.33488734E-02   3.01438163E-02   1.58672516E-03   9.55820360E-13   2.03585654E-07   9.16135444E-06   5.57994221E-01   6.92191224E-05   1.22151393E-02   3.55076277E-10   4.75950035E-01   2.85019917E-02   1.82743074E-08   4.07171308E-04   1.73047806E-06   3.96992026E-05   8.40832839E-03
   7.17500000E+02   5.00000000E-01   5.00000000E-01  -3.09082563E-03   1.22704797E-11   4.84301271E-03   3.24518166E-02   3.11686583E-02   1.59618429E-03   9.24127803E-13   2.03916324E-07   9.17623460E-06   5.58900533E-01   6.93315503E-05   1.22349795E-02   3.68539118E-10   4.76513434E-01   2.85482855E-02   1.83015217E-08   4.07832649E-04   1.73328876E-06   3.97636833E-05   8.76058552E-03
   7.52500000E+02   5.00000000E-01   5.00000000E-01  -2.94535275E-03   1.45654381E-11   4.85114943E-03   3.15439482E-02   3.21984330E-02   1.60556578E-03   8.88179897E-13   2.04258923E-07   9.19165155E-06   5.59839539E-01   6.94480339E-05   1.22555354E-02   3.82083805E-10   4.77119921E-01   2.85962494E-02   1.83297946E-08   4.08517847E-04   1.73620085E-06   3.98304900E-05   9.11733457E-03
   7.87500000E+02   5.00000000E-01   5.00000000E-01  -2.79685467E-03   1.72792747E-11   4.85956668E-03   3.06260552E-02   3.32334734E-02   1.61483481E-03   8.48417656E-13   2.04613334E-07   9.20760003E-06   5.60810919E-01   6.95685335E-05   1.22768000E-02   3.95712261E-10   4.77768104E-01   2.86458668E-02   1.83591152E-08   4.09226668E-04   1.73921334E-06   3.98996001E-05   9.47817840E-03
   8.22500000E+02   5.00000000E-01   5.00000000E-01  -2.64654070E-03   2.04873238E-11   4.86826219E-03   2.96989458E-02   3.42741104E-02   1.62395804E-03   8.05347101E-13   2.04979460E-07   9.22407572E-06   5.61814411E-01   6.96930166E-05   1.22987676E-02   4.09426428E-10   4.78456696E-01   2.86971246E-02   1.83894746E-08   4.09958921E-04   1.74232541E-06   3.99709948E-05   9.84266023E-03
   8.57500000E+02   5.00000000E-01   5.00000000E-01  -2.49566259E-03   2.42786304E-11   4.87723412E-03   2.87634302E-02   3.53206733E-02   1.63290273E-03   7.59523668E-13   2.05357226E-07   9.24107518E-06   5.62849804E-01   6.98214569E-05   1.23214336E-02   4.23228274E-10   4.79184509E-01   2.87500117E-02   1.84208653E-08   4.10714452E-04   1.74553642E-06   4.00446591E-05   1.02102519E-02
   8.92500000E+02   5.00000000E-01   5.00000000E-01  -2.34547035E-03   2.87586344E-11   4.88648108E-03   2.78203003E-02   3.63734926E-02   1.64163490E-03   7.11536327E-13   2.05746572E-07   9.25859572E-06   5.63916934E-01   6.99538344E-05   1.23447943E-02   4.37119792E-10   4.79950439E-01   2.88045201E-02   1.84532818E-08   4.11493143E-04   1.74884586E-06   4.01205815E-05   1.05803434E-02
   9.27500000E+02   5.00000000E-01   5.00000000E-01  -2.19716945E-03   3.40525359E-11   4.89600202E-03   2.68703100E-02   3.74329027E-02   1.65011766E-03   6.61991380E-13   2.06147453E-07   9.27663541E-06   5.65015685E-01   7.00901342E-05   1.23688472E-02   4.51103001E-10   4.80753461E-01   2.88606436E-02   1.84867197E-08   4.12294907E-04   1.75225335E-06   4.01987534E-05   1.09522230E-02
   9.62500000E+02   5.00000000E-01   5.00000000E-01  -2.05188236E-03   4.03095319E-11   4.90579628E-03   2.59141563E-02   3.84992468E-02   1.65830932E-03   6.11497157E-13   2.06559843E-07   9.29519295E-06   5.66145976E-01   7.02303467E-05   1.23935906E-02   4.65179949E-10   4.81592617E-01   2.89183781E-02   1.85211760E-08   4.13119686E-04   1.75575867E-06   4.02791694E-05   1.13250520E-02
   9.97500000E+02   5.00000000E-01   5.00000000E-01  -1.91061699E-03   4.77081477E-11   4.91586349E-03   2.49524641E-02   3.95728825E-02   1.66616089E-03   5.60650492E-13   2.06983726E-07   9.31426767E-06   5.67307768E-01   7.03744669E-05   1.24190236E-02   4.79352713E-10   4.82467002E-01   2.89777217E-02   1.85566490E-08   4.13967452E-04   1.75936167E-06   4.03618266E-05   1.16978411E-02
   1.03250000E+03   5.00000000E-01   5.00000000E-01  -1.77424303E-03   5.64631391E-11   4.92620362E-03   2.39857748E-02   4.06541888E-02   1.67361364E-03   5.10024662E-13   2.07419100E-07   9.33385949E-06   5.68501055E-01   7.05224940E-05   1.24451460E-02   4.93623401E-10   4.83375758E-01   2.90386739E-02   1.85931381E-08   4.14838200E-04   1.76306235E-06   4.04467245E-05   1.20694164E-02
   1.06750000E+03   5.00000000E-01   5.00000000E-01  -1.64347685E-03   6.68347668E-11   4.93681690E-03   2.30145364E-02   4.17435761E-02   1.68059788E-03   4.60158677E-13   2.07865975E-07   9.35396886E-06   5.69725864E-01   7.06744314E-05   1.24719585E-02   5.07994151E-10   4.84318052E-01   2.91012363E-02   1.86306439E-08   4.15731949E-04   1.76686078E-06   4.05338651E-05   1.24383585E-02
   1.10250000E+03   5.00000000E-01   5.00000000E-01  -1.51887441E-03   7.91419628E-11   4.94770383E-03   2.20390919E-02   4.28415025E-02   1.68703565E-03   4.11547567E-13   2.08324372E-07   9.37459672E-06   5.70982253E-01   7.08302863E-05   1.24994623E-02   5.22467132E-10   4.85293058E-01   2.91654118E-02   1.86691677E-08   4.16648743E-04   1.77075716E-06   4.06232525E-05   1.28028884E-02
   1.13750000E+03   5.00000000E-01   5.00000000E-01  -1.11080030E-03   3.87570539E-09   4.95886516E-03   2.00427159E-02   4.40242396E-02   2.63085994E-03   1.16105149E-13   2.08794322E-07   9.39574451E-06   5.72270310E-01   7.09900696E-05   1.25276593E-02   5.37044562E-10   4.86016263E-01   2.92312047E-02   1.87087121E-08   4.17588645E-04   1.77475174E-06   4.07148929E-05   2.82259649E-03
   1.17250000E+03   5.00000000E-01   5.00000000E-01  -1.11009200E-03   1.84066760E-09   4.97030189E-03   1.83596535E-02   4.52155332E-02   3.19093263E-03   1.12940574E-13   2.09275869E-07   9.41741410E-06   5.73590148E-01   7.11537954E-05   1.25565521E-02   5.51728607E-10   4.87304953E-01   2.92986210E-02   1.87492804E-08   4.18551738E-04   1.77884489E-06   4.08087944E-05   4.19752900E-03
   1.20750000E+03   5.00000000E-01   5.00000000E-01  -1.05951686E-03   1.40200197E-09   4.98201524E-03   1.70436761E-02   4.64155821E-02   3.38144885E-03   1.01076494E-13   2.09769063E-07   9.43960782E-06   5.74941909E-01   7.13214813E-05   1.25861438E-02   5.66521579E-10   4.88565694E-01   2.93676676E-02   1.87908767E-08   4.19538125E-04   1.78303703E-06   4.09049672E-05   5.20245349E-03
   1.24250000E+03   5.00000000E-01   5.00000000E-01  -9.93346265E-04   1.28414779E-09   4.99400664E-03   1.59517621E-02   4.76246600E-02   3.35280096E-03   8.85256824E-14   2.10273964E-07   9.46232837E-06   5.76325759E-01   7.14931477E-05   1.26164378E-02   5.81425806E-10   4.89817650E-01   2.94383530E-02   1.88335061E-08   4.20547928E-04   1.78732869E-06   4.10034229E-05   5.95465781E-03
   1.27750000E+03   5.00000000E-01   5.00000000E-01  -9.22160661E-04   1.30718881E-09   5.00627774E-03   1.49473820E-02   4.88441943E-02   3.23969764E-03   7.55749582E-14   2.10790642E-07   9.48557888E-06   5.77741887E-01   7.16688182E-05   1.26474385E-02   5.96443647E-10   4.91072395E-01   2.95106866E-02   1.88771744E-08   4.21581284E-04   1.79172046E-06   4.11041751E-05   6.51460852E-03
   1.31250000E+03   5.00000000E-01   5.00000000E-01  -8.52149048E-04   1.41107271E-09   5.01883039E-03   1.39460451E-02   5.00919321E-02   3.10725072E-03   6.23826413E-14   2.11319174E-07   9.50936285E-06   5.79190506E-01   7.18485193E-05   1.26791505E-02   6.11577500E-10   4.92339610E-01   2.95846787E-02   1.89218882E-08   4.22638349E-04   1.79621298E-06   4.12072390E-05   6.96001799E-03
   1.34750000E+03   5.00000000E-01   5.00000000E-01  -7.88438107E-04   1.53212236E-09   5.03166662E-03   1.29248046E-02   5.13833856E-02   2.96106790E-03   5.01926190E-14   2.11859647E-07   9.53368413E-06   5.80671852E-01   7.20322801E-05   1.27115788E-02   6.26829809E-10   4.93628328E-01   2.96603404E-02   1.89676546E-08   4.23719295E-04   1.80080700E-06   4.13126312E-05   7.40570728E-03
   1.38250000E+03   5.00000000E-01   5.00000000E-01  -7.16458591E-04   2.09377978E-09   5.04478867E-03   1.18361967E-02   5.27172318E-02   2.86134133E-03   3.61082194E-14   2.12412155E-07   9.55854696E-06   5.82186182E-01   7.22201326E-05   1.27447293E-02   6.42203065E-10   4.94901441E-01   2.97376828E-02   1.90144817E-08   4.24824309E-04   1.80550331E-06   4.14203701E-05   7.23457651E-03
   1.41750000E+03   5.00000000E-01   5.00000000E-01  -6.70733527E-04   2.20539171E-09   5.05819894E-03   1.07500018E-02   5.40910722E-02   2.72905179E-03   2.74142814E-14   2.12976798E-07   9.58395589E-06   5.83733774E-01   7.24121112E-05   1.27786079E-02   6.57699805E-10   4.96217042E-01   2.98167153E-02   1.90623781E-08   4.25953595E-04   1.81030278E-06   4.15304755E-05   7.72970960E-03
   1.45250000E+03   5.00000000E-01   5.00000000E-01  -6.19770579E-04   2.79954683E-09   5.07190003E-03   9.60696984E-03   5.55038361E-02   2.63713086E-03   1.85391046E-14   2.13553685E-07   9.60991585E-06   5.85314927E-01   7.26082531E-05   1.28132211E-02   6.73322622E-10   4.97518716E-01   2.98974431E-02   1.91113531E-08   4.27107371E-04   1.81520633E-06   4.16429687E-05   7.73684147E-03
   1.48750000E+03   5.00000000E-01   5.00000000E-01  -5.71671720E-04   3.99477985E-09   5.08589470E-03   8.40485370E-03   5.69553152E-02   2.58869811E-03   1.12649767E-14   2.14142935E-07   9.63643206E-06   5.86929961E-01   7.28085978E-05   1.28485761E-02   6.89074159E-10   4.98813533E-01   2.99798578E-02   1.91614169E-08   4.28285869E-04   1.82021495E-06   4.17578723E-05   7.40477232E-03
   1.52250000E+03   5.00000000E-01   5.00000000E-01  -5.27229588E-04   6.54806218E-09   5.10018590E-03   7.13964246E-03   5.84456374E-02   2.58847010E-03   5.93553215E-15   2.14744669E-07   9.66351012E-06   5.88579215E-01   7.30131876E-05   1.28846802E-02   7.04957118E-10   5.00100860E-01   3.00639160E-02   1.92125799E-08   4.29489339E-04   1.82532969E-06   4.18752105E-05   6.73752176E-03
   1.55750000E+03   5.00000000E-01   5.00000000E-01  -4.88312905E-04   1.24987659E-08   5.11477673E-03   5.81687240E-03   5.99747811E-02   2.62753483E-03   2.58324887E-15   2.15359020E-07   9.69115591E-06   5.90263048E-01   7.32220669E-05   1.29215412E-02   7.20974260E-10   5.01389426E-01   3.01494776E-02   1.92648535E-08   4.30718040E-04   1.83055167E-06   4.19950089E-05   5.82508389E-03
   1.59250000E+03   5.00000000E-01   5.00000000E-01  -4.63318761E-04   2.33774285E-08   5.12967049E-03   4.51890360E-03   6.15423524E-02   2.60578891E-03   9.52940227E-16   2.15986126E-07   9.71937566E-06   5.91981839E-01   7.34352827E-05   1.29591675E-02   7.37128407E-10   5.02723437E-01   3.02361261E-02   1.93182496E-08   4.31972251E-04   1.83588207E-06   4.21172945E-05   5.14919379E-03
   1.62750000E+03   5.00000000E-01   5.00000000E-01  -4.55018453E-04   3.52165476E-08   5.14487062E-03   3.37261521E-03   6.31472059E-02   2.39377216E-03   3.17386742E-16   2.16626131E-07   9.74817591E-06   5.93735987E-01   7.36528846E-05   1.29975679E-02   7.53422447E-10   5.04111028E-01   3.03226165E-02   1.93727807E-08   4.33252263E-04   1.84132212E-06   4.22420956E-05   5.11750306E-03
   1.66250000E+03   5.00000000E-01   5.00000000E-01  -4.52722546E-04   4.67649012E-08   5.16038075E-03   2.41264547E-03   6.47853173E-02   2.00332591E-03   8.87986125E-17   2.17279189E-07   9.77756352E-06   5.95525911E-01   7.38749244E-05   1.30367514E-02   7.69859339E-10   5.05449277E-01   3.04050821E-02   1.94284601E-08   4.34558379E-04   1.84687311E-06   4.23694419E-05   5.72737507E-03
   1.69750000E+03   5.00000000E-01   5.00000000E-01  -4.75244917E-04   6.29591746E-08   5.17620467E-03   1.62448978E-03   6.64439914E-02   1.51485132E-03   2.12265311E-17   2.17945460E-07   9.80754569E-06   5.97352046E-01   7.41014563E-05   1.30767276E-02   7.86442104E-10   5.06625782E-01   3.04709083E-02   1.94853015E-08   4.35890919E-04   1.85253641E-06   4.24993646E-05   6.13042519E-03
   1.73250000E+03   5.00000000E-01   5.00000000E-01  -5.38999739E-04   9.86050288E-08   5.19234634E-03   9.57138829E-04   6.80767048E-02   1.00788304E-03   3.24374887E-18   2.18625109E-07   9.83812991E-06   5.99214851E-01   7.43325371E-05   1.31175065E-02   8.03173831E-10   5.07606924E-01   3.04768802E-02   1.95433194E-08   4.37250218E-04   1.85831343E-06   4.26318963E-05   6.05642447E-03
   1.76750000E+03   5.00000000E-01   5.00000000E-01  -6.78608793E-04   2.32197557E-07   5.20880989E-03   4.31994015E-04   6.94996803E-02   5.61067914E-04   1.82825360E-19   2.19318311E-07   9.86932401E-06   6.01114803E-01   7.45682258E-05   1.31590987E-02   8.20057681E-10   5.08290430E-01   3.02707058E-02   1.96025288E-08   4.38636623E-04   1.86420565E-06   4.27670707E-05   5.27190857E-03
   1.80250000E+03   5.00000000E-01   5.00000000E-01  -1.16388198E-03   4.56874017E-07   5.22559963E-03   1.15260293E-04   7.01425521E-02   1.50298718E-04   2.36487147E-21   2.20025248E-07   9.90113614E-06   6.03052397E-01   7.48085842E-05   1.32015149E-02   8.37096896E-10   5.08976361E-01   2.93389886E-02   1.96629454E-08   4.40050495E-04   1.87021461E-06   4.29049233E-05   4.47038389E-03
   1.83750000E+03   5.00000000E-01   5.00000000E-01  -2.52347223E-03   6.94757329E-07   5.24272003E-03   1.44603706E-05   6.86664774E-02   1.31213418E-05   3.50883078E-24   2.20746107E-07   9.93357480E-06   6.05028151E-01   7.50536763E-05   1.32447664E-02   8.54294801E-10   5.09791946E-01   2.63868738E-02   1.97245856E-08   4.41492213E-04   1.87634191E-06   4.30454908E-05   4.01721374E-03
   1.87250000E+03   5.00000000E-01   5.00000000E-01  -3.64168265E-03   1.24003357E-06   5.26017575E-03   3.14567094E-06   6.36845892E-02   2.55845543E-06   3.18026963E-26   2.21481084E-07   9.96664878E-06   6.07042601E-01   7.53035686E-05   1.32888650E-02   8.71654779E-10   5.10858819E-01   2.03729128E-02   1.97874664E-08   4.42962168E-04   1.88258921E-06   4.31888114E-05   3.33222591E-03
   1.90750000E+03   5.00000000E-01   5.00000000E-01  -4.20567622E-03   2.13411693E-06   5.27797160E-03   1.33111383E-06   5.71863479E-02   1.16204366E-06   2.67803656E-27   2.22230383E-07   1.00003672E-05   6.09096304E-01   7.55583303E-05   1.33338230E-02   8.89180297E-10   5.12291024E-01   1.33023619E-02   1.98516054E-08   4.44460766E-04   1.88895826E-06   4.33349247E-05   2.62643073E-03
   1.94250000E+03   5.00000000E-01   5.00000000E-01  -4.55044696E-03   3.13477193E-06   5.29611260E-03   7.68438085E-07   5.21083542E-02   7.25450481E-07   6.29106520E-28   2.22994215E-07   1.00347397E-05   6.11189839E-01   7.58180331E-05   1.33796529E-02   9.06874913E-10   5.14003464E-01   7.88467628E-03   1.99170210E-08   4.45988430E-04   1.89545083E-06   4.34838719E-05   2.14949021E-03
   1.97750000E+03   5.00000000E-01   5.00000000E-01  -4.78714523E-03   4.14121374E-06   5.31460395E-03   5.27505292E-07   4.90579859E-02   5.35926237E-07   2.47066116E-28   2.23772798E-07   1.00697759E-05   6.13323805E-01   7.60827513E-05   1.34263679E-02   9.24742273E-10   5.15900822E-01   4.62191240E-03   1.99837321E-08   4.47545596E-04   1.90206878E-06   4.36356956E-05   1.84272830E-03
   2.01250000E+03   5.00000000E-01   5.00000000E-01  -4.95745048E-03   5.10490622E-06   5.33345102E-03   4.05172485E-07   4.74361816E-02   4.40265240E-07   1.32921758E-28   2.24566359E-07   1.01054861E-05   6.15498822E-01   7.63525619E-05   1.34739815E-02   9.42786114E-10   5.17925889E-01   2.86483266E-03   2.00517584E-08   4.49132717E-04   1.90881405E-06   4.37904399E-05   1.64008681E-03
   2.04750000E+03   5.00000000E-01   5.00000000E-01  -5.08281895E-03   6.01455213E-06   5.35265937E-03   3.34949261E-07   4.66112383E-02   3.87089811E-07   8.76873150E-29   2.25375131E-07   1.01418809E-05   6.17715533E-01   7.66275447E-05   1.35225079E-02   9.61010269E-10   5.20046369E-01   1.95440780E-03   2.01211204E-08   4.50750263E-04   1.91568862E-06   4.39481506E-05   1.50109807E-03
   2.08250000E+03   5.00000000E-01   5.00000000E-01  -5.17577382E-03   6.87849611E-06   5.37223478E-03   2.90513500E-07   4.61877149E-02   3.55538375E-07   6.61674043E-29   2.26199359E-07   1.01789712E-05   6.19974603E-01   7.69077821E-05   1.35719615E-02   9.79418666E-10   5.22243723E-01   1.47930618E-03   2.01918390E-08   4.52398718E-04   1.92269455E-06   4.41088750E-05   1.40211542E-03
   2.11750000E+03   5.00000000E-01   5.00000000E-01  -5.24415266E-03   7.71136366E-06   5.39218320E-03   2.60089860E-07   4.59561260E-02   3.36067375E-07   5.46344374E-29   2.27039292E-07   1.02167682E-05   6.22276720E-01   7.71933594E-05   1.36223575E-02   9.98015335E-10   5.24506999E-01   1.22031168E-03   2.02639363E-08   4.54078585E-04   1.92983399E-06   4.42726620E-05   1.32904352E-03
   2.15250000E+03   5.00000000E-01   5.00000000E-01  -5.29317109E-03   8.52813432E-06   5.41251079E-03   2.37864590E-07   4.58131538E-02   3.23867467E-07   4.79676720E-29   2.27895191E-07   1.02552836E-05   6.24622595E-01   7.74843649E-05   1.36737115E-02   1.01680441E-09   5.26829545E-01   1.06783645E-03   2.03374347E-08   4.55790382E-04   1.93710912E-06   4.44395622E-05   1.27322190E-03
   2.18750000E+03   5.00000000E-01   5.00000000E-01  -5.32649490E-03   9.34238899E-06   5.43322392E-03   2.20718681E-07   4.57096725E-02   3.16303507E-07   4.39382519E-29   2.28767323E-07   1.02945295E-05   6.27012963E-01   7.77808899E-05   1.37260394E-02   1.03579013E-09   5.29207237E-01   9.68515043E-04   2.04123576E-08   4.57534646E-04   1.94452225E-06   4.46096280E-05   1.22915433E-03
   2.22250000E+03   5.00000000E-01   5.00000000E-01  -5.34682357E-03   1.01661607E-05   5.45432919E-03   2.06859374E-07   4.56229114E-02   3.11822878E-07   4.14515217E-29   2.29655966E-07   1.03345185E-05   6.29448585E-01   7.80830284E-05   1.37793580E-02   1.05497685E-09   5.31637500E-01   8.96582975E-04   2.04887291E-08   4.59311932E-04   1.95207571E-06   4.47829134E-05   1.19324193E-03
   2.25750000E+03   5.00000000E-01   5.00000000E-01  -5.35622059E-03   1.10102138E-05   5.47583339E-03   1.95197838E-07   4.55426097E-02   3.09452483E-07   3.99148020E-29   2.30561406E-07   1.03752633E-05   6.31930244E-01   7.83908780E-05   1.38336844E-02   1.07436904E-09   5.34118754E-01   8.39586729E-04   2.05665743E-08   4.61122812E-04   1.95977195E-06   4.49594741E-05   1.16306481E-03
   2.29250000E+03   5.00000000E-01   5.00000000E-01  -5.35630831E-03   1.18843681E-05   5.49774355E-03   1.85044571E-07   4.54643412E-02   3.08550689E-07   3.89805160E-29   2.31483939E-07   1.04167773E-05   6.34458753E-01   7.87045392E-05   1.38890363E-02   1.09397128E-09   5.36650079E-01   7.91446697E-04   2.06459188E-08   4.62967878E-04   1.96761348E-06   4.51393681E-05   1.13696270E-03
   2.32750000E+03   5.00000000E-01   5.00000000E-01  -5.34839193E-03   1.27978062E-05   5.52006693E-03   1.75949706E-07   4.53863475E-02   3.08677029E-07   3.84310900E-29   2.32423871E-07   1.04590742E-05   6.37034948E-01   7.90241160E-05   1.39454322E-02   1.11378830E-09   5.39231017E-01   7.49125160E-04   2.07267894E-08   4.64847741E-04   1.97560290E-06   4.53226548E-05   1.11377791E-03
   2.36250000E+03   5.00000000E-01   5.00000000E-01  -5.33354430E-03   1.37593378E-05   5.54281102E-03   1.67613892E-07   4.53080645E-02   3.09519465E-07   3.81230406E-29   2.33381517E-07   1.05021683E-05   6.39659696E-01   7.93497157E-05   1.40028910E-02   1.13382494E-09   5.41861431E-01   7.11042999E-04   2.08092135E-08   4.66763033E-04   1.98374289E-06   4.55093958E-05   1.09269301E-03
   2.39750000E+03   5.00000000E-01   5.00000000E-01  -5.31266554E-03   1.47776085E-05   5.56598357E-03   1.59835865E-07   4.52294571E-02   3.10851678E-07   3.79579631E-29   2.34357203E-07   1.05460741E-05   6.42333889E-01   7.96814490E-05   1.40614322E-02   1.15408617E-09   5.44541418E-01   6.76339346E-04   2.08932195E-08   4.68714406E-04   1.99203623E-06   4.56996546E-05   1.07312643E-03
   2.43250000E+03   5.00000000E-01   5.00000000E-01  -5.28652537E-03   1.58612736E-05   5.58959257E-03   1.52480115E-07   4.51507129E-02   3.12506867E-07   3.78666131E-29   2.35351266E-07   1.05908070E-05   6.45058450E-01   8.00194305E-05   1.41210760E-02   1.17457711E-09   5.47271249E-01   6.44513173E-04   2.09788367E-08   4.70702532E-04   2.00048576E-06   4.58934969E-05   1.05466357E-03
   2.46750000E+03   5.00000000E-01   5.00000000E-01  -5.25579363E-03   1.70191506E-05   5.61364627E-03   1.45456092E-07   4.50720909E-02   3.14360990E-07   3.77997010E-29   2.36364054E-07   1.06363824E-05   6.47834331E-01   8.03637782E-05   1.41818432E-02   1.19530302E-09   5.50051324E-01   6.15236423E-04   2.10660956E-08   4.72728107E-04   2.00909446E-06   4.60909905E-05   1.03700966E-03
   2.50250000E+03   5.00000000E-01   5.00000000E-01  -5.22106219E-03   1.82603536E-05   5.63815320E-03   1.38704409E-07   4.49938601E-02   3.16321763E-07   3.77223065E-29   2.37395924E-07   1.06828166E-05   6.50662515E-01   8.07146142E-05   1.42437555E-02   1.21626930E-09   5.52882147E-01   5.88266621E-04   2.11550273E-08   4.74791848E-04   2.01786536E-06   4.62922052E-05   1.01995706E-03
   2.53750000E+03   5.00000000E-01   5.00000000E-01  -5.18286088E-03   1.95944103E-05   5.66312215E-03   1.32187422E-07   4.49162784E-02   3.18321153E-07   3.76102952E-29   2.38447248E-07   1.07301262E-05   6.53544019E-01   8.10720645E-05   1.43068349E-02   1.23748152E-09   5.55764308E-01   5.63408396E-04   2.12456642E-08   4.76894497E-04   2.02680161E-06   4.64972134E-05   1.00336210E-03
   2.57250000E+03   5.00000000E-01   5.00000000E-01  -5.14166869E-03   2.10313336E-05   5.68856221E-03   1.25882583E-07   4.48395803E-02   3.20309880E-07   3.74478480E-29   2.39518409E-07   1.07783284E-05   6.56479891E-01   8.14362590E-05   1.43711045E-02   1.25894541E-09   5.58698468E-01   5.40489928E-04   2.13380397E-08   4.79036818E-04   2.03590648E-06   4.67060897E-05   9.87129909E-04
   2.60750000E+03   5.00000000E-01   5.00000000E-01  -5.09792027E-03   2.25816868E-05   5.71448276E-03   1.19777803E-07   4.47639754E-02   3.22253732E-07   3.72257530E-29   2.40609800E-07   1.08274410E-05   6.59471212E-01   8.18073321E-05   1.44365880E-02   1.28066686E-09   5.61685356E-01   5.19354738E-04   2.14321881E-08   4.81219601E-04   2.04518330E-06   4.69189111E-05   9.71203026E-04