 TITLE = "Total Concentrations" 
VARIABLES = "X"          "Y"              "Z"            "H+"             "Al+++"          "CO2(aq)"        "Mg++"           "Ca++"           "Fe++"           "Fe+++"          "Ba++"           "Sr++"           "Li+"            "Rb+"            "Mn++"           "Zn++"           "Cu++"           "Cu+"            "Cl-"            "F-"             "K+"             "HS-"            "Na+"            "SO4--"          "O2(aq)"         "B(OH)3(aq)"     "HPO4--"         "NO3-"           "H4SiO4(aq)"     "Ti(OH)4(aq)"   
 ZONE I=         200 , J=           1 , K=           1  F=POINT
   8.75000000E+00   5.00000000E-01   5.00000000E-01  -4.68019775E-03   7.70334156E-13   4.74997155E-03   5.07973897E-02   1.05949656E-02   5.29358059E-05   1.73002997E-22   1.18984898E-07   8.99994824E-06   2.45998526E-05   1.39999161E-06   5.61000301E-06   3.88057163E-07   1.42214624E-09   1.21809813E-09   5.48189429E-01   6.79996184E-05   1.19999281E-02   1.30805064E-25   4.74032780E-01   2.79997513E-02   1.79997015E-08   3.99997604E-04   1.69998982E-06   3.89997664E-05   4.11267601E-04   2.09624162E-09
   2.62500000E+01   5.00000000E-01   5.00000000E-01  -4.60455141E-03   2.48700006E-12   4.74999810E-03   5.04908909E-02   1.07901026E-02   1.05831094E-04   6.86185925E-22   8.91159214E-08   9.00000071E-06   2.45999902E-05   1.39999944E-06   1.12142911E-05   7.00134444E-07   1.42430895E-09   1.21621021E-09   5.48192494E-01   6.80000246E-05   1.19999952E-02   1.47436431E-26   4.74065546E-01   2.79998780E-02   1.79996115E-08   3.99999840E-04   1.69999932E-06   3.89999844E-05   6.28047088E-04   2.10252422E-09
   4.37500000E+01   5.00000000E-01   5.00000000E-01  -4.55563704E-03   3.95406844E-12   4.75018787E-03   5.02032366E-02   1.09856604E-02   1.58701836E-04   1.37657667E-21   7.91788823E-08   9.00036241E-06   2.46009730E-05   1.40005537E-06   1.68207275E-05   1.01225069E-06   1.42652070E-09   1.21436382E-09   5.48214394E-01   6.80027676E-05   1.20004746E-02   3.30219533E-26   4.74106907E-01   2.80009866E-02   1.80001398E-08   4.00015821E-04   1.70006724E-06   3.90015425E-05   8.31495397E-04   2.10799473E-09
   6.12500000E+01   5.00000000E-01   5.00000000E-01  -4.51758810E-03   5.22101835E-12   4.75053372E-03   4.99282943E-02   1.11816392E-02   2.11543268E-04   2.17263816E-21   7.76359669E-08   9.00101986E-06   2.46027641E-05   1.40015731E-06   2.24298499E-05   1.32443256E-06   1.42877956E-09   1.21255695E-09   5.48254309E-01   6.80077454E-05   1.20013483E-02   6.70192145E-26   4.74152382E-01   2.80030238E-02   1.80012596E-08   4.00044945E-04   1.70019102E-06   3.90043821E-05   1.00214965E-03   2.11257321E-09
   7.87500000E+01   5.00000000E-01   5.00000000E-01  -4.48395889E-03   6.54582049E-12   4.75102913E-03   4.96630205E-02   1.13780465E-02   2.64354945E-04   3.08364670E-21   7.98926769E-08   9.00196068E-06   2.46053298E-05   1.40030332E-06   2.80421661E-05   1.63670745E-06   1.43108379E-09   1.21078776E-09   5.48311483E-01   6.80148645E-05   1.20025999E-02   1.29728195E-25   4.74200784E-01   2.80059463E-02   1.80029461E-08   4.00086663E-04   1.70036832E-06   3.90084497E-05   1.13538956E-03   2.11631923E-09
   9.62500000E+01   5.00000000E-01   5.00000000E-01  -4.45320166E-03   7.94055914E-12   4.75166807E-03   4.94055680E-02   1.15748907E-02   3.17135481E-04   4.09167479E-21   8.40175677E-08   9.00317345E-06   2.46086388E-05   1.40049164E-06   3.36581572E-05   1.94910140E-06   1.43343176E-09   1.20905454E-09   5.48385222E-01   6.80240387E-05   1.20042140E-02   2.43096816E-25   4.74253492E-01   2.80097168E-02   1.80051764E-08   4.00140469E-04   1.70059699E-06   3.90136957E-05   1.23705957E-03   2.11930364E-09
   1.13750000E+02   5.00000000E-01   5.00000000E-01  -4.42452667E-03   9.35504655E-12   4.75244499E-03   4.91539738E-02   1.17721790E-02   3.69881072E-04   5.17770557E-21   8.91616079E-08   9.00464767E-06   2.46126625E-05   1.40072063E-06   3.92782800E-05   2.26163912E-06   1.43582201E-09   1.20735570E-09   5.48474886E-01   6.80351885E-05   1.20061768E-02   4.44434227E-25   4.74312944E-01   2.80143017E-02   1.80079294E-08   4.00205894E-04   1.70087505E-06   3.90200747E-05   1.31665485E-03   2.12159596E-09
   1.31250000E+02   5.00000000E-01   5.00000000E-01  -4.39702937E-03   1.07647994E-11   4.75335479E-03   4.89063496E-02   1.19699172E-02   4.22586192E-04   6.34343481E-21   9.49364877E-08   9.00637365E-06   2.46173743E-05   1.40098878E-06   4.49029696E-05   2.57434420E-06   1.43825316E-09   1.20568978E-09   5.48579885E-01   6.80482407E-05   1.20084752E-02   7.97599917E-25   4.74381372E-01   2.80196704E-02   1.80111859E-08   4.00282508E-04   1.70120066E-06   3.90275446E-05   1.38280802E-03   2.12326872E-09
   1.48750000E+02   5.00000000E-01   5.00000000E-01  -4.36987520E-03   1.21689395E-11   4.75439272E-03   4.86612077E-02   1.21681096E-02   4.75244289E-04   7.60623013E-21   1.01157953E-07   9.00834243E-06   2.46227497E-05   1.40129470E-06   5.05326411E-05   2.88723929E-06   1.44072397E-09   1.20405543E-09   5.48699672E-01   6.80631276E-05   1.20110974E-02   1.41153043E-24   4.74460332E-01   2.80257950E-02   1.80149278E-08   4.00369914E-04   1.70157213E-06   3.90360666E-05   1.44182479E-03   2.12439883E-09
   1.66250000E+02   5.00000000E-01   5.00000000E-01  -4.34240900E-03   1.35780014E-11   4.75555443E-03   4.84175049E-02   1.23667598E-02   5.27848212E-04   8.99103222E-21   1.07735388E-07   9.01054572E-06   2.46287661E-05   1.40163710E-06   5.61676920E-05   3.20034620E-06   1.44323328E-09   1.20245139E-09   5.48833744E-01   6.80797866E-05   1.20140322E-02   2.47103104E-24   4.74550716E-01   2.80326495E-02   1.80191386E-08   4.00467742E-04   1.70198790E-06   3.90456048E-05   1.49779589E-03   2.12506707E-09
   1.83750000E+02   5.00000000E-01   5.00000000E-01  -4.31414887E-03   1.50070848E-11   4.75683587E-03   4.81745495E-02   1.25658712E-02   5.80390473E-04   1.05259744E-20   1.14622538E-07   9.01297586E-06   2.46354026E-05   1.40201478E-06   6.18085033E-05   3.51368594E-06   1.44578004E-09   1.20087648E-09   5.48981633E-01   6.80981597E-05   1.20172695E-02   4.28791488E-24   4.74652928E-01   2.80402100E-02   1.80238029E-08   4.00575652E-04   1.70244652E-06   3.90561261E-05   1.55317764E-03   2.12535701E-09
   2.01250000E+02   5.00000000E-01   5.00000000E-01  -4.28474727E-03   1.64724869E-11   4.75823327E-03   4.79318927E-02   1.27654465E-02   6.32863426E-04   1.22406856E-20   1.21794760E-07   9.01562574E-06   2.46426397E-05   1.40242665E-06   6.74554412E-05   3.82727875E-06   1.44836326E-09   1.19932963E-09   5.49142906E-01   6.81181932E-05   1.20207998E-02   7.38554931E-24   4.74767060E-01   2.80484545E-02   1.80289065E-08   4.00693328E-04   1.70294664E-06   3.90675995E-05   1.60935829E-03   2.12535386E-09
   2.18750000E+02   5.00000000E-01   5.00000000E-01  -4.25395286E-03   1.79900936E-11   4.75974317E-03   4.76892427E-02   1.29654888E-02   6.85259386E-04   1.41659067E-20   1.29238189E-07   9.01848876E-06   2.46504593E-05   1.40287167E-06   7.31088588E-05   4.14114423E-06   1.45098203E-09   1.19780981E-09   5.49317162E-01   6.81398373E-05   1.20246143E-02   1.26379406E-23   4.74893017E-01   2.80573623E-02   1.80344362E-08   4.00820477E-04   1.70348703E-06   3.90799965E-05   1.66707595E-03   2.12514343E-09
   2.36250000E+02   5.00000000E-01   5.00000000E-01  -4.22158112E-03   1.95746919E-11   4.76136232E-03   4.74464060E-02   1.31660007E-02   7.37570703E-04   1.63336483E-20   1.36944431E-07   9.02155880E-06   2.46588449E-05   1.40334889E-06   7.87690966E-05   4.45530130E-06   1.45363554E-09   1.19631608E-09   5.49504027E-01   6.81630456E-05   1.20287047E-02   2.14974135E-23   4.75030609E-01   2.80669144E-02   1.80403797E-08   4.00956827E-04   1.70406651E-06   3.90932906E-05   1.72669230E-03   2.12481112E-09
   2.53750000E+02   5.00000000E-01   5.00000000E-01  -4.18749388E-03   2.12397462E-11   4.76308773E-03   4.72032495E-02   1.33669853E-02   7.89789814E-04   1.87775173E-20   1.44907884E-07   9.02483016E-06   2.46677806E-05   1.40385744E-06   8.44364843E-05   4.76976832E-06   1.45632300E-09   1.19484756E-09   5.49703154E-01   6.81877753E-05   1.20330637E-02   3.63655072E-23   4.75179598E-01   2.80770931E-02   1.80467257E-08   4.01102124E-04   1.70468403E-06   3.91074571E-05   1.78836085E-03   2.12444117E-09
   2.71250000E+02   5.00000000E-01   5.00000000E-01  -4.15158572E-03   2.29973941E-11   4.76491659E-03   4.69596776E-02   1.35684456E-02   8.41909258E-04   2.15330592E-20   1.53124368E-07   9.02829756E-06   2.46772523E-05   1.40439647E-06   9.01113413E-05   5.08456307E-06   1.45904371E-09   1.19340341E-09   5.49914222E-01   6.82139862E-05   1.20376840E-02   6.11942688E-23   4.75339729E-01   2.80878820E-02   1.80534635E-08   4.01256134E-04   1.70533857E-06   3.91224731E-05   1.85212661E-03   2.12411587E-09
   2.88750000E+02   5.00000000E-01   5.00000000E-01  -4.11377517E-03   2.48585356E-11   4.76684632E-03   4.67156182E-02   1.37703848E-02   8.93921669E-04   2.46380630E-20   1.61590398E-07   9.03195606E-06   2.46872462E-05   1.40496523E-06   9.57939777E-05   5.39970283E-06   1.46179700E-09   1.19198288E-09   5.50136930E-01   6.82416411E-05   1.20425590E-02   1.02456434E-22   4.75510749E-01   2.80992656E-02   1.80605833E-08   4.01418638E-04   1.70602921E-06   3.91383172E-05   1.91798348E-03   2.12391502E-09
   3.06250000E+02   5.00000000E-01   5.00000000E-01  -4.07399911E-03   2.68329572E-11   4.76887449E-03   4.64710144E-02   1.39728065E-02   9.45819760E-04   2.81328200E-20   1.70302793E-07   9.03580107E-06   2.46977500E-05   1.40556301E-06   1.01484696E-04   5.71520442E-06   1.46458228E-09   1.19058522E-09   5.50370998E-01   6.82707054E-05   1.20476828E-02   1.70703463E-22   4.75692412E-01   2.81112297E-02   1.80680758E-08   4.01589430E-04   1.70675508E-06   3.91549695E-05   1.98590634E-03   2.12391540E-09
   3.23750000E+02   5.00000000E-01   5.00000000E-01  -4.03220921E-03   2.89294735E-11   4.77099883E-03   4.62258196E-02   1.41757145E-02   9.97596289E-04   3.20603512E-20   1.79258471E-07   9.03982833E-06   2.47087519E-05   1.40618913E-06   1.07183789E-04   6.03108423E-06   1.46739898E-09   1.18920976E-09   5.50616167E-01   6.83011467E-05   1.20530496E-02   2.83056089E-22   4.75884489E-01   2.81237611E-02   1.80759326E-08   4.01768323E-04   1.70751537E-06   3.91724115E-05   2.05586817E-03   2.12419041E-09
   3.41250000E+02   5.00000000E-01   5.00000000E-01  -3.98836969E-03   3.11560937E-11   4.77321726E-03   4.59799951E-02   1.43791127E-02   1.04924402E-03   3.64666259E-20   1.88454333E-07   9.04403384E-06   2.47202410E-05   1.40684298E-06   1.12891545E-04   6.34735823E-06   1.47024659E-09   1.18785587E-09   5.50872193E-01   6.83329350E-05   1.20586540E-02   4.67167498E-22   4.76086765E-01   2.81368472E-02   1.80841456E-08   4.01955138E-04   1.70830933E-06   3.91906259E-05   2.12784841E-03   2.12480976E-09
   3.58750000E+02   5.00000000E-01   5.00000000E-01  -3.94245564E-03   3.35202254E-11   4.77552780E-03   4.57335082E-02   1.45830057E-02   1.10075568E-03   4.14008020E-20   1.97887203E-07   9.04841389E-06   2.47322071E-05   1.40752398E-06   1.18608244E-04   6.66404203E-06   1.47312462E-09   1.18652293E-09   5.51138850E-01   6.83660420E-05   1.20644912E-02   7.67502039E-22   4.76299041E-01   2.81504766E-02   1.80927075E-08   4.02149709E-04   1.70913626E-06   3.92095967E-05   2.20183609E-03   2.12583926E-09
   3.76250000E+02   5.00000000E-01   5.00000000E-01  -3.89445197E-03   3.60289155E-11   4.77792862E-03   4.54863320E-02   1.47873979E-02   1.15212395E-03   4.69155069E-20   2.07553797E-07   9.05296501E-06   2.47446409E-05   1.40823159E-06   1.24334162E-04   6.98115093E-06   1.47603264E-09   1.18521040E-09   5.51415927E-01   6.84004417E-05   1.20705564E-02   1.25523953E-21   4.76521132E-01   2.81646383E-02   1.81016111E-08   4.02351884E-04   1.70999551E-06   3.92293087E-05   2.27782992E-03   2.12734066E-09
   3.93750000E+02   5.00000000E-01   5.00000000E-01  -3.84435260E-03   3.86890999E-11   4.78041802E-03   4.52384445E-02   1.49922943E-02   1.20334144E-03   5.30671541E-20   2.17450707E-07   9.05768396E-06   2.47575333E-05   1.40896531E-06   1.30069568E-04   7.29869987E-06   1.47897024E-09   1.18391774E-09   5.51703226E-01   6.84361095E-05   1.20768454E-02   2.04383281E-21   4.76752867E-01   2.81793225E-02   1.81108501E-08   4.02561517E-04   1.71088645E-06   3.92497480E-05   2.35583693E-03   2.12937161E-09
   4.11250000E+02   5.00000000E-01   5.00000000E-01  -3.79216024E-03   4.15078100E-11   4.78299440E-03   4.49898291E-02   1.51977000E-02   1.25440067E-03   5.99162643E-20   2.27574394E-07   9.06256771E-06   2.47708762E-05   1.40972466E-06   1.35814727E-04   7.61670356E-06   1.48193705E-09   1.18264444E-09   5.52000563E-01   6.84730226E-05   1.20833542E-02   3.31334398E-21   4.76994088E-01   2.81945196E-02   1.81204185E-08   4.02778476E-04   1.71180852E-06   3.92709014E-05   2.43587080E-03   2.13198558E-09
   4.28750000E+02   5.00000000E-01   5.00000000E-01  -3.73788669E-03   4.44922799E-11   4.78565626E-03   4.47404749E-02   1.54036202E-02   1.30529411E-03   6.75277364E-20   2.37921190E-07   9.06761345E-06   2.47846619E-05   1.41050921E-06   1.41569900E-04   7.93517641E-06   1.48493273E-09   1.18139004E-09   5.52307766E-01   6.85111596E-05   1.20900789E-02   5.34835579E-21   4.77244646E-01   2.82102208E-02   1.81303104E-08   4.03002633E-04   1.71276119E-06   3.92927567E-05   2.51795046E-03   2.13523192E-09
   4.46250000E+02   5.00000000E-01   5.00000000E-01  -3.68155358E-03   4.76499365E-11   4.78840223E-03   4.44903765E-02   1.56100606E-02   1.35601417E-03   7.59710311E-20   2.48487298E-07   9.07281853E-06   2.47988831E-05   1.41131855E-06   1.47335344E-04   8.25413262E-06   1.48795695E-09   1.18015409E-09   5.52624675E-01   6.85505007E-05   1.20970161E-02   8.59678901E-21   4.77504403E-01   2.82264180E-02   1.81405208E-08   4.03233872E-04   1.71374396E-06   3.93153025E-05   2.60209967E-03   2.13915590E-09
   4.63750000E+02   5.00000000E-01   5.00000000E-01  -3.62319333E-03   5.09883026E-11   4.79123099E-03   4.42395354E-02   1.58170267E-02   1.40655318E-03   8.53202710E-20   2.59268798E-07   9.07818049E-06   2.48135331E-05   1.41215229E-06   1.53111311E-04   8.57358616E-06   1.49100943E-09   1.17893617E-09   5.52951140E-01   6.85910272E-05   1.21041624E-02   1.37607842E-20   4.77773232E-01   2.82431035E-02   1.81510446E-08   4.03472084E-04   1.71475636E-06   3.93385282E-05   2.68834703E-03   2.14379877E-09
   4.81250000E+02   5.00000000E-01   5.00000000E-01  -3.56284991E-03   5.45148892E-11   4.79414134E-03   4.39879596E-02   1.60245244E-02   1.45690343E-03   9.56543098E-20   2.70261651E-07   9.08369705E-06   2.48286057E-05   1.41301008E-06   1.58898052E-04   8.89355082E-06   1.49408990E-09   1.17773589E-09   5.53287020E-01   6.86327217E-05   1.21115149E-02   2.19365681E-20   4.78051011E-01   2.82602701E-02   1.81618772E-08   4.03717166E-04   1.71579795E-06   3.93624237E-05   2.77672640E-03   2.14919790E-09
   4.98750000E+02   5.00000000E-01   5.00000000E-01  -3.50057916E-03   5.82371560E-11   4.79713214E-03   4.37356639E-02   1.62325596E-02   1.50705713E-03   1.07056854E-19   2.81461704E-07   9.08936604E-06   2.48440949E-05   1.41389158E-06   1.64695814E-04   9.21404018E-06   1.49719812E-09   1.17655286E-09   5.53632186E-01   6.86755681E-05   1.21190706E-02   3.48288722E-20   4.78337628E-01   2.82779112E-02   1.81730143E-08   4.03969023E-04   1.71686835E-06   3.93869797E-05   2.86727691E-03   2.15538685E-09
   5.16250000E+02   5.00000000E-01   5.00000000E-01  -3.43644855E-03   6.21625884E-11   4.80020234E-03   4.34826699E-02   1.64411385E-02   1.55700642E-03   1.19616714E-19   2.92864697E-07   9.09518547E-06   2.48599953E-05   1.41479648E-06   1.70504841E-04   9.53506770E-06   1.50033387E-09   1.17538674E-09   5.53986514E-01   6.87195512E-05   1.21268269E-02   5.50783982E-20   4.78632980E-01   2.82960205E-02   1.81844520E-08   4.04227566E-04   1.71796715E-06   3.94121876E-05   2.96004263E-03   2.16239554E-09
   5.33750000E+02   5.00000000E-01   5.00000000E-01  -3.37053659E-03   6.62988831E-11   4.80335095E-03   4.32290058E-02   1.66502673E-02   1.60674343E-03   1.33428201E-19   3.04466267E-07   9.10115347E-06   2.48763017E-05   1.41572449E-06   1.76325375E-04   9.85664666E-06   1.50349695E-09   1.17423719E-09   5.54349892E-01   6.87646569E-05   1.21347812E-02   8.67600984E-20   4.78936968E-01   2.83145922E-02   1.81961864E-08   4.04492711E-04   1.71909402E-06   3.94380394E-05   3.05507154E-03   2.17025041E-09
   5.51250000E+02   5.00000000E-01   5.00000000E-01  -3.30293206E-03   7.06541722E-11   4.80657704E-03   4.29747057E-02   1.68599522E-02   1.65626024E-03   1.48591638E-19   3.16261954E-07   9.10726829E-06   2.48930095E-05   1.41667534E-06   1.82157657E-04   1.01787902E-05   1.50668718E-09   1.17310389E-09   5.54722212E-01   6.88108719E-05   1.21429314E-02   1.36138637E-19   4.79249500E-01   2.83336208E-02   1.82082141E-08   4.04764382E-04   1.72024863E-06   3.94645273E-05   3.15241449E-03   2.17897456E-09
   5.68750000E+02   5.00000000E-01   5.00000000E-01  -3.23373351E-03   7.52371812E-11   4.80987977E-03   4.27198097E-02   1.70701998E-02   1.70554901E-03   1.65213836E-19   3.28247204E-07   9.11352831E-06   2.49101142E-05   1.41764877E-06   1.88001924E-04   1.05015114E-05   1.50990439E-09   1.17198654E-09   5.55103376E-01   6.88581841E-05   1.21512751E-02   2.12809677E-19   4.79570490E-01   2.83531013E-02   1.82205318E-08   4.05042507E-04   1.72143065E-06   3.94916444E-05   3.25212431E-03   2.18858793E-09
   5.86250000E+02   5.00000000E-01   5.00000000E-01  -3.16304917E-03   8.00572282E-11   4.81325833E-03   4.24643637E-02   1.72810165E-02   1.75460198E-03   1.83408415E-19   3.40417376E-07   9.11993202E-06   2.49276115E-05   1.41864456E-06   1.93858414E-04   1.08248232E-05   1.51314843E-09   1.17088485E-09   5.55493292E-01   6.89065819E-05   1.21598104E-02   3.31417858E-19   4.79899858E-01   2.83730291E-02   1.82331365E-08   4.05327017E-04   1.72263982E-06   3.95193842E-05   3.35425556E-03   2.19910747E-09
   6.03750000E+02   5.00000000E-01   5.00000000E-01  -3.09099718E-03   8.51240233E-11   4.81671197E-03   4.22084194E-02   1.74924088E-02   1.80341152E-03   2.03295829E-19   3.52767745E-07   9.12647800E-06   2.49454978E-05   1.41966248E-06   1.99727362E-04   1.11487384E-05   1.51641918E-09   1.16979856E-09   5.55891874E-01   6.89560548E-05   1.21685354E-02   5.14233531E-19   4.80237527E-01   2.83933996E-02   1.82460253E-08   4.05617850E-04   1.72387586E-06   3.95477404E-05   3.45886505E-03   2.21054731E-09
   6.21250000E+02   5.00000000E-01   5.00000000E-01  -3.01770592E-03   9.04473074E-11   4.82024002E-03   4.19520342E-02   1.77043832E-02   1.85197016E-03   2.25003104E-19   3.65293509E-07   9.13316496E-06   2.49637694E-05   1.42070232E-06   2.05609001E-04   1.14732697E-05   1.51971652E-09   1.16872740E-09   5.56299042E-01   6.90065929E-05   1.21774484E-02   7.95003554E-19   4.80583426E-01   2.84142089E-02   1.82591957E-08   4.05914949E-04   1.72513853E-06   3.95767075E-05   3.56601284E-03   2.22291890E-09
   6.38750000E+02   5.00000000E-01   5.00000000E-01  -2.94331412E-03   9.60364292E-11   4.82384182E-03   4.16952711E-02   1.79169464E-02   1.90027058E-03   2.48663346E-19   3.77989794E-07   9.13999166E-06   2.49824229E-05   1.42176391E-06   2.11503566E-04   1.17984300E-05   1.52304035E-09   1.16767113E-09   5.56714723E-01   6.90581869E-05   1.21865476E-02   1.22468537E-18   4.80937488E-01   2.84354532E-02   1.82726452E-08   4.06218259E-04   1.72642760E-06   3.96062802E-05   3.67576343E-03   2.23623119E-09
   6.56250000E+02   5.00000000E-01   5.00000000E-01  -2.86797028E-03   1.01899985E-10   4.82751678E-03   4.14381981E-02   1.81301051E-02   1.94830555E-03   2.74415217E-19   3.90851658E-07   9.14695700E-06   2.50014553E-05   1.42284705E-06   2.17411288E-04   1.21242317E-05   1.52639057E-09   1.16662952E-09   5.57138847E-01   6.91108283E-05   1.21958318E-02   1.87995517E-18   4.81299652E-01   2.84571288E-02   1.82863715E-08   4.06527729E-04   1.72774285E-06   3.96364536E-05   3.78818660E-03   2.25049077E-09
   6.73750000E+02   5.00000000E-01   5.00000000E-01  -2.79183147E-03   1.08045623E-10   4.83126436E-03   4.11808879E-02   1.83438661E-02   1.99606794E-03   3.02402536E-19   4.03874098E-07   9.15405991E-06   2.50208638E-05   1.42395160E-06   2.23332398E-04   1.24506874E-05   1.52976713E-09   1.16560235E-09   5.57571350E-01   6.91645093E-05   1.22052993E-02   2.87578829E-18   4.81669862E-01   2.84792326E-02   1.83003725E-08   4.06843314E-04   1.72908409E-06   3.96672232E-05   3.90335759E-03   2.26570203E-09
   6.91250000E+02   5.00000000E-01   5.00000000E-01  -2.71506148E-03   1.14480057E-10   4.83508403E-03   4.09234165E-02   1.85582363E-02   2.04355069E-03   3.32774154E-19   4.17052057E-07   9.16129944E-06   2.50406457E-05   1.42507740E-06   2.29267128E-04   1.27778097E-05   1.53316994E-09   1.16458941E-09   5.58012175E-01   6.92192226E-05   1.22149490E-02   4.38399802E-18   4.82048066E-01   2.85017616E-02   1.83146463E-08   4.07164971E-04   1.73045113E-06   3.96985847E-05   4.02135655E-03   2.28186728E-09
   7.08750000E+02   5.00000000E-01   5.00000000E-01  -2.63782857E-03   1.21209242E-10   4.83897534E-03   4.06658622E-02   1.87732224E-02   2.09074675E-03   3.65684100E-19   4.30380423E-07   9.16867470E-06   2.50607986E-05   1.42622431E-06   2.35215709E-04   1.31056110E-05   1.53659897E-09   1.16359051E-09   5.58461267E-01   6.92749614E-05   1.22247797E-02   6.66046372E-18   4.82434216E-01   2.85247130E-02   1.83291911E-08   4.07492660E-04   1.73184381E-06   3.97305344E-05   4.14226739E-03   2.29898692E-09
   7.26250000E+02   5.00000000E-01   5.00000000E-01  -2.56030340E-03   1.28238583E-10   4.84293785E-03   4.04083048E-02   1.89888315E-02   2.13764915E-03   4.01291794E-19   4.43854042E-07   9.17618487E-06   2.50813202E-05   1.42739221E-06   2.41178371E-04   1.34341037E-05   1.54005417E-09   1.16260545E-09   5.58918576E-01   6.93317195E-05   1.22347902E-02   1.00849886E-17   4.82828270E-01   2.85480843E-02   1.83440053E-08   4.07826345E-04   1.73326197E-06   3.97630687E-05   4.26617641E-03   2.31705956E-09
   7.43750000E+02   5.00000000E-01   5.00000000E-01  -2.48265728E-03   1.35572977E-10   4.84697116E-03   4.01508244E-02   1.92050704E-02   2.18425097E-03   4.39761963E-19   4.57467717E-07   9.18382921E-06   2.51022085E-05   1.42858097E-06   2.47155344E-04   1.37633002E-05   1.54353551E-09   1.16163405E-09   5.59384057E-01   6.93894914E-05   1.22449797E-02   1.52194480E-17   4.83230189E-01   2.85718731E-02   1.83590873E-08   4.08165993E-04   1.73470547E-06   3.97961843E-05   4.39317127E-03   2.33608216E-09
   7.61250000E+02   5.00000000E-01   5.00000000E-01  -2.40506126E-03   1.43216508E-10   4.85107492E-03   3.98935015E-02   1.94219462E-02   2.23054537E-03   4.81263784E-19   4.71216214E-07   9.19160701E-06   2.51234617E-05   1.42979050E-06   2.53146857E-04   1.40932129E-05   1.54704298E-09   1.16067615E-09   5.59857667E-01   6.94482717E-05   1.22553470E-02   2.28923262E-17   4.83639936E-01   2.85960772E-02   1.83744358E-08   4.08511572E-04   1.73617418E-06   3.98298783E-05   4.52334058E-03   2.35605015E-09
   7.78750000E+02   5.00000000E-01   5.00000000E-01  -2.32768568E-03   1.51171696E-10   4.85524879E-03   3.96364159E-02   1.96394659E-02   2.27652555E-03   5.25968889E-19   4.85094268E-07   9.19951767E-06   2.51450779E-05   1.43102070E-06   2.59153143E-04   1.44238541E-05   1.55057656E-09   1.15973159E-09   5.60339369E-01   6.95080559E-05   1.22658916E-02   3.43211695E-17   4.84057482E-01   2.86206948E-02   1.83900495E-08   4.08863056E-04   1.73766799E-06   3.98641479E-05   4.65677442E-03   2.37695756E-09
   7.96250000E+02   5.00000000E-01   5.00000000E-01  -2.25070010E-03   1.59438364E-10   4.85949247E-03   3.93796472E-02   1.98576365E-02   2.32218462E-03   5.74048132E-19   4.99096591E-07   9.20756061E-06   2.51670557E-05   1.43227147E-06   2.65174431E-04   1.47552361E-05   1.55413626E-09   1.15880021E-09   5.60829128E-01   6.95688396E-05   1.22766124E-02   5.12892940E-17   4.84482797E-01   2.86457240E-02   1.84059274E-08   4.09220419E-04   1.73918678E-06   3.98989908E-05   4.79356536E-03   2.39879711E-09
   8.13750000E+02   5.00000000E-01   5.00000000E-01  -2.17427292E-03   1.68012324E-10   4.86380570E-03   3.91232743E-02   2.00764651E-02   2.36751548E-03   6.25667368E-19   5.13217873E-07   9.21573533E-06   2.51893937E-05   1.43354273E-06   2.71210951E-04   1.50873713E-05   1.55772208E-09   1.15788187E-09   5.61326914E-01   6.96306190E-05   1.22875090E-02   7.63998049E-17   4.84915859E-01   2.86711633E-02   1.84220682E-08   4.09583638E-04   1.74073046E-06   3.99344047E-05   4.93380984E-03   2.42156032E-09
   8.31250000E+02   5.00000000E-01   5.00000000E-01  -2.09857048E-03   1.76884178E-10   4.86818824E-03   3.88673749E-02   2.02959587E-02   2.41251059E-03   6.80982817E-19   5.27452794E-07   9.22404137E-06   2.52120907E-05   1.43483443E-06   2.77262936E-04   1.54202719E-05   1.56133404E-09   1.15697644E-09   5.61832698E-01   6.96933906E-05   1.22985807E-02   1.13439343E-16   4.85356649E-01   2.86970113E-02   1.84384712E-08   4.09952694E-04   1.74229895E-06   3.99703876E-05   5.07760905E-03   2.44523759E-09
   8.48750000E+02   5.00000000E-01   5.00000000E-01  -2.02375526E-03   1.86038492E-10   4.87263986E-03   3.86120249E-02   2.05161247E-02   2.45716169E-03   7.40136686E-19   5.41796026E-07   9.23247833E-06   2.52351454E-05   1.43614649E-06   2.83330616E-04   1.57539501E-05   1.56497217E-09   1.15608380E-09   5.62346456E-01   6.97571513E-05   1.23098269E-02   1.67896963E-16   4.85805153E-01   2.87232666E-02   1.84551355E-08   4.10327568E-04   1.74389216E-06   4.00069378E-05   5.22506920E-03   2.46981831E-09
   8.66250000E+02   5.00000000E-01   5.00000000E-01  -1.94998351E-03   1.95453518E-10   4.87716040E-03   3.83572971E-02   2.07369702E-02   2.50145963E-03   8.03253612E-19   5.56242244E-07   9.24104584E-06   2.52585570E-05   1.43747885E-06   2.89414224E-04   1.60884182E-05   1.56863650E-09   1.15520383E-09   5.62868166E-01   6.98218986E-05   1.23212472E-02   2.47701512E-16   4.86261361E-01   2.87499282E-02   1.84720605E-08   4.10708244E-04   1.74551004E-06   4.00440538E-05   5.37630081E-03   2.49529095E-09
   8.83750000E+02   5.00000000E-01   5.00000000E-01  -1.87740255E-03   2.05101464E-10   4.88174967E-03   3.81032602E-02   2.09585027E-02   2.54539410E-03   8.70438244E-19   5.70786123E-07   9.24974360E-06   2.52823246E-05   1.43883148E-06   2.95513993E-04   1.64236884E-05   1.57232707E-09   1.15433644E-09   5.63397809E-01   6.98876299E-05   1.23328411E-02   3.64265652E-16   4.86725268E-01   2.87769951E-02   1.84892453E-08   4.11094709E-04   1.74715251E-06   4.00817341E-05   5.53141723E-03   2.52164312E-09
   9.01250000E+02   5.00000000E-01   5.00000000E-01  -1.80614816E-03   2.14949234E-10   4.88640754E-03   3.78499778E-02   2.11807296E-02   2.58895352E-03   9.41773960E-19   5.85422350E-07   9.25857135E-06   2.53064475E-05   1.44020433E-06   3.01630157E-04   1.67597728E-05   1.57604393E-09   1.15348155E-09   5.63935369E-01   6.99543434E-05   1.23446084E-02   5.33958620E-16   4.87196872E-01   2.88044664E-02   1.85066897E-08   4.11486951E-04   1.74881954E-06   4.01199777E-05   5.69053263E-03   2.54886171E-09
   9.18750000E+02   5.00000000E-01   5.00000000E-01  -1.73634237E-03   2.24959454E-10   4.89113389E-03   3.75975077E-02   2.14036584E-02   2.63212493E-03   1.01732255E-18   6.00145621E-07   9.26752886E-06   2.53309250E-05   1.44159736E-06   3.07762949E-04   1.70966835E-05   1.57978713E-09   1.15263909E-09   5.64480833E-01   7.00220374E-05   1.23565487E-02   7.80176279E-16   4.87676178E-01   2.88323416E-02   1.85243929E-08   4.11884959E-04   1.75051108E-06   4.01587835E-05   5.85375974E-03   2.57693290E-09
   9.36250000E+02   5.00000000E-01   5.00000000E-01  -1.66809198E-03   2.35091651E-10   4.89592864E-03   3.73459011E-02   2.16272968E-02   2.67489395E-03   1.09712461E-18   6.14950644E-07   9.27661596E-06   2.53557567E-05   1.44301055E-06   3.13912606E-04   1.74344327E-05   1.58355674E-09   1.15180902E-09   5.65034190E-01   7.00907105E-05   1.23686617E-02   1.13624017E-15   4.88163188E-01   2.88606198E-02   1.85423549E-08   4.12288727E-04   1.75222709E-06   4.01981509E-05   6.02120771E-03   2.60584233E-09
   9.53750000E+02   5.00000000E-01   5.00000000E-01  -1.60148765E-03   2.45303449E-10   4.90079170E-03   3.70952026E-02   2.18516525E-02   2.71724481E-03   1.18120038E-18   6.29832142E-07   9.28583250E-06   2.53809423E-05   1.44444387E-06   3.20079364E-04   1.77730323E-05   1.58735283E-09   1.15099135E-09   5.65595431E-01   7.01603616E-05   1.23809473E-02   1.64944292E-15   4.88657913E-01   2.88893008E-02   1.85605751E-08   4.12698248E-04   1.75396756E-06   4.02380792E-05   6.19298012E-03   2.63557511E-09
   9.71250000E+02   5.00000000E-01   5.00000000E-01  -1.53660370E-03   2.55551689E-10   4.90572302E-03   3.68454502E-02   2.20767332E-02   2.75916040E-03   1.26955086E-18   6.44784852E-07   9.29517839E-06   2.54064813E-05   1.44589731E-06   3.26263460E-04   1.81124945E-05   1.59117548E-09   1.15018610E-09   5.66164550E-01   7.02309900E-05   1.23934054E-02   2.38667273E-15   4.89160360E-01   2.89183841E-02   1.85790535E-08   4.13113518E-04   1.75573245E-06   4.02785680E-05   6.36917341E-03   2.66611594E-09
   9.88750000E+02   5.00000000E-01   5.00000000E-01  -1.47349848E-03   2.65793398E-10   4.91072257E-03   3.65966755E-02   2.23025467E-02   2.80062241E-03   1.36215889E-18   6.59803527E-07   9.30465355E-06   2.54323737E-05   1.44737086E-06   3.32465132E-04   1.84528312E-05   1.59502476E-09   1.14939339E-09   5.66741543E-01   7.03025952E-05   1.24060358E-02   3.44220436E-15   4.89670542E-01   2.89478692E-02   1.85977898E-08   4.13534532E-04   1.75752176E-06   4.03196169E-05   6.54987567E-03   2.69744916E-09