 TITLE = "Total Concentrations" 
VARIABLES = "X"          "Y"              "Z"            "H+"             "Al+++"          "CO2(aq)"        "Mg++"           "Ca++"           "Fe++"           "Fe+++"          "Ba++"           "Sr++"           "Cl-"            "F-"             "K+"             "HS-"            "Na+"            "SO4--"          "O2(aq)"         "B(OH)3(aq)"     "HPO4--"         "NO3-"           "H4SiO4(aq)"    
 ZONE I=         200 , J=           1 , K=           1  F=POINT
   8.75000000E+00   5.00000000E-01   5.00000000E-01  -4.67492553E-03   1.09232859E-12   4.74997155E-03   5.08017417E-02   1.05944701E-02   5.29343193E-05   1.75421241E-22   1.99998802E-07   8.99994609E-06   5.48163260E-01   6.79995927E-05   1.19938749E-02   1.00945194E-10   4.74037682E-01   2.79998323E-02   1.79997018E-08   3.99997604E-04   1.69998982E-06   3.89997664E-05   4.01512357E-04
   2.62500000E+01   5.00000000E-01   5.00000000E-01  -4.59130459E-03   4.09853279E-12   4.74999810E-03   5.04993357E-02   1.07891011E-02   1.05837571E-04   7.58566592E-22   1.99999920E-07   8.99999641E-06   5.48166324E-01   6.79999729E-05   1.19855525E-02   1.01891599E-10   4.74075505E-01   2.79999888E-02   1.79996121E-08   3.99999840E-04   1.69999932E-06   3.89999844E-05   6.00149460E-04
   4.37500000E+01   5.00000000E-01   5.00000000E-01  -4.54107268E-03   6.55562767E-12   4.75018787E-03   5.02204300E-02   1.09841366E-02   1.58723666E-04   1.49870498E-21   2.00007910E-07   9.00035596E-06   5.48188224E-01   6.80026895E-05   1.19773678E-02   1.02841592E-10   4.74119566E-01   2.80011074E-02   1.80001409E-08   4.00015821E-04   1.70006724E-06   3.90015425E-05   7.79754764E-04
   6.12500000E+01   5.00000000E-01   5.00000000E-01  -4.50447525E-03   8.45904570E-12   4.75053372E-03   4.99564221E-02   1.11795781E-02   2.11587493E-04   2.28357419E-21   2.00022473E-07   9.00101126E-06   5.48228136E-01   6.80076407E-05   1.19678566E-02   1.03795115E-10   4.74167882E-01   2.80031462E-02   1.80012610E-08   4.00044945E-04   1.70019102E-06   3.90043821E-05   9.22587384E-04
   7.87500000E+01   5.00000000E-01   5.00000000E-01  -4.47325653E-03   1.03165829E-11   4.75102913E-03   4.97024661E-02   1.13754356E-02   2.64427465E-04   3.12773020E-21   2.00043332E-07   9.00194993E-06   5.48285308E-01   6.80147328E-05   1.19569564E-02   1.04752119E-10   4.74221103E-01   2.80060664E-02   1.80029479E-08   4.00086663E-04   1.70036832E-06   3.90084497E-05   1.02911317E-03
   9.62500000E+01   5.00000000E-01   5.00000000E-01  -4.44536944E-03   1.21382628E-11   4.75166807E-03   4.94557762E-02   1.15717169E-02   3.17240590E-04   4.01549962E-21   2.00070234E-07   9.00316055E-06   5.48359044E-01   6.80238797E-05   1.19453183E-02   1.05712560E-10   4.74281325E-01   2.80098328E-02   1.80051785E-08   4.00140469E-04   1.70059699E-06   3.90136957E-05   1.10949792E-03
   1.13750000E+02   5.00000000E-01   5.00000000E-01  -4.41959080E-03   1.38667046E-11   4.75244499E-03   4.92139607E-02   1.17684280E-02   3.70021625E-04   4.93998126E-21   2.00102947E-07   9.00463261E-06   5.48448703E-01   6.80350020E-05   1.19336145E-02   1.06676401E-10   4.74350732E-01   2.80144126E-02   1.80079320E-08   4.00205894E-04   1.70087505E-06   3.90200747E-05   1.17446143E-03
   1.31250000E+02   5.00000000E-01   5.00000000E-01  -4.39479309E-03   1.54906041E-11   4.75335479E-03   4.89751265E-02   1.19655731E-02   4.22763686E-04   5.91409469E-21   2.00141254E-07   9.00635643E-06   5.48553697E-01   6.80480264E-05   1.19223237E-02   1.07643608E-10   4.74430856E-01   2.80197756E-02   1.80111888E-08   4.00282508E-04   1.70120066E-06   3.90275446E-05   1.23185206E-03
   1.48750000E+02   5.00000000E-01   5.00000000E-01  -4.37009623E-03   1.70262913E-11   4.75439272E-03   4.87379771E-02   1.21631564E-02   4.75458739E-04   6.96005812E-21   2.00184957E-07   9.00832306E-06   5.48673479E-01   6.80628853E-05   1.19117422E-02   1.08614155E-10   4.74522521E-01   2.80258940E-02   1.80149311E-08   4.00369914E-04   1.70157213E-06   3.90360666E-05   1.28656475E-03
   1.66250000E+02   5.00000000E-01   5.00000000E-01  -4.34483650E-03   1.85099880E-11   4.75555443E-03   4.85016824E-02   1.23611813E-02   5.28098124E-04   8.10471499E-21   2.00233871E-07   9.01052419E-06   5.48807544E-01   6.80795161E-05   1.19020310E-02   1.09588018E-10   4.74626017E-01   2.80327419E-02   1.80191423E-08   4.00467742E-04   1.70198790E-06   3.90456048E-05   1.34127063E-03
   1.83750000E+02   5.00000000E-01   5.00000000E-01  -4.31851234E-03   1.99900757E-11   4.75683587E-03   4.82657282E-02   1.25596515E-02   5.80673107E-04   9.37781420E-21   2.00287826E-07   9.01295217E-06   5.48955426E-01   6.80978608E-05   1.18932635E-02   1.10565178E-10   4.74741293E-01   2.80402956E-02   1.80238071E-08   4.00575652E-04   1.70244652E-06   3.90561261E-05   1.39719579E-03
   2.01250000E+02   5.00000000E-01   5.00000000E-01  -4.29084715E-03   2.14944007E-11   4.75823327E-03   4.80298272E-02   1.27585708E-02   6.33174721E-04   1.08044304E-20   2.00346664E-07   9.01559988E-06   5.49116691E-01   6.81178658E-05   1.18854743E-02   1.11545619E-10   4.74868144E-01   2.80485330E-02   1.80289111E-08   4.00693328E-04   1.70294664E-06   3.90675995E-05   1.45493835E-03
   2.18750000E+02   5.00000000E-01   5.00000000E-01  -4.26169877E-03   2.30343204E-11   4.75974317E-03   4.77938121E-02   1.29579435E-02   6.85593493E-04   1.24060469E-20   2.00410239E-07   9.01846074E-06   5.49290938E-01   6.81394811E-05   1.18786792E-02   1.12529329E-10   4.75006315E-01   2.80574334E-02   1.80344412E-08   4.00820477E-04   1.70348703E-06   3.90799965E-05   1.51483118E-03
   2.36250000E+02   5.00000000E-01   5.00000000E-01  -4.23090314E-03   2.46337065E-11   4.76136232E-03   4.75575491E-02   1.31577750E-02   7.37919936E-04   1.42095211E-20   2.00478413E-07   9.02152861E-06   5.49477794E-01   6.81626606E-05   1.18728722E-02   1.13516299E-10   4.75155513E-01   2.80669779E-02   1.80403852E-08   4.00956827E-04   1.70406651E-06   3.90932906E-05   1.57692070E-03
   2.53750000E+02   5.00000000E-01   5.00000000E-01  -4.19839488E-03   2.62987457E-11   4.76308773E-03   4.73209633E-02   1.33580707E-02   7.90144086E-04   1.62378985E-20   2.00551062E-07   9.02479780E-06   5.49676912E-01   6.81873611E-05   1.18680423E-02   1.14506522E-10   4.75315460E-01   2.80771487E-02   1.80467316E-08   4.01102124E-04   1.70468403E-06   3.91074571E-05   1.64125431E-03
   2.71250000E+02   5.00000000E-01   5.00000000E-01  -4.16411961E-03   2.80344807E-11   4.76491659E-03   4.70839924E-02   1.35588367E-02   8.42255498E-04   1.85156793E-20   2.00628067E-07   9.02826302E-06   5.49887970E-01   6.82135428E-05   1.18641707E-02   1.15499996E-10   4.75485897E-01   2.80879294E-02   1.80534698E-08   4.01256134E-04   1.70533857E-06   3.91224731E-05   1.70785480E-03
   2.88750000E+02   5.00000000E-01   5.00000000E-01  -4.12801538E-03   2.98490733E-11   4.76684632E-03   4.68465780E-02   1.37600790E-02   8.94243417E-04   2.10706214E-20   2.00709319E-07   9.03191935E-06   5.50110667E-01   6.82411684E-05   1.18612315E-02   1.16496718E-10   4.75666586E-01   2.80993046E-02   1.80605900E-08   4.01418638E-04   1.70602921E-06   3.91383172E-05   1.77670878E-03
   3.06250000E+02   5.00000000E-01   5.00000000E-01  -4.09001348E-03   3.17540537E-11   4.76887449E-03   4.66086658E-02   1.39618029E-02   9.46097023E-04   2.39343261E-20   2.00794715E-07   9.03576219E-06   5.50344724E-01   6.82702032E-05   1.18591924E-02   1.17496691E-10   4.75857300E-01   2.81112601E-02   1.80680830E-08   4.01589430E-04   1.70675508E-06   3.91549695E-05   1.84776837E-03
   3.23750000E+02   5.00000000E-01   5.00000000E-01  -4.05004342E-03   3.37635286E-11   4.77099883E-03   4.63702067E-02   1.41640135E-02   9.97805671E-04   2.71424275E-20   2.00884161E-07   9.03978726E-06   5.50589882E-01   6.83006149E-05   1.18580161E-02   1.18499917E-10   4.76057829E-01   2.81237826E-02   1.80759403E-08   4.01768323E-04   1.70751537E-06   3.91724115E-05   1.92095937E-03
   3.41250000E+02   5.00000000E-01   5.00000000E-01  -4.00803937E-03   3.58928714E-11   4.77321726E-03   4.61311583E-02   1.43667153E-02   1.04935908E-03   3.07344549E-20   2.00977569E-07   9.04399059E-06   5.50845895E-01   6.83323734E-05   1.18576620E-02   1.19506402E-10   4.76267976E-01   2.81368596E-02   1.80841538E-08   4.01955138E-04   1.70830933E-06   3.91906259E-05   1.99619365E-03
   3.58750000E+02   5.00000000E-01   5.00000000E-01  -3.96395097E-03   3.81560690E-11   4.77552780E-03   4.58914873E-02   1.45699125E-02   1.10074739E-03   3.47527964E-20   2.01074855E-07   9.04836846E-06   5.51112540E-01   6.83654506E-05   1.18580873E-02   1.20516152E-10   4.76487563E-01   2.81504797E-02   1.80927161E-08   4.02149709E-04   1.70913626E-06   3.92095967E-05   2.07339014E-03
   3.76250000E+02   5.00000000E-01   5.00000000E-01  -3.91774389E-03   4.05654044E-11   4.77792862E-03   4.56511684E-02   1.47736095E-02   1.15196107E-03   3.92425785E-20   2.01175942E-07   9.05291739E-06   5.51389603E-01   6.83998203E-05   1.18592484E-02   1.21529178E-10   4.76716425E-01   2.81646319E-02   1.81016202E-08   4.02351884E-04   1.70999551E-06   3.92293087E-05   2.15248369E-03
   3.93750000E+02   5.00000000E-01   5.00000000E-01  -3.86940373E-03   4.31302772E-11   4.78041802E-03   4.54101848E-02   1.49778105E-02   1.20299087E-03   4.42509179E-20   2.01280759E-07   9.05763414E-06   5.51676888E-01   6.84354580E-05   1.18611018E-02   1.22545489E-10   4.76954420E-01   2.81793062E-02   1.81108597E-08   4.02561517E-04   1.71088645E-06   3.92497480E-05   2.23343540E-03
   4.11250000E+02   5.00000000E-01   5.00000000E-01  -3.81893478E-03   4.58572593E-11   4.78299440E-03   4.51685269E-02   1.51825200E-02   1.25382757E-03   4.98267316E-20   2.01389238E-07   9.06251570E-06   5.51974211E-01   6.84723408E-05   1.18636050E-02   1.23565097E-10   4.77201418E-01   2.81944933E-02   1.81204285E-08   4.02778476E-04   1.71180852E-06   3.92709014E-05   2.31623526E-03
   4.28750000E+02   5.00000000E-01   5.00000000E-01  -3.76635720E-03   4.87506606E-11   4.78565626E-03   4.49261913E-02   1.53877428E-02   1.30446185E-03   5.60208540E-20   2.01501316E-07   9.06755924E-06   5.52281400E-01   6.85104476E-05   1.18667169E-02   1.24588017E-10   4.77457308E-01   2.82101843E-02   1.81303210E-08   4.03002633E-04   1.71276119E-06   3.92927567E-05   2.40089969E-03
   4.46250000E+02   5.00000000E-01   5.00000000E-01  -3.71170748E-03   5.18122738E-11   4.78840223E-03   4.46831814E-02   1.55934841E-02   1.35488408E-03   6.28856062E-20   2.01616936E-07   9.07276212E-06   5.52598294E-01   6.85497582E-05   1.18703981E-02   1.25614262E-10   4.77721990E-01   2.82263710E-02   1.81405318E-08   4.03233872E-04   1.71374396E-06   3.93153025E-05   2.48747110E-03
   4.63750000E+02   5.00000000E-01   5.00000000E-01  -3.65503702E-03   5.50416030E-11   4.79123099E-03   4.44395063E-02   1.57997495E-02   1.40508414E-03   7.04746558E-20   2.01736042E-07   9.07812188E-06   5.52924743E-01   6.85902542E-05   1.18746119E-02   1.26643850E-10   4.77995379E-01   2.82430459E-02   1.81510561E-08   4.03472084E-04   1.71475636E-06   3.93385282E-05   2.57601489E-03
   4.81250000E+02   5.00000000E-01   5.00000000E-01  -3.59641034E-03   5.84362468E-11   4.79414134E-03   4.41951817E-02   1.60065449E-02   1.45505125E-03   7.88430003E-20   2.01858583E-07   9.08363623E-06   5.53260608E-01   6.86319182E-05   1.18793236E-02   1.27676798E-10   4.78277397E-01   2.82602016E-02   1.81618892E-08   4.03717166E-04   1.71579795E-06   3.93624237E-05   2.66661529E-03
   4.98750000E+02   5.00000000E-01   5.00000000E-01  -3.53613219E-03   6.19206408E-11   4.79713214E-03   4.39503204E-02   1.62138767E-02   1.50476903E-03   8.79847939E-20   2.01984511E-07   9.08930301E-06   5.53605757E-01   6.86747339E-05   1.18845036E-02   1.28713124E-10   4.78568029E-01   2.82778316E-02   1.81730269E-08   4.03969023E-04   1.71686835E-06   3.93869797E-05   2.75965525E-03
   5.16250000E+02   5.00000000E-01   5.00000000E-01  -3.47408352E-03   6.55451575E-11   4.80020234E-03   4.37048559E-02   1.64217517E-02   1.55422395E-03   9.80028526E-20   2.02113783E-07   9.09512023E-06   5.53960068E-01   6.87186861E-05   1.18901198E-02   1.29752848E-10   4.78867200E-01   2.82959296E-02   1.81844650E-08   4.04227566E-04   1.71796715E-06   3.94121876E-05   2.85509922E-03
   5.33750000E+02   5.00000000E-01   5.00000000E-01  -3.41032287E-03   6.93154260E-11   4.80335095E-03   4.34588076E-02   1.66301770E-02   1.60340230E-03   1.08965152E-19   2.02246356E-07   9.10108601E-06   5.54323428E-01   6.87637609E-05   1.18961446E-02   1.30795991E-10   4.79174845E-01   2.83144898E-02   1.81962000E-08   4.04492711E-04   1.71909402E-06   3.94380394E-05   2.95301378E-03
   5.51250000E+02   5.00000000E-01   5.00000000E-01  -3.34497085E-03   7.32199032E-11   4.80657704E-03   4.32122243E-02   1.68391602E-02   1.65228901E-03   1.20926034E-19   2.02382191E-07   9.10719861E-06   5.54695731E-01   6.88099450E-05   1.19025535E-02   1.31842575E-10   4.79490910E-01   2.83335068E-02   1.82082282E-08   4.04764382E-04   1.72024863E-06   3.94645273E-05   3.05351882E-03
   5.68750000E+02   5.00000000E-01   5.00000000E-01  -3.27814906E-03   7.72477670E-11   4.80987977E-03   4.29651564E-02   1.70487086E-02   1.70086773E-03   1.33941856E-19   2.02521253E-07   9.11345640E-06   5.55076877E-01   6.88572261E-05   1.19093243E-02   1.32892623E-10   4.79815347E-01   2.83529755E-02   1.82205464E-08   4.05042507E-04   1.72143065E-06   3.94916444E-05   3.15673920E-03
   5.86250000E+02   5.00000000E-01   5.00000000E-01  -3.20997357E-03   8.13916837E-11   4.81325833E-03   4.27176543E-02   1.72588298E-02   1.74912111E-03   1.48073948E-19   2.02663508E-07   9.11985788E-06   5.55466774E-01   6.89055929E-05   1.19164368E-02   1.33946159E-10   4.80148108E-01   2.83728912E-02   1.82331516E-08   4.05327017E-04   1.72263982E-06   3.95193842E-05   3.26279213E-03
   6.03750000E+02   5.00000000E-01   5.00000000E-01  -3.14055585E-03   8.56482098E-11   4.81671197E-03   4.24697690E-02   1.74695312E-02   1.79703115E-03   1.63389668E-19   2.02808925E-07   9.12640163E-06   5.55865337E-01   6.89550346E-05   1.19238728E-02   1.35003206E-10   4.80489148E-01   2.83932495E-02   1.82460410E-08   4.05617850E-04   1.72387586E-06   3.95477404E-05   3.37178233E-03
   6.21250000E+02   5.00000000E-01   5.00000000E-01  -3.07000469E-03   9.00176842E-11   4.82024002E-03   4.22215535E-02   1.76808199E-02   1.84457950E-03   1.79963050E-19   2.02957474E-07   9.13308635E-06   5.56272486E-01   6.90055413E-05   1.19316157E-02   1.36063791E-10   4.80838422E-01   2.84140464E-02   1.82592119E-08   4.05914949E-04   1.72513853E-06   3.95767075E-05   3.48380021E-03
   6.38750000E+02   5.00000000E-01   5.00000000E-01  -2.99842908E-03   9.45035961E-11   4.82384182E-03   4.19730635E-02   1.78927027E-02   1.89174784E-03   1.97874866E-19   2.03109129E-07   9.13991082E-06   5.56688146E-01   6.90571040E-05   1.19396506E-02   1.37127941E-10   4.81195883E-01   2.84352781E-02   1.82726619E-08   4.06218259E-04   1.72642760E-06   3.96062802E-05   3.59892292E-03
   6.56250000E+02   5.00000000E-01   5.00000000E-01  -2.92594157E-03   9.91114532E-11   4.82751678E-03   4.17243590E-02   1.81051866E-02   1.93851801E-03   2.17211907E-19   2.03263865E-07   9.14687391E-06   5.57112250E-01   6.91097140E-05   1.19479641E-02   1.38195682E-10   4.81561484E-01   2.84569411E-02   1.82863887E-08   4.06527729E-04   1.72774285E-06   3.96364536E-05   3.71721764E-03
   6.73750000E+02   5.00000000E-01   5.00000000E-01  -2.85266100E-03   1.03847556E-10   4.83126436E-03   4.14755047E-02   1.83182778E-02   1.98487223E-03   2.38065839E-19   2.03421657E-07   9.15397457E-06   5.57544733E-01   6.91633634E-05   1.19565442E-02   1.39267042E-10   4.81935178E-01   2.84790320E-02   1.83003902E-08   4.06843314E-04   1.72908409E-06   3.96672232E-05   3.83874556E-03
   6.91250000E+02   5.00000000E-01   5.00000000E-01  -2.77871541E-03   1.08717410E-10   4.83508403E-03   4.12265709E-02   1.85319829E-02   2.03079306E-03   2.60531132E-19   2.03582486E-07   9.16121185E-06   5.57985537E-01   6.92180451E-05   1.19653801E-02   1.40342050E-10   4.82316922E-01   2.85015480E-02   1.83146646E-08   4.07164971E-04   1.73045113E-06   3.96985847E-05   3.96356707E-03
   7.08750000E+02   5.00000000E-01   5.00000000E-01  -2.70424195E-03   1.13724978E-10   4.83897534E-03   4.09776328E-02   1.87463083E-02   2.07626340E-03   2.84703758E-19   2.03746330E-07   9.16858486E-06   5.58434607E-01   6.92737523E-05   1.19744623E-02   1.41420737E-10   4.82706673E-01   2.85244862E-02   1.83292100E-08   4.07492660E-04   1.73184381E-06   3.97305344E-05   4.09174470E-03
   7.26250000E+02   5.00000000E-01   5.00000000E-01  -2.62938614E-03   1.18872133E-10   4.84293785E-03   4.07287702E-02   1.89612604E-02   2.12126633E-03   3.10679885E-19   2.03913173E-07   9.17609277E-06   5.58891895E-01   6.93304787E-05   1.19837821E-02   1.42503131E-10   4.83104393E-01   2.85478442E-02   1.83440247E-08   4.07826345E-04   1.73326197E-06   3.97630687E-05   4.22334524E-03
   7.43750000E+02   5.00000000E-01   5.00000000E-01  -2.55430038E-03   1.24158310E-10   4.84697116E-03   4.04800658E-02   1.91768456E-02   2.16578507E-03   3.38554621E-19   2.04082996E-07   9.18373483E-06   5.59357353E-01   6.93882188E-05   1.19933319E-02   1.43589263E-10   4.83510045E-01   2.85716195E-02   1.83591073E-08   4.08165993E-04   1.73470547E-06   3.97961843E-05   4.35844090E-03
   7.61250000E+02   5.00000000E-01   5.00000000E-01  -2.47914192E-03   1.29580373E-10   4.85107492E-03   4.02316050E-02   1.93930707E-02   2.20980275E-03   3.68420921E-19   2.04255786E-07   9.19151037E-06   5.59830941E-01   6.94469673E-05   1.20031050E-02   1.44679167E-10   4.83923598E-01   2.85958101E-02   1.83744563E-08   4.08511572E-04   1.73617418E-06   3.98298783E-05   4.49710960E-03
   7.78750000E+02   5.00000000E-01   5.00000000E-01  -2.40407043E-03   1.35132728E-10   4.85524879E-03   3.99834738E-02   1.96099424E-02   2.25330235E-03   4.00368803E-19   2.04431528E-07   9.19941876E-06   5.60312620E-01   6.95067195E-05   1.20130954E-02   1.45772873E-10   4.84345024E-01   2.86204139E-02   1.83900706E-08   4.08863056E-04   1.73766799E-06   3.98641479E-05   4.63943440E-03
   7.96250000E+02   5.00000000E-01   5.00000000E-01  -2.32924510E-03   1.40807760E-10   4.85949247E-03   3.97357581E-02   1.98274678E-02   2.29626661E-03   4.34485130E-19   2.04610209E-07   9.20745942E-06   5.60802356E-01   6.95674712E-05   1.20232976E-02   1.46870415E-10   4.84774297E-01   2.86454293E-02   1.84059490E-08   4.09220419E-04   1.73918678E-06   3.98989908E-05   4.78550196E-03
   8.13750000E+02   5.00000000E-01   5.00000000E-01  -2.25482151E-03   1.46596577E-10   4.86380570E-03   3.94885420E-02   2.00456540E-02   2.33867796E-03   4.70854121E-19   2.04791819E-07   9.21563186E-06   5.61300117E-01   6.96292185E-05   1.20337070E-02   1.47971827E-10   4.85211397E-01   2.86708547E-02   1.84220904E-08   4.09583638E-04   1.74073046E-06   3.99344047E-05   4.93540037E-03
   8.31250000E+02   5.00000000E-01   5.00000000E-01  -2.18094867E-03   1.52489991E-10   4.86818824E-03   3.92419064E-02   2.02645085E-02   2.38051863E-03   5.09558617E-19   2.04976347E-07   9.22393561E-06   5.61805877E-01   6.96919579E-05   1.20443192E-02   1.49077142E-10   4.85656305E-01   2.86966886E-02   1.84384940E-08   4.09952694E-04   1.74229895E-06   3.99703876E-05   5.08921638E-03
   8.48750000E+02   5.00000000E-01   5.00000000E-01  -2.10776629E-03   1.58479659E-10   4.87263986E-03   3.89959280E-02   2.04840388E-02   2.42177082E-03   5.50682123E-19   2.05163784E-07   9.23237027E-06   5.62319610E-01   6.97556865E-05   1.20551305E-02   1.50186396E-10   4.86109006E-01   2.87229297E-02   1.84551589E-08   4.10327568E-04   1.74389216E-06   4.00069378E-05   5.24703249E-03
   8.66250000E+02   5.00000000E-01   5.00000000E-01  -2.03540241E-03   1.64559429E-10   4.87716040E-03   3.87506777E-02   2.07042523E-02   2.46241697E-03   5.94311840E-19   2.05354122E-07   9.24093549E-06   5.62841295E-01   6.98204014E-05   1.20661374E-02   1.51299625E-10   4.86569483E-01   2.87495771E-02   1.84720844E-08   4.10708244E-04   1.74551004E-06   4.00440538E-05   5.40892375E-03
   8.83750000E+02   5.00000000E-01   5.00000000E-01  -1.96407843E-03   1.70655797E-10   4.88174967E-03   3.85062713E-02   2.09251562E-02   2.50243404E-03   6.40370574E-19   2.05547354E-07   9.24963095E-06   5.63370913E-01   6.98861005E-05   1.20773370E-02   1.52416863E-10   4.87037742E-01   2.87766296E-02   1.84892698E-08   4.11094709E-04   1.74715251E-06   4.00817341E-05   5.57506344E-03
   9.01250000E+02   5.00000000E-01   5.00000000E-01  -1.89375818E-03   1.76853018E-10   4.88640754E-03   3.82627031E-02   2.11467580E-02   2.54180749E-03   6.89157722E-19   2.05743475E-07   9.25845639E-06   5.63908448E-01   6.99527816E-05   1.20887265E-02   1.53538149E-10   4.87513757E-01   2.88040865E-02   1.85067147E-08   4.11486951E-04   1.74881954E-06   4.01199777E-05   5.74540048E-03
   9.18750000E+02   5.00000000E-01   5.00000000E-01  -1.82451038E-03   1.83174962E-10   4.89113389E-03   3.80200148E-02   2.13690654E-02   2.58052602E-03   7.40837567E-19   2.05942480E-07   9.26741159E-06   5.64453886E-01   7.00204431E-05   1.21003033E-02   1.54663520E-10   4.87997508E-01   2.88319471E-02   1.85244186E-08   4.11884959E-04   1.75051108E-06   4.01587835E-05   5.91994412E-03
   9.36250000E+02   5.00000000E-01   5.00000000E-01  -1.75643738E-03   1.89617995E-10   4.89592864E-03   3.77782623E-02   2.15920857E-02   2.61857928E-03   7.95509295E-19   2.06144364E-07   9.27649637E-06   5.65007216E-01   7.00890837E-05   1.21120654E-02   1.55793013E-10   4.88488981E-01   2.88602108E-02   1.85423811E-08   4.12288727E-04   1.75222709E-06   4.01981509E-05   6.09873023E-03
   9.53750000E+02   5.00000000E-01   5.00000000E-01  -1.68961866E-03   1.96188350E-10   4.90079170E-03   3.75374898E-02   2.18158261E-02   2.65595885E-03   8.53299933E-19   2.06349124E-07   9.28571059E-06   5.65568430E-01   7.01587022E-05   1.21240108E-02   1.56926668E-10   4.88988163E-01   2.88888772E-02   1.85606019E-08   4.12698248E-04   1.75396756E-06   4.02380792E-05   6.28177818E-03
   9.71250000E+02   5.00000000E-01   5.00000000E-01  -1.62411361E-03   2.02902895E-10   4.90572302E-03   3.72977296E-02   2.20402936E-02   2.69265938E-03   9.14369873E-19   2.06556759E-07   9.29505415E-06   5.66137522E-01   7.02292980E-05   1.21361378E-02   1.58064522E-10   4.89495040E-01   2.89179458E-02   1.85790809E-08   4.13113518E-04   1.75573245E-06   4.02785680E-05   6.46908876E-03
   9.88750000E+02   5.00000000E-01   5.00000000E-01  -1.55997141E-03   2.09783279E-10   4.91072257E-03   3.70590071E-02   2.22654951E-02   2.72867903E-03   9.78899775E-19   2.06767266E-07   9.30452698E-06   5.66714488E-01   7.03008705E-05   1.21484449E-02   1.59206617E-10   4.90009597E-01   2.89474164E-02   1.85978178E-08   4.13534532E-04   1.75752176E-06   4.03196169E-05   6.66065003E-03
   1.00625000E+03   5.00000000E-01   5.00000000E-01  -1.49723752E-03   2.16850658E-10   4.91579034E-03   3.68213429E-02   2.24914373E-02   2.76401947E-03   1.04707624E-18   2.06980646E-07   9.31412906E-06   5.67299325E-01   7.03734196E-05   1.21609307E-02   1.60352993E-10   4.90531821E-01   2.89772888E-02   1.86168127E-08   4.13961292E-04   1.75933549E-06   4.03612259E-05   6.85644314E-03
   1.02375000E+03   5.00000000E-01   5.00000000E-01  -1.43595671E-03   2.24122148E-10   4.92092632E-03   3.65847546E-02   2.27181270E-02   2.79868555E-03   1.11907993E-18   2.07196898E-07   9.32386040E-06   5.67892036E-01   7.04469452E-05   1.21735942E-02   1.61503690E-10   4.91061699E-01   2.90075627E-02   1.86360655E-08   4.14393795E-04   1.76117363E-06   4.04033951E-05   7.05644675E-03
   1.04125000E+03   5.00000000E-01   5.00000000E-01  -1.37617537E-03   2.31606738E-10   4.92613054E-03   3.63492581E-02   2.29455707E-02   2.83268449E-03   1.19506955E-18   2.07416023E-07   9.33372103E-06   5.68492621E-01   7.05214478E-05   1.21864343E-02   1.62658750E-10   4.91599222E-01   2.90382379E-02   1.86555762E-08   4.14832046E-04   1.76303619E-06   4.04461245E-05   7.26064186E-03
   1.05875000E+03   5.00000000E-01   5.00000000E-01  -1.31793901E-03   2.39305333E-10   4.93140304E-03   3.61148664E-02   2.31737748E-02   2.86602514E-03   1.27517766E-18   2.07638023E-07   9.34371102E-06   5.69101086E-01   7.05969277E-05   1.21994503E-02   1.63818215E-10   4.92144382E-01   2.90693138E-02   1.86753452E-08   4.15276046E-04   1.76492319E-06   4.04894144E-05   7.46901262E-03
   1.07625000E+03   5.00000000E-01   5.00000000E-01  -1.26129066E-03   2.47210225E-10   4.93674387E-03   3.58815901E-02   2.34027451E-02   2.89871720E-03   1.35950414E-18   2.07862900E-07   9.35383049E-06   5.69717436E-01   7.06733859E-05   1.22126413E-02   1.64982129E-10   4.92697176E-01   2.91007895E-02   1.86953724E-08   4.15725800E-04   1.76683465E-06   4.05332655E-05   7.68154738E-03
   1.09375000E+03   5.00000000E-01   5.00000000E-01  -1.20626887E-03   2.55305344E-10   4.94215311E-03   3.56494362E-02   2.36324868E-02   2.93077041E-03   1.44811209E-18   2.08090657E-07   9.36407957E-06   5.70341681E-01   7.07508234E-05   1.22260068E-02   1.66150533E-10   4.93257603E-01   2.91326632E-02   1.87156583E-08   4.16181314E-04   1.76877059E-06   4.05776781E-05   7.89823884E-03
   1.11125000E+03   5.00000000E-01   5.00000000E-01  -1.15290546E-03   2.63567386E-10   4.94763083E-03   3.54184084E-02   2.38630035E-02   2.96219396E-03   1.54102711E-18   2.08321298E-07   9.37445841E-06   5.70973829E-01   7.08292414E-05   1.22395465E-02   1.67323473E-10   4.93825667E-01   2.91649317E-02   1.87362030E-08   4.16642596E-04   1.77073103E-06   4.06226531E-05   8.11908329E-03
   1.12875000E+03   5.00000000E-01   5.00000000E-01  -1.10122318E-03   2.71968083E-10   4.95317715E-03   3.51885057E-02   2.40942965E-02   2.99299612E-03   1.63824180E-18   2.08554827E-07   9.38496723E-06   5.71613893E-01   7.09086413E-05   1.22532599E-02   1.68500992E-10   4.94401373E-01   2.91975893E-02   1.87570071E-08   4.17109654E-04   1.77271603E-06   4.06681913E-05   8.34407887E-03
   1.14625000E+03   5.00000000E-01   5.00000000E-01  -1.05123369E-03   2.80477282E-10   4.95879217E-03   3.49597222E-02   2.43263621E-02   3.02318417E-03   1.73972490E-18   2.08791249E-07   9.39560622E-06   5.72261887E-01   7.09890248E-05   1.22671469E-02   1.69683136E-10   4.94984731E-01   2.92306254E-02   1.87780709E-08   4.17582499E-04   1.77472562E-06   4.07142936E-05   8.57322324E-03
   1.16375000E+03   5.00000000E-01   5.00000000E-01  -1.00293646E-03   2.89066099E-10   4.96447604E-03   3.47320466E-02   2.45591887E-02   3.05276460E-03   1.84543277E-18   2.09030570E-07   9.40637566E-06   5.72917825E-01   7.10703939E-05   1.22812074E-02   1.70869951E-10   4.95575751E-01   2.92640216E-02   1.87993949E-08   4.18061140E-04   1.77675985E-06   4.07609612E-05   8.80651102E-03
   1.18125000E+03   5.00000000E-01   5.00000000E-01  -9.56318524E-04   2.97709852E-10   4.97022890E-03   3.45054616E-02   2.47927508E-02   3.08174357E-03   1.95532206E-18   2.09272796E-07   9.41727580E-06   5.73581725E-01   7.11527505E-05   1.22954412E-02   1.72061482E-10   4.96174446E-01   2.92977454E-02   1.88209797E-08   4.18545591E-04   1.77881876E-06   4.08081951E-05   9.04393151E-03
   1.19875000E+03   5.00000000E-01   5.00000000E-01  -9.11354876E-04   3.06390969E-10   4.97605090E-03   3.42799443E-02   2.50269976E-02   3.11012765E-03   2.06936434E-18   2.09517933E-07   9.42830696E-06   5.74253604E-01   7.12360971E-05   1.23098485E-02   1.73257776E-10   4.96780828E-01   2.93317396E-02   1.88428258E-08   4.19035865E-04   1.78090243E-06   4.08559968E-05   9.28546642E-03
   1.21625000E+03   5.00000000E-01   5.00000000E-01  -8.68009201E-04   3.15101754E-10   4.98194222E-03   3.40554655E-02   2.52618351E-02   3.13792467E-03   2.18756230E-18   2.09765988E-07   9.43946947E-06   5.74933483E-01   7.13204360E-05   1.23244295E-02   1.74458882E-10   4.97394911E-01   2.93659035E-02   1.88649340E-08   4.19531976E-04   1.78301090E-06   4.09043677E-05   9.53108773E-03
   1.23375000E+03   5.00000000E-01   5.00000000E-01  -8.26235328E-04   3.23846330E-10   4.98790305E-03   3.38319900E-02   2.54970921E-02   3.16514476E-03   2.30996414E-18   2.10016970E-07   9.45076367E-06   5.75621383E-01   7.14057699E-05   1.23391842E-02   1.75664847E-10   4.98016707E-01   2.94000597E-02   1.88873049E-08   4.20033941E-04   1.78514425E-06   4.09533092E-05   9.78075615E-03
   1.25125000E+03   5.00000000E-01   5.00000000E-01  -7.85979006E-04   3.32641818E-10   4.99393358E-03   3.36094769E-02   2.57324615E-02   3.19180134E-03   2.43667588E-18   2.10270888E-07   9.46218994E-06   5.76317328E-01   7.14921018E-05   1.23541130E-02   1.76875720E-10   4.98646228E-01   2.94338949E-02   1.89099392E-08   4.20541775E-04   1.78730254E-06   4.10028231E-05   1.00344200E-02
   1.26875000E+03   5.00000000E-01   5.00000000E-01  -7.47180076E-04   3.41518302E-10   5.00003403E-03   3.33878795E-02   2.59673938E-02   3.21791208E-03   2.56786861E-18   2.10527749E-07   9.47374869E-06   5.77021341E-01   7.15794346E-05   1.23692162E-02   1.78091550E-10   4.99283484E-01   2.94668541E-02   1.89328377E-08   4.21055497E-04   1.78948586E-06   4.10529110E-05   1.02920150E-02
   1.28625000E+03   5.00000000E-01   5.00000000E-01  -7.09773510E-04   3.50520768E-10   5.00620463E-03   3.31671454E-02   2.62009078E-02   3.24349985E-03   2.70379595E-18   2.10787563E-07   9.48544035E-06   5.77733449E-01   7.16677715E-05   1.23844942E-02   1.79312387E-10   4.99928485E-01   2.94979504E-02   1.89560014E-08   4.21575126E-04   1.79169429E-06   4.11035748E-05   1.05534632E-02
   1.30375000E+03   5.00000000E-01   5.00000000E-01  -6.73691489E-04   3.59708780E-10   5.01244560E-03   3.29472166E-02   2.64312495E-02   3.26859347E-03   2.84480083E-18   2.11050341E-07   9.49726535E-06   5.78453679E-01   7.17571160E-05   1.23999474E-02   1.80538282E-10   5.00581236E-01   2.95254249E-02   1.89794310E-08   4.22100682E-04   1.79392790E-06   4.11548165E-05   1.08186732E-02