 TITLE = "Total Concentrations" 
VARIABLES = "X"          "Y"              "Z"            "H+"             "Al+++"          "CO2(aq)"        "Mg++"           "Ca++"           "Fe++"           "Fe+++"          "Ba++"           "Sr++"           "Cl-"            "K+"             "Na+"            "SO4--"          "O2(aq)"         "B(OH)3(aq)"     "HPO4--"         "NO3-"           "H4SiO4(aq)"    
 ZONE I=          10 , J=           1 , K=           1  F=POINT
   1.75000000E+02   5.00000000E-01   5.00000000E-01  -4.55148328E-03   1.32196844E-15   4.75000000E-03   3.36185335E-02   3.76320416E-02   6.29376093E-05   4.75620456E-12   2.00000000E-07   9.00000000E-06   5.48153279E-01   1.20000107E-02   4.92336431E-01   4.71134282E-02   1.80000000E-04   4.00000000E-04   1.70000000E-06   3.90000000E-05   4.78292366E-02
   5.25000000E+02   5.00000000E-01   5.00000000E-01  -4.10344645E-03   1.31694257E-14   4.75056008E-03   3.29188029E-02   2.77718014E-02   1.17125946E-04   1.23442914E-11   2.00023582E-07   9.00106121E-06   5.48217913E-01   1.20014253E-02   4.92994876E-01   3.71371339E-02   1.80021224E-04   4.00047165E-04   1.70020045E-06   3.90045986E-05   4.94386849E-02
   8.75000000E+02   5.00000000E-01   5.00000000E-01  -3.17666787E-03   1.06686621E-13   4.75074545E-03   3.19627096E-02   2.00594117E-02   2.16022466E-04   2.86091209E-11   2.00031387E-07   9.00141242E-06   5.48239304E-01   1.20018988E-02   4.93627526E-01   2.93328983E-02   1.80028248E-04   4.00062774E-04   1.70026679E-06   3.90061205E-05   5.09010298E-02
   1.22500000E+03   5.00000000E-01   5.00000000E-01  -1.92828452E-03   7.13269520E-13   4.75090779E-03   3.06936447E-02   1.43483471E-02   3.92356582E-04   5.99464837E-11   2.00038223E-07   9.00172002E-06   5.48258039E-01   1.20023348E-02   4.94357349E-01   2.35090245E-02   1.80034400E-04   4.00076445E-04   1.70032489E-06   3.90074534E-05   5.24955024E-02
   1.57500000E+03   5.00000000E-01   5.00000000E-01  -9.17344870E-04   4.06234368E-12   4.75106269E-03   2.93724583E-02   1.02043671E-02   7.21248403E-04   1.19014998E-10   2.00044745E-07   9.00201352E-06   5.48275914E-01   1.20027913E-02   4.95080436E-01   1.92310440E-02   1.80040270E-04   4.00089490E-04   1.70038033E-06   3.90087252E-05   5.41143321E-02
   1.92500000E+03   5.00000000E-01   5.00000000E-01  -3.55639253E-04   2.00051509E-11   4.75121610E-03   2.79475274E-02   7.23336065E-03   1.35145687E-03   2.28722055E-10   2.00051204E-07   9.00230419E-06   5.48293618E-01   1.20033019E-02   4.95813636E-01   1.61041702E-02   1.80046084E-04   4.00102408E-04   1.70043523E-06   3.90099848E-05   5.58568094E-02
   2.27500000E+03   5.00000000E-01   5.00000000E-01  -6.42534224E-05   8.43105955E-11   4.75137203E-03   2.60062099E-02   5.13225213E-03   2.51239161E-03   4.16546617E-10   2.00057770E-07   9.00259964E-06   5.48311613E-01   1.20038232E-02   4.96742245E-01   1.38239413E-02   1.80051993E-04   4.00115540E-04   1.70049104E-06   3.90112651E-05   5.81412213E-02
   2.62500000E+03   5.00000000E-01   5.00000000E-01   1.61343358E-04   2.97403990E-10   4.75153348E-03   2.31199979E-02   3.67929531E-03   4.42331559E-03   6.82188754E-10   2.00064568E-07   9.00290554E-06   5.48330244E-01   1.20043519E-02   4.98076551E-01   1.21666204E-02   1.80058111E-04   4.00129135E-04   1.70054883E-06   3.90125907E-05   6.14413031E-02
   2.97500000E+03   5.00000000E-01   5.00000000E-01   4.59126960E-04   8.69511066E-10   4.75170298E-03   1.92011537E-02   2.70984355E-03   7.06734272E-03   9.34857837E-10   2.00071704E-07   9.00322670E-06   5.48349804E-01   1.20047830E-02   4.99883117E-01   1.09649585E-02   1.80064534E-04   4.00143409E-04   1.70060949E-06   3.90139823E-05   6.58880766E-02
   3.32500000E+03   5.00000000E-01   5.00000000E-01   9.11733221E-04   2.15001729E-09   4.75188353E-03   1.46827916E-02   2.09737303E-03   1.00558826E-02   9.96729043E-10   2.00079306E-07   9.00356879E-06   5.48370639E-01   1.20049976E-02   5.01982331E-01   1.00882769E-02   1.80071376E-04   4.00158613E-04   1.70067410E-06   3.90154647E-05   7.10130866E-02
