 TITLE = "Total Concentrations" 
VARIABLES = "X"          "Y"              "Z"            "H+"             "Al+++"          "CO2(aq)"        "Mg++"           "Ca++"           "Fe++"           "Fe+++"          "Ba++"           "Sr++"           "Cl-"            "K+"             "Na+"            "SO4--"          "O2(aq)"         "B(OH)3(aq)"     "HPO4--"         "NO3-"           "H4SiO4(aq)"    
 ZONE I=          10 , J=           1 , K=           1  F=POINT
   1.75000000E+02   5.00000000E-01   5.00000000E-01  -4.28508497E-03   2.49526843E-13   4.75000000E-03   4.71993497E-02   2.93431331E-02   8.27371966E-04   3.19811962E-12   2.00000000E-07   9.00000000E-06   5.48153279E-01   1.20000110E-02   4.77271695E-01   4.57742454E-02   1.80000000E-04   4.00000000E-04   1.70000000E-06   3.90000000E-05   8.59849508E-03
   5.25000000E+02   5.00000000E-01   5.00000000E-01  -3.49904843E-03   1.94750330E-12   4.75008053E-03   4.59024911E-02   2.33271453E-02   1.45265401E-03   7.91265844E-12   2.00003391E-07   9.00015259E-06   5.48162573E-01   1.20002137E-02   4.77815306E-01   3.97475226E-02   1.80003052E-04   4.00006782E-04   1.70002882E-06   3.90006612E-05   9.74421860E-03
   8.75000000E+02   5.00000000E-01   5.00000000E-01  -2.30397868E-03   1.12980483E-11   4.75010657E-03   4.40231421E-02   1.72638782E-02   2.33893968E-03   1.95281968E-11   2.00004487E-07   9.00020192E-06   5.48165577E-01   1.20002850E-02   4.78583653E-01   3.36711526E-02   1.80004038E-04   4.00008974E-04   1.70003814E-06   3.90008750E-05   1.13637156E-02
   1.22500000E+03   5.00000000E-01   5.00000000E-01  -1.19403592E-03   5.34565756E-11   4.75012979E-03   4.17473586E-02   1.21155122E-02   3.59186716E-03   4.75347229E-11   2.00005465E-07   9.00024592E-06   5.48168257E-01   1.20003698E-02   4.79489691E-01   2.85066237E-02   1.80004918E-04   4.00010930E-04   1.70004645E-06   3.90010656E-05   1.33499776E-02
   1.57500000E+03   5.00000000E-01   5.00000000E-01  -5.12677016E-04   2.15238326E-10   4.75015191E-03   3.91880812E-02   8.24528138E-03   5.29883362E-03   1.12751134E-10   2.00006396E-07   9.00028783E-06   5.48170810E-01   1.20004914E-02   4.80477022E-01   2.46171978E-02   1.80005757E-04   4.00012793E-04   1.70005437E-06   3.90012473E-05   1.56478564E-02
   1.92500000E+03   5.00000000E-01   5.00000000E-01  -1.47295248E-04   7.69990343E-10   4.75017383E-03   3.65056925E-02   5.52291322E-03   7.27957904E-03   2.61052695E-10   2.00007319E-07   9.00032935E-06   5.48173339E-01   1.20006703E-02   4.81472621E-01   2.18725020E-02   1.80006587E-04   4.00014638E-04   1.70006221E-06   3.90014272E-05   1.80469263E-02
   2.27500000E+03   5.00000000E-01   5.00000000E-01   1.33740873E-04   2.67707817E-09   4.75019610E-03   3.42301471E-02   3.67553591E-03   8.98470993E-03   6.08640635E-10   2.00008257E-07   9.00037156E-06   5.48175909E-01   1.20008538E-02   4.82283472E-01   1.99994655E-02   1.80007431E-04   4.00016514E-04   1.70007018E-06   3.90016101E-05   2.00069491E-02
   2.62500000E+03   5.00000000E-01   5.00000000E-01   5.70539396E-04   9.68907611E-09   4.75021916E-03   3.26784918E-02   2.47411115E-03   1.00214716E-02   1.44519740E-09   2.00009228E-07   9.00041526E-06   5.48178571E-01   1.20010323E-02   4.82820321E-01   1.87687646E-02   1.80008305E-04   4.00018456E-04   1.70007844E-06   3.90017995E-05   2.12444915E-02
   2.97500000E+03   5.00000000E-01   5.00000000E-01   1.51544936E-03   3.69064104E-08   4.75024338E-03   3.13756330E-02   1.74543771E-03   1.05789466E-02   3.16492489E-09   2.00010248E-07   9.00046114E-06   5.48181365E-01   1.20010943E-02   4.83302296E-01   1.80068240E-02   1.80009223E-04   4.00020495E-04   1.70008710E-06   3.90019983E-05   2.22179045E-02
   3.32500000E+03   5.00000000E-01   5.00000000E-01   3.38262167E-03   1.17496759E-07   4.75026911E-03   2.94024785E-02   1.35402622E-03   1.09691196E-02   5.71890614E-09   2.00011331E-07   9.00050988E-06   5.48184334E-01   1.17799007E-02   4.84749488E-01   1.75776641E-02   1.80010198E-04   4.00022662E-04   1.70009631E-06   3.90022095E-05   2.49314550E-02
