 TITLE = "Total Concentrations" 
VARIABLES = "X"          "Y"              "Z"            "H+"             "Al+++"          "CO2(aq)"        "Mg++"           "Ca++"           "Fe++"           "Fe+++"          "Ba++"           "Sr++"           "Li+"            "Rb+"            "Mn++"           "Zn++"           "Cu++"           "Cu+"            "Cl-"            "F-"             "K+"             "HS-"            "Na+"            "SO4--"          "O2(aq)"         "B(OH)3(aq)"     "HPO4--"         "NO3-"           "H4SiO4(aq)"     "Ti(OH)4(aq)"   
 ZONE I=         200 , J=           1 , K=           1  F=POINT
   8.75000000E+00   5.00000000E-01   5.00000000E-01  -4.68580990E-03   6.49549961E-13   4.74997155E-03   5.07981652E-02   1.05964739E-02   5.29625827E-05   1.56375051E-22   1.19069993E-07   8.99994824E-06   2.45998526E-05   1.39999161E-06   5.70178646E-06   3.88135023E-07   1.42214624E-09   1.21808818E-09   5.48189429E-01   6.79996184E-05   1.19999281E-02   1.25541407E-25   4.74033588E-01   2.79997514E-02   1.79997004E-08   3.99997604E-04   1.69998982E-06   3.89997664E-05   4.18128356E-04   2.09591386E-09
   2.62500000E+01   5.00000000E-01   5.00000000E-01  -4.60882194E-03   2.23801808E-12   4.74999810E-03   5.04891124E-02   1.07931128E-02   1.05886028E-04   6.50153546E-22   8.91672809E-08   9.00000071E-06   2.45999902E-05   1.39999944E-06   1.13974417E-05   7.00292717E-07   1.42430895E-09   1.21619035E-09   5.48192494E-01   6.80000246E-05   1.19999952E-02   1.44036692E-26   4.74066876E-01   2.79998780E-02   1.79996092E-08   3.99999840E-04   1.69999932E-06   3.89999844E-05   6.37722623E-04   2.10206375E-09
   4.37500000E+01   5.00000000E-01   5.00000000E-01  -4.55934084E-03   3.63671015E-12   4.75018787E-03   5.01991822E-02   1.09901660E-02   1.58783719E-04   1.32687234E-21   7.92054185E-08   9.00036241E-06   2.46009730E-05   1.40005537E-06   1.70948670E-05   1.01248967E-06   1.42652070E-09   1.21433409E-09   5.48214394E-01   6.80027676E-05   1.20004746E-02   3.24645332E-26   4.74108995E-01   2.80009866E-02   1.80001365E-08   4.00015821E-04   1.70006724E-06   3.90015425E-05   8.45094979E-04   2.10743909E-09
   6.12500000E+01   5.00000000E-01   5.00000000E-01  -4.52135638E-03   4.81769515E-12   4.75053372E-03   4.99221895E-02   1.11876349E-02   2.11649187E-04   2.10404532E-21   7.76501436E-08   9.00101986E-06   2.46027641E-05   1.40015731E-06   2.27946442E-05   1.32475199E-06   1.42877956E-09   1.21251740E-09   5.48254309E-01   6.80077454E-05   1.20013483E-02   6.59940008E-26   4.74155427E-01   2.80030238E-02   1.80012552E-08   4.00044945E-04   1.70019102E-06   3.90043821E-05   1.02060021E-03   2.11192879E-09
   7.87500000E+01   5.00000000E-01   5.00000000E-01  -4.48782771E-03   6.04425319E-12   4.75102913E-03   4.96548755E-02   1.13855275E-02   2.64481479E-04   2.99505515E-21   7.99013183E-08   9.00196068E-06   2.46053298E-05   1.40030332E-06   2.84973289E-05   1.63710703E-06   1.43108379E-09   1.21073842E-09   5.48311483E-01   6.80148645E-05   1.20025999E-02   1.27871295E-25   4.74204817E-01   2.80059463E-02   1.80029405E-08   4.00086663E-04   1.70036832E-06   3.90084497E-05   1.15881028E-03   2.11558875E-09
   9.62500000E+01   5.00000000E-01   5.00000000E-01  -4.45704117E-03   7.34544323E-12   4.75166807E-03   4.93954064E-02   1.15838530E-02   3.17279175E-04   3.98728377E-21   8.40239628E-08   9.00317345E-06   2.46086388E-05   1.40049164E-06   3.42034510E-05   1.94958091E-06   1.43343176E-09   1.20899543E-09   5.48385222E-01   6.80240387E-05   1.20042140E-02   2.39913741E-25   4.74258351E-01   2.80097168E-02   1.80051697E-08   4.00140469E-04   1.70059699E-06   3.90136957E-05   1.26485688E-03   2.11849091E-09
   1.13750000E+02   5.00000000E-01   5.00000000E-01  -4.42827818E-03   8.67477484E-12   4.75244499E-03   4.91419008E-02   1.17826197E-02   3.70038309E-04   5.06139525E-21   8.91673244E-08   9.00464767E-06   2.46126625E-05   1.40072063E-06   3.99135162E-05   2.26219836E-06   1.43582201E-09   1.20728684E-09   5.48474886E-01   6.80351885E-05   1.20061768E-02   4.39149915E-25   4.74318374E-01   2.80143017E-02   1.80079217E-08   4.00205894E-04   1.70087505E-06   3.90200747E-05   1.34796198E-03   2.12070509E-09
   1.31250000E+02   5.00000000E-01   5.00000000E-01  -4.40070696E-03   1.00051667E-11   4.75335479E-03   4.88925021E-02   1.19818338E-02   4.22752983E-04   6.21652895E-21   9.49423021E-08   9.00637365E-06   2.46173743E-05   1.40098878E-06   4.56280067E-05   2.57498300E-06   1.43825316E-09   1.20561120E-09   5.48579885E-01   6.80482407E-05   1.20084752E-02   7.88900868E-25   4.74387127E-01   2.80196704E-02   1.80111770E-08   4.00282508E-04   1.70120066E-06   3.90275446E-05   1.41681897E-03   2.12230342E-09
   1.48750000E+02   5.00000000E-01   5.00000000E-01  -4.37352552E-03   1.13322396E-11   4.75439272E-03   4.86457107E-02   1.21815006E-02   4.75416130E-04   7.46773705E-21   1.01164281E-07   9.00834243E-06   2.46227497E-05   1.40129470E-06   5.13473832E-05   2.88795749E-06   1.44072397E-09   1.20396713E-09   5.48699672E-01   6.80631275E-05   1.20110974E-02   1.39714755E-24   4.74466220E-01   2.80257950E-02   1.80149179E-08   4.00369914E-04   1.70157213E-06   3.90360666E-05   1.47793255E-03   2.12336217E-09
   1.66250000E+02   5.00000000E-01   5.00000000E-01  -4.34608661E-03   1.26635223E-11   4.75555443E-03   4.84004557E-02   1.23816244E-02   5.28019990E-04   8.83834728E-21   1.07742483E-07   9.01054572E-06   2.46287661E-05   1.40163710E-06   5.70720855E-05   3.20114364E-06   1.44323328E-09   1.20235338E-09   5.48833744E-01   6.80797865E-05   1.20140322E-02   2.44703331E-24   4.74556609E-01   2.80326495E-02   1.80191276E-08   4.00467742E-04   1.70198790E-06   3.90456048E-05   1.53560470E-03   2.12396153E-09
   1.83750000E+02   5.00000000E-01   5.00000000E-01  -4.31790558E-03   1.40117596E-11   4.75683587E-03   4.81560179E-02   1.25822090E-02   5.80556402E-04   1.03554120E-20   1.14630577E-07   9.01297586E-06   2.46354026E-05   1.40201478E-06   6.28025342E-05   3.51456247E-06   1.44578004E-09   1.20076877E-09   5.48981633E-01   6.80981596E-05   1.20172695E-02   4.24750058E-24   4.74658751E-01   2.80402100E-02   1.80237908E-08   4.00575652E-04   1.70244652E-06   3.90561261E-05   1.59246352E-03   2.12418451E-09
   2.01250000E+02   5.00000000E-01   5.00000000E-01  -4.28862850E-03   1.53914594E-11   4.75823327E-03   4.79119266E-02   1.27832580E-02   6.33017004E-04   1.20477863E-20   1.21803886E-07   9.01562574E-06   2.46426397E-05   1.40242665E-06   6.85391321E-05   3.82823424E-06   1.44836326E-09   1.19921221E-09   5.49142906E-01   6.81181931E-05   1.20207998E-02   7.31698364E-24   4.74772774E-01   2.80484545E-02   1.80288933E-08   4.00693328E-04   1.70294664E-06   3.90675995E-05   1.65001985E-03   2.12411592E-09
   2.18750000E+02   5.00000000E-01   5.00000000E-01  -4.25799710E-03   1.68171570E-11   4.75974317E-03   4.76678741E-02   1.29847747E-02   6.85393369E-04   1.39455824E-20   1.29248534E-07   9.01848876E-06   2.46504593E-05   1.40287167E-06   7.42822651E-05   4.14217855E-06   1.45098204E-09   1.19768268E-09   5.49317162E-01   6.81398372E-05   1.20246142E-02   1.25210556E-23   4.74898610E-01   2.80573623E-02   1.80344219E-08   4.00820477E-04   1.70348703E-06   3.90799965E-05   1.70909248E-03   2.12384123E-09
   2.36250000E+02   5.00000000E-01   5.00000000E-01  -4.22582060E-03   1.83026050E-11   4.76136232E-03   4.74236559E-02   1.31867626E-02   7.37677095E-04   1.60802252E-20   1.36956120E-07   9.02155880E-06   2.46588449E-05   1.40334889E-06   8.00323037E-05   4.45641434E-06   1.45363554E-09   1.19617923E-09   5.49504027E-01   6.81630456E-05   1.20287047E-02   2.12977015E-23   4.75036084E-01   2.80669144E-02   1.80403643E-08   4.00956827E-04   1.70406651E-06   3.90932906E-05   1.77009283E-03   2.12344563E-09
   2.53750000E+02   5.00000000E-01   5.00000000E-01  -4.19195560E-03   1.98604450E-11   4.76308773E-03   4.71791321E-02   1.33892248E-02   7.89859861E-04   1.84847167E-20   1.44921045E-07   9.02483016E-06   2.46677806E-05   1.40385744E-06   8.57896040E-05   4.77095996E-06   1.45632300E-09   1.19470098E-09   5.49703154E-01   6.81877752E-05   1.20330637E-02   3.60242078E-23   4.75184967E-01   2.80770931E-02   1.80467092E-08   4.01102124E-04   1.70468403E-06   3.91074571E-05   1.83320317E-03   2.12301319E-09
   2.71250000E+02   5.00000000E-01   5.00000000E-01  -4.15629249E-03   2.15021237E-11   4.76491659E-03   4.69342031E-02   1.35921649E-02   8.41933448E-04   2.11939390E-20   1.53139132E-07   9.02829756E-06   2.46772523E-05   1.40439647E-06   9.15545092E-05   5.08583322E-06   1.45904371E-09   1.19324710E-09   5.49914222E-01   6.82139861E-05   1.20376839E-02   6.06118153E-23   4.75345009E-01   2.80878820E-02   1.80534459E-08   4.01256134E-04   1.70533857E-06   3.91224731E-05   1.89848379E-03   2.12262609E-09
   2.88750000E+02   5.00000000E-01   5.00000000E-01  -4.11874652E-03   2.32379212E-11   4.76684632E-03   4.66887940E-02   1.37955864E-02   8.93889739E-04   2.42449307E-20   1.61606897E-07   9.03195606E-06   2.46872462E-05   1.40496523E-06   9.73273500E-05   5.40105139E-06   1.46179700E-09   1.19181680E-09   5.50136930E-01   6.82416410E-05   1.20425590E-02   1.01464945E-22   4.75515960E-01   2.80992656E-02   1.80605646E-08   4.01418638E-04   1.70602921E-06   3.91383172E-05   1.96593564E-03   2.12236407E-09
   3.06250000E+02   5.00000000E-01   5.00000000E-01  -4.07925209E-03   2.50770324E-11   4.76887449E-03   4.64428469E-02   1.39994931E-02   9.45720701E-04   2.76771232E-20   1.70321165E-07   9.03580107E-06   2.46977500E-05   1.40556301E-06   1.03108446E-04   5.71663131E-06   1.46458228E-09   1.19040937E-09   5.50370998E-01   6.82707053E-05   1.20476828E-02   1.69021235E-22   4.75697575E-01   2.81112297E-02   1.80680560E-08   4.01589430E-04   1.70675508E-06   3.91549695E-05   2.03553599E-03   2.12230389E-09
   3.23750000E+02   5.00000000E-01   5.00000000E-01  -4.03775905E-03   2.70276767E-11   4.77099883E-03   4.61963147E-02   1.42038890E-02   9.97418345E-04   3.15325470E-20   1.79278859E-07   9.03982833E-06   2.47087519E-05   1.40618913E-06   1.08898107E-04   6.03258936E-06   1.46739898E-09   1.18902412E-09   5.50616167E-01   6.83011466E-05   1.20530496E-02   2.80212627E-22   4.75889624E-01   2.81237611E-02   1.80759117E-08   4.01768323E-04   1.70751537E-06   3.91724115E-05   2.10725782E-03   2.12251893E-09
   3.41250000E+02   5.00000000E-01   5.00000000E-01  -3.99423026E-03   2.90972436E-11   4.77321726E-03   4.59491586E-02   1.44087785E-02   1.04897469E-03   3.58560313E-20   1.88476885E-07   9.04403384E-06   2.47202410E-05   1.40684298E-06   1.14696634E-04   6.34894152E-06   1.47024659E-09   1.18766042E-09   5.50872193E-01   6.83329348E-05   1.20586540E-02   4.62380516E-22   4.76091893E-01   2.81368472E-02   1.80841236E-08   4.01955138E-04   1.70830933E-06   3.91906259E-05   2.18107960E-03   2.12307889E-09
   3.58750000E+02   5.00000000E-01   5.00000000E-01  -3.94863987E-03   3.12924800E-11   4.77552780E-03   4.57013464E-02   1.46141661E-02   1.10038170E-03   4.06954267E-20   1.97912073E-07   9.04841389E-06   2.47322071E-05   1.40752398E-06   1.20504317E-04   6.66570341E-06   1.47312462E-09   1.18631765E-09   5.51138850E-01   6.83660419E-05   1.20644912E-02   7.59476467E-22   4.76304181E-01   2.81504766E-02   1.80926843E-08   4.02149709E-04   1.70913626E-06   3.92095967E-05   2.25698919E-03   2.12404959E-09
   3.76250000E+02   5.00000000E-01   5.00000000E-01  -3.90097200E-03   3.36197216E-11   4.77792862E-03   4.54528513E-02   1.48200564E-02   1.15163129E-03   4.61018709E-20   2.07581142E-07   9.05296501E-06   2.47446409E-05   1.40823159E-06   1.26321442E-04   6.98289031E-06   1.47603264E-09   1.18499526E-09   5.51415927E-01   6.84004415E-05   1.20705564E-02   1.24184035E-21   4.76526304E-01   2.81646384E-02   1.81015869E-08   4.02351884E-04   1.70999551E-06   3.92293087E-05   2.33498434E-03   2.12549277E-09
   3.93750000E+02   5.00000000E-01   5.00000000E-01  -3.85121992E-03   3.60851361E-11   4.78041802E-03   4.52036519E-02   1.50264546E-02   1.20271529E-03   5.21300932E-20   2.17480689E-07   9.05768396E-06   2.47575333E-05   1.40896531E-06   1.32148285E-04   7.30051717E-06   1.47897024E-09   1.18369272E-09   5.51703226E-01   6.84361093E-05   1.20768454E-02   2.02155470E-21   4.76758091E-01   2.81793225E-02   1.81108248E-08   4.02561517E-04   1.71088645E-06   3.92497480E-05   2.41507152E-03   2.12746608E-09
   4.11250000E+02   5.00000000E-01   5.00000000E-01  -3.79938568E-03   3.86949269E-11   4.78299440E-03   4.49537321E-02   1.52333658E-02   1.25362541E-03   5.88387224E-20   2.27607181E-07   9.06256771E-06   2.47708762E-05   1.40972466E-06   1.37985116E-04   7.61859869E-06   1.48193705E-09   1.18240952E-09   5.52000563E-01   6.84730224E-05   1.20833542E-02   3.27645490E-21   4.76999382E-01   2.81945196E-02   1.81203920E-08   4.02778476E-04   1.71180852E-06   3.92709014E-05   2.49726414E-03   2.13002298E-09
   4.28750000E+02   5.00000000E-01   5.00000000E-01  -3.74548030E-03   4.14554398E-11   4.78565626E-03   4.47030812E-02   1.54407954E-02   1.30435329E-03   6.62905438E-20   2.37956954E-07   9.06761345E-06   2.47846619E-05   1.41050921E-06   1.43832202E-04   7.93714926E-06   1.48493273E-09   1.18114519E-09   5.52307766E-01   6.85111594E-05   1.20900789E-02   5.28751950E-21   4.77250030E-01   2.82102209E-02   1.81302829E-08   4.03002633E-04   1.71276119E-06   3.92927567E-05   2.58158122E-03   2.13321280E-09
   4.46250000E+02   5.00000000E-01   5.00000000E-01  -3.68952460E-03   4.43731527E-11   4.78840223E-03   4.44516943E-02   1.56487489E-02   1.35489050E-03   7.45526604E-20   2.48526217E-07   9.07281853E-06   2.47988831E-05   1.41131855E-06   1.49689801E-04   8.25618309E-06   1.48795695E-09   1.17989929E-09   5.52624675E-01   6.85505005E-05   1.20970160E-02   8.49685780E-21   4.77509897E-01   2.82264181E-02   1.81404921E-08   4.03233872E-04   1.71374396E-06   3.93153025E-05   2.66804681E-03   2.13708080E-09
   4.63750000E+02   5.00000000E-01   5.00000000E-01  -3.63155006E-03   4.74545782E-11   4.79123099E-03   4.41995731E-02   1.58572321E-02   1.40522850E-03   8.36965642E-20   2.59311053E-07   9.07818049E-06   2.48135331E-05   1.41215229E-06   1.55558169E-04   8.57571412E-06   1.49100943E-09   1.17867139E-09   5.52951140E-01   6.85910269E-05   1.21041624E-02   1.35972744E-20   4.77778854E-01   2.82431036E-02   1.81510148E-08   4.03472084E-04   1.71475636E-06   3.93385282E-05   2.75669010E-03   2.14166821E-09
   4.81250000E+02   5.00000000E-01   5.00000000E-01  -3.57159967E-03   5.07061514E-11   4.79414134E-03   4.39467257E-02   1.60662507E-02   1.45535868E-03   9.37981684E-20   2.70307427E-07   9.08369705E-06   2.48286057E-05   1.41301008E-06   1.61437558E-04   8.89575613E-06   1.49408990E-09   1.17746111E-09   5.53287020E-01   6.86327215E-05   1.21115149E-02   2.16700521E-20   4.78056782E-01   2.82602702E-02   1.81618462E-08   4.03717166E-04   1.71579795E-06   3.93624237E-05   2.84754579E-03   2.14701236E-09
   4.98750000E+02   5.00000000E-01   5.00000000E-01  -3.50972824E-03   5.41341851E-11   4.79713214E-03   4.36931674E-02   1.62758108E-02   1.50527234E-03   1.04937890E-19   2.81511192E-07   9.08936604E-06   2.48440949E-05   1.41389158E-06   1.67328214E-04   9.21632271E-06   1.49719812E-09   1.17626806E-09   5.53632186E-01   6.86755678E-05   1.21190706E-02   3.43960835E-20   4.78343568E-01   2.82779112E-02   1.81729823E-08   4.03969023E-04   1.71686835E-06   3.93869797E-05   2.94065416E-03   2.15314680E-09
   5.16250000E+02   5.00000000E-01   5.00000000E-01  -3.44600217E-03   5.77449389E-11   4.80020234E-03   4.34389199E-02   1.64859185E-02   1.55496066E-03   1.17200862E-19   2.92918090E-07   9.09518547E-06   2.48599953E-05   1.41479648E-06   1.73230382E-04   9.53742726E-06   1.50033388E-09   1.17509189E-09   5.53986514E-01   6.87195509E-05   1.21268268E-02   5.43781736E-20   4.78639109E-01   2.82960205E-02   1.81844188E-08   4.04227566E-04   1.71796715E-06   3.94121876E-05   3.03606064E-03   2.16010142E-09
   5.33750000E+02   5.00000000E-01   5.00000000E-01  -3.38049877E-03   6.15447983E-11   4.80335095E-03   4.31840113E-02   1.66965799E-02   1.60441478E-03   1.30677303E-19   3.04523763E-07   9.10115347E-06   2.48763017E-05   1.41572449E-06   1.79144303E-04   9.85908307E-06   1.50349695E-09   1.17393226E-09   5.54349892E-01   6.87646565E-05   1.21347812E-02   8.56312334E-20   4.78943308E-01   2.83145922E-02   1.81961521E-08   4.04492711E-04   1.71909402E-06   3.94380394E-05   3.13381484E-03   2.16790260E-09
   5.51250000E+02   5.00000000E-01   5.00000000E-01  -3.31330549E-03   6.55404946E-11   4.80657704E-03   4.29284761E-02   1.69078015E-02   1.65362576E-03   1.45462996E-19   3.16323753E-07   9.10726829E-06   2.48930095E-05   1.41667534E-06   1.85070216E-04   1.01813033E-05   1.50668718E-09   1.17278886E-09   5.54722212E-01   6.88108716E-05   1.21429314E-02   1.34325126E-19   4.79256073E-01   2.83336209E-02   1.82081786E-08   4.04764382E-04   1.72024863E-06   3.94645273E-05   3.23396925E-03   2.17657344E-09
   5.68750000E+02   5.00000000E-01   5.00000000E-01  -3.24451936E-03   6.97392636E-11   4.80987977E-03   4.26723543E-02   1.71195895E-02   1.70258472E-03   1.61659745E-19   3.28313510E-07   9.11352831E-06   2.49101142E-05   1.41764877E-06   1.91008358E-04   1.05041009E-05   1.50990439E-09   1.17166138E-09   5.55103376E-01   6.88581837E-05   1.21512751E-02   2.09906346E-19   4.79577318E-01   2.83531014E-02   1.82204952E-08   4.05042507E-04   1.72143065E-06   3.94916444E-05   3.33657836E-03   2.18613381E-09
   5.86250000E+02   5.00000000E-01   5.00000000E-01  -3.17424690E-03   7.41488479E-11   4.81325833E-03   4.24156918E-02   1.73319503E-02   1.75128283E-03   1.79375664E-19   3.40488394E-07   9.11993202E-06   2.49276115E-05   1.41864456E-06   1.96958964E-04   1.08274888E-05   1.51314843E-09   1.17054954E-09   5.55493292E-01   6.89065816E-05   1.21598104E-02   3.26785618E-19   4.79906964E-01   2.83730292E-02   1.82330987E-08   4.05327017E-04   1.72263982E-06   3.95193842E-05   3.44169831E-03   2.19660065E-09
   6.03750000E+02   5.00000000E-01   5.00000000E-01  -3.10260439E-03   7.87773027E-11   4.81671197E-03   4.21585400E-02   1.75448906E-02   1.79971136E-03   1.98725160E-19   3.52843684E-07   9.12647800E-06   2.49454978E-05   1.41966248E-06   2.02922267E-04   1.11514799E-05   1.51641918E-09   1.16945307E-09   5.55891874E-01   6.89560545E-05   1.21685354E-02   5.06867726E-19   4.80244935E-01   2.83933997E-02   1.82459864E-08   4.05617850E-04   1.72387586E-06   3.95477404E-05   3.54938736E-03   2.20798805E-09
   6.21250000E+02   5.00000000E-01   5.00000000E-01  -3.02971830E-03   8.36326387E-11   4.82024002E-03   4.19009564E-02   1.77584167E-02   1.84786175E-03   2.19828601E-19   3.65374579E-07   9.13316496E-06   2.49637694E-05   1.42070232E-06   2.08898499E-04   1.14760868E-05   1.51971652E-09   1.16837171E-09   5.56299042E-01   6.90065925E-05   1.21774483E-02   7.83330093E-19   4.80591159E-01   2.84142090E-02   1.82591557E-08   4.05914949E-04   1.72513853E-06   3.95767075E-05   3.65970705E-03   2.22030742E-09
   6.38750000E+02   5.00000000E-01   5.00000000E-01  -2.95572546E-03   8.87224008E-11   4.82384182E-03   4.16430038E-02   1.79725354E-02   1.89572553E-03   2.42811744E-19   3.78076205E-07   9.13999166E-06   2.49824229E-05   1.42176391E-06   2.14887891E-04   1.18013222E-05   1.52304035E-09   1.16730522E-09   5.56714723E-01   6.90581865E-05   1.21865476E-02   1.20624597E-18   4.80945572E-01   2.84354532E-02   1.82726040E-08   4.06218259E-04   1.72642760E-06   3.96062802E-05   3.77272338E-03   2.23356769E-09
   6.56250000E+02   5.00000000E-01   5.00000000E-01  -2.88077263E-03   9.40533032E-11   4.82751678E-03   4.13847504E-02   1.81872533E-02   1.94329432E-03   2.67805112E-19   3.90943622E-07   9.14695700E-06   2.50014553E-05   1.42284705E-06   2.20890674E-04   1.21271988E-05   1.52639058E-09   1.16625337E-09   5.57138847E-01   6.91108279E-05   1.21958317E-02   1.85092283E-18   4.81308112E-01   2.84571289E-02   1.82863291E-08   4.06527729E-04   1.72774285E-06   3.96364536E-05   3.88850787E-03   2.24777542E-09
   6.73750000E+02   5.00000000E-01   5.00000000E-01  -2.80501530E-03   9.96310258E-11   4.83126436E-03   4.11262688E-02   1.84025771E-02   1.99055980E-03   2.94943489E-19   4.03971826E-07   9.15405991E-06   2.50208638E-05   1.42395160E-06   2.26907076E-04   1.24537290E-05   1.52976713E-09   1.16521593E-09   5.57571350E-01   6.91645089E-05   1.22052993E-02   2.83022352E-18   4.81678723E-01   2.84792327E-02   1.83003290E-08   4.06843314E-04   1.72908409E-06   3.96672232E-05   4.00713774E-03   2.26293496E-09
   6.91250000E+02   5.00000000E-01   5.00000000E-01  -2.72861581E-03   1.05460216E-10   4.83508403E-03   4.08676353E-02   1.86185137E-02   2.03751365E-03   3.24365708E-19   4.17155760E-07   9.16129944E-06   2.50406457E-05   1.42507740E-06   2.32937327E-04   1.27809252E-05   1.53316995E-09   1.16419270E-09   5.58012175E-01   6.92192221E-05   1.22149490E-02   4.31271037E-18   4.82057355E-01   2.85017617E-02   1.83146016E-08   4.07164971E-04   1.73045113E-06   3.96985847E-05   4.12869547E-03   2.27904861E-09
   7.08750000E+02   5.00000000E-01   5.00000000E-01  -2.65174117E-03   1.11544659E-10   4.83897534E-03   4.06089283E-02   1.88350698E-02   2.08414754E-03   3.56214716E-19   4.30490311E-07   9.16867470E-06   2.50607986E-05   1.42622431E-06   2.38981656E-04   1.31088001E-05   1.53659897E-09   1.16318347E-09   5.58461267E-01   6.92749609E-05   1.22247797E-02   6.54927438E-18   4.82443962E-01   2.85247132E-02   1.83291453E-08   4.07492660E-04   1.73184381E-06   3.97305344E-05   4.25326756E-03   2.29611673E-09
   7.26250000E+02   5.00000000E-01   5.00000000E-01  -2.57456080E-03   1.17887484E-10   4.84293785E-03   4.03502282E-02   1.90522524E-02   2.13045314E-03   3.90637733E-19   4.43970323E-07   9.17618487E-06   2.50813202E-05   1.42739221E-06   2.45040292E-04   1.34373658E-05   1.54005418E-09   1.16218807E-09   5.58918576E-01   6.93317190E-05   1.22347902E-02   9.91208675E-18   4.82838501E-01   2.85480844E-02   1.83439583E-08   4.07826345E-04   1.73326197E-06   3.97630687E-05   4.38094318E-03   2.31413792E-09
   7.43750000E+02   5.00000000E-01   5.00000000E-01  -2.49724487E-03   1.24491222E-10   4.84697116E-03   4.00916154E-02   1.92700685E-02   2.17642211E-03   4.27786121E-19   4.57590598E-07   9.18382921E-06   2.51022085E-05   1.42858097E-06   2.51113464E-04   1.37666348E-05   1.54353552E-09   1.16120632E-09   5.59384057E-01   6.93894909E-05   1.22449796E-02   1.49513807E-17   4.83240933E-01   2.85718732E-02   1.83590391E-08   4.08165993E-04   1.73470547E-06   3.97961843E-05   4.51181299E-03   2.33310909E-09
   7.61250000E+02   5.00000000E-01   5.00000000E-01  -2.41996329E-03   1.31357525E-10   4.85107492E-03   3.98331706E-02   1.94885249E-02   2.22204617E-03   4.67814469E-19   4.71345899E-07   9.19160701E-06   2.51234617E-05   1.42979050E-06   2.57201400E-04   1.40966193E-05   1.54704299E-09   1.16023803E-09   5.59857667E-01   6.94482712E-05   1.22553470E-02   2.24779334E-17   4.83651225E-01   2.85960773E-02   1.83743865E-08   4.08511572E-04   1.73617418E-06   3.98298783E-05   4.64596878E-03   2.35302567E-09
   7.78750000E+02   5.00000000E-01   5.00000000E-01  -2.34288543E-03   1.38486455E-10   4.85524879E-03   3.95749745E-02   1.97076287E-02   2.26731695E-03   5.10878512E-19   4.85230959E-07   9.19951767E-06   2.51450779E-05   1.43102070E-06   2.63304332E-04   1.44273317E-05   1.55057657E-09   1.15928306E-09   5.60339369E-01   6.95080554E-05   1.22658915E-02   3.36824374E-17   4.84069347E-01   2.86206949E-02   1.83899990E-08   4.08863056E-04   1.73766799E-06   3.98641479E-05   4.78350394E-03   2.37388165E-09
   7.96250000E+02   5.00000000E-01   5.00000000E-01  -2.26618006E-03   1.45875400E-10   4.85949247E-03   3.93171074E-02   1.99273868E-02   2.31222597E-03   5.57131758E-19   4.99240484E-07   9.20756061E-06   2.51670557E-05   1.43227147E-06   2.69422487E-04   1.47587843E-05   1.55413626E-09   1.15834125E-09   5.60829128E-01   6.95688390E-05   1.22766124E-02   5.03075985E-17   4.84495270E-01   2.86457242E-02   1.84058757E-08   4.09220419E-04   1.73918678E-06   3.98989908E-05   4.92451466E-03   2.39566972E-09
   8.13750000E+02   5.00000000E-01   5.00000000E-01  -2.19001517E-03   1.53517799E-10   4.86380570E-03   3.90596490E-02   2.01478065E-02   2.35676439E-03   6.06721076E-19   5.13369163E-07   9.21573533E-06   2.51893937E-05   1.43354273E-06   2.75556098E-04   1.50909892E-05   1.55772209E-09   1.15741246E-09   5.61326914E-01   6.96306184E-05   1.22875090E-02   7.48952725E-17   4.84928974E-01   2.86711635E-02   1.84220154E-08   4.09583638E-04   1.74073046E-06   3.99344047E-05   5.06910141E-03   2.41838140E-09
   8.31250000E+02   5.00000000E-01   5.00000000E-01  -2.11455711E-03   1.61401981E-10   4.86818824E-03   3.88026785E-02   2.03688947E-02   2.40092280E-03   6.59781833E-19   5.27611670E-07   9.22404137E-06   2.52120907E-05   1.43483443E-06   2.81705396E-04   1.54239587E-05   1.56133405E-09   1.15649655E-09   5.61832698E-01   6.96933900E-05   1.22985807E-02   1.11139959E-16   4.85370440E-01   2.86970114E-02   1.84384172E-08   4.09952694E-04   1.74229895E-06   3.99703876E-05   5.21736998E-03   2.44200705E-09
   8.48750000E+02   5.00000000E-01   5.00000000E-01  -2.03996889E-03   1.69510362E-10   4.87263986E-03   3.85462733E-02   2.05906586E-02   2.44469090E-03   7.16433281E-19   5.41962674E-07   9.23247833E-06   2.52351454E-05   1.43614649E-06   2.87870613E-04   1.57577050E-05   1.56497217E-09   1.15559341E-09   5.62346456E-01   6.97571507E-05   1.23098269E-02   1.64392436E-16   4.85819656E-01   2.87232668E-02   1.84550803E-08   4.10327568E-04   1.74389216E-06   4.00069378E-05   5.36943190E-03   2.46653605E-09
   8.66250000E+02   5.00000000E-01   5.00000000E-01  -1.96640771E-03   1.77819178E-10   4.87716040E-03   3.82905083E-02   2.08131056E-02   2.48805727E-03   7.76774806E-19   5.56416844E-07   9.24104584E-06   2.52585570E-05   1.43747885E-06   2.94051982E-04   1.60922401E-05   1.56863650E-09   1.15470292E-09   5.62868166E-01   6.98218979E-05   1.23212472E-02   2.42374545E-16   4.86276613E-01   2.87499284E-02   1.84720040E-08   4.10708244E-04   1.74551004E-06   4.00440538E-05   5.52540373E-03   2.49195683E-09
   8.83750000E+02   5.00000000E-01   5.00000000E-01  -1.89402219E-03   1.86298790E-10   4.88174967E-03   3.80354546E-02   2.10362431E-02   2.53100904E-03   8.40883406E-19   5.70968852E-07   9.24974360E-06   2.52823246E-05   1.43883148E-06   3.00249737E-04   1.64275763E-05   1.57232707E-09   1.15382498E-09   5.63397809E-01   6.98876293E-05   1.23328411E-02   3.56189800E-16   4.86741309E-01   2.87769953E-02   1.84891877E-08   4.11094709E-04   1.74715251E-06   4.00817341E-05   5.68540560E-03   2.51825697E-09
   9.01250000E+02   5.00000000E-01   5.00000000E-01  -1.82294956E-03   1.94914445E-10   4.88640754E-03   3.77811785E-02   2.12600784E-02   2.57353179E-03   9.08812434E-19   5.85613382E-07   9.25857135E-06   2.53064475E-05   1.44020433E-06   3.06464114E-04   1.67637256E-05   1.57604393E-09   1.15295951E-09   5.63935369E-01   6.99543427E-05   1.23446084E-02   5.21746917E-16   4.87213742E-01   2.88044666E-02   1.85066309E-08   4.11486951E-04   1.74881954E-06   4.01199777E-05   5.84955902E-03   2.54542333E-09
   9.18750000E+02   5.00000000E-01   5.00000000E-01  -1.75331331E-03   2.03627377E-10   4.89113389E-03   3.75277408E-02   2.14846192E-02   2.61560937E-03   9.80591465E-19   6.00345124E-07   9.26752886E-06   2.53309250E-05   1.44159736E-06   3.12695349E-04   1.71006999E-05   1.57978714E-09   1.15210645E-09   5.64480833E-01   7.00220367E-05   1.23565486E-02   7.61757589E-16   4.87693919E-01   2.88323418E-02   1.85243330E-08   4.11884959E-04   1.75051108E-06   4.01587835E-05   6.01798447E-03   2.57344205E-09
   9.36250000E+02   5.00000000E-01   5.00000000E-01  -1.68522147E-03   2.12396064E-10   4.89592864E-03   3.72751959E-02   2.17098731E-02   2.65722387E-03   1.05622704E-18   6.15158786E-07   9.27661596E-06   2.53557567E-05   1.44301055E-06   3.18943681E-04   1.74385114E-05   1.58355675E-09   1.15126575E-09   5.65034190E-01   7.00907097E-05   1.23686617E-02   1.10852989E-15   4.88181845E-01   2.88606201E-02   1.85422937E-08   4.12288727E-04   1.75222709E-06   4.01981509E-05   6.19079895E-03   2.60229873E-09
   9.53750000E+02   5.00000000E-01   5.00000000E-01  -1.61876558E-03   2.21177550E-10   4.90079170E-03   3.70235919E-02   2.19358479E-02   2.69835566E-03   1.13570407E-18   6.30049084E-07   9.28583250E-06   2.53809423E-05   1.44444387E-06   3.25209347E-04   1.77771718E-05   1.58735284E-09   1.15043741E-09   5.65595431E-01   7.01603609E-05   1.23809473E-02   1.60786001E-15   4.88677531E-01   2.88893011E-02   1.85605127E-08   4.12698248E-04   1.75396756E-06   4.02380792E-05   6.36811375E-03   2.63197845E-09
   9.71250000E+02   5.00000000E-01   5.00000000E-01  -1.55402039E-03   2.29928710E-10   4.90572302E-03   3.67729703E-02   2.21625513E-02   2.73898345E-03   1.21898768E-18   6.45010753E-07   9.29517839E-06   2.54064813E-05   1.44589731E-06   3.31492589E-04   1.81166932E-05   1.59117548E-09   1.14962146E-09   5.66164550E-01   7.02309893E-05   1.23934054E-02   2.32443431E-15   4.89180988E-01   2.89183844E-02   1.85789899E-08   4.13113518E-04   1.75573245E-06   4.02785680E-05   6.55003259E-03   2.66246587E-09
   9.88750000E+02   5.00000000E-01   5.00000000E-01  -1.49104406E-03   2.38607397E-10   4.91072257E-03   3.65233664E-02   2.23899912E-02   2.77908443E-03   1.30602532E-18   6.60038541E-07   9.30465355E-06   2.54323737E-05   1.44737086E-06   3.37793648E-04   1.84570873E-05   1.59502476E-09   1.14881800E-09   5.66741543E-01   7.03025945E-05   1.24060358E-02   3.34930058E-15   4.89692228E-01   2.89478698E-02   1.85977250E-08   4.13534532E-04   1.75752176E-06   4.03196169E-05   6.73665005E-03   2.69374531E-09