 TITLE = "Total Concentrations" 
VARIABLES = "X"          "Y"              "Z"            "H+"             "Al+++"          "CO2(aq)"        "Mg++"           "Ca++"           "Fe++"           "Fe+++"          "Ba++"           "Sr++"           "Cl-"            "F-"             "K+"             "Na+"            "SO4--"          "O2(aq)"         "B(OH)3(aq)"     "HPO4--"         "NO3-"           "H4SiO4(aq)"    
 ZONE I=         100 , J=           1 , K=           1  F=POINT
   1.75000000E+01   5.00000000E-01   5.00000000E-01  -4.60369759E-03   3.47346981E-11   4.75000053E-03   5.09707384E-02   1.04033878E-02   2.61146590E-05   7.49811523E-14   2.00000022E-07   9.00000100E-06   5.48166604E-01   6.80000076E-05   1.19894009E-02   4.74072425E-01   2.80000031E-02   1.80000020E-04   4.00000045E-04   1.70000019E-06   3.90000043E-05   2.68135794E-04
   5.25000000E+01   5.00000000E-01   5.00000000E-01  -4.56351083E-03   3.29783590E-11   4.75014842E-03   5.09008710E-02   1.04070988E-02   5.22034671E-05   1.26416174E-13   2.00006249E-07   9.00028122E-06   5.48183671E-01   6.80021248E-05   1.19767246E-02   4.74143864E-01   2.80008749E-02   1.80005624E-04   4.00012499E-04   1.70005312E-06   3.90012186E-05   3.46526297E-04
   8.75000000E+01   5.00000000E-01   5.00000000E-01  -4.53120214E-03   3.33763450E-11   4.75058151E-03   5.08414726E-02   1.04114353E-02   7.82964800E-05   1.86737365E-13   2.00024485E-07   9.00110182E-06   5.48233652E-01   6.80083248E-05   1.19653218E-02   4.74235990E-01   2.80034279E-02   1.80022036E-04   4.00048970E-04   1.70020812E-06   3.90047745E-05   4.01694026E-04
   1.22500000E+02   5.00000000E-01   5.00000000E-01  -4.50094882E-03   3.56685464E-11   4.75128379E-03   5.07876881E-02   1.04163629E-02   1.04397465E-04   2.47870794E-13   2.00054054E-07   9.00243244E-06   5.48314697E-01   6.80183784E-05   1.19551914E-02   4.74350717E-01   2.80075676E-02   1.80048649E-04   4.00108108E-04   1.70045946E-06   3.90105406E-05   4.44827298E-04
   1.57500000E+02   5.00000000E-01   5.00000000E-01  -4.47067416E-03   3.93480821E-11   4.75224091E-03   5.07374741E-02   1.04218507E-02   1.30509937E-04   3.08412818E-13   2.00094354E-07   9.00424593E-06   5.48425151E-01   6.80320803E-05   1.19461078E-02   4.74488511E-01   2.80132096E-02   1.80084919E-04   4.00188708E-04   1.70080201E-06   3.90183990E-05   4.81014994E-04
   1.92500000E+02   5.00000000E-01   5.00000000E-01  -4.43933941E-03   4.42385090E-11   4.75344002E-03   5.06896991E-02   1.04278710E-02   1.56637192E-04   3.68295901E-13   2.00144843E-07   9.00651793E-06   5.48563533E-01   6.80492466E-05   1.19378716E-02   4.74649209E-01   2.80202780E-02   1.80130359E-04   4.00289686E-04   1.70123117E-06   3.90282444E-05   5.12946162E-04
   2.27500000E+02   5.00000000E-01   5.00000000E-01  -4.40631162E-03   5.03148465E-11   4.75486958E-03   5.06436339E-02   1.04343992E-02   1.82782347E-04   4.27917212E-13   2.00205035E-07   9.00922658E-06   5.48728510E-01   6.80697119E-05   1.19303312E-02   4.74832363E-01   2.80287049E-02   1.80184532E-04   4.00410070E-04   1.70174280E-06   3.90399818E-05   5.42185815E-04
   2.62500000E+02   5.00000000E-01   5.00000000E-01  -4.37114657E-03   5.76314049E-11   4.75651919E-03   5.05987573E-02   1.04414127E-02   2.08948361E-04   4.87798032E-13   2.00274492E-07   9.01235216E-06   5.48918881E-01   6.80933274E-05   1.19233738E-02   4.75037401E-01   2.80384289E-02   1.80247043E-04   4.00548985E-04   1.70233318E-06   3.90535260E-05   5.69703398E-04
   2.97500000E+02   5.00000000E-01   5.00000000E-01  -4.33349896E-03   6.62925107E-11   4.75837947E-03   5.05546679E-02   1.04488925E-02   2.35138059E-04   5.48443856E-13   2.00352820E-07   9.01587689E-06   5.49133563E-01   6.81199587E-05   1.19169146E-02   4.75263704E-01   2.80493956E-02   1.80317538E-04   4.00705639E-04   1.70299897E-06   3.90687999E-05   5.96125492E-04
   3.32500000E+02   5.00000000E-01   5.00000000E-01  -4.29752113E-03   7.59292333E-11   4.76044193E-03   5.05135667E-02   2.55892960E-02   2.61357577E-04   1.13277487E-13   2.00439660E-07   9.01978471E-06   5.49371578E-01   6.81494844E-05   1.19109470E-02   4.75509975E-01   4.31940307E-02   1.80395694E-04   4.00879320E-04   1.70373711E-06   3.90857337E-05   6.22480001E-04
   3.67500000E+02   5.00000000E-01   5.00000000E-01  -4.25820305E-03   8.73082076E-11   4.76269889E-03   5.04726195E-02   3.75570997E-02   2.87609209E-04   6.24618719E-14   2.00534690E-07   9.02406106E-06   5.49632039E-01   6.81817946E-05   1.19054229E-02   4.75775972E-01   5.51667820E-02   1.80481221E-04   4.01069380E-04   1.70454487E-06   3.91042646E-05   6.47351088E-04
   4.02500000E+02   5.00000000E-01   5.00000000E-01  -4.21329366E-03   1.01055540E-10   4.76514339E-03   5.04303687E-02   3.91602040E-02   3.13893715E-04   6.34032692E-14   2.00637617E-07   9.02869275E-06   5.49914144E-01   6.82167896E-05   1.19002425E-02   4.76061603E-01   5.67755239E-02   1.80573855E-04   4.01275233E-04   1.70541974E-06   3.91243352E-05   6.71094080E-04
   4.37500000E+02   5.00000000E-01   5.00000000E-01  -4.16430791E-03   1.17072022E-10   4.76776912E-03   5.03874701E-02   3.85132381E-02   3.40213142E-04   7.10305289E-14   2.00748173E-07   9.03366780E-06   5.50217161E-01   6.82543790E-05   1.18953474E-02   4.76366346E-01   5.61348615E-02   1.80673356E-04   4.01496347E-04   1.70635947E-06   3.91458938E-05   6.94867311E-04
   4.72500000E+02   5.00000000E-01   5.00000000E-01  -4.11149235E-03   1.35487931E-10   4.77057031E-03   5.03439698E-02   3.74815881E-02   3.66569787E-04   8.08261585E-14   2.00866119E-07   9.03897533E-06   5.50540429E-01   6.82944803E-05   1.18907139E-02   4.76689669E-01   5.51101596E-02   1.80779507E-04   4.01732237E-04   1.70736201E-06   3.91688931E-05   7.18935480E-04
   5.07500000E+02   5.00000000E-01   5.00000000E-01  -4.05477402E-03   1.56582344E-10   4.77354176E-03   5.02997620E-02   3.63866624E-02   3.92965945E-04   9.21546971E-14   2.00991232E-07   9.04460543E-06   5.50883344E-01   6.83370188E-05   1.18863271E-02   4.77031079E-01   5.40228069E-02   1.80892109E-04   4.01982464E-04   1.70842547E-06   3.91932902E-05   7.43351972E-04
   5.42500000E+02   5.00000000E-01   5.00000000E-01  -3.99403919E-03   1.80695877E-10   4.77667868E-03   5.02547274E-02   3.52921929E-02   4.19403868E-04   1.05002217E-13   2.01123313E-07   9.05054908E-06   5.51245356E-01   6.83819264E-05   1.18821756E-02   4.77390121E-01   5.29365171E-02   1.81010982E-04   4.02246626E-04   1.70954816E-06   3.92190460E-05   7.68134570E-04
   5.77500000E+02   5.00000000E-01   5.00000000E-01  -3.92918400E-03   2.08213169E-10   4.77997675E-03   5.02087577E-02   3.42115202E-02   4.45885765E-04   1.19509561E-13   2.01262179E-07   9.05679806E-06   5.51625965E-01   6.84291409E-05   1.18782504E-02   4.77766380E-01   5.18646146E-02   1.81135961E-04   4.02524358E-04   1.71072852E-06   3.92461249E-05   7.93297441E-04
   6.12500000E+02   5.00000000E-01   5.00000000E-01  -3.86012827E-03   2.39561248E-10   4.78343201E-03   5.01617623E-02   3.31482242E-02   4.72413804E-04   1.35871161E-13   2.01407664E-07   9.06334486E-06   5.52024714E-01   6.84786056E-05   1.18745441E-02   4.78159473E-01   5.08106643E-02   1.81266897E-04   4.02815327E-04   1.71196514E-06   3.92744944E-05   8.18858666E-04
   6.47500000E+02   5.00000000E-01   5.00000000E-01  -3.78682151E-03   2.75211178E-10   4.78704085E-03   5.01136708E-02   3.21039082E-02   4.98990122E-04   1.54315456E-13   2.01559615E-07   9.07018267E-06   5.52441187E-01   6.85302691E-05   1.18710510E-02   4.78569047E-01   4.97762559E-02   1.81403653E-04   4.03119230E-04   1.71325673E-06   3.93041249E-05   8.44842526E-04
   6.82500000E+02   5.00000000E-01   5.00000000E-01  -3.70924704E-03   3.15680379E-10   4.79079999E-03   5.00644355E-02   3.10796662E-02   5.25616826E-04   1.75104337E-13   2.01717894E-07   9.07730523E-06   5.52875003E-01   6.85840840E-05   1.18677671E-02   4.78994777E-01   4.87624709E-02   1.81546105E-04   4.03435788E-04   1.71460210E-06   3.93349894E-05   8.71280590E-04
   7.17500000E+02   5.00000000E-01   5.00000000E-01  -3.62742566E-03   3.61535015E-10   4.79470640E-03   5.00140323E-02   3.00763622E-02   5.52296004E-04   1.98537495E-13   2.01882375E-07   9.08470687E-06   5.53325818E-01   6.86400075E-05   1.18646894E-02   4.79436362E-01   4.77701620E-02   1.81694137E-04   4.03764750E-04   1.71600019E-06   3.93670631E-05   8.98212423E-04
   7.52500000E+02   5.00000000E-01   5.00000000E-01  -3.54147253E-03   4.14909784E-10   4.79875737E-03   4.99626243E-02   2.90946904E-02   5.79029750E-04   2.23539704E-13   2.02052942E-07   9.09238239E-06   5.53793314E-01   6.86980003E-05   1.18616809E-02   4.79893385E-01   4.68000127E-02   1.81847648E-04   4.04105884E-04   1.71745001E-06   3.94003237E-05   9.25281101E-04
   7.87500000E+02   5.00000000E-01   5.00000000E-01  -3.45147739E-03   4.71993440E-10   4.80295040E-03   4.99099433E-02   2.81352026E-02   6.05820059E-04   2.54680534E-13   2.02229490E-07   9.10032707E-06   5.54277203E-01   6.87580267E-05   1.18590184E-02   4.80365886E-01   4.58525655E-02   1.82006541E-04   4.04458981E-04   1.71895067E-06   3.94347506E-05   9.53507614E-04
   8.22500000E+02   5.00000000E-01   5.00000000E-01  -3.35742161E-03   5.37642278E-10   4.80728320E-03   4.98561021E-02   2.71983123E-02   6.32669048E-04   2.88584569E-13   2.02411924E-07   9.10853659E-06   5.54777224E-01   6.88200543E-05   1.18565758E-02   4.80853461E-01   4.49282253E-02   1.82170732E-04   4.04823849E-04   1.72050136E-06   3.94703252E-05   9.82355832E-04
   8.57500000E+02   5.00000000E-01   5.00000000E-01  -3.25962180E-03   6.11386760E-10   4.81175372E-03   4.98012451E-02   2.62843181E-02   6.59578787E-04   3.26930784E-13   2.02600157E-07   9.11700704E-06   5.55293137E-01   6.88840532E-05   1.18543533E-02   4.81355881E-01   4.40272827E-02   1.82340141E-04   4.05200313E-04   1.72210133E-06   3.95070305E-05   1.01196212E-03
   8.92500000E+02   5.00000000E-01   5.00000000E-01  -3.15832440E-03   6.94028944E-10   4.81636006E-03   4.97454848E-02   2.53934107E-02   6.86551351E-04   3.70364070E-13   2.02794108E-07   9.12573486E-06   5.55824726E-01   6.89499967E-05   1.18523526E-02   4.81872929E-01   4.31499210E-02   1.82514697E-04   4.05588216E-04   1.72374992E-06   3.95448511E-05   1.04241021E-03
   9.27500000E+02   5.00000000E-01   5.00000000E-01  -3.05382167E-03   7.86443262E-10   4.82110054E-03   4.96889605E-02   2.45256850E-02   7.13588833E-04   4.19615875E-13   2.02993707E-07   9.13471681E-06   5.56371793E-01   6.90178603E-05   1.18505754E-02   4.82404402E-01   4.22962287E-02   1.82694336E-04   4.05987414E-04   1.72544651E-06   3.95837728E-05   1.07379122E-03
   9.62500000E+02   5.00000000E-01   5.00000000E-01  -2.94645170E-03   8.89563069E-10   4.82597359E-03   4.96318388E-02   2.36811505E-02   7.40693340E-04   4.75534928E-13   2.03198888E-07   9.14394996E-06   5.56934160E-01   6.90876219E-05   1.18490231E-02   4.82950111E-01   4.14662093E-02   1.82878999E-04   4.06397776E-04   1.72719055E-06   3.96237832E-05   1.10620356E-03
   9.97500000E+02   5.00000000E-01   5.00000000E-01  -2.83659597E-03   1.00438258E-09   4.83097783E-03   4.95743116E-02   2.28597413E-02   7.67867002E-04   5.39106805E-13   2.03409593E-07   9.15343167E-06   5.57511666E-01   6.91592615E-05   1.18476968E-02   4.83509874E-01   4.06597915E-02   1.83068633E-04   4.06819185E-04   1.72898154E-06   3.96648706E-05   1.13975191E-03
   1.03250000E+03   5.00000000E-01   5.00000000E-01  -2.72467569E-03   1.13195947E-09   4.83611199E-03   4.95165944E-02   2.20613251E-02   7.95111975E-04   6.11476343E-13   2.03625768E-07   9.16315956E-06   5.58104167E-01   6.92327612E-05   1.18465971E-02   4.84083523E-01   3.98768380E-02   1.83263191E-04   4.07251536E-04   1.73081903E-06   3.97070248E-05   1.17454601E-03
   1.06750000E+03   5.00000000E-01   5.00000000E-01  -2.61114700E-03   1.27341819E-09   4.84137496E-03   4.94589232E-02   2.12857113E-02   8.22430442E-04   6.93973517E-13   2.03847367E-07   9.17313150E-06   5.58711532E-01   6.93081047E-05   1.18457238E-02   4.84670899E-01   3.91171539E-02   1.83462630E-04   4.07694733E-04   1.73270262E-06   3.97502365E-05   1.21069924E-03
   1.10250000E+03   5.00000000E-01   5.00000000E-01  -2.49649500E-03   1.42995398E-09   4.84676572E-03   4.94015511E-02   2.05326588E-02   8.49824614E-04   7.88143282E-13   2.04074346E-07   9.18334558E-06   5.59333644E-01   6.93852777E-05   1.18450762E-02   4.85271852E-01   3.83804941E-02   1.83666912E-04   4.08148692E-04   1.73463194E-06   3.97944975E-05   1.24832700E-03
   1.13750000E+03   5.00000000E-01   5.00000000E-01  -2.38122665E-03   1.60283796E-09   4.85228339E-03   4.93447447E-02   1.98018828E-02   8.77296732E-04   8.95779902E-13   2.04306669E-07   9.19380010E-06   5.59970402E-01   6.94642674E-05   1.18446528E-02   4.85886244E-01   3.76665702E-02   1.83876002E-04   4.08613338E-04   1.73660669E-06   3.98398004E-05   1.28754496E-03
   1.17250000E+03   5.00000000E-01   5.00000000E-01  -2.26586280E-03   1.79342333E-09   4.85792716E-03   4.92887794E-02   1.90930614E-02   9.04849067E-04   1.01896636E-12   2.04544302E-07   9.20449357E-06   5.60621714E-01   6.95450626E-05   1.18444517E-02   4.86513944E-01   3.69750570E-02   1.84089871E-04   4.09088603E-04   1.73862656E-06   3.98861388E-05   1.32846714E-03
   1.20750000E+03   5.00000000E-01   5.00000000E-01  -2.15092937E-03   2.00315295E-09   4.86369637E-03   4.92339345E-02   1.84058407E-02   9.32483919E-04   1.16011946E-12   2.04787215E-07   9.21542469E-06   5.61287500E-01   6.96276532E-05   1.18444705E-02   4.87154832E-01   3.63055980E-02   1.84308494E-04   4.09574431E-04   1.74069133E-06   3.99335070E-05   1.37120394E-03
   1.24250000E+03   5.00000000E-01   5.00000000E-01  -2.03694810E-03   2.23356841E-09   4.86959040E-03   4.91804882E-02   1.77398407E-02   9.60203613E-04   1.32204128E-12   2.05035385E-07   9.22659233E-06   5.61967691E-01   6.97120309E-05   1.18447061E-02   4.87808799E-01   3.56578107E-02   1.84531847E-04   4.10070770E-04   1.74280077E-06   3.99819001E-05   1.41586008E-03
   1.27750000E+03   5.00000000E-01   5.00000000E-01  -1.92442706E-03   2.48632074E-09   4.87560875E-03   4.91287125E-02   1.70946595E-02   9.88010501E-04   1.50797766E-12   2.05288789E-07   9.23799552E-06   5.62662230E-01   6.97981884E-05   1.18451557E-02   4.88475744E-01   3.50312910E-02   1.84759910E-04   4.10577579E-04   1.74495471E-06   4.00313139E-05   1.46253267E-03
   1.31250000E+03   5.00000000E-01   5.00000000E-01  -1.81385130E-03   2.76318299E-09   4.88175099E-03   4.90788675E-02   1.64698775E-02   1.01590695E-03   1.72168451E-12   2.05547410E-07   9.24963346E-06   5.63371066E-01   6.98861194E-05   1.18458161E-02   4.89155576E-01   3.44256175E-02   1.84992669E-04   4.11094820E-04   1.74715299E-06   4.00817450E-05   1.51130926E-03
   1.34750000E+03   5.00000000E-01   5.00000000E-01  -1.70567405E-03   3.06606465E-09   4.88801678E-03   4.90311971E-02   1.58650614E-02   1.04389536E-03   1.96750274E-12   2.05811233E-07   9.26150548E-06   5.64094160E-01   6.99758192E-05   1.18466847E-02   4.89848217E-01   3.38403554E-02   1.85230110E-04   4.11622466E-04   1.74939548E-06   4.01331904E-05   1.56226617E-03
   1.38250000E+03   5.00000000E-01   5.00000000E-01  -1.60030868E-03   3.39702796E-09   4.89440585E-03   4.89859246E-02   1.52797672E-02   1.07197813E-03   2.25044268E-12   2.06080246E-07   9.27361108E-06   5.64831481E-01   7.00672837E-05   1.18477589E-02   4.90553596E-01   3.32750593E-02   1.85472222E-04   4.12160492E-04   1.75168209E-06   4.01856480E-05   1.61546706E-03
   1.41750000E+03   5.00000000E-01   5.00000000E-01  -1.49812201E-03   3.75830617E-09   4.90091798E-03   4.89432482E-02   1.47135433E-02   1.10015767E-03   2.57627907E-12   2.06354441E-07   9.28594986E-06   5.65583004E-01   7.01605100E-05   1.18490368E-02   4.91271656E-01   3.27292767E-02   1.85718997E-04   4.12708883E-04   1.75401275E-06   4.02391160E-05   1.67096180E-03
   1.45250000E+03   5.00000000E-01   5.00000000E-01  -1.39942888E-03   4.15232354E-09   4.90755305E-03   4.89033392E-02   1.41659332E-02   1.12843640E-03   2.95165784E-12   2.06633813E-07   9.29852156E-06   5.66348713E-01   7.02554963E-05   1.18505173E-02   4.92002347E-01   3.22025504E-02   1.85970431E-04   4.13267625E-04   1.75638741E-06   4.02935934E-05   1.72878578E-03
   1.48750000E+03   5.00000000E-01   5.00000000E-01  -1.30448858E-03   4.58171686E-09   4.91431098E-03   4.88663388E-02   1.36364779E-02   1.15681675E-03   3.38421611E-12   2.06918357E-07   9.31132606E-06   5.67128602E-01   7.03522413E-05   1.18521999E-02   4.92745634E-01   3.16944208E-02   1.86226521E-04   4.13836714E-04   1.75880603E-06   4.03490796E-05   1.78895959E-03
   1.52250000E+03   5.00000000E-01   5.00000000E-01  -1.21350281E-03   5.04935842E-09   4.92119175E-03   4.88323576E-02   1.31247176E-02   1.18530115E-03   3.88271711E-12   2.07208074E-07   9.32436332E-06   5.67922667E-01   7.04507451E-05   1.18540849E-02   4.93501489E-01   3.12044278E-02   1.86487266E-04   4.14416147E-04   1.76126863E-06   4.04055744E-05   1.85148923E-03
   1.55750000E+03   5.00000000E-01   5.00000000E-01  -1.12661552E-03   5.55838001E-09   4.92819542E-03   4.88014753E-02   1.26301939E-02   1.21389201E-03   4.45720214E-12   2.07502965E-07   9.33763343E-06   5.68730915E-01   7.05510081E-05   1.18561737E-02   4.94269895E-01   3.07321129E-02   1.86752669E-04   4.15005930E-04   1.76377520E-06   4.04630782E-05   1.91636663E-03
   1.59250000E+03   5.00000000E-01   5.00000000E-01  -1.04391426E-03   6.11219769E-09   4.93532209E-03   4.87737412E-02   1.21524512E-02   1.24259177E-03   5.11916200E-12   2.07803035E-07   9.35113659E-06   5.69553357E-01   7.06530320E-05   1.18584683E-02   4.95050847E-01   3.02770205E-02   1.87022732E-04   4.15606070E-04   1.76632580E-06   4.05215919E-05   1.98357063E-03
   1.62750000E+03   5.00000000E-01   5.00000000E-01  -9.65432968E-04   6.71453723E-09   4.94257190E-03   4.87491757E-02   1.16910377E-02   1.27140284E-03   5.88173079E-12   2.08108291E-07   9.36487308E-06   5.70390011E-01   7.07568188E-05   1.18609718E-02   4.95844348E-01   2.98386993E-02   1.87297462E-04   4.16216581E-04   1.76892047E-06   4.05811167E-05   2.05306823E-03
   1.66250000E+03   5.00000000E-01   5.00000000E-01  -8.91155902E-04   7.36945988E-09   4.94994507E-03   4.87277724E-02   1.12455072E-02   1.30032762E-03   6.75990546E-12   2.08418740E-07   9.37884330E-06   5.71240901E-01   7.08623716E-05   1.18636878E-02   4.96650412E-01   2.94167034E-02   1.87576866E-04   4.16837480E-04   1.77155929E-06   4.06416543E-05   2.12481612E-03
   1.69750000E+03   5.00000000E-01   5.00000000E-01  -8.21022450E-04   8.08138845E-09   4.95744186E-03   4.87095006E-02   1.08154194E-02   1.32936854E-03   7.77079494E-12   2.08734394E-07   9.39304773E-06   5.72106056E-01   7.09696940E-05   1.18666208E-02   4.97469061E-01   2.90105935E-02   1.87860955E-04   4.17468788E-04   1.77424235E-06   4.07032068E-05   2.19876227E-03
   1.73250000E+03   5.00000000E-01   5.00000000E-01  -7.54932457E-04   8.85513367E-09   4.96506256E-03   4.86943080E-02   1.04003414E-02   1.35852798E-03   8.93390347E-12   2.09055266E-07   9.40748695E-06   5.72985511E-01   7.10787903E-05   1.18697757E-02   4.98300326E-01   2.86199371E-02   1.88149739E-04   4.18110531E-04   1.77696976E-06   4.07657768E-05   2.27484769E-03
   1.76750000E+03   5.00000000E-01   5.00000000E-01  -6.92751827E-04   9.69592092E-09   4.97280752E-03   4.86821238E-02   9.99984751E-03   1.38780836E-03   1.02714528E-11   2.09381369E-07   9.42216162E-06   5.73879307E-01   7.11896656E-05   1.18731581E-02   4.99144248E-01   2.82443099E-02   1.88443232E-04   4.18762739E-04   1.77974164E-06   4.08293670E-05   2.35300807E-03
   1.80250000E+03   5.00000000E-01   5.00000000E-01  -6.34318114E-04   1.06094173E-08   4.98067715E-03   4.86728620E-02   9.61352051E-03   1.41721205E-03   1.18087493E-11   2.09712722E-07   9.43707249E-06   5.74787489E-01   7.13023255E-05   1.18767739E-02   5.00000872E-01   2.78832958E-02   1.88741450E-04   4.19425444E-04   1.78255814E-06   4.08939808E-05   2.43317538E-03
   1.83750000E+03   5.00000000E-01   5.00000000E-01  -5.79445895E-04   1.16017595E-08   4.98867187E-03   4.86664235E-02   9.24095161E-03   1.44674147E-03   1.35746019E-11   2.10049342E-07   9.45222038E-06   5.75710108E-01   7.14167762E-05   1.18806295E-02   5.00870253E-01   2.75364872E-02   1.89044408E-04   4.20098684E-04   1.78541941E-06   4.09596217E-05   2.51527931E-03
   1.87250000E+03   5.00000000E-01   5.00000000E-01  -5.27931757E-04   1.26795826E-08   4.99679217E-03   4.86626998E-02   8.88174088E-03   1.47639899E-03   1.56017984E-11   2.10391249E-07   9.46760621E-06   5.76647219E-01   7.15330247E-05   1.18847315E-02   5.01752453E-01   2.72034857E-02   1.89352124E-04   4.20782498E-04   1.78832562E-06   4.10262936E-05   2.59924853E-03
   1.90750000E+03   5.00000000E-01   5.00000000E-01  -4.79558780E-04   1.38500492E-08   5.00503857E-03   4.86615744E-02   8.53549741E-03   1.50618701E-03   1.79276470E-11   2.10738466E-07   9.48323097E-06   5.77598882E-01   7.16510784E-05   1.18890866E-02   5.02647539E-01   2.68839022E-02   1.89664619E-04   4.21476932E-04   1.79127696E-06   4.10940009E-05   2.68501168E-03
   1.94250000E+03   5.00000000E-01   5.00000000E-01  -4.34100446E-04   1.51208811E-08   5.01341163E-03   4.86629258E-02   8.20183942E-03   1.53610793E-03   2.05945935E-11   2.11091016E-07   9.49909571E-06   5.78565162E-01   7.17709454E-05   1.18937019E-02   5.03555584E-01   2.65773565E-02   1.89981914E-04   4.22182032E-04   1.79427363E-06   4.11627481E-05   2.77249830E-03
   1.97750000E+03   5.00000000E-01   5.00000000E-01  -3.91323942E-04   1.65003917E-08   5.02191195E-03   4.86666289E-02   7.88039430E-03   1.56616414E-03   2.36509214E-11   2.11448924E-07   9.51520159E-06   5.79546129E-01   7.18926342E-05   1.18985844E-02   5.04476667E-01   2.62834781E-02   1.90304032E-04   4.22897848E-04   1.79731586E-06   4.12325402E-05   2.86163933E-03
   2.01250000E+03   5.00000000E-01   5.00000000E-01  -3.50992868E-04   1.79975196E-08   5.03054018E-03   4.86725565E-02   7.57079858E-03   1.59635804E-03   2.71515480E-11   2.11812218E-07   9.53154981E-06   5.80541856E-01   7.20161541E-05   1.19037415E-02   5.05410872E-01   2.60019054E-02   1.90630996E-04   4.23624436E-04   1.80040385E-06   4.13033825E-05   2.95236763E-03
   2.04750000E+03   5.00000000E-01   5.00000000E-01  -3.12869364E-04   1.96218655E-08   5.03929698E-03   4.86805807E-02   7.27269784E-03   1.62669206E-03   3.11589266E-11   2.12180926E-07   9.54814165E-06   5.81552422E-01   7.21415147E-05   1.19091803E-02   5.06358287E-01   2.57322864E-02   1.90962833E-04   4.24361851E-04   1.80353787E-06   4.13752805E-05   3.04461811E-03
   2.08250000E+03   5.00000000E-01   5.00000000E-01  -2.76715703E-04   2.13837296E-08   5.04818308E-03   4.86905734E-02   6.98574664E-03   1.65716860E-03   3.57440682E-11   2.12555077E-07   9.56497847E-06   5.82577909E-01   7.22687262E-05   1.19149084E-02   5.07319006E-01   2.54742779E-02   1.91299569E-04   4.25110154E-04   1.80671816E-06   4.14482401E-05   3.13832791E-03
   2.11750000E+03   5.00000000E-01   5.00000000E-01  -2.42295402E-04   2.32941521E-08   5.05719923E-03   4.87024075E-02   6.70960830E-03   1.68779010E-03   4.09876978E-11   2.12934704E-07   9.58206170E-06   5.83618404E-01   7.23977995E-05   1.19209331E-02   5.08293126E-01   2.52275458E-02   1.91641234E-04   4.25869409E-04   1.80994499E-06   4.15222674E-05   3.23343622E-03
   2.15250000E+03   5.00000000E-01   5.00000000E-01  -2.09373911E-04   2.53649556E-08   5.06634622E-03   4.87159569E-02   6.44395480E-03   1.71855900E-03   4.69815591E-11   2.13319841E-07   9.59939283E-06   5.84673998E-01   7.25287458E-05   1.19272620E-02   5.09280748E-01   2.49917645E-02   1.91987857E-04   4.26639681E-04   1.81321865E-06   4.15973689E-05   3.32988419E-03
   2.18750000E+03   5.00000000E-01   5.00000000E-01  -1.77718929E-04   2.76087894E-08   5.07562486E-03   4.87310970E-02   6.18846652E-03   1.74947775E-03   5.38298860E-11   2.13710520E-07   9.61697341E-06   5.85744786E-01   7.26615769E-05   1.19339027E-02   5.10281978E-01   2.47666172E-02   1.92339468E-04   4.27421041E-04   1.81653942E-06   4.16735515E-05   3.42761455E-03
   2.22250000E+03   5.00000000E-01   5.00000000E-01  -1.47100413E-04   3.00391771E-08   5.08503602E-03   4.87477043E-02   5.94283209E-03   1.78054882E-03   6.16510583E-11   2.14106780E-07   9.63480509E-06   5.86830866E-01   7.27963051E-05   1.19408627E-02   5.11296923E-01   2.45517955E-02   1.92696102E-04   4.28213559E-04   1.81990763E-06   4.17508220E-05   3.52657135E-03
   2.25750000E+03   5.00000000E-01   5.00000000E-01  -1.17290318E-04   3.26705657E-08   5.09458059E-03   4.87656570E-02   5.70674815E-03   1.81177471E-03   7.05794603E-11   2.14508656E-07   9.65288954E-06   5.87932343E-01   7.29329432E-05   1.19481499E-02   5.12325698E-01   2.43469989E-02   1.93057791E-04   4.29017313E-04   1.82332358E-06   4.18291880E-05   3.62669948E-03
   2.29250000E+03   5.00000000E-01   5.00000000E-01  -8.80621321E-05   3.55183774E-08   5.10425951E-03   4.87848342E-02   5.47991911E-03   1.84315792E-03   8.07675645E-11   2.14916190E-07   9.67122854E-06   5.89049324E-01   7.30715045E-05   1.19557720E-02   5.13368416E-01   2.41519349E-02   1.93424571E-04   4.29832379E-04   1.82678761E-06   4.19086570E-05   3.72794422E-03
   2.32750000E+03   5.00000000E-01   5.00000000E-01  -5.91902303E-05   3.85990642E-08   5.11407373E-03   4.88051159E-02   5.26205700E-03   1.87470097E-03   9.23882602E-11   2.15329420E-07   9.68982390E-06   5.90181919E-01   7.32120028E-05   1.19637368E-02   5.14425198E-01   2.39663189E-02   1.93796478E-04   4.30658840E-04   1.83030007E-06   4.19892369E-05   3.83025076E-03
   2.36250000E+03   5.00000000E-01   5.00000000E-01  -3.04490986E-05   4.19301646E-08   5.12402425E-03   4.88263824E-02   5.05288120E-03   1.90640641E-03   1.05637449E-10   2.15748389E-07   9.70867753E-06   5.91330244E-01   7.33544524E-05   1.19720524E-02   5.15496166E-01   2.37898736E-02   1.94173551E-04   4.31496779E-04   1.83386131E-06   4.20709359E-05   3.93356368E-03
   2.39750000E+03   5.00000000E-01   5.00000000E-01  -1.61245055E-06   4.55303625E-08   5.13411211E-03   4.88485141E-02   4.85211827E-03   1.93827683E-03   1.20736933E-10   2.16173141E-07   9.72779136E-06   5.92494418E-01   7.34988681E-05   1.19807268E-02   5.16581446E-01   2.36223289E-02   1.94555827E-04   4.32346283E-04   1.83747170E-06   4.21537626E-05   4.03782643E-03
   2.43250000E+03   5.00000000E-01   5.00000000E-01   2.75477320E-05   4.94195495E-08   5.14433837E-03   4.88713910E-02   4.65950173E-03   1.97031482E-03   1.37937610E-10   2.16603721E-07   9.74716744E-06   5.93674565E-01   7.36452651E-05   1.19897682E-02   5.17681167E-01   2.34634221E-02   1.94943349E-04   4.33207442E-04   1.84113163E-06   4.22377256E-05   4.14298081E-03
   2.46750000E+03   5.00000000E-01   5.00000000E-01   5.72622100E-05   5.36188881E-08   5.15470414E-03   4.88948918E-02   4.47477191E-03   2.00252300E-03   1.57523004E-10   2.17040174E-07   9.76680784E-06   5.94870810E-01   7.37936592E-05   1.19991849E-02   5.18795461E-01   2.33128972E-02   1.95336157E-04   4.34080348E-04   1.84484148E-06   4.23228340E-05   4.24896642E-03
   2.50250000E+03   5.00000000E-01   5.00000000E-01   8.77655288E-05   5.81508789E-08   5.16521054E-03   4.89188941E-02   4.29767573E-03   2.03490404E-03   1.79813150E-10   2.17482549E-07   9.78671472E-06   5.96083286E-01   7.39440667E-05   1.20089851E-02   5.19924465E-01   2.31705049E-02   1.95734294E-04   4.34965098E-04   1.84860167E-06   4.24090971E-05   4.35572016E-03
   2.53750000E+03   5.00000000E-01   5.00000000E-01   1.19297072E-04   6.30394284E-08   5.17585876E-03   4.89432729E-02   4.12796658E-03   2.06746063E-03   2.05168838E-10   2.17930895E-07   9.80689028E-06   5.97312127E-01   7.40965044E-05   1.20191775E-02   5.21068316E-01   2.30360027E-02   1.96137806E-04   4.35861790E-04   1.85241261E-06   4.24965246E-05   4.46317575E-03
   2.57250000E+03   5.00000000E-01   5.00000000E-01   1.52102106E-04   6.83099201E-08   5.18664999E-03   4.89679011E-02   3.96540417E-03   2.10019549E-03   2.33996249E-10   2.18385263E-07   9.82733682E-06   5.98557472E-01   7.42509893E-05   1.20297706E-02   5.22227158E-01   2.29091543E-02   1.96546736E-04   4.36770525E-04   1.85627473E-06   4.25851262E-05   4.57126321E-03
   2.60750000E+03   5.00000000E-01   5.00000000E-01   1.86432807E-04   7.39892871E-08   5.19758547E-03   4.89926481E-02   3.80975435E-03   2.13311138E-03   2.66751961E-10   2.18845704E-07   9.84805668E-06   5.99819465E-01   7.44075393E-05   1.20407731E-02   5.23401137E-01   2.27897297E-02   1.96961134E-04   4.37691408E-04   1.86018848E-06   4.26749123E-05   4.67990843E-03
   2.64250000E+03   5.00000000E-01   5.00000000E-01   2.22549236E-04   8.01060864E-08   5.20866647E-03   4.90173797E-02   3.66078905E-03   2.16621109E-03   3.03948353E-10   2.19312273E-07   9.86905227E-06   6.01098252E-01   7.45661727E-05   1.20521938E-02   5.24590402E-01   2.26775053E-02   1.97381045E-04   4.38624545E-04   1.86415432E-06   4.27658932E-05   4.78903271E-03
   2.67750000E+03   5.00000000E-01   5.00000000E-01   2.60720271E-04   8.66905751E-08   5.21989431E-03   4.90419579E-02   3.51828613E-03   2.19949747E-03   3.46159365E-10   2.19785024E-07   9.89032607E-06   6.02393983E-01   7.47269081E-05   1.20640418E-02   5.25795105E-01   2.25722634E-02   1.97806521E-04   4.39570047E-04   1.86817270E-06   4.28580796E-05   4.89855243E-03
   2.71250000E+03   5.00000000E-01   5.00000000E-01   3.01224451E-04   9.37747873E-08   5.23127033E-03   4.90662396E-02   3.38202929E-03   2.23297340E-03   3.94026612E-10   2.20264014E-07   9.91188062E-06   6.03706815E-01   7.48897647E-05   1.20763260E-02   5.27015403E-01   2.24737923E-02   1.98237612E-04   4.40528028E-04   1.87224412E-06   4.29514827E-05   5.00837864E-03