 TITLE = "Total Concentrations" 
VARIABLES = "X"          "Y"              "Z"            "H+"             "Al+++"          "CO2(aq)"        "Mg++"           "Ca++"           "Fe++"           "Fe+++"          "Ba++"           "Sr++"           "Li+"            "Rb+"            "Mn++"           "Zn++"           "Cu++"           "Cu+"            "Cl-"            "F-"             "K+"             "HS-"            "Na+"            "SO4--"          "O2(aq)"         "B(OH)3(aq)"     "HPO4--"         "NO3-"           "H4SiO4(aq)"     "Ti(OH)4(aq)"   
 ZONE I=         200 , J=           1 , K=           1  F=POINT
   8.75000000E+00   5.00000000E-01   5.00000000E-01  -4.69798569E-03   4.48268599E-13   4.74997155E-03   5.08008613E-02   1.05989102E-02   5.29950964E-05   1.24629713E-22   1.19205867E-07   8.99994824E-06   2.45998526E-05   1.39999161E-06   5.85148558E-06   3.88254338E-07   1.42214624E-09   1.21807217E-09   5.48189429E-01   6.79996183E-05   1.19999281E-02   1.14649804E-25   4.74035134E-01   2.79997515E-02   1.79996986E-08   3.99997604E-04   1.69998982E-06   3.89997664E-05   4.31404911E-04   2.09508224E-09
   2.62500000E+01   5.00000000E-01   5.00000000E-01  -4.61787935E-03   1.79530748E-12   4.74999810E-03   5.04871022E-02   1.07980308E-02   1.05957849E-04   5.77344663E-22   8.92498398E-08   9.00000071E-06   2.45999902E-05   1.39999944E-06   1.16995117E-05   7.00541143E-07   1.42430895E-09   1.21615805E-09   5.48192494E-01   6.80000246E-05   1.19999952E-02   1.36872174E-26   4.74069370E-01   2.79998781E-02   1.79996056E-08   3.99999840E-04   1.69999932E-06   3.89999844E-05   6.55522620E-04   2.10089996E-09
   4.37500000E+01   5.00000000E-01   5.00000000E-01  -4.56678700E-03   3.08420146E-12   4.75018787E-03   5.01928843E-02   1.09976308E-02   1.58894584E-04   1.22962706E-21   7.92485199E-08   9.00036241E-06   2.46009730E-05   1.40005537E-06   1.75533225E-05   1.01287218E-06   1.42652070E-09   1.21428509E-09   5.48214394E-01   6.80027675E-05   1.20004746E-02   3.13406087E-26   4.74112969E-01   2.80009867E-02   1.80001310E-08   4.00015821E-04   1.70006724E-06   3.90015425E-05   8.69917117E-04   2.10602798E-09
   6.12500000E+01   5.00000000E-01   5.00000000E-01  -4.52866418E-03   4.13184850E-12   4.75053372E-03   4.99120419E-02   1.11977227E-02   2.11794614E-04   1.97458828E-21   7.76735573E-08   9.00101986E-06   2.46027641E-05   1.40015731E-06   2.34142234E-05   1.32527274E-06   1.42877956E-09   1.21245119E-09   5.48254309E-01   6.80077454E-05   1.20013483E-02   6.39979109E-26   4.74161323E-01   2.80030238E-02   1.80012477E-08   4.00044945E-04   1.70019102E-06   3.90043821E-05   1.05464785E-03   2.11027755E-09
   7.87500000E+01   5.00000000E-01   5.00000000E-01  -4.49525933E-03   5.19524375E-12   4.75102913E-03   4.96408644E-02   1.13983171E-02   2.64655432E-04   2.82918453E-21   7.99159255E-08   9.00196068E-06   2.46053298E-05   1.40030332E-06   2.92829032E-05   1.63777009E-06   1.43108379E-09   1.21065449E-09   5.48311483E-01   6.80148645E-05   1.20025999E-02   1.24285951E-25   4.74212771E-01   2.80059463E-02   1.80029311E-08   4.00086663E-04   1.70036832E-06   3.90084497E-05   1.20273579E-03   2.11369648E-09
   9.62500000E+01   5.00000000E-01   5.00000000E-01  -4.46439890E-03   6.33508442E-12   4.75166807E-03   4.93774901E-02   1.15994186E-02   3.17475205E-04   3.79165291E-21   8.40350401E-08   9.00317345E-06   2.46086388E-05   1.40049164E-06   3.51596147E-05   1.95039017E-06   1.43343177E-09   1.20889330E-09   5.48385222E-01   6.80240386E-05   1.20042140E-02   2.33768860E-25   4.74268104E-01   2.80097168E-02   1.80051582E-08   4.00140469E-04   1.70059699E-06   3.90136957E-05   1.31780653E-03   2.11636189E-09
   1.13750000E+02   5.00000000E-01   5.00000000E-01  -4.43544314E-03   7.51507365E-12   4.75244499E-03   4.91201966E-02   1.18010275E-02   3.70249298E-04   4.84360469E-21   8.91774158E-08   9.00464767E-06   2.46126625E-05   1.40072063E-06   4.10443627E-05   2.26315732E-06   1.43582201E-09   1.20716608E-09   5.48474886E-01   6.80351884E-05   1.20061768E-02   4.28959155E-25   4.74329446E-01   2.80143017E-02   1.80079081E-08   4.00205894E-04   1.70087505E-06   3.90200747E-05   1.40838417E-03   2.11834716E-09
   1.31250000E+02   5.00000000E-01   5.00000000E-01  -4.40769386E-03   8.70550959E-12   4.75335479E-03   4.88672129E-02   1.20031406E-02   4.22970656E-04   5.97995540E-21   9.49526945E-08   9.00637365E-06   2.46173743E-05   1.40098878E-06   4.69370467E-05   2.57609463E-06   1.43825316E-09   1.20547144E-09   5.48579885E-01   6.80482406E-05   1.20084752E-02   7.72182169E-25   4.74399023E-01   2.80196704E-02   1.80111613E-08   4.00282508E-04   1.70120066E-06   3.90275446E-05   1.48316121E-03   2.11972551E-09
   1.48750000E+02   5.00000000E-01   5.00000000E-01  -4.38041624E-03   9.89673759E-12   4.75439272E-03   4.86170373E-02   1.22057538E-02   4.75630711E-04   7.21144810E-21   1.01175689E-07   9.00834243E-06   2.46227497E-05   1.40129470E-06   5.28375513E-05   2.88922423E-06   1.44072397E-09   1.20380807E-09   5.48699672E-01   6.80631275E-05   1.20110973E-02   1.36965124E-24   4.74478539E-01   2.80257950E-02   1.80148999E-08   4.00369914E-04   1.70157213E-06   3.90360666E-05   1.54897097E-03   2.12057302E-09
   1.66250000E+02   5.00000000E-01   5.00000000E-01  -4.35298231E-03   1.10914100E-11   4.75555443E-03   4.83685592E-02   1.24088630E-02   5.28219991E-04   8.55828752E-21   1.07755356E-07   9.01054572E-06   2.46287661E-05   1.40163710E-06   5.87457948E-05   3.20256741E-06   1.44323328E-09   1.20217476E-09   5.48833744E-01   6.80797864E-05   1.20140322E-02   2.40144492E-24   4.74569070E-01   2.80326495E-02   1.80191074E-08   4.00467742E-04   1.70198790E-06   3.90456048E-05   1.61051001E-03   2.12096916E-09
   1.83750000E+02   5.00000000E-01   5.00000000E-01  -4.32490448E-03   1.22982973E-11   4.75683587E-03   4.81210146E-02   1.26124648E-02   5.80728482E-04   1.00454139E-20   1.14645249E-07   9.01297586E-06   2.46354026E-05   1.40201478E-06   6.46617502E-05   3.51614473E-06   1.44578004E-09   1.20057039E-09   5.48981633E-01   6.80981595E-05   1.20172695E-02   4.17122974E-24   4.74671179E-01   2.80402100E-02   1.80237684E-08   4.00575652E-04   1.70244652E-06   3.90561261E-05   1.67074591E-03   2.12099605E-09
   2.01250000E+02   5.00000000E-01   5.00000000E-01  -4.29581778E-03   1.35287913E-11   4.75823327E-03   4.78738953E-02   1.28165567E-02   6.33145876E-04   1.17001949E-20   1.21820636E-07   9.01562574E-06   2.46426397E-05   1.40242665E-06   7.05854497E-05   3.82997609E-06   1.44836326E-09   1.19899390E-09   5.49142906E-01   6.81181930E-05   1.20207998E-02   7.18840178E-24   4.74785074E-01   2.80484545E-02   1.80288687E-08   4.00693328E-04   1.70294664E-06   3.90675995E-05   1.73144200E-03   2.12073758E-09
   2.18750000E+02   5.00000000E-01   5.00000000E-01  -4.26545113E-03   1.47950132E-11   4.75974317E-03   4.76268666E-02   1.30211373E-02   6.85461728E-04   1.35515777E-20   1.29267618E-07   9.01848876E-06   2.46504593E-05   1.40287167E-06   7.65169798E-05   4.14408076E-06   1.45098204E-09   1.19744431E-09   5.49317162E-01   6.81398370E-05   1.20246142E-02   1.23031271E-23   4.74910744E-01   2.80573623E-02   1.80343950E-08   4.00820477E-04   1.70348703E-06   3.90799965E-05   1.79358983E-03   2.12027836E-09
   2.36250000E+02   5.00000000E-01   5.00000000E-01  -4.23360176E-03   1.61088289E-11   4.76136232E-03   4.73797059E-02   1.32262060E-02   7.37665574E-04   1.56299492E-20   1.36977789E-07   9.02155880E-06   2.46588449E-05   1.40334889E-06   8.24564739E-05   4.45847742E-06   1.45363554E-09   1.19592070E-09   5.49504027E-01   6.81630454E-05   1.20287047E-02   2.09272631E-23   4.75048049E-01   2.80669144E-02   1.80403352E-08   4.00956827E-04   1.70406651E-06   3.90932906E-05   1.85771246E-03   2.11970285E-09
   2.53750000E+02   5.00000000E-01   5.00000000E-01  -4.20011595E-03   1.74813627E-11   4.76308773E-03   4.71322619E-02   1.34317630E-02   7.89746999E-04   1.79672790E-20   1.44945551E-07   9.02483016E-06   2.46677806E-05   1.40385744E-06   8.84041025E-05   4.77318423E-06   1.45632301E-09   1.19442219E-09   5.49703154E-01   6.81877750E-05   1.20330636E-02   3.53940197E-23   4.75196784E-01   2.80770932E-02   1.80466778E-08   4.01102124E-04   1.70468403E-06   3.91074571E-05   1.92406096E-03   2.11909445E-09
   2.71250000E+02   5.00000000E-01   5.00000000E-01  -4.16487564E-03   1.89227839E-11   4.76491659E-03   4.68844281E-02   1.36378096E-02   8.41695675E-04   2.05973446E-20   1.53166733E-07   9.02829756E-06   2.46772523E-05   1.40439647E-06   9.43600656E-05   5.08821881E-06   1.45904371E-09   1.19294798E-09   5.49914222E-01   6.82139858E-05   1.20376839E-02   5.95406684E-23   4.75356713E-01   2.80878820E-02   1.80534122E-08   4.01256134E-04   1.70533857E-06   3.91224731E-05   1.99273603E-03   2.11853482E-09
   2.88750000E+02   5.00000000E-01   5.00000000E-01  -4.12778937E-03   2.04422357E-11   4.76684632E-03   4.66361266E-02   1.38443474E-02   8.93501363E-04   2.35559530E-20   1.61637858E-07   9.03195606E-06   2.46872462E-05   1.40496523E-06   1.00324585E-04   5.40359832E-06   1.46179701E-09   1.19149729E-09   5.50136930E-01   6.82416407E-05   1.20425590E-02   9.96481145E-23   4.75527593E-01   2.80992656E-02   1.80605286E-08   4.01418638E-04   1.70602921E-06   3.91383172E-05   2.06376113E-03   2.11810326E-09
   3.06250000E+02   5.00000000E-01   5.00000000E-01  -4.08878633E-03   2.20478408E-11   4.76887449E-03   4.63872980E-02   1.40513789E-02   9.45153898E-04   2.68811324E-20   1.70355761E-07   9.03580107E-06   2.46977500E-05   1.40556301E-06   1.06297897E-04   5.71933948E-06   1.46458229E-09   1.19006942E-09   5.50370998E-01   6.82707050E-05   1.20476828E-02   1.65948726E-22   4.75709185E-01   2.81112298E-02   1.80680177E-08   4.01589430E-04   1.70675508E-06   3.91549695E-05   2.13712533E-03   2.11787615E-09
   3.23750000E+02   5.00000000E-01   5.00000000E-01  -4.04781248E-03   2.37467575E-11   4.77099883E-03   4.61378952E-02   1.42589072E-02   9.96643149E-04   3.06132988E-20   1.79317373E-07   9.03982833E-06   2.47087519E-05   1.40618913E-06   1.12280250E-04   6.03545858E-06   1.46739899E-09   1.18866368E-09   5.50616167E-01   6.83011463E-05   1.20530496E-02   2.75034846E-22   4.75901261E-01   2.81237611E-02   1.80758711E-08   4.01768323E-04   1.70751537E-06   3.91724115E-05   2.21280744E-03   2.11792658E-09
   3.41250000E+02   5.00000000E-01   5.00000000E-01  -4.00482781E-03   2.55452829E-11   4.77321726E-03   4.58878804E-02   1.44669358E-02   1.04795897E-03   3.47954196E-20   1.88519608E-07   9.04403384E-06   2.47202410E-05   1.40684298E-06   1.18271901E-04   6.35197154E-06   1.47024659E-09   1.18727944E-09   5.50872193E-01   6.83329345E-05   1.20586540E-02   4.53688427E-22   4.76103607E-01   2.81368473E-02   1.80840807E-08   4.01955138E-04   1.70830933E-06   3.91906259E-05   2.29078882E-03   2.11832400E-09
   3.58750000E+02   5.00000000E-01   5.00000000E-01  -3.95980435E-03   2.74490126E-11   4.77552780E-03   4.56372226E-02   1.46754686E-02   1.09909113E-03   3.94732025E-20   1.97959306E-07   9.04841389E-06   2.47322071E-05   1.40752398E-06   1.24273108E-04   6.66889391E-06   1.47312463E-09   1.18591610E-09   5.51138850E-01   6.83660415E-05   1.20644911E-02   7.44943216E-22   4.76316025E-01   2.81504766E-02   1.80926391E-08   4.02149709E-04   1.70913626E-06   3.92095967E-05   2.37105915E-03   2.11913399E-09
   3.76250000E+02   5.00000000E-01   5.00000000E-01  -3.91272467E-03   2.94630503E-11   4.77792862E-03   4.53858967E-02   1.48845102E-02   1.15002932E-03   4.46953344E-20   2.07633197E-07   9.05296501E-06   2.47446409E-05   1.40823159E-06   1.30284136E-04   6.98624091E-06   1.47603265E-09   1.18457311E-09   5.51415927E-01   6.84004411E-05   1.20705564E-02   1.21763929E-21   4.76538330E-01   2.81646384E-02   1.81015393E-08   4.02351884E-04   1.70999551E-06   3.92293087E-05   2.45361790E-03   2.12041811E-09
   3.93750000E+02   5.00000000E-01   5.00000000E-01  -3.86358074E-03   3.15922379E-11   4.78041802E-03   4.51338829E-02   1.50940652E-02   1.20076307E-03   5.05137633E-20   2.17537887E-07   9.05768396E-06   2.47575333E-05   1.40896531E-06   1.36305249E-04   7.30402747E-06   1.47897025E-09   1.18324992E-09   5.51703226E-01   6.84361089E-05   1.20768454E-02   1.98141802E-21   4.76770352E-01   2.81793226E-02   1.81107749E-08   4.02561517E-04   1.71088645E-06   3.92497480E-05   2.53847354E-03   2.12223382E-09
   4.11250000E+02   5.00000000E-01   5.00000000E-01  -3.81237337E-03   3.38413525E-11   4.78299440E-03   4.48811664E-02   1.53041387E-02   1.25128176E-03   5.69839855E-20   2.27669852E-07   9.06256771E-06   2.47708762E-05   1.40972466E-06   1.42336711E-04   7.62226821E-06   1.48193706E-09   1.18194605E-09   5.52000563E-01   6.84730219E-05   1.20833541E-02   3.21015674E-21   4.77011932E-01   2.81945197E-02   1.81203398E-08   4.02778476E-04   1.71180852E-06   3.92709014E-05   2.62564189E-03   2.12463443E-09
   4.28750000E+02   5.00000000E-01   5.00000000E-01  -3.75911233E-03   3.62152104E-11   4.78565626E-03   4.46277380E-02   1.55147361E-02   1.30157465E-03   6.41652755E-20   2.38025437E-07   9.06761345E-06   2.47846619E-05   1.41050921E-06   1.48378786E-04   7.94097754E-06   1.48493273E-09   1.18066101E-09   5.52307766E-01   6.85111589E-05   1.20900788E-02   5.17844097E-21   4.77262923E-01   2.82102209E-02   1.81302283E-08   4.03002633E-04   1.71276119E-06   3.92927567E-05   2.71514478E-03   2.12766910E-09
   4.46250000E+02   5.00000000E-01   5.00000000E-01  -3.70381704E-03   3.87186558E-11   4.78840223E-03   4.43735942E-02   1.57258630E-02   1.35163083E-03   7.21208087E-20   2.48600861E-07   9.07281853E-06   2.47988831E-05   1.41131855E-06   1.54431737E-04   8.26016958E-06   1.48795696E-09   1.17939436E-09   5.52624675E-01   6.85505000E-05   1.20970160E-02   8.31809216E-21   4.77523189E-01   2.82264181E-02   1.81404352E-08   4.03233872E-04   1.71374396E-06   3.93153025E-05   2.80700945E-03   2.13138295E-09
   4.63750000E+02   5.00000000E-01   5.00000000E-01  -3.64651753E-03   4.13564607E-11   4.79123099E-03   4.41187378E-02   1.59375252E-02   1.40143924E-03   8.09176768E-20   2.59392215E-07   9.07818049E-06   2.48135331E-05   1.41215229E-06   1.60495826E-04   8.57985827E-06   1.49100944E-09   1.17814568E-09   5.52951140E-01   6.85910264E-05   1.21041624E-02   1.33054183E-20   4.77792601E-01   2.82431036E-02   1.81509555E-08   4.03472084E-04   1.71475636E-06   3.93385282E-05   2.90126875E-03   2.13581707E-09
   4.81250000E+02   5.00000000E-01   5.00000000E-01  -3.58725532E-03   4.41332070E-11   4.79414134E-03   4.38631781E-02   1.61497287E-02   1.45098867E-03   9.06268498E-20   2.70395475E-07   9.08369705E-06   2.48286057E-05   1.41301008E-06   1.66571315E-04   8.90005733E-06   1.49408991E-09   1.17691458E-09   5.53287020E-01   6.86327209E-05   1.21115148E-02   2.11953394E-20   4.78071041E-01   2.82602703E-02   1.81617847E-08   4.03717166E-04   1.71579795E-06   3.93624237E-05   2.99796151E-03   2.14100864E-09
   4.98750000E+02   5.00000000E-01   5.00000000E-01  -3.52608377E-03   4.70532295E-11   4.79713214E-03   4.36069315E-02   1.63624796E-02   1.50026772E-03   1.01323183E-19   2.81606499E-07   9.08936604E-06   2.48440949E-05   1.41389158E-06   1.72658461E-04   9.22078033E-06   1.49719813E-09   1.17570068E-09   5.53632186E-01   6.86755673E-05   1.21190705E-02   3.36267574E-20   4.78358398E-01   2.82779113E-02   1.81729183E-08   4.03969023E-04   1.71686835E-06   3.93869797E-05   3.09713280E-03   2.14699107E-09
   5.16250000E+02   5.00000000E-01   5.00000000E-01  -3.46306775E-03   5.01206718E-11   4.80020234E-03   4.33500207E-02   1.65757842E-02   1.54926477E-03   1.13085554E-19   2.93021041E-07   9.09518547E-06   2.48599953E-05   1.41479648E-06   1.78757523E-04   9.54204064E-06   1.50033388E-09   1.17450361E-09   5.53986514E-01   6.87195503E-05   1.21268268E-02   5.31358073E-20   4.78654570E-01   2.82960206E-02   1.81843525E-08   4.04227566E-04   1.71796715E-06   3.94121876E-05   3.19883342E-03   2.15379410E-09
   5.33750000E+02   5.00000000E-01   5.00000000E-01  -3.39828299E-03   5.33396522E-11   4.80335095E-03   4.30924752E-02   1.67896491E-02   1.59796806E-03   1.25997176E-19   3.04634747E-07   9.10115347E-06   2.48763017E-05   1.41572449E-06   1.84868756E-04   9.86385148E-06   1.50349696E-09   1.17332305E-09   5.54349892E-01   6.87646559E-05   1.21347812E-02   8.36318831E-20   4.78959461E-01   2.83145923E-02   1.81960834E-08   4.04492711E-04   1.71909402E-06   3.94380394E-05   3.30311879E-03   2.16144401E-09
   5.51250000E+02   5.00000000E-01   5.00000000E-01  -3.33181508E-03   5.67144740E-11   4.80657704E-03   4.28343302E-02   1.70040807E-02   1.64636566E-03   1.40146020E-19   3.16443170E-07   9.10726829E-06   2.48930095E-05   1.41667534E-06   1.90992417E-04   1.01862260E-05   1.50668719E-09   1.17215867E-09   5.54722212E-01   6.88108709E-05   1.21429313E-02   1.31118384E-19   4.79272982E-01   2.83336210E-02   1.82081076E-08   4.04764382E-04   1.72024863E-06   3.94645273E-05   3.41004750E-03   2.16996373E-09
   5.68750000E+02   5.00000000E-01   5.00000000E-01  -3.26375888E-03   6.02497837E-11   4.80987977E-03   4.25756267E-02   1.72190857E-02   1.69444557E-03   1.55625234E-19   3.28441764E-07   9.11352831E-06   2.49101142E-05   1.41764877E-06   1.97128758E-04   1.05091771E-05   1.50990440E-09   1.17101017E-09   5.55103376E-01   6.88581830E-05   1.21512750E-02   2.04780033E-19   4.79595048E-01   2.83531015E-02   1.82204218E-08   4.05042507E-04   1.72143065E-06   3.94916444E-05   3.51968016E-03   2.17937301E-09
   5.86250000E+02   5.00000000E-01   5.00000000E-01  -3.19421841E-03   6.39505785E-11   4.81325833E-03   4.23164113E-02   1.74346708E-02   1.74219575E-03   1.72533362E-19   3.40625898E-07   9.11993202E-06   2.49276115E-05   1.41864456E-06   2.03278032E-04   1.08327176E-05   1.51314844E-09   1.16987727E-09   5.55493292E-01   6.89065808E-05   1.21598103E-02   3.18617239E-19   4.79925581E-01   2.83730293E-02   1.82330230E-08   4.05327017E-04   1.72263982E-06   3.95193842E-05   3.63207890E-03   2.18968866E-09
   6.03750000E+02   5.00000000E-01   5.00000000E-01  -3.12330720E-03   6.78220225E-11   4.81671197E-03   4.20567364E-02   1.76508428E-02   1.78960420E-03   1.90974251E-19   3.52990855E-07   9.12647800E-06   2.49454978E-05   1.41966248E-06   2.09440490E-04   1.11568604E-05   1.51641919E-09   1.16875968E-09   5.55891874E-01   6.89560537E-05   1.21685353E-02   4.93893659E-19   4.80264507E-01   2.83933999E-02   1.82459083E-08   4.05617850E-04   1.72387586E-06   3.95477404E-05   3.74730789E-03   2.20092465E-09
   6.21250000E+02   5.00000000E-01   5.00000000E-01  -3.05114887E-03   7.18690999E-11   4.82024002E-03   4.17966601E-02   1.78676085E-02   1.83665896E-03   2.11056575E-19   3.65531839E-07   9.13316496E-06   2.49637694E-05   1.42070232E-06   2.15616383E-04   1.14816181E-05   1.51971653E-09   1.16765716E-09   5.56299042E-01   6.90065917E-05   1.21774483E-02   7.62788010E-19   4.80611757E-01   2.84142092E-02   1.82590751E-08   4.05914949E-04   1.72513853E-06   3.95767075E-05   3.86543450E-03   2.21309228E-09
   6.38750000E+02   5.00000000E-01   5.00000000E-01  -2.97787747E-03   7.60961968E-11   4.82384182E-03   4.15362463E-02   1.80849748E-02   1.88334809E-03   2.32893099E-19   3.78243981E-07   9.13999166E-06   2.49824229E-05   1.42176391E-06   2.21805960E-04   1.18070033E-05   1.52304036E-09   1.16656946E-09   5.56714723E-01   6.90581856E-05   1.21865476E-02   1.17382239E-18   4.80967267E-01   2.84354534E-02   1.82725210E-08   4.06218259E-04   1.72642760E-06   3.96062802E-05   3.98653084E-03   2.22620038E-09
   6.56250000E+02   5.00000000E-01   5.00000000E-01  -2.90363721E-03   8.05067325E-11   4.82751678E-03   4.12755641E-02   1.83029487E-02   1.92965961E-03   2.56599844E-19   3.91122342E-07   9.14695700E-06   2.50014553E-05   1.42284705E-06   2.28009470E-04   1.21330285E-05   1.52639059E-09   1.16549633E-09   5.57138847E-01   6.91108270E-05   1.21958317E-02   1.79990179E-18   4.81330978E-01   2.84571291E-02   1.82862438E-08   4.06527729E-04   1.72774285E-06   3.96364536E-05   4.11067496E-03   2.24025540E-09
   6.73750000E+02   5.00000000E-01   5.00000000E-01  -2.82858138E-03   8.51029413E-11   4.83126436E-03   4.10146876E-02   1.85215372E-02   1.97558146E-03   2.82295372E-19   4.04161922E-07   9.15405991E-06   2.50208638E-05   1.42395160E-06   2.34227161E-04   1.24597061E-05   1.52976714E-09   1.16443757E-09   5.57571350E-01   6.91645079E-05   1.22052993E-02   2.75017807E-18   4.81702836E-01   2.84792329E-02   1.83002412E-08   4.06843314E-04   1.72908409E-06   3.96672232E-05   4.23795128E-03   2.25526160E-09
   6.91250000E+02   5.00000000E-01   5.00000000E-01  -2.75287045E-03   8.98858572E-11   4.83508403E-03   4.07536946E-02   1.87407473E-02   2.02110144E-03   3.10100376E-19   4.17357664E-07   9.16129944E-06   2.50406457E-05   1.42507740E-06   2.40459280E-04   1.27870486E-05   1.53316996E-09   1.16339296E-09   5.58012175E-01   6.92192212E-05   1.22149490E-02   4.18749651E-18   4.82082792E-01   2.85017619E-02   1.83145115E-08   4.07164971E-04   1.73045113E-06   3.96985847E-05   4.36845027E-03   2.27122119E-09
   7.08750000E+02   5.00000000E-01   5.00000000E-01  -2.67666976E-03   9.48554695E-11   4.83897534E-03   4.04926655E-02   1.89605863E-02   2.06620713E-03   3.40137578E-19   4.30704457E-07   9.16867470E-06   2.50607986E-05   1.42622431E-06   2.46706075E-04   1.31150684E-05   1.53659898E-09   1.16236229E-09   5.58461267E-01   6.92749599E-05   1.22247796E-02   6.35396373E-18   4.82470803E-01   2.85247134E-02   1.83290527E-08   4.07492660E-04   1.73184381E-06   3.97305344E-05   4.50226714E-03   2.28813443E-09
   7.26250000E+02   5.00000000E-01   5.00000000E-01  -2.60014721E-03   1.00010929E-10   4.84293785E-03   4.02316824E-02   1.91810613E-02   2.11088595E-03   3.72531765E-19   4.44197146E-07   9.17618488E-06   2.50813202E-05   1.42739221E-06   2.52967791E-04   1.34437776E-05   1.54005418E-09   1.16134539E-09   5.58918576E-01   6.93317180E-05   1.22347902E-02   9.60828947E-18   4.82866827E-01   2.85480846E-02   1.83438633E-08   4.07826345E-04   1.73326197E-06   3.97630687E-05   4.63950037E-03   2.30599982E-09
   7.43750000E+02   5.00000000E-01   5.00000000E-01  -2.52347143E-03   1.05350627E-10   4.84697116E-03   3.99708280E-02   1.94021795E-02   2.15512509E-03   4.07409547E-19   4.57830529E-07   9.18382921E-06   2.51022085E-05   1.42858097E-06   2.59244677E-04   1.37731885E-05   1.54353553E-09   1.16034207E-09   5.59384057E-01   6.93894898E-05   1.22449796E-02   1.44801339E-17   4.83270831E-01   2.85718734E-02   1.83589417E-08   4.08165993E-04   1.73470547E-06   3.97961843E-05   4.78025042E-03   2.32481422E-09
   7.61250000E+02   5.00000000E-01   5.00000000E-01  -2.44681082E-03   1.10871967E-10   4.85107492E-03   3.97101854E-02   1.96239481E-02   2.19891156E-03   4.44898314E-19   4.71599369E-07   9.19160701E-06   2.51234617E-05   1.42979050E-06   2.65536977E-04   1.41033133E-05   1.54704300E-09   1.15935215E-09   5.59857667E-01   6.94482701E-05   1.22553470E-02   2.17489176E-17   4.83682782E-01   2.85960776E-02   1.83742866E-08   4.08511572E-04   1.73617418E-06   3.98298783E-05   4.92461923E-03   2.34457296E-09
   7.78750000E+02   5.00000000E-01   5.00000000E-01  -2.37033333E-03   1.16570729E-10   4.85524879E-03   3.94498378E-02   1.98463744E-02   2.24223209E-03   4.85123957E-19   4.85498397E-07   9.19951767E-06   2.51450779E-05   1.43102070E-06   2.71844939E-04   1.44341642E-05   1.55057658E-09   1.15837548E-09   5.60339369E-01   6.95080542E-05   1.22658915E-02   3.25576684E-17   4.84102651E-01   2.86206952E-02   1.83898968E-08   4.08863056E-04   1.73766799E-06   3.98641479E-05   5.07271083E-03   2.36526995E-09
   7.96250000E+02   5.00000000E-01   5.00000000E-01  -2.29420668E-03   1.22440081E-10   4.85949247E-03   3.91898684E-02   2.00694655E-02   2.28507299E-03   5.28207198E-19   4.99522313E-07   9.20756061E-06   2.51670557E-05   1.43227147E-06   2.78168808E-04   1.47657533E-05   1.55413628E-09   1.15741190E-09   5.60829128E-01   6.95688379E-05   1.22766124E-02   4.85768239E-17   4.84530417E-01   2.86457244E-02   1.84057709E-08   4.09220419E-04   1.73918678E-06   3.98989908E-05   5.22463266E-03   2.38689782E-09
   8.13750000E+02   5.00000000E-01   5.00000000E-01  -2.21859836E-03   1.28469401E-10   4.86380570E-03   3.89303606E-02   2.02932288E-02   2.32741991E-03   5.74258777E-19   5.13665803E-07   9.21573533E-06   2.51893937E-05   1.43354273E-06   2.84508831E-04   1.50980926E-05   1.55772210E-09   1.15646127E-09   5.61326914E-01   6.96306172E-05   1.22875090E-02   7.22389382E-17   4.84966059E-01   2.86711638E-02   1.84219082E-08   4.09583638E-04   1.74073046E-06   3.99344047E-05   5.38049739E-03   2.40944800E-09
   8.31250000E+02   5.00000000E-01   5.00000000E-01  -2.14367501E-03   1.34643203E-10   4.86818824E-03   3.86713977E-02   2.05176716E-02   2.36925746E-03   6.23374118E-19   5.27923534E-07   9.22404137E-06   2.52120907E-05   1.43483443E-06   2.90865254E-04   1.54311944E-05   1.56133406E-09   1.15552346E-09   5.61832698E-01   6.96933887E-05   1.22985806E-02   1.07073582E-16   4.85409562E-01   2.86970117E-02   1.84383075E-08   4.09952694E-04   1.74229895E-06   3.99703876E-05   5.54042438E-03   2.43291080E-09
   8.48750000E+02   5.00000000E-01   5.00000000E-01  -2.06960081E-03   1.40940410E-10   4.87263986E-03   3.84130622E-02   2.07428014E-02   2.41056888E-03   6.75628251E-19   5.42290171E-07   9.23247833E-06   2.52351454E-05   1.43614649E-06   2.97238324E-04   1.57650704E-05   1.56497219E-09   1.15459833E-09   5.62346456E-01   6.97571494E-05   1.23098268E-02   1.58183230E-16   4.85860919E-01   2.87232671E-02   1.84549682E-08   4.10327568E-04   1.74389216E-06   4.00069378E-05   5.70454025E-03   2.45727550E-09
   8.66250000E+02   5.00000000E-01   5.00000000E-01  -1.99653490E-03   1.47334153E-10   4.87716040E-03   3.81554349E-02   2.09686255E-02   2.45133558E-03   7.31071712E-19   5.56760378E-07   9.24104584E-06   2.52585570E-05   1.43747885E-06   3.03628290E-04   1.60997327E-05   1.56863651E-09   1.15368578E-09   5.62868166E-01   6.98218966E-05   1.23212471E-02   2.32916725E-16   4.86320123E-01   2.87499287E-02   1.84718894E-08   4.10708244E-04   1.74551004E-06   4.00440538E-05   5.87297842E-03   2.48253045E-09
   8.83750000E+02   5.00000000E-01   5.00000000E-01  -1.92462837E-03   1.53792153E-10   4.88174967E-03   3.78985939E-02   2.11951515E-02   2.49153681E-03   7.89727886E-19   5.71328821E-07   9.24974360E-06   2.52823246E-05   1.43883148E-06   3.10035398E-04   1.64351931E-05   1.57232708E-09   1.15278570E-09   5.63397809E-01   6.98876279E-05   1.23328411E-02   3.41818558E-16   4.86787177E-01   2.87769956E-02   1.84890706E-08   4.11094709E-04   1.74715251E-06   4.00817341E-05   6.04587742E-03   2.50866316E-09
   9.01250000E+02   5.00000000E-01   5.00000000E-01  -1.85402109E-03   1.60277589E-10   4.88640754E-03   3.76426130E-02   2.14223870E-02   2.53114939E-03   8.51591938E-19   5.85990180E-07   9.25857135E-06   2.53064475E-05   1.44020433E-06   3.16459897E-04   1.67714635E-05   1.57604394E-09   1.15189801E-09   5.63935369E-01   6.99543413E-05   1.23446083E-02   4.99961697E-16   4.87262086E-01   2.88044670E-02   1.85065112E-08   4.11486951E-04   1.74881954E-06   4.01199777E-05   6.22337841E-03   2.53566035E-09
   9.18750000E+02   5.00000000E-01   5.00000000E-01  -1.78483898E-03   1.66750354E-10   4.89113389E-03   3.73875615E-02   2.16503396E-02   2.57014746E-03   9.16631255E-19   6.00739141E-07   9.26752886E-06   2.53309250E-05   1.44159736E-06   3.22902036E-04   1.71085555E-05   1.57978715E-09   1.15102263E-09   5.64480833E-01   7.00220352E-05   1.23565486E-02   7.28811772E-16   4.87744857E-01   2.88323422E-02   1.85242108E-08   4.11884959E-04   1.75051108E-06   4.01587835E-05   6.40562226E-03   2.56350810E-09
   9.36250000E+02   5.00000000E-01   5.00000000E-01  -1.71719180E-03   1.73168527E-10   4.89592864E-03   3.71335031E-02   2.18790172E-02   2.60850244E-03   9.84787231E-19   6.15570405E-07   9.27661596E-06   2.53557567E-05   1.44301055E-06   3.29362065E-04   1.74464808E-05   1.58355676E-09   1.15015953E-09   5.65034190E-01   7.00907082E-05   1.23686616E-02   1.05882471E-15   4.88235504E-01   2.88606205E-02   1.85421690E-08   4.12288727E-04   1.75222709E-06   4.01981509E-05   6.59274638E-03   2.59219187E-09
   9.53750000E+02   5.00000000E-01   5.00000000E-01  -1.65117180E-03   1.79489960E-10   4.90079170E-03   3.68804953E-02   2.21084274E-02   2.64618307E-03   1.05597822E-18   6.30478687E-07   9.28583250E-06   2.53809423E-05   1.44444387E-06   3.35840235E-04   1.77852511E-05   1.58735285E-09   1.14930869E-09   5.65595431E-01   7.01603593E-05   1.23809473E-02   1.53305321E-15   4.88734039E-01   2.88893016E-02   1.85603855E-08   4.12698248E-04   1.75396756E-06   4.02380792E-05   6.78488169E-03   2.62169665E-09
   9.71250000E+02   5.00000000E-01   5.00000000E-01  -1.58685299E-03   1.85673883E-10   4.90572302E-03   3.66285900E-02   2.23385782E-02   2.68315553E-03   1.13010353E-18   6.45458711E-07   9.29517839E-06   2.54064813E-05   1.44589731E-06   3.42336797E-04   1.81248777E-05   1.59117550E-09   1.14847013E-09   5.66164550E-01   7.02309876E-05   1.23934053E-02   2.21213588E-15   4.89240479E-01   2.89183850E-02   1.85788601E-08   4.13113518E-04   1.75573245E-06   4.02785680E-05   6.98214977E-03   2.65200698E-09
   9.88750000E+02   5.00000000E-01   5.00000000E-01  -1.52429122E-03   1.91682445E-10   4.91072257E-03   3.63778328E-02   2.25694772E-02   2.71938372E-03   1.20704822E-18   6.60505215E-07   9.30465356E-06   2.54323737E-05   1.44737086E-06   3.48852003E-04   1.84653722E-05   1.59502478E-09   1.14764394E-09   5.66741543E-01   7.03025928E-05   1.24060358E-02   3.18117519E-15   4.89754839E-01   2.89478706E-02   1.85975927E-08   4.13534532E-04   1.75752176E-06   4.03196169E-05   7.18466042E-03   2.68310709E-09