 TITLE = "Total Concentrations" 
VARIABLES = "X"          "Y"              "Z"            "H+"             "Al+++"          "CO2(aq)"        "Mg++"           "Ca++"           "Fe++"           "Fe+++"          "Ba++"           "Sr++"           "Cl-"            "F-"             "K+"             "HS-"            "Na+"            "SO4--"          "O2(aq)"         "B(OH)3(aq)"     "HPO4--"         "NO3-"           "H4SiO4(aq)"    
 ZONE I=         100 , J=           1 , K=           1  F=POINT
   1.75000000E+01   5.00000000E-01   5.00000000E-01  -4.66838795E-03   9.11027674E-12   4.75010909E-03   4.95591462E-02   1.07521662E-02   1.01088618E-03   7.37617911E-13   2.00004593E-07   9.00020669E-06   5.48179132E-01   6.80015617E-05   1.20002756E-02   1.18425709E-10   4.74296136E-01   2.80006431E-02   1.79967169E-08   4.00009186E-04   1.70003904E-06   3.90008957E-05   4.19998591E-04
   5.25000000E+01   5.00000000E-01   5.00000000E-01  -4.67497790E-03   1.37230975E-11   4.75063957E-03   4.81820041E-02   1.11054263E-02   1.93595394E-03   5.91338990E-13   2.00026929E-07   9.00121182E-06   5.48240352E-01   6.80091559E-05   1.20016158E-02   1.36904300E-10   4.74566498E-01   2.80037701E-02   1.79950205E-08   4.00053859E-04   1.70022890E-06   3.90052512E-05   5.11733562E-04
   8.75000000E+01   5.00000000E-01   5.00000000E-01  -4.66657470E-03   1.82687791E-11   4.75176954E-03   4.69315576E-02   1.14603045E-02   2.74711108E-03   5.70926536E-13   2.00074507E-07   9.00335281E-06   5.48370754E-01   6.80253324E-05   1.20044704E-02   1.55447587E-10   4.74867808E-01   2.80104310E-02   1.79955842E-08   4.00149014E-04   1.70063331E-06   3.90145289E-05   5.69333452E-04
   1.22500000E+02   5.00000000E-01   5.00000000E-01  -4.63666506E-03   2.37534942E-11   4.75345252E-03   4.58049549E-02   1.18168171E-02   3.43958096E-03   5.68329441E-13   2.00145369E-07   9.00654161E-06   5.48564976E-01   6.80494255E-05   1.20087222E-02   1.74060631E-10   4.75202983E-01   2.80203518E-02   1.79982306E-08   4.00290738E-04   1.70123564E-06   3.90283470E-05   6.24308275E-04
   1.57500000E+02   5.00000000E-01   5.00000000E-01  -4.58907191E-03   3.05285585E-11   4.75564895E-03   4.47924828E-02   1.21749829E-02   4.02327757E-03   5.72747193E-13   2.00237850E-07   9.01070327E-06   5.48818451E-01   6.80808692E-05   1.20142710E-02   1.92747391E-10   4.75570473E-01   2.80332992E-02   1.80028091E-08   4.00475701E-04   1.70202173E-06   3.90463808E-05   6.80793701E-04
   1.92500000E+02   5.00000000E-01   5.00000000E-01  -4.52784143E-03   3.88364169E-11   4.75832501E-03   4.38787272E-02   1.25348239E-02   4.51390584E-03   5.83013871E-13   2.00350527E-07   9.01577370E-06   5.49127278E-01   6.81191790E-05   1.20210316E-02   2.11511336E-10   4.75969483E-01   2.80490738E-02   1.80091906E-08   4.00701053E-04   1.70297948E-06   3.90683527E-05   7.38865484E-04
   2.27500000E+02   5.00000000E-01   5.00000000E-01  -4.45564544E-03   4.89412378E-11   4.76145164E-03   4.30466141E-02   1.28963651E-02   4.92802868E-03   5.98458303E-13   2.00482174E-07   9.02169785E-06   5.49488102E-01   6.81639393E-05   1.20289305E-02   2.30355722E-10   4.76400033E-01   2.80675045E-02   1.80172645E-08   4.00964349E-04   1.70409848E-06   3.90940240E-05   7.98381145E-04
   2.62500000E+02   5.00000000E-01   5.00000000E-01  -4.37399109E-03   6.11582643E-11   4.76500382E-03   4.22799416E-02   1.32596349E-02   5.28082680E-03   6.18225643E-13   2.00631740E-07   9.02842829E-06   5.49898036E-01   6.82147915E-05   1.20379044E-02   2.49283683E-10   4.76862494E-01   2.80884437E-02   1.80269350E-08   4.01263479E-04   1.70536979E-06   3.91231892E-05   8.59381992E-04
   2.97500000E+02   5.00000000E-01   5.00000000E-01  -4.28361635E-03   7.58637359E-11   4.76895988E-03   4.15645158E-02   1.36246641E-02   5.58527697E-03   6.41413204E-13   2.00798311E-07   9.03592397E-06   5.50354579E-01   6.82714256E-05   1.20478986E-02   2.68298237E-10   4.77357277E-01   2.81117636E-02   1.80381196E-08   4.01596621E-04   1.70678564E-06   3.91556706E-05   9.22025614E-04
   3.32500000E+02   5.00000000E-01   5.00000000E-01  -4.18480112E-03   9.35022377E-11   4.77330104E-03   4.08884675E-02   1.39914854E-02   5.85203052E-03   6.67162199E-13   2.00981096E-07   9.04414934E-06   5.50855564E-01   6.83335728E-05   1.20588658E-02   2.87402293E-10   4.77884691E-01   2.81373537E-02   1.80507463E-08   4.01962193E-04   1.70833932E-06   3.91913138E-05   9.86514898E-04
   3.67500000E+02   5.00000000E-01   5.00000000E-01  -4.07758829E-03   1.14595171E-10   4.77801099E-03   4.02421607E-02   1.43601336E-02   6.08961187E-03   6.94683497E-13   2.01179410E-07   9.05307346E-06   5.51399109E-01   6.84009995E-05   1.20707646E-02   3.06598659E-10   4.78444898E-01   2.81651176E-02   1.80647529E-08   4.02358820E-04   1.71002499E-06   3.92299850E-05   1.05306163E-03
   4.02500000E+02   5.00000000E-01   5.00000000E-01  -3.96194080E-03   1.39751752E-10   4.78307552E-03   3.96179287E-02   1.47306447E-02   6.30473888E-03   7.23254104E-13   2.01392654E-07   9.06266941E-06   5.51983573E-01   6.84735022E-05   1.20835592E-02   3.25890062E-10   4.79037914E-01   2.81949717E-02   1.80800847E-08   4.02785307E-04   1.71183756E-06   3.92715674E-05   1.12186958E-03
   4.37500000E+02   5.00000000E-01   5.00000000E-01  -3.83785576E-03   1.69681566E-10   4.78848225E-03   3.90097657E-02   1.51030562E-02   6.50266062E-03   7.52210342E-13   2.01620305E-07   9.07291374E-06   5.52607529E-01   6.85509038E-05   1.20972183E-02   3.45279159E-10   4.79663633E-01   2.82268430E-02   1.80966944E-08   4.03240611E-04   1.71377260E-06   3.93159596E-05   1.19313014E-03
   4.72500000E+02   5.00000000E-01   5.00000000E-01  -3.70544771E-03   2.05209271E-10   4.79422039E-03   3.84130326E-02   1.54774061E-02   6.68746574E-03   7.80941280E-13   2.01861911E-07   9.08378599E-06   5.53269729E-01   6.86330497E-05   1.21117147E-02   3.64768547E-10   4.80321845E-01   2.82606678E-02   1.81145405E-08   4.03723822E-04   1.71582624E-06   3.93630726E-05   1.26702279E-03
   5.07500000E+02   5.00000000E-01   5.00000000E-01  -3.56500763E-03   2.47291751E-10   4.80028050E-03   3.78241994E-02   1.58537326E-02   6.86234518E-03   8.08884674E-13   2.02117074E-07   9.09526832E-06   5.53969088E-01   6.87198051E-05   1.21270244E-02   3.84360759E-10   4.81012271E-01   2.82963906E-02   1.81335867E-08   4.04234147E-04   1.71799513E-06   3.94128294E-05   1.34371711E-03
   5.42500000E+02   5.00000000E-01   5.00000000E-01  -3.41704131E-03   2.97037706E-10   4.80665439E-03   3.72406301E-02   1.62320738E-02   7.02980599E-03   8.35526351E-13   2.02385448E-07   9.10734516E-06   5.54704657E-01   6.88110523E-05   1.21431269E-02   4.04058240E-10   4.81734575E-01   2.83339630E-02   1.81538014E-08   4.04770896E-04   1.72027631E-06   3.94651624E-05   1.42337515E-03
   5.77500000E+02   5.00000000E-01   5.00000000E-01  -3.26228815E-03   3.55729882E-10   4.81333491E-03   3.66604059E-02   1.66124664E-02   7.19184055E-03   8.60402183E-13   2.02666733E-07   9.12000298E-06   5.55475612E-01   6.89066892E-05   1.21600040E-02   4.23863321E-10   4.82488382E-01   2.83733429E-02   1.81751571E-08   4.05333466E-04   1.72266723E-06   3.95200129E-05   1.50615324E-03
   6.12500000E+02   5.00000000E-01   5.00000000E-01  -3.10172114E-03   4.24850060E-10   4.82031584E-03   3.60821796E-02   1.69949455E-02   7.35005760E-03   8.83101806E-13   2.02960667E-07   9.13323001E-06   5.56281235E-01   6.90066267E-05   1.21776400E-02   4.43778166E-10   4.83273300E-01   2.84144937E-02   1.81976296E-08   4.05921334E-04   1.72516567E-06   3.95773300E-05   1.59220287E-03
   6.47500000E+02   5.00000000E-01   5.00000000E-01  -2.93652859E-03   5.06106860E-10   4.82759179E-03   3.55050555E-02   1.73795430E-02   7.50578171E-03   9.03273136E-13   2.03267023E-07   9.14701602E-06   5.57120906E-01   6.91107877E-05   1.21960214E-02   4.63804725E-10   4.84088922E-01   2.84573835E-02   1.82211983E-08   4.06534045E-04   1.72776969E-06   3.96370694E-05   1.68167031E-03
   6.82500000E+02   5.00000000E-01   5.00000000E-01  -2.76807919E-03   6.01466329E-10   4.83515811E-03   3.49284870E-02   1.77662869E-02   7.66012738E-03   9.20626677E-13   2.03585605E-07   9.16135221E-06   5.57994085E-01   6.92191056E-05   1.22151363E-02   4.83944663E-10   4.84934844E-01   2.85019850E-02   1.82458450E-08   4.07171209E-04   1.73047764E-06   3.96991929E-05   1.77469523E-03
   7.17500000E+02   5.00000000E-01   5.00000000E-01  -2.59787302E-03   7.13185271E-10   4.84301079E-03   3.43521893E-02   1.81552000E-02   7.81405311E-03   9.34938664E-13   2.03916244E-07   9.17623096E-06   5.58900312E-01   6.93315228E-05   1.22349746E-02   5.04199292E-10   4.85810674E-01   2.85482745E-02   1.82715543E-08   4.07832487E-04   1.73328807E-06   3.97636675E-05   1.87140831E-03
   7.52500000E+02   5.00000000E-01   5.00000000E-01  -2.42748241E-03   8.43847231E-10   4.85114637E-03   3.37760632E-02   1.85462985E-02   7.96840010E-03   9.46052224E-13   2.04258795E-07   9.19164576E-06   5.59839187E-01   6.94479902E-05   1.22555277E-02   5.24569502E-10   4.86716038E-01   2.85962317E-02   1.82983130E-08   4.08517589E-04   1.73619976E-06   3.98304650E-05   1.97192827E-03
   7.87500000E+02   5.00000000E-01   5.00000000E-01  -2.25848753E-03   9.96401095E-10   4.85956194E-03   3.32001284E-02   1.89395911E-02   8.12391915E-03   9.53876054E-13   2.04613134E-07   9.20759105E-06   5.60810373E-01   6.95684657E-05   1.22767881E-02   5.45055683E-10   4.87650593E-01   2.86458392E-02   1.83261099E-08   4.09226269E-04   1.73921164E-06   3.98995612E-05   2.07635869E-03
   8.22500000E+02   5.00000000E-01   5.00000000E-01  -2.09241191E-03   1.17420234E-09   4.86825499E-03   3.26244671E-02   1.93350773E-02   8.28128923E-03   9.58380447E-13   2.04979158E-07   9.22406209E-06   5.61813581E-01   6.96929136E-05   1.22987495E-02   5.65657657E-10   4.88614029E-01   2.86970825E-02   1.83549355E-08   4.09958315E-04   1.74232284E-06   3.99709357E-05   2.18478512E-03
   8.57500000E+02   5.00000000E-01   5.00000000E-01  -1.93066331E-03   1.38105701E-09   4.87722343E-03   3.20491762E-02   1.97327465E-02   8.44113004E-03   9.59590911E-13   2.05356776E-07   9.24105492E-06   5.62848570E-01   6.98213038E-05   1.23214066E-02   5.86374615E-10   4.89606080E-01   2.87499491E-02   1.83847821E-08   4.10713552E-04   1.74553260E-06   4.00445713E-05   2.29727275E-03
   8.92500000E+02   5.00000000E-01   5.00000000E-01  -1.77448427E-03   1.62126872E-09   4.88646548E-03   3.14743300E-02   2.01325770E-02   8.60401067E-03   9.57579954E-13   2.05745915E-07   9.25856618E-06   5.63915135E-01   6.99536111E-05   1.23447549E-02   6.07205055E-10   4.90626525E-01   2.88044285E-02   1.84156432E-08   4.11491830E-04   1.74884028E-06   4.01204534E-05   2.41386515E-03
   9.27500000E+02   5.00000000E-01   5.00000000E-01  -1.62491547E-03   1.89968884E-09   4.89597968E-03   3.08999525E-02   2.05345349E-02   8.77045573E-03   9.52457845E-13   2.06146513E-07   9.27659308E-06   5.65013107E-01   7.00898144E-05   1.23687908E-02   6.28146739E-10   4.91675192E-01   2.88605123E-02   1.84475138E-08   4.12293026E-04   1.75224536E-06   4.01985700E-05   2.53458405E-03
   9.62500000E+02   5.00000000E-01   5.00000000E-01  -1.48277361E-03   2.22177041E-09   4.90576480E-03   3.03259998E-02   2.09385738E-02   8.94095017E-03   9.44363168E-13   2.06558518E-07   9.29513331E-06   5.66142344E-01   7.02298961E-05   1.23935111E-02   6.49196657E-10   4.92751956E-01   2.89181930E-02   1.84803898E-08   4.13117036E-04   1.75574740E-06   4.02789110E-05   2.65943021E-03
   9.97500000E+02   5.00000000E-01   5.00000000E-01  -1.34864357E-03   2.59362662E-09   4.91581984E-03   2.97523504E-02   2.13446340E-02   9.11594321E-03   9.33453913E-13   2.06981888E-07   9.31418497E-06   5.67302731E-01   7.03738420E-05   1.24189133E-02   6.70351011E-10   4.93856740E-01   2.89774648E-02   1.85142682E-08   4.13963776E-04   1.75934605E-06   4.03614682E-05   2.78838516E-03
   1.03250000E+03   5.00000000E-01   5.00000000E-01  -1.22288354E-03   3.02209486E-09   4.92614397E-03   2.91788046E-02   2.17526426E-02   9.29585204E-03   9.19899644E-13   2.07416588E-07   9.33374647E-06   5.68494170E-01   7.05216400E-05   1.24449953E-02   6.91605203E-10   4.94989509E-01   2.90383228E-02   1.85491468E-08   4.14833176E-04   1.76304100E-06   4.04462347E-05   2.92141333E-03
   1.06750000E+03   5.00000000E-01   5.00000000E-01  -1.10564060E-03   3.51480672E-09   4.93673649E-03   2.86050885E-02   2.21625135E-02   9.48106506E-03   9.03875323E-13   2.07862589E-07   9.35381650E-06   5.69716584E-01   7.06732803E-05   1.24717553E-02   7.12953855E-10   4.96150268E-01   2.91007629E-02   1.85850240E-08   4.15725178E-04   1.76683201E-06   4.05332049E-05   3.05846442E-03
   1.10250000E+03   5.00000000E-01   5.00000000E-01  -9.96873799E-04   4.08026211E-09   4.94759683E-03   2.80308645E-02   2.25741478E-02   9.67194444E-03   8.85557274E-13   2.08319867E-07   9.37439400E-06   5.70969906E-01   7.08287547E-05   1.24991920E-02   7.34390833E-10   4.97339053E-01   2.91647817E-02   1.86218990E-08   4.16639733E-04   1.77071887E-06   4.06223740E-05   3.19947634E-03
   1.13750000E+03   5.00000000E-01   5.00000000E-01  -8.96381740E-04   4.72790704E-09   4.95872452E-03   2.74557437E-02   2.29874344E-02   9.86882770E-03   8.65120881E-13   2.08788401E-07   9.39547804E-06   5.72254080E-01   7.09880563E-05   1.25273041E-02   7.55909288E-10   4.98555928E-01   2.92303764E-02   1.86597714E-08   4.17576802E-04   1.77470141E-06   4.07137382E-05   3.34437830E-03
   1.17250000E+03   5.00000000E-01   5.00000000E-01  -8.03831657E-04   5.46821732E-09   4.97011914E-03   2.68793008E-02   2.34022511E-02   1.00720284E-02   8.42739294E-13   2.09268174E-07   9.41706784E-06   5.73569058E-01   7.11511792E-05   1.25560905E-02   7.77501720E-10   4.99800976E-01   2.92975446E-02   1.86986410E-08   4.18536349E-04   1.77877948E-06   4.08072940E-05   3.49309346E-03
   1.20750000E+03   5.00000000E-01   5.00000000E-01  -7.18787912E-04   6.31279280E-09   4.98178033E-03   2.63010885E-02   2.38184661E-02   1.02818364E-02   8.18582592E-13   2.09759172E-07   9.43916272E-06   5.74914800E-01   7.13181183E-05   1.25855503E-02   7.99160050E-10   5.01074295E-01   2.93662842E-02   1.87385083E-08   4.19518343E-04   1.78295296E-06   4.09030385E-05   3.64554045E-03
   1.24250000E+03   5.00000000E-01   5.00000000E-01  -6.40738228E-04   7.27446925E-09   4.99370775E-03   2.57206514E-02   2.42359387E-02   1.04985183E-02   7.92817098E-13   2.10261379E-07   9.46176206E-06   5.76291267E-01   7.14888689E-05   1.26156827E-02   8.20875701E-10   5.02375991E-01   2.94365931E-02   1.87793736E-08   4.20522758E-04   1.78722172E-06   4.10009689E-05   3.80163317E-03
   1.27750000E+03   5.00000000E-01   5.00000000E-01  -5.69116883E-04   8.36743188E-09   5.00590112E-03   2.51375385E-02   2.46545215E-02   1.07223163E-02   7.65606436E-13   2.10774784E-07   9.48486529E-06   5.77698424E-01   7.16634266E-05   1.26464870E-02   8.42639695E-10   5.03706172E-01   2.95084696E-02   1.88212378E-08   4.21549568E-04   1.79158567E-06   4.11010829E-05   3.96128116E-03
   1.31250000E+03   5.00000000E-01   5.00000000E-01  -5.03324240E-04   9.60731251E-09   5.01836014E-03   2.45513165E-02   2.50740615E-02   1.09534450E-02   7.37114107E-13   2.11299374E-07   9.50847185E-06   5.79136238E-01   7.18417873E-05   1.26779625E-02   8.64442757E-10   5.05064948E-01   2.95819120E-02   1.88641015E-08   4.22598749E-04   1.79604468E-06   4.12033780E-05   4.12439220E-03
   1.34750000E+03   5.00000000E-01   5.00000000E-01  -4.42742239E-04   1.10112863E-08   5.03108454E-03   2.39615812E-02   2.54944027E-02   1.11920863E-02   7.07505030E-13   2.11835139E-07   9.53258123E-06   5.80604678E-01   7.20239471E-05   1.27101083E-02   8.86275421E-10   5.06452420E-01   2.96569186E-02   1.89079658E-08   4.23670277E-04   1.80059868E-06   4.13078520E-05   4.29087513E-03
   1.38250000E+03   5.00000000E-01   5.00000000E-01  -3.86746244E-04   1.25981467E-08   5.04407404E-03   2.33679692E-02   2.59153883E-02   1.14383834E-02   6.76947142E-13   2.12382065E-07   9.55719293E-06   5.82103712E-01   7.22099021E-05   1.27429239E-02   9.08128143E-10   5.07868687E-01   2.97334879E-02   1.89528315E-08   4.24764130E-04   1.80524755E-06   4.14145027E-05   4.46064386E-03
   1.41750000E+03   5.00000000E-01   5.00000000E-01  -3.34713082E-04   1.43885029E-08   5.05732840E-03   2.27701636E-02   2.63368623E-02   1.16924374E-02   6.45607397E-13   2.12940143E-07   9.58230644E-06   5.83633311E-01   7.23996487E-05   1.27764086E-02   9.29991413E-10   5.09313835E-01   2.98116182E-02   1.89986996E-08   4.25880286E-04   1.80999122E-06   4.15233279E-05   4.63361292E-03
   1.45250000E+03   5.00000000E-01   5.00000000E-01  -2.86025707E-04   1.64053843E-08   5.07084736E-03   2.21678896E-02   2.67586702E-02   1.19543177E-02   6.13639920E-13   2.13509363E-07   9.60792132E-06   5.85193446E-01   7.25931833E-05   1.28105618E-02   9.51855865E-10   5.10787937E-01   2.98913080E-02   1.90455711E-08   4.27018725E-04   1.81482958E-06   4.16343257E-05   4.80967060E-03
   1.48750000E+03   5.00000000E-01   5.00000000E-01  -2.40079322E-04   1.86738529E-08   5.08463072E-03   2.15609304E-02   2.71806611E-02   1.22240449E-02   5.81210033E-13   2.14089714E-07   9.63403715E-06   5.86784093E-01   7.27905029E-05   1.28453829E-02   9.73712388E-10   5.12291055E-01   2.99725560E-02   1.90934470E-08   4.28179429E-04   1.81976257E-06   4.17474943E-05   4.98870562E-03
   1.52250000E+03   5.00000000E-01   5.00000000E-01  -1.96282970E-04   2.12206158E-08   5.09867826E-03   2.09491474E-02   2.76026921E-02   1.25015662E-02   5.48499039E-13   2.14681190E-07   9.66065355E-06   5.88405229E-01   7.29916046E-05   1.28808714E-02   9.95552230E-10   5.13823241E-01   3.00553609E-02   1.91423284E-08   4.29362380E-04   1.82479012E-06   4.18628321E-05   5.17063857E-03
   1.55750000E+03   5.00000000E-01   5.00000000E-01  -1.54056775E-04   2.40750922E-08   5.11298986E-03   2.03324731E-02   2.80246289E-02   1.27867639E-02   5.15676883E-13   2.15283783E-07   9.68777026E-06   5.90056837E-01   7.31964864E-05   1.29170270E-02   1.01736709E-09   5.15384537E-01   3.01397214E-02   1.91922165E-08   4.30567567E-04   1.82991216E-06   4.19803378E-05   5.35538805E-03
   1.59250000E+03   5.00000000E-01   5.00000000E-01  -1.12830752E-04   2.72706872E-08   5.12756540E-03   1.97108973E-02   2.84463440E-02   1.30794735E-02   4.82893767E-13   2.15897491E-07   9.71538708E-06   5.91738905E-01   7.34051468E-05   1.29538494E-02   1.03914922E-09   5.16974963E-01   3.02256368E-02   1.92431124E-08   4.31794981E-04   1.83512867E-06   4.21000107E-05   5.54282307E-03
   1.62750000E+03   5.00000000E-01   5.00000000E-01  -7.20476251E-05   3.08431719E-08   5.14240487E-03   1.90844923E-02   2.88677197E-02   1.33794535E-02   4.50316155E-13   2.16522310E-07   9.74350397E-06   5.93451432E-01   7.36175855E-05   1.29913386E-02   1.06089148E-09   5.18594531E-01   3.03131061E-02   1.92950175E-08   4.33044621E-04   1.84043964E-06   4.22218505E-05   5.73281880E-03
   1.66250000E+03   5.00000000E-01   5.00000000E-01  -3.11598297E-05   3.48306908E-08   5.15750832E-03   1.84534291E-02   2.92886511E-02   1.36863644E-02   4.18117043E-13   2.17158245E-07   9.77212103E-06   5.95194423E-01   7.38338034E-05   1.30294947E-02   1.08258743E-09   5.20243246E-01   3.04021289E-02   1.93479334E-08   4.34316490E-04   1.84584508E-06   4.23458578E-05   5.92527889E-03
   1.69750000E+03   5.00000000E-01   5.00000000E-01   1.03743803E-05   3.92754218E-08   5.17287591E-03   1.78179715E-02   2.97090462E-02   1.39997750E-02   3.86456654E-13   2.17805302E-07   9.80123857E-06   5.96967896E-01   7.40538026E-05   1.30683181E-02   1.10423141E-09   5.21921101E-01   3.04927044E-02   1.94018618E-08   4.35610603E-04   1.85134506E-06   4.24720338E-05   6.12010021E-03
   1.73250000E+03   5.00000000E-01   5.00000000E-01   5.30914590E-05   4.42238145E-08   5.18850792E-03   1.71784800E-02   3.01288264E-02   1.43191589E-02   3.55487727E-13   2.18463491E-07   9.83085711E-06   5.98771884E-01   7.42775870E-05   1.31078095E-02   1.12581854E-09   5.23628078E-01   3.05848319E-02   1.94568048E-08   4.36926983E-04   1.85693968E-06   4.26003808E-05   6.31716403E-03
   1.76750000E+03   5.00000000E-01   5.00000000E-01   9.75224206E-05   4.97258478E-08   5.20440474E-03   1.65354275E-02   3.05479264E-02   1.46438765E-02   3.25362380E-13   2.19132831E-07   9.86097741E-06   6.00606433E-01   7.45051627E-05   1.31479699E-02   1.14734480E-09   5.25364152E-01   3.06785096E-02   1.95127647E-08   4.38265663E-04   1.86262907E-06   4.27309021E-05   6.51635947E-03
   1.80250000E+03   5.00000000E-01   5.00000000E-01   1.44194074E-04   5.58356060E-08   5.22056696E-03   1.58894098E-02   3.09662936E-02   1.49731655E-02   2.96225786E-13   2.19813346E-07   9.89160055E-06   6.02471609E-01   7.47365375E-05   1.31888007E-02   1.16880706E-09   5.27129291E-01   3.07737337E-02   1.95697443E-08   4.39626691E-04   1.86841344E-06   4.28636024E-05   6.71758654E-03
   1.83750000E+03   5.00000000E-01   5.00000000E-01   1.93629226E-04   6.26120082E-08   5.23699528E-03   1.52411518E-02   3.13838868E-02   1.53061341E-02   2.68212393E-13   2.20505065E-07   9.92272791E-06   6.04367495E-01   7.49717220E-05   1.32303039E-02   1.19020307E-09   5.28923455E-01   3.08704966E-02   1.96277470E-08   4.41010129E-04   1.87429305E-06   4.29984876E-05   6.92075085E-03
   1.87250000E+03   5.00000000E-01   5.00000000E-01   2.46345968E-04   7.01197306E-08   5.25369065E-03   1.45915134E-02   3.18006720E-02   1.56417579E-02   2.41443665E-13   2.21208027E-07   9.95436123E-06   6.06294198E-01   7.52107293E-05   1.32724816E-02   1.21153151E-09   5.30746596E-01   3.09687830E-02   1.96867763E-08   4.42416055E-04   1.88026823E-06   4.31355653E-05   7.12575398E-03
   1.90750000E+03   5.00000000E-01   5.00000000E-01   3.02856393E-04   7.84309893E-08   5.27065417E-03   1.39414920E-02   3.22166142E-02   1.59788810E-02   2.16025425E-13   2.21922281E-07   9.98650264E-06   6.08251847E-01   7.54535755E-05   1.33153368E-02   1.23279198E-09   5.32598656E-01   3.10685630E-02   1.97468368E-08   4.43844562E-04   1.88633939E-06   4.32748448E-05   7.33246754E-03
   1.94250000E+03   5.00000000E-01   5.00000000E-01   3.63662318E-04   8.76251106E-08   5.28788719E-03   1.32922348E-02   3.26316648E-02   1.63162056E-02   1.92051603E-13   2.22647882E-07   1.00191547E-05   6.10240598E-01   7.57002797E-05   1.33588729E-02   1.25398499E-09   5.34479567E-01   3.11697794E-02   1.98079334E-08   4.45295763E-04   1.89250699E-06   4.34163369E-05   7.54073866E-03
   1.97750000E+03   5.00000000E-01   5.00000000E-01   4.29250312E-04   9.77874954E-08   5.30539128E-03   1.26450577E-02   3.30457382E-02   1.66522739E-02   1.69604491E-13   2.23384896E-07   1.00523203E-05   6.12260631E-01   7.59508647E-05   1.34030938E-02   1.27511195E-09   5.36389261E-01   3.12723243E-02   1.98700718E-08   4.46769792E-04   1.89877162E-06   4.35600547E-05   7.75041941E-03
   2.01250000E+03   5.00000000E-01   5.00000000E-01   5.00087379E-04   1.09010291E-07   5.32316828E-03   1.20014551E-02   3.34586676E-02   1.69854603E-02   1.48750269E-13   2.24133401E-07   1.00860031E-05   6.14312158E-01   7.62053564E-05   1.34480041E-02   1.29617516E-09   5.38327664E-01   3.13759937E-02   1.99332585E-08   4.48266802E-04   1.90513391E-06   4.37060132E-05   7.96138243E-03
   2.04750000E+03   5.00000000E-01   5.00000000E-01   5.76615410E-04   1.21394029E-07   5.34122027E-03   1.13631024E-02   3.38701190E-02   1.73139748E-02   1.29535418E-13   2.24893485E-07   1.01202068E-05   6.16395421E-01   7.64637849E-05   1.34936091E-02   1.31717779E-09   5.40294700E-01   3.14804038E-02   1.99975008E-08   4.49786970E-04   1.91159462E-06   4.38542296E-05   8.17351746E-03
   2.08250000E+03   5.00000000E-01   5.00000000E-01   6.59242354E-04   1.35049385E-07   5.35954961E-03   1.07318498E-02   3.42794288E-02   1.76358749E-02   1.11985376E-13   2.25665247E-07   1.01549361E-05   6.18510691E-01   7.67261839E-05   1.35399148E-02   1.33812382E-09   5.42290286E-01   3.15848282E-02   2.00628068E-08   4.51330494E-04   1.91815460E-06   4.40047231E-05   8.38671492E-03
   2.11750000E+03   5.00000000E-01   5.00000000E-01   7.48326882E-04   1.50097970E-07   5.37815898E-03   1.01097154E-02   3.46852924E-02   1.79490820E-02   9.61050636E-14   2.26448799E-07   1.01901960E-05   6.20658277E-01   7.69925917E-05   1.35869279E-02   1.35901807E-09   5.44314335E-01   3.16878875E-02   2.01291858E-08   4.52897598E-04   1.92481479E-06   4.41575158E-05   8.60085624E-03
   2.15250000E+03   5.00000000E-01   5.00000000E-01   8.44151433E-04   1.66672872E-07   5.39705131E-03   9.49887295E-03   3.50851647E-02   1.82514067E-02   8.18797432E-14   2.27244266E-07   1.02259920E-05   6.22838518E-01   7.72630504E-05   1.36346560E-02   1.37986610E-09   5.46366759E-01   3.17869517E-02   2.01966477E-08   4.54488532E-04   1.93157626E-06   4.43126318E-05   8.81581355E-03
   2.18750000E+03   5.00000000E-01   5.00000000E-01   9.46870718E-04   1.84919454E-07   5.41622989E-03   8.90163723E-03   3.54741090E-02   1.85405891E-02   6.92764494E-14   2.28051785E-07   1.02623303E-05   6.25051793E-01   7.75376069E-05   1.36831071E-02   1.40067423E-09   5.48447472E-01   3.18769889E-02   2.02652037E-08   4.56103570E-04   1.93844017E-06   4.44700980E-05   9.03145652E-03
   2.22250000E+03   5.00000000E-01   5.00000000E-01   1.05640780E-03   2.04996615E-07   5.43569829E-03   8.32045048E-03   3.58425975E-02   1.88143645E-02   5.82467422E-14   2.28871507E-07   1.02992178E-05   6.27298514E-01   7.78163124E-05   1.37322904E-02   1.42144946E-09   5.50556393E-01   3.19483673E-02   2.03348661E-08   4.57743014E-04   1.94540781E-06   4.46299439E-05   9.24767178E-03
   2.25750000E+03   5.00000000E-01   5.00000000E-01   1.17224188E-03   2.27079072E-07   5.45546044E-03   7.75788488E-03   3.61723794E-02   1.90705673E-02   4.87313895E-14   2.29703598E-07   1.03366619E-05   6.29579135E-01   7.80992232E-05   1.37822159E-02   1.44219945E-09   5.52693446E-01   3.19827239E-02   2.04056481E-08   4.59407195E-04   1.95248058E-06   4.47922015E-05   9.46440997E-03
   2.29250000E+03   5.00000000E-01   5.00000000E-01   1.29298323E-03   2.51361994E-07   5.47552059E-03   7.21668638E-03   3.64289942E-02   1.93073034E-02   4.06675143E-14   2.30548235E-07   1.03746706E-05   6.31894146E-01   7.83864000E-05   1.38328941E-02   1.46293247E-09   5.54858558E-01   3.19454789E-02   2.04775643E-08   4.61096471E-04   1.95966000E-06   4.49569059E-05   9.68178752E-03
   2.32750000E+03   5.00000000E-01   5.00000000E-01   1.41556464E-03   2.78070193E-07   5.49588334E-03   6.69989712E-03   3.65491971E-02   1.95232408E-02   3.39986100E-14   2.31405614E-07   1.04132526E-05   6.34244078E-01   7.86779088E-05   1.38843369E-02   1.48365740E-09   5.57051642E-01   3.17732610E-02   2.05506302E-08   4.62811229E-04   1.96694772E-06   4.51240948E-05   9.90028137E-03
   2.36250000E+03   5.00000000E-01   5.00000000E-01   1.53386239E-03   3.07473532E-07   5.51655364E-03   6.21107599E-03   3.64231420E-02   1.97180958E-02   2.86871893E-14   2.32275943E-07   1.04524174E-05   6.36629502E-01   7.89738205E-05   1.39365566E-02   1.50438361E-09   5.59272562E-01   3.13560899E-02   2.06248628E-08   4.64551885E-04   1.97434551E-06   4.52938088E-05   1.01210390E-02
   2.39750000E+03   5.00000000E-01   5.00000000E-01   1.63685270E-03   3.39902894E-07   5.53753679E-03   5.75450876E-03   3.58792211E-02   1.98933670E-02   2.47278842E-14   2.33159444E-07   1.04921750E-05   6.39051032E-01   7.92742109E-05   1.39895666E-02   1.52512101E-09   5.61521082E-01   3.05222141E-02   2.07002802E-08   4.66318888E-04   1.98185527E-06   4.54660916E-05   1.03461972E-02
   2.43250000E+03   5.00000000E-01   5.00000000E-01   1.70756057E-03   3.75736788E-07   5.55883848E-03   5.33493065E-03   3.46995800E-02   2.00531444E-02   2.21544347E-14   2.34056357E-07   1.05325361E-05   6.41509321E-01   7.95791615E-05   1.40433814E-02   1.54587996E-09   5.63796852E-01   2.90536215E-02   2.07769018E-08   4.68112714E-04   1.98947904E-06   4.56409897E-05   1.05787207E-02
   2.46750000E+03   5.00000000E-01   5.00000000E-01   1.72601983E-03   4.15296231E-07   5.58046475E-03   4.95585086E-03   3.27117532E-02   2.02042405E-02   2.10272193E-14   2.34966937E-07   1.05735122E-05   6.44005068E-01   7.98887586E-05   1.40980162E-02   1.56667125E-09   5.66099525E-01   2.67776711E-02   2.08547485E-08   4.69933874E-04   1.99721896E-06   4.58185527E-05   1.08208059E-02
   2.50250000E+03   5.00000000E-01   5.00000000E-01   1.67880035E-03   4.58636959E-07   5.60242202E-03   4.61630631E-03   2.99484856E-02   2.03545010E-02   2.13829964E-14   2.35891453E-07   1.06151154E-05   6.46539013E-01   8.02030942E-05   1.41534872E-02   1.58750607E-09   5.68429102E-01   2.37269135E-02   2.09338423E-08   4.71782907E-04   2.00507735E-06   4.59988334E-05   1.10706657E-02
   2.53750000E+03   5.00000000E-01   5.00000000E-01   1.56965231E-03   5.05448831E-07   5.62471709E-03   4.30873058E-03   2.67254944E-02   2.05094231E-02   2.31352300E-14   2.36830193E-07   1.06573587E-05   6.49111941E-01   8.05222656E-05   1.42098116E-02   1.60839597E-09   5.70786329E-01   2.02168605E-02   2.10142067E-08   4.73660386E-04   2.01305664E-06   4.61818876E-05   1.13205525E-02
   2.57250000E+03   5.00000000E-01   5.00000000E-01   1.41957775E-03   5.55328933E-07   5.64735713E-03   4.02153408E-03   2.34989707E-02   2.06695315E-02   2.59469289E-14   2.37783458E-07   1.07002556E-05   6.51724682E-01   8.08463758E-05   1.42670075E-02   1.62935286E-09   5.73172738E-01   1.67034989E-02   2.10958665E-08   4.75566917E-04   2.02115940E-06   4.63677744E-05   1.15597120E-02
   2.60750000E+03   5.00000000E-01   5.00000000E-01   1.25546493E-03   6.08230351E-07   5.67034975E-03   3.74482957E-03   2.06351982E-02   2.08305524E-02   2.91616883E-14   2.38751568E-07   1.07438206E-05   6.54378109E-01   8.11755332E-05   1.43250941E-02   1.65038893E-09   5.75590233E-01   1.35529204E-02   2.11788480E-08   4.77503136E-04   2.02938833E-06   4.65565558E-05   1.17802492E-02