 TITLE = "Total Concentrations" 
VARIABLES = "X"          "Y"              "Z"            "H+"             "Al+++"          "CO2(aq)"        "Mg++"           "Ca++"           "Fe++"           "Fe+++"          "Ba++"           "Sr++"           "Cl-"            "F-"             "K+"             "HS-"            "Na+"            "SO4--"          "O2(aq)"         "B(OH)3(aq)"     "HPO4--"         "NO3-"           "H4SiO4(aq)"    
 ZONE I=         100 , J=           1 , K=           1  F=POINT
   1.75000000E+01   5.00000000E-01   5.00000000E-01  -4.74791325E-03   1.60639943E-13   4.75010909E-03   4.94321577E-02   1.13083512E-02   6.29001856E-04   2.73206279E-12   2.00004593E-07   9.00020669E-06   5.48179132E-01   6.80015617E-05   1.20002756E-02   1.11426053E-10   4.74281037E-01   2.80006431E-02   1.79982543E-08   4.00009186E-04   1.70003904E-06   3.90008957E-05   1.73418070E-03
   5.25000000E+01   5.00000000E-01   5.00000000E-01  -4.72162332E-03   1.96177264E-13   4.75063957E-03   4.82479012E-02   1.21827319E-02   9.12508181E-04   1.85974445E-12   2.00026929E-07   9.00121182E-06   5.48240352E-01   6.80091559E-05   1.20016158E-02   1.22883512E-10   4.74373629E-01   2.80037701E-02   1.79981007E-08   4.00053859E-04   1.70022890E-06   3.90052512E-05   2.63320185E-03
   8.75000000E+01   5.00000000E-01   5.00000000E-01  -4.68562708E-03   2.42762300E-13   4.75176954E-03   4.73290573E-02   1.30307537E-02   1.02744709E-03   1.67689675E-12   2.00074507E-07   9.00335281E-06   5.48370754E-01   6.80253324E-05   1.20044704E-02   1.34380163E-10   4.74390291E-01   2.80104310E-02   1.80002134E-08   4.00149014E-04   1.70063331E-06   3.90145289E-05   3.12562348E-03
   1.22500000E+02   5.00000000E-01   5.00000000E-01  -4.64496046E-03   3.05769221E-13   4.75345252E-03   4.65158503E-02   1.38689172E-02   1.07986599E-03   1.62598707E-12   2.00145369E-07   9.00654161E-06   5.48564976E-01   6.80494255E-05   1.20087222E-02   1.45918691E-10   4.74404717E-01   2.80203517E-02   1.80044155E-08   4.00290738E-04   1.70123564E-06   3.90283470E-05   3.44884703E-03
   1.57500000E+02   5.00000000E-01   5.00000000E-01  -4.60000014E-03   3.93137452E-13   4.75564895E-03   4.57357164E-02   1.47110724E-02   1.11807359E-03   1.58380233E-12   2.00237850E-07   9.01070327E-06   5.48818451E-01   6.80808692E-05   1.20142710E-02   1.57501601E-10   4.74433163E-01   2.80332991E-02   1.80105566E-08   4.00475701E-04   1.70202173E-06   3.90463808E-05   3.73103512E-03
   1.92500000E+02   5.00000000E-01   5.00000000E-01  -4.54181337E-03   5.61745806E-13   4.75832501E-03   4.49458810E-02   1.55858137E-02   1.19376139E-03   1.39334869E-12   2.00350527E-07   9.01577370E-06   5.49127278E-01   6.81191790E-05   1.20210316E-02   1.69131258E-10   4.74387456E-01   2.80490737E-02   1.80185078E-08   4.00701053E-04   1.70297948E-06   3.90683527E-05   4.09463337E-03
   2.27500000E+02   5.00000000E-01   5.00000000E-01  -4.47531420E-03   8.19691445E-13   4.76145164E-03   4.41821570E-02   1.64891216E-02   1.29607841E-03   1.20570088E-12   2.00482174E-07   9.02169785E-06   5.49488102E-01   6.81639393E-05   1.20289305E-02   1.80809885E-10   4.74227003E-01   2.80675045E-02   1.80281585E-08   4.00964349E-04   1.70409848E-06   3.90940240E-05   4.47717233E-03
   2.62500000E+02   5.00000000E-01   5.00000000E-01  -4.41438006E-03   1.05099699E-12   4.76500382E-03   4.34753793E-02   1.73991044E-02   1.36559860E-03   1.16908874E-12   2.00631740E-07   9.02842829E-06   5.49898036E-01   6.82147915E-05   1.20379044E-02   1.92539602E-10   4.74063525E-01   2.80884436E-02   1.80394134E-08   4.01263479E-04   1.70536979E-06   3.91231892E-05   4.80659018E-03
   2.97500000E+02   5.00000000E-01   5.00000000E-01  -4.35136424E-03   1.29336589E-12   4.76895988E-03   4.27933387E-02   1.83116194E-02   1.40816651E-03   1.17724565E-12   2.00798311E-07   9.03592398E-06   5.50354579E-01   6.82714256E-05   1.20478986E-02   2.04322463E-10   4.73947690E-01   2.81117635E-02   1.80521899E-08   4.01596621E-04   1.70678564E-06   3.91556706E-05   5.11054856E-03
   3.32500000E+02   5.00000000E-01   5.00000000E-01  -4.28338685E-03   1.57132272E-12   4.77330104E-03   4.21143612E-02   1.92259028E-02   1.43617191E-03   1.19726118E-12   2.00981096E-07   9.04414934E-06   5.50855564E-01   6.83335728E-05   1.20588658E-02   2.16160441E-10   4.73894372E-01   2.81373536E-02   1.80664164E-08   4.01962193E-04   1.70833932E-06   3.91913138E-05   5.40917373E-03
   3.67500000E+02   5.00000000E-01   5.00000000E-01  -4.20948597E-03   1.89672174E-12   4.77801099E-03   4.14282039E-02   2.01417371E-02   1.45688629E-03   1.22014867E-12   2.01179410E-07   9.05307346E-06   5.51399109E-01   6.84009995E-05   1.20707646E-02   2.28055443E-10   4.73906954E-01   2.81651175E-02   1.80820306E-08   4.02358821E-04   1.71002499E-06   3.92299850E-05   5.71114456E-03
   4.02500000E+02   5.00000000E-01   5.00000000E-01  -4.12904181E-03   2.28000541E-12   4.78307553E-03   4.07303133E-02   2.10590844E-02   1.47398763E-03   1.24231674E-12   2.01392654E-07   9.06266942E-06   5.51983574E-01   6.84735023E-05   1.20835592E-02   2.40009326E-10   4.73984870E-01   2.81949716E-02   1.80989784E-08   4.02785308E-04   1.71183756E-06   3.92715675E-05   6.01957977E-03
   4.37500000E+02   5.00000000E-01   5.00000000E-01  -4.04155791E-03   2.73269655E-12   4.78848227E-03   4.00187333E-02   2.19780282E-02   1.48931198E-03   1.26182998E-12   2.01620306E-07   9.07291377E-06   5.52607531E-01   6.85509041E-05   1.20972184E-02   2.52023917E-10   4.74126155E-01   2.82268429E-02   1.81172123E-08   4.03240612E-04   1.71377260E-06   3.93159597E-05   6.33535823E-03
   4.72500000E+02   5.00000000E-01   5.00000000E-01  -3.94665446E-03   3.26807951E-12   4.79422042E-03   3.92927020E-02   2.28987469E-02   1.50379358E-03   1.27744064E-12   2.01861912E-07   9.08378605E-06   5.53269733E-01   6.86330502E-05   1.21117147E-02   2.64101018E-10   4.74328380E-01   2.82606678E-02   1.81366911E-08   4.03723825E-04   1.71582625E-06   3.93630729E-05   6.65856462E-03
   5.07500000E+02   5.00000000E-01   5.00000000E-01  -3.84408981E-03   3.90158334E-12   4.80028056E-03   3.85520398E-02   2.38214896E-02   1.51791559E-03   1.28827033E-12   2.02117076E-07   9.09526844E-06   5.53969095E-01   6.87198060E-05   1.21270246E-02   2.76242418E-10   4.74589026E-01   2.82963908E-02   1.81573789E-08   4.04234153E-04   1.71799515E-06   3.94128299E-05   6.98905296E-03
   5.42500000E+02   5.00000000E-01   5.00000000E-01  -3.73378310E-03   4.65116374E-12   4.80665451E-03   3.77968803E-02   2.47465518E-02   1.53192714E-03   1.29368518E-12   2.02385453E-07   9.10734539E-06   5.54704671E-01   6.88110541E-05   1.21431272E-02   2.88449896E-10   4.74905633E-01   2.83339635E-02   1.81792440E-08   4.04770906E-04   1.72027635E-06   3.94651634E-05   7.32664072E-03
   5.77500000E+02   5.00000000E-01   5.00000000E-01  -3.61583318E-03   5.53774254E-12   4.81333513E-03   3.70275499E-02   2.56742571E-02   1.54595251E-03   1.29324088E-12   2.02666742E-07   9.12000341E-06   5.55475638E-01   6.89066924E-05   1.21600045E-02   3.00725228E-10   4.75275863E-01   2.83733440E-02   1.82022593E-08   4.05333485E-04   1.72266731E-06   3.95200148E-05   7.67115934E-03
   6.12500000E+02   5.00000000E-01   5.00000000E-01  -3.49053202E-03   6.58572136E-12   4.82031624E-03   3.62445107E-02   2.66049414E-02   1.56004921E-03   1.28665599E-12   2.02960684E-07   9.13323077E-06   5.56281282E-01   6.90066325E-05   1.21776410E-02   3.13070186E-10   4.75697524E-01   2.84144958E-02   1.82264008E-08   4.05921368E-04   1.72516581E-06   3.95773334E-05   8.02245435E-03
   6.47500000E+02   5.00000000E-01   5.00000000E-01  -3.35837065E-03   7.82357966E-12   4.82759249E-03   3.54483306E-02   2.75389432E-02   1.57424014E-03   1.27379731E-12   2.03267052E-07   9.14701735E-06   5.57120987E-01   6.91107978E-05   1.21960231E-02   3.25486543E-10   4.76168584E-01   2.84573874E-02   1.82516479E-08   4.06534105E-04   1.72776994E-06   3.96370752E-05   8.38037232E-03
   6.82500000E+02   5.00000000E-01   5.00000000E-01  -3.22003624E-03   9.28456852E-12   4.83515929E-03   3.46396657E-02   2.84765962E-02   1.58853178E-03   1.25466983E-12   2.03585654E-07   9.16135444E-06   5.57994221E-01   6.92191224E-05   1.22151393E-02   3.37976074E-10   4.76687164E-01   2.85019917E-02   1.82779829E-08   4.07171308E-04   1.73047806E-06   3.96992026E-05   8.74474718E-03
   7.17500000E+02   5.00000000E-01   5.00000000E-01  -3.07639929E-03   1.10075159E-11   4.84301271E-03   3.38192455E-02   2.94182258E-02   1.60292443E-03   1.22940782E-12   2.03916324E-07   9.17623460E-06   5.58900533E-01   6.93315503E-05   1.22349795E-02   3.50540560E-10   4.77251534E-01   2.85482855E-02   1.83053906E-08   4.07832649E-04   1.73328876E-06   3.97636833E-05   9.11538904E-03
   7.52500000E+02   5.00000000E-01   5.00000000E-01  -2.92849083E-03   1.30377552E-11   4.85114943E-03   3.29878588E-02   3.03641460E-02   1.61741736E-03   1.19826522E-12   2.04258923E-07   9.19165155E-06   5.59839539E-01   6.94480339E-05   1.22555354E-02   3.63181789E-10   4.77860108E-01   2.85962494E-02   1.83338581E-08   4.08517847E-04   1.73620085E-06   3.98304900E-05   9.49207776E-03
   7.87500000E+02   5.00000000E-01   5.00000000E-01  -2.77747030E-03   1.54282032E-11   4.85956668E-03   3.21463371E-02   3.13146587E-02   1.63201110E-03   1.16160397E-12   2.04613334E-07   9.20760003E-06   5.60810919E-01   6.95685335E-05   1.22768000E-02   3.75901559E-10   4.78511432E-01   2.86458668E-02   1.83633744E-08   4.09226668E-04   1.73921334E-06   3.98996001E-05   9.87455927E-03
   8.22500000E+02   5.00000000E-01   5.00000000E-01  -2.62458594E-03   1.82406114E-11   4.86826219E-03   3.12955359E-02   3.22700533E-02   1.64670768E-03   1.11988027E-12   2.04979460E-07   9.22407572E-06   5.61814411E-01   6.96930166E-05   1.22987676E-02   3.88701681E-10   4.79204176E-01   2.86971246E-02   1.83939306E-08   4.09958921E-04   1.74232541E-06   3.99709948E-05   1.02625442E-02
   8.57500000E+02   5.00000000E-01   5.00000000E-01  -2.47113018E-03   2.15470263E-11   4.87723412E-03   3.04363154E-02   3.32306067E-02   1.66150988E-03   1.07362881E-12   2.05357226E-07   9.24107518E-06   5.62849804E-01   6.98214569E-05   1.23214336E-02   4.01583984E-10   4.79937125E-01   2.87500117E-02   1.84255194E-08   4.10714452E-04   1.74553642E-06   4.00446591E-05   1.06557069E-02
   8.92500000E+02   5.00000000E-01   5.00000000E-01  -2.31839334E-03   2.54314962E-11   4.88648108E-03   2.95695202E-02   3.41965834E-02   1.67641959E-03   1.02344596E-12   2.05746572E-07   9.25859572E-06   5.63916934E-01   6.99538344E-05   1.23447943E-02   4.14550314E-10   4.80709171E-01   2.88045201E-02   1.84581351E-08   4.11493143E-04   1.74884586E-06   4.01205815E-05   1.10536843E-02
   9.27500000E+02   5.00000000E-01   5.00000000E-01  -2.16761872E-03   2.99920838E-11   4.89600202E-03   2.86959613E-02   3.51682361E-02   1.69143582E-03   9.69972262E-13   2.06147453E-07   9.27663541E-06   5.65015685E-01   7.00901342E-05   1.23688472E-02   4.27602540E-10   4.81519305E-01   2.88606435E-02   1.84917736E-08   4.12294907E-04   1.75225335E-06   4.01987534E-05   1.14560737E-02
   9.62500000E+02   5.00000000E-01   5.00000000E-01  -2.01996226E-03   3.53432484E-11   4.90579628E-03   2.78163993E-02   3.61458070E-02   1.70655249E-03   9.13875201E-13   2.06559843E-07   9.29519295E-06   5.66145976E-01   7.02303467E-05   1.23935906E-02   4.40742553E-10   4.82366604E-01   2.89183781E-02   1.85264318E-08   4.13119686E-04   1.75575867E-06   4.02791694E-05   1.18624280E-02
   9.97500000E+02   5.00000000E-01   5.00000000E-01  -1.87645911E-03   4.16186746E-11   4.91586349E-03   2.69315321E-02   3.71295284E-02   1.72175581E-03   8.55833073E-13   2.06983726E-07   9.31426767E-06   5.67307768E-01   7.03744669E-05   1.24190236E-02   4.53972272E-10   4.83250227E-01   2.89777216E-02   1.85621080E-08   4.13967452E-04   1.75936167E-06   4.03618266E-05   1.22722515E-02
   1.03250000E+03   5.00000000E-01   5.00000000E-01  -1.73799877E-03   4.89746672E-11   4.92620362E-03   2.60419865E-02   3.81196241E-02   1.73702172E-03   7.96520202E-13   2.07419100E-07   9.33385949E-06   5.68501055E-01   7.05224940E-05   1.24451460E-02   4.67293646E-10   4.84169404E-01   2.90386739E-02   1.85988017E-08   4.14838200E-04   1.76306235E-06   4.04467245E-05   1.26849914E-02
   1.06750000E+03   5.00000000E-01   5.00000000E-01  -1.60530948E-03   5.75942861E-11   4.93681690E-03   2.51483141E-02   3.91163121E-02   1.75231331E-03   7.36593835E-13   2.07865975E-07   9.35396886E-06   5.69725864E-01   7.06744314E-05   1.24719585E-02   4.80708653E-10   4.85123427E-01   2.91012363E-02   1.86365135E-08   4.15731949E-04   1.76686078E-06   4.05338651E-05   1.31000259E-02
   1.10250000E+03   5.00000000E-01   5.00000000E-01  -1.47895145E-03   6.76925797E-11   4.94770383E-03   2.42509899E-02   4.01198083E-02   1.76757963E-03   6.76682349E-13   2.08324372E-07   9.37459672E-06   5.70982253E-01   7.08302863E-05   1.24994623E-02   4.94219302E-10   4.86111639E-01   2.91654118E-02   1.86752448E-08   4.16648743E-04   1.77075716E-06   4.06232525E-05   1.35166346E-02
   1.13750000E+03   5.00000000E-01   5.00000000E-01  -1.06298457E-03   3.76644590E-09   4.95886516E-03   2.23181531E-02   4.12279669E-02   2.72858262E-03   1.93754192E-13   2.08794322E-07   9.39574451E-06   5.72270310E-01   7.09900696E-05   1.25276593E-02   5.07827655E-10   4.86814673E-01   2.92312047E-02   1.87149981E-08   4.17588645E-04   1.77475174E-06   4.07148929E-05   2.81722204E-03
   1.17250000E+03   5.00000000E-01   5.00000000E-01  -1.06627102E-03   1.58278160E-09   4.97030189E-03   2.06614759E-02   4.23440953E-02   3.32564925E-03   2.00261082E-13   2.09275869E-07   9.41741410E-06   5.73590148E-01   7.11537954E-05   1.25565521E-02   5.21535729E-10   4.88130930E-01   2.92986208E-02   1.87557768E-08   4.18551738E-04   1.77884489E-06   4.08087944E-05   4.41211236E-03
   1.20750000E+03   5.00000000E-01   5.00000000E-01  -1.01807298E-03   1.11250320E-09   4.98201524E-03   1.93851748E-02   4.34683798E-02   3.54004961E-03   1.89649299E-13   2.09769063E-07   9.43960782E-06   5.74941909E-01   7.13214813E-05   1.25861438E-02   5.35345671E-10   4.89418456E-01   2.93676673E-02   1.87975851E-08   4.19538125E-04   1.78303703E-06   4.09049672E-05   5.64787928E-03
   1.24250000E+03   5.00000000E-01   5.00000000E-01  -9.53442992E-04   9.50142984E-10   4.99400664E-03   1.83586958E-02   4.46010699E-02   3.50982897E-03   1.76042339E-13   2.10273964E-07   9.46232837E-06   5.76325759E-01   7.14931477E-05   1.26164378E-02   5.49259652E-10   4.90697003E-01   2.94383524E-02   1.88404281E-08   4.20547928E-04   1.78732869E-06   4.10034229E-05   6.64688570E-03
   1.27750000E+03   5.00000000E-01   5.00000000E-01  -8.84239549E-04   8.88014007E-10   5.00627774E-03   1.74454262E-02   4.57434707E-02   3.36804851E-03   1.61230944E-13   2.10790642E-07   9.48557888E-06   5.77741887E-01   7.16688182E-05   1.26474385E-02   5.63279874E-10   4.91983130E-01   2.95106854E-02   1.88843116E-08   4.21581284E-04   1.79172046E-06   4.11041751E-05   7.52002136E-03
   1.31250000E+03   5.00000000E-01   5.00000000E-01  -8.15555075E-04   8.77767132E-10   5.01883039E-03   1.65495300E-02   4.69119514E-02   3.19427982E-03   1.44264886E-13   2.11319174E-07   9.50936285E-06   5.79190506E-01   7.18485193E-05   1.26791505E-02   5.77408580E-10   4.93281946E-01   2.95846762E-02   1.89292422E-08   4.22638349E-04   1.79621298E-06   4.12072390E-05   8.30860907E-03
   1.34750000E+03   5.00000000E-01   5.00000000E-01  -7.50351543E-04   8.99365742E-10   5.03166662E-03   1.56255615E-02   4.81208814E-02   3.02155897E-03   1.25535279E-13   2.11859647E-07   9.53368413E-06   5.80671852E-01   7.20322801E-05   1.27115788E-02   5.91648059E-10   4.94592745E-01   2.96603349E-02   1.89752271E-08   4.23719295E-04   1.80080700E-06   4.13126312E-05   9.03552076E-03
   1.38250000E+03   5.00000000E-01   5.00000000E-01  -5.81137354E-04   1.02723601E-08   5.04478867E-03   1.38028904E-02   4.93693675E-02   3.74998312E-03   4.59926396E-14   2.12412155E-07   9.55854696E-06   5.82186182E-01   7.22201326E-05   1.27447293E-02   6.06000647E-10   4.95751129E-01   2.97376706E-02   1.90222744E-08   4.24824309E-04   1.80550331E-06   4.14203701E-05   3.66793876E-03
   1.41750000E+03   5.00000000E-01   5.00000000E-01  -5.51855541E-04   1.12588246E-08   5.05819894E-03   1.21267943E-02   5.06550066E-02   4.23429882E-03   3.09699258E-14   2.12976798E-07   9.58395589E-06   5.83733774E-01   7.24121112E-05   1.27786079E-02   6.20468696E-10   4.97206134E-01   2.98166874E-02   1.90703927E-08   4.25953595E-04   1.81030278E-06   4.15304755E-05   3.84156122E-03
   1.45250000E+03   5.00000000E-01   5.00000000E-01  -5.31229254E-04   8.86268803E-09   5.07190003E-03   1.08241007E-02   5.19767890E-02   4.32287499E-03   2.37587944E-14   2.13553685E-07   9.60991585E-06   5.85314927E-01   7.26082531E-05   1.28132211E-02   6.35054643E-10   4.98678367E-01   2.98973760E-02   1.91195916E-08   4.27107371E-04   1.81520633E-06   4.16429687E-05   4.66172807E-03
   1.48750000E+03   5.00000000E-01   5.00000000E-01  -4.98075623E-04   8.68264871E-09   5.08589470E-03   9.71949798E-03   5.33344665E-02   4.19806461E-03   1.74817961E-14   2.14142935E-07   9.63643206E-06   5.86929961E-01   7.28085978E-05   1.28485761E-02   6.49760974E-10   5.00133260E-01   2.99796884E-02   1.91698809E-08   4.28285869E-04   1.82021495E-06   4.17578723E-05   5.17858134E-03
   1.52250000E+03   5.00000000E-01   5.00000000E-01  -4.62574746E-04   9.49826508E-09   5.10018590E-03   8.68197644E-03   5.47280592E-02   3.98915269E-03   1.22633647E-14   2.14744669E-07   9.66351012E-06   5.88579215E-01   7.30131876E-05   1.28846802E-02   6.64590227E-10   5.01584418E-01   3.00634653E-02   1.92212713E-08   4.29489339E-04   1.82532969E-06   4.18752105E-05   5.49009084E-03
   1.55750000E+03   5.00000000E-01   5.00000000E-01  -4.28271234E-04   1.13829481E-08   5.11477673E-03   7.64171339E-03   5.61572563E-02   3.76611664E-03   7.97405018E-15   2.15359020E-07   9.69115591E-06   5.90263048E-01   7.32220669E-05   1.29215412E-02   6.79544986E-10   5.03035056E-01   3.01482094E-02   1.92737742E-08   4.30718040E-04   1.83055167E-06   4.19950089E-05   5.61101926E-03
   1.59250000E+03   5.00000000E-01   5.00000000E-01  -3.96134034E-04   1.54347618E-08   5.12967049E-03   6.55832219E-03   5.76206464E-02   3.57301249E-03   4.58895291E-15   2.15986126E-07   9.71937566E-06   5.91981839E-01   7.34352827E-05   1.29591675E-02   6.94627894E-10   5.04478826E-01   3.02323374E-02   1.93274016E-08   4.31972251E-04   1.83588207E-06   4.21172945E-05   5.47405160E-03
   1.62750000E+03   5.00000000E-01   5.00000000E-01  -3.68062105E-04   2.38641671E-08   5.14487062E-03   5.42536487E-03   5.91131845E-02   3.41579270E-03   2.23774799E-15   2.16626131E-07   9.74817591E-06   5.93735987E-01   7.36528846E-05   1.29975679E-02   7.09841649E-10   5.05918480E-01   3.03105525E-02   1.93821660E-08   4.33252263E-04   1.84132212E-06   4.22420956E-05   5.10316897E-03
   1.66250000E+03   5.00000000E-01   5.00000000E-01  -3.50651671E-04   3.50573619E-08   5.16038075E-03   4.32785081E-03   6.06163681E-02   3.19266280E-03   9.73446684E-16   2.17279189E-07   9.77756352E-06   5.95525911E-01   7.38749244E-05   1.30367514E-02   7.25189010E-10   5.07393911E-01   3.03640100E-02   1.94380806E-08   4.34558379E-04   1.84687311E-06   4.23694419E-05   4.90037421E-03
   1.69750000E+03   5.00000000E-01   5.00000000E-01  -3.43532122E-04   4.57226233E-08   5.17620467E-03   3.34159559E-03   6.20601199E-02   2.82715223E-03   3.86506619E-16   2.17945460E-07   9.80754569E-06   5.97352046E-01   7.41014563E-05   1.30767276E-02   7.40672802E-10   5.08904586E-01   3.03216763E-02   1.94951593E-08   4.35890919E-04   1.85253641E-06   4.24993646E-05   5.03303912E-03
   1.73250000E+03   5.00000000E-01   5.00000000E-01  -3.36997252E-04   5.67135583E-08   5.19234634E-03   2.46610191E-03   6.31712174E-02   2.34526861E-03   1.23825577E-16   2.18625109E-07   9.83812991E-06   5.99214851E-01   7.43325371E-05   1.31175065E-02   7.56295915E-10   5.10388683E-01   2.99095593E-02   1.95534166E-08   4.37250218E-04   1.85831343E-06   4.26318963E-05   5.75201655E-03
   1.76750000E+03   5.00000000E-01   5.00000000E-01  -3.49632226E-04   7.12879090E-08   5.20880989E-03   1.71973607E-03   6.30167136E-02   1.79309687E-03   3.47371987E-17   2.19318311E-07   9.86932401E-06   6.01114803E-01   7.45682258E-05   1.31590987E-02   7.72061305E-10   5.11731884E-01   2.81924840E-02   1.96128675E-08   4.38636623E-04   1.86420565E-06   4.27670707E-05   6.41761415E-03
   1.80250000E+03   5.00000000E-01   5.00000000E-01  -3.96499550E-04   1.00835930E-07   5.22559963E-03   1.07600329E-03   5.98720193E-02   1.22846147E-03   7.47652756E-18   2.20025248E-07   9.90113614E-06   6.03052397E-01   7.48085842E-05   1.32015149E-02   7.87971993E-10   5.12885964E-01   2.34453201E-02   1.96735279E-08   4.40050495E-04   1.87021461E-06   4.29049233E-05   6.62381813E-03
   1.83750000E+03   5.00000000E-01   5.00000000E-01  -4.86778824E-04   2.16916753E-07   5.24272003E-03   5.38785217E-04   5.42593391E-02   7.44582186E-04   7.25698810E-19   2.20746107E-07   9.93357480E-06   6.05028151E-01   7.50536763E-05   1.32447664E-02   8.04031074E-10   5.13708722E-01   1.62115395E-02   1.97354141E-08   4.41492213E-04   1.87634191E-06   4.30454908E-05   6.04688554E-03
   1.87250000E+03   5.00000000E-01   5.00000000E-01  -7.50072287E-04   4.57353998E-07   5.26017575E-03   1.81231917E-04   4.94684305E-02   2.76217610E-04   2.17623515E-20   2.21481084E-07   9.96664878E-06   6.07042601E-01   7.53035686E-05   1.32888650E-02   8.20241718E-10   5.14413509E-01   9.83047546E-03   1.97985431E-08   4.42962168E-04   1.88258921E-06   4.31888114E-05   5.15711653E-03
   1.90750000E+03   5.00000000E-01   5.00000000E-01  -1.78411884E-03   7.27488184E-07   5.27797160E-03   2.36095054E-05   4.69149338E-02   2.64256366E-05   3.72765041E-23   2.22230383E-07   1.00003672E-05   6.09096304E-01   7.55583303E-05   1.33338230E-02   8.36607180E-10   5.15219789E-01   5.75154135E-03   1.98629328E-08   4.44460766E-04   1.88895826E-06   4.33349247E-05   4.56444836E-03
   1.94250000E+03   5.00000000E-01   5.00000000E-01  -3.09575977E-03   1.20341507E-06   5.29611260E-03   3.95000804E-06   4.58977428E-02   3.50776890E-06   1.36443970E-25   2.22994215E-07   1.00347397E-05   6.11189839E-01   7.58180331E-05   1.33796529E-02   8.53130784E-10   5.16212194E-01   3.50884074E-03   1.99286013E-08   4.45988430E-04   1.89545083E-06   4.34838719E-05   3.94830404E-03
   1.97750000E+03   5.00000000E-01   5.00000000E-01  -3.75193881E-03   2.09023563E-06   5.31460395E-03   1.57006114E-06   4.54327937E-02   1.48171496E-06   7.83860870E-27   2.23772798E-07   1.00697759E-05   6.13323805E-01   7.60827513E-05   1.34263679E-02   8.69815929E-10   5.17564970E-01   2.34530934E-03   1.99955678E-08   4.47545596E-04   1.90206878E-06   4.36356956E-05   3.14491662E-03
   2.01250000E+03   5.00000000E-01   5.00000000E-01  -4.11486732E-03   3.04942317E-06   5.33345102E-03   9.30634206E-07   4.52359138E-02   9.48300159E-07   1.72829308E-27   2.24566359E-07   1.01054861E-05   6.15498822E-01   7.63525619E-05   1.34739815E-02   8.86666106E-10   5.19241809E-01   1.74176646E-03   2.00638521E-08   4.49132717E-04   1.90881405E-06   4.37904399E-05   2.56545613E-03
   2.04750000E+03   5.00000000E-01   5.00000000E-01  -4.35171571E-03   3.98233179E-06   5.35265937E-03   6.58650439E-07   4.51659527E-02   7.18840100E-07   6.82305823E-28   2.25375131E-07   1.01418809E-05   6.17715533E-01   7.66275447E-05   1.35225079E-02   9.03684895E-10   5.21133103E-01   1.41564793E-03   2.01334745E-08   4.50750263E-04   1.91568862E-06   4.39481506E-05   2.18893486E-03
   2.08250000E+03   5.00000000E-01   5.00000000E-01  -4.51737929E-03   4.87799939E-06   5.37223478E-03   5.13931838E-07   4.51448236E-02   5.97445211E-07   3.67030705E-28   2.26199359E-07   1.01789712E-05   6.19974603E-01   7.69077821E-05   1.35719615E-02   9.20875968E-10   5.23168874E-01   1.22565219E-03   2.02044563E-08   4.52398718E-04   1.92269455E-06   4.41088750E-05   1.93864988E-03
   2.11750000E+03   5.00000000E-01   5.00000000E-01  -4.63620345E-03   5.74168170E-06   5.39218320E-03   4.26194890E-07   4.51358849E-02   5.25817802E-07   2.38511903E-28   2.27039292E-07   1.02167682E-05   6.22276720E-01   7.71933594E-05   1.36223575E-02   9.38243090E-10   5.25310644E-01   1.10326857E-03   2.02768192E-08   4.54078585E-04   1.92983399E-06   4.42726620E-05   1.76477407E-03
   2.15250000E+03   5.00000000E-01   5.00000000E-01  -4.72159886E-03   6.58331819E-06   5.41251079E-03   3.67973566E-07   4.51240468E-02   4.80618449E-07   1.75387744E-28   2.27895191E-07   1.02552836E-05   6.24622595E-01   7.74843649E-05   1.36737115E-02   9.55790125E-10   5.27536904E-01   1.01556496E-03   2.03505860E-08   4.55790382E-04   1.93710912E-06   4.44395622E-05   1.63862584E-03
   2.18750000E+03   5.00000000E-01   5.00000000E-01  -4.78185202E-03   7.41403033E-06   5.43322392E-03   3.26590204E-07   4.51042311E-02   4.50836048E-07   1.40279016E-28   2.28767323E-07   1.02945295E-05   6.27012963E-01   7.77808899E-05   1.37260394E-02   9.73521036E-10   5.29835083E-01   9.46666291E-04   2.04257802E-08   4.57534646E-04   1.94452225E-06   4.46096280E-05   1.54344979E-03
   2.22250000E+03   5.00000000E-01   5.00000000E-01  -4.82247659E-03   8.24480122E-06   5.45432919E-03   2.95505383E-07   4.50756630E-02   4.30674662E-07   1.18973713E-28   2.29655966E-07   1.03345185E-05   6.29448585E-01   7.80830284E-05   1.37793580E-02   9.91439894E-10   5.32197493E-01   8.88829961E-04   2.05024258E-08   4.59311932E-04   1.95207571E-06   4.47829134E-05   1.46907311E-03
   2.25750000E+03   5.00000000E-01   5.00000000E-01  -4.84734988E-03   9.08603213E-06   5.47583339E-03   2.71060562E-07   4.50392346E-02   4.16823805E-07   1.05191064E-28   2.30561406E-07   1.03752633E-05   6.31930244E-01   7.83908780E-05   1.38336844E-02   1.00955088E-09   5.34619264E-01   8.38198913E-04   2.05805479E-08   4.61122812E-04   1.95977195E-06   4.49594741E-05   1.40907479E-03
   2.29250000E+03   5.00000000E-01   5.00000000E-01  -4.85931732E-03   9.94746187E-06   5.49774355E-03   2.51079161E-07   4.49963399E-02   4.07268324E-07   9.58228627E-29   2.31483939E-07   1.04167773E-05   6.34458753E-01   7.87045392E-05   1.38890363E-02   1.02785827E-09   5.37097240E-01   7.92780707E-04   2.06601723E-08   4.62967878E-04   1.96761348E-06   4.51393681E-05   1.35926329E-03
   2.32750000E+03   5.00000000E-01   5.00000000E-01  -4.86053917E-03   1.08382540E-05   5.52006693E-03   2.34203769E-07   4.49483886E-02   4.00718203E-07   8.91896518E-29   2.32423871E-07   1.04590742E-05   6.37034948E-01   7.90241160E-05   1.39454322E-02   1.04636648E-09   5.39629365E-01   7.51477855E-04   2.07413258E-08   4.64847741E-04   1.97560290E-06   4.53226548E-05   1.31682337E-03
   2.36250000E+03   5.00000000E-01   5.00000000E-01  -4.85270340E-03   1.17671451E-05   5.54281102E-03   2.19556488E-07   4.48966363E-02   3.96313701E-07   8.43185770E-29   2.33381517E-07   1.05021683E-05   6.39659696E-01   7.93497157E-05   1.40028910E-02   1.06508004E-09   5.42214320E-01   7.13630193E-04   2.08240359E-08   4.66763033E-04   1.98374289E-06   4.55093958E-05   1.27981831E-03
   2.39750000E+03   5.00000000E-01   5.00000000E-01  -4.83716293E-03   1.27425991E-05   5.56598357E-03   2.06553442E-07   4.48421608E-02   3.93463140E-07   8.06140010E-29   2.34357203E-07   1.05460741E-05   6.42333889E-01   7.96814490E-05   1.40614322E-02   1.08400360E-09   5.44851296E-01   6.78810348E-04   2.09083311E-08   4.68714406E-04   1.99203623E-06   4.56996546E-05   1.24688989E-03
   2.43250000E+03   5.00000000E-01   5.00000000E-01  -4.81502706E-03   1.37729552E-05   5.58959257E-03   1.94797945E-07   4.47858751E-02   3.91748962E-07   7.76950152E-29   2.35351266E-07   1.05908070E-05   6.45058450E-01   8.00194305E-05   1.41210760E-02   1.10314194E-09   5.47539862E-01   6.46720484E-04   2.09942408E-08   4.70702532E-04   2.00048576E-06   4.58934969E-05   1.21707119E-03
   2.46750000E+03   5.00000000E-01   5.00000000E-01  -4.78722419E-03   1.48665679E-05   5.61364627E-03   1.84016106E-07   4.47285401E-02   3.90870860E-07   7.53098481E-29   2.36364054E-07   1.06363824E-05   6.47834331E-01   8.03637782E-05   1.41818432E-02   1.12249997E-09   5.50279864E-01   6.17126511E-04   2.10817955E-08   4.72728107E-04   2.00909446E-06   4.60909905E-05   1.18966592E-03
   2.50250000E+03   5.00000000E-01   5.00000000E-01  -4.75454544E-03   1.60319345E-05   5.63815320E-03   1.74016583E-07   4.46707894E-02   3.90610147E-07   7.32882131E-29   2.37395924E-07   1.06828166E-05   6.50662515E-01   8.07146142E-05   1.42437555E-02   1.14208275E-09   5.53071361E-01   5.89828145E-04   2.11710263E-08   4.74791848E-04   2.01786536E-06   4.62922052E-05   1.16416856E-03
   2.53750000E+03   5.00000000E-01   5.00000000E-01  -4.71767563E-03   1.72778059E-05   5.66312215E-03   1.64664575E-07   4.46131561E-02   3.90806649E-07   7.15134197E-29   2.38447248E-07   1.07301262E-05   6.53544019E-01   8.10720645E-05   1.43068349E-02   1.16189549E-09   5.55914586E-01   5.64647811E-04   2.12619658E-08   4.76894497E-04   2.02680161E-06   4.64972134E-05   1.14021041E-03
   2.57250000E+03   5.00000000E-01   5.00000000E-01  -4.67721512E-03   1.86132567E-05   5.68856221E-03   1.55864499E-07   4.45560908E-02   3.91342991E-07   6.99052400E-29   2.39518409E-07   1.07783284E-05   6.56479891E-01   8.14362590E-05   1.43711045E-02   1.18194352E-09   5.58809905E-01   5.41420150E-04   2.13546475E-08   4.79036818E-04   2.03590648E-06   4.67060897E-05   1.11752374E-03
   2.60750000E+03   5.00000000E-01   5.00000000E-01  -4.63369412E-03   2.00477448E-05   5.71448276E-03   1.47548326E-07   4.44999783E-02   3.92134201E-07   6.84091223E-29   2.40609800E-07   1.08274410E-05   6.59471212E-01   8.18073321E-05   1.44365880E-02   1.20223236E-09   5.61757801E-01   5.19990014E-04   2.14491057E-08   4.81219601E-04   2.04518330E-06   4.69189111E-05   1.09591644E-03