 TITLE = "Total Concentrations" 
VARIABLES = "X"          "Y"              "Z"            "H+"             "Al+++"          "CO2(aq)"        "Mg++"           "Ca++"           "Fe++"           "Fe+++"          "Cl-"            "K+"             "Na+"            "SO4--"          "O2(aq)"         "B(OH)3(aq)"     "HPO4--"         "NO3-"           "H4SiO4(aq)"    
 ZONE I=          35 , J=           1 , K=           1  F=POINT
   5.00000000E+01   5.00000000E-01   5.00000000E-01  -7.22636020E-03   3.48661146E-19   4.75020691E-03   5.07598393E-02   1.04060208E-02   1.12134510E-06   1.00004356E-13   5.45082381E-01   1.20005227E-02   4.74023660E-01   2.80035014E-02   1.80007841E-04   4.00017424E-04   1.70007405E-06   3.90016989E-05   7.31886479E-06
   1.50000000E+02   5.00000000E-01   5.00000000E-01  -7.19100735E-03   1.30422908E-17   4.75045220E-03   5.07444175E-02   1.04066649E-02   1.15487800E-06   1.00009520E-13   5.45110527E-01   1.20011424E-02   4.74048229E-01   2.80049538E-02   1.80017136E-04   4.00038080E-04   1.70016184E-06   3.90037128E-05   5.76267179E-07
   2.50000000E+02   5.00000000E-01   5.00000000E-01  -7.18426176E-03   1.08387266E-16   4.75052110E-03   5.07417125E-02   1.04067543E-02   1.15787724E-06   1.00010971E-13   5.45118434E-01   1.20013165E-02   4.74055113E-01   2.80052895E-02   1.80019747E-04   4.00043882E-04   1.70018650E-06   3.90042785E-05   1.17545331E-07
   3.50000000E+02   5.00000000E-01   5.00000000E-01  -7.18122717E-03   3.57441735E-16   4.75058076E-03   5.07407734E-02   1.04068077E-02   1.16048819E-06   1.00012226E-13   5.45125279E-01   1.20014672E-02   4.74061073E-01   2.80055561E-02   1.80022008E-04   4.00048906E-04   1.70020785E-06   3.90047683E-05   4.46666964E-08
   4.50000000E+02   5.00000000E-01   5.00000000E-01  -7.17957945E-03   1.10365741E-15   4.75063689E-03   5.07404912E-02   1.04068389E-02   1.16336320E-06   1.00013408E-13   5.45131720E-01   1.20016090E-02   4.74066682E-01   2.80057867E-02   1.80024135E-04   4.00053633E-04   1.70022794E-06   3.90052292E-05   1.79940136E-08
   5.50000000E+02   5.00000000E-01   5.00000000E-01  -7.17864604E-03   3.26879477E-15   4.75069030E-03   5.07405378E-02   1.04068473E-02   1.16650271E-06   1.00014533E-13   5.45137848E-01   1.20017439E-02   4.74072021E-01   2.80059836E-02   1.80026159E-04   4.00058130E-04   1.70024705E-06   3.90056677E-05   7.59272154E-09
   6.50000000E+02   5.00000000E-01   5.00000000E-01  -7.17808788E-03   9.26622361E-15   4.75074153E-03   5.07407491E-02   1.04068314E-02   1.16989771E-06   1.00015611E-13   5.45143728E-01   1.20018733E-02   4.74077143E-01   2.80061473E-02   1.80028100E-04   4.00062445E-04   1.70026539E-06   3.90060884E-05   3.36893259E-09
   7.50000000E+02   5.00000000E-01   5.00000000E-01  -7.17772972E-03   2.51264571E-14   4.75079104E-03   5.07410419E-02   1.04067888E-02   1.17354136E-06   1.00016654E-13   5.45149409E-01   1.20019984E-02   4.74082093E-01   2.80062772E-02   1.80029976E-04   4.00066614E-04   1.70028311E-06   3.90064949E-05   1.57444322E-09
   8.50000000E+02   5.00000000E-01   5.00000000E-01  -7.17747909E-03   6.52038563E-14   4.75083917E-03   5.07413734E-02   1.04067168E-02   1.17742870E-06   1.00017667E-13   5.45154932E-01   1.20021200E-02   4.74086907E-01   2.80063719E-02   1.80031800E-04   4.00070667E-04   1.70030034E-06   3.90068901E-05   7.75074283E-10
   9.50000000E+02   5.00000000E-01   5.00000000E-01  -7.17728613E-03   1.62104011E-13   4.75088622E-03   5.07417218E-02   1.04066119E-02   1.18155634E-06   1.00018657E-13   5.45160331E-01   1.20022389E-02   4.74091613E-01   2.80064290E-02   1.80033583E-04   4.00074629E-04   1.70031717E-06   3.90072763E-05   4.01546200E-10
   1.05000000E+03   5.00000000E-01   5.00000000E-01  -7.17712329E-03   3.86645268E-13   4.75093243E-03   5.07420755E-02   1.04064700E-02   1.18592222E-06   1.00019630E-13   5.45165633E-01   1.20023556E-02   4.74096236E-01   2.80064451E-02   1.80035334E-04   4.00078520E-04   1.70033371E-06   3.90076557E-05   2.18576123E-10
   1.15000000E+03   5.00000000E-01   5.00000000E-01  -7.17697497E-03   8.86213192E-13   4.75097799E-03   5.07424289E-02   1.04062861E-02   1.19052544E-06   1.00020589E-13   5.45170861E-01   1.20024707E-02   4.74100796E-01   2.80064162E-02   1.80037061E-04   4.00082357E-04   1.70035002E-06   3.90080298E-05   1.24753643E-10
   1.25000000E+03   5.00000000E-01   5.00000000E-01  -7.17683216E-03   1.95535908E-12   4.75102308E-03   5.07427791E-02   1.04060545E-02   1.19536606E-06   1.00021539E-13   5.45176036E-01   1.20025846E-02   4.74105309E-01   2.80063372E-02   1.80038770E-04   4.00086155E-04   1.70036616E-06   3.90084001E-05   7.44856799E-11
   1.35000000E+03   5.00000000E-01   5.00000000E-01  -7.17668953E-03   4.16064092E-12   4.75106786E-03   5.07431250E-02   1.04057688E-02   1.20044499E-06   1.00022481E-13   5.45181173E-01   1.20026977E-02   4.74109791E-01   2.80062022E-02   1.80040466E-04   4.00089925E-04   1.70038218E-06   3.90087677E-05   4.64050141E-11
   1.45000000E+03   5.00000000E-01   5.00000000E-01  -7.17654381E-03   8.55340315E-12   4.75111244E-03   5.07434660E-02   1.04054213E-02   1.20576395E-06   1.00023420E-13   5.45186289E-01   1.20028104E-02   4.74114254E-01   2.80060039E-02   1.80042156E-04   4.00093679E-04   1.70039814E-06   3.90091337E-05   3.00864409E-11
   1.55000000E+03   5.00000000E-01   5.00000000E-01  -7.17639299E-03   1.70207127E-11   4.75115694E-03   5.07438024E-02   1.04050035E-02   1.21132536E-06   1.00024357E-13   5.45191395E-01   1.20029228E-02   4.74118710E-01   2.80057343E-02   1.80043842E-04   4.00097426E-04   1.70041406E-06   3.90094990E-05   2.02430159E-11
   1.65000000E+03   5.00000000E-01   5.00000000E-01  -7.17623578E-03   3.28480950E-11   4.75120145E-03   5.07441344E-02   1.04045055E-02   1.21713227E-06   1.00025294E-13   5.45196503E-01   1.20030352E-02   4.74123168E-01   2.80053838E-02   1.80045529E-04   4.00101175E-04   1.70042999E-06   3.90098645E-05   1.40930189E-11
   1.75000000E+03   5.00000000E-01   5.00000000E-01  -7.17607132E-03   6.16017332E-11   4.75124607E-03   5.07444626E-02   1.04039161E-02   1.22318837E-06   1.00026233E-13   5.45201623E-01   1.20031480E-02   4.74127637E-01   2.80049416E-02   1.80047220E-04   4.00104932E-04   1.70044596E-06   3.90102309E-05   1.01208945E-11
   1.85000000E+03   5.00000000E-01   5.00000000E-01  -7.17589900E-03   1.12489014E-10   4.75129088E-03   5.07447872E-02   1.04032230E-02   1.22949792E-06   1.00027176E-13   5.45206765E-01   1.20032612E-02   4.74132126E-01   2.80043956E-02   1.80048918E-04   4.00108706E-04   1.70046200E-06   3.90105988E-05   7.47329247E-12
   1.95000000E+03   5.00000000E-01   5.00000000E-01  -7.17571842E-03   2.00436264E-10   4.75133596E-03   5.07451089E-02   1.04024121E-02   1.23606573E-06   1.00028125E-13   5.45211937E-01   1.20033750E-02   4.74136642E-01   2.80037321E-02   1.80050626E-04   4.00112502E-04   1.70047813E-06   3.90109689E-05   5.65462185E-12
   2.05000000E+03   5.00000000E-01   5.00000000E-01  -7.17552925E-03   3.49250853E-10   4.75138136E-03   5.07454281E-02   1.04014680E-02   1.24289720E-06   1.00029081E-13   5.45217148E-01   1.20034898E-02   4.74141192E-01   2.80029356E-02   1.80052346E-04   4.00116325E-04   1.70049438E-06   3.90113417E-05   4.36861001E-12
   2.15000000E+03   5.00000000E-01   5.00000000E-01  -7.17533126E-03   5.96444483E-10   4.75142716E-03   5.07457452E-02   1.04003736E-02   1.24999822E-06   1.00030046E-13   5.45222403E-01   1.20036055E-02   4.74145782E-01   2.80019897E-02   1.80054082E-04   4.00120182E-04   1.70051077E-06   3.90117178E-05   3.43332509E-12
   2.25000000E+03   5.00000000E-01   5.00000000E-01  -7.17512430E-03   1.00064047E-09   4.75147343E-03   5.07460607E-02   1.03991107E-02   1.25737525E-06   1.00031019E-13   5.45227712E-01   1.20037223E-02   4.74150419E-01   2.80008760E-02   1.80055835E-04   4.00124078E-04   1.70052733E-06   3.90120976E-05   2.73428971E-12
   2.35000000E+03   5.00000000E-01   5.00000000E-01  -7.17490828E-03   1.65306273E-09   4.75152021E-03   5.07463749E-02   1.03976598E-02   1.26503529E-06   1.00032004E-13   5.45233080E-01   1.20038405E-02   4.74155108E-01   2.79995755E-02   1.80057608E-04   4.00128017E-04   1.70054407E-06   3.90124817E-05   2.19791470E-12
   2.45000000E+03   5.00000000E-01   5.00000000E-01  -7.17468322E-03   2.69556393E-09   4.75156756E-03   5.07466881E-02   1.03960005E-02   1.27298590E-06   1.00033001E-13   5.45238514E-01   1.20039602E-02   4.74159855E-01   2.79980678E-02   1.80059402E-04   4.00132005E-04   1.70056102E-06   3.90128705E-05   1.77606375E-12
   2.55000000E+03   5.00000000E-01   5.00000000E-01  -7.17444930E-03   4.34925934E-09   4.75161555E-03   5.07470007E-02   1.03941124E-02   1.28123519E-06   1.00034012E-13   5.45244020E-01   1.20040814E-02   4.74164667E-01   2.79963328E-02   1.80061221E-04   4.00136046E-04   1.70057820E-06   3.90132645E-05   1.43686252E-12
   2.65000000E+03   5.00000000E-01   5.00000000E-01  -7.17420694E-03   6.96053727E-09   4.75166422E-03   5.07473128E-02   1.03919752E-02   1.28979186E-06   1.00035036E-13   5.45249606E-01   1.20042044E-02   4.74169547E-01   2.79943502E-02   1.80063065E-04   4.00140145E-04   1.70059562E-06   3.90136641E-05   1.15908057E-12
   2.75000000E+03   5.00000000E-01   5.00000000E-01  -7.17395694E-03   1.10757722E-08   4.75171364E-03   5.07476244E-02   1.03895697E-02   1.29866522E-06   1.00036077E-13   5.45255276E-01   1.20043292E-02   4.74174503E-01   2.79921012E-02   1.80064938E-04   4.00144306E-04   1.70061330E-06   3.90140699E-05   9.28585908E-13
   2.85000000E+03   5.00000000E-01   5.00000000E-01  -7.17370072E-03   1.75637476E-08   4.75176385E-03   5.07479356E-02   1.03868790E-02   1.30786518E-06   1.00037134E-13   5.45261038E-01   1.20044561E-02   4.74179539E-01   2.79895689E-02   1.80066841E-04   4.00148535E-04   1.70063127E-06   3.90144822E-05   7.36010828E-13
   2.95000000E+03   5.00000000E-01   5.00000000E-01  -7.17344075E-03   2.78177527E-08   4.75181492E-03   5.07482459E-02   1.03838891E-02   1.31740235E-06   1.00038209E-13   5.45266898E-01   1.20045851E-02   4.74184661E-01   2.79867397E-02   1.80068776E-04   4.00152835E-04   1.70064955E-06   3.90149014E-05   5.75132852E-13
   3.05000000E+03   5.00000000E-01   5.00000000E-01  -7.17318119E-03   4.40910560E-08   4.75186690E-03   5.07485545E-02   1.03805904E-02   1.32728799E-06   1.00039303E-13   5.45272862E-01   1.20047164E-02   4.74189875E-01   2.79836040E-02   1.80070746E-04   4.00157212E-04   1.70066815E-06   3.90153282E-05   4.41696269E-13
   3.15000000E+03   5.00000000E-01   5.00000000E-01  -7.17292901E-03   7.00530528E-08   4.75191984E-03   5.07488599E-02   1.03769785E-02   1.33753409E-06   1.00040418E-13   5.45278937E-01   1.20048501E-02   4.74195186E-01   2.79801574E-02   1.80072752E-04   4.00161671E-04   1.70068710E-06   3.90157629E-05   3.32546602E-13
   3.25000000E+03   5.00000000E-01   5.00000000E-01  -7.17269575E-03   1.11671451E-07   4.75197380E-03   5.07491595E-02   1.03730546E-02   1.34815343E-06   1.00041554E-13   5.45285130E-01   1.20049865E-02   4.74200601E-01   2.79764017E-02   1.80074797E-04   4.00166215E-04   1.70070641E-06   3.90162060E-05   2.45057849E-13
   3.35000000E+03   5.00000000E-01   5.00000000E-01  -7.17249972E-03   1.78320936E-07   4.75202884E-03   5.07494487E-02   1.03688265E-02   1.35915955E-06   1.00042713E-13   5.45291446E-01   1.20051255E-02   4.74206123E-01   2.79723444E-02   1.80076883E-04   4.00170850E-04   1.70072611E-06   3.90166579E-05   1.76850137E-13
   3.45000000E+03   5.00000000E-01   5.00000000E-01  -7.17081841E-03   2.83113587E-07   4.75106214E-03   5.07387945E-02   1.03620766E-02   1.37039352E-06   1.00022361E-13   5.45180517E-01   1.20026833E-02   4.74109687E-01   2.79619790E-02   1.80040250E-04   4.00089443E-04   1.70038013E-06   3.90087207E-05   1.25665742E-13
