 TITLE = "Total Concentrations" 
VARIABLES = "X"          "Y"              "Z"            "H+"             "Al+++"          "CO2(aq)"        "Mg++"           "Ca++"           "Fe++"           "Fe+++"          "Ba++"           "Sr++"           "Cl-"            "F-"             "K+"             "HS-"            "Na+"            "SO4--"          "O2(aq)"         "B(OH)3(aq)"     "HPO4--"         "NO3-"           "H4SiO4(aq)"    
 ZONE I=         100 , J=           1 , K=           1  F=POINT
   1.75000000E+01   5.00000000E-01   5.00000000E-01  -4.67201475E-03   8.76068437E-12   4.75010909E-03   4.95834616E-02   1.07460464E-02   9.92603464E-04   7.98617877E-13   2.00004593E-07   9.00020669E-06   5.48179132E-01   6.80015617E-05   1.20002756E-02   1.15868288E-10   4.74299937E-01   2.80006431E-02   1.79972872E-08   4.00009186E-04   1.70003904E-06   3.90008957E-05   4.07046878E-04
   5.25000000E+01   5.00000000E-01   5.00000000E-01  -4.67662697E-03   1.33717671E-11   4.75063957E-03   4.82204998E-02   1.10931521E-02   1.90400541E-03   6.28197885E-13   2.00026929E-07   9.00121182E-06   5.48240352E-01   6.80091559E-05   1.20016158E-02   1.31771072E-10   4.74579601E-01   2.80037701E-02   1.79961654E-08   4.00053859E-04   1.70022890E-06   3.90052512E-05   5.01125088E-04
   8.75000000E+01   5.00000000E-01   5.00000000E-01  -4.66747803E-03   1.78913916E-11   4.75176954E-03   4.69788753E-02   1.14418367E-02   2.70715698E-03   6.02655670E-13   2.00074507E-07   9.00335281E-06   5.48370754E-01   6.80253324E-05   1.20044704E-02   1.47718110E-10   4.74890920E-01   2.80104310E-02   1.79973085E-08   4.00149014E-04   1.70063331E-06   3.90145289E-05   5.59758196E-04
   1.22500000E+02   5.00000000E-01   5.00000000E-01  -4.63751398E-03   2.33163761E-11   4.75345252E-03   4.58563531E-02   1.17921171E-02   3.39638412E-03   5.98456547E-13   2.00145369E-07   9.00654161E-06   5.48564976E-01   6.80494255E-05   1.20087222E-02   1.63714508E-10   4.75236829E-01   2.80203517E-02   1.80005390E-08   4.00290738E-04   1.70123564E-06   3.90283470E-05   6.14955471E-04
   1.57500000E+02   5.00000000E-01   5.00000000E-01  -4.59009488E-03   3.00129077E-11   4.75564895E-03   4.48444426E-02   1.21440147E-02   3.98018608E-03   6.02175540E-13   2.00237850E-07   9.01070327E-06   5.48818451E-01   6.80808692E-05   1.20142710E-02   1.79765241E-10   4.75615696E-01   2.80332991E-02   1.80057060E-08   4.00475701E-04   1.70202173E-06   3.90463808E-05   6.71454508E-04
   1.92500000E+02   5.00000000E-01   5.00000000E-01  -4.52910344E-03   3.82263685E-11   4.75832501E-03   4.39290490E-02   1.24975545E-02   4.47297202E-03   6.12210378E-13   2.00350527E-07   9.01577370E-06   5.49127278E-01   6.81191790E-05   1.20210316E-02   1.95874989E-10   4.76026507E-01   2.80490738E-02   1.80126803E-08   4.00701053E-04   1.70297948E-06   3.90683527E-05   7.29475870E-04
   2.27500000E+02   5.00000000E-01   5.00000000E-01  -4.45715686E-03   4.82185921E-11   4.76145164E-03   4.30941574E-02   1.28527645E-02   4.89031556E-03   6.27803122E-13   2.00482174E-07   9.02169785E-06   5.49488102E-01   6.81639393E-05   1.20289305E-02   2.12048085E-10   4.76469085E-01   2.80675045E-02   1.80213508E-08   4.00964349E-04   1.70409848E-06   3.90940240E-05   7.88893480E-04
   2.62500000E+02   5.00000000E-01   5.00000000E-01  -4.37574251E-03   6.03009381E-11   4.76500382E-03   4.23242972E-02   1.32096750E-02   5.24672643E-03   6.48046322E-13   2.00631740E-07   9.02842829E-06   5.49898036E-01   6.82147915E-05   1.20379044E-02   2.28288518E-10   4.76943655E-01   2.80884436E-02   1.80316218E-08   4.01263479E-04   1.70536979E-06   3.91231892E-05   8.49744520E-04
   2.97500000E+02   5.00000000E-01   5.00000000E-01  -4.28559216E-03   7.48448570E-11   4.76895988E-03   4.16057271E-02   1.35683186E-02   5.55476990E-03   6.71986722E-13   2.00798311E-07   9.03592398E-06   5.50354579E-01   6.82714256E-05   1.20478986E-02   2.44599965E-10   4.77450535E-01   2.81117636E-02   1.80434103E-08   4.01596621E-04   1.70678564E-06   3.91556706E-05   9.12184054E-04
   3.32500000E+02   5.00000000E-01   5.00000000E-01  -4.18698529E-03   9.22894126E-11   4.77330104E-03   4.09268288E-02   1.39287294E-02   5.82487174E-03   6.98716741E-13   2.00981096E-07   9.04414934E-06   5.50855564E-01   6.83335728E-05   1.20588658E-02   2.60985826E-10   4.77989982E-01   2.81373536E-02   1.80566445E-08   4.01962193E-04   1.70833932E-06   3.91913138E-05   9.76415136E-04
   3.67500000E+02   5.00000000E-01   5.00000000E-01  -4.07996619E-03   1.13149890E-10   4.77801099E-03   4.02780826E-02   1.42909433E-02   6.06545345E-03   7.27400856E-13   2.01179410E-07   9.05307346E-06   5.51399109E-01   6.84009995E-05   1.20707646E-02   2.77449263E-10   4.78562130E-01   2.81651175E-02   1.80712619E-08   4.02358821E-04   1.71002499E-06   3.92299850E-05   1.04265068E-03
   4.02500000E+02   5.00000000E-01   5.00000000E-01  -3.96449920E-03   1.38028370E-10   4.78307553E-03   3.96518566E-02   1.46549976E-02   6.28320407E-03   7.57273621E-13   2.01392654E-07   9.06266942E-06   5.51983574E-01   6.84735023E-05   1.20835592E-02   2.93993238E-10   4.79166981E-01   2.81949716E-02   1.80872079E-08   4.02785308E-04   1.71183756E-06   3.92715675E-05   1.11109696E-03
   4.37500000E+02   5.00000000E-01   5.00000000E-01  -3.84058173E-03   1.67626226E-10   4.78848227E-03   3.90421328E-02   1.50209310E-02   6.48338545E-03   7.87631457E-13   2.01620306E-07   9.07291377E-06   5.52607531E-01   6.85509041E-05   1.20972184E-02   3.10620547E-10   4.79804427E-01   2.82268430E-02   1.81044350E-08   4.03240612E-04   1.71377260E-06   3.93159597E-05   1.18194857E-03
   4.72500000E+02   5.00000000E-01   5.00000000E-01  -3.70832716E-03   2.02758778E-10   4.79422042E-03   3.84442346E-02   1.53887835E-02   6.67012032E-03   8.17825260E-13   2.01861912E-07   9.08378605E-06   5.53269733E-01   6.86330502E-05   1.21117147E-02   3.27333848E-10   4.80474261E-01   2.82606678E-02   1.81229019E-08   4.03723825E-04   1.71582625E-06   3.93630729E-05   1.25538851E-03
   5.07500000E+02   5.00000000E-01   5.00000000E-01  -3.56802396E-03   2.44372299E-10   4.80028056E-03   3.78545833E-02   1.57585963E-02   6.84664254E-03   8.47256110E-13   2.02117076E-07   9.09526844E-06   5.53969095E-01   6.87198060E-05   1.21270246E-02   3.44135694E-10   4.81176206E-01   2.82963908E-02   1.81425722E-08   4.04234153E-04   1.71799515E-06   3.94128299E-05   1.33159014E-03
   5.42500000E+02   5.00000000E-01   5.00000000E-01  -3.42017431E-03   2.93563519E-10   4.80665451E-03   3.72704899E-02   1.61304117E-02   7.01550393E-03   8.75374415E-13   2.02385453E-07   9.10734539E-06   5.54704671E-01   6.88110541E-05   1.21431272E-02   3.61028548E-10   4.81909931E-01   2.83339636E-02   1.81634144E-08   4.04770906E-04   1.72027635E-06   3.94651634E-05   1.41071957E-03
   5.77500000E+02   5.00000000E-01   5.00000000E-01  -3.26551342E-03   3.51601806E-10   4.81333513E-03   3.66899821E-02   1.65042734E-02   7.17873978E-03   9.01681873E-13   2.02666742E-07   9.12000341E-06   5.55475638E-01   6.89066924E-05   1.21600045E-02   3.78014815E-10   4.82675070E-01   2.83733441E-02   1.81854010E-08   4.05333485E-04   1.72266731E-06   3.95200148E-05   1.49293744E-03
   6.12500000E+02   5.00000000E-01   5.00000000E-01  -3.10500993E-03   4.19954139E-10   4.82031624E-03   3.61116608E-02   1.68802262E-02   7.33799788E-03   9.25735386E-13   2.02960684E-07   9.13323077E-06   5.56281282E-01   6.90066325E-05   1.21776410E-02   3.95096854E-10   4.83471234E-01   2.84144959E-02   1.82085080E-08   4.05921368E-04   1.72516581E-06   3.95773334E-05   1.57839982E-03
   6.47500000E+02   5.00000000E-01   5.00000000E-01  -2.93984830E-03   5.00312928E-10   4.82759249E-03   3.55345794E-02   1.72583159E-02   7.49463720E-03   9.47151906E-13   2.03267052E-07   9.14701735E-06   5.57120987E-01   6.91107978E-05   1.21960231E-02   4.12277001E-10   4.84298024E-01   2.84573875E-02   1.82327147E-08   4.06534105E-04   1.72776994E-06   3.96370752E-05   1.66725783E-03
   6.82500000E+02   5.00000000E-01   5.00000000E-01  -2.77139434E-03   5.94626668E-10   4.83515929E-03   3.49581424E-02   1.76385896E-02   7.64980156E-03   9.65613175E-13   2.03585654E-07   9.16135444E-06   5.57994221E-01   6.92191224E-05   1.22151393E-02   4.29557580E-10   4.85155041E-01   2.85019918E-02   1.82580032E-08   4.07171308E-04   1.73047806E-06   3.96992026E-05   1.75965620E-03
   7.17500000E+02   5.00000000E-01   5.00000000E-01  -2.60114675E-03   7.05133358E-10   4.84301271E-03   3.43820168E-02   1.80210957E-02   7.80447358E-03   9.80869315E-13   2.03916324E-07   9.17623460E-06   5.58900533E-01   6.93315503E-05   1.22349795E-02   4.46940923E-10   4.86041900E-01   2.85482856E-02   1.82843582E-08   4.07832649E-04   1.73328876E-06   3.97636833E-05   1.85573083E-03
   7.52500000E+02   5.00000000E-01   5.00000000E-01  -2.43067830E-03   8.34396606E-10   4.85114943E-03   3.38060548E-02   1.84058835E-02   7.95951315E-03   9.92740405E-13   2.04258923E-07   9.19165155E-06   5.59839539E-01   6.94480339E-05   1.22555354E-02   4.64429376E-10   4.86958235E-01   2.85962495E-02   1.83117667E-08   4.08517847E-04   1.73620085E-06   3.98304900E-05   1.95560565E-03
   7.87500000E+02   5.00000000E-01   5.00000000E-01  -2.26157147E-03   9.85344349E-10   4.85956668E-03   3.32302271E-02   1.87930036E-02   8.11568417E-03   1.00111546E-12   2.04613334E-07   9.20760003E-06   5.60810919E-01   6.95685335E-05   1.22768000E-02   4.82025314E-10   4.87903715E-01   2.86458670E-02   1.83402175E-08   4.09226668E-04   1.73921334E-06   3.98996001E-05   2.05938933E-03
   8.22500000E+02   5.00000000E-01   5.00000000E-01  -2.09535400E-03   1.16131020E-09   4.86826219E-03   3.26545650E-02   1.91825080E-02   8.27367276E-03   1.00594858E-12   2.04979460E-07   9.22407572E-06   5.61814411E-01   6.96930166E-05   1.22987676E-02   4.99731144E-10   4.88878043E-01   2.86971247E-02   1.83697017E-08   4.09958921E-04   1.74232541E-06   3.99709948E-05   2.16717213E-03
   8.57500000E+02   5.00000000E-01   5.00000000E-01  -1.93343936E-03   1.36607753E-09   4.87723412E-03   3.20791122E-02   1.95744496E-02   8.43409952E-03   1.00725253E-12   2.05357226E-07   9.24107518E-06   5.62849804E-01   6.98214569E-05   1.23214336E-02   5.17549318E-10   4.89880971E-01   2.87500119E-02   1.84002118E-08   4.10714452E-04   1.74553642E-06   4.00446591E-05   2.27902352E-03
   8.92500000E+02   5.00000000E-01   5.00000000E-01  -1.77707692E-03   1.60392654E-09   4.88648108E-03   3.15038861E-02   1.99688827E-02   8.59752778E-03   1.00509025E-12   2.05746572E-07   9.25859572E-06   5.63916934E-01   6.99538344E-05   1.23447943E-02   5.35482332E-10   4.90912304E-01   2.88045203E-02   1.84317420E-08   4.11493143E-04   1.74884586E-06   4.01205815E-05   2.39499057E-03
   9.27500000E+02   5.00000000E-01   5.00000000E-01  -1.62731470E-03   1.87968465E-09   4.89600202E-03   3.09288501E-02   2.03658627E-02   8.76446945E-03   9.99565207E-13   2.06147453E-07   9.27663541E-06   5.65015685E-01   7.00901342E-05   1.23688472E-02   5.53532732E-10   4.91971898E-01   2.88606437E-02   1.84642879E-08   4.12294907E-04   1.75225335E-06   4.01987534E-05   2.51509765E-03
   9.62500000E+02   5.00000000E-01   5.00000000E-01  -1.48497673E-03   2.19878076E-09   4.90579628E-03   3.03538946E-02   2.07654464E-02   8.93538945E-03   9.90811486E-13   2.06559843E-07   9.29519295E-06   5.66145976E-01   7.02303467E-05   1.23935906E-02   5.71703120E-10   4.93059669E-01   2.89183783E-02   1.84978463E-08   4.13119686E-04   1.75575867E-06   4.02791694E-05   2.63934708E-03
   9.97500000E+02   5.00000000E-01   5.00000000E-01  -1.35065470E-03   2.56730382E-09   4.91586349E-03   2.97788278E-02   2.11676918E-02   9.11070940E-03   9.78984531E-13   2.06983726E-07   9.31426767E-06   5.67307768E-01   7.03744669E-05   1.24190236E-02   5.89996147E-10   4.94175590E-01   2.89777218E-02   1.85324155E-08   4.13967452E-04   1.75936167E-06   4.03618266E-05   2.76772085E-03
   1.03250000E+03   5.00000000E-01   5.00000000E-01  -1.22471272E-03   2.99206651E-09   4.92620362E-03   2.92033746E-02   2.15726581E-02   9.29081088E-03   9.64253165E-13   2.07419100E-07   9.33385949E-06   5.68501055E-01   7.05224940E-05   1.24451460E-02   6.08414525E-10   4.95319687E-01   2.90386741E-02   1.85679947E-08   4.14838200E-04   1.76306235E-06   4.04467245E-05   2.90018287E-03
   1.06750000E+03   5.00000000E-01   5.00000000E-01  -1.10730267E-03   3.48067433E-09   4.93681690E-03   2.86271816E-02   2.19804060E-02   9.47603825E-03   9.46793407E-13   2.07865975E-07   9.35396886E-06   5.69725864E-01   7.06744314E-05   1.24719585E-02   6.26961017E-10   4.96492038E-01   2.91012365E-02   1.86045843E-08   4.15731949E-04   1.76686078E-06   4.05338651E-05   3.03668166E-03
   1.10250000E+03   5.00000000E-01   5.00000000E-01  -9.98387149E-04   4.04159995E-09   4.94770383E-03   2.80498275E-02   2.23909972E-02   9.66670097E-03   9.26784288E-13   2.08324372E-07   9.37459672E-06   5.70982253E-01   7.08302863E-05   1.24994623E-02   6.45638445E-10   4.97692768E-01   2.91654120E-02   1.86421855E-08   4.16648743E-04   1.77075716E-06   4.06232525E-05   3.17715309E-03
   1.13750000E+03   5.00000000E-01   5.00000000E-01  -8.97767069E-04   4.68426270E-09   4.95886516E-03   2.74708370E-02   2.28044949E-02   9.86307505E-03   9.04405558E-13   2.08794322E-07   9.39574451E-06   5.72270310E-01   7.09900696E-05   1.25276593E-02   6.64449684E-10   4.98922045E-01   2.92312049E-02   1.86808008E-08   4.17588645E-04   1.77475174E-06   4.07148929E-05   3.32152286E-03
   1.17250000E+03   5.00000000E-01   5.00000000E-01  -8.05110980E-04   5.41911240E-09   4.97030189E-03   2.68896965E-02   2.32209635E-02   1.00654036E-02   8.79837054E-13   2.09275869E-07   9.41741410E-06   5.73590148E-01   7.11537954E-05   1.25565521E-02   6.83397665E-10   5.00180073E-01   2.92986211E-02   1.87204332E-08   4.18551738E-04   1.77884489E-06   4.08087944E-05   3.46970810E-03
   1.20750000E+03   5.00000000E-01   5.00000000E-01  -7.19984028E-04   6.25771416E-09   4.98201524E-03   2.63058712E-02   2.36404689E-02   1.02738958E-02   8.53259808E-13   2.09769063E-07   9.43960782E-06   5.74941909E-01   7.13214813E-05   1.25861438E-02   7.02485375E-10   5.01467088E-01   2.93676676E-02   1.87610869E-08   4.19538125E-04   1.78303703E-06   4.09049672E-05   3.62161686E-03
   1.24250000E+03   5.00000000E-01   5.00000000E-01  -6.41875142E-04   7.21281894E-09   4.99400664E-03   2.57188229E-02   2.40630784E-02   1.04887229E-02   8.24860000E-13   2.10273964E-07   9.46232837E-06   5.76325759E-01   7.14931477E-05   1.26164378E-02   7.21715857E-10   5.02783358E-01   2.94383527E-02   1.88027666E-08   4.20547928E-04   1.78732869E-06   4.10034229E-05   3.77714167E-03
   1.27750000E+03   5.00000000E-01   5.00000000E-01  -5.70222231E-04   8.29835575E-09   5.00627774E-03   2.51280316E-02   2.44888602E-02   1.07100062E-02   7.94840332E-13   2.10790642E-07   9.48557888E-06   5.77741887E-01   7.16688182E-05   1.26474385E-02   7.41092207E-10   5.04129186E-01   2.95106856E-02   1.88454781E-08   4.21581284E-04   1.79172046E-06   4.11041751E-05   3.93613538E-03
   1.31250000E+03   5.00000000E-01   5.00000000E-01  -5.04437176E-04   9.52912318E-09   5.01883039E-03   2.45330289E-02   2.49178833E-02   1.09377820E-02   7.63451763E-13   2.11319174E-07   9.50936285E-06   5.79190506E-01   7.18485193E-05   1.26791505E-02   7.60617581E-10   5.05504937E-01   2.95846765E-02   1.88892276E-08   4.22638349E-04   1.79621298E-06   4.12072390E-05   4.09833100E-03
   1.34750000E+03   5.00000000E-01   5.00000000E-01  -4.43936845E-04   1.09194206E-08   5.03166662E-03   2.39334695E-02   2.53502179E-02   1.11718987E-02   7.31082451E-13   2.11859647E-07   9.53368413E-06   5.80671852E-01   7.20322801E-05   1.27115788E-02   7.80295189E-10   5.06911133E-01   2.96603356E-02   1.89340223E-08   4.23719295E-04   1.80080700E-06   4.13126312E-05   4.26308346E-03
   1.38250000E+03   5.00000000E-01   5.00000000E-01  -3.88196551E-04   1.24781479E-08   5.04478867E-03   2.33293146E-02   2.57859337E-02   1.14117201E-02   6.98499358E-13   2.12412155E-07   9.55854696E-06   5.82186182E-01   7.22201326E-05   1.27447293E-02   8.00128300E-10   5.08348730E-01   2.97376724E-02   1.89798700E-08   4.24824309E-04   1.80550331E-06   4.14203701E-05   4.42858643E-03
   1.41750000E+03   5.00000000E-01   5.00000000E-01  -3.36854315E-04   1.41940103E-08   5.05819894E-03   2.27212939E-02   2.62250984E-02   1.16553497E-02   6.67410113E-13   2.12976798E-07   9.58395589E-06   5.83733774E-01   7.24121112E-05   1.27786079E-02   8.20120245E-10   5.09819850E-01   2.98166926E-02   1.90267791E-08   4.25953595E-04   1.81030278E-06   4.15304755E-05   4.58980898E-03
   1.45250000E+03   5.00000000E-01   5.00000000E-01  -2.89845692E-04   1.60044018E-08   5.07190003E-03   2.21118041E-02   2.66677686E-02   1.18981173E-02   6.41253010E-13   2.13553685E-07   9.60991585E-06   5.85314927E-01   7.26082531E-05   1.28132211E-02   8.40274414E-10   5.11329144E-01   2.98973921E-02   1.90747589E-08   4.27107371E-04   1.81520633E-06   4.16429687E-05   4.73491169E-03
   1.48750000E+03   5.00000000E-01   5.00000000E-01  -2.47216877E-04   1.77880884E-08   5.08589470E-03   2.15053625E-02   2.71139746E-02   1.21318037E-02   6.24246990E-13   2.14142935E-07   9.63643206E-06   5.86929961E-01   7.28085978E-05   1.28485761E-02   8.60594262E-10   5.12884253E-01   2.99797396E-02   1.91238191E-08   4.28285869E-04   1.82021495E-06   4.17578723E-05   4.84670471E-03
   1.52250000E+03   5.00000000E-01   5.00000000E-01  -2.08220483E-04   1.94883705E-08   5.10018590E-03   2.09060002E-02   2.75636758E-02   1.23487817E-02   6.16155917E-13   2.14744669E-07   9.66351012E-06   5.88579215E-01   7.30131876E-05   1.28846802E-02   8.81083309E-10   5.14491826E-01   3.00636306E-02   1.91739702E-08   4.29489339E-04   1.82532969E-06   4.18752105E-05   4.92099380E-03
   1.55750000E+03   5.00000000E-01   5.00000000E-01  -1.71138208E-04   2.12193799E-08   5.11477673E-03   2.03133751E-02   2.80166290E-02   1.25480859E-02   6.10478245E-13   2.15359020E-07   9.69115591E-06   5.90263048E-01   7.32220669E-05   1.29215412E-02   9.01745146E-10   5.16152981E-01   3.01487566E-02   1.92252234E-08   4.30718040E-04   1.83055167E-06   4.19950089E-05   4.97711102E-03
   1.59250000E+03   5.00000000E-01   5.00000000E-01  -1.34499380E-04   2.31376712E-08   5.12967049E-03   1.97233382E-02   2.84719938E-02   1.27347224E-02   6.01018288E-13   2.15986126E-07   9.71937566E-06   5.91981839E-01   7.34352827E-05   1.29591675E-02   9.22583436E-10   5.17864775E-01   3.02342138E-02   1.92775902E-08   4.31972251E-04   1.83588207E-06   4.21172945E-05   5.03682568E-03
   1.62750000E+03   5.00000000E-01   5.00000000E-01  -9.75778517E-05   2.53366933E-08   5.14487062E-03   1.91309379E-02   2.89271090E-02   1.29152743E-02   5.85438787E-13   2.16626131E-07   9.74817591E-06   5.93735987E-01   7.36528846E-05   1.29975679E-02   9.43601916E-10   5.19623483E-01   3.03172774E-02   1.93310832E-08   4.33252263E-04   1.84132212E-06   4.22420956E-05   5.11012051E-03
   1.66250000E+03   5.00000000E-01   5.00000000E-01  -6.00942189E-05   2.78559652E-08   5.16038075E-03   1.85323588E-02   2.93734597E-02   1.30950491E-02   5.64227661E-13   2.17279189E-07   9.77756352E-06   5.95525911E-01   7.38749244E-05   1.30367514E-02   9.64804400E-10   5.21426119E-01   3.03893673E-02   1.93857153E-08   4.34558379E-04   1.84687311E-06   4.23694419E-05   5.19789702E-03
   1.69750000E+03   5.00000000E-01   5.00000000E-01  -2.19809879E-05   3.07117796E-08   5.17620467E-03   1.79255000E-02   2.97828420E-02   1.32772650E-02   5.39457380E-13   2.17945460E-07   9.80754569E-06   5.97352046E-01   7.41014563E-05   1.30767276E-02   9.86194785E-10   5.23270675E-01   3.04222131E-02   1.94415001E-08   4.35890919E-04   1.85253641E-06   4.24993646E-05   5.29748319E-03
   1.73250000E+03   5.00000000E-01   5.00000000E-01   1.64509183E-05   3.39186491E-08   5.19234634E-03   1.73099774E-02   3.00592745E-02   1.34632471E-02   5.15182794E-13   2.18625109E-07   9.83812991E-06   5.99214851E-01   7.43325371E-05   1.31175065E-02   1.00777705E-09   5.25155893E-01   3.03197653E-02   1.94984518E-08   4.37250218E-04   1.85831343E-06   4.26318963E-05   5.40610705E-03
   1.76750000E+03   5.00000000E-01   5.00000000E-01   5.33863519E-05   3.74995968E-08   5.20880989E-03   1.66876051E-02   2.98859748E-02   1.36526572E-02   5.01460324E-13   2.19318311E-07   9.86932401E-06   6.01114803E-01   7.45682258E-05   1.31590987E-02   1.02955526E-09   5.27080962E-01   2.97651720E-02   1.95565853E-08   4.38636623E-04   1.86420565E-06   4.27670707E-05   5.52249113E-03
   1.80250000E+03   5.00000000E-01   5.00000000E-01   8.24966114E-05   4.14877655E-08   5.22559963E-03   1.60641556E-02   2.84339044E-02   1.38433494E-02   5.25771958E-13   2.20025248E-07   9.90113614E-06   6.03052397E-01   7.48085842E-05   1.32015149E-02   1.05153358E-09   5.29045301E-01   2.79293228E-02   1.96159162E-08   4.40050495E-04   1.87021461E-06   4.29049233E-05   5.64759874E-03
   1.83750000E+03   5.00000000E-01   5.00000000E-01   9.30952038E-05   4.59183759E-08   5.24272003E-03   1.54481246E-02   2.47954090E-02   1.40325615E-02   6.45714815E-13   2.20746107E-07   9.93357480E-06   6.05028151E-01   7.50536763E-05   1.32447664E-02   1.07371625E-09   5.31048483E-01   2.39044886E-02   1.96764605E-08   4.41492213E-04   1.87634191E-06   4.30454908E-05   5.78355175E-03
   1.87250000E+03   5.00000000E-01   5.00000000E-01   8.52954338E-05   5.08086071E-08   5.26017575E-03   1.48392697E-02   1.99287052E-02   1.42206953E-02   9.23696814E-13   2.21481084E-07   9.96664878E-06   6.07042601E-01   7.53035686E-05   1.32888650E-02   1.09610764E-09   5.33090449E-01   1.86488094E-02   1.97382350E-08   4.42962168E-04   1.88258921E-06   4.31888114E-05   5.92731023E-03
   1.90750000E+03   5.00000000E-01   5.00000000E-01   7.26391591E-05   5.61781882E-08   5.27797160E-03   1.42277798E-02   1.57836251E-02   1.44108377E-02   1.35736126E-12   2.22230383E-07   1.00003672E-05   6.09096304E-01   7.55583303E-05   1.33338230E-02   1.11871219E-09   5.35171499E-01   1.41120418E-02   1.98012572E-08   4.44460766E-04   1.88895826E-06   4.33349247E-05   6.07151035E-03
   1.94250000E+03   5.00000000E-01   5.00000000E-01   6.45197156E-05   6.20779068E-08   5.29611260E-03   1.36068897E-02   1.30255094E-02   1.46050765E-02   1.83528278E-12   2.22994215E-07   1.00347397E-05   6.11189839E-01   7.58180331E-05   1.33796529E-02   1.14153448E-09   5.37292013E-01   1.09594525E-02   1.98655452E-08   4.45988430E-04   1.89545083E-06   4.34838719E-05   6.21296547E-03
   1.97750000E+03   5.00000000E-01   5.00000000E-01   6.26237197E-05   6.85756373E-08   5.31460395E-03   1.29758181E-02   1.13877433E-02   1.48034052E-02   2.20318828E-12   2.23772798E-07   1.00697759E-05   6.13323805E-01   7.60827513E-05   1.34263679E-02   1.16457917E-09   5.39452313E-01   8.92435097E-03   1.99311178E-08   4.47545596E-04   1.90206878E-06   4.36356956E-05   6.35254836E-03
   2.01250000E+03   5.00000000E-01   5.00000000E-01   6.54745897E-05   7.57419818E-08   5.33345102E-03   1.23369114E-02   1.04622048E-02   1.50042986E-02   2.38008039E-12   2.24566359E-07   1.01054861E-05   6.15498822E-01   7.63525619E-05   1.34739815E-02   1.18785106E-09   5.41652686E-01   7.59853729E-03   1.99979943E-08   4.49132717E-04   1.90881405E-06   4.37904399E-05   6.49187746E-03
   2.04750000E+03   5.00000000E-01   5.00000000E-01   7.12805457E-05   8.36482865E-08   5.35265937E-03   1.16935212E-02   9.95656036E-03   1.52053901E-02   2.37707582E-12   2.25375131E-07   1.01418809E-05   6.17715533E-01   7.66275447E-05   1.35225079E-02   1.21135505E-09   5.43893420E-01   6.68959784E-03   2.00661950E-08   4.50750263E-04   1.91568862E-06   4.39481506E-05   6.63198952E-03
   2.08250000E+03   5.00000000E-01   5.00000000E-01   7.87183986E-05   9.23692180E-08   5.37223478E-03   1.10491869E-02   9.69765966E-03   1.54038853E-02   2.24615924E-12   2.26199359E-07   1.01789712E-05   6.19974603E-01   7.69077821E-05   1.35719615E-02   1.23509619E-09   5.46174836E-01   6.02430010E-03   2.01357408E-08   4.52398718E-04   1.92269455E-06   4.41088750E-05   6.77331684E-03
   2.11750000E+03   5.00000000E-01   5.00000000E-01   8.69240769E-05   1.01985958E-07   5.39218320E-03   1.04074185E-02   9.58803565E-03   1.55967800E-02   2.04029523E-12   2.27039292E-07   1.02167682E-05   6.22276720E-01   7.71933594E-05   1.36223575E-02   1.25907962E-09   5.48497290E-01   5.50509305E-03   2.02066531E-08   4.54078585E-04   1.92983399E-06   4.42726620E-05   6.91596221E-03
   2.15250000E+03   5.00000000E-01   5.00000000E-01   9.53314732E-05   1.12588009E-07   5.41251079E-03   9.77166547E-03   9.57225879E-03   1.57809725E-02   1.79993149E-12   2.27895191E-07   1.02552836E-05   6.24622595E-01   7.74843649E-05   1.36737115E-02   1.28331065E-09   5.50861176E-01   5.07646121E-03   2.02789544E-08   4.55790382E-04   1.93710912E-06   4.44395622E-05   7.05987816E-03
   2.18750000E+03   5.00000000E-01   5.00000000E-01   1.03551190E-04   1.24274269E-07   5.43322392E-03   9.14531201E-03   9.61790364E-03   1.59533298E-02   1.55229809E-12   2.28767323E-07   1.02945295E-05   6.27012963E-01   7.77808899E-05   1.37260394E-02   1.30779471E-09   5.53266926E-01   4.70589133E-03   2.03526677E-08   4.57534646E-04   1.94452225E-06   4.46096280E-05   7.20494553E-03
   2.22250000E+03   5.00000000E-01   5.00000000E-01   1.11330289E-04   1.37154566E-07   5.45432919E-03   8.53164595E-03   9.70646863E-03   1.61107409E-02   1.31402450E-12   2.29655966E-07   1.03345185E-05   6.29448585E-01   7.80830284E-05   1.37793580E-02   1.33253739E-09   5.55715001E-01   4.37479208E-03   2.04278169E-08   4.59311932E-04   1.95207571E-06   4.47829134E-05   7.35101992E-03
   2.25750000E+03   5.00000000E-01   5.00000000E-01   1.18522802E-04   1.51350641E-07   5.47583339E-03   7.93382259E-03   9.82781210E-03   1.62501683E-02   1.09449414E-12   2.30561406E-07   1.03752633E-05   6.31930244E-01   7.83908780E-05   1.38336844E-02   1.35754440E-09   5.58205897E-01   4.07293010E-03   2.05044267E-08   4.61122812E-04   1.95977195E-06   4.49594741E-05   7.49794343E-03
   2.29250000E+03   5.00000000E-01   5.00000000E-01   1.25088380E-04   1.66998124E-07   5.49774355E-03   7.35480443E-03   9.97727859E-03   1.63687115E-02   8.98327822E-13   2.31483939E-07   1.04167773E-05   6.34458753E-01   7.87045392E-05   1.38890363E-02   1.38282164E-09   5.60740135E-01   3.79555628E-03   2.05825226E-08   4.62967878E-04   1.96761348E-06   4.51393681E-05   7.64557388E-03
   2.32750000E+03   5.00000000E-01   5.00000000E-01   1.31056528E-04   1.84247999E-07   5.52006693E-03   6.79730582E-03   1.01528841E-02   1.64636813E-02   7.27294257E-13   2.32423871E-07   1.04590742E-05   6.37034948E-01   7.90241160E-05   1.39454322E-02   1.40837513E-09   5.63318263E-01   3.54059100E-03   2.06621309E-08   4.64847741E-04   1.97560290E-06   4.53226548E-05   7.79379684E-03
   2.36250000E+03   5.00000000E-01   5.00000000E-01   1.36447437E-04   2.03266242E-07   5.54281102E-03   6.26374839E-03   1.03525694E-02   1.65326837E-02   5.81492991E-13   2.33381517E-07   1.05021682E-05   6.39659696E-01   7.93497157E-05   1.40028910E-02   1.43421110E-09   5.65940856E-01   3.30587737E-03   2.07432789E-08   4.66763033E-04   1.98374289E-06   4.55093957E-05   7.94249124E-03
   2.39750000E+03   5.00000000E-01   5.00000000E-01   1.41252875E-04   2.24234702E-07   5.56598357E-03   5.75618211E-03   1.05738784E-02   1.65737079E-02   4.59752321E-13   2.34357203E-07   1.05460741E-05   6.42333889E-01   7.96814490E-05   1.40614322E-02   1.46033593E-09   5.68608519E-01   3.08885961E-03   2.08259946E-08   4.68714406E-04   1.99203622E-06   4.56996546E-05   8.09151538E-03
   2.43250000E+03   5.00000000E-01   5.00000000E-01   1.45474855E-04   2.47353624E-07   5.58959257E-03   5.27618914E-03   1.08149296E-02   1.65852031E-02   3.59926103E-13   2.35351266E-07   1.05908070E-05   6.45058449E-01   8.00194304E-05   1.41210760E-02   1.48675616E-09   5.71321885E-01   2.88755461E-03   2.09103070E-08   4.70702532E-04   2.00048576E-06   4.58934969E-05   8.24072003E-03
   2.46750000E+03   5.00000000E-01   5.00000000E-01   1.49159667E-04   2.72844235E-07   5.61364627E-03   4.82481779E-03   1.10749111E-02   1.65661283E-02   2.79317887E-13   2.36364053E-07   1.06363824E-05   6.47834330E-01   8.03637782E-05   1.41818432E-02   1.51347855E-09   5.74081617E-01   2.70104663E-03   2.09962462E-08   4.72728107E-04   2.00909445E-06   4.60909904E-05   8.38995648E-03
   2.50250000E+03   5.00000000E-01   5.00000000E-01   1.52372312E-04   3.00951158E-07   5.63815320E-03   4.40257436E-03   1.13533382E-02   1.65159742E-02   2.15097147E-13   2.37395924E-07   1.06828166E-05   6.50662515E-01   8.07146142E-05   1.42437554E-02   1.54051003E-09   5.76888405E-01   2.52874550E-03   2.10838431E-08   4.74791848E-04   2.01786535E-06   4.62922052E-05   8.53908052E-03
   2.53750000E+03   5.00000000E-01   5.00000000E-01   1.55149727E-04   3.31945884E-07   5.66312214E-03   4.00945283E-03   1.16492404E-02   1.64347580E-02   1.64547002E-13   2.38447248E-07   1.07301262E-05   6.53544019E-01   8.10720644E-05   1.43068349E-02   1.56785774E-09   5.79742969E-01   2.36957276E-03   2.11731296E-08   4.76894496E-04   2.02680161E-06   4.64972134E-05   8.68796202E-03
   2.57250000E+03   5.00000000E-01   5.00000000E-01   1.57496086E-04   3.66131549E-07   5.68856220E-03   3.64497987E-03   1.19612796E-02   1.63229820E-02   1.25174273E-13   2.39518409E-07   1.07783284E-05   6.56479890E-01   8.14362589E-05   1.43711045E-02   1.59552902E-09   5.82646050E-01   2.22208096E-03   2.12641388E-08   4.79036817E-04   2.03590647E-06   4.67060897E-05   8.83648881E-03
   2.60750000E+03   5.00000000E-01   5.00000000E-01   1.59411769E-04   4.03848174E-07   5.71448275E-03   3.30828195E-03   1.22883042E-02   1.61815537E-02   9.47726385E-14   2.40609800E-07   1.08274410E-05   6.59471211E-01   8.18073320E-05   1.44365880E-02   1.62353142E-09   5.85598417E-01   2.08500714E-03   2.13569048E-08   4.81219600E-04   2.04518330E-06   4.69189110E-05   8.98455846E-03