 TITLE = "Total Concentrations" 
VARIABLES = "X"          "Y"              "Z"            "H+"             "Al+++"          "CO2(aq)"        "Mg++"           "Ca++"           "Fe++"           "Fe+++"          "Ba++"           "Sr++"           "Cl-"            "F-"             "K+"             "HS-"            "Na+"            "SO4--"          "O2(aq)"         "B(OH)3(aq)"     "HPO4--"         "NO3-"           "H4SiO4(aq)"    
 ZONE I=         200 , J=           1 , K=           1  F=POINT
   8.75000000E+00   5.00000000E-01   5.00000000E-01  -4.68142819E-03   9.09524504E-13   4.74997155E-03   5.08030659E-02   1.05959330E-02   5.29600291E-05   1.54995029E-22   1.99998802E-07   8.99994609E-06   5.48163260E-01   6.79995927E-05   1.19944938E-02   1.00950028E-10   4.74037940E-01   2.79998323E-02   1.79997008E-08   3.99997604E-04   1.69998982E-06   3.89997664E-05   4.08895948E-04
   2.62500000E+01   5.00000000E-01   5.00000000E-01  -4.59514259E-03   3.77272727E-12   4.74999810E-03   5.04976249E-02   1.07920420E-02   1.05893077E-04   7.19724754E-22   1.99999920E-07   8.99999641E-06   5.48166324E-01   6.79999729E-05   1.19862126E-02   1.01901317E-10   4.74076112E-01   2.79999888E-02   1.79996099E-08   3.99999840E-04   1.69999932E-06   3.89999844E-05   6.09234788E-04
   4.37500000E+01   5.00000000E-01   5.00000000E-01  -4.54403706E-03   6.19126775E-12   4.75018787E-03   5.02165290E-02   1.09885696E-02   1.58809000E-04   1.44929374E-21   2.00007910E-07   9.00035596E-06   5.48188224E-01   6.80026895E-05   1.19781717E-02   1.02856239E-10   4.74120492E-01   2.80011074E-02   1.80001376E-08   4.00015821E-04   1.70006724E-06   3.90015425E-05   7.91598224E-04
   6.12500000E+01   5.00000000E-01   5.00000000E-01  -4.50741223E-03   8.02034154E-12   4.75053372E-03   4.99507483E-02   1.11855162E-02   2.11701150E-04   2.21757214E-21   2.00022473E-07   9.00101126E-06   5.48228136E-01   6.80076407E-05   1.19688484E-02   1.03814733E-10   4.74169072E-01   2.80031462E-02   1.80012566E-08   4.00044945E-04   1.70019102E-06   3.90043821E-05   9.37543830E-04
   7.87500000E+01   5.00000000E-01   5.00000000E-01  -4.47624087E-03   9.79500893E-12   4.75102913E-03   4.96951060E-02   1.13828912E-02   2.64567457E-04   3.04423742E-21   2.00043332E-07   9.00194993E-06   5.48285308E-01   6.80147328E-05   1.19581212E-02   1.04776749E-10   4.74222451E-01   2.80060664E-02   1.80029423E-08   4.00086663E-04   1.70036832E-06   3.90084497E-05   1.04683852E-03
   9.62500000E+01   5.00000000E-01   5.00000000E-01  -4.44834528E-03   1.15458599E-11   4.75166807E-03   4.94467860E-02   1.15807018E-02   3.17404657E-04   3.91678452E-21   2.00070234E-07   9.00316055E-06   5.48359044E-01   6.80238797E-05   1.19466210E-02   1.05742241E-10   4.74282681E-01   2.80098328E-02   1.80051718E-08   4.00140469E-04   1.70059699E-06   3.90136957E-05   1.12936595E-03
   1.13750000E+02   5.00000000E-01   5.00000000E-01  -4.42255895E-03   1.32144394E-11   4.75244499E-03   4.92034190E-02   1.17789533E-02   3.70207101E-04   4.82688895E-21   2.00102947E-07   9.00463261E-06   5.48448703E-01   6.80350020E-05   1.19350239E-02   1.06711168E-10   4.74351952E-01   2.80144126E-02   1.80079242E-08   4.00205894E-04   1.70087505E-06   3.90200747E-05   1.19591514E-03
   1.31250000E+02   5.00000000E-01   5.00000000E-01  -4.39779410E-03   1.47835809E-11   4.75335479E-03   4.89631065E-02   1.19776497E-02   4.22967325E-04   5.78532736E-21   2.00141254E-07   9.00635643E-06   5.48553697E-01   6.80480264E-05   1.19238198E-02   1.07683496E-10   4.74431840E-01   2.80197756E-02   1.80111798E-08   4.00282508E-04   1.70120066E-06   3.90275446E-05   1.25452610E-03
   1.48750000E+02   5.00000000E-01   5.00000000E-01  -4.37318180E-03   1.62646091E-11   4.75439272E-03   4.87245312E-02   1.21767944E-02   4.75676584E-04   6.81274537E-21   2.00184957E-07   9.00832306E-06   5.48673479E-01   6.80628853E-05   1.19133142E-02   1.08659198E-10   4.74523215E-01   2.80258940E-02   1.80149210E-08   4.00369914E-04   1.70157213E-06   3.90360666E-05   1.31027894E-03
   1.66250000E+02   5.00000000E-01   5.00000000E-01  -4.34805436E-03   1.76903013E-11   4.75555443E-03   4.84868418E-02   1.23763908E-02   5.28325407E-04   7.93500139E-21   2.00233871E-07   9.01052419E-06   5.48807544E-01   6.80795161E-05   1.19036739E-02   1.09638247E-10   4.74626400E-01   2.80327419E-02   1.80191310E-08   4.00467742E-04   1.70198790E-06   3.90456048E-05   1.36597662E-03
   1.83750000E+02   5.00000000E-01   5.00000000E-01  -4.32190015E-03   1.91069950E-11   4.75683587E-03   4.82495083E-02   1.25764420E-02   5.80904218E-04   9.18125560E-21   2.00287826E-07   9.01295217E-06   5.48955426E-01   6.80978608E-05   1.18949743E-02   1.10620624E-10   4.74741366E-01   2.80402956E-02   1.80237946E-08   4.00575652E-04   1.70244652E-06   3.90561261E-05   1.42292000E-03
   2.01250000E+02   5.00000000E-01   5.00000000E-01  -4.29443676E-03   2.05412636E-11   4.75823327E-03   4.80122344E-02   1.27769515E-02   6.33403151E-04   1.05759548E-20   2.00346664E-07   9.01559988E-06   5.49116691E-01   6.81178658E-05   1.18872506E-02   1.11606313E-10   4.74867925E-01   2.80485330E-02   1.80288974E-08   4.00693328E-04   1.70294664E-06   3.90675995E-05   1.48175157E-03
   2.18750000E+02   5.00000000E-01   5.00000000E-01  -4.26552083E-03   2.20033370E-11   4.75974317E-03   4.77748487E-02   1.29779237E-02   6.85811737E-04   1.21397463E-20   2.00410239E-07   9.01846074E-06   5.49290938E-01   6.81394811E-05   1.18805181E-02   1.12595300E-10   4.75005828E-01   2.80574334E-02   1.80344264E-08   4.00820477E-04   1.70348703E-06   3.90799965E-05   1.54283492E-03
   2.36250000E+02   5.00000000E-01   5.00000000E-01  -4.23498490E-03   2.35161278E-11   4.76136232E-03   4.75372148E-02   1.31793634E-02   7.38119443E-04   1.38986884E-20   2.00478413E-07   9.02152861E-06   5.49477794E-01   6.81626606E-05   1.18747703E-02   1.13587575E-10   4.75154789E-01   2.80669779E-02   1.80403691E-08   4.00956827E-04   1.70406651E-06   3.90932906E-05   1.60623012E-03
   2.53750000E+02   5.00000000E-01   5.00000000E-01  -4.20276388E-03   2.50849824E-11   4.76308773E-03   4.72992575E-02   1.33812763E-02   7.90315164E-04   1.58747750E-20   2.00551062E-07   9.02479780E-06   5.49676912E-01   6.81873611E-05   1.18699948E-02   1.14583133E-10   4.75314534E-01   2.80771487E-02   1.80467143E-08   4.01102124E-04   1.70468403E-06   3.91074571E-05   1.67199557E-03
   2.71250000E+02   5.00000000E-01   5.00000000E-01  -4.16880465E-03   2.67139616E-11   4.76491659E-03   4.70609151E-02   1.35836681E-02   8.42387194E-04   1.80912451E-20   2.00628067E-07   9.02826302E-06   5.49887970E-01   6.82135428E-05   1.18661724E-02   1.15581968E-10   4.75484809E-01   2.80879294E-02   1.80534514E-08   4.01256134E-04   1.70533857E-06   3.91224731E-05   1.74016329E-03
   2.88750000E+02   5.00000000E-01   5.00000000E-01  -4.13304583E-03   2.84102153E-11   4.76684632E-03   4.68221303E-02   1.37865446E-02   8.94323415E-04   2.05744586E-20   2.00709319E-07   9.03191935E-06   5.50110667E-01   6.82411684E-05   1.18632765E-02   1.16584080E-10   4.75665375E-01   2.80993046E-02   1.80605704E-08   4.01418638E-04   1.70602921E-06   3.91383172E-05   1.81072643E-03
   3.06250000E+02   5.00000000E-01   5.00000000E-01  -4.09541826E-03   3.01843065E-11   4.76887449E-03   4.65828497E-02   1.39899112E-02   9.46111557E-04   2.33545186E-20   2.00794715E-07   9.03576219E-06   5.50344724E-01   6.82702032E-05   1.18612741E-02   1.17589469E-10   4.75856010E-01   2.81112601E-02   1.80680622E-08   4.01589430E-04   1.70675508E-06   3.91549695E-05   1.88364028E-03
   3.23750000E+02   5.00000000E-01   5.00000000E-01  -4.05584995E-03   3.20494467E-11   4.77099883E-03   4.63430249E-02   1.41937729E-02   9.97739474E-04   2.64654771E-20   2.00884161E-07   9.03978726E-06   5.50589882E-01   6.83006149E-05   1.18601279E-02   1.18598139E-10   4.76056501E-01   2.81237826E-02   1.80759182E-08   4.01768323E-04   1.70751537E-06   3.91724115E-05   1.95883039E-03
   3.41250000E+02   5.00000000E-01   5.00000000E-01  -4.01427277E-03   3.40201874E-11   4.77321726E-03   4.61026143E-02   1.43981342E-02   1.04919536E-03   2.99451952E-20   2.00977569E-07   9.04399059E-06   5.50845895E-01   6.83323734E-05   1.18597970E-02   1.19610094E-10   4.76266653E-01   2.81368596E-02   1.80841304E-08   4.01955138E-04   1.70830933E-06   3.91906259E-05   2.03620549E-03
   3.58750000E+02   5.00000000E-01   5.00000000E-01  -3.97063392E-03   3.61097458E-11   4.77552780E-03   4.58615857E-02   1.46029992E-02   1.10046782E-03   3.38342627E-20   2.01074855E-07   9.04836846E-06   5.51112540E-01   6.83654506E-05   1.18602388E-02   1.20625342E-10   4.76486283E-01   2.81504797E-02   1.80926915E-08   4.02149709E-04   1.70913626E-06   3.92095967E-05   2.11567964E-03
   3.76250000E+02   5.00000000E-01   5.00000000E-01  -3.92489669E-03   3.83296384E-11   4.77792862E-03   4.56199150E-02   1.48083721E-02   1.15154580E-03   3.81758405E-20   2.01175942E-07   9.05291739E-06   5.51389603E-01   6.83998203E-05   1.18614102E-02   1.21643891E-10   4.76715229E-01   2.81646319E-02   1.81015944E-08   4.02351884E-04   1.70999551E-06   3.92293087E-05   2.19718217E-03
   3.93750000E+02   5.00000000E-01   5.00000000E-01  -3.87704480E-03   4.06884715E-11   4.78041802E-03   4.53775866E-02   1.50142571E-02   1.20241851E-03   4.30148523E-20   2.01280759E-07   9.05763414E-06   5.51676888E-01   6.84354580E-05   1.18632682E-02   1.22665752E-10   4.76953342E-01   2.81793062E-02   1.81108326E-08   4.02561517E-04   1.71088645E-06   3.92497480E-05   2.28066917E-03
   4.11250000E+02   5.00000000E-01   5.00000000E-01  -3.82708123E-03   4.31919532E-11   4.78299440E-03   4.51345925E-02   1.52206589E-02   1.25307515E-03   4.83977354E-20   2.01389238E-07   9.06251570E-06   5.51974211E-01   6.84723408E-05   1.18657708E-02   1.23690936E-10   4.77200494E-01   2.81944933E-02   1.81204002E-08   4.02778476E-04   1.71180852E-06   3.92709014E-05   2.36612680E-03
   4.28750000E+02   5.00000000E-01   5.00000000E-01  -3.77502537E-03   4.58434294E-11   4.78565626E-03   4.48909312E-02   1.54275820E-02   1.30350480E-03   5.43725072E-20   2.01501316E-07   9.06755924E-06   5.52281400E-01   6.85104476E-05   1.18688778E-02   1.24719458E-10   4.77456571E-01   2.82101843E-02   1.81302914E-08   4.03002633E-04   1.71276119E-06   3.92927567E-05   2.45356937E-03
   4.46250000E+02   5.00000000E-01   5.00000000E-01  -3.72091354E-03   4.86436156E-11   4.78840223E-03   4.46466073E-02   1.56350318E-02   1.35369614E-03   6.09882676E-20   2.01616936E-07   9.07276212E-06   5.52598294E-01   6.85497582E-05   1.18725506E-02   1.25751333E-10   4.77721472E-01   2.82263710E-02   1.81405010E-08   4.03233872E-04   1.71374396E-06   3.93153025E-05   2.54303919E-03
   4.63750000E+02   5.00000000E-01   5.00000000E-01  -3.66479755E-03   5.15908022E-11   4.79123099E-03   4.44016322E-02   1.58430137E-02   1.40363726E-03   6.82949849E-20   2.01736042E-07   9.07812188E-06   5.52924743E-01   6.85902542E-05   1.18767532E-02   1.26786575E-10   4.77995112E-01   2.82430459E-02   1.81510240E-08   4.03472084E-04   1.71475636E-06   3.93385282E-05   2.63460371E-03
   4.81250000E+02   5.00000000E-01   5.00000000E-01  -3.60674279E-03   5.46812193E-11   4.79414134E-03   4.41560232E-02   1.60515336E-02   1.45331544E-03   7.63434075E-20   2.01858583E-07   9.08363623E-06   5.53260608E-01   6.86319182E-05   1.18814516E-02   1.27825204E-10   4.78277412E-01   2.82602016E-02   1.81618558E-08   4.03717166E-04   1.71579795E-06   3.93624237E-05   2.72835141E-03
   4.98750000E+02   5.00000000E-01   5.00000000E-01  -3.54706916E-03   5.78385190E-11   4.79713214E-03   4.39099012E-02   1.62605980E-02   1.50271148E-03   8.51208712E-20   2.01984511E-07   9.08930301E-06   5.53605757E-01   6.86747339E-05   1.18866171E-02   1.28867237E-10   4.78568363E-01   2.82778316E-02   1.81729921E-08   4.03969023E-04   1.71686835E-06   3.93869797E-05   2.82469005E-03
   5.16250000E+02   5.00000000E-01   5.00000000E-01  -3.48565387E-03   6.11089435E-11   4.80020234E-03   4.36631988E-02   1.64702137E-02   1.55180917E-03   9.47240990E-20   2.02113783E-07   9.09512023E-06   5.53960068E-01   6.87186861E-05   1.18922180E-02   1.29912694E-10   4.78867892E-01   2.82959296E-02   1.81844290E-08   4.04227566E-04   1.71796715E-06   3.94121876E-05   2.92359246E-03
   5.33750000E+02   5.00000000E-01   5.00000000E-01  -3.42255235E-03   6.44966541E-11   4.80335095E-03   4.34159359E-02   1.66803878E-02   1.60059201E-03   1.05215283E-19   2.02246356E-07   9.10108601E-06   5.54323428E-01   6.87637609E-05   1.18982272E-02   1.30961597E-10   4.79175935E-01   2.83144898E-02   1.81961627E-08   4.04492711E-04   1.71909402E-06   3.94380394E-05   3.02513224E-03
   5.51250000E+02   5.00000000E-01   5.00000000E-01  -3.35788588E-03   6.79886105E-11   4.80657704E-03   4.31681630E-02   1.68911277E-02   1.64904180E-03   1.16641673E-19   2.02382191E-07   9.10719861E-06   5.54695731E-01   6.88099450E-05   1.19046205E-02   1.32013966E-10   4.79492440E-01   2.83335068E-02   1.82081896E-08   4.04764382E-04   1.72024863E-06   3.94645273E-05   3.12943966E-03
   5.68750000E+02   5.00000000E-01   5.00000000E-01  -3.29177790E-03   7.15718987E-11   4.80987977E-03   4.29199337E-02   1.71024410E-02   1.69713872E-03   1.29051172E-19   2.02521253E-07   9.11345640E-06   5.55076877E-01   6.88572261E-05   1.19113759E-02   1.33069826E-10   4.79817363E-01   2.83529755E-02   1.82205065E-08   4.05042507E-04   1.72143065E-06   3.94916444E-05   3.23665217E-03
   5.86250000E+02   5.00000000E-01   5.00000000E-01  -3.22434598E-03   7.52367288E-11   4.81325833E-03   4.26713009E-02   1.73143352E-02   1.74486156E-03   1.42495516E-19   2.02663508E-07   9.11985788E-06   5.55466774E-01   6.89055929E-05   1.19184736E-02   1.34129199E-10   4.80150659E-01   2.83728912E-02   1.82331104E-08   4.05327017E-04   1.72263982E-06   3.95193842E-05   3.34690038E-03
   6.03750000E+02   5.00000000E-01   5.00000000E-01  -3.15570199E-03   7.89769987E-11   4.81671197E-03   4.24223185E-02   1.75268178E-02   1.79218812E-03   1.57031443E-19   2.02808925E-07   9.12640163E-06   5.55865337E-01   6.89550346E-05   1.19258954E-02   1.35192110E-10   4.80492286E-01   2.83932495E-02   1.82459984E-08   4.05617850E-04   1.72387586E-06   3.95477404E-05   3.46030219E-03
   6.21250000E+02   5.00000000E-01   5.00000000E-01  -3.08595389E-03   8.27902727E-11   4.82024002E-03   4.21730419E-02   1.77398958E-02   1.83909553E-03   1.72721394E-19   2.02957474E-07   9.13308635E-06   5.56272486E-01   6.90055413E-05   1.19336251E-02   1.36258586E-10   4.80842202E-01   2.84140464E-02   1.82591680E-08   4.05914949E-04   1.72513853E-06   3.95767075E-05   3.57696034E-03
   6.38750000E+02   5.00000000E-01   5.00000000E-01  -3.01520853E-03   8.66772033E-11   4.82384182E-03   4.19235289E-02   1.79535762E-02   1.88556058E-03   1.89633567E-19   2.03109129E-07   9.13991082E-06   5.56688146E-01   6.90571040E-05   1.19416477E-02   1.37328653E-10   4.81200362E-01   2.84352781E-02   1.82726167E-08   4.06218259E-04   1.72642760E-06   3.96062802E-05   3.69696309E-03
   6.56250000E+02   5.00000000E-01   5.00000000E-01  -2.94357525E-03   9.06404397E-11   4.82751678E-03   4.16738416E-02   1.81678659E-02   1.93156006E-03   2.07841159E-19   2.03263865E-07   9.14687391E-06   5.57112250E-01   6.91097140E-05   1.19499499E-02   1.38402338E-10   4.81566723E-01   2.84569411E-02   1.82863421E-08   4.06527729E-04   1.72774285E-06   3.96364536E-05   3.82038737E-03
   6.73750000E+02   5.00000000E-01   5.00000000E-01  -2.87116891E-03   9.46834230E-11   4.83126436E-03   4.14240468E-02   1.83827714E-02   1.97707084E-03   2.27421142E-19   2.03421657E-07   9.15397457E-06   5.57544733E-01   6.91633634E-05   1.19585197E-02   1.39479669E-10   4.81941242E-01   2.84790320E-02   1.83003424E-08   4.06843314E-04   1.72908409E-06   3.96672232E-05   3.94730300E-03
   6.91250000E+02   5.00000000E-01   5.00000000E-01  -2.79811315E-03   9.88088227E-11   4.83508403E-03   4.11742168E-02   1.85982991E-02   2.02206993E-03   2.48452057E-19   2.03582486E-07   9.16121185E-06   5.57985537E-01   6.92180451E-05   1.19673464E-02   1.40560676E-10   4.82323876E-01   2.85015480E-02   1.83146154E-08   4.07164971E-04   1.73045113E-06   3.96985847E-05   4.07777812E-03
   7.08750000E+02   5.00000000E-01   5.00000000E-01  -2.72454065E-03   1.03017770E-10   4.83897534E-03   4.09244293E-02   1.88144556E-02   2.06653440E-03   2.71012552E-19   2.03746330E-07   9.16858486E-06   5.58434607E-01   6.92737523E-05   1.19764204E-02   1.41645388E-10   4.82714584E-01   2.85244862E-02   1.83291594E-08   4.07492660E-04   1.73184381E-06   3.97305344E-05   4.21188256E-03
   7.26250000E+02   5.00000000E-01   5.00000000E-01  -2.65059256E-03   1.07309306E-10   4.84293785E-03   4.06747669E-02   1.90312474E-02   2.11044133E-03   2.95179911E-19   2.03913173E-07   9.17609277E-06   5.58891895E-01   6.93304787E-05   1.19857331E-02   1.42733836E-10   4.83113331E-01   2.85478442E-02   1.83439727E-08   4.07826345E-04   1.73326197E-06   3.97630687E-05   4.34969029E-03
   7.43750000E+02   5.00000000E-01   5.00000000E-01  -2.57641717E-03   1.11680032E-10   4.84697116E-03   4.04253155E-02   1.92486811E-02   2.15376758E-03   3.21028642E-19   2.04082996E-07   9.18373483E-06   5.59357353E-01   6.93882188E-05   1.19952770E-02   1.43826051E-10   4.83520082E-01   2.85716195E-02   1.83590540E-08   4.08165993E-04   1.73470547E-06   3.97961843E-05   4.49128086E-03
   7.61250000E+02   5.00000000E-01   5.00000000E-01  -2.50216801E-03   1.16123986E-10   4.85107492E-03   4.01761639E-02   1.94667634E-02   2.19648967E-03   3.48629238E-19   2.04255786E-07   9.19151037E-06   5.59830941E-01   6.94469673E-05   1.20050452E-02   1.44922066E-10   4.83934807E-01   2.85958101E-02   1.83744016E-08   4.08511572E-04   1.73617418E-06   3.98298783E-05   4.63673992E-03
   7.78750000E+02   5.00000000E-01   5.00000000E-01  -2.42800135E-03   1.20632774E-10   4.85524879E-03   3.99274025E-02   1.96855013E-02   2.23858361E-03   3.78047277E-19   2.04431528E-07   9.19941876E-06   5.60312620E-01   6.95067195E-05   1.20150317E-02   1.46021912E-10   4.84357481E-01   2.86204139E-02   1.83900145E-08   4.08863056E-04   1.73766799E-06   3.98641479E-05   4.78615870E-03
   7.96250000E+02   5.00000000E-01   5.00000000E-01  -2.35407324E-03   1.25196023E-10   4.85949247E-03   3.96791217E-02   1.99049019E-02   2.28002474E-03   4.09343131E-19   2.04610209E-07   9.20745942E-06   5.60802356E-01   6.95674712E-05   1.20252312E-02   1.47125625E-10   4.84788080E-01   2.86454293E-02   1.84058915E-08   4.09220419E-04   1.73918678E-06   3.98989908E-05   4.93963258E-03
   8.13750000E+02   5.00000000E-01   5.00000000E-01  -2.28053629E-03   1.29802151E-10   4.86380570E-03   3.94314105E-02   2.01249726E-02   2.32078776E-03   4.42572478E-19   2.04791819E-07   9.21563186E-06   5.61300117E-01   6.96292185E-05   1.20356389E-02   1.48233237E-10   4.85226586E-01   2.86708547E-02   1.84220316E-08   4.09583638E-04   1.74073046E-06   3.99344047E-05   5.09725874E-03
   8.31250000E+02   5.00000000E-01   5.00000000E-01  -2.20753639E-03   1.34439374E-10   4.86818824E-03   3.91843554E-02   2.03457210E-02   2.36084673E-03   4.77787654E-19   2.04976347E-07   9.22393561E-06   5.61805877E-01   6.96919579E-05   1.20462505E-02   1.49344785E-10   4.85672983E-01   2.86966886E-02   1.84384337E-08   4.09952694E-04   1.74229895E-06   3.99703876E-05   5.25913314E-03
   8.48750000E+02   5.00000000E-01   5.00000000E-01  -2.13520978E-03   1.39096899E-10   4.87263986E-03   3.89380383E-02   2.05671546E-02   2.40017535E-03   5.15039919E-19   2.05163784E-07   9.23237027E-06   5.62319610E-01   6.97556865E-05   1.20570621E-02   1.50460303E-10   4.86127256E-01   2.87229297E-02   1.84550972E-08   4.10327568E-04   1.74389216E-06   4.00069378E-05   5.42534720E-03
   8.66250000E+02   5.00000000E-01   5.00000000E-01  -2.06368037E-03   1.43766292E-10   4.87716040E-03   3.86925360E-02   2.07892813E-02   2.43874727E-03   5.54382809E-19   2.05354122E-07   9.24093549E-06   5.62841295E-01   6.98204014E-05   1.20680705E-02   1.51579828E-10   4.86589393E-01   2.87495771E-02   1.84720213E-08   4.10708244E-04   1.74551004E-06   4.00440538E-05   5.59598421E-03
   8.83750000E+02   5.00000000E-01   5.00000000E-01  -1.99317028E-03   1.48378599E-10   4.88174967E-03   3.84479732E-02   2.10121081E-02   2.47652943E-03   5.95708691E-19   2.05547354E-07   9.24963095E-06   5.63370913E-01   6.98861005E-05   1.20792727E-02   1.52703398E-10   4.87059400E-01   2.87766296E-02   1.84892053E-08   4.11094709E-04   1.74715251E-06   4.00817341E-05   5.77122979E-03
   9.01250000E+02   5.00000000E-01   5.00000000E-01  -1.92363616E-03   1.53005491E-10   4.88640754E-03   3.82043488E-02   2.12356429E-02   2.51349813E-03   6.39268221E-19   2.05743475E-07   9.25845639E-06   5.63908448E-01   6.99527816E-05   1.20906657E-02   1.53831048E-10   4.87537253E-01   2.88040865E-02   1.85066488E-08   4.11486951E-04   1.74881954E-06   4.01199777E-05   5.95103892E-03
   9.18750000E+02   5.00000000E-01   5.00000000E-01  -1.85513414E-03   1.57669601E-10   4.89113389E-03   3.79617061E-02   2.14598935E-02   2.54963369E-03   6.85194528E-19   2.05942480E-07   9.26741159E-06   5.64453886E-01   7.00204431E-05   1.21022471E-02   1.54962820E-10   4.88022934E-01   2.88319471E-02   1.85243512E-08   4.11884959E-04   1.75051108E-06   4.01587835E-05   6.13542001E-03
   9.36250000E+02   5.00000000E-01   5.00000000E-01  -1.78775588E-03   1.62369763E-10   4.89592864E-03   3.77201038E-02   2.16848672E-02   2.58491796E-03   7.33560118E-19   2.06144364E-07   9.27649637E-06   5.65007216E-01   7.00890837E-05   1.21140147E-02   1.56098750E-10   4.88516427E-01   2.88602108E-02   1.85423123E-08   4.12288727E-04   1.75222709E-06   4.01981509E-05   6.32440650E-03
   9.53750000E+02   5.00000000E-01   5.00000000E-01  -1.72157181E-03   1.67113259E-10   4.90079170E-03   3.74795885E-02   2.19105714E-02   2.61933554E-03   7.84463308E-19   2.06349124E-07   9.28571059E-06   5.65568430E-01   7.01587022E-05   1.21259666E-02   1.57238879E-10   4.89017719E-01   2.88888772E-02   1.85605316E-08   4.12698248E-04   1.75396756E-06   4.02380792E-05   6.51801399E-03
   9.71250000E+02   5.00000000E-01   5.00000000E-01  -1.65663226E-03   1.71917342E-10   4.90572302E-03   3.72401948E-02   2.21370132E-02   2.65287518E-03   8.38036507E-19   2.06556759E-07   9.29505415E-06   5.66137522E-01   7.02292980E-05   1.21381011E-02   1.58383247E-10   4.89526794E-01   2.89179459E-02   1.85790091E-08   4.13113518E-04   1.75573245E-06   4.02785680E-05   6.71623677E-03
   9.88750000E+02   5.00000000E-01   5.00000000E-01  -1.59297697E-03   1.76804574E-10   4.91072257E-03   3.70019487E-02   2.23641995E-02   2.68553070E-03   8.94436095E-19   2.06767266E-07   9.30452698E-06   5.66714488E-01   7.03008705E-05   1.21504166E-02   1.59531895E-10   4.90043636E-01   2.89474166E-02   1.85977446E-08   4.13534532E-04   1.75752176E-06   4.03196169E-05   6.91905312E-03
   1.00625000E+03   5.00000000E-01   5.00000000E-01  -1.53064219E-03   1.81798303E-10   4.91579034E-03   3.67648705E-02   2.25921371E-02   2.71730115E-03   9.53830052E-19   2.06980646E-07   9.31412906E-06   5.67299325E-01   7.03734196E-05   1.21629119E-02   1.60684865E-10   4.90568227E-01   2.89772892E-02   1.86167379E-08   4.13961292E-04   1.75933549E-06   4.03612259E-05   7.12643112E-03
   1.02375000E+03   5.00000000E-01   5.00000000E-01  -1.46966432E-03   1.86919497E-10   4.92092632E-03   3.65289761E-02   2.28208327E-02   2.74819076E-03   1.01638731E-18   2.07196898E-07   9.32386040E-06   5.67892036E-01   7.04469452E-05   1.21755857E-02   1.61842200E-10   4.91100553E-01   2.90075636E-02   1.86359892E-08   4.14393795E-04   1.76117363E-06   4.04033951E-05   7.33833337E-03
   1.04125000E+03   5.00000000E-01   5.00000000E-01  -1.41008291E-03   1.92183215E-10   4.92613054E-03   3.62942791E-02   2.30502928E-02   2.77820813E-03   1.08226334E-18   2.07416023E-07   9.33372103E-06   5.68492621E-01   7.05214478E-05   1.21884372E-02   1.63003941E-10   4.91640597E-01   2.90382396E-02   1.86554985E-08   4.14832046E-04   1.76303619E-06   4.04461245E-05   7.55472226E-03
   1.05875000E+03   5.00000000E-01   5.00000000E-01  -1.35193854E-03   1.97598567E-10   4.93140304E-03   3.60607896E-02   2.32805240E-02   2.80736560E-03   1.15159649E-18   2.07638023E-07   9.34371102E-06   5.69101086E-01   7.05969277E-05   1.22014653E-02   1.64170133E-10   4.92188348E-01   2.90693172E-02   1.86752659E-08   4.15276046E-04   1.76492319E-06   4.04894144E-05   7.77556118E-03
   1.07625000E+03   5.00000000E-01   5.00000000E-01  -1.29527125E-03   2.03168448E-10   4.93674387E-03   3.58285142E-02   2.35115323E-02   2.83567832E-03   1.22450309E-18   2.07862900E-07   9.35383049E-06   5.69717436E-01   7.06733859E-05   1.22146695E-02   1.65340820E-10   4.92743797E-01   2.91007960E-02   1.86952916E-08   4.15725800E-04   1.76683465E-06   4.05332655E-05   8.00081566E-03
   1.09375000E+03   5.00000000E-01   5.00000000E-01  -1.24011829E-03   2.08890028E-10   4.94215311E-03   3.55974557E-02   2.37433237E-02   2.86316354E-03   1.30107531E-18   2.08090657E-07   9.36407957E-06   5.70341681E-01   7.07508234E-05   1.22280492E-02   1.66516046E-10   4.93306936E-01   2.91326754E-02   1.87155759E-08   4.16181314E-04   1.76877059E-06   4.05776781E-05   8.23045353E-03
   1.11125000E+03   5.00000000E-01   5.00000000E-01  -1.18651157E-03   2.14756098E-10   4.94763083E-03   3.53676123E-02   2.39759033E-02   2.88983996E-03   1.38138286E-18   2.08321298E-07   9.37445841E-06   5.70973829E-01   7.08292414E-05   1.22416040E-02   1.67695857E-10   4.93877762E-01   2.91649545E-02   1.87361192E-08   4.16642596E-04   1.77073103E-06   4.06226531E-05   8.46444396E-03
   1.12875000E+03   5.00000000E-01   5.00000000E-01  -1.13447478E-03   2.20757416E-10   4.95317715E-03   3.51389768E-02   2.42092751E-02   2.91572746E-03   1.46548011E-18   2.08554827E-07   9.38496723E-06   5.71613893E-01   7.09086413E-05   1.22553335E-02   1.68880300E-10   4.94456273E-01   2.91976313E-02   1.87569217E-08   4.17109654E-04   1.77271603E-06   4.06681913E-05   8.70275534E-03
   1.14625000E+03   5.00000000E-01   5.00000000E-01  -1.08402093E-03   2.26885768E-10   4.95879217E-03   3.49115352E-02   2.44434417E-02   2.94084718E-03   1.55341815E-18   2.08791249E-07   9.39560622E-06   5.72261887E-01   7.09890248E-05   1.22692375E-02   1.70069420E-10   4.95042470E-01   2.92307024E-02   1.87779839E-08   4.17582499E-04   1.77472562E-06   4.07142936E-05   8.94535237E-03
   1.16375000E+03   5.00000000E-01   5.00000000E-01  -1.03515081E-03   2.33137082E-10   4.96447604E-03   3.46852664E-02   2.46784028E-02   2.96522203E-03   1.64525952E-18   2.09030570E-07   9.40637566E-06   5.72917825E-01   7.10703939E-05   1.22833160E-02   1.71263266E-10   4.95636355E-01   2.92641621E-02   1.87993063E-08   4.18061140E-04   1.77675985E-06   4.07609612E-05   9.19219302E-03
   1.18125000E+03   5.00000000E-01   5.00000000E-01  -9.87852480E-04   2.39514282E-10   4.97022890E-03   3.44601408E-02   2.49141537E-02   2.98887752E-03   1.74109423E-18   2.09272796E-07   9.41727580E-06   5.73581725E-01   7.11527505E-05   1.22975690E-02   1.72461885E-10   4.96237930E-01   2.92980006E-02   1.88208895E-08   4.18545591E-04   1.77881876E-06   4.08081951E-05   9.44322567E-03
   1.19875000E+03   5.00000000E-01   5.00000000E-01  -9.42101581E-04   2.46029935E-10   4.97605090E-03   3.42361205E-02   2.51506829E-02   3.01184289E-03   1.84105711E-18   2.09517933E-07   9.42830696E-06   5.74253604E-01   7.12360971E-05   1.23119965E-02   1.73665327E-10   4.96847197E-01   2.93322016E-02   1.88427340E-08   4.19035865E-04   1.78090243E-06   4.08559968E-05   9.69838639E-03
   1.21625000E+03   5.00000000E-01   5.00000000E-01  -8.97862299E-04   2.52708487E-10   4.98194222E-03   3.40131583E-02   2.53879677E-02   3.03415237E-03   1.94534531E-18   2.09765988E-07   9.43946947E-06   5.74933483E-01   7.13204360E-05   1.23265986E-02   1.74873639E-10   4.97464158E-01   2.93667382E-02   1.88648406E-08   4.19531976E-04   1.78301090E-06   4.09043677E-05   9.95759674E-03
   1.23375000E+03   5.00000000E-01   5.00000000E-01  -8.55089186E-04   2.59587542E-10   4.98790305E-03   3.37911979E-02   2.56259676E-02   3.05584654E-03   2.05423257E-18   2.10016970E-07   9.45076367E-06   5.75621383E-01   7.14057699E-05   1.23413757E-02   1.76086872E-10   4.98088812E-01   2.94015661E-02   1.88872098E-08   4.20033941E-04   1.78514425E-06   4.09533092E-05   1.02207623E-02
   1.25125000E+03   5.00000000E-01   5.00000000E-01  -8.13729518E-04   2.66718143E-10   4.99393358E-03   3.35701738E-02   2.58646129E-02   3.07697347E-03   2.16807911E-18   2.10270888E-07   9.46218994E-06   5.76317328E-01   7.14921018E-05   1.23563280E-02   1.77305077E-10   4.98721158E-01   2.94366126E-02   1.89098425E-08   4.20541775E-04   1.78730254E-06   4.10028231E-05   1.04877722E-02
   1.26875000E+03   5.00000000E-01   5.00000000E-01  -7.73726090E-04   2.74163749E-10   5.00003403E-03   3.33500124E-02   2.61037864E-02   3.09758955E-03   2.28733417E-18   2.10527749E-07   9.47374869E-06   5.77021341E-01   7.15794346E-05   1.23714558E-02   1.78528305E-10   4.99361192E-01   2.94717578E-02   1.89327394E-08   4.21055497E-04   1.78948586E-06   4.10529110E-05   1.07584999E-02
   1.28625000E+03   5.00000000E-01   5.00000000E-01  -7.35019085E-04   2.81999959E-10   5.00620463E-03   3.31306317E-02   2.63432934E-02   3.11776000E-03   2.41254160E-18   2.10787563E-07   9.48544035E-06   5.77733449E-01   7.16677715E-05   1.23867596E-02   1.79756607E-10   5.00008909E-01   2.95068046E-02   1.89559013E-08   4.21575126E-04   1.79169429E-06   4.11035748E-05   1.10328035E-02
   1.30375000E+03   5.00000000E-01   5.00000000E-01  -6.97548639E-04   2.90312264E-10   5.01244560E-03   3.29119427E-02   2.65828111E-02   3.13755882E-03   2.54433284E-18   2.11050341E-07   9.49726535E-06   5.78453679E-01   7.17571160E-05   1.24022399E-02   1.80990036E-10   5.00664302E-01   2.95414283E-02   1.89793293E-08   4.22100682E-04   1.79392790E-06   4.11548165E-05   1.13105284E-02