 TITLE = "Total Concentrations" 
VARIABLES = "X"          "Y"              "Z"            "H+"             "Al+++"          "CO2(aq)"        "Mg++"           "Ca++"           "Fe++"           "Fe+++"          "Ba++"           "Sr++"           "Cl-"            "F-"             "K+"             "HS-"            "Na+"            "SO4--"          "O2(aq)"         "B(OH)3(aq)"     "HPO4--"         "NO3-"           "H4SiO4(aq)"    
 ZONE I=         100 , J=           1 , K=           1  F=POINT
   1.75000000E+01   5.00000000E-01   5.00000000E-01  -4.62619334E-03   2.22509963E-12   4.75000053E-03   5.04824716E-02   1.78447617E-02   2.20786157E-05   2.56812252E-13   2.00000022E-07   9.00000100E-06   5.48166604E-01   6.80000076E-05   1.20000013E-02   1.00000011E-10   4.74190139E-01   3.50019835E-02   1.80000020E-04   4.00000045E-04   1.70000019E-06   3.90000043E-05   6.41149776E-04
   5.25000000E+01   5.00000000E-01   5.00000000E-01  -4.58271580E-03   3.07104451E-12   4.75014842E-03   4.99295071E-02   2.44301242E-02   4.41292844E-05   1.09173075E-13   2.00006249E-07   9.00028122E-06   5.48183671E-01   6.80021248E-05   1.20003750E-02   1.00003125E-10   4.74340571E-01   4.11450386E-02   1.80005624E-04   4.00012499E-04   1.70005312E-06   3.90012186E-05   8.93387755E-04
   8.75000000E+01   5.00000000E-01   5.00000000E-01  -4.55724878E-03   3.60426864E-12   4.75058151E-03   4.94020003E-02   3.00283297E-02   6.61800087E-05   7.70181606E-14   2.00024485E-07   9.00110182E-06   5.48233652E-01   6.80083248E-05   1.20014691E-02   1.00012242E-10   4.74492103E-01   4.63018399E-02   1.80022036E-04   4.00048970E-04   1.70020812E-06   3.90047745E-05   1.02524942E-03
   1.22500000E+02   5.00000000E-01   5.00000000E-01  -4.53548233E-03   4.18473758E-12   4.75128379E-03   4.88842168E-02   3.45876051E-02   8.82326057E-05   6.43005026E-14   2.00054054E-07   9.00243244E-06   5.48314697E-01   6.80183784E-05   1.20032433E-02   1.00027027E-10   4.74659815E-01   5.04204818E-02   1.80048649E-04   4.00108108E-04   1.70045946E-06   3.90105406E-05   1.10787830E-03
   1.57500000E+02   5.00000000E-01   5.00000000E-01  -4.51368167E-03   4.85853533E-12   4.75224091E-03   4.83706209E-02   3.81313584E-02   1.10288751E-04   5.87196431E-14   2.00094354E-07   9.00424593E-06   5.48425151E-01   6.80320803E-05   1.20056612E-02   1.00047177E-10   4.74849179E-01   5.35242499E-02   1.80084919E-04   4.00188708E-04   1.70080201E-06   3.90183990E-05   1.17212397E-03
   1.92500000E+02   5.00000000E-01   5.00000000E-01  -4.49055126E-03   5.63529817E-12   4.75344002E-03   4.78590020E-02   4.07419257E-02   1.32349979E-04   5.68499737E-14   2.00144843E-07   9.00651793E-06   5.48563533E-01   6.80492466E-05   1.20086906E-02   1.00072421E-10   4.75061643E-01   5.56953690E-02   1.80130359E-04   4.00289686E-04   1.70123117E-06   3.90282444E-05   1.23028006E-03
   2.27500000E+02   5.00000000E-01   5.00000000E-01  -4.46552363E-03   6.52429994E-12   4.75486958E-03   4.73483472E-02   4.25378796E-02   1.54417689E-04   5.73381209E-14   2.00205035E-07   9.00922658E-06   5.48728510E-01   6.80697119E-05   1.20123021E-02   1.00102518E-10   4.75297153E-01   5.70523081E-02   1.80184532E-04   4.00410070E-04   1.70174280E-06   3.90399818E-05   1.28721975E-03
   2.62500000E+02   5.00000000E-01   5.00000000E-01  -4.43828499E-03   7.53739893E-12   4.75651919E-03   4.68381033E-02   4.36523995E-02   1.76493147E-04   5.95553267E-14   2.00274492E-07   9.01235216E-06   5.48918881E-01   6.80933274E-05   1.20164695E-02   1.00137246E-10   4.75555134E-01   5.77281519E-02   1.80247043E-04   4.00548985E-04   1.70233319E-06   3.90535260E-05   1.34490070E-03
   2.97500000E+02   5.00000000E-01   5.00000000E-01  -4.40861481E-03   8.68877255E-12   4.75837947E-03   4.63279029E-02   4.42168388E-02   1.98577498E-04   6.31868509E-14   2.00352820E-07   9.01587689E-06   5.49133563E-01   6.81199587E-05   1.20211692E-02   1.00176410E-10   4.75834863E-01   5.78541653E-02   1.80317538E-04   4.00705640E-04   1.70299897E-06   3.90687999E-05   1.40412238E-03
   3.32500000E+02   5.00000000E-01   5.00000000E-01  -4.37632758E-03   9.99465537E-12   4.76044193E-03   4.58174590E-02   4.43525838E-02   2.20671772E-04   6.80668395E-14   2.00439660E-07   9.01978471E-06   5.49371578E-01   6.81494844E-05   1.20263796E-02   1.00219830E-10   4.76135604E-01   5.75516524E-02   1.80395694E-04   4.00879320E-04   1.70373711E-06   3.90857337E-05   1.46521521E-03
   3.67500000E+02   5.00000000E-01   5.00000000E-01  -4.34125078E-03   1.14732668E-11   4.76269889E-03   4.53065227E-02   4.41645059E-02   2.42776902E-04   7.41089630E-14   2.00534690E-07   9.02406106E-06   5.49632039E-01   6.81817946E-05   1.20320814E-02   1.00267345E-10   4.76456659E-01   5.69254077E-02   1.80481221E-04   4.01069380E-04   1.70454487E-06   3.91042646E-05   1.52831652E-03
   4.02500000E+02   5.00000000E-01   5.00000000E-01  -4.30321707E-03   1.31448575E-11   4.76514339E-03   4.47948659E-02   4.37359121E-02   2.64893730E-04   8.12816369E-14   2.00637617E-07   9.02869275E-06   5.49914143E-01   6.82167897E-05   1.20382570E-02   1.00318808E-10   4.76797386E-01   5.60586663E-02   1.80573855E-04   4.01275233E-04   1.70541974E-06   3.91243352E-05   1.59348404E-03
   4.37500000E+02   5.00000000E-01   5.00000000E-01  -4.26206331E-03   1.50318495E-11   4.76776912E-03   4.42822750E-02   4.31319874E-02   2.87023010E-04   8.95848979E-14   2.00748173E-07   9.03366780E-06   5.50217161E-01   6.82543790E-05   1.20448904E-02   1.00374087E-10   4.77157198E-01   5.50165452E-02   1.80673356E-04   4.01496347E-04   1.70635947E-06   3.91458938E-05   1.66074324E-03
   4.72500000E+02   5.00000000E-01   5.00000000E-01  -4.21763198E-03   1.71590182E-11   4.77057031E-03   4.37685489E-02   4.24031404E-02   3.09165420E-04   9.90374018E-14   2.00866119E-07   9.03897533E-06   5.50540429E-01   6.82944803E-05   1.20519671E-02   1.00433059E-10   4.77535561E-01   5.38493891E-02   1.80779507E-04   4.01732237E-04   1.70736201E-06   3.91688931E-05   1.73010723E-03
   5.07500000E+02   5.00000000E-01   5.00000000E-01  -4.16977399E-03   1.95537091E-11   4.77354176E-03   4.32534990E-02   4.15879790E-02   3.31321563E-04   1.09668560E-13   2.00991232E-07   9.04460543E-06   5.50883344E-01   6.83370188E-05   1.20594739E-02   1.00495616E-10   4.77931990E-01   5.25957450E-02   1.80892109E-04   4.01982464E-04   1.70842547E-06   3.91932902E-05   1.80158543E-03
   5.42500000E+02   5.00000000E-01   5.00000000E-01  -4.11835195E-03   2.22460827E-11   4.77667868E-03   4.27369498E-02   4.07158364E-02   3.53491969E-04   1.21513366E-13   2.01123313E-07   9.05054908E-06   5.51245356E-01   6.83819264E-05   1.20673988E-02   1.00561656E-10   4.78346046E-01   5.12848885E-02   1.81010982E-04   4.02246626E-04   1.70954816E-06   3.92190460E-05   1.87518728E-03
   5.77500000E+02   5.00000000E-01   5.00000000E-01  -4.06324394E-03   2.52693908E-11   4.77997675E-03   4.22187402E-02   3.98088487E-02   3.75677100E-04   1.34608664E-13   2.01262179E-07   9.05679806E-06   5.51625965E-01   6.84291409E-05   1.20757307E-02   1.00631090E-10   4.78777328E-01   4.99389006E-02   1.81135961E-04   4.02524358E-04   1.71072852E-06   3.92461249E-05   1.95092389E-03
   6.12500000E+02   5.00000000E-01   5.00000000E-01  -4.00434733E-03   2.86602827E-11   4.78343201E-03   4.16987254E-02   3.88836245E-02   3.97877354E-04   1.48990186E-13   2.01407664E-07   9.06334487E-06   5.52024714E-01   6.84786056E-05   1.20844598E-02   1.00703832E-10   4.79225469E-01   4.85743373E-02   1.81266897E-04   4.02815327E-04   1.71196514E-06   3.92744944E-05   2.02880880E-03
   6.47500000E+02   5.00000000E-01   5.00000000E-01  -3.94158276E-03   3.24591466E-11   4.78704085E-03   4.11767785E-02   3.79525624E-02   4.20093063E-04   1.64689982E-13   2.01559615E-07   9.07018267E-06   5.52441186E-01   6.85302691E-05   1.20935769E-02   1.00779807E-10   4.79690135E-01   4.72035465E-02   1.81403653E-04   4.03119230E-04   1.71325673E-06   3.93041249E-05   2.10885838E-03
   6.82500000E+02   5.00000000E-01   5.00000000E-01  -3.87489802E-03   3.67104870E-11   4.79079999E-03   4.06527920E-02   3.70248760E-02   4.42324499E-04   1.81734047E-13   2.01717894E-07   9.07730524E-06   5.52875003E-01   6.85840840E-05   1.21030736E-02   1.00858947E-10   4.80171019E-01   4.58356932E-02   1.81546105E-04   4.03435788E-04   1.71460210E-06   3.93349894E-05   2.19109206E-03
   7.17500000E+02   5.00000000E-01   5.00000000E-01  -3.80427183E-03   4.14633442E-11   4.79470640E-03   4.01266798E-02   3.61073822E-02   4.64571876E-04   2.00140022E-13   2.01882375E-07   9.08470687E-06   5.53325818E-01   6.86400075E-05   1.21129425E-02   1.00941187E-10   4.80667840E-01   4.44775476E-02   1.81694137E-04   4.03764750E-04   1.71600019E-06   3.93670631E-05   2.27553248E-03
   7.52500000E+02   5.00000000E-01   5.00000000E-01  -3.72971725E-03   4.67717571E-11   4.79875737E-03   3.95983785E-02   3.52051014E-02   4.86835352E-04   2.19914958E-13   2.02052942E-07   9.09238239E-06   5.53793314E-01   6.86980003E-05   1.21231765E-02   1.01026471E-10   4.81180337E-01   4.31340845E-02   1.81847648E-04   4.04105884E-04   1.71745001E-06   3.94003237E-05   2.36220571E-03
   7.87500000E+02   5.00000000E-01   5.00000000E-01  -3.65128468E-03   5.26952737E-11   4.80295040E-03   3.90678490E-02   3.43217103E-02   5.09115040E-04   2.41053106E-13   2.02229490E-07   9.10032707E-06   5.54277203E-01   6.87580268E-05   1.21337694E-02   1.01114745E-10   4.81708269E-01   4.18089368E-02   1.82006541E-04   4.04458981E-04   1.71895067E-06   3.94347506E-05   2.45114126E-03
   8.22500000E+02   5.00000000E-01   5.00000000E-01  -3.56906434E-03   5.92995129E-11   4.80728320E-03   3.85350776E-02   3.34598815E-02   5.31411004E-04   2.63533801E-13   2.02411924E-07   9.10853659E-06   5.54777224E-01   6.88200543E-05   1.21447155E-02   1.01205962E-10   4.82251411E-01   4.05047342E-02   1.82170732E-04   4.04823849E-04   1.72050136E-06   3.94703252E-05   2.54237227E-03
   8.57500000E+02   5.00000000E-01   5.00000000E-01  -3.48318802E-03   6.66567783E-11   4.81175372E-03   3.80000762E-02   3.26215367E-02   5.53723277E-04   2.87319475E-13   2.02600157E-07   9.11700704E-06   5.55293137E-01   6.88840532E-05   1.21560094E-02   1.01300078E-10   4.82809553E-01   3.92233569E-02   1.82340141E-04   4.05200313E-04   1.72210133E-06   3.95070305E-05   2.63593544E-03
   8.92500000E+02   5.00000000E-01   5.00000000E-01  -3.39383004E-03   7.48467112E-11   4.81636006E-03   3.74628831E-02   3.18080345E-02   5.76051857E-04   3.12353941E-13   2.02794108E-07   9.12573486E-06   5.55824726E-01   6.89499967E-05   1.21676465E-02   1.01397054E-10   4.83382501E-01   3.79661230E-02   1.82514697E-04   4.05588216E-04   1.72374992E-06   3.95448511E-05   2.73187084E-03
   9.27500000E+02   5.00000000E-01   5.00000000E-01  -3.30120724E-03   8.39570254E-11   4.82110054E-03   3.69235627E-02   3.10203100E-02   5.98396725E-04   3.38560812E-13   2.02993707E-07   9.13471681E-06   5.56371793E-01   6.90178603E-05   1.21796224E-02   1.01496853E-10   4.83970071E-01   3.67339277E-02   1.82694336E-04   4.05987414E-04   1.72544651E-06   3.95837728E-05   2.83022180E-03
   9.62500000E+02   5.00000000E-01   5.00000000E-01  -3.20557795E-03   9.40843013E-11   4.82597359E-03   3.63822046E-02   3.02589780E-02   6.20757852E-04   3.65842231E-13   2.03198888E-07   9.14394996E-06   5.56934160E-01   6.90876219E-05   1.21919333E-02   1.01599444E-10   4.84572089E-01   3.55273468E-02   1.82878999E-04   4.06397776E-04   1.72719055E-06   3.96237832E-05   2.93103474E-03
   9.97500000E+02   5.00000000E-01   5.00000000E-01  -3.10724000E-03   1.05334809E-10   4.83097783E-03   3.58389219E-02   2.95244092E-02   6.43135205E-04   3.94078157E-13   2.03409593E-07   9.15343167E-06   5.57511666E-01   6.91592615E-05   1.22045756E-02   1.01704796E-10   4.85188392E-01   3.43467131E-02   1.83068633E-04   4.06819185E-04   1.72898154E-06   3.96648706E-05   3.03435870E-03
   1.03250000E+03   5.00000000E-01   5.00000000E-01  -3.00652769E-03   1.17825388E-10   4.83611199E-03   3.52938502E-02   2.88167883E-02   6.65528765E-04   4.23126072E-13   2.03625768E-07   9.16315956E-06   5.58104167E-01   6.92327612E-05   1.22175461E-02   1.01812884E-10   4.85818828E-01   3.31921735E-02   1.83263191E-04   4.07251536E-04   1.73081903E-06   3.97070248E-05   3.14024476E-03
   1.06750000E+03   5.00000000E-01   5.00000000E-01  -2.90380771E-03   1.31684385E-10   4.84137496E-03   3.47471444E-02   2.81361570E-02   6.87938533E-04   4.52821187E-13   2.03847367E-07   9.17313150E-06   5.58711532E-01   6.93081047E-05   1.22308420E-02   1.01923683E-10   4.86463252E-01   3.20637327E-02   1.83462630E-04   4.07694733E-04   1.73270262E-06   3.97502365E-05   3.24874530E-03
   1.10250000E+03   5.00000000E-01   5.00000000E-01  -2.79947417E-03   1.47052627E-10   4.84676572E-03   3.41989762E-02   2.74824465E-02   7.10364544E-04   4.82977188E-13   2.04074346E-07   9.18334558E-06   5.59333644E-01   6.93852777E-05   1.22444608E-02   1.02037173E-10   4.87121528E-01   3.09612855E-02   1.83666912E-04   4.08148692E-04   1.73463194E-06   3.97944975E-05   3.35991315E-03
   1.13750000E+03   5.00000000E-01   5.00000000E-01  -2.69394282E-03   1.64084438E-10   4.85228339E-03   3.36495305E-02   2.68555036E-02   7.32806877E-04   5.13387535E-13   2.04306669E-07   9.19380010E-06   5.59970402E-01   6.94642674E-05   1.22584001E-02   1.02153335E-10   4.87793528E-01   2.98846425E-02   1.83876002E-04   4.08613338E-04   1.73660669E-06   3.98398004E-05   3.47380065E-03
   1.17250000E+03   5.00000000E-01   5.00000000E-01  -2.58764458E-03   1.82948696E-10   4.85792716E-03   3.30990020E-02   2.62551106E-02   7.55265668E-04   5.43827278E-13   2.04544302E-07   9.20449357E-06   5.60621714E-01   6.95450626E-05   1.22726581E-02   1.02272151E-10   4.88479134E-01   2.88335504E-02   1.84089871E-04   4.09088603E-04   1.73862656E-06   3.98861388E-05   3.59045866E-03
   1.20750000E+03   5.00000000E-01   5.00000000E-01  -2.48101870E-03   2.03829917E-10   4.86369637E-03   3.25475912E-02   2.56810009E-02   7.77741116E-04   5.74055366E-13   2.04787215E-07   9.21542469E-06   5.61287500E-01   6.96276532E-05   1.22872329E-02   1.02393608E-10   4.89178235E-01   2.78077071E-02   1.84308494E-04   4.09574431E-04   1.74069133E-06   3.99335070E-05   3.70993547E-03
   1.24250000E+03   5.00000000E-01   5.00000000E-01  -2.37450558E-03   2.26929378E-10   4.86959040E-03   3.19955003E-02   2.51328724E-02   8.00233495E-04   6.03817395E-13   2.05035385E-07   9.22659233E-06   5.61967691E-01   6.97120309E-05   1.23021231E-02   1.02517693E-10   4.89890728E-01   2.68067756E-02   1.84531847E-04   4.10070770E-04   1.74280077E-06   3.99819001E-05   3.83227583E-03
   1.27750000E+03   5.00000000E-01   5.00000000E-01  -2.26853967E-03   2.52466265E-10   4.87560875E-03   3.14429290E-02   2.46103982E-02   8.22743163E-04   6.32848718E-13   2.05288789E-07   9.23799552E-06   5.62662230E-01   6.97981884E-05   1.23173274E-02   1.02644395E-10   4.90616521E-01   2.58303938E-02   1.84759910E-04   4.10577579E-04   1.74495471E-06   4.00313139E-05   3.95751989E-03
   1.31250000E+03   5.00000000E-01   5.00000000E-01  -2.16354255E-03   2.80678865E-10   4.88175099E-03   3.08900711E-02   2.41132349E-02   8.45270564E-04   6.60877850E-13   2.05547410E-07   9.24963346E-06   5.63371066E-01   6.98861194E-05   1.23328446E-02   1.02773706E-10   4.91355530E-01   2.48781840E-02   1.84992669E-04   4.11094820E-04   1.74715299E-06   4.00817450E-05   4.08570236E-03
   1.34750000E+03   5.00000000E-01   5.00000000E-01  -2.05991649E-03   3.11825791E-10   4.88801678E-03   3.03371104E-02   2.36410307E-02   8.67816239E-04   6.87630087E-13   2.05811233E-07   9.26150548E-06   5.64094160E-01   6.99758192E-05   1.23486740E-02   1.02905618E-10   4.92107680E-01   2.39497597E-02   1.85230110E-04   4.11622466E-04   1.74939548E-06   4.01331904E-05   4.21685176E-03
   1.38250000E+03   5.00000000E-01   5.00000000E-01  -1.95803863E-03   3.46187264E-10   4.89440585E-03   2.97842177E-02   2.31934315E-02   8.90380825E-04   7.12831273E-13   2.06080246E-07   9.27361108E-06   5.64831481E-01   7.00672837E-05   1.23648148E-02   1.03040125E-10   4.92872905E-01   2.30447324E-02   1.85472222E-04   4.12160492E-04   1.75168209E-06   4.01856480E-05   4.35098974E-03
   1.41750000E+03   5.00000000E-01   5.00000000E-01  -1.85825601E-03   3.84066451E-10   4.90091798E-03   2.92315479E-02   2.27700860E-02   9.12965060E-04   7.36211639E-13   2.06354441E-07   9.28594986E-06   5.65583004E-01   7.01605100E-05   1.23812665E-02   1.03177224E-10   4.93651150E-01   2.21627166E-02   1.85718997E-04   4.12708883E-04   1.75401275E-06   4.02391160E-05   4.48813075E-03
   1.45250000E+03   5.00000000E-01   5.00000000E-01  -1.76088156E-03   4.25790881E-10   4.90755305E-03   2.86792378E-02   2.23706503E-02   9.35569783E-04   7.57509676E-13   2.06633813E-07   9.29852156E-06   5.66348713E-01   7.02554963E-05   1.23980288E-02   1.03316910E-10   4.94442369E-01   2.13033341E-02   1.85970431E-04   4.13267625E-04   1.75638741E-06   4.02935934E-05   4.62828177E-03
   1.48750000E+03   5.00000000E-01   5.00000000E-01  -1.66619111E-03   4.71713946E-10   4.91431098E-03   2.81274043E-02   2.19947921E-02   9.58195931E-04   7.76475992E-13   2.06918357E-07   9.31132606E-06   5.67128602E-01   7.03522413E-05   1.24151014E-02   1.03459184E-10   4.95246524E-01   2.04662181E-02   1.86226521E-04   4.13836714E-04   1.75880603E-06   4.03490796E-05   4.77144224E-03
   1.52250000E+03   5.00000000E-01   5.00000000E-01  -1.57442149E-03   5.22216514E-10   4.92119175E-03   2.75761434E-02   2.16421928E-02   9.80844541E-04   7.92877113E-13   2.07208074E-07   9.32436332E-06   5.67922667E-01   7.04507451E-05   1.24324844E-02   1.03604044E-10   4.96063589E-01   1.96510161E-02   1.86487266E-04   4.14416148E-04   1.76126863E-06   4.04055744E-05   4.91760428E-03
   1.55750000E+03   5.00000000E-01   5.00000000E-01  -1.48576960E-03   5.77708656E-10   4.92819542E-03   2.70255295E-02   2.13125512E-02   1.00351674E-03   8.06499215E-13   2.07502965E-07   9.33763343E-06   5.68730915E-01   7.05510081E-05   1.24501779E-02   1.03751493E-10   4.96893547E-01   1.88573925E-02   1.86752669E-04   4.15005930E-04   1.76377520E-06   4.04630782E-05   5.06675291E-03
   1.59250000E+03   5.00000000E-01   5.00000000E-01  -1.40039257E-03   6.38631514E-10   4.93532209E-03   2.64756159E-02   2.10055844E-02   1.02621375E-03   8.17151746E-13   2.07803035E-07   9.35113659E-06   5.69553357E-01   7.06530320E-05   1.24681821E-02   1.03901531E-10   4.97736387E-01   1.80850301E-02   1.87022732E-04   4.15606071E-04   1.76632580E-06   4.05215919E-05   5.21886649E-03
   1.62750000E+03   5.00000000E-01   5.00000000E-01  -1.31840877E-03   7.05459325E-10   4.94257190E-03   2.59264345E-02   2.07210301E-02   1.04893686E-03   8.24670904E-13   2.08108291E-07   9.36487308E-06   5.70390011E-01   7.07568188E-05   1.24864974E-02   1.04054163E-10   4.98592111E-01   1.73336320E-02   1.87297462E-04   4.16216581E-04   1.76892047E-06   4.05811167E-05   5.37391727E-03
   1.66250000E+03   5.00000000E-01   5.00000000E-01  -1.23989951E-03   7.78701604E-10   4.94994507E-03   2.53779977E-02   2.04586470E-02   1.07168745E-03   8.28922933E-13   2.08418740E-07   9.37884330E-06   5.71240901E-01   7.08623716E-05   1.25051244E-02   1.04209392E-10   4.99460727E-01   1.66029226E-02   1.87576866E-04   4.16837480E-04   1.77155929E-06   4.06416543E-05   5.53187194E-03
   1.69750000E+03   5.00000000E-01   5.00000000E-01  -1.16491151E-03   8.58905505E-10   4.95744186E-03   2.48302988E-02   2.02182153E-02   1.09446693E-03   8.29807173E-13   2.08734394E-07   9.39304773E-06   5.72106056E-01   7.09696940E-05   1.25240636E-02   1.04367226E-10   5.00342252E-01   1.58926473E-02   1.87860955E-04   4.17468788E-04   1.77424235E-06   4.07032068E-05   5.69269220E-03
   1.73250000E+03   5.00000000E-01   5.00000000E-01  -1.09345969E-03   9.46658382E-10   4.96506256E-03   2.42833143E-02   1.99995369E-02   1.11727679E-03   8.27258792E-13   2.09055266E-07   9.40748695E-06   5.72985511E-01   7.10787903E-05   1.25433159E-02   1.04527670E-10   5.01236708E-01   1.52025733E-02   1.88149739E-04   4.18110531E-04   1.77696976E-06   4.07657768E-05   5.85633542E-03
   1.76750000E+03   5.00000000E-01   5.00000000E-01  -1.02553042E-03   1.04259054E-09   4.97280752E-03   2.37370052E-02   1.98024346E-02   1.14011854E-03   8.21251111E-13   2.09381369E-07   9.42216162E-06   5.73879307E-01   7.11896656E-05   1.25628822E-02   1.04690733E-10   5.02144128E-01   1.45324884E-02   1.88443232E-04   4.18762739E-04   1.77974164E-06   4.08293670E-05   6.02275514E-03
   1.80250000E+03   5.00000000E-01   5.00000000E-01  -9.61084824E-04   1.14737824E-09   4.98067715E-03   2.31913190E-02   1.96267514E-02   1.16299369E-03   8.11797430E-13   2.09712722E-07   9.43707249E-06   5.74787489E-01   7.13023255E-05   1.25827633E-02   1.04856422E-10   5.03064548E-01   1.38822004E-02   1.88741450E-04   4.19425444E-04   1.78255814E-06   4.08939808E-05   6.19190158E-03
   1.83750000E+03   5.00000000E-01   5.00000000E-01  -9.00062286E-04   1.26174684E-09   4.98867187E-03   2.26461917E-02   1.94723488E-02   1.18590376E-03   7.98952246E-13   2.10049342E-07   9.45222038E-06   5.75710108E-01   7.14167762E-05   1.26029605E-02   1.05024748E-10   5.03998011E-01   1.32515354E-02   1.89044408E-04   4.20098684E-04   1.78541941E-06   4.09596217E-05   6.36372205E-03
   1.87250000E+03   5.00000000E-01   5.00000000E-01  -8.42383798E-04   1.38647434E-09   4.99679217E-03   2.21015496E-02   1.93391049E-02   1.20885023E-03   7.82811776E-13   2.10391249E-07   9.46760621E-06   5.76647219E-01   7.15330247E-05   1.26234750E-02   1.05195722E-10   5.04944566E-01   1.26403360E-02   1.89352124E-04   4.20782498E-04   1.78832562E-06   4.10262936E-05   6.53816130E-03
   1.90750000E+03   5.00000000E-01   5.00000000E-01  -7.87955249E-04   1.52239505E-09   5.00503857E-03   2.15573109E-02   1.92269120E-02   1.23183453E-03   7.63513670E-13   2.10738466E-07   9.48323097E-06   5.77598882E-01   7.16510784E-05   1.26443080E-02   1.05369356E-10   5.05904267E-01   1.20484587E-02   1.89664619E-04   4.21476932E-04   1.79127696E-06   4.10940009E-05   6.71516176E-03
   1.94250000E+03   5.00000000E-01   5.00000000E-01  -7.36670502E-04   1.67040363E-09   5.01341163E-03   2.10133881E-02   1.91356739E-02   1.25485798E-03   7.41235862E-13   2.11091016E-07   9.49909572E-06   5.78565162E-01   7.17709454E-05   1.26654610E-02   1.05545661E-10   5.06877171E-01   1.14757711E-02   1.89981914E-04   4.22182032E-04   1.79427364E-06   4.11627481E-05   6.89466365E-03
   1.97750000E+03   5.00000000E-01   5.00000000E-01  -6.88414235E-04   1.83145947E-09   5.02191195E-03   2.04696889E-02   1.90653025E-02   1.27792179E-03   7.16194511E-13   2.11448924E-07   9.51520159E-06   5.79546129E-01   7.18926342E-05   1.26869355E-02   1.05724653E-10   5.07863340E-01   1.09221487E-02   1.90304032E-04   4.22897849E-04   1.79731586E-06   4.12325402E-05   7.07660505E-03
   2.01250000E+03   5.00000000E-01   5.00000000E-01  -6.43064509E-04   2.00659144E-09   5.03054018E-03   1.99261180E-02   1.90157141E-02   1.30102700E-03   6.88640997E-13   2.11812218E-07   9.53154981E-06   5.80541856E-01   7.20161541E-05   1.27087331E-02   1.05906345E-10   5.08862840E-01   1.03874712E-02   1.90630996E-04   4.23624436E-04   1.80040385E-06   4.13033825E-05   7.26092184E-03
   2.04750000E+03   5.00000000E-01   5.00000000E-01  -6.00495068E-04   2.19690300E-09   5.03929698E-03   1.93825786E-02   1.89868257E-02   1.32417444E-03   6.58858021E-13   2.12180926E-07   9.54814165E-06   5.81552422E-01   7.21415147E-05   1.27308555E-02   1.06090754E-10   5.09875738E-01   9.87161855E-03   1.90962833E-04   4.24361851E-04   1.80353787E-06   4.13752805E-05   7.44754758E-03
   2.08250000E+03   5.00000000E-01   5.00000000E-01  -5.60577341E-04   2.40357796E-09   5.04818308E-03   1.88389733E-02   1.89785506E-02   1.34736467E-03   6.27154860E-13   2.12555077E-07   9.56497848E-06   5.82577909E-01   7.22687263E-05   1.27533046E-02   1.06277896E-10   5.10902107E-01   9.37446686E-03   1.91299570E-04   4.25110154E-04   1.80671816E-06   4.14482401E-05   7.63641325E-03
   2.11750000E+03   5.00000000E-01   5.00000000E-01  -5.23182181E-04   2.62788663E-09   5.05719923E-03   1.82952054E-02   1.89907944E-02   1.37059791E-03   5.93861881E-13   2.12934705E-07   9.58206170E-06   5.83618404E-01   7.23977995E-05   1.27760823E-02   1.06467790E-10   5.11942019E-01   8.89588395E-03   1.91641234E-04   4.25869409E-04   1.80994499E-06   4.15222674E-05   7.82744695E-03
   2.15250000E+03   5.00000000E-01   5.00000000E-01  -4.88181336E-04   2.87119282E-09   5.06634622E-03   1.77511795E-02   1.90234503E-02   1.39387403E-03   5.59324481E-13   2.13319841E-07   9.59939283E-06   5.84673998E-01   7.25287458E-05   1.27991904E-02   1.06660454E-10   5.12995550E-01   8.43572504E-03   1.91987857E-04   4.26639681E-04   1.81321865E-06   4.15973689E-05   8.02057352E-03
   2.18750000E+03   5.00000000E-01   5.00000000E-01  -4.55448678E-04   3.13496154E-09   5.07562486E-03   1.72068027E-02   1.90763951E-02   1.41719238E-03   5.23896604E-13   2.13710520E-07   9.61697342E-06   5.85744786E-01   7.26615769E-05   1.28226312E-02   1.06855909E-10   5.14062777E-01   7.99382852E-03   1.92339468E-04   4.27421041E-04   1.81653942E-06   4.16735515E-05   8.21571402E-03
   2.22250000E+03   5.00000000E-01   5.00000000E-01  -4.24861216E-04   3.42076775E-09   5.08503602E-03   1.66619852E-02   1.91494849E-02   1.44055177E-03   4.87934066E-13   2.14106780E-07   9.63480509E-06   5.86830866E-01   7.27963051E-05   1.28464068E-02   1.07054175E-10   5.15143780E-01   7.57001187E-03   1.92696102E-04   4.28213560E-04   1.81990763E-06   4.17508221E-05   8.41278523E-03
   2.25750000E+03   5.00000000E-01   5.00000000E-01  -3.96299917E-04   3.73030621E-09   5.09458059E-03   1.61166409E-02   1.92425520E-02   1.46395035E-03   4.51787903E-13   2.14508657E-07   9.65288954E-06   5.87932343E-01   7.29329432E-05   1.28705194E-02   1.07255275E-10   5.16238636E-01   7.16406802E-03   1.93057791E-04   4.29017313E-04   1.82332358E-06   4.18291880E-05   8.61169891E-03
   2.29250000E+03   5.00000000E-01   5.00000000E-01  -3.69650353E-04   4.06540289E-09   5.10425951E-03   1.55706879E-02   1.93554009E-02   1.48738548E-03   4.15797959E-13   2.14916190E-07   9.67122854E-06   5.89049324E-01   7.30715045E-05   1.28949714E-02   1.07459233E-10   5.17347428E-01   6.77576213E-03   1.93424571E-04   4.29832380E-04   1.82678761E-06   4.19086570E-05   8.81236110E-03
   2.32750000E+03   5.00000000E-01   5.00000000E-01  -3.44803211E-04   4.42802804E-09   5.11407373E-03   1.50240493E-02   1.94878067E-02   1.51085357E-03   3.80286938E-13   2.15329420E-07   9.68982390E-06   5.90181919E-01   7.32120028E-05   1.29197652E-02   1.07666074E-10   5.18470234E-01   6.40482902E-03   1.93796478E-04   4.30658840E-04   1.83030007E-06   4.19892369E-05   9.01467120E-03
   2.36250000E+03   5.00000000E-01   5.00000000E-01  -3.21654681E-04   4.82031159E-09   5.12402425E-03   1.44766536E-02   1.96395123E-02   1.53434993E-03   3.45555103E-13   2.15748389E-07   9.70867753E-06   5.91330244E-01   7.33544524E-05   1.29449034E-02   1.07875825E-10   5.19607136E-01   6.05097140E-03   1.94173551E-04   4.31496779E-04   1.83386131E-06   4.20709359E-05   9.21852098E-03
   2.39750000E+03   5.00000000E-01   5.00000000E-01  -3.00106749E-04   5.24456126E-09   5.13411211E-03   1.39284351E-02   1.98102282E-02   1.55786853E-03   3.11875777E-13   2.16173141E-07   9.72779137E-06   5.92494418E-01   7.34988681E-05   1.29703885E-02   1.08088512E-10   5.20758214E-01   5.71385873E-03   1.94555827E-04   4.32346283E-04   1.83747170E-06   4.21537626E-05   9.42379338E-03
   2.43250000E+03   5.00000000E-01   5.00000000E-01  -2.80067424E-04   5.70328424E-09   5.14433837E-03   1.33793348E-02   1.99996318E-02   1.58140177E-03   2.79491770E-13   2.16603721E-07   9.74716744E-06   5.93674565E-01   7.36452651E-05   1.29962233E-02   1.08304166E-10   5.21923547E-01   5.39312711E-03   1.94943349E-04   4.33207442E-04   1.84113163E-06   4.22377256E-05   9.63036114E-03
   2.46750000E+03   5.00000000E-01   5.00000000E-01  -2.61450913E-04   6.19921336E-09   5.15470414E-03   1.28293009E-02   2.02073683E-02   1.60494013E-03   2.48612774E-13   2.17040174E-07   9.76680784E-06   5.94870810E-01   7.37936593E-05   1.30224105E-02   1.08522817E-10   5.23103212E-01   5.08837990E-03   1.95336157E-04   4.34080349E-04   1.84484148E-06   4.23228340E-05   9.83808521E-03
   2.50250000E+03   5.00000000E-01   5.00000000E-01  -2.44177765E-04   6.73533919E-09   5.16521055E-03   1.22782894E-02   2.04330522E-02   1.62847176E-03   2.19413764E-13   2.17482549E-07   9.78671472E-06   5.96083286E-01   7.39440668E-05   1.30489530E-02   1.08744498E-10   5.24297284E-01   4.79918923E-03   1.95734294E-04   4.34965099E-04   1.84860167E-06   4.24090971E-05   1.00468128E-02
   2.53750000E+03   5.00000000E-01   5.00000000E-01  -2.28175015E-04   7.31494967E-09   5.17585876E-03   1.17262658E-02   2.06762693E-02   1.65198199E-03   1.92034352E-13   2.17930895E-07   9.80689028E-06   5.97312127E-01   7.40965044E-05   1.30758537E-02   1.08969244E-10   5.25505837E-01   4.52509824E-03   1.96137806E-04   4.35861790E-04   1.85241261E-06   4.24965246E-05   1.02563752E-02
   2.57250000E+03   5.00000000E-01   5.00000000E-01  -2.13376351E-04   7.94167993E-09   5.18664999E-03   1.11732052E-02   2.09365801E-02   1.67545263E-03   1.66579037E-13   2.18385263E-07   9.82733682E-06   5.98557472E-01   7.42509893E-05   1.31031158E-02   1.09197090E-10   5.26728938E-01   4.26562399E-03   1.96546736E-04   4.36770525E-04   1.85627473E-06   4.25851262E-05   1.04665848E-02
   2.60750000E+03   5.00000000E-01   5.00000000E-01  -1.99722319E-04   8.61957562E-09   5.19758547E-03   1.06190950E-02   2.12135228E-02   1.69886113E-03   1.43118227E-13   2.18845704E-07   9.84805668E-06   5.99819465E-01   7.44075393E-05   1.31307422E-02   1.09428075E-10   5.27966652E-01   4.02026092E-03   1.96961134E-04   4.37691408E-04   1.86018848E-06   4.26749123E-05   1.06772322E-02