 TITLE = "Total Concentrations" 
VARIABLES = "X"          "Y"              "Z"            "H+"             "Al+++"          "CO2(aq)"        "Mg++"           "Ca++"           "Fe++"           "Fe+++"          "Ba++"           "Sr++"           "Li+"            "Rb+"            "Mn++"           "Zn++"           "Cu++"           "Cu+"            "Cl-"            "F-"             "K+"             "HS-"            "Na+"            "SO4--"          "O2(aq)"         "B(OH)3(aq)"     "HPO4--"         "NO3-"           "H4SiO4(aq)"     "Ti(OH)4(aq)"   
 ZONE I=         200 , J=           1 , K=           1  F=POINT
   8.75000000E+00   5.00000000E-01   5.00000000E-01  -4.69542628E-03   4.84731861E-13   4.74997155E-03   5.08002033E-02   1.05984731E-02   5.29908856E-05   1.30830347E-22   1.19181975E-07   8.99994824E-06   2.45998526E-05   1.39999161E-06   5.82448582E-06   3.88233771E-07   1.42214624E-09   1.21807504E-09   5.48189429E-01   6.79996184E-05   1.19999281E-02   1.16878758E-25   4.74034827E-01   2.79997515E-02   1.79996989E-08   3.99997604E-04   1.69998982E-06   3.89997664E-05   4.28757936E-04   2.09527629E-09
   2.62500000E+01   5.00000000E-01   5.00000000E-01  -4.61602144E-03   1.87822600E-12   4.74999810E-03   5.04873959E-02   1.07971201E-02   1.05947407E-04   5.91856340E-22   8.92352998E-08   9.00000071E-06   2.45999902E-05   1.39999944E-06   1.16433012E-05   7.00496544E-07   1.42430895E-09   1.21616402E-09   5.48192494E-01   6.80000246E-05   1.19999952E-02   1.38333314E-26   4.74068879E-01   2.79998781E-02   1.79996063E-08   3.99999840E-04   1.69999932E-06   3.89999844E-05   6.52049655E-04   2.10118374E-09
   4.37500000E+01   5.00000000E-01   5.00000000E-01  -4.56531839E-03   3.18640359E-12   4.75018787E-03   5.01940952E-02   1.09961880E-02   1.58877361E-04   1.24845903E-21   7.92408309E-08   9.00036241E-06   2.46009730E-05   1.40005537E-06   1.74642723E-05   1.01280026E-06   1.42652070E-09   1.21429454E-09   5.48214394E-01   6.80027676E-05   1.20004746E-02   3.15619863E-26   4.74112176E-01   2.80009867E-02   1.80001320E-08   4.00015821E-04   1.70006724E-06   3.90015425E-05   8.65024018E-04   2.10639432E-09
   6.12500000E+01   5.00000000E-01   5.00000000E-01  -4.52726129E-03   4.25734157E-12   4.75053372E-03   4.99141301E-02   1.11956766E-02   2.11770851E-04   1.99894123E-21   7.76692482E-08   9.00101986E-06   2.46027641E-05   1.40015731E-06   2.32879225E-05   1.32516982E-06   1.42877956E-09   1.21246459E-09   5.48254309E-01   6.80077454E-05   1.20013483E-02   6.43805694E-26   4.74160136E-01   2.80030238E-02   1.80012492E-08   4.00044945E-04   1.70019102E-06   3.90043821E-05   1.04780383E-03   2.11073402E-09
   7.87500000E+01   5.00000000E-01   5.00000000E-01  -4.49384911E-03   5.35068062E-12   4.75102913E-03   4.96438847E-02   1.13955936E-02   2.64625733E-04   2.85997808E-21   7.99131021E-08   9.00196068E-06   2.46053298E-05   1.40030332E-06   2.91147682E-05   1.63763233E-06   1.43108379E-09   1.21067232E-09   5.48311483E-01   6.80148645E-05   1.20025999E-02   1.24965082E-25   4.74211163E-01   2.80059463E-02   1.80029331E-08   4.00086663E-04   1.70036832E-06   3.90084497E-05   1.19373604E-03   2.11424904E-09
   9.62500000E+01   5.00000000E-01   5.00000000E-01  -4.46301531E-03   6.52092664E-12   4.75166807E-03   4.93815046E-02   1.15959480E-02   3.17440419E-04   3.82757592E-21   8.40327804E-08   9.00317345E-06   2.46086388E-05   1.40049164E-06   3.49453219E-05   1.95021390E-06   1.43343176E-09   1.20891602E-09   5.48385222E-01   6.80240386E-05   1.20042140E-02   2.34921784E-25   4.74266131E-01   2.80097168E-02   1.80051608E-08   4.00140469E-04   1.70059699E-06   3.90136957E-05   1.30677204E-03   2.11701230E-09
   1.13750000E+02   5.00000000E-01   5.00000000E-01  -4.43411141E-03   7.72946881E-12   4.75244499E-03   4.91252301E-02   1.17967480E-02   3.70210663E-04   4.88297299E-21   8.91752628E-08   9.00464767E-06   2.46126625E-05   1.40072063E-06   4.07800919E-05   2.26293924E-06   1.43582201E-09   1.20719409E-09   5.48474886E-01   6.80351884E-05   1.20061768E-02   4.30847098E-25   4.74327213E-01   2.80143017E-02   1.80079112E-08   4.00205894E-04   1.70087505E-06   3.90200747E-05   1.39559804E-03   2.11909411E-09
   1.31250000E+02   5.00000000E-01   5.00000000E-01  -4.40641386E-03   8.94687374E-12   4.75335479E-03   4.88732643E-02   1.19980003E-02   4.22929949E-04   6.02181210E-21   9.49504023E-08   9.00637365E-06   2.46173743E-05   1.40098878E-06   4.66195815E-05   2.57583197E-06   1.43825316E-09   1.20550507E-09   5.48579885E-01   6.80482406E-05   1.20084752E-02   7.75229240E-25   4.74396638E-01   2.80196704E-02   1.80111651E-08   4.00282508E-04   1.70120066E-06   3.90275446E-05   1.46892099E-03   2.12056592E-09
   1.48750000E+02   5.00000000E-01   5.00000000E-01  -4.37917423E-03   1.01643607E-11   4.75439272E-03   4.86240973E-02   1.21997106E-02   4.75590342E-04   7.25563168E-21   1.01173107E-07   9.00834243E-06   2.46227497E-05   1.40129470E-06   5.24642873E-05   2.88891473E-06   1.44072397E-09   1.20384760E-09   5.48699672E-01   6.80631275E-05   1.20110973E-02   1.37456795E-24   4.74476092E-01   2.80257950E-02   1.80149044E-08   4.00369914E-04   1.70157213E-06   3.90360666E-05   1.53351560E-03   2.12150294E-09
   1.66250000E+02   5.00000000E-01   5.00000000E-01  -4.35176035E-03   1.13854297E-11   4.75555443E-03   4.83766189E-02   1.24018840E-02   5.28183040E-04   8.60521142E-21   1.07752378E-07   9.01054572E-06   2.46287661E-05   1.40163710E-06   5.83146969E-05   3.20220932E-06   1.44323328E-09   1.20222041E-09   5.48833744E-01   6.80797864E-05   1.20140322E-02   2.40943136E-24   4.74566624E-01   2.80326495E-02   1.80191126E-08   4.00467742E-04   1.70198790E-06   3.90456048E-05   1.59400228E-03   2.12198425E-09
   1.83750000E+02   5.00000000E-01   5.00000000E-01  -4.32368492E-03   1.26195572E-11   4.75683587E-03   4.81300673E-02   1.26045253E-02   5.80698732E-04   1.00958637E-20   1.14641789E-07   9.01297586E-06   2.46354026E-05   1.40201478E-06   6.41712865E-05   3.51573674E-06   1.44578004E-09   1.20062231E-09   5.48981633E-01   6.80981595E-05   1.20172695E-02   4.18431689E-24   4.74668774E-01   2.80402100E-02   1.80237743E-08   4.00575652E-04   1.70244652E-06   3.90561261E-05   1.65328107E-03   2.12209193E-09
   2.01250000E+02   5.00000000E-01   5.00000000E-01  -4.29458501E-03   1.38786983E-11   4.75823327E-03   4.78839367E-02   1.28076390E-02   6.33127822E-04   1.17551946E-20   1.21816618E-07   9.01562574E-06   2.46426397E-05   1.40242665E-06   7.00345190E-05   3.82951729E-06   1.44836326E-09   1.19905221E-09   5.49142906E-01   6.81181930E-05   1.20207998E-02   7.21002467E-24   4.74782733E-01   2.80484545E-02   1.80288753E-08   4.00693328E-04   1.70294664E-06   3.90675995E-05   1.71306383E-03   2.12191000E-09
   2.18750000E+02   5.00000000E-01   5.00000000E-01  -4.26419202E-03   1.51754188E-11   4.75974317E-03   4.76378930E-02   1.30112295E-02   6.85460596E-04   1.36123111E-20   1.29262972E-07   9.01848876E-06   2.46504593E-05   1.40287167E-06   7.59048426E-05   4.14357057E-06   1.45098204E-09   1.19750909E-09   5.49317162E-01   6.81398371E-05   1.20246142E-02   1.23390822E-23   4.74908475E-01   2.80573623E-02   1.80344023E-08   4.00820477E-04   1.70348703E-06   3.90799965E-05   1.77430572E-03   2.12152334E-09
   2.36250000E+02   5.00000000E-01   5.00000000E-01  -4.23230560E-03   1.65219379E-11   4.76136232E-03   4.73917139E-02   1.32153009E-02   7.37687332E-04   1.56977170E-20   1.36972444E-07   9.02155880E-06   2.46588449E-05   1.40334889E-06   8.17826894E-05   4.45791554E-06   1.45363554E-09   1.19599199E-09   5.49504027E-01   6.81630454E-05   1.20287047E-02   2.09872979E-23   4.75045852E-01   2.80669144E-02   1.80403432E-08   4.00956827E-04   1.70406651E-06   3.90932906E-05   1.83750511E-03   2.12101669E-09
   2.53750000E+02   5.00000000E-01   5.00000000E-01  -4.19877423E-03   1.79296680E-11   4.76308773E-03   4.71452474E-02   1.34198576E-02   7.89798367E-04   1.80434779E-20   1.44939440E-07   9.02483016E-06   2.46677806E-05   1.40385744E-06   8.76684747E-05   4.77257058E-06   1.45632300E-09   1.19450001E-09   5.49703154E-01   6.81877750E-05   1.20330636E-02   3.54944548E-23   4.75194651E-01   2.80770932E-02   1.80466866E-08   4.01102124E-04   1.70468403E-06   3.91074571E-05   1.90289658E-03   2.12047380E-09
   2.71250000E+02   5.00000000E-01   5.00000000E-01  -4.16348166E-03   1.94090229E-11   4.76491659E-03   4.68983862E-02   1.36249039E-02   8.41784136E-04   2.06834589E-20   1.53159784E-07   9.02829756E-06   2.46772523E-05   1.40439647E-06   9.35625965E-05   5.08755351E-06   1.45904371E-09   1.19303232E-09   5.49914222E-01   6.82139859E-05   1.20376839E-02   5.97086991E-23   4.75354633E-01   2.80878820E-02   1.80534217E-08   4.01256134E-04   1.70533857E-06   3.91224731E-05   1.97056994E-03   2.11997667E-09
   2.88750000E+02   5.00000000E-01   5.00000000E-01  -4.12633798E-03   2.09693631E-11   4.76684632E-03   4.66510511E-02   1.38304442E-02   8.93635172E-04   2.36535558E-20   1.61630003E-07   9.03195606E-06   2.46872462E-05   1.40496523E-06   9.94654361E-05   5.40288164E-06   1.46179701E-09   1.19158815E-09   5.50136930E-01   6.82416408E-05   1.20425590E-02   9.99288274E-23   4.75525551E-01   2.80992656E-02   1.80605388E-08   4.01418638E-04   1.70602921E-06   3.91383172E-05   2.04054136E-03   2.11960491E-09
   3.06250000E+02   5.00000000E-01   5.00000000E-01  -4.08727362E-03   2.26190144E-11   4.76887449E-03   4.64031815E-02   1.40364829E-02   9.45342086E-04   2.69918935E-20   1.70346927E-07   9.03580107E-06   2.46977500E-05   1.40556301E-06   1.05377358E-04   5.71857183E-06   1.46458229E-09   1.19016675E-09   5.50370998E-01   6.82707051E-05   1.20476828E-02   1.66416491E-22   4.75707163E-01   2.81112298E-02   1.80680287E-08   4.01589430E-04   1.70675508E-06   3.91549695E-05   2.11279485E-03   2.11943521E-09
   3.23750000E+02   5.00000000E-01   5.00000000E-01  -4.04623551E-03   2.43653331E-11   4.77099883E-03   4.61547293E-02   1.42430247E-02   9.96895528E-04   3.07389988E-20   1.79307487E-07   9.03982833E-06   2.47087519E-05   1.40618913E-06   1.11298710E-04   6.03464046E-06   1.46739899E-09   1.18876745E-09   5.50616167E-01   6.83011464E-05   1.20530496E-02   2.75811724E-22   4.75899240E-01   2.81237611E-02   1.80758828E-08   4.01768323E-04   1.70751537E-06   3.91724115E-05   2.18730557E-03   2.11954093E-09
   3.41250000E+02   5.00000000E-01   5.00000000E-01  -4.00318438E-03   2.62148174E-11   4.77321726E-03   4.59056554E-02   1.44500745E-02   1.04828614E-03   3.49379691E-20   1.88508596E-07   9.04403384E-06   2.47202410E-05   1.40684298E-06   1.17229826E-04   6.35110353E-06   1.47024659E-09   1.18738959E-09   5.50872193E-01   6.83329346E-05   1.20586540E-02   4.54973809E-22   4.76101568E-01   2.81368472E-02   1.80840931E-08   4.01955138E-04   1.70830933E-06   3.91906259E-05   2.26405203E-03   2.11999179E-09
   3.58750000E+02   5.00000000E-01   5.00000000E-01  -3.95809282E-03   2.81732720E-11   4.77552780E-03   4.56559280E-02   1.46576371E-02   1.09950449E-03   3.96346667E-20   1.97947094E-07   9.04841389E-06   2.47322071E-05   1.40752398E-06   1.23171024E-04   6.66797667E-06   1.47312462E-09   1.18603258E-09   5.51138850E-01   6.83660416E-05   1.20644912E-02   7.47061327E-22   4.76313945E-01   2.81504766E-02   1.80926522E-08   4.02149709E-04   1.70913626E-06   3.92095967E-05   2.34302146E-03   2.12085359E-09
   3.76250000E+02   5.00000000E-01   5.00000000E-01  -3.91094383E-03   3.02460219E-11   4.77792862E-03   4.54055211E-02   1.48657176E-02   1.15054106E-03   4.48779599E-20   2.07619707E-07   9.05296501E-06   2.47446409E-05   1.40823159E-06   1.29122610E-04   6.98527515E-06   1.47603265E-09   1.18469585E-09   5.51415927E-01   6.84004413E-05   1.20705564E-02   1.22111510E-21   4.76536187E-01   2.81646384E-02   1.81015532E-08   4.02351884E-04   1.70999551E-06   3.92293087E-05   2.42421111E-03   2.12218811E-09
   3.93750000E+02   5.00000000E-01   5.00000000E-01  -3.86172969E-03   3.24381463E-11   4.78041802E-03   4.51544139E-02   1.50743214E-02   1.20138618E-03   5.07200077E-20   2.17523042E-07   9.05768396E-06   2.47575333E-05   1.40896531E-06   1.35084877E-04   7.30301392E-06   1.47897025E-09   1.18337887E-09   5.51703226E-01   6.84361090E-05   1.20768454E-02   1.98709803E-21   4.76768123E-01   2.81793226E-02   1.81107894E-08   4.02561517E-04   1.71088645E-06   3.92497480E-05   2.50762734E-03   2.12405298E-09
   4.11250000E+02   5.00000000E-01   5.00000000E-01  -3.81045148E-03   3.47546766E-11   4.78299440E-03   4.49025912E-02   1.52834537E-02   1.25203008E-03   5.72165490E-20   2.27653572E-07   9.06256771E-06   2.47708762E-05   1.40972466E-06   1.41058107E-04   7.62120765E-06   1.48193706E-09   1.18208113E-09   5.52000563E-01   6.84730221E-05   1.20833541E-02   3.21940054E-21   4.77009593E-01   2.81945197E-02   1.81203550E-08   4.02778476E-04   1.71180852E-06   3.92709014E-05   2.59328391E-03   2.12650168E-09
   4.28750000E+02   5.00000000E-01   5.00000000E-01  -3.75711916E-03   3.72007023E-11   4.78565626E-03   4.46500431E-02   1.54931201E-02   1.30246282E-03   6.44271351E-20   2.38007642E-07   9.06761345E-06   2.47846619E-05   1.41050921E-06   1.47042572E-04   7.93987075E-06   1.48493273E-09   1.18080216E-09   5.52307766E-01   6.85111591E-05   1.20900789E-02   5.19342410E-21   4.77260450E-01   2.82102209E-02   1.81302442E-08   4.03002633E-04   1.71276119E-06   3.92927567E-05   2.68120068E-03   2.12958353E-09
   4.46250000E+02   5.00000000E-01   5.00000000E-01  -3.70175235E-03   3.97813602E-11   4.78840223E-03   4.43967656E-02   1.57033261E-02   1.35267434E-03   7.24152595E-20   2.48581469E-07   9.07281853E-06   2.47988831E-05   1.41131855E-06   1.53038535E-04   8.25901738E-06   1.48795695E-09   1.17954151E-09   5.52624675E-01   6.85505001E-05   1.20970160E-02   8.34228337E-21   4.77520557E-01   2.82264181E-02   1.81404518E-08   4.03233872E-04   1.71374396E-06   3.93153025E-05   2.77140289E-03   2.13334377E-09
   4.63750000E+02   5.00000000E-01   5.00000000E-01  -3.64438121E-03   4.25017360E-11   4.79123099E-03   4.41427610E-02   1.59140775E-02   1.40265445E-03   8.12483820E-20   2.59371143E-07   9.07818049E-06   2.48135331E-05   1.41215229E-06   1.59046251E-04   8.57866147E-06   1.49100943E-09   1.17829877E-09   5.52951140E-01   6.85910266E-05   1.21041624E-02   1.33443300E-20   4.77789784E-01   2.82431036E-02   1.81509728E-08   4.03472084E-04   1.71475636E-06   3.93385282E-05   2.86392140E-03   2.13782361E-09
   4.81250000E+02   5.00000000E-01   5.00000000E-01  -3.58504733E-03   4.53667478E-11   4.79414134E-03   4.38880384E-02   1.61253800E-02   1.45239281E-03   9.09979051E-20   2.70372637E-07   9.08369705E-06   2.48286057E-05   1.41301008E-06   1.65065968E-04   8.89881676E-06   1.49408991E-09   1.17707354E-09   5.53287020E-01   6.86327211E-05   1.21115148E-02   2.12577055E-20   4.78068014E-01   2.82602702E-02   1.81618026E-08   4.03717166E-04   1.71579795E-06   3.93624237E-05   2.95879298E-03   2.14306035E-09
   4.98750000E+02   5.00000000E-01   5.00000000E-01  -3.52380407E-03   4.83810924E-11   4.79713214E-03   4.36326137E-02   1.63372395E-02   1.50187893E-03   1.01739195E-19   2.81581811E-07   9.08936604E-06   2.48440949E-05   1.41389158E-06   1.71097928E-04   9.21949680E-06   1.49719813E-09   1.17586544E-09   5.53632186E-01   6.86755674E-05   1.21190705E-02   3.37263781E-20   4.78355135E-01   2.82779113E-02   1.81729369E-08   4.03969023E-04   1.71686835E-06   3.93869797E-05   3.05606056E-03   2.14908749E-09
   5.16250000E+02   5.00000000E-01   5.00000000E-01  -3.46071630E-03   5.15493043E-11   4.80020234E-03   4.33765093E-02   1.65496620E-02   1.55110213E-03   1.13551736E-19   2.92994414E-07   9.09518547E-06   2.48599953E-05   1.41479648E-06   1.77142368E-04   9.54071496E-06   1.50033388E-09   1.17467412E-09   5.53986514E-01   6.87195505E-05   1.21268268E-02   5.32944351E-20   4.78651044E-01   2.82960206E-02   1.81843717E-08   4.04227566E-04   1.71796715E-06   3.94121876E-05   3.15577267E-03   2.15593487E-09
   5.33750000E+02   5.00000000E-01   5.00000000E-01  -3.39585963E-03   5.48759252E-11   4.80335095E-03   4.31197542E-02   1.67626536E-02   1.60005161E-03   1.26519447E-19   3.04606093E-07   9.10115347E-06   2.48763017E-05   1.41572449E-06   1.83199520E-04   9.86248449E-06   1.50349696E-09   1.17349925E-09   5.54349892E-01   6.87646561E-05   1.21347812E-02   8.38837284E-20   4.78955645E-01   2.83145923E-02   1.81961033E-08   4.04492711E-04   1.71909402E-06   3.94380394E-05   3.25798237E-03   2.16362883E-09
   5.51250000E+02   5.00000000E-01   5.00000000E-01  -3.32931957E-03   5.83657174E-11   4.80657704E-03   4.28623833E-02   1.69762204E-02   1.64871644E-03   1.40731126E-19   3.16412398E-07   9.10726829E-06   2.48930095E-05   1.41667534E-06   1.89269613E-04   1.01848185E-05   1.50668719E-09   1.17234051E-09   5.54722212E-01   6.88108711E-05   1.21429313E-02   1.31517138E-19   4.79268848E-01   2.83336209E-02   1.82081281E-08   4.04764382E-04   1.72024863E-06   3.94645273E-05   3.36274584E-03   2.17219238E-09
   5.68750000E+02   5.00000000E-01   5.00000000E-01  -3.26119093E-03   6.20238227E-11   4.80987977E-03   4.26044372E-02   1.71903686E-02   1.69708566E-03   1.56280869E-19   3.28408783E-07   9.11352831E-06   2.49101142E-05   1.41764877E-06   1.95352871E-04   1.05077298E-05   1.50990439E-09   1.17119759E-09   5.55103376E-01   6.88581832E-05   1.21512751E-02   2.05409797E-19   4.79590568E-01   2.83531015E-02   1.82204429E-08   4.05042507E-04   1.72143065E-06   3.94916444E-05   3.47012126E-03   2.18164536E-09
   5.86250000E+02   5.00000000E-01   5.00000000E-01  -3.19157766E-03   6.58557709E-11   4.81325833E-03   4.23459622E-02   1.74051043E-02   1.74514830E-03   1.73268310E-19   3.40590614E-07   9.11993202E-06   2.49276115E-05   1.41864456E-06   2.01449519E-04   1.08312315E-05   1.51314844E-09   1.17007022E-09   5.55493292E-01   6.89065810E-05   1.21598104E-02   3.19609495E-19   4.79920727E-01   2.83730293E-02   1.82330447E-08   4.05327017E-04   1.72263982E-06   3.95193842E-05   3.58016841E-03   2.19200462E-09
   6.03750000E+02   5.00000000E-01   5.00000000E-01  -3.12059323E-03   6.98672957E-11   4.81671197E-03   4.20870102E-02   1.76204340E-02   1.79289346E-03   1.91798544E-19   3.52953173E-07   9.12647800E-06   2.49454978E-05   1.41966248E-06   2.07559776E-04   1.11553362E-05   1.51641919E-09   1.16895812E-09   5.55891874E-01   6.89560539E-05   1.21685354E-02   4.95453610E-19   4.80259249E-01   2.83933998E-02   1.82459307E-08   4.05617850E-04   1.72387586E-06   3.95477404E-05   3.69294908E-03   2.20328418E-09
   6.21250000E+02   5.00000000E-01   5.00000000E-01  -3.04836121E-03   7.40639871E-11   4.82024002E-03   4.18276389E-02   1.78363639E-02   1.84031035E-03   2.11981693E-19   3.65491662E-07   9.13316496E-06   2.49637694E-05   1.42070232E-06   2.13683862E-04   1.14800566E-05   1.51971653E-09   1.16786104E-09   5.56299042E-01   6.90065919E-05   1.21774483E-02   7.65235400E-19   4.80606067E-01   2.84142091E-02   1.82590981E-08   4.05914949E-04   1.72513853E-06   3.95767075E-05   3.80852830E-03   2.21549541E-09
   6.38750000E+02   5.00000000E-01   5.00000000E-01  -2.97501553E-03   7.84508748E-11   4.82384182E-03   4.15679116E-02   1.80529005E-02   1.88738819E-03   2.33932210E-19   3.78201211E-07   9.13999166E-06   2.49824229E-05   1.42176391E-06   2.19821996E-04   1.18054053E-05   1.52304036E-09   1.16677873E-09   5.56714723E-01   6.90581859E-05   1.21865476E-02   1.17765474E-18   4.80961114E-01   2.84354534E-02   1.82725446E-08   4.06218259E-04   1.72642760E-06   3.96062802E-05   3.92697578E-03   2.22864717E-09
   6.56250000E+02   5.00000000E-01   5.00000000E-01  -2.90070023E-03   8.30320610E-11   4.82751678E-03   4.13078970E-02   1.82700501E-02   1.93411626E-03   2.57768095E-19   3.91076881E-07   9.14695700E-06   2.50014553E-05   1.42284705E-06   2.25974396E-04   1.21313948E-05   1.52639058E-09   1.16571098E-09   5.57138847E-01   6.91108273E-05   1.21958317E-02   1.80589234E-18   4.81324333E-01   2.84571290E-02   1.82862680E-08   4.06527729E-04   1.72774285E-06   3.96364536E-05   4.04836703E-03   2.24274597E-09
   6.73750000E+02   5.00000000E-01   5.00000000E-01  -2.82556834E-03   8.78105069E-11   4.83126436E-03   4.10476684E-02   1.84878194E-02   1.98048377E-03   2.83610245E-19   4.04113669E-07   9.15405991E-06   2.50208638E-05   1.42395160E-06   2.32141278E-04   1.24580375E-05   1.52976714E-09   1.16465755E-09   5.57571350E-01   6.91645082E-05   1.22052993E-02   2.75952740E-18   4.81695668E-01   2.84792329E-02   1.83002660E-08   4.06843314E-04   1.72908409E-06   3.96672232E-05   4.17278380E-03   2.25779608E-09
   6.91250000E+02   5.00000000E-01   5.00000000E-01  -2.74978000E-03   9.27880218E-11   4.83508403E-03   4.07873029E-02   1.87062149E-02   2.02647986E-03   3.11582089E-19   4.17306517E-07   9.16129944E-06   2.50406457E-05   1.42507740E-06   2.38322861E-04   1.27853460E-05   1.53316995E-09   1.16361824E-09   5.58012175E-01   6.92192214E-05   1.22149490E-02   4.20206719E-18   4.82075070E-01   2.85017619E-02   1.83145369E-08   4.07164971E-04   1.73045113E-06   3.96985847E-05   4.30031366E-03   2.27379976E-09
   7.08750000E+02   5.00000000E-01   5.00000000E-01  -2.67350023E-03   9.79654226E-11   4.83897534E-03   4.05268800E-02   1.89252433E-02   2.07209354E-03   3.41809539E-19   4.30650313E-07   9.16867470E-06   2.50607986E-05   1.42622431E-06   2.44519361E-04   1.31133324E-05   1.53659898E-09   1.16259285E-09   5.58461267E-01   6.92749602E-05   1.22247796E-02   6.37664312E-18   4.82462494E-01   2.85247133E-02   1.83290787E-08   4.07492660E-04   1.73184381E-06   3.97305344E-05   4.43104875E-03   2.29075729E-09
   7.26250000E+02   5.00000000E-01   5.00000000E-01  -2.59689655E-03   1.03342742E-10   4.84293785E-03   4.02664812E-02   1.91449114E-02   2.11731366E-03   3.74421063E-19   4.44139900E-07   9.17618488E-06   2.50813202E-05   1.42739221E-06   2.50730997E-04   1.34420092E-05   1.54005418E-09   1.16158120E-09   5.58918576E-01   6.93317183E-05   1.22347902E-02   9.64355020E-18   4.82857901E-01   2.85480846E-02   1.83438899E-08   4.07826345E-04   1.73326197E-06   3.97630687E-05   4.56508431E-03   2.30866722E-09
   7.43750000E+02   5.00000000E-01   5.00000000E-01  -2.52013732E-03   1.08919306E-10   4.84697116E-03   4.00061880E-02   1.93652258E-02   2.16212901E-03   4.09547488E-19   4.57770076E-07   9.18382921E-06   2.51022085E-05   1.42858097E-06   2.56957988E-04   1.37713885E-05   1.54353553E-09   1.16058311E-09   5.59384057E-01   6.93894901E-05   1.22449796E-02   1.45348985E-17   4.83261253E-01   2.85718734E-02   1.83589689E-08   4.08165993E-04   1.73470547E-06   3.97961843E-05   4.70251744E-03   2.32752641E-09
   7.61250000E+02   5.00000000E-01   5.00000000E-01  -2.44339066E-03   1.14693498E-10   4.85107492E-03   3.97460828E-02   1.95861934E-02   2.20652820E-03   4.47321012E-19   4.71535603E-07   9.19160701E-06   2.51234617E-05   1.42979050E-06   2.63200553E-04   1.41014827E-05   1.54704299E-09   1.15959841E-09   5.59857667E-01   6.94482704E-05   1.22553470E-02   2.18338906E-17   4.83672519E-01   2.85960775E-02   1.83743144E-08   4.08511572E-04   1.73617418E-06   3.98298783E-05   4.84344665E-03   2.34733022E-09
   7.78750000E+02   5.00000000E-01   5.00000000E-01  -2.36682430E-03   1.20662113E-10   4.85524879E-03   3.94862475E-02   1.98078209E-02   2.25049969E-03   4.87873002E-19   4.85431210E-07   9.19951767E-06   2.51450779E-05   1.43102070E-06   2.69458914E-04   1.44323038E-05   1.55057658E-09   1.15862694E-09   5.60339369E-01   6.95080545E-05   1.22658915E-02   3.26893871E-17   4.84091671E-01   2.86206951E-02   1.83899251E-08   4.08863056E-04   1.73766799E-06   3.98641479E-05   4.98797236E-03   2.36807259E-09
   7.96250000E+02   5.00000000E-01   5.00000000E-01  -2.29060570E-03   1.26819354E-10   4.85949247E-03   3.92267642E-02   2.00301154E-02   2.29403161E-03   5.31330439E-19   4.99451597E-07   9.20756061E-06   2.51670557E-05   1.43227147E-06   2.75733291E-04   1.47638640E-05   1.55413627E-09   1.15766855E-09   5.60829128E-01   6.95688382E-05   1.22766124E-02   4.87808119E-17   4.84518682E-01   2.86457244E-02   1.84057999E-08   4.09220419E-04   1.73918678E-06   3.98989908E-05   5.13619828E-03   2.38974617E-09
   8.13750000E+02   5.00000000E-01   5.00000000E-01  -2.21490206E-03   1.33155643E-10   4.86380570E-03   3.89677151E-02   2.02530836E-02   2.33711152E-03   5.77811246E-19   5.13591449E-07   9.21573533E-06   2.51893937E-05   1.43354273E-06   2.82023909E-04   1.50961755E-05   1.55772209E-09   1.15672309E-09   5.61326914E-01   6.96306175E-05   1.22875090E-02   7.25545518E-17   4.84953534E-01   2.86711637E-02   1.84219377E-08   4.09583638E-04   1.74073046E-06   3.99344047E-05   5.28823309E-03   2.41234240E-09
   8.31250000E+02   5.00000000E-01   5.00000000E-01  -2.13987964E-03   1.39656523E-10   4.86818824E-03   3.87091820E-02   2.04767326E-02   2.37972613E-03   6.27419122E-19   5.27845433E-07   9.22404137E-06   2.52120907E-05   1.43483443E-06   2.88330991E-04   1.54292504E-05   1.56133405E-09   1.15579045E-09   5.61832698E-01   6.96933890E-05   1.22985806E-02   1.07561455E-16   4.85396211E-01   2.86970117E-02   1.84383376E-08   4.09952694E-04   1.74229895E-06   3.99703876E-05   5.44419176E-03   2.43585162E-09
   8.48750000E+02   5.00000000E-01   5.00000000E-01  -2.06570206E-03   1.46301925E-10   4.87263986E-03   3.84512458E-02   2.07010694E-02   2.42186090E-03   6.80238619E-19   5.42208213E-07   9.23247833E-06   2.52351454E-05   1.43614649E-06   2.94654764E-04   1.57631006E-05   1.56497218E-09   1.15487048E-09   5.62346456E-01   6.97571497E-05   1.23098269E-02   1.58936694E-16   4.85846704E-01   2.87232670E-02   1.84549989E-08   4.10327568E-04   1.74389216E-06   4.00069378E-05   5.60419616E-03   2.46026313E-09
   8.66250000E+02   5.00000000E-01   5.00000000E-01  -1.99252791E-03   1.53065950E-10   4.87716040E-03   3.81939854E-02   2.09261013E-02   2.46349970E-03   7.36331191E-19   5.56674452E-07   9.24104584E-06   2.52585570E-05   1.43747885E-06   3.00995455E-04   1.60977383E-05   1.56863651E-09   1.15396309E-09   5.62868166E-01   6.98218969E-05   1.23212471E-02   2.34079321E-16   4.86305005E-01   2.87499286E-02   1.84719207E-08   4.10708244E-04   1.74551004E-06   4.00440538E-05   5.76837441E-03   2.48556530E-09
   8.83750000E+02   5.00000000E-01   5.00000000E-01  -1.92050763E-03   1.59917226E-10   4.88174967E-03   3.79374766E-02   2.11518354E-02   2.50462446E-03   7.95732612E-19   5.71238816E-07   9.24974360E-06   2.52823246E-05   1.43883148E-06   3.07353294E-04   1.64331753E-05   1.57232708E-09   1.15306817E-09   5.63397809E-01   6.98876282E-05   1.23328411E-02   3.43610817E-16   4.86771116E-01   2.87769955E-02   1.84891025E-08   4.11094709E-04   1.74715251E-06   4.00817341E-05   5.93685939E-03   2.51174567E-09
   9.01250000E+02   5.00000000E-01   5.00000000E-01  -1.84978051E-03   1.66819766E-10   4.88640754E-03   3.76817913E-02   2.13782791E-02   2.54521495E-03   8.58451920E-19   5.85895984E-07   9.25857135E-06   2.53064475E-05   1.44020433E-06   3.13728511E-04   1.67694235E-05   1.57604394E-09   1.15218564E-09   5.63935369E-01   6.99543417E-05   1.23446083E-02   5.02722005E-16   4.87245040E-01   2.88044669E-02   1.85065437E-08   4.11486951E-04   1.74881954E-06   4.01199777E-05   6.10978625E-03   2.53879098E-09
   9.18750000E+02   5.00000000E-01   5.00000000E-01  -1.78047199E-03   1.73734173E-10   4.89113389E-03   3.74269959E-02   2.16054399E-02   2.58524859E-03   9.24471786E-19   6.00640642E-07   9.26752886E-06   2.53309250E-05   1.44159736E-06   3.20121339E-04   1.71064947E-05   1.57978715E-09   1.15131542E-09   5.64480833E-01   7.00220356E-05   1.23565486E-02   7.33058519E-16   4.87726784E-01   2.88323421E-02   1.85242438E-08   4.11884959E-04   1.75051108E-06   4.01587835E-05   6.28728966E-03   2.56668735E-09
   9.36250000E+02   5.00000000E-01   5.00000000E-01  -1.71269158E-03   1.80619080E-10   4.89592864E-03   3.71731513E-02   2.18333253E-02   2.62470036E-03   9.93750117E-19   6.15467489E-07   9.27661596E-06   2.53557567E-05   1.44301055E-06   3.26532013E-04   1.74444007E-05   1.58355676E-09   1.15045749E-09   5.65034190E-01   7.00907086E-05   1.23686616E-02   1.06535041E-15   4.88216359E-01   2.88606204E-02   1.85422026E-08   4.12288727E-04   1.75222709E-06   4.01981509E-05   6.46950085E-03   2.59542026E-09
   9.53750000E+02   5.00000000E-01   5.00000000E-01  -1.64653153E-03   1.87432676E-10   4.90079170E-03   3.69203121E-02   2.20619429E-02   2.66354293E-03   1.06622272E-18   6.30371240E-07   9.28583250E-06   2.53809423E-05   1.44444387E-06   3.32960768E-04   1.77831532E-05   1.58735285E-09   1.14961182E-09   5.65595431E-01   7.01603597E-05   1.23809473E-02   1.54306632E-15   4.88713778E-01   2.88893015E-02   1.85604197E-08   4.12698248E-04   1.75396756E-06   4.02380792E-05   6.65654484E-03   2.62497475E-09
   9.71250000E+02   5.00000000E-01   5.00000000E-01  -1.58206628E-03   1.94134243E-10   4.90572302E-03   3.66685266E-02   2.22913004E-02   2.70174671E-03   1.14180686E-18   6.45346620E-07   9.29517839E-06   2.54064813E-05   1.44589731E-06   3.39407843E-04   1.81227638E-05   1.59117549E-09   1.14877845E-09   5.66164550E-01   7.02309881E-05   1.23934053E-02   2.22747335E-15   4.89219054E-01   2.89183849E-02   1.85788949E-08   4.13113518E-04   1.75573245E-06   4.02785680E-05   6.84853789E-03   2.65533538E-09
   9.88750000E+02   5.00000000E-01   5.00000000E-01  -1.51935241E-03   2.00685618E-10   4.91072257E-03   3.64178371E-02   2.25214055E-02   2.73928012E-03   1.22040552E-18   6.60388367E-07   9.30465356E-06   2.54323737E-05   1.44737086E-06   3.45873479E-04   1.84632441E-05   1.59502477E-09   1.14795746E-09   5.66741543E-01   7.03025932E-05   1.24060358E-02   3.20461877E-15   4.89732204E-01   2.89478705E-02   1.85976281E-08   4.13534532E-04   1.75752176E-06   4.03196169E-05   7.04558534E-03   2.68648642E-09