 TITLE = "Total Concentrations" 
VARIABLES = "X"          "Y"              "Z"            "H+"             "Al+++"          "CO2(aq)"        "Mg++"           "Ca++"           "Fe++"           "Fe+++"          "Ba++"           "Sr++"           "Cl-"            "F-"             "K+"             "Na+"            "SO4--"          "O2(aq)"         "B(OH)3(aq)"     "HPO4--"         "NO3-"           "H4SiO4(aq)"    
 ZONE I=         100 , J=           1 , K=           1  F=POINT
   1.75000000E+01   5.00000000E-01   5.00000000E-01  -4.60116389E-03   3.73629349E-11   4.75000053E-03   5.09635255E-02   1.27521572E-02   2.64595787E-05   4.48690016E-14   2.00000022E-07   9.00000100E-06   5.48166604E-01   6.80000076E-05   1.19852850E-02   4.74071052E-01   3.03404267E-02   1.80000020E-04   4.00000045E-04   1.70000019E-06   3.90000043E-05   2.73154828E-04
   5.25000000E+01   5.00000000E-01   5.00000000E-01  -4.56523733E-03   3.50532559E-11   4.75014842E-03   5.08911825E-02   3.62853375E-02   5.28935858E-05   1.09092452E-14   2.00006249E-07   9.00028122E-06   5.48183671E-01   6.80021248E-05   1.19686045E-02   4.74138330E-01   5.38624250E-02   1.80005624E-04   4.00012499E-04   1.70005312E-06   3.90012186E-05   3.50294746E-04
   8.75000000E+01   5.00000000E-01   5.00000000E-01  -4.53571666E-03   3.57399051E-11   4.75058151E-03   5.08288083E-02   4.62651509E-02   7.93322988E-05   1.02677455E-14   2.00024485E-07   9.00110182E-06   5.48233652E-01   6.80083248E-05   1.19534678E-02   4.74225552E-01   6.38321113E-02   1.80022036E-04   4.00048970E-04   1.70020812E-06   3.90047745E-05   4.02238184E-04
   1.22500000E+02   5.00000000E-01   5.00000000E-01  -4.50720933E-03   3.86137845E-11   4.75128379E-03   5.07715029E-02   4.80652752E-02   1.05779579E-04   1.24899371E-14   2.00054054E-07   9.00243244E-06   5.48314697E-01   6.80183784E-05   1.19396903E-02   4.74335327E-01   6.56231009E-02   1.80048649E-04   4.00108108E-04   1.70045946E-06   3.90105406E-05   4.41954751E-04
   1.57500000E+02   5.00000000E-01   5.00000000E-01  -4.47829243E-03   4.30144585E-11   4.75224091E-03   5.07174957E-02   4.76165255E-02   1.32239025E-04   1.55379553E-14   2.00094354E-07   9.00424593E-06   5.48425151E-01   6.80320803E-05   1.19269621E-02   4.74468312E-01   6.51661535E-02   1.80084919E-04   4.00188708E-04   1.70080201E-06   3.90183990E-05   4.75109359E-04
   1.92500000E+02   5.00000000E-01   5.00000000E-01  -4.44814912E-03   4.87279459E-11   4.75344002E-03   5.06657578E-02   4.66378543E-02   1.58714017E-04   1.90110137E-14   2.00144843E-07   9.00651793E-06   5.48563533E-01   6.80492466E-05   1.19150543E-02   4.74624387E-01   6.41801725E-02   1.80130359E-04   4.00289686E-04   1.70123117E-06   3.90282444E-05   5.04494745E-04
   2.27500000E+02   5.00000000E-01   5.00000000E-01  -4.41621306E-03   5.57266300E-11   4.75486958E-03   5.06155964E-02   4.55315440E-02   1.85207749E-04   2.28530019E-14   2.00205035E-07   9.00922658E-06   5.48728510E-01   6.80697119E-05   1.19038063E-02   4.74803106E-01   6.30673956E-02   1.80184532E-04   4.00410070E-04   1.70174280E-06   3.90399818E-05   5.31654798E-04
   2.62500000E+02   5.00000000E-01   5.00000000E-01  -4.38206156E-03   6.40717842E-11   4.75651919E-03   5.05665076E-02   4.43920395E-02   2.11723250E-04   2.71069196E-14   2.00274492E-07   9.01235216E-06   5.48918881E-01   6.80933274E-05   1.18931041E-02   4.75003879E-01   6.19222278E-02   1.80247043E-04   4.00548985E-04   1.70233318E-06   3.90535260E-05   5.57509815E-04
   2.97500000E+02   5.00000000E-01   5.00000000E-01  -4.34535627E-03   7.38781122E-11   4.75837947E-03   5.05181006E-02   4.32432358E-02   2.38263404E-04   3.18474999E-14   2.00352820E-07   9.01587689E-06   5.49133563E-01   6.81199587E-05   1.18828648E-02   4.75226073E-01   6.07685281E-02   1.80317538E-04   4.00705639E-04   1.70299897E-06   3.90687999E-05   5.82634150E-04
   3.32500000E+02   5.00000000E-01   5.00000000E-01  -4.30581030E-03   8.53000027E-11   4.76044193E-03   5.04700568E-02   4.20929949E-02   2.64830974E-04   3.71612591E-14   2.00439660E-07   9.01978471E-06   5.49371578E-01   6.81494844E-05   1.18730266E-02   4.75469049E-01   5.96141255E-02   1.80395694E-04   4.00879320E-04   1.70373711E-06   3.90857337E-05   6.07397013E-04
   3.67500000E+02   5.00000000E-01   5.00000000E-01  -4.26317061E-03   9.85262729E-11   4.76269889E-03   5.04221058E-02   4.09454337E-02   2.91428613E-04   4.31416766E-14   2.00534690E-07   9.02406106E-06   5.49632039E-01   6.81817946E-05   1.18635422E-02   4.75732191E-01   5.84631070E-02   1.80481221E-04   4.01069380E-04   1.70454487E-06   3.91042646E-05   6.32040779E-04
   4.02500000E+02   5.00000000E-01   5.00000000E-01  -4.21720897E-03   1.13778671E-10   4.76514339E-03   5.03740127E-02   3.98036442E-02   3.18058883E-04   4.98890800E-14   2.00637617E-07   9.02869275E-06   5.49914144E-01   6.82167896E-05   1.18543745E-02   4.76014915E-01   5.73185380E-02   1.80573855E-04   4.01275233E-04   1.70541974E-06   3.91243352E-05   6.56727429E-04
   4.37500000E+02   5.00000000E-01   5.00000000E-01  -4.16771802E-03   1.31312244E-10   4.76776912E-03   5.03255699E-02   3.86702887E-02   3.44724262E-04   5.75119529E-14   2.00748173E-07   9.03366780E-06   5.50217161E-01   6.82543790E-05   1.18454941E-02   4.76316675E-01   5.61830558E-02   1.80673356E-04   4.01496347E-04   1.70635947E-06   3.91458938E-05   6.81567396E-04
   4.72500000E+02   5.00000000E-01   5.00000000E-01  -4.11451027E-03   1.51416719E-10   4.77057031E-03   5.02765932E-02   3.75477324E-02   3.71427156E-04   6.61287231E-14   2.00866119E-07   9.03897533E-06   5.50540429E-01   6.82944803E-05   1.18368773E-02   4.76636961E-01   5.50590034E-02   1.80779507E-04   4.01732237E-04   1.70736201E-06   3.91688931E-05   7.06638151E-04
   5.07500000E+02   5.00000000E-01   5.00000000E-01  -4.05741903E-03   1.74418478E-10   4.77354176E-03   5.02269198E-02   3.64380792E-02   3.98169910E-04   7.58698107E-14   2.00991232E-07   9.04460543E-06   5.50883344E-01   6.83370188E-05   1.18285049E-02   4.76975303E-01   5.39484640E-02   1.80892109E-04   4.01982464E-04   1.70842547E-06   3.91932902E-05   7.31996544E-04
   5.42500000E+02   5.00000000E-01   5.00000000E-01  -3.99630052E-03   2.00682884E-10   4.77667868E-03   5.01764074E-02   3.53431888E-02   4.24954812E-04   8.68799326E-14   2.01123313E-07   9.05054908E-06   5.51245356E-01   6.83819264E-05   1.18203613E-02   4.77331266E-01   5.28532786E-02   1.81010982E-04   4.02246626E-04   1.70954816E-06   3.92190460E-05   7.57687240E-04
   5.77500000E+02   5.00000000E-01   5.00000000E-01  -3.93103675E-03   2.30616802E-10   4.77997675E-03   5.01249348E-02   3.42646901E-02   4.51784107E-04   9.93207253E-14   2.01262179E-07   9.05679806E-06   5.51625965E-01   6.84291409E-05   1.18124339E-02   4.77704448E-01   5.17750592E-02   1.81135961E-04   4.02524358E-04   1.71072852E-06   3.92461249E-05   7.83748634E-04
   6.12500000E+02   5.00000000E-01   5.00000000E-01  -3.86153880E-03   2.64671225E-10   4.78343201E-03   5.00724025E-02   3.32039960E-02   4.78659997E-04   1.13373768E-13   2.01407664E-07   9.06334486E-06   5.52024714E-01   6.84786056E-05   1.18047126E-02   4.78094475E-01   5.07152026E-02   1.81266897E-04   4.02815327E-04   1.71196514E-06   3.92744944E-05   8.10217086E-04
   6.47500000E+02   5.00000000E-01   5.00000000E-01  -3.78775038E-03   3.03343919E-10   4.78704085E-03   5.00187338E-02   3.21623170E-02   5.05584653E-04   1.29244093E-13   2.01559615E-07   9.07018267E-06   5.52441187E-01   6.85302691E-05   1.17971895E-02   4.78501004E-01   4.96749052E-02   1.81403653E-04   4.03119230E-04   1.71325673E-06   3.93041249E-05   8.37130023E-04
   6.82500000E+02   5.00000000E-01   5.00000000E-01  -3.70964719E-03   3.47119878E-10   4.79079999E-03   4.99638670E-02   3.11406763E-02   5.32560222E-04   1.47209905E-13   2.01717894E-07   9.07730523E-06   5.52875003E-01   6.85840840E-05   1.17898663E-02   4.78923720E-01   4.86551769E-02   1.81546105E-04   4.03435788E-04   1.71460210E-06   3.93349894E-05   8.64549784E-04
   7.17500000E+02   5.00000000E-01   5.00000000E-01  -3.62724212E-03   3.96574964E-10   4.79470640E-03   4.99077667E-02   3.01399239E-02   5.59588827E-04   1.67552980E-13   2.01882375E-07   9.08470687E-06   5.53325818E-01   6.86400075E-05   1.17827455E-02   4.79362332E-01   4.76568557E-02   1.81694137E-04   4.03764750E-04   1.71600019E-06   3.93670631E-05   8.92533516E-04
   7.52500000E+02   5.00000000E-01   5.00000000E-01  -3.54059504E-03   4.52377539E-10   4.79875737E-03   4.98504318E-02   2.91607510E-02   5.86672585E-04   1.90565207E-13   2.02052942E-07   9.09238239E-06   5.53793314E-01   6.86980003E-05   1.17758259E-02   4.79816559E-01   4.66806217E-02   1.81847648E-04   4.04105884E-04   1.71745001E-06   3.94003237E-05   9.21128863E-04
   7.87500000E+02   5.00000000E-01   5.00000000E-01  -3.44981439E-03   5.15220659E-10   4.80295040E-03   4.97918905E-02   2.82037042E-02   6.13813600E-04   2.16606290E-13   2.02229490E-07   9.10032707E-06   5.54277203E-01   6.87580267E-05   1.17691070E-02   4.80286140E-01   4.57270110E-02   1.82006541E-04   4.04458981E-04   1.71895067E-06   3.94347506E-05   9.50393252E-04
   8.22500000E+02   5.00000000E-01   5.00000000E-01  -3.35505602E-03   5.85852156E-10   4.80728320E-03   4.97322001E-02   2.72691979E-02   6.41013978E-04   2.46091265E-13   2.02411924E-07   9.10853659E-06   5.54777224E-01   6.88200543E-05   1.17625892E-02   4.80770833E-01   4.47964291E-02   1.82170732E-04   4.04823849E-04   1.72050136E-06   3.94703252E-05   9.80392418E-04
   8.57500000E+02   5.00000000E-01   5.00000000E-01  -3.25652457E-03   6.65076498E-10   4.81175372E-03   4.96714470E-02   2.63575280E-02   6.68275827E-04   2.79499751E-13   2.02600157E-07   9.11700704E-06   5.55293137E-01   6.88840532E-05   1.17562736E-02   4.81270406E-01   4.38891630E-02   1.82340141E-04   4.05200313E-04   1.72210133E-06   3.95070305E-05   1.01120037E-03
   8.92500000E+02   5.00000000E-01   5.00000000E-01  -3.15447401E-03   7.53756369E-10   4.81636006E-03   4.96097471E-02   2.54688833E-02   6.95601263E-04   3.17386924E-13   2.02794108E-07   9.12573486E-06   5.55824726E-01   6.89499967E-05   1.17501614E-02   4.81784645E-01   4.30053935E-02   1.82514697E-04   4.05588216E-04   1.72374992E-06   3.95448511E-05   1.04289912E-03
   9.27500000E+02   5.00000000E-01   5.00000000E-01  -3.04920709E-03   8.52814309E-10   4.82110054E-03   4.95472450E-02   2.46033566E-02   7.22992418E-04   3.60396235E-13   2.02993707E-07   9.13471681E-06   5.56371793E-01   6.90178603E-05   1.17442539E-02   4.82313345E-01   4.21452065E-02   1.82694336E-04   4.05987414E-04   1.72544651E-06   3.95837728E-05   1.07557820E-03
   9.62500000E+02   5.00000000E-01   5.00000000E-01  -2.94107375E-03   9.63234549E-10   4.82597359E-03   4.94841134E-02   2.37609558E-02   7.50451439E-04   4.09274158E-13   2.03198888E-07   9.14394996E-06   5.56934160E-01   6.90876219E-05   1.17385524E-02   4.82856315E-01   4.13086031E-02   1.82878999E-04   4.06397776E-04   1.72719055E-06   3.96237832E-05   1.10933393E-03
   9.97500000E+02   5.00000000E-01   5.00000000E-01  -2.83046825E-03   1.08606521E-09   4.83097783E-03   4.94205510E-02   2.29416131E-02   7.77980496E-04   4.64887221E-13   2.03409593E-07   9.15343167E-06   5.57511666E-01   6.91592615E-05   1.17330581E-02   4.83413371E-01   4.04955095E-02   1.83068633E-04   4.06819185E-04   1.72898154E-06   3.96648706E-05   1.14426844E-03
   1.03250000E+03   5.00000000E-01   5.00000000E-01  -2.71782517E-03   1.22242100E-09   4.83611199E-03   4.93567805E-02   2.21451945E-02   8.05581782E-04   5.28241668E-13   2.03625768E-07   9.16315956E-06   5.58104167E-01   6.92327612E-05   1.17277714E-02   4.83984343E-01   3.97057861E-02   1.83263191E-04   4.07251536E-04   1.73081903E-06   3.97070248E-05   1.18048848E-03
   1.06750000E+03   5.00000000E-01   5.00000000E-01  -2.60361407E-03   1.37348666E-09   4.84137496E-03   4.92930451E-02   2.13715077E-02   8.33257519E-04   6.00506100E-13   2.03847367E-07   9.17313150E-06   5.58711532E-01   6.93081047E-05   1.17226927E-02   4.84569069E-01   3.89392355E-02   1.83462630E-04   4.07694733E-04   1.73270262E-06   3.97502365E-05   1.21810406E-03
   1.10250000E+03   5.00000000E-01   5.00000000E-01  -2.48833297E-03   1.54052133E-09   4.84676572E-03   4.92296053E-02   2.06203098E-02   8.61009955E-04   6.83037493E-13   2.04074346E-07   9.18334558E-06   5.59333644E-01   6.93852777E-05   1.17178215E-02   4.85167396E-01   3.81956102E-02   1.83666912E-04   4.08148692E-04   1.73463194E-06   3.97944975E-05   1.25722680E-03
   1.13750000E+03   5.00000000E-01   5.00000000E-01  -2.37250082E-03   1.72486402E-09   4.85228339E-03   4.91667343E-02   1.98913145E-02   8.88841368E-04   7.77411012E-13   2.04306669E-07   9.19380010E-06   5.59970402E-01   6.94642674E-05   1.17131571E-02   4.85779181E-01   3.74746197E-02   1.83876002E-04   4.08613338E-04   1.73660669E-06   3.98398004E-05   1.29796826E-03
   1.17250000E+03   5.00000000E-01   5.00000000E-01  -2.25664890E-03   1.92794048E-09   4.85792716E-03   4.91047135E-02   1.91841981E-02   9.16754064E-04   8.85454082E-13   2.04544302E-07   9.20449357E-06   5.60621714E-01   6.95450626E-05   1.17086982E-02   4.86404291E-01   3.67759365E-02   1.84089871E-04   4.09088603E-04   1.73862656E-06   3.98861388E-05   1.34043804E-03
   1.20750000E+03   5.00000000E-01   5.00000000E-01  -2.14131164E-03   2.15127156E-09   4.86369637E-03   4.90438271E-02   1.84986053E-02   9.44750375E-04   1.00928520E-12   2.04787215E-07   9.21542469E-06   5.61287500E-01   6.96276532E-05   1.17044432E-02   4.87042602E-01   3.60992020E-02   1.84308494E-04   4.09574431E-04   1.74069133E-06   3.99335070E-05   1.38474183E-03
   1.24250000E+03   5.00000000E-01   5.00000000E-01  -2.02701694E-03   2.39648339E-09   4.86959040E-03   4.89843571E-02   1.78341545E-02   9.72832663E-04   1.15135802E-12   2.05035385E-07   9.22659233E-06   5.61967691E-01   6.97120309E-05   1.17003903E-02   4.87694001E-01   3.54440313E-02   1.84531847E-04   4.10070770E-04   1.74280077E-06   3.99819001E-05   1.43097949E-03
   1.27750000E+03   5.00000000E-01   5.00000000E-01  -1.91427648E-03   2.66531933E-09   4.87560875E-03   4.89265776E-02   1.71904424E-02   1.00100331E-03   1.31451123E-12   2.05288789E-07   9.23799552E-06   5.62662230E-01   6.97981884E-05   1.16965378E-02   4.88358383E-01   3.48100184E-02   1.84759910E-04   4.10577579E-04   1.74495471E-06   4.00313139E-05   1.47924313E-03
   1.31250000E+03   5.00000000E-01   5.00000000E-01  -1.80357623E-03   2.95965401E-09   4.88175099E-03   4.88707496E-02   1.65670480E-02   1.02926471E-03   1.50202485E-12   2.05547410E-07   9.24963346E-06   5.63371066E-01   6.98861194E-05   1.16928839E-02   4.89035656E-01   3.41967398E-02   1.84992669E-04   4.11094820E-04   1.74715299E-06   4.00817450E-05   1.52961534E-03
   1.34750000E+03   5.00000000E-01   5.00000000E-01  -1.69536764E-03   3.28150925E-09   4.88801678E-03   4.88171164E-02   1.59635366E-02   1.05761930E-03   1.71768361E-12   2.05811233E-07   9.26150548E-06   5.64094160E-01   6.99758192E-05   1.16894272E-02   4.89725737E-01   3.36037587E-02   1.85230110E-04   4.11622466E-04   1.74939548E-06   4.01331904E-05   1.58216763E-03
   1.38250000E+03   5.00000000E-01   5.00000000E-01  -1.59005992E-03   3.63307210E-09   4.89440585E-03   4.87658988E-02   1.53794631E-02   1.08606950E-03   1.96584817E-12   2.06080246E-07   9.27361108E-06   5.64831481E-01   7.00672837E-05   1.16861667E-02   4.90428553E-01   3.30306280E-02   1.85472222E-04   4.12160492E-04   1.75168209E-06   4.01856480E-05   1.63695914E-03
   1.41750000E+03   5.00000000E-01   5.00000000E-01  -1.48801345E-03   4.01671460E-09   4.90091798E-03   4.87172920E-02   1.48143747E-02   1.11461776E-03   2.25153501E-12   2.06354441E-07   9.28594986E-06   5.65583004E-01   7.01605100E-05   1.16831019E-02   4.91144044E-01   3.24768933E-02   1.85718997E-04   4.12708883E-04   1.75401275E-06   4.02391160E-05   1.69403569E-03
   1.45250000E+03   5.00000000E-01   5.00000000E-01  -1.38953497E-03   4.43501527E-09   4.90755305E-03   4.86714624E-02   1.42678141E-02   1.14326653E-03   2.58050613E-12   2.06633813E-07   9.29852156E-06   5.66348713E-01   7.02554963E-05   1.16802332E-02   4.91872159E-01   3.19420959E-02   1.85970431E-04   4.13267625E-04   1.75638741E-06   4.02935934E-05   1.75342921E-03
   1.48750000E+03   5.00000000E-01   5.00000000E-01  -1.29487430E-03   4.89078205E-09   4.91431098E-03   4.86285460E-02   1.37393212E-02   1.17201827E-03   2.95936967E-12   2.06918357E-07   9.31132606E-06   5.67128602E-01   7.03522413E-05   1.16775617E-02   4.92612860E-01   3.14257744E-02   1.86226521E-04   4.13836714E-04   1.75880603E-06   4.03490796E-05   1.81515763E-03
   1.52250000E+03   5.00000000E-01   5.00000000E-01  -1.20422294E-03   5.38707633E-09   4.92119175E-03   4.85886474E-02   1.32284356E-02   1.20087542E-03   3.39569303E-12   2.07208074E-07   9.32436332E-06   5.67922667E-01   7.04507451E-05   1.16750890E-02   4.93366119E-01   3.09274676E-02   1.86487266E-04   4.14416147E-04   1.76126863E-06   4.04055744E-05   1.87922512E-03
   1.55750000E+03   5.00000000E-01   5.00000000E-01  -1.11771429E-03   5.92723790E-09   4.92819542E-03   4.85518401E-02   1.27346983E-02   1.22984045E-03   3.89813025E-12   2.07502965E-07   9.33763343E-06   5.68730915E-01   7.05510081E-05   1.16728179E-02   4.94131919E-01   3.04467157E-02   1.86752669E-04   4.15005930E-04   1.76377520E-06   4.04630782E-05   1.94562277E-03
   1.59250000E+03   5.00000000E-01   5.00000000E-01  -1.03542551E-03   6.51491053E-09   4.93532209E-03   4.85181670E-02   1.22576533E-02   1.25891581E-03   4.47656574E-12   2.07803035E-07   9.35113659E-06   5.69553357E-01   7.06530320E-05   1.16707518E-02   4.94910253E-01   2.99830619E-02   1.87022732E-04   4.15606070E-04   1.76632580E-06   4.05215919E-05   2.01432959E-03
   1.62750000E+03   5.00000000E-01   5.00000000E-01  -9.57380687E-04   7.15406791E-09   4.94257190E-03   4.84876421E-02   1.17968486E-02   1.28810395E-03   5.14227676E-12   2.08108291E-07   9.36487308E-06   5.70390011E-01   7.07568188E-05   1.16688948E-02   4.95701125E-01   2.95360542E-02   1.87297462E-04   4.16216581E-04   1.76892047E-06   4.05811167E-05   2.08531382E-03
   1.66250000E+03   5.00000000E-01   5.00000000E-01  -8.83555066E-04   7.84903993E-09   4.94994507E-03   4.84602532E-02   1.13518380E-02   1.31740732E-03   5.90811760E-12   2.08418740E-07   9.37884330E-06   5.71240901E-01   7.08623716E-05   1.16672518E-02   4.96504548E-01   2.91052460E-02   1.87576866E-04   4.16837480E-04   1.77155929E-06   4.06416543E-05   2.15853436E-03
   1.69750000E+03   5.00000000E-01   5.00000000E-01  -8.13880055E-04   8.60453927E-09   4.95744186E-03   4.84359640E-02   1.09221813E-02   1.34682835E-03   6.78872862E-12   2.08734394E-07   9.39304773E-06   5.72106056E-01   7.09696940E-05   1.16658280E-02   4.97320547E-01   2.86901971E-02   1.87860955E-04   4.17468788E-04   1.77424235E-06   4.07032068E-05   2.23394242E-03
   1.73250000E+03   5.00000000E-01   5.00000000E-01  -7.48248700E-04   9.42568819E-09   4.96506256E-03   4.84147172E-02   1.05074459E-02   1.37636949E-03   7.80077390E-12   2.09055266E-07   9.40748695E-06   5.72985511E-01   7.10787903E-05   1.16646294E-02   4.98149153E-01   2.82904752E-02   1.88149739E-04   4.18110531E-04   1.77696976E-06   4.07657768E-05   2.31148312E-03
   1.76750000E+03   5.00000000E-01   5.00000000E-01  -6.86521335E-04   1.03180458E-08   4.97280752E-03   4.83964375E-02   1.01072069E-02   1.40603316E-03   8.96321160E-12   2.09381369E-07   9.42216162E-06   5.73879307E-01   7.11896656E-05   1.16636624E-02   4.98990406E-01   2.79056554E-02   1.88443232E-04   4.18762739E-04   1.77974164E-06   4.08293670E-05   2.39109705E-03
   1.80250000E+03   5.00000000E-01   5.00000000E-01  -6.28531164E-04   1.12876358E-08   4.98067715E-03   4.83810349E-02   9.72104752E-03   1.43582180E-03   1.02976017E-11   2.09712722E-07   9.43707249E-06   5.74787489E-01   7.13023255E-05   1.16629335E-02   4.99844356E-01   2.75353218E-02   1.88741450E-04   4.19425444E-04   1.78255814E-06   4.08939808E-05   2.47272179E-03
   1.83750000E+03   5.00000000E-01   5.00000000E-01  -5.74089575E-04   1.23409753E-08   4.98867187E-03   4.83684071E-02   9.34856014E-03   1.46573785E-03   1.18284566E-11   2.10049342E-07   9.45222038E-06   5.75710108E-01   7.14167762E-05   1.16624498E-02   5.00711057E-01   2.71790671E-02   1.89044408E-04   4.20098684E-04   1.78541941E-06   4.09596217E-05   2.55629320E-03
   1.87250000E+03   5.00000000E-01   5.00000000E-01  -5.22991040E-04   1.34851042E-08   4.99679217E-03   4.83584424E-02   8.98934596E-03   1.49578372E-03   1.35836394E-11   2.10391249E-07   9.46760621E-06   5.76647219E-01   7.15330247E-05   1.16622184E-02   5.01590573E-01   2.68364934E-02   1.89352124E-04   4.20782498E-04   1.78832562E-06   4.10262936E-05   2.64174658E-03
   1.90750000E+03   5.00000000E-01   5.00000000E-01  -4.75017484E-04   1.47276165E-08   5.00503857E-03   4.83510222E-02   8.64301545E-03   1.52596185E-03   1.55948180E-11   2.10738466E-07   9.48323097E-06   5.77598882E-01   7.16510784E-05   1.16622465E-02   5.02482973E-01   2.65072121E-02   1.89664619E-04   4.21476932E-04   1.79127696E-06   4.10940009E-05   2.72901759E-03
   1.94250000E+03   5.00000000E-01   5.00000000E-01  -4.29942078E-04   1.60766921E-08   5.01341163E-03   4.83460229E-02   8.30918845E-03   1.55627467E-03   1.78979805E-11   2.11091016E-07   9.49909571E-06   5.78565162E-01   7.17709454E-05   1.16625418E-02   5.03388332E-01   2.61908440E-02   1.89981914E-04   4.22182032E-04   1.79427363E-06   4.11627481E-05   2.81804297E-03
   1.97750000E+03   5.00000000E-01   5.00000000E-01  -3.87532430E-04   1.75411314E-08   5.02191195E-03   4.83433176E-02   7.98749414E-03   1.58672462E-03   2.05340204E-11   2.11448924E-07   9.51520159E-06   5.79546129E-01   7.18926342E-05   1.16631117E-02   5.04306730E-01   2.58870196E-02   1.90304032E-04   4.22897848E-04   1.79731586E-06   4.12325402E-05   2.90876109E-03
   2.01250000E+03   5.00000000E-01   5.00000000E-01  -3.47553176E-04   1.91303909E-08   5.03054018E-03   4.83427780E-02   7.67757108E-03   1.61731414E-03   2.35494005E-11   2.11812218E-07   9.53154981E-06   5.80541856E-01   7.20161541E-05   1.16639638E-02   5.05238253E-01   2.55953788E-02   1.90630996E-04   4.23624436E-04   1.80040385E-06   4.13033825E-05   3.00111230E-03
   2.04750000E+03   5.00000000E-01   5.00000000E-01  -3.09768012E-04   2.08546216E-08   5.03929698E-03   4.83442749E-02   7.37906709E-03   1.64804568E-03   2.69969054E-11   2.12180926E-07   9.54814165E-06   5.81552422E-01   7.21415147E-05   1.16651059E-02   5.06182991E-01   2.53155707E-02   1.90962833E-04   4.24361851E-04   1.80353787E-06   4.13752805E-05   3.09503905E-03
   2.08250000E+03   5.00000000E-01   5.00000000E-01  -2.73941207E-04   2.27247085E-08   5.04818308E-03   4.83476796E-02   7.09163912E-03   1.67892170E-03   3.09364924E-11   2.12555077E-07   9.56497847E-06   5.82577909E-01   7.22687262E-05   1.16665457E-02   5.07141039E-01   2.50472539E-02   1.91299569E-04   4.25110154E-04   1.80671816E-06   4.14482401E-05   3.19048595E-03
   2.11750000E+03   5.00000000E-01   5.00000000E-01  -2.39838645E-04   2.47523139E-08   5.05719923E-03   4.83528643E-02   6.81495313E-03   1.70994466E-03   3.54362522E-11   2.12934704E-07   9.58206170E-06   5.83618404E-01   7.23977995E-05   1.16682911E-02   5.08112496E-01   2.47900962E-02   1.91641234E-04   4.25869409E-04   1.80994499E-06   4.15222674E-05   3.28739967E-03
   2.15250000E+03   5.00000000E-01   5.00000000E-01  -2.07228458E-04   2.69499215E-08   5.06634622E-03   4.83597024E-02   6.54868390E-03   1.74111705E-03   4.05734939E-11   2.13319841E-07   9.59939283E-06   5.84673998E-01   7.25287458E-05   1.16703498E-02   5.09097464E-01   2.45437740E-02   1.91987857E-04   4.26639681E-04   1.81321865E-06   4.15973689E-05   3.38572872E-03
   2.18750000E+03   5.00000000E-01   5.00000000E-01  -1.75881308E-04   2.93308845E-08   5.07562486E-03   4.83680690E-02   6.29251481E-03   1.77244135E-03   4.64359657E-11   2.13710520E-07   9.61697341E-06   5.85744786E-01   7.26615769E-05   1.16727298E-02   5.10096051E-01   2.43079728E-02   1.92339468E-04   4.27421041E-04   1.81653942E-06   4.16735515E-05   3.48542311E-03
   2.22250000E+03   5.00000000E-01   5.00000000E-01  -1.45570364E-04   3.19094747E-08   5.08503602E-03   4.83778407E-02   6.04613764E-03   1.80392007E-03   5.31232266E-11   2.14106780E-07   9.63480509E-06   5.86830866E-01   7.27963051E-05   1.16754391E-02   5.11108367E-01   2.40823863E-02   1.92696102E-04   4.28213559E-04   1.81990763E-06   4.17508220E-05   3.58643407E-03
   2.25750000E+03   5.00000000E-01   5.00000000E-01  -1.16071033E-04   3.47009360E-08   5.09458059E-03   4.83888954E-02   5.80925235E-03   1.83555574E-03   6.07481858E-11   2.14508656E-07   9.65288954E-06   5.87932343E-01   7.29329432E-05   1.16784858E-02   5.12134525E-01   2.38667167E-02   1.93057791E-04   4.29017313E-04   1.82332358E-06   4.18291880E-05   3.68871356E-03
   2.29250000E+03   5.00000000E-01   5.00000000E-01  -8.71604873E-05   3.77215389E-08   5.10425951E-03   4.84011126E-02   5.58156685E-03   1.86735090E-03   6.94388247E-11   2.14916190E-07   9.67122854E-06   5.89049324E-01   7.30715045E-05   1.16818778E-02   5.13174642E-01   2.36606742E-02   1.93424571E-04   4.29832379E-04   1.82678761E-06   4.19086570E-05   3.79221385E-03
   2.32750000E+03   5.00000000E-01   5.00000000E-01  -5.86170237E-05   4.09886387E-08   5.11407373E-03   4.84143724E-02   5.36279676E-03   1.89930811E-03   7.93401200E-11   2.15329420E-07   9.68982390E-06   5.90181919E-01   7.32120028E-05   1.16856236E-02   5.14228840E-01   2.34639768E-02   1.93796478E-04   4.30658840E-04   1.83030007E-06   4.19892369E-05   3.89688706E-03
   2.36250000E+03   5.00000000E-01   5.00000000E-01  -3.02192962E-05   4.45207366E-08   5.12402425E-03   4.84285556E-02   5.15266522E-03   1.93142996E-03   9.06161842E-11   2.15748389E-07   9.70867753E-06   5.91330244E-01   7.33544524E-05   1.16897312E-02   5.15297241E-01   2.32763502E-02   1.94173551E-04   4.31496779E-04   1.83386131E-06   4.20709359E-05   4.00268461E-03
   2.39750000E+03   5.00000000E-01   5.00000000E-01  -1.74544991E-06   4.83375422E-08   5.13411211E-03   4.84435434E-02   4.95090263E-03   1.96371906E-03   1.03452643E-10   2.16173141E-07   9.72779136E-06   5.92494418E-01   7.34988681E-05   1.16942090E-02   5.16379974E-01   2.30975274E-02   1.94555827E-04   4.32346283E-04   1.83747170E-06   4.21537626E-05   4.10955677E-03
   2.43250000E+03   5.00000000E-01   5.00000000E-01   2.70278181E-05   5.24600406E-08   5.14433837E-03   4.84592162E-02   4.75724647E-03   1.99617804E-03   1.18059263E-10   2.16603721E-07   9.74716744E-06   5.93674565E-01   7.36452651E-05   1.16990655E-02   5.17477167E-01   2.29272487E-02   1.94943349E-04   4.33207442E-04   1.84113163E-06   4.22377256E-05   4.21745215E-03
   2.46750000E+03   5.00000000E-01   5.00000000E-01   5.63262458E-05   5.69105610E-08   5.15470414E-03   4.84754539E-02   4.57144110E-03   2.02880956E-03   1.34672853E-10   2.17040174E-07   9.76680784E-06   5.94870810E-01   7.37936592E-05   1.17043092E-02   5.18588955E-01   2.27652612E-02   1.95336157E-04   4.34080348E-04   1.84484148E-06   4.23228340E-05   4.32631715E-03
   2.50250000E+03   5.00000000E-01   5.00000000E-01   8.63790218E-05   6.17128482E-08   5.16521054E-03   4.84921351E-02   4.39323756E-03   2.06161633E-03   1.53560443E-10   2.17482549E-07   9.78671472E-06   5.96083286E-01   7.39440667E-05   1.17099487E-02   5.19715474E-01   2.26113189E-02   1.95734294E-04   4.34965098E-04   1.84860167E-06   4.24090971E-05   4.43609554E-03
   2.53750000E+03   5.00000000E-01   5.00000000E-01   1.17419811E-04   6.68921371E-08   5.17585876E-03   4.85091362E-02   4.22239339E-03   2.09460105E-03   1.75022765E-10   2.17930895E-07   9.80689028E-06   5.97312127E-01   7.40965044E-05   1.17159927E-02   5.20856865E-01   2.24651825E-02   1.96137806E-04   4.35861790E-04   1.85241261E-06   4.24965246E-05   4.54672796E-03
   2.57250000E+03   5.00000000E-01   5.00000000E-01   1.49687773E-04   7.24752297E-08   5.18664999E-03   4.85263315E-02   4.05867250E-03   2.12776650E-03   1.99398033E-10   2.18385263E-07   9.82733682E-06   5.98557472E-01   7.42509893E-05   1.17224499E-02   5.22013271E-01   2.23266191E-02   1.96546736E-04   4.36770525E-04   1.85627473E-06   4.25851262E-05   4.65815143E-03
   2.60750000E+03   5.00000000E-01   5.00000000E-01   1.83428555E-04   7.84905740E-08   5.19758547E-03   4.85435922E-02   3.90184496E-03   2.16111546E-03   2.27066030E-10   2.18845704E-07   9.84805668E-06   5.99819465E-01   7.44075393E-05   1.17293293E-02   5.23184838E-01   2.21954019E-02   1.96961134E-04   4.37691408E-04   1.86018848E-06   4.26749123E-05   4.77029899E-03
   2.64250000E+03   5.00000000E-01   5.00000000E-01   2.18895248E-04   8.49683460E-08   5.20866647E-03   4.85607863E-02   3.75168694E-03   2.19465077E-03   2.58452499E-10   2.19312273E-07   9.86905227E-06   6.01098252E-01   7.45661727E-05   1.17366398E-02   5.24371718E-01   2.20713106E-02   1.97381045E-04   4.38624545E-04   1.86415432E-06   4.27658932E-05   4.88309923E-03
   2.67750000E+03   5.00000000E-01   5.00000000E-01   2.56349287E-04   9.19405337E-08   5.21989431E-03   4.85777775E-02   3.60798051E-03   2.22837531E-03   2.94033824E-10   2.19785024E-07   9.89032607E-06   6.02393983E-01   7.47269081E-05   1.17443904E-02   5.25574063E-01   2.19541308E-02   1.97806521E-04   4.39570047E-04   1.86817270E-06   4.28580796E-05   4.99647599E-03
   2.71250000E+03   5.00000000E-01   5.00000000E-01   2.96061273E-04   9.94410224E-08   5.23127033E-03   4.85944256E-02   3.47051359E-03   2.26229198E-03   3.34341973E-10   2.20264014E-07   9.91188062E-06   6.03706815E-01   7.48897647E-05   1.17525903E-02   5.26792031E-01   2.18436540E-02   1.98237612E-04   4.40528028E-04   1.87224412E-06   4.29514827E-05   5.11034797E-03