 TITLE = "Total Concentrations" 
VARIABLES = "X"          "Y"              "Z"            "H+"             "Al+++"          "CO2(aq)"        "Mg++"           "Ca++"           "Fe++"           "Fe+++"          "Cl-"            "K+"             "Na+"            "SiO2(aq)"       "SO4--"          "O2(aq)"         "B(OH)3(aq)"     "HPO4--"         "NO3-"           "H4SiO4(aq)"    
 ZONE I=           1 , J=           1 , K=           1  F=POINT
   5.00000000E-01   5.00000000E-01   5.00000000E-01  -1.29011671E+02   3.22155245E+01   9.50000000E-06   1.24269278E-01   1.60902550E+01   1.72282110E-07   1.00000000E-13   5.49723249E-01   1.20000000E-02   4.74000048E-01   1.70000000E-04   9.27663932E-05   1.80000000E-04   4.00000000E-04   1.70000000E-06   3.90000000E-05   3.22521275E+01
