 TITLE = "Total Concentrations" 
VARIABLES = "X"          "Y"              "Z"            "H+"             "Al+++"          "CO2(aq)"        "Mg++"           "Ca++"           "Fe++"           "Fe+++"          "Ba++"           "Sr++"           "Cl-"            "F-"             "K+"             "HS-"            "Na+"            "SO4--"          "O2(aq)"         "B(OH)3(aq)"     "HPO4--"         "NO3-"           "H4SiO4(aq)"    
 ZONE I=         100 , J=           1 , K=           1  F=POINT
   1.75000000E+01   5.00000000E-01   5.00000000E-01  -4.62595980E-03   2.23178557E-12   4.75000053E-03   5.04777016E-02   1.84285096E-02   2.20869639E-05   2.38882034E-13   2.00000022E-07   9.00000100E-06   5.48166604E-01   6.80000076E-05   1.20000013E-02   1.00000011E-10   4.74190774E-01   3.55814040E-02   1.80000020E-04   4.00000045E-04   1.70000019E-06   3.90000043E-05   6.44096627E-04
   5.25000000E+01   5.00000000E-01   5.00000000E-01  -4.58265253E-03   3.07283129E-12   4.75014842E-03   4.99205239E-02   2.53148479E-02   4.41459271E-05   1.01307426E-13   2.00006249E-07   9.00028122E-06   5.48183671E-01   6.80021248E-05   1.20003750E-02   1.00003125E-10   4.74341194E-01   4.20211390E-02   1.80005624E-04   4.00012499E-04   1.70005312E-06   3.90012186E-05   8.96635777E-04
   8.75000000E+01   5.00000000E-01   5.00000000E-01  -4.55726884E-03   3.60485791E-12   4.75058151E-03   4.93888349E-02   3.09953609E-02   6.62048954E-05   7.20849358E-14   2.00024485E-07   9.00110182E-06   5.48233652E-01   6.80083248E-05   1.20014691E-02   1.00012242E-10   4.74492626E-01   4.72559823E-02   1.80022036E-04   4.00048970E-04   1.70020812E-06   3.90047745E-05   1.02834337E-03
   1.22500000E+02   5.00000000E-01   5.00000000E-01  -4.53553923E-03   4.18521146E-12   4.75128379E-03   4.88668656E-02   3.54959752E-02   8.82656797E-05   6.08528329E-14   2.00054054E-07   9.00243244E-06   5.48314697E-01   6.80183784E-05   1.20032433E-02   1.00027027E-10   4.74660257E-01   5.13117263E-02   1.80048649E-04   4.00108108E-04   1.70045946E-06   3.90105406E-05   1.11087914E-03
   1.57500000E+02   5.00000000E-01   5.00000000E-01  -4.51375478E-03   4.85899336E-12   4.75224091E-03   4.83490886E-02   3.89091375E-02   1.10329941E-04   5.61621319E-14   2.00094354E-07   9.00424593E-06   5.48425151E-01   6.80320803E-05   1.20056612E-02   1.00047177E-10   4.74849565E-01   5.42806943E-02   1.80084919E-04   4.00188708E-04   1.70080201E-06   3.90183990E-05   1.17513785E-03
   1.92500000E+02   5.00000000E-01   5.00000000E-01  -4.49063191E-03   5.63571826E-12   4.75344002E-03   4.78333022E-02   4.13673519E-02   1.32399195E-04   5.48614694E-14   2.00144843E-07   9.00651793E-06   5.48563533E-01   6.80492466E-05   1.20086906E-02   1.00072421E-10   4.75061990E-01   5.62952774E-02   1.80130359E-04   4.00289686E-04   1.70123117E-06   3.90282444E-05   1.23338194E-03
   2.27500000E+02   5.00000000E-01   5.00000000E-01  -4.46560974E-03   6.52468039E-12   4.75486958E-03   4.73184989E-02   4.30195477E-02   1.54474821E-04   5.57214203E-14   2.00205035E-07   9.00922658E-06   5.48728510E-01   6.80697119E-05   1.20123021E-02   1.00102518E-10   4.75297470E-01   5.75043006E-02   1.80184532E-04   4.00410070E-04   1.70174280E-06   3.90399818E-05   1.29045325E-03
   2.62500000E+02   5.00000000E-01   5.00000000E-01  -4.43837814E-03   7.53777853E-12   4.75651919E-03   4.68041288E-02   4.40134283E-02   1.76558069E-04   5.81778549E-14   2.00274492E-07   9.01235216E-06   5.48918881E-01   6.80933274E-05   1.20164695E-02   1.00137246E-10   4.75555428E-01   5.80553712E-02   1.80247043E-04   4.00548985E-04   1.70233319E-06   3.90535260E-05   1.34828891E-03
   2.97500000E+02   5.00000000E-01   5.00000000E-01  -4.40871863E-03   8.68922698E-12   4.75837947E-03   4.62898256E-02   4.44843589E-02   1.98650067E-04   6.19525650E-14   2.00352820E-07   9.01587689E-06   5.49133563E-01   6.81199587E-05   1.20211692E-02   1.00176410E-10   4.75835136E-01   5.80837652E-02   1.80317538E-04   4.00705640E-04   1.70299897E-06   3.90687999E-05   1.40767675E-03
   3.32500000E+02   5.00000000E-01   5.00000000E-01  -4.37644664E-03   9.99528856E-12   4.76044193E-03   4.57753025E-02   4.45512910E-02   2.20751833E-04   6.69033043E-14   2.00439660E-07   9.01978471E-06   5.49371578E-01   6.81494844E-05   1.20263796E-02   1.00219830E-10   4.76135858E-01   5.77083507E-02   1.80395694E-04   4.00879320E-04   1.70373711E-06   3.90857337E-05   1.46894135E-03
   3.67500000E+02   5.00000000E-01   5.00000000E-01  -4.34138997E-03   1.14742038E-11   4.76269889E-03   4.52603099E-02   4.43133735E-02   2.42864288E-04   7.29619728E-14   2.00534690E-07   9.02406106E-06   5.49632039E-01   6.81817946E-05   1.20320814E-02   1.00267345E-10   4.76456896E-01   5.70281990E-02   1.80481221E-04   4.01069380E-04   1.70454487E-06   3.91042646E-05   1.53221766E-03
   4.02500000E+02   5.00000000E-01   5.00000000E-01  -4.30338154E-03   1.31462477E-11   4.76514339E-03   4.47446191E-02   4.38492344E-02   2.64988257E-04   8.01068902E-14   2.00637617E-07   9.02869275E-06   5.49914143E-01   6.82167897E-05   1.20382570E-02   1.00318808E-10   4.76797608E-01   5.61218650E-02   1.80573855E-04   4.01275233E-04   1.70541974E-06   3.91243352E-05   1.59756271E-03
   4.37500000E+02   5.00000000E-01   5.00000000E-01  -4.26225838E-03   1.50338699E-11   4.76776912E-03   4.42280157E-02   4.32203736E-02   2.87124483E-04   8.83433412E-14   2.00748173E-07   9.03366780E-06   5.50217161E-01   6.82543790E-05   1.20448904E-02   1.00374087E-10   4.77157406E-01   5.50507803E-02   1.80673356E-04   4.01496347E-04   1.70635947E-06   3.91458938E-05   1.66500198E-03
   4.72500000E+02   5.00000000E-01   5.00000000E-01  -4.21786320E-03   1.71618781E-11   4.77057031E-03   4.37102980E-02   4.24743626E-02   3.09273629E-04   9.76924916E-14   2.00866119E-07   9.03897533E-06   5.50540429E-01   6.82944803E-05   1.20519671E-02   1.00433059E-10   4.77535757E-01   5.38624511E-02   1.80779507E-04   4.01732237E-04   1.70736201E-06   3.91688931E-05   1.73454893E-03
   5.07500000E+02   5.00000000E-01   5.00000000E-01  -4.17004711E-03   1.95576549E-11   4.77354176E-03   4.31912763E-02   4.16476642E-02   3.31436279E-04   1.08184552E-13   2.00991232E-07   9.04460543E-06   5.50883344E-01   6.83370188E-05   1.20594739E-02   1.00495616E-10   4.77932177E-01   5.25932789E-02   1.80892109E-04   4.01982464E-04   1.70842547E-06   3.91932902E-05   1.80621340E-03
   5.42500000E+02   5.00000000E-01   5.00000000E-01  -4.11867293E-03   2.22514042E-11   4.77667868E-03   4.26707746E-02   4.07680149E-02   3.53612948E-04   1.19854186E-13   2.01123313E-07   9.05054908E-06   5.51245356E-01   6.83819264E-05   1.20673988E-02   1.00561657E-10   4.78346225E-01   5.12709417E-02   1.81010982E-04   4.02246626E-04   1.70954816E-06   3.92190460E-05   1.88000525E-03
   5.77500000E+02   5.00000000E-01   5.00000000E-01  -4.06361894E-03   2.52764278E-11   4.77997675E-03   4.21486313E-02   3.98563785E-02   3.75804079E-04   1.32737113E-13   2.01262179E-07   9.05679806E-06   5.51625965E-01   6.84291409E-05   1.20757307E-02   1.00631090E-10   4.78777500E-01   4.99163473E-02   1.81135961E-04   4.02524358E-04   1.71072852E-06   3.92461249E-05   1.95593597E-03
   6.12500000E+02   5.00000000E-01   5.00000000E-01  -4.00478272E-03   2.86694325E-11   4.78343201E-03   4.16247008E-02   3.89285133E-02   3.98010048E-04   1.46867359E-13   2.01407664E-07   9.06334487E-06   5.52024714E-01   6.84786056E-05   1.20844598E-02   1.00703832E-10   4.79225637E-01   4.85452008E-02   1.81266897E-04   4.02815327E-04   1.71196514E-06   3.92744944E-05   2.03401943E-03
   6.47500000E+02   5.00000000E-01   5.00000000E-01  -3.94208505E-03   3.24708714E-11   4.78704085E-03   4.10988555E-02   3.79962087E-02   4.20231165E-04   1.62274824E-13   2.01559615E-07   9.07018267E-06   5.52441186E-01   6.85302691E-05   1.20935769E-02   1.00779808E-10   4.79690301E-01   4.71692400E-02   1.81403653E-04   4.03119230E-04   1.71325673E-06   3.93041249E-05   2.11427224E-03
   6.82500000E+02   5.00000000E-01   5.00000000E-01  -3.87547388E-03   3.67253231E-11   4.79079999E-03   4.05709874E-02   3.70682464E-02   4.42467678E-04   1.78983007E-13   2.01717894E-07   9.07730524E-06   5.52875003E-01   6.85840840E-05   1.21030736E-02   1.00858948E-10   4.80171186E-01   4.57971977E-02   1.81546105E-04   4.03435788E-04   1.71460210E-06   3.93349894E-05   2.19671403E-03
   7.17500000E+02   5.00000000E-01   5.00000000E-01  -3.80492799E-03   4.14819108E-11   4.79470640E-03   4.00410097E-02   3.61511412E-02   4.64719773E-04   1.97006798E-13   2.01882375E-07   9.08470687E-06   5.53325818E-01   6.86400075E-05   1.21129425E-02   1.00941189E-10   4.80668010E-01   4.44355409E-02   1.81694137E-04   4.03764750E-04   1.71600019E-06   3.93670631E-05   2.28136756E-03
   7.52500000E+02   5.00000000E-01   5.00000000E-01  -3.73046045E-03   4.67947655E-11   4.79875737E-03   3.95088585E-02   3.52497042E-02   4.86987582E-04   2.16350310E-13   2.02052942E-07   9.09238239E-06   5.53793314E-01   6.86980003E-05   1.21231765E-02   1.01026473E-10   4.81180511E-01   4.30890347E-02   1.81847648E-04   4.04105884E-04   1.71745001E-06   3.94003237E-05   2.36825892E-03
   7.87500000E+02   5.00000000E-01   5.00000000E-01  -3.65212160E-03   5.27235378E-11   4.80295040E-03   3.89744940E-02   3.43674691E-02   5.09271183E-04   2.37004753E-13   2.02229490E-07   9.10032707E-06   5.54277203E-01   6.87580268E-05   1.21337694E-02   1.01114748E-10   4.81708449E-01   4.17611681E-02   1.82006541E-04   4.04458981E-04   1.71895067E-06   3.94347506E-05   2.45741766E-03
   8.22500000E+02   5.00000000E-01   5.00000000E-01  -3.57000153E-03   5.93339588E-11   4.80728320E-03   3.84379017E-02   3.35070123E-02   5.31570611E-04   2.58946400E-13   2.02411924E-07   9.10853659E-06   5.54777224E-01   6.88200543E-05   1.21447155E-02   1.01205967E-10   4.82251599E-01   4.04544743E-02   1.82170732E-04   4.04823849E-04   1.72050136E-06   3.94703252E-05   2.54887682E-03
   8.57500000E+02   5.00000000E-01   5.00000000E-01  -3.48423175E-03   6.66984549E-11   4.81175372E-03   3.78990930E-02   3.26701916E-02   5.53885858E-04   2.82134685E-13   2.02600157E-07   9.11700704E-06   5.55293137E-01   6.88840532E-05   1.21560094E-02   1.01300086E-10   4.82809752E-01   3.91707686E-02   1.82340141E-04   4.05200313E-04   1.72210133E-06   3.95070305E-05   2.64267298E-03
   8.92500000E+02   5.00000000E-01   5.00000000E-01  -3.39498620E-03   7.48968138E-11   4.81636006E-03   3.73581053E-02   3.18583244E-02   5.76216887E-04   3.06510516E-13   2.02794108E-07   9.12573486E-06   5.55824726E-01   6.89499967E-05   1.21676465E-02   1.01397066E-10   4.83382712E-01   3.79113273E-02   1.82514697E-04   4.05588216E-04   1.72374992E-06   3.95448511E-05   2.73884613E-03
   9.27500000E+02   5.00000000E-01   5.00000000E-01  -3.30248124E-03   8.40168963E-11   4.82110054E-03   3.68150022E-02   3.10723195E-02   5.98563637E-04   3.31994916E-13   2.02993707E-07   9.13471681E-06   5.56371793E-01   6.90178603E-05   1.21796224E-02   1.01496872E-10   4.83970295E-01   3.66770189E-02   1.82694336E-04   4.05987414E-04   1.72544651E-06   3.95837728E-05   2.83743942E-03
   9.62500000E+02   5.00000000E-01   5.00000000E-01  -3.20697461E-03   9.41554428E-11   4.82597359E-03   3.62698723E-02   3.03127759E-02   6.20926032E-04   3.58487791E-13   2.03198888E-07   9.14394996E-06   5.56934160E-01   6.90876219E-05   1.21919333E-02   1.01599472E-10   4.84572329E-01   3.54684027E-02   1.82878999E-04   4.06397776E-04   1.72719055E-06   3.96237832E-05   2.93849901E-03
   9.97500000E+02   5.00000000E-01   5.00000000E-01  -3.10876346E-03   1.05418894E-10   4.83097783E-03   3.57228282E-02   2.95800555E-02   6.43303995E-04   3.85867339E-13   2.03409593E-07   9.15343167E-06   5.57511666E-01   6.91592615E-05   1.22045756E-02   1.01704837E-10   4.85188651E-01   3.42858021E-02   1.83068633E-04   4.06819185E-04   1.72898154E-06   3.96648706E-05   3.04207363E-03
   1.03250000E+03   5.00000000E-01   5.00000000E-01  -3.00818128E-03   1.17924274E-10   4.83611199E-03   3.51740042E-02   2.88743388E-02   6.65697455E-04   4.13989848E-13   2.03625768E-07   9.16315956E-06   5.58104167E-01   6.92327612E-05   1.22175461E-02   1.01812944E-10   4.85819107E-01   3.31293591E-02   1.83263191E-04   4.07251536E-04   1.73081903E-06   3.97070248E-05   3.14821395E-03
   1.06750000E+03   5.00000000E-01   5.00000000E-01  -2.90559387E-03   1.31800125E-10   4.84137496E-03   3.46235545E-02   2.81956660E-02   6.88106361E-04   4.42690002E-13   2.03847367E-07   9.17313150E-06   5.58711532E-01   6.93081047E-05   1.22308420E-02   1.01923770E-10   4.86463552E-01   3.19990765E-02   1.83462630E-04   4.07694733E-04   1.73270262E-06   3.97502365E-05   3.25697192E-03
   1.10250000E+03   5.00000000E-01   5.00000000E-01  -2.80139436E-03   1.47187486E-10   4.84676572E-03   3.40716495E-02   2.75439693E-02   7.10530689E-04   4.71781728E-13   2.04074346E-07   9.18334558E-06   5.59333644E-01   6.93852777E-05   1.22444608E-02   1.02037296E-10   4.87121851E-01   3.08948493E-02   1.83666912E-04   4.08148692E-04   1.73463194E-06   3.97944975E-05   3.36839988E-03
   1.13750000E+03   5.00000000E-01   5.00000000E-01  -2.69599743E-03   1.64240909E-10   4.85228339E-03   3.35184735E-02   2.69190976E-02   7.32970461E-04   5.01059574E-13   2.04306669E-07   9.19380010E-06   5.59970402E-01   6.94642674E-05   1.22584001E-02   1.02153508E-10   4.87793877E-01   2.98164898E-02   1.83876002E-04   4.08613338E-04   1.73660669E-06   3.98398004E-05   3.48254964E-03
   1.17250000E+03   5.00000000E-01   5.00000000E-01  -2.58983293E-03   1.83129517E-10   4.85792716E-03   3.29642199E-02   2.63208359E-02   7.55425748E-04   5.30300601E-13   2.04544302E-07   9.20449357E-06   5.60621714E-01   6.95450626E-05   1.22726581E-02   1.02272393E-10   4.88479509E-01   2.87637469E-02   1.84089871E-04   4.09088603E-04   1.73862656E-06   3.98861388E-05   3.59947150E-03
   1.20750000E+03   5.00000000E-01   5.00000000E-01  -2.48333897E-03   2.04038097E-10   4.86369637E-03   3.24090883E-02   2.57489216E-02   7.77896683E-04   5.59266762E-13   2.04787215E-07   9.21542469E-06   5.61287500E-01   6.96276532E-05   1.22872329E-02   1.02393941E-10   4.89178637E-01   2.77363217E-02   1.84308494E-04   4.09574431E-04   1.74069133E-06   3.99335070E-05   3.71921317E-03
   1.24250000E+03   5.00000000E-01   5.00000000E-01  -2.37695481E-03   2.27168219E-10   4.86959040E-03   3.18532797E-02   2.52030565E-02   8.00383471E-04   5.87707695E-13   2.05035385E-07   9.22659233E-06   5.61967691E-01   6.97120309E-05   1.23021231E-02   1.02518148E-10   4.89891160E-01   2.67338806E-02   1.84531847E-04   4.10070770E-04   1.74280077E-06   3.99819001E-05   3.84181880E-03
   1.27750000E+03   5.00000000E-01   5.00000000E-01  -2.27111382E-03   2.52739399E-10   4.87560875E-03   3.12969931E-02   2.46829180E-02   8.22886396E-04   6.15363875E-13   2.05288789E-07   9.23799552E-06   5.62662230E-01   6.97981884E-05   1.23173274E-02   1.02645011E-10   4.90616984E-01   2.57560655E-02   1.84759910E-04   4.10577579E-04   1.74495471E-06   4.00313139E-05   3.96732796E-03
   1.31250000E+03   5.00000000E-01   5.00000000E-01  -2.16623652E-03   2.80990293E-10   4.88175099E-03   3.07404212E-02   2.41881675E-02   8.45405826E-04   6.41970045E-13   2.05547410E-07   9.24963346E-06   5.63371066E-01   6.98861194E-05   1.23328446E-02   1.02774532E-10   4.91356025E-01   2.48025027E-02   1.84992669E-04   4.11094820E-04   1.74715299E-06   4.00817450E-05   4.09577476E-03
   1.34750000E+03   5.00000000E-01   5.00000000E-01  -2.06272420E-03   3.12179930E-10   4.88801678E-03   3.01837469E-02   2.37184580E-02   8.67942223E-04   6.67258848E-13   2.05811233E-07   9.26150548E-06   5.64094160E-01   6.99758192E-05   1.23486740E-02   1.02906716E-10   4.92108208E-01   2.38728100E-02   1.85230110E-04   4.11622466E-04   1.74939548E-06   4.01331904E-05   4.22718712E-03
   1.38250000E+03   5.00000000E-01   5.00000000E-01  -1.96095314E-03   3.46589008E-10   4.89440585E-03   2.96271403E-02   2.32734405E-02   8.90496141E-04   6.90964590E-13   2.06080246E-07   9.27361108E-06   5.64831481E-01   7.00672837E-05   1.23648148E-02   1.03041575E-10   4.92873468E-01   2.29666035E-02   1.85472222E-04   4.12160492E-04   1.75168209E-06   4.01856480E-05   4.36158615E-03
   1.41750000E+03   5.00000000E-01   5.00000000E-01  -1.86126965E-03   3.84521243E-10   4.90091798E-03   2.90707556E-02   2.28527689E-02   9.13068233E-04   7.12827068E-13   2.06354441E-07   9.28594986E-06   5.65583004E-01   7.01605100E-05   1.23812665E-02   1.03179122E-10   4.93651748E-01   2.20835022E-02   1.85718997E-04   4.12708883E-04   1.75401275E-06   4.02391160E-05   4.49898574E-03
   1.45250000E+03   5.00000000E-01   5.00000000E-01  -1.76398608E-03   4.26304794E-10   4.90755305E-03   2.85147288E-02   2.24561046E-02   9.35659245E-04   7.32595411E-13   2.06633813E-07   9.29852156E-06   5.66348713E-01   7.02554963E-05   1.23980288E-02   1.03319378E-10   4.94443002E-01   2.12231329E-02   1.85970431E-04   4.13267625E-04   1.75638741E-06   4.02935934E-05   4.63939236E-03
   1.48750000E+03   5.00000000E-01   5.00000000E-01  -1.66937780E-03   4.72293786E-10   4.91431098E-03   2.79591763E-02   2.20831206E-02   9.58270025E-04   7.50031889E-13   2.06918357E-07   9.31132606E-06   5.67128602E-01   7.03522413E-05   1.24151014E-02   1.03462370E-10   4.95247193E-01   2.03851337E-02   1.86226521E-04   4.13836714E-04   1.75880603E-06   4.03490796E-05   4.78280494E-03
   1.52250000E+03   5.00000000E-01   5.00000000E-01  -1.57768138E-03   5.22869936E-10   4.92119175E-03   2.74041938E-02   2.17335041E-02   9.80901510E-04   7.64915647E-13   2.07208074E-07   9.32436332E-06   5.67922667E-01   7.04507451E-05   1.24324844E-02   1.03608131E-10   4.96064294E-01   1.95691569E-02   1.86487266E-04   4.14416148E-04   1.76126863E-06   4.04055744E-05   4.92921510E-03
   1.55750000E+03   5.00000000E-01   5.00000000E-01  -1.48909362E-03   5.78444298E-10   4.92819542E-03   2.68498553E-02   2.14069590E-02   1.00355473E-03   7.77046350E-13   2.07502965E-07   9.33763343E-06   5.68730915E-01   7.05510081E-05   1.24501779E-02   1.03756701E-10   4.96894286E-01   1.87748719E-02   1.86752669E-04   4.15005930E-04   1.76377520E-06   4.04630782E-05   5.07860739E-03
   1.59250000E+03   5.00000000E-01   5.00000000E-01  -1.40377170E-03   6.39459160E-10   4.93532209E-03   2.62962138E-02   2.11032082E-02   1.02623079E-03   7.86247688E-13   2.07803035E-07   9.35113659E-06   5.69553357E-01   7.06530320E-05   1.24681821E-02   1.03908128E-10   4.97737162E-01   1.80019666E-02   1.87022732E-04   4.15606070E-04   1.76632580E-06   4.05215919E-05   5.23095969E-03
   1.62750000E+03   5.00000000E-01   5.00000000E-01  -1.32183418E-03   7.06390081E-10   4.94257190E-03   2.57433012E-02   2.08219947E-02   1.04893088E-03   7.92370709E-13   2.08108291E-07   9.36487308E-06   5.70390011E-01   7.07568188E-05   1.24864974E-02   1.04062472E-10   4.98592920E-01   1.72501489E-02   1.87297462E-04   4.16216581E-04   1.76892047E-06   4.05811167E-05   5.38624374E-03
   1.66250000E+03   5.00000000E-01   5.00000000E-01  -1.24336275E-03   7.79748107E-10   4.94994507E-03   2.51911298E-02   2.05630823E-02   1.07165626E-03   7.95296947E-13   2.08418740E-07   9.37884330E-06   5.71240901E-01   7.08623716E-05   1.25051244E-02   1.04219798E-10   4.99461568E-01   1.65191478E-02   1.87576866E-04   4.16837480E-04   1.77155929E-06   4.06416543E-05   5.54442571E-03
   1.69750000E+03   5.00000000E-01   5.00000000E-01  -1.16840458E-03   8.60082164E-10   4.95744186E-03   2.46396930E-02   2.03262564E-02   1.09440822E-03   7.94941263E-13   2.08734394E-07   9.39304773E-06   5.72106056E-01   7.09696940E-05   1.25240636E-02   1.04380187E-10   5.00343124E-01   1.58087134E-02   1.87860955E-04   4.17468788E-04   1.77424235E-06   4.07032068E-05   5.70546677E-03
   1.73250000E+03   5.00000000E-01   5.00000000E-01  -1.09697516E-03   9.47981653E-10   4.96506256E-03   2.40889675E-02   2.01113236E-02   1.11718811E-03   7.91254336E-13   2.09055266E-07   9.40748695E-06   5.72985511E-01   7.10787903E-05   1.25433159E-02   1.04543731E-10   5.01237609E-01   1.51186170E-02   1.88149739E-04   4.18110531E-04   1.77696976E-06   4.07657768E-05   5.86932366E-03
   1.76750000E+03   5.00000000E-01   5.00000000E-01  -1.02906150E-03   1.04407924E-09   4.97280752E-03   2.35389143E-02   1.99181109E-02   1.13999731E-03   7.84224727E-13   2.09381369E-07   9.42216162E-06   5.73879307E-01   7.11896656E-05   1.25628822E-02   1.04710536E-10   5.02145054E-01   1.44486503E-02   1.88443232E-04   4.18762739E-04   1.77974164E-06   4.08293670E-05   6.03594925E-03
   1.80250000E+03   5.00000000E-01   5.00000000E-01  -9.64625474E-04   1.14905390E-09   4.98067714E-03   2.29894814E-02   1.97464652E-02   1.16283719E-03   7.73880408E-13   2.09712722E-07   9.43707248E-06   5.74787489E-01   7.13023254E-05   1.25827633E-02   1.04880722E-10   5.03065497E-01   1.37986243E-02   1.88741450E-04   4.19425444E-04   1.78255814E-06   4.08939808E-05   6.20529300E-03
   1.83750000E+03   5.00000000E-01   5.00000000E-01  -9.03607203E-04   1.26363415E-09   4.98867187E-03   2.24406050E-02   1.95962510E-02   1.18570909E-03   7.60289664E-13   2.10049342E-07   9.45222038E-06   5.75710107E-01   7.14167762E-05   1.26029605E-02   1.05054430E-10   5.03998979E-01   1.31683679E-02   1.89044408E-04   4.20098683E-04   1.78541940E-06   4.09596216E-05   6.37730140E-03
   1.87250000E+03   5.00000000E-01   5.00000000E-01  -8.45928478E-04   1.38860162E-09   4.99679216E-03   2.18922118E-02   1.94673491E-02   1.20861433E-03   7.43561292E-13   2.10391249E-07   9.46760621E-06   5.76647218E-01   7.15330247E-05   1.26234749E-02   1.05231815E-10   5.04945548E-01   1.25577255E-02   1.89352124E-04   4.20782498E-04   1.78832562E-06   4.10262936E-05   6.55191823E-03
   1.90750000E+03   5.00000000E-01   5.00000000E-01  -7.91495993E-04   1.52479481E-09   5.00503856E-03   2.13442205E-02   1.93596533E-02   1.23155414E-03   7.23843981E-13   2.10738466E-07   9.48323096E-06   5.77598881E-01   7.16510784E-05   1.26443079E-02   1.05413057E-10   5.05905258E-01   1.19665547E-02   1.89664619E-04   4.21476932E-04   1.79127696E-06   4.10940008E-05   6.72908484E-03
   1.94250000E+03   5.00000000E-01   5.00000000E-01  -7.40204415E-04   1.67311326E-09   5.01341162E-03   2.07965440E-02   1.92730680E-02   1.25452964E-03   7.01324848E-13   2.11091016E-07   9.49909570E-06   5.78565161E-01   7.17709453E-05   1.26654609E-02   1.05598356E-10   5.06878165E-01   1.13947234E-02   1.89981914E-04   4.22182031E-04   1.79427363E-06   4.11627481E-05   6.90874025E-03
   1.97750000E+03   5.00000000E-01   5.00000000E-01  -6.91939216E-04   1.83452200E-09   5.02191194E-03   2.02490906E-02   1.92075045E-02   1.27754182E-03   6.76227078E-13   2.11448924E-07   9.51520158E-06   5.79546128E-01   7.18926341E-05   1.26869354E-02   1.05787938E-10   5.07864331E-01   1.08421060E-02   1.90304032E-04   4.22897848E-04   1.79731585E-06   4.12325402E-05   7.09082115E-03
   2.01250000E+03   5.00000000E-01   5.00000000E-01  -6.46579237E-04   2.01005646E-09   5.03054017E-03   1.97017655E-02   1.91628777E-02   1.30059145E-03   6.48806659E-13   2.11812218E-07   9.53154979E-06   5.80541855E-01   7.20161540E-05   1.27087331E-02   1.05982056E-10   5.08863820E-01   1.03085801E-02   1.90630996E-04   4.23624435E-04   1.80040385E-06   4.13033824E-05   7.27526191E-03
   2.04750000E+03   5.00000000E-01   5.00000000E-01  -6.03998973E-04   2.20082778E-09   5.03929697E-03   1.91544725E-02   1.91391015E-02   1.32367908E-03   6.19348270E-13   2.12180925E-07   9.54814163E-06   5.81552421E-01   7.21415145E-05   1.27308555E-02   1.06180993E-10   5.09876699E-01   9.79402225E-03   1.90962833E-04   4.24361850E-04   1.80353786E-06   4.13752804E-05   7.46199432E-03
   2.08250000E+03   5.00000000E-01   5.00000000E-01  -5.64070587E-04   2.40802870E-09   5.04818307E-03   1.86071150E-02   1.91360849E-02   1.34680495E-03   5.88160386E-13   2.12555077E-07   9.56497845E-06   5.82577908E-01   7.22687260E-05   1.27533046E-02   1.06385064E-10   5.10903040E-01   9.29830374E-03   1.91299569E-04   4.25110153E-04   1.80671815E-06   4.14482399E-05   7.65094743E-03
   2.11750000E+03   5.00000000E-01   5.00000000E-01  -5.26665635E-04   2.63294008E-09   5.05719921E-03   1.80595969E-02   1.91537278E-02   1.36996892E-03   5.55569718E-13   2.12934704E-07   9.58206167E-06   5.83618402E-01   7.23977993E-05   1.27760822E-02   1.06594619E-10   5.11942913E-01   8.82128622E-03   1.91641233E-04   4.25869407E-04   1.80994498E-06   4.15222672E-05   7.84204713E-03
   2.15250000E+03   5.00000000E-01   5.00000000E-01  -4.91656547E-04   2.87693811E-09   5.06634619E-03   1.75118238E-02   1.91919163E-02   1.39317043E-03   5.21915147E-13   2.13319840E-07   9.59939279E-06   5.84673995E-01   7.25287455E-05   1.27991904E-02   1.06810045E-10   5.12996394E-01   8.36281739E-03   1.91987856E-04   4.26639679E-04   1.81321864E-06   4.15973687E-05   8.03521582E-03
   2.18750000E+03   5.00000000E-01   5.00000000E-01  -4.58917856E-04   3.14150244E-09   5.07562483E-03   1.69637037E-02   1.92505188E-02   1.41640839E-03   4.87541336E-13   2.13710519E-07   9.61697336E-06   5.85744782E-01   7.26615765E-05   1.28226312E-02   1.07031770E-10   5.14063558E-01   7.92272671E-03   1.92339467E-04   4.27421038E-04   1.81653941E-06   4.16735512E-05   8.23037178E-03
   2.22250000E+03   5.00000000E-01   5.00000000E-01  -4.28327222E-04   3.42822541E-09   5.08503599E-03   1.64151480E-02   1.93293816E-02   1.43968104E-03   4.52792227E-13   2.14106778E-07   9.63480502E-06   5.86830862E-01   7.27963046E-05   1.28464067E-02   1.07260267E-10   5.15144484E-01   7.50082145E-03   1.92696100E-04   4.28213557E-04   1.81990762E-06   4.17508218E-05   8.42742866E-03
   2.25750000E+03   5.00000000E-01   5.00000000E-01  -3.99766258E-04   3.73882252E-09   5.09458055E-03   1.58660718E-02   1.94283260E-02   1.46298591E-03   4.18004633E-13   2.14508655E-07   9.65288946E-06   5.87932339E-01   7.29329426E-05   1.28705193E-02   1.07496055E-10   5.16239247E-01   7.09688316E-03   1.93057789E-04   4.29017310E-04   1.82332357E-06   4.18291877E-05   8.62629472E-03
   2.29250000E+03   5.00000000E-01   5.00000000E-01  -3.73121187E-04   4.07514454E-09   5.10425946E-03   1.53163946E-02   1.95471448E-02   1.48631961E-03   3.83502158E-13   2.14916188E-07   9.67122844E-06   5.89049318E-01   7.30715038E-05   1.28949713E-02   1.07739704E-10   5.17347928E-01   6.71066460E-03   1.93424569E-04   4.29832375E-04   1.82678760E-06   4.19086566E-05   8.82687202E-03
   2.32750000E+03   5.00000000E-01   5.00000000E-01  -3.48283367E-04   4.43919163E-09   5.11407367E-03   1.47660414E-02   1.96856000E-02   1.50967772E-03   3.49589624E-13   2.15329418E-07   9.68982379E-06   5.90181912E-01   7.32120020E-05   1.29197651E-02   1.07991838E-10   5.18470605E-01   6.34188740E-03   1.93796476E-04   4.30658835E-04   1.83030005E-06   4.19892364E-05   9.02905544E-03
   2.36250000E+03   5.00000000E-01   5.00000000E-01  -3.25149691E-04   4.83312985E-09   5.12402418E-03   1.42149424E-02   1.98434213E-02   1.53305450E-03   3.16548194E-13   2.15748386E-07   9.70867739E-06   5.91330236E-01   7.33544514E-05   1.29449032E-02   1.08253138E-10   5.19607357E-01   5.99024042E-03   1.94173548E-04   4.31496773E-04   1.83386128E-06   4.20709354E-05   9.23273164E-03
   2.39750000E+03   5.00000000E-01   5.00000000E-01  -3.03622907E-04   5.25931089E-09   5.13411202E-03   1.36630345E-02   2.00203054E-02   1.55644275E-03   2.84631321E-13   2.16173138E-07   9.72779120E-06   5.92494408E-01   7.34988669E-05   1.29703883E-02   1.08524347E-10   5.20758260E-01   5.65537899E-03   1.94555824E-04   4.32346276E-04   1.83747167E-06   4.21537619E-05   9.43777768E-03
   2.43250000E+03   5.00000000E-01   5.00000000E-01  -2.83611856E-04   5.72029579E-09   5.14433827E-03   1.31102614E-02   2.02159158E-02   1.57983342E-03   2.54061616E-13   2.16603717E-07   9.74716725E-06   5.93674553E-01   7.36452637E-05   1.29962230E-02   1.08806275E-10   5.21923391E-01   5.33692495E-03   1.94943345E-04   4.33207433E-04   1.84113159E-06   4.22377247E-05   9.64405962E-03
   2.46750000E+03   5.00000000E-01   5.00000000E-01  -2.65031683E-04   6.21888374E-09   5.15470402E-03   1.25565747E-02   2.04298841E-02   1.60321526E-03   2.25028685E-13   2.17040169E-07   9.76680761E-06   5.94870796E-01   7.37936575E-05   1.30224101E-02   1.09099801E-10   5.23102825E-01   5.03446761E-03   1.95336152E-04   4.34080338E-04   1.84484144E-06   4.23228330E-05   9.85143065E-03
   2.50250000E+03   5.00000000E-01   5.00000000E-01  -2.47804010E-04   6.75814758E-09   5.16521040E-03   1.20019345E-02   2.06618115E-02   1.62657432E-03   1.97687924E-13   2.17482543E-07   9.78671444E-06   5.96083269E-01   7.39440647E-05   1.30489526E-02   1.09405874E-10   5.24296633E-01   4.74756545E-03   1.95734289E-04   4.34965086E-04   1.84860162E-06   4.24090959E-05   1.00597290E-02
   2.53750000E+03   5.00000000E-01   5.00000000E-01  -2.31857129E-04   7.34147819E-09   5.17585859E-03   1.14463111E-02   2.09112712E-02   1.64989335E-03   1.72160229E-13   2.17930888E-07   9.80688996E-06   5.97312107E-01   7.40965019E-05   1.30758533E-02   1.09725528E-10   5.25504884E-01   4.47574865E-03   1.96137799E-04   4.35861776E-04   1.85241255E-06   4.24965232E-05   1.02687756E-02
   2.57250000E+03   5.00000000E-01   5.00000000E-01  -2.17126214E-04   7.97264047E-09   5.18664979E-03   1.08896858E-02   2.11778118E-02   1.67315099E-03   1.48532539E-13   2.18385254E-07   9.82733644E-06   5.98557449E-01   7.42509864E-05   1.31031153E-02   1.10059872E-10   5.26727641E-01   4.21852216E-03   1.96546729E-04   4.36770509E-04   1.85627466E-06   4.25851246E-05   1.04783705E-02
   2.60750000E+03   5.00000000E-01   5.00000000E-01  -2.03553606E-04   8.65584520E-09   5.19758523E-03   1.03320532E-02   2.14609608E-02   1.69632069E-03   1.26859091E-13   2.18845694E-07   9.84805623E-06   5.99819438E-01   7.44075360E-05   1.31307416E-02   1.10410108E-10   5.27964962E-01   3.97536932E-03   1.96961125E-04   4.37691388E-04   1.86018840E-06   4.26749103E-05   1.06882899E-02