 TITLE = "Total Concentrations" 
VARIABLES = "X"          "Y"              "Z"            "H+"             "Al+++"          "CO2(aq)"        "Mg++"           "Ca++"           "Fe++"           "Fe+++"          "Ba++"           "Sr++"           "Cl-"            "F-"             "K+"             "HS-"            "Na+"            "SO4--"          "O2(aq)"         "B(OH)3(aq)"     "HPO4--"         "NO3-"           "H4SiO4(aq)"    
 ZONE I=         100 , J=           1 , K=           1  F=POINT
   1.75000000E+01   5.00000000E-01   5.00000000E-01  -4.66884621E-03   9.05634090E-12   4.75010909E-03   4.95626343E-02   1.07512308E-02   1.00815464E-03   7.48360677E-13   2.00004593E-07   9.00020669E-06   5.48179132E-01   6.80015617E-05   1.20002756E-02   1.18012132E-10   4.74296951E-01   2.80006431E-02   1.79968097E-08   4.00009186E-04   1.70003904E-06   3.90008957E-05   4.17912627E-04
   5.25000000E+01   5.00000000E-01   5.00000000E-01  -4.67512023E-03   1.36690316E-11   4.75063957E-03   4.81873763E-02   1.11035358E-02   1.93128009E-03   5.98229413E-13   2.00026929E-07   9.00121182E-06   5.48240352E-01   6.80091559E-05   1.20016158E-02   1.36067711E-10   4.74569024E-01   2.80037701E-02   1.79952083E-08   4.00053859E-04   1.70022890E-06   3.90052512E-05   5.09986619E-04
   8.75000000E+01   5.00000000E-01   5.00000000E-01  -4.66660754E-03   1.82101622E-11   4.75176954E-03   4.69379016E-02   1.14574349E-02   2.74145366E-03   5.77035723E-13   2.00074507E-07   9.00335281E-06   5.48370754E-01   6.80253324E-05   1.20044704E-02   1.54176622E-10   4.74872207E-01   2.80104310E-02   1.79958695E-08   4.00149014E-04   1.70063331E-06   3.90145289E-05   5.67719118E-04
   1.22500000E+02   5.00000000E-01   5.00000000E-01  -4.63669658E-03   2.36850672E-11   4.75345252E-03   4.58114620E-02   1.18129447E-02   3.43374367E-03   5.74192261E-13   2.00145369E-07   9.00654161E-06   5.48564976E-01   6.80494255E-05   1.20087222E-02   1.72343999E-10   4.75209420E-01   2.80203517E-02   1.79986160E-08   4.00290738E-04   1.70123564E-06   3.90283470E-05   6.22710326E-04
   1.57500000E+02   5.00000000E-01   5.00000000E-01  -4.58913519E-03   3.04474402E-11   4.75564895E-03   4.47985607E-02   1.21700860E-02   4.01781880E-03   5.78496275E-13   2.00237850E-07   9.01070327E-06   5.48818451E-01   6.80808692E-05   1.20142710E-02   1.90574673E-10   4.75579092E-01   2.80332991E-02   1.80032969E-08   4.00475701E-04   1.70202173E-06   3.90463808E-05   6.79187781E-04
   1.92500000E+02   5.00000000E-01   5.00000000E-01  -4.52794307E-03   3.87401395E-11   4.75832501E-03   4.38840169E-02   1.25288830E-02   4.50915701E-03   5.88722300E-13   2.00350527E-07   9.01577370E-06   5.49127278E-01   6.81191790E-05   1.20210316E-02   2.08873064E-10   4.75980384E-01   2.80490738E-02   1.80097831E-08   4.00701053E-04   1.70297948E-06   3.90683527E-05   7.37247673E-04
   2.27500000E+02   5.00000000E-01   5.00000000E-01  -4.45578323E-03   4.88269481E-11   4.76145164E-03   4.30509437E-02   1.28893626E-02   4.92414700E-03   6.04188926E-13   2.00482174E-07   9.02169785E-06   5.49488102E-01   6.81639393E-05   1.20289305E-02   2.27243223E-10   4.76413279E-01   2.80675045E-02   1.80179635E-08   4.00964349E-04   1.70409848E-06   3.90940240E-05   7.96748352E-04
   2.62500000E+02   5.00000000E-01   5.00000000E-01  -4.37415991E-03   6.10225383E-11   4.76500382E-03   4.22832686E-02   1.32515548E-02   5.27785159E-03   6.24033672E-13   2.00631740E-07   9.02842829E-06   5.49898036E-01   6.82147915E-05   1.20379044E-02   2.45688927E-10   4.76878119E-01   2.80884437E-02   1.80277424E-08   4.01263479E-04   1.70536979E-06   3.91231892E-05   8.57728872E-04
   2.97500000E+02   5.00000000E-01   5.00000000E-01  -4.28381062E-03   7.57024238E-11   4.76895988E-03   4.15668770E-02   1.36154916E-02   5.58317591E-03   6.47345755E-13   2.00798311E-07   9.03592398E-06   5.50354579E-01   6.82714256E-05   1.20478986E-02   2.64213761E-10   4.77375296E-01   2.81117636E-02   1.80390371E-08   4.01596621E-04   1.70678564E-06   3.91556706E-05   9.20345292E-04
   3.32500000E+02   5.00000000E-01   5.00000000E-01  -4.18501584E-03   9.33103567E-11   4.77330104E-03   4.08899427E-02   1.39812073E-02   5.85073309E-03   6.73258028E-13   2.00981096E-07   9.04414934E-06   5.50855564E-01   6.83335728E-05   1.20588658E-02   2.82821190E-10   4.77905107E-01   2.81373537E-02   1.80517755E-08   4.01962193E-04   1.70833932E-06   3.91913138E-05   9.84799750E-04
   3.67500000E+02   5.00000000E-01   5.00000000E-01  -4.07781935E-03   1.14366874E-10   4.77801099E-03   4.02428481E-02   1.43487383E-02   6.08903155E-03   7.00972904E-13   2.01179410E-07   9.05307346E-06   5.51399109E-01   6.84009995E-05   1.20707646E-02   3.01514603E-10   4.78467706E-01   2.81651176E-02   1.80658952E-08   4.02358821E-04   1.71002499E-06   3.92299850E-05   1.05130355E-03
   4.02500000E+02   5.00000000E-01   5.00000000E-01  -3.96218499E-03   1.39480163E-10   4.78307553E-03   3.96179299E-02   1.47181227E-02   6.30478653E-03   7.29759576E-13   2.01392654E-07   9.06266942E-06   5.51983574E-01   6.84735023E-05   1.20835592E-02   3.20297335E-10   4.79063106E-01   2.81949717E-02   1.80813415E-08   4.02785308E-04   1.71183756E-06   3.92715675E-05   1.12006049E-03
   4.37500000E+02   5.00000000E-01   5.00000000E-01  -3.83811057E-03   1.69358632E-10   4.78848227E-03   3.90091773E-02   1.50894004E-02   6.50325166E-03   7.58946873E-13   2.01620306E-07   9.07291377E-06   5.52607531E-01   6.85509041E-05   1.20972184E-02   3.39172676E-10   4.79691196E-01   2.82268431E-02   1.80980668E-08   4.03240612E-04   1.71377260E-06   3.93159597E-05   1.19126232E-03
   4.72500000E+02   5.00000000E-01   5.00000000E-01  -3.70571111E-03   2.04825618E-10   4.79422042E-03   3.84119410E-02   1.54626127E-02   6.68852379E-03   7.87916527E-13   2.01861912E-07   9.08378605E-06   5.53269733E-01   6.86330502E-05   1.21117147E-02   3.58143878E-10   4.80351767E-01   2.82606679E-02   1.81160295E-08   4.03723825E-04   1.71582625E-06   3.93630729E-05   1.26508901E-03
   5.07500000E+02   5.00000000E-01   5.00000000E-01  -3.56527781E-03   2.46836524E-10   4.80028056E-03   3.78226783E-02   1.58378023E-02   6.86380320E-03   8.16099096E-13   2.02117076E-07   9.09526844E-06   5.53969095E-01   6.87198060E-05   1.21270246E-02   3.77214151E-10   4.81044536E-01   2.82963909E-02   1.81351933E-08   4.04234153E-04   1.71799515E-06   3.94128299E-05   1.34171071E-03
   5.42500000E+02   5.00000000E-01   5.00000000E-01  -3.41731650E-03   2.96498403E-10   4.80665451E-03   3.72387392E-02   1.62150132E-02   7.03160607E-03   8.42973254E-13   2.02385453E-07   9.10734539E-06   5.54704671E-01   6.88110541E-05   1.21431272E-02   3.96386657E-10   4.81769168E-01   2.83339637E-02   1.81555264E-08   4.04770906E-04   1.72027635E-06   3.94651634E-05   1.42129016E-03
   5.77500000E+02   5.00000000E-01   5.00000000E-01  -3.26256654E-03   3.55092190E-10   4.81333513E-03   3.66581890E-02   1.65942906E-02   7.19393299E-03   8.68067677E-13   2.02666742E-07   9.12000341E-06   5.55475638E-01   6.89066924E-05   1.21600045E-02   4.15664512E-10   4.82525289E-01   2.83733442E-02   1.81770012E-08   4.05333485E-04   1.72266731E-06   3.95200148E-05   1.50398440E-03
   6.12500000E+02   5.00000000E-01   5.00000000E-01  -3.10200083E-03   4.24097720E-10   4.82031624E-03   3.60796637E-02   1.69756809E-02   7.35239946E-03   8.90964697E-13   2.02960684E-07   9.13323077E-06   5.56281282E-01   6.90066325E-05   1.21776410E-02   4.35050784E-10   4.83312507E-01   2.84144960E-02   1.81995935E-08   4.05921367E-04   1.72516581E-06   3.95773333E-05   1.58994566E-03
   6.47500000E+02   5.00000000E-01   5.00000000E-01  -2.93680764E-03   5.05221543E-10   4.82759248E-03   3.55022486E-02   1.73592311E-02   7.50833502E-03   9.11304758E-13   2.03267052E-07   9.14701734E-06   5.57120986E-01   6.91107977E-05   1.21960231E-02   4.54548489E-10   4.84130418E-01   2.84573876E-02   1.82232825E-08   4.06534104E-04   1.72776994E-06   3.96370751E-05   1.67932098E-03
   6.82500000E+02   5.00000000E-01   5.00000000E-01  -2.76835573E-03   6.00427567E-10   4.83515927E-03   3.49253760E-02   1.77449895E-02   7.66285718E-03   9.28790672E-13   2.03585654E-07   9.16135441E-06   5.57994220E-01   6.92191222E-05   1.22151392E-02   4.74160595E-10   4.84978623E-01   2.85019918E-02   1.82480500E-08   4.07171307E-04   1.73047806E-06   3.96992025E-05   1.77225078E-03
   7.17500000E+02   5.00000000E-01   5.00000000E-01  -2.59814547E-03   7.11970436E-10   4.84301268E-03   3.43487364E-02   1.81330052E-02   7.81692514E-03   9.43190722E-13   2.03916323E-07   9.17623456E-06   5.58900530E-01   6.93315500E-05   1.22349794E-02   4.93890023E-10   4.85856734E-01   2.85482856E-02   1.82738808E-08   4.07832647E-04   1.73328875E-06   3.97636831E-05   1.86886645E-03
   7.52500000E+02   5.00000000E-01   5.00000000E-01  -2.42774972E-03   8.42431580E-10   4.85114939E-03   3.37722021E-02   1.85233276E-02   7.97137824E-03   9.54339803E-13   2.04258921E-07   9.19165147E-06   5.59839534E-01   6.94480333E-05   1.22555353E-02   5.13739648E-10   4.86764389E-01   2.85962494E-02   1.83007615E-08   4.08517843E-04   1.73620083E-06   3.98304897E-05   1.96928735E-03
   7.87500000E+02   5.00000000E-01   5.00000000E-01  -2.25874937E-03   9.94757898E-10   4.85956661E-03   3.31957602E-02   1.89160072E-02   8.12696253E-03   9.62138090E-13   2.04613331E-07   9.20759989E-06   5.60810911E-01   6.95685325E-05   1.22767998E-02   5.33712298E-10   4.87701254E-01   2.86458667E-02   1.83286810E-08   4.09226662E-04   1.73921331E-06   3.98995995E-05   2.07361762E-03
   8.22500000E+02   5.00000000E-01   5.00000000E-01  -2.09266893E-03   1.17230309E-09   4.86826206E-03   3.26194549E-02   1.93110946E-02   8.28434893E-03   9.66547077E-13   2.04979455E-07   9.22407549E-06   5.61814397E-01   6.96930148E-05   1.22987673E-02   5.53810754E-10   4.88667037E-01   2.86971241E-02   1.83576301E-08   4.09958911E-04   1.74232537E-06   3.99709938E-05   2.18194320E-03
   8.57500000E+02   5.00000000E-01   5.00000000E-01  -1.93091727E-03   1.37887174E-09   4.87723392E-03   3.20433400E-02   1.97086405E-02   8.44414536E-03   9.67583235E-13   2.05357218E-07   9.24107480E-06   5.62849780E-01   6.98214540E-05   1.23214331E-02   5.74037744E-10   4.89661495E-01   2.87500109E-02   1.83876014E-08   4.10714435E-04   1.74553635E-06   4.00446574E-05   2.29432951E-03
   8.92500000E+02   5.00000000E-01   5.00000000E-01  -1.77473809E-03   1.61876643E-09   4.88648075E-03   3.14674408E-02   2.01086959E-02   8.60690502E-03   9.65309865E-13   2.05746558E-07   9.25859511E-06   5.63916897E-01   6.99538297E-05   1.23447935E-02   5.94395939E-10   4.90684435E-01   2.88045185E-02   1.84185889E-08   4.11493116E-04   1.74884574E-06   4.01205788E-05   2.41082009E-03
   9.27500000E+02   5.00000000E-01   5.00000000E-01  -1.62517319E-03   1.89683814E-09   4.89600152E-03   3.08917269E-02   2.05113112E-02   8.77313208E-03   9.59827958E-13   2.06147432E-07   9.27663445E-06   5.65015627E-01   7.00901270E-05   1.23688459E-02   6.14887944E-10   4.91735718E-01   2.88606409E-02   1.84505880E-08   4.12294865E-04   1.75225317E-06   4.01987493E-05   2.53143636E-03
   9.62500000E+02   5.00000000E-01   5.00000000E-01  -1.48304029E-03   2.21854042E-09   4.90579551E-03   3.03160938E-02   2.09165366E-02   8.94328610E-03   9.51266929E-13   2.06559811E-07   9.29519148E-06   5.66145887E-01   7.02303357E-05   1.23935886E-02   6.35516284E-10   4.92815265E-01   2.89183739E-02   1.84835956E-08   4.13119622E-04   1.75575839E-06   4.02791631E-05   2.65617843E-03
   9.97500000E+02   5.00000000E-01   5.00000000E-01  -1.34892507E-03   2.58998810E-09   4.91586233E-03   2.97403550E-02   2.13244210E-02   9.11778556E-03   9.39775967E-13   2.06983677E-07   9.31426547E-06   5.67307634E-01   7.03744502E-05   1.24190206E-02   6.56283392E-10   4.93923051E-01   2.89777152E-02   1.85176098E-08   4.13967354E-04   1.75936126E-06   4.03618170E-05   2.78502680E-03
   1.03250000E+03   5.00000000E-01   5.00000000E-01  -1.22318629E-03   3.01802136E-09   4.92620190E-03   2.91642408E-02   2.17350124E-02   9.29701116E-03   9.25516587E-13   2.07419027E-07   9.33385623E-06   5.68500856E-01   7.05224693E-05   1.24451416E-02   6.77191590E-10   4.95059105E-01   2.90386642E-02   1.85526297E-08   4.14838055E-04   1.76306173E-06   4.04467103E-05   2.91794452E-03
   1.06750000E+03   5.00000000E-01   5.00000000E-01  -1.10597132E-03   3.51027572E-09   4.93681439E-03   2.85874045E-02   2.21483568E-02   9.48130866E-03   9.08656897E-13   2.07865869E-07   9.35396411E-06   5.69725574E-01   7.06743955E-05   1.24719521E-02   6.98243074E-10   4.96223506E-01   2.91012220E-02   1.85886556E-08   4.15731738E-04   1.76685989E-06   4.05338445E-05   3.05487968E-03
   1.10250000E+03   5.00000000E-01   5.00000000E-01  -9.97239289E-04   4.07525656E-09   4.94770022E-03   2.80094330E-02   2.25644983E-02   9.67099119E-03   8.89367932E-13   2.08324220E-07   9.37458990E-06   5.70981837E-01   7.08302348E-05   1.24994532E-02   7.19439886E-10   4.97416379E-01   2.91653911E-02   1.86256887E-08   4.16648440E-04   1.77075587E-06   4.06232229E-05   3.19576828E-03
   1.13750000E+03   5.00000000E-01   5.00000000E-01  -8.96788599E-04   4.72241806E-09   4.95886006E-03   2.74298615E-02   2.29834783E-02   9.86634066E-03   8.67821727E-13   2.08794108E-07   9.39573485E-06   5.72269721E-01   7.09899967E-05   1.25276465E-02   7.40783899E-10   4.98637885E-01   2.92311753E-02   1.86637310E-08   4.17588216E-04   1.77474992E-06   4.07148510E-05   3.34053713E-03
   1.17250000E+03   5.00000000E-01   5.00000000E-01  -8.04286156E-04   5.46224822E-09   4.97029477E-03   2.68481893E-02   2.34053355E-02   1.00676084E-02   8.44190495E-13   2.09275569E-07   9.41740062E-06   5.73589327E-01   7.11536936E-05   1.25565342E-02   7.62276789E-10   4.99888223E-01   2.92985798E-02   1.87027856E-08   4.18551139E-04   1.77884234E-06   4.08087360E-05   3.48910638E-03
   1.20750000E+03   5.00000000E-01   5.00000000E-01  -7.19295937E-04   6.30636332E-09   4.98200542E-03   2.62638965E-02   2.38301052E-02   1.02750153E-02   8.18646415E-13   2.09768649E-07   9.43958922E-06   5.74940777E-01   7.13213408E-05   1.25861190E-02   7.83920018E-10   5.01167617E-01   2.93676109E-02   1.87428562E-08   4.19537299E-04   1.78303352E-06   4.09048866E-05   3.64139113E-03
   1.24250000E+03   5.00000000E-01   5.00000000E-01  -6.41305351E-04   7.26761686E-09   4.99399327E-03   2.56764598E-02   2.42578190E-02   1.04887519E-02   7.91361665E-13   2.10273401E-07   9.46230304E-06   5.76324216E-01   7.14929563E-05   1.26164041E-02   8.05714807E-10   5.02476312E-01   2.94382759E-02   1.87839474E-08   4.20546802E-04   1.78732391E-06   4.10033132E-05   3.79730172E-03
   1.27750000E+03   5.00000000E-01   5.00000000E-01  -5.69748502E-04   8.36021173E-09   5.00625974E-03   2.50853675E-02   2.46885043E-02   1.07089770E-02   7.62509750E-13   2.10789884E-07   9.48554477E-06   5.77739809E-01   7.16685605E-05   1.26473930E-02   8.27662120E-10   5.03814573E-01   2.95105833E-02   1.88260643E-08   4.21579767E-04   1.79171401E-06   4.11040273E-05   3.95674433E-03
   1.31250000E+03   5.00000000E-01   5.00000000E-01  -5.04025788E-04   9.59980291E-09   5.01880641E-03   2.44901340E-02   2.51221837E-02   1.09358146E-02   7.32267820E-13   2.11318165E-07   9.50931740E-06   5.79187739E-01   7.18481759E-05   1.26790899E-02   8.49762647E-10   5.05182673E-01   2.95845422E-02   1.88692129E-08   4.22636329E-04   1.79620440E-06   4.12070421E-05   4.11962286E-03
   1.34750000E+03   5.00000000E-01   5.00000000E-01  -4.43519504E-04   1.10036018E-08   5.03163501E-03   2.38903136E-02   2.55588754E-02   1.11693497E-02   7.00818103E-13   2.11858316E-07   9.53362422E-06   5.80668204E-01   7.20318275E-05   1.27114990E-02   8.72016785E-10   5.06580895E-01   2.96601629E-02   1.89133997E-08   4.23716632E-04   1.80079569E-06   4.13123716E-05   4.28584094E-03
   1.38250000E+03   5.00000000E-01   5.00000000E-01  -3.87605822E-04   1.25904667E-08   5.04474740E-03   2.32855129E-02   2.59985932E-02   1.14096224E-02   6.68349164E-13   2.12410417E-07   9.55846876E-06   5.82181419E-01   7.22195417E-05   1.27446250E-02   8.94424631E-10   5.08009528E-01   2.97374562E-02   1.89586316E-08   4.24820834E-04   1.80548854E-06   4.14200313E-05   4.45530445E-03
   1.41750000E+03   5.00000000E-01   5.00000000E-01  -3.35663093E-04   1.43810825E-08   5.05814557E-03   2.26753991E-02   2.64413461E-02   1.16566248E-02   6.35053000E-13   2.12974550E-07   9.58385477E-06   5.83727615E-01   7.24113472E-05   1.27784730E-02   9.16985974E-10   5.09468859E-01   2.98164337E-02   1.90049163E-08   4.25949101E-04   1.81028368E-06   4.15300373E-05   4.62791828E-03
   1.45250000E+03   5.00000000E-01   5.00000000E-01  -2.87076942E-04   1.63984285E-08   5.07183163E-03   2.20597016E-02   2.68871369E-02   1.19103063E-02   6.01116554E-13   2.13550806E-07   9.60978625E-06   5.85307034E-01   7.26072739E-05   1.28130483E-02   9.39700290E-10   5.10959174E-01   2.98971077E-02   1.90522618E-08   4.27101611E-04   1.81518185E-06   4.16424071E-05   4.80356757E-03
   1.48750000E+03   5.00000000E-01   5.00000000E-01  -2.41245835E-04   1.86675379E-08   5.08580780E-03   2.14382265E-02   2.73359624E-02   1.21705597E-02   5.66738244E-13   2.14139276E-07   9.63626740E-06   5.86919932E-01   7.28073537E-05   1.28483565E-02   9.62566747E-10   5.12480755E-01   2.99794908E-02   1.91006769E-08   4.28278551E-04   1.82018384E-06   4.17571587E-05   4.98213470E-03
   1.52250000E+03   5.00000000E-01   5.00000000E-01  -1.97582905E-04   2.12152554E-08   5.10007637E-03   2.08108733E-02   2.77878161E-02   1.24372020E-02   5.32130341E-13   2.14740058E-07   9.66330260E-06   5.88566575E-01   7.30116196E-05   1.28844035E-02   9.85584211E-10   5.14033882E-01   3.00635963E-02   1.91501704E-08   4.29480115E-04   1.82529049E-06   4.18743112E-05   5.16351929E-03
   1.55750000E+03   5.00000000E-01   5.00000000E-01  -1.55514258E-04   2.40710164E-08   5.11463977E-03   2.01776339E-02   2.82426869E-02   1.27099772E-02   4.97498933E-13   2.15353253E-07   9.69089640E-06   5.90247242E-01   7.32201062E-05   1.29211952E-02   1.00875125E-09   5.15618831E-01   3.01494374E-02   1.92007519E-08   4.30706507E-04   1.83050265E-06   4.19938844E-05   5.34761308E-03
   1.59250000E+03   5.00000000E-01   5.00000000E-01  -1.14478270E-04   2.72677376E-08   5.12950049E-03   1.95385863E-02   2.87005561E-02   1.29885669E-02   4.63037790E-13   2.15978968E-07   9.71905356E-06   5.91962221E-01   7.34328491E-05   1.29587381E-02   1.03206617E-09   5.17235867E-01   3.02370273E-02   1.92524312E-08   4.31957936E-04   1.83582123E-06   4.21158987E-05   5.53426315E-03
   1.62750000E+03   5.00000000E-01   5.00000000E-01  -7.39277109E-05   3.08406116E-08   5.14466111E-03   1.88939165E-02   2.91613989E-02   1.32725637E-02   4.28952129E-13   2.16617310E-07   9.74777895E-06   5.93711810E-01   7.36498854E-05   1.29970386E-02   1.05552702E-09   5.18885251E-01   3.03263787E-02   1.93052185E-08   4.33234620E-04   1.84124714E-06   4.22403755E-05   5.72330422E-03
   1.66250000E+03   5.00000000E-01   5.00000000E-01  -3.33276753E-05   3.48270203E-08   5.16012431E-03   1.82439318E-02   2.96251857E-02   1.35614530E-02   3.95449959E-13   2.17268392E-07   9.77707765E-06   5.95496317E-01   7.38712533E-05   1.30361035E-02   1.07913160E-09   5.20567246E-01   3.04175029E-02   1.93591243E-08   4.34536784E-04   1.84678133E-06   4.23673365E-05   5.91456799E-03
   1.69750000E+03   5.00000000E-01   5.00000000E-01   7.84684289E-06   3.92674965E-08   5.17589283E-03   1.75890617E-02   3.00918799E-02   1.38546109E-02   3.62727758E-13   2.17932330E-07   9.80695484E-06   5.97316059E-01   7.40969921E-05   1.30759398E-02   1.10287753E-09   5.22282115E-01   3.05104077E-02   1.94141596E-08   4.35864659E-04   1.85242480E-06   4.24968043E-05   6.10784830E-03
   1.73250000E+03   5.00000000E-01   5.00000000E-01   5.01105235E-05   4.42054903E-08   5.19196949E-03   1.69298654E-02   3.05614359E-02   1.41512946E-02   3.30973115E-13   2.18609242E-07   9.83741588E-06   5.99171362E-01   7.43271422E-05   1.31165545E-02   1.12676228E-09   5.24030123E-01   3.06050948E-02   1.94703356E-08   4.37218484E-04   1.85817856E-06   4.26288021E-05   6.30287892E-03
   1.76750000E+03   5.00000000E-01   5.00000000E-01   9.39665766E-05   4.96863353E-08   5.20835720E-03   1.62670481E-02   3.10337924E-02   1.44506214E-02   3.00366782E-13   2.19299251E-07   9.86846628E-06   6.01062560E-01   7.45617452E-05   1.31579550E-02   1.15078316E-09   5.25811550E-01   3.07015527E-02   1.95276640E-08   4.38598501E-04   1.86404363E-06   4.27633539E-05   6.49933672E-03
   1.80250000E+03   5.00000000E-01   5.00000000E-01   1.39906146E-04   5.57570211E-08   5.22505895E-03   1.56014720E-02   3.15088608E-02   1.47515555E-02   2.71075470E-13   2.20002482E-07   9.90011169E-06   6.02990000E-01   7.48008439E-05   1.32001489E-02   1.17493740E-09   5.27626692E-01   3.07997445E-02   1.95861565E-08   4.40004964E-04   1.87002110E-06   4.29004840E-05   6.69683392E-03
   1.83750000E+03   5.00000000E-01   5.00000000E-01   1.88406443E-04   6.24659709E-08   5.24207779E-03   1.49341644E-02   3.19864992E-02   1.50528974E-02   2.43246482E-13   2.20719065E-07   9.93235792E-06   6.04954034E-01   7.50444821E-05   1.32431439E-02   1.19922220E-09   5.29475868E-01   3.08995808E-02   1.96458255E-08   4.41438130E-04   1.87611205E-06   4.30402177E-05   6.89490938E-03
   1.87250000E+03   5.00000000E-01   5.00000000E-01   2.39927210E-04   6.98627533E-08   5.25941689E-03   1.42663250E-02   3.24664585E-02   1.53532772E-02   2.17004489E-13   2.21449132E-07   9.96521095E-06   6.06955027E-01   7.52927050E-05   1.32869479E-02   1.22363472E-09   5.31359419E-01   3.10008655E-02   1.97066835E-08   4.42898265E-04   1.88231762E-06   4.31825808E-05   7.09301675E-03
   1.90750000E+03   5.00000000E-01   5.00000000E-01   2.94903048E-04   7.79970955E-08   5.27707949E-03   1.35993367E-02   3.29482649E-02   1.56511426E-02   1.92452684E-13   2.22192821E-07   9.99867694E-06   6.08993352E-01   7.55455591E-05   1.33315692E-02   1.24817219E-09   5.33277725E-01   3.11031787E-02   1.97687434E-08   4.44385642E-04   1.88863898E-06   4.33276001E-05   7.29045700E-03
   1.94250000E+03   5.00000000E-01   5.00000000E-01   3.53730332E-04   8.69158572E-08   5.29506894E-03   1.29347851E-02   3.34309686E-02   1.59447374E-02   1.69675777E-13   2.22950271E-07   1.00327622E-05   6.11069397E-01   7.58030922E-05   1.33770163E-02   1.27283192E-09   5.35231216E-01   3.12056251E-02   1.98320184E-08   4.45900542E-04   1.89507730E-06   4.34753029E-05   7.48633885E-03
   1.97750000E+03   5.00000000E-01   5.00000000E-01   4.16750970E-04   9.66614964E-08   5.31338867E-03   1.22744718E-02   3.39125947E-02   1.62320902E-02   1.48735854E-13   2.23721628E-07   1.00674733E-05   6.13183557E-01   7.60653536E-05   1.34232977E-02   1.29761133E-09   5.37220384E-01   3.13062827E-02   1.98965222E-08   4.47443256E-04   1.90163384E-06   4.36257175E-05   7.67964973E-03
   2.01250000E+03   5.00000000E-01   5.00000000E-01   4.84224995E-04   1.07274294E-07   5.33204224E-03   1.16204107E-02   3.43889189E-02   1.65110390E-02   1.29668471E-13   2.24507042E-07   1.01028169E-05   6.15336244E-01   7.63323941E-05   1.34704225E-02   1.32250801E-09   5.39245767E-01   3.14009775E-02   1.99622686E-08   4.49014083E-04   1.90830985E-06   4.37788731E-05   7.86940082E-03
   2.04750000E+03   5.00000000E-01   5.00000000E-01   5.56264586E-04   1.18797063E-07   5.35103332E-03   1.09748206E-02   3.48507238E-02   1.67792879E-02   1.12489109E-13   2.25306666E-07   1.01388000E-05   6.17527881E-01   7.66042664E-05   1.35184000E-02   1.34751980E-09   5.41307916E-01   3.14805391E-02   2.00292722E-08   4.50613332E-04   1.91510666E-06   4.39347999E-05   8.05478332E-03
   2.08250000E+03   5.00000000E-01   5.00000000E-01   6.32663877E-04   1.31279815E-07   5.37036571E-03   1.03401487E-02   3.52776498E-02   1.70344868E-02   9.72147825E-14   2.26120661E-07   1.01754298E-05   6.19758906E-01   7.68810248E-05   1.35672397E-02   1.37264476E-09   5.43407358E-01   3.15246514E-02   2.00975477E-08   4.52241323E-04   1.92202562E-06   4.40935290E-05   8.23527173E-03
   2.11750000E+03   5.00000000E-01   5.00000000E-01   7.12480745E-04   1.44785410E-07   5.39004334E-03   9.71917836E-03   3.56246570E-02   1.72743528E-02   8.39010931E-14   2.26949193E-07   1.02127137E-05   6.22029774E-01   7.71627258E-05   1.36169516E-02   1.39788127E-09   5.45544556E-01   3.14883135E-02   2.01671104E-08   4.53898387E-04   1.92906814E-06   4.42550927E-05   8.41075494E-03
   2.15250000E+03   5.00000000E-01   5.00000000E-01   7.93058890E-04   1.59398899E-07   5.41007031E-03   9.11531561E-03   3.57939068E-02   1.74968972E-02   7.27035645E-14   2.27792434E-07   1.02506595E-05   6.24340956E-01   7.74494277E-05   1.36675461E-02   1.42322802E-09   5.47719861E-01   3.12737206E-02   2.02379761E-08   4.55584869E-04   1.93623569E-06   4.44195247E-05   8.58178005E-03
   2.18750000E+03   5.00000000E-01   5.00000000E-01   8.67985555E-04   1.75241424E-07   5.43045086E-03   8.53318305E-03   3.55851576E-02   1.77008869E-02   6.39785698E-14   2.28650562E-07   1.02892753E-05   6.26692942E-01   7.77411912E-05   1.37190337E-02   1.44868409E-09   5.49933438E-01   3.06806575E-02   2.03101611E-08   4.57301125E-04   1.94352978E-06   4.45868597E-05   8.74995140E-03
   2.22250000E+03   5.00000000E-01   5.00000000E-01   9.23971504E-04   1.92480168E-07   5.45118939E-03   7.97936342E-03   3.46454989E-02   1.78866935E-02   5.84248008E-14   2.29523764E-07   1.03285694E-05   6.29086241E-01   7.80380797E-05   1.37714258E-02   1.47424896E-09   5.52185197E-01   2.93562299E-02   2.03836822E-08   4.59047528E-04   1.95095199E-06   4.47571340E-05   8.91829301E-03
   2.25750000E+03   5.00000000E-01   5.00000000E-01   9.40066445E-04   2.11288390E-07   5.47229051E-03   7.46177587E-03   3.25421262E-02   1.80572761E-02   5.71892738E-14   2.30412232E-07   1.03685504E-05   6.31521383E-01   7.83401589E-05   1.38247339E-02   1.49992253E-09   5.54474853E-01   2.68676346E-02   2.04585570E-08   4.60824464E-04   1.95850397E-06   4.49303852E-05   9.09038218E-03
   2.29250000E+03   5.00000000E-01   5.00000000E-01   8.98219913E-04   2.31683351E-07   5.49375900E-03   6.98460507E-03   2.91463850E-02   1.82177507E-02   6.16770814E-14   2.31316168E-07   1.04092276E-05   6.33998922E-01   7.86474972E-05   1.38789701E-02   1.52570517E-09   5.56802367E-01   2.30862024E-02   2.05348036E-08   4.62632337E-04   1.96618743E-06   4.51066528E-05   9.26622896E-03
   2.32750000E+03   5.00000000E-01   5.00000000E-01   8.03457576E-04   2.53393339E-07   5.51559986E-03   6.54124530E-03   2.50359271E-02   1.83720480E-02   7.26640865E-14   2.32235784E-07   1.04506103E-05   6.36519433E-01   7.89601664E-05   1.39341470E-02   1.55159773E-09   5.59168579E-01   1.85895608E-02   2.06124406E-08   4.64471567E-04   1.97400416E-06   4.52859778E-05   9.43796447E-03
   2.36250000E+03   5.00000000E-01   5.00000000E-01   6.84709756E-04   2.76153947E-07   5.53781832E-03   6.11729971E-03   2.11473067E-02   1.85195731E-02   8.87958679E-14   2.33171298E-07   1.04927084E-05   6.39083520E-01   7.92782412E-05   1.39902779E-02   1.57760156E-09   5.61575085E-01   1.43142398E-02   2.06914878E-08   4.66342595E-04   1.98195603E-06   4.54684030E-05   9.59485333E-03
   2.39750000E+03   5.00000000E-01   5.00000000E-01   5.70890327E-04   3.00144480E-07   5.56041982E-03   5.70241004E-03   1.80609083E-02   1.86557923E-02   1.05890744E-13   2.34122940E-07   1.05355323E-05   6.41691812E-01   7.96017995E-05   1.40473764E-02   1.60371855E-09   5.64023328E-01   1.08406032E-02   2.07719654E-08   4.68245879E-04   1.99004499E-06   4.56539732E-05   9.73336687E-03
   2.43250000E+03   5.00000000E-01   5.00000000E-01   4.76447735E-04   3.25915843E-07   5.58341006E-03   5.29497656E-03   1.58667072E-02   1.87750099E-02   1.18515740E-13   2.35090950E-07   1.05790927E-05   6.44344967E-01   7.99309230E-05   1.41054570E-02   1.62995112E-09   5.66514051E-01   8.25860534E-03   2.08538946E-08   4.70181900E-04   1.99827307E-06   4.58427352E-05   9.85823465E-03
   2.46750000E+03   5.00000000E-01   5.00000000E-01   4.04253811E-04   3.54073490E-07   5.60679502E-03   4.89862706E-03   1.44177338E-02   1.88724082E-02   1.22896984E-13   2.36075580E-07   1.06234011E-05   6.47043672E-01   8.02656971E-05   1.41645348E-02   1.65630223E-09   5.69047381E-01   6.42125060E-03   2.09372975E-08   4.72151160E-04   2.00664243E-06   4.60347381E-05   9.97685539E-03
   2.50250000E+03   5.00000000E-01   5.00000000E-01   3.51606060E-04   3.85128328E-07   5.63058093E-03   4.51819012E-03   1.35183376E-02   1.89449307E-02   1.18690956E-13   2.37077092E-07   1.06684691E-05   6.49788649E-01   8.06062112E-05   1.42246255E-02   1.68277542E-09   5.71623112E-01   5.13285511E-03   2.10221969E-08   4.74154183E-04   2.01515528E-06   4.62300329E-05   1.00953208E-02
   2.53750000E+03   5.00000000E-01   5.00000000E-01   3.14015164E-04   4.19494747E-07   5.65477431E-03   4.15758921E-03   1.29979587E-02   1.89913840E-02   1.08251616E-13   2.38095761E-07   1.07143092E-05   6.52580650E-01   8.09525586E-05   1.42857456E-02   1.70937479E-09   5.74240926E-01   4.22281671E-03   2.11086169E-08   4.76191521E-04   2.02381397E-06   4.64286733E-05   1.02173175E-02
   2.57250000E+03   5.00000000E-01   5.00000000E-01   2.87233186E-04   4.57537927E-07   5.67938202E-03   3.81913147E-03   1.27311837E-02   1.90120707E-02   9.46414990E-14   2.39131874E-07   1.07609343E-05   6.55420464E-01   8.13048373E-05   1.43479125E-02   1.73610502E-09   5.76900518E-01   3.56567066E-03   2.11965824E-08   4.78263749E-04   2.03262093E-06   4.66307155E-05   1.03444903E-02
   2.60750000E+03   5.00000000E-01   5.00000000E-01   2.68027191E-04   4.99626056E-07   5.70441118E-03   3.50361642E-03   1.26343866E-02   1.90082711E-02   8.02863245E-14   2.40185734E-07   1.08083580E-05   6.58308917E-01   8.16631496E-05   1.44111440E-02   1.76297137E-09   5.79601648E-01   3.07773108E-03   2.12861196E-08   4.80371468E-04   2.04157874E-06   4.68362181E-05   1.04772499E-02