 TITLE = "Total Concentrations" 
VARIABLES = "X"          "Y"              "Z"            "H+"             "Al+++"          "CO2(aq)"        "Mg++"           "Ca++"           "Fe++"           "Fe+++"          "Ba++"           "Sr++"           "Cl-"            "F-"             "K+"             "HS-"            "Na+"            "SO4--"          "O2(aq)"         "B(OH)3(aq)"     "HPO4--"         "NO3-"           "H4SiO4(aq)"    
 ZONE I=         100 , J=           1 , K=           1  F=POINT
   1.75000000E+01   5.00000000E-01   5.00000000E-01  -4.66799962E-03   9.17643539E-12   4.75010909E-03   4.95550437E-02   1.07533476E-02   1.01421325E-03   7.21710476E-13   2.00004593E-07   9.00020669E-06   5.48179132E-01   6.80015617E-05   1.20002756E-02   1.18960754E-10   4.74294936E-01   2.80006431E-02   1.79965966E-08   4.00009186E-04   1.70003904E-06   3.90008957E-05   4.22733356E-04
   5.25000000E+01   5.00000000E-01   5.00000000E-01  -4.67501039E-03   1.37882557E-11   4.75063957E-03   4.81760295E-02   1.11077980E-02   1.94134604E-03   5.80699590E-13   2.00026929E-07   9.00121182E-06   5.48240352E-01   6.80091559E-05   1.20016158E-02   1.37979602E-10   4.74562952E-01   2.80037701E-02   1.79947786E-08   4.00053859E-04   1.70022890E-06   3.90052512E-05   5.14062989E-04
   8.75000000E+01   5.00000000E-01   5.00000000E-01  -4.66673086E-03   1.83392498E-11   4.75176954E-03   4.69251673E-02   1.14638610E-02   2.75306051E-03   5.61336075E-13   2.00074507E-07   9.00335281E-06   5.48370754E-01   6.80253324E-05   1.20044704E-02   1.57061702E-10   4.74861733E-01   2.80104310E-02   1.79952210E-08   4.00149014E-04   1.70063331E-06   3.90145289E-05   5.71519640E-04
   1.22500000E+02   5.00000000E-01   5.00000000E-01  -4.63680090E-03   2.38358764E-11   4.75345252E-03   4.57993854E-02   1.18215470E-02   3.44487309E-03   5.59104188E-13   2.00145369E-07   9.00654161E-06   5.48564976E-01   6.80494255E-05   1.20087222E-02   1.76209487E-10   4.75194214E-01   2.80203518E-02   1.79977470E-08   4.00290738E-04   1.70123564E-06   3.90283470E-05   6.26485397E-04
   1.57500000E+02   5.00000000E-01   5.00000000E-01  -4.58915188E-03   3.06261907E-11   4.75564895E-03   4.47885707E-02   1.21808734E-02   4.02713010E-03   5.63730197E-13   2.00237850E-07   9.01070327E-06   5.48818451E-01   6.80808691E-05   1.20142710E-02   1.95426572E-10   4.75558891E-01   2.80332992E-02   1.80022059E-08   4.00475701E-04   1.70202173E-06   3.90463808E-05   6.82978730E-04
   1.92500000E+02   5.00000000E-01   5.00000000E-01  -4.52786794E-03   3.89521407E-11   4.75832500E-03   4.38769131E-02   1.25418621E-02   4.51591925E-03   5.74113371E-13   2.00350526E-07   9.01577369E-06   5.49127277E-01   6.81191790E-05   1.20210316E-02   2.14717088E-10   4.75955034E-01   2.80490738E-02   1.80084688E-08   4.00701053E-04   1.70297947E-06   3.90683526E-05   7.41052438E-04
   2.27500000E+02   5.00000000E-01   5.00000000E-01  -4.45563218E-03   4.90784234E-11   4.76145163E-03   4.30470411E-02   1.29045367E-02   4.92808195E-03   5.89589750E-13   2.00482174E-07   9.02169782E-06   5.49488101E-01   6.81639391E-05   1.20289304E-02   2.34085212E-10   4.76382713E-01   2.80675045E-02   1.80164245E-08   4.00964347E-04   1.70409848E-06   3.90940239E-05   8.00566769E-04
   2.62500000E+02   5.00000000E-01   5.00000000E-01  -4.37395384E-03   6.13209330E-11   4.76500377E-03   4.22825674E-02   1.32689209E-02   5.27897413E-03   6.09313842E-13   2.00631738E-07   9.02842820E-06   5.49898030E-01   6.82147908E-05   1.20379043E-02   2.53534833E-10   4.76842333E-01   2.80884435E-02   1.80259774E-08   4.01263476E-04   1.70536977E-06   3.91231889E-05   8.61569499E-04
   2.97500000E+02   5.00000000E-01   5.00000000E-01  -4.28356925E-03   7.60567726E-11   4.76895976E-03   4.15692029E-02   1.36350345E-02   5.58166876E-03   6.32395523E-13   2.00798306E-07   9.03592376E-06   5.50354565E-01   6.82714239E-05   1.20478983E-02   2.73069291E-10   4.77334317E-01   2.81117630E-02   1.80370444E-08   4.01596611E-04   1.70678560E-06   3.91556696E-05   9.24222390E-04
   3.32500000E+02   5.00000000E-01   5.00000000E-01  -4.18475530E-03   9.37314871E-11   4.77330078E-03   4.08950495E-02   1.40028908E-02   5.84686042E-03   6.57991451E-13   2.00981085E-07   9.04414884E-06   5.50855534E-01   6.83335690E-05   1.20588651E-02   2.92691153E-10   4.77858978E-01   2.81373522E-02   1.80495537E-08   4.01962171E-04   1.70833923E-06   3.91913116E-05   9.88730575E-04
   3.67500000E+02   5.00000000E-01   5.00000000E-01  -4.07755157E-03   1.14867304E-10   4.77801043E-03   4.02504885E-02   1.43724928E-02   6.08308463E-03   6.85330906E-13   2.01179386E-07   9.05307238E-06   5.51399044E-01   6.84009914E-05   1.20707632E-02   3.12402008E-10   4.78416471E-01   2.81651143E-02   1.80634428E-08   4.02358773E-04   1.71002478E-06   3.92299803E-05   1.05530750E-03
   4.02500000E+02   5.00000000E-01   5.00000000E-01  -3.96191755E-03   1.40074434E-10   4.78307438E-03   3.96279028E-02   1.47438290E-02   6.29705477E-03   7.13710841E-13   2.01392606E-07   9.06266726E-06   5.51983442E-01   6.84734859E-05   1.20835563E-02   3.32202275E-10   4.79006801E-01   2.81949651E-02   1.80786573E-08   4.02785211E-04   1.71183715E-06   3.92715581E-05   1.12415732E-03
   4.37500000E+02   5.00000000E-01   5.00000000E-01  -3.83784701E-03   1.70063541E-10   4.78848009E-03   3.90213598E-02   1.51168696E-02   6.49401039E-03   7.42490387E-13   2.01620214E-07   9.07290964E-06   5.52607279E-01   6.85508728E-05   1.20972129E-02   3.52091012E-10   4.79629839E-01   2.82268303E-02   1.80951498E-08   4.03240428E-04   1.71377182E-06   3.93159418E-05   1.19547114E-03
   4.72500000E+02   5.00000000E-01   5.00000000E-01  -3.70545109E-03   2.05660346E-10   4.79421646E-03   3.84263134E-02   1.54915625E-02   6.67803213E-03   7.71085205E-13   2.01861746E-07   9.08377856E-06   5.53269277E-01   6.86329935E-05   1.21117047E-02   3.72065730E-10   4.80285352E-01   2.82606447E-02   1.81128787E-08   4.03723491E-04   1.71582484E-06   3.93630404E-05   1.26942799E-03
   5.07500000E+02   5.00000000E-01   5.00000000E-01  -3.56501721E-03   2.47822777E-10   4.80027369E-03   3.78393452E-02   1.58678291E-02   6.85230852E-03   7.98963860E-13   2.02116787E-07   9.09525541E-06   5.53968302E-01   6.87197075E-05   1.21270072E-02   3.92122240E-10   4.80973020E-01   2.82963505E-02   1.81318076E-08   4.04233574E-04   1.71799269E-06   3.94127734E-05   1.34619691E-03
   5.42500000E+02   5.00000000E-01   5.00000000E-01  -3.41704721E-03   2.97660471E-10   4.80664301E-03   3.72579479E-02   1.62455619E-02   7.01935220E-03   8.25647634E-13   2.02384969E-07   9.10732360E-06   5.54703344E-01   6.88108895E-05   1.21430981E-02   4.12254520E-10   4.81692458E-01   2.83338960E-02   1.81519047E-08   4.04769938E-04   1.72027224E-06   3.94650689E-05   1.42593943E-03
   5.77500000E+02   5.00000000E-01   5.00000000E-01  -3.26227620E-03   3.56456876E-10   4.81331656E-03   3.66803487E-02   1.66246219E-02   7.18117069E-03   8.50712556E-13   2.02665960E-07   9.11996821E-06   5.55473494E-01   6.89064265E-05   1.21599576E-02   4.32454625E-10   4.82443225E-01   2.83732348E-02   1.81731416E-08   4.05331920E-04   1.72266066E-06   3.95198622E-05   1.50881157E-03
   6.12500000E+02   5.00000000E-01   5.00000000E-01  -3.10167252E-03   4.25694081E-10   4.82028715E-03   3.61053627E-02   1.70048374E-02   7.33939813E-03   8.73792724E-13   2.02959459E-07   9.13317565E-06   5.56277925E-01   6.90062161E-05   1.21775675E-02   4.52712660E-10   4.83224843E-01   2.84143247E-02   1.81954931E-08   4.05918918E-04   1.72515540E-06   3.95770945E-05   1.59496478E-03
   6.47500000E+02   5.00000000E-01   5.00000000E-01  -2.93641961E-03   5.07080407E-10   4.82754821E-03   3.55322709E-02   1.73860042E-02   7.49539523E-03   8.94583953E-13   2.03265188E-07   9.14693346E-06   5.57115877E-01   6.91101639E-05   1.21959113E-02   4.73016796E-10   4.84036799E-01   2.84571267E-02   1.82189368E-08   4.06530376E-04   1.72775410E-06   3.96367116E-05   1.68454565E-03
   6.82500000E+02   5.00000000E-01   5.00000000E-01  -2.76788137E-03   6.02580740E-10   4.83509360E-03   3.49607158E-02   1.77678862E-02   7.65032353E-03   9.12846771E-13   2.03582889E-07   9.16122999E-06   5.57986641E-01   6.92181821E-05   1.22149733E-02   4.93353357E-10   4.84878555E-01   2.85016048E-02   1.82434521E-08   4.07165777E-04   1.73045455E-06   3.96986633E-05   1.77769460E-03
   7.17500000E+02   5.00000000E-01   5.00000000E-01  -2.59755359E-03   7.14449547E-10   4.84291753E-03   3.43906102E-02   1.81502181E-02   7.80519940E-03   9.28407863E-13   2.03912317E-07   9.17605427E-06   5.58889550E-01   6.93301878E-05   1.22347390E-02   5.13706966E-10   4.85749557E-01   2.85477248E-02   1.82690202E-08   4.07824634E-04   1.73325470E-06   3.97629018E-05   1.87454359E-03
   7.52500000E+02   5.00000000E-01   5.00000000E-01  -2.42700518E-03   8.45266505E-10   4.85101446E-03   3.38220574E-02   1.85327081E-02   7.96093245E-03   9.41159275E-13   2.04253240E-07   9.19139582E-06   5.59823963E-01   6.94461017E-05   1.22551944E-02   5.34060736E-10   4.86649241E-01   2.85954541E-02   1.82956235E-08   4.08506481E-04   1.73615254E-06   3.98293819E-05   1.97521319E-03
   7.87500000E+02   5.00000000E-01   5.00000000E-01  -2.25781418E-03   9.97974708E-10   4.85937902E-03   3.32552796E-02   1.89150428E-02   8.11835199E-03   9.51055002E-13   2.04605433E-07   9.20724447E-06   5.60789263E-01   6.95658471E-05   1.22763260E-02   5.54396526E-10   4.87577041E-01   2.86447610E-02   1.83232454E-08   4.09210865E-04   1.73914618E-06   3.98980594E-05   2.07980946E-03
   8.22500000E+02   5.00000000E-01   5.00000000E-01  -2.09150372E-03   1.17592149E-09   4.86800597E-03   3.26905561E-02   1.92968910E-02   8.27822492E-03   9.58104957E-13   2.04968673E-07   9.22359026E-06   5.61784843E-01   6.96893487E-05   1.22981204E-02   5.74695217E-10   4.88532394E-01   2.86956146E-02   1.83518698E-08   4.09937345E-04   1.74223372E-06   3.99688911E-05   2.18842106E-03
   8.57500000E+02   5.00000000E-01   5.00000000E-01  -1.92948300E-03   1.38290196E-09   4.87689013E-03   3.21281708E-02   1.96779100E-02   8.44126749E-03   9.62366682E-13   2.05342742E-07   9.24042340E-06   5.62810106E-01   6.98165323E-05   1.23205645E-02   5.94937025E-10   4.89514750E-01   2.87479844E-02   1.83814812E-08   4.10685484E-04   1.74541331E-06   4.00418347E-05   2.30111697E-03
   8.92500000E+02   5.00000000E-01   5.00000000E-01  -1.77299794E-03   1.62320546E-09   4.88602633E-03   3.15683689E-02   2.00577507E-02   8.60815285E-03   9.63935514E-13   2.05727425E-07   9.25773411E-06   5.63864456E-01   6.99473244E-05   1.23436455E-02   6.15101828E-10   4.90523573E-01   2.88018399E-02   1.84120641E-08   4.11454849E-04   1.74868311E-06   4.01168478E-05   2.41794514E-03
   9.27500000E+02   5.00000000E-01   5.00000000E-01  -1.62309439E-03   1.90166509E-09   4.89540946E-03   3.10113246E-02   2.04360635E-02   8.77951613E-03   9.62934047E-13   2.06122503E-07   9.27551265E-06   5.64947301E-01   7.00816512E-05   1.23673502E-02   6.35169492E-10   4.91558349E-01   2.88571510E-02   1.84436031E-08   4.12245007E-04   1.75204128E-06   4.01938882E-05   2.53893236E-03
   9.62500000E+02   5.00000000E-01   5.00000000E-01  -1.48059563E-03   2.22371088E-09   4.90503435E-03   3.04571185E-02   2.08125042E-02   8.95595780E-03   9.59501721E-13   2.06527762E-07   9.29374930E-06   5.66058047E-01   7.02194392E-05   1.23916657E-02   6.55120198E-10   4.92618587E-01   2.89138872E-02   1.84760827E-08   4.13055524E-04   1.75548598E-06   4.02729136E-05   2.66408507E-03
   9.97500000E+02   5.00000000E-01   5.00000000E-01  -1.34609416E-03   2.59542747E-09   4.91489589E-03   2.99057242E-02   2.11867388E-02   9.13804636E-03   9.53785224E-13   2.06942985E-07   9.31243431E-06   5.67196103E-01   7.03606148E-05   1.24165791E-02   6.74934745E-10   4.93703822E-01   2.89720184E-02   1.85094874E-08   4.13885969E-04   1.75901537E-06   4.03538820E-05   2.79339103E-03
   1.03250000E+03   5.00000000E-01   5.00000000E-01  -1.21995614E-03   3.02361801E-09   4.92498893E-03   2.93570037E-02   2.15584490E-02   9.32632073E-03   9.45930160E-13   2.07367955E-07   9.33155797E-06   5.68360875E-01   7.05051047E-05   1.24420773E-02   6.94594835E-10   4.94813616E-01   2.90315142E-02   1.85438014E-08   4.14735910E-04   1.76262762E-06   4.04367512E-05   2.92682117E-03
   1.06750000E+03   5.00000000E-01   5.00000000E-01  -1.10233645E-03   3.51587433E-09   4.93530837E-03   2.88107094E-02   2.19273364E-02   9.52129244E-03   9.36074717E-13   2.07802458E-07   9.35111060E-06   5.69551775E-01   7.06528356E-05   1.24681475E-02   7.14083324E-10   4.95947555E-01   2.90923446E-02   1.85790090E-08   4.15604916E-04   1.76632089E-06   4.05214793E-05   3.06433166E-03
   1.10250000E+03   5.00000000E-01   5.00000000E-01  -9.93201295E-04   4.08065008E-09   4.94584916E-03   2.82664919E-02   2.22931267E-02   9.72344692E-03   9.24346082E-13   2.08246281E-07   9.37108263E-06   5.70768219E-01   7.08037354E-05   1.24947768E-02   7.33384443E-10   4.97105253E-01   2.91544797E-02   1.86150940E-08   4.16492561E-04   1.77009338E-06   4.06080247E-05   3.20586678E-03
   1.13750000E+03   5.00000000E-01   5.00000000E-01  -8.92355296E-04   4.72733568E-09   4.95660632E-03   2.77239121E-02   2.26555722E-02   9.93324371E-03   9.10858990E-13   2.08699213E-07   9.39146461E-06   5.72009632E-01   7.09577326E-05   1.25219528E-02   7.52483978E-10   4.98286347E-01   2.92178903E-02   1.86520405E-08   4.17398427E-04   1.77394331E-06   4.06963466E-05   3.35136236E-03
   1.17250000E+03   5.00000000E-01   5.00000000E-01  -7.99470212E-04   5.46633892E-09   4.96757496E-03   2.71824566E-02   2.30144553E-02   1.01511159E-02   8.95715325E-13   2.09161051E-07   9.41224729E-06   5.73275451E-01   7.11147573E-05   1.25496631E-02   7.71369414E-10   4.99490496E-01   2.92825475E-02   1.86898325E-08   4.18322102E-04   1.77786893E-06   4.07864049E-05   3.50074874E-03
   1.20750000E+03   5.00000000E-01   5.00000000E-01  -7.14113111E-04   6.30917865E-09   4.97875035E-03   2.66415525E-02   2.33695899E-02   1.03774695E-02   8.79003997E-13   2.09631594E-07   9.43342171E-06   5.74565130E-01   7.12747418E-05   1.25778956E-02   7.90030041E-10   5.00717383E-01   2.93484234E-02   1.87284543E-08   4.19263187E-04   1.78186855E-06   4.08781607E-05   3.65395186E-03
   1.24250000E+03   5.00000000E-01   5.00000000E-01  -6.35772368E-04   7.26860374E-09   4.99012791E-03   2.61005819E-02   2.37208226E-02   1.06126841E-02   8.60800694E-13   2.10110649E-07   9.45497919E-06   5.75878140E-01   7.14376205E-05   1.26066389E-02   8.08457022E-10   5.01966708E-01   2.94154910E-02   1.87678903E-08   4.20221297E-04   1.78594051E-06   4.09715765E-05   3.81089176E-03
   1.27750000E+03   5.00000000E-01   5.00000000E-01  -5.63880831E-04   8.35870938E-09   5.00170327E-03   2.55588963E-02   2.40680336E-02   1.08571117E-02   8.41170672E-13   2.10598032E-07   9.47691145E-06   5.77213977E-01   7.16033310E-05   1.26358819E-02   8.26643427E-10   5.03238192E-01   2.94837246E-02   1.88081254E-08   4.21196065E-04   1.79008327E-06   4.10666163E-05   3.97148219E-03
   1.31250000E+03   5.00000000E-01   5.00000000E-01  -4.97835425E-04   9.59501964E-09   5.01347230E-03   2.50158324E-02   2.44111364E-02   1.11110724E-02   8.20174490E-13   2.11093570E-07   9.49921067E-06   5.78572164E-01   7.17718140E-05   1.26656142E-02   8.44584236E-10   5.04531577E-01   2.95530998E-02   1.88491448E-08   4.22187141E-04   1.79429535E-06   4.11632462E-05   4.13563473E-03
   1.34750000E+03   5.00000000E-01   5.00000000E-01  -4.37012618E-04   1.09945631E-08   5.02543113E-03   2.44707284E-02   2.47500777E-02   1.13748483E-02   7.97872248E-13   2.11597100E-07   9.52186951E-06   5.79952255E-01   7.19430141E-05   1.26958260E-02   8.62276315E-10   5.05846623E-01   2.96235938E-02   1.88909346E-08   4.23194200E-04   1.79857535E-06   4.12614345E-05   4.30326360E-03
   1.38250000E+03   5.00000000E-01   5.00000000E-01  -3.80780262E-04   1.25759040E-08   5.03757619E-03   2.39229395E-02   2.50848374E-02   1.16486748E-02   7.74328360E-13   2.12108471E-07   9.54488120E-06   5.81353837E-01   7.21168802E-05   1.27265083E-02   8.79718363E-10   5.07183109E-01   2.96951855E-02   1.89334816E-08   4.24216942E-04   1.80292200E-06   4.13611519E-05   4.47429282E-03
   1.41750000E+03   5.00000000E-01   5.00000000E-01  -3.28505296E-04   1.43593754E-08   5.04990421E-03   2.33718471E-02   2.54154269E-02   1.19327398E-02   7.49605838E-13   2.12627546E-07   9.56823957E-06   5.82776534E-01   7.22933656E-05   1.27576528E-02   8.96910843E-10   5.08540836E-01   2.97678556E-02   1.89767731E-08   4.25255092E-04   1.80733414E-06   4.14623714E-05   4.64864817E-03
   1.45250000E+03   5.00000000E-01   5.00000000E-01  -2.79557753E-04   1.63679968E-08   5.06241230E-03   2.28168457E-02   2.57418861E-02   1.22272050E-02   7.23744259E-13   2.13154202E-07   9.59193909E-06   5.84220010E-01   7.24724287E-05   1.27892521E-02   9.13855894E-10   5.09919619E-01   2.98415871E-02   1.90207979E-08   4.26308404E-04   1.81181072E-06   4.15650694E-05   4.82620800E-03
   1.48750000E+03   5.00000000E-01   5.00000000E-01  -2.33318568E-04   1.86266975E-08   5.07509789E-03   2.22573705E-02   2.60642823E-02   1.25321813E-02   6.96808394E-13   2.13688332E-07   9.61597495E-06   5.85683972E-01   7.26540330E-05   1.28212999E-02   9.30557230E-10   5.11319294E-01   2.99163649E-02   1.90655454E-08   4.27376665E-04   1.81635082E-06   4.16692248E-05   5.00685114E-03
   1.52250000E+03   5.00000000E-01   5.00000000E-01  -1.89180986E-04   2.11615191E-08   5.08795882E-03   2.16929326E-02   2.63827105E-02   1.28476914E-02   6.68902262E-13   2.14229845E-07   9.64034303E-06   5.87168168E-01   7.28381474E-05   1.28537907E-02   9.47020028E-10   5.12739725E-01   2.99921760E-02   1.91110064E-08   4.28459690E-04   1.82095368E-06   4.17748198E-05   5.19051534E-03
   1.55750000E+03   5.00000000E-01   5.00000000E-01  -1.46545691E-04   2.40012849E-08   5.10099331E-03   2.11231064E-02   2.66972907E-02   1.31736886E-02   6.40117090E-13   2.14778666E-07   9.66503996E-06   5.88672394E-01   7.30247464E-05   1.28867199E-02   9.63250811E-10   5.14180795E-01   3.00690101E-02   1.91571729E-08   4.29557332E-04   1.82561866E-06   4.18818398E-05   5.37713667E-03
   1.59250000E+03   5.00000000E-01   5.00000000E-01  -1.04819216E-04   2.71796338E-08   5.11419999E-03   2.05474997E-02   2.70081619E-02   1.35100957E-02   6.10513586E-13   2.15334736E-07   9.69006313E-06   5.90196490E-01   7.32138103E-05   1.29200842E-02   9.79257324E-10   5.15642401E-01   3.01468589E-02   1.92040380E-08   4.30669473E-04   1.83034526E-06   4.19902736E-05   5.56656178E-03
   1.62750000E+03   5.00000000E-01   5.00000000E-01  -6.34193048E-05   3.07320926E-08   5.12757788E-03   1.99657974E-02   2.73154825E-02   1.38567590E-02   5.80199318E-13   2.15898016E-07   9.71541072E-06   5.91740346E-01   7.34053255E-05   1.29538810E-02   9.95048416E-10   5.17124461E-01   3.02257166E-02   1.92515963E-08   4.31796032E-04   1.83513314E-06   4.21001131E-05   5.75864883E-03
   1.66250000E+03   5.00000000E-01   5.00000000E-01  -2.17707061E-05   3.46958799E-08   5.14112645E-03   1.93777880E-02   2.76194291E-02   1.42134180E-02   5.49313586E-13   2.16468482E-07   9.74108169E-06   5.93303897E-01   7.35992839E-05   1.29881089E-02   1.01063391E-09   5.18626922E-01   3.03055800E-02   1.92998438E-08   4.32936964E-04   1.83998210E-06   4.22113540E-05   5.95330976E-03
   1.69750000E+03   5.00000000E-01   5.00000000E-01   2.07005606E-05   3.91125483E-08   5.15484556E-03   1.87833508E-02   2.79201942E-02   1.45797227E-02   5.17988073E-13   2.17046129E-07   9.76707580E-06   5.94887131E-01   7.37956838E-05   1.30227677E-02   1.02602450E-09   5.20149748E-01   3.03864480E-02   1.93487778E-08   4.34092258E-04   1.84489210E-06   4.23239951E-05   6.15044768E-03
   1.73250000E+03   5.00000000E-01   5.00000000E-01   6.45673827E-05   4.40281958E-08   5.16873550E-03   1.81824574E-02   2.82179840E-02   1.49552352E-02   4.86359509E-13   2.17630969E-07   9.79339359E-06   5.96490078E-01   7.39945293E-05   1.30578581E-02   1.04123161E-09   5.21692923E-01   3.04683222E-02   1.93983971E-08   4.35261937E-04   1.84986323E-06   4.24380389E-05   6.34994130E-03
   1.76750000E+03   5.00000000E-01   5.00000000E-01   1.10400790E-04   4.94919363E-08   5.18279698E-03   1.75751960E-02   2.85130162E-02   1.53394061E-02   4.54588110E-13   2.18223031E-07   9.82003639E-06   5.98112822E-01   7.41958305E-05   1.30933818E-02   1.05626729E-09   5.23256450E-01   3.05512062E-02   1.94487019E-08   4.36446062E-04   1.85489576E-06   4.25534910E-05   6.55168711E-03
   1.80250000E+03   5.00000000E-01   5.00000000E-01   1.58771903E-04   5.55565917E-08   5.19703111E-03   1.69617835E-02   2.88055183E-02   1.57315631E-02   4.22846312E-13   2.18822363E-07   9.84700632E-06   5.99755490E-01   7.43996033E-05   1.31293418E-02   1.07114416E-09   5.24840352E-01   3.06351062E-02   1.94996939E-08   4.37644725E-04   1.85999008E-06   4.26703607E-05   6.75560494E-03
   1.83750000E+03   5.00000000E-01   5.00000000E-01   2.10252544E-04   6.22796162E-08   5.21143942E-03   1.63425729E-02   2.90957261E-02   1.61309066E-02   3.91312038E-13   2.19429028E-07   9.87430626E-06   6.01418259E-01   7.46058695E-05   1.31657417E-02   1.08587522E-09   5.26444666E-01   3.07200304E-02   1.95513763E-08   4.38858056E-04   1.86514674E-06   4.27886605E-05   6.96162772E-03
   1.87250000E+03   5.00000000E-01   5.00000000E-01   2.65414775E-04   6.97243368E-08   5.22602382E-03   1.57180574E-02   2.93838813E-02   1.65365086E-02   3.60164555E-13   2.20043108E-07   9.90193987E-06   6.03101350E-01   7.48146568E-05   1.32025865E-02   1.10047386E-09   5.28069444E-01   3.08059890E-02   1.96037537E-08   4.40086217E-04   1.87036642E-06   4.29084061E-05   7.16968412E-03
   1.90750000E+03   5.00000000E-01   5.00000000E-01   3.24830343E-04   7.79628386E-08   5.24078665E-03   1.50888669E-02   2.96702292E-02   1.69473231E-02   3.29577637E-13   2.20664701E-07   9.92991154E-06   6.04805031E-01   7.50259983E-05   1.32398821E-02   1.11495370E-09   5.29714741E-01   3.08929940E-02   1.96568321E-08   4.41329402E-04   1.87564996E-06   4.30296167E-05   7.37965915E-03
   1.94250000E+03   5.00000000E-01   5.00000000E-01   3.89065479E-04   8.70750555E-08   5.25573059E-03   1.44557846E-02   2.99550160E-02   1.73621726E-02   2.99729813E-13   2.21293920E-07   9.95822638E-06   6.06529615E-01   7.52399327E-05   1.32776352E-02   1.12932857E-09   5.31380621E-01   3.09810589E-02   1.97106189E-08   4.42587839E-04   1.88099832E-06   4.31523143E-05   7.59141088E-03
   1.97750000E+03   5.00000000E-01   5.00000000E-01   4.58674756E-04   9.71465481E-08   5.27085874E-03   1.38197773E-02   3.02384892E-02   1.77797178E-02   2.70808079E-13   2.21930894E-07   9.98689024E-06   6.08275455E-01   7.54565040E-05   1.33158537E-02   1.14361240E-09   5.33067152E-01   3.10701980E-02   1.97651230E-08   4.43861788E-04   1.88641260E-06   4.32765244E-05   7.80482136E-03
   2.01250000E+03   5.00000000E-01   5.00000000E-01   5.34196984E-04   1.08269050E-07   5.28617453E-03   1.31820185E-02   3.05208960E-02   1.81984386E-02   2.42998295E-13   2.22575770E-07   1.00159096E-05   6.10042951E-01   7.56757617E-05   1.33545462E-02   1.15781920E-09   5.34774415E-01   3.11604260E-02   1.98203547E-08   4.45151540E-04   1.89189404E-06   4.34022751E-05   8.01981847E-03
   2.04750000E+03   5.00000000E-01   5.00000000E-01   6.16151202E-04   1.20542729E-07   5.30168178E-03   1.25438974E-02   3.08024808E-02   1.86166284E-02   2.16475147E-13   2.23228707E-07   1.00452918E-05   6.11832542E-01   7.58977603E-05   1.33937224E-02   1.17196300E-09   5.36502493E-01   3.12517567E-02   1.98763256E-08   4.46457413E-04   1.89744401E-06   4.35295978E-05   8.23636575E-03
   2.08250000E+03   5.00000000E-01   5.00000000E-01   7.05031833E-04   1.34078965E-07   5.31738465E-03   1.19070222E-02   3.10834827E-02   1.90323983E-02   1.91395563E-13   2.23889880E-07   1.00750446E-05   6.13644707E-01   7.61225591E-05   1.34333928E-02   1.18605777E-09   5.38251467E-01   3.13442015E-02   1.99330485E-08   4.47779760E-04   1.90306398E-06   4.36585266E-05   8.45443721E-03
   2.11750000E+03   5.00000000E-01   5.00000000E-01   8.01302092E-04   1.49001550E-07   5.33328762E-03   1.12732212E-02   3.13641322E-02   1.94436798E-02   1.67896166E-13   2.24559479E-07   1.01051765E-05   6.15479965E-01   7.63502227E-05   1.34735687E-02   1.20011742E-09   5.40021413E-01   3.14377667E-02   1.99905379E-08   4.49118957E-04   1.90875557E-06   4.37890983E-05   8.67400452E-03
   2.15250000E+03   5.00000000E-01   5.00000000E-01   9.05387682E-04   1.65447367E-07   5.34939553E-03   1.06445431E-02   3.16446464E-02   1.98482299E-02   1.46090246E-13   2.25237706E-07   1.01356968E-05   6.17338874E-01   7.65808202E-05   1.35142624E-02   1.21415578E-09   5.41812399E-01   3.15324496E-02   2.00488091E-08   4.50475413E-04   1.91452050E-06   4.39213527E-05   8.89503335E-03
   2.18750000E+03   5.00000000E-01   5.00000000E-01   1.01767209E-03   1.83567275E-07   5.36571353E-03   1.00232481E-02   3.19252224E-02   2.02436416E-02   1.26063781E-13   2.25924780E-07   1.01666151E-05   6.19222029E-01   7.68144253E-05   1.35554868E-02   1.22818653E-09   5.43624487E-01   3.16282326E-02   2.01078790E-08   4.51849560E-04   1.92036063E-06   4.40553321E-05   9.11747955E-03
   2.22250000E+03   5.00000000E-01   5.00000000E-01   1.13849389E-03   2.03527012E-07   5.38224710E-03   9.41178706E-03   3.22060277E-02   2.06273656E-02   1.07871636E-13   2.26620931E-07   1.01979419E-05   6.21130060E-01   7.70511164E-05   1.35972558E-02   1.24222321E-09   5.45457734E-01   3.17250740E-02   2.01677656E-08   4.53241861E-04   1.92627791E-06   4.41910814E-05   9.34128176E-03
   2.25750000E+03   5.00000000E-01   5.00000000E-01   1.26814650E-03   2.25507828E-07   5.39900202E-03   8.81276552E-03   3.24871850E-02   2.09967452E-02   9.15346910E-14   2.27326401E-07   1.02296880E-05   6.23063636E-01   7.72909762E-05   1.36395840E-02   1.25627918E-09   5.47312196E-01   3.18228935E-02   2.02284881E-08   4.54652801E-04   1.93227441E-06   4.43286481E-05   9.56634994E-03
   2.29250000E+03   5.00000000E-01   5.00000000E-01   1.40688041E-03   2.49706637E-07   5.41598437E-03   8.22888780E-03   3.27687503E-02   2.13490673E-02   7.70383255E-14   2.28041447E-07   1.02618651E-05   6.25023458E-01   7.75340920E-05   1.36824868E-02   1.27036765E-09   5.49187933E-01   3.19215506E-02   2.02900669E-08   4.56082894E-04   1.93835230E-06   4.44680822E-05   9.79255057E-03
   2.32750000E+03   5.00000000E-01   5.00000000E-01   1.55490779E-03   2.76335497E-07   5.43320054E-03   7.66288122E-03   3.30506795E-02   2.16816317E-02   6.43326293E-14   2.28766338E-07   1.02944852E-05   6.27010264E-01   7.77805550E-05   1.37259803E-02   1.28450164E-09   5.51085020E-01   3.20208119E-02   2.03525237E-08   4.57532677E-04   1.94451388E-06   4.46094360E-05   1.00196894E-02
   2.36250000E+03   5.00000000E-01   5.00000000E-01   1.71240796E-03   3.05620331E-07   5.45065720E-03   7.11739998E-03   3.33327787E-02   2.19918376E-02   5.33345660E-14   2.29501356E-07   1.03275610E-05   6.29024825E-01   7.80304610E-05   1.37700814E-02   1.29869397E-09   5.53003560E-01   3.21203012E-02   2.04158811E-08   4.59002712E-04   1.95076153E-06   4.47527644E-05   1.02474944E-02
   2.39750000E+03   5.00000000E-01   5.00000000E-01   1.87953150E-03   3.37798924E-07   5.46836134E-03   6.59491326E-03   3.36146299E-02   2.22772857E-02   4.39321464E-14   2.30246793E-07   1.03611057E-05   6.31067944E-01   7.82839098E-05   1.38148076E-02   1.31295729E-09   5.54943701E-01   3.22194265E-02   2.04801632E-08   4.60493587E-04   1.95709774E-06   4.48981247E-05   1.04756007E-02
   2.43250000E+03   5.00000000E-01   5.00000000E-01   2.05639935E-03   3.73118447E-07   5.48632021E-03   6.09758599E-03   3.38954833E-02   2.25358886E-02   3.59904190E-14   2.31002956E-07   1.03951330E-05   6.33140460E-01   7.85410051E-05   1.38601774E-02   1.32730407E-09   5.56905653E-01   3.23172715E-02   2.05453948E-08   4.62005912E-04   1.96352513E-06   4.50455765E-05   1.07035436E-02
   2.46750000E+03   5.00000000E-01   5.00000000E-01   2.24309188E-03   4.11833033E-07   5.50454135E-03   5.62716577E-03   3.41741017E-02   2.27659793E-02   2.93588071E-14   2.31770162E-07   1.04296573E-05   6.35243243E-01   7.88018551E-05   1.39062097E-02   1.34174658E-09   5.58889710E-01   3.24124411E-02   2.06116021E-08   4.63540324E-04   1.97004638E-06   4.51951816E-05   1.09307610E-02
   2.50250000E+03   5.00000000E-01   5.00000000E-01   2.43962253E-03   4.54202151E-07   5.52303259E-03   5.18489181E-03   3.44485411E-02   2.29664064E-02   2.38790922E-14   2.32548741E-07   1.04646933E-05   6.37377196E-01   7.90665718E-05   1.39529244E-02   1.35629695E-09   5.60896265E-01   3.25028416E-02   2.06788124E-08   4.65097481E-04   1.97666430E-06   4.53470044E-05   1.11566117E-02
   2.53750000E+03   5.00000000E-01   5.00000000E-01   2.64589006E-03   5.00490611E-07   5.54180205E-03   4.77144192E-03   3.47158496E-02   2.31366044E-02   1.93932126E-14   2.33339034E-07   1.05002565E-05   6.39543257E-01   7.93352714E-05   1.40003420E-02   1.37096713E-09   5.62925828E-01   3.25853795E-02   2.07470540E-08   4.66678067E-04   1.98338179E-06   4.55011116E-05   1.13804081E-02
   2.57250000E+03   5.00000000E-01   5.00000000E-01   2.86160448E-03   5.50970891E-07   5.56085812E-03   4.38692859E-03   3.49716670E-02   2.32766304E-02   1.57500844E-14   2.34141395E-07   1.05363628E-05   6.41742394E-01   7.96080742E-05   1.40484837E-02   1.38576892E-09   5.64979029E-01   3.26555608E-02   2.08163564E-08   4.68282789E-04   1.99020185E-06   4.56575720E-05   1.16014648E-02
   2.60750000E+03   5.00000000E-01   5.00000000E-01   3.08618279E-03   6.05928065E-07   5.58020950E-03   4.03094694E-03   3.52097156E-02   2.33871686E-02   1.28108402E-14   2.34956189E-07   1.05730285E-05   6.43975610E-01   7.98851044E-05   1.40973714E-02   1.40071399E-09   5.67056621E-01   3.27069819E-02   2.08867502E-08   4.69912379E-04   1.99712761E-06   4.58164569E-05   1.18191554E-02