 TITLE = "Total Concentrations" 
VARIABLES = "X"          "Y"              "Z"            "H+"             "Al+++"          "CO2(aq)"        "Mg++"           "Ca++"           "Fe++"           "Fe+++"          "Cl-"            "K+"             "Na+"            "SiO2(aq)"       "SO4--"          "O2(aq)"         "B(OH)3(aq)"     "HPO4--"         "NO3-"           "H4SiO4(aq)"    
 ZONE I=           1 , J=           1 , K=           1  F=POINT
   5.00000000E-01   5.00000000E-01   5.00000000E-01  -4.26201316E+02   3.22166214E+01   9.50000000E-06   1.48715070E+02   1.60927615E+01   1.46278725E-03   1.00000000E-13   5.49723249E-01   1.20000000E-02   4.74365702E-01   1.70000000E-04   1.86795529E-03   1.80000000E-04   4.00000000E-04   1.70000000E-06   3.90000000E-05   1.06732277E+02
