 TITLE = "Total Concentrations" 
VARIABLES = "X"          "Y"              "Z"            "H+"             "Al+++"          "CO2(aq)"        "Mg++"           "Ca++"           "Fe++"           "Fe+++"          "Ba++"           "Sr++"           "Cl-"            "K+"             "Na+"            "SO4--"          "O2(aq)"         "B(OH)3(aq)"     "HPO4--"         "NO3-"           "H4SiO4(aq)"    
 ZONE I=          10 , J=           1 , K=           1  F=POINT
   1.75000000E+02   5.00000000E-01   5.00000000E-01  -4.61372944E-03   4.63381909E-16   4.75000000E-03   2.57280381E-02   3.94618839E-02   2.98736624E-05   2.73969803E-12   2.00000000E-07   9.00000000E-06   5.48153279E-01   1.20000105E-02   5.00249879E-01   4.49435863E-02   1.80000000E-04   4.00000000E-04   1.70000000E-06   3.90000000E-05   6.74340928E-02
   5.25000000E+02   5.00000000E-01   5.00000000E-01  -4.26375365E-03   4.39192145E-15   4.75083670E-03   2.47619099E-02   2.95677230E-02   5.23615844E-05   6.62849699E-12   2.00035229E-07   9.00158532E-06   5.48249834E-01   1.20021242E-02   5.01434759E-01   3.48372832E-02   1.80031706E-04   4.00070459E-04   1.70029945E-06   3.90068697E-05   7.06518756E-02
   8.75000000E+02   5.00000000E-01   5.00000000E-01  -3.49649942E-03   3.46000418E-14   4.75111764E-03   2.37597774E-02   2.17973164E-02   9.34931487E-05   1.42764031E-11   2.00047059E-07   9.00211764E-06   5.48282256E-01   1.20028390E-02   5.02356082E-01   2.69287324E-02   1.80042353E-04   4.00094117E-04   1.70040000E-06   3.90091765E-05   7.31117502E-02
   1.22500000E+03   5.00000000E-01   5.00000000E-01  -2.31856425E-03   2.26363443E-13   4.75136099E-03   2.24584048E-02   1.60176350E-02   1.65181459E-04   2.69907732E-11   2.00057305E-07   9.00257872E-06   5.48310338E-01   1.20034794E-02   5.03327356E-01   2.09801779E-02   1.80051574E-04   4.00114610E-04   1.70048709E-06   3.90111745E-05   7.54984626E-02
   1.57500000E+03   5.00000000E-01   5.00000000E-01  -1.20473015E-03   1.26087661E-12   4.75159337E-03   2.11142915E-02   1.17915812E-02   2.96159110E-04   4.72576042E-11   2.00067089E-07   9.00301902E-06   5.48337155E-01   1.20041313E-02   5.04264655E-01   1.65534664E-02   1.80060380E-04   4.00134179E-04   1.70057026E-06   3.90130824E-05   7.77540479E-02
   1.92500000E+03   5.00000000E-01   5.00000000E-01  -5.14384316E-04   6.10198013E-12   4.75182351E-03   1.98689577E-02   8.72577827E-03   5.48573177E-04   8.01251349E-11   2.00076779E-07   9.00345506E-06   5.48363713E-01   1.20048354E-02   5.05119201E-01   1.32542618E-02   1.80069101E-04   4.00153558E-04   1.70065262E-06   3.90149719E-05   7.98639822E-02
   2.27500000E+03   5.00000000E-01   5.00000000E-01  -1.66881078E-04   2.58102616E-11   4.75205742E-03   1.85159029E-02   6.52059857E-03   1.03356383E-03   1.30563422E-10   2.00086628E-07   9.00389827E-06   5.48390707E-01   1.20055538E-02   5.05997658E-01   1.07808617E-02   1.80077965E-04   4.00173256E-04   1.70073634E-06   3.90168925E-05   8.20785458E-02
   2.62500000E+03   5.00000000E-01   5.00000000E-01   3.29292400E-05   9.48206670E-11   4.75229959E-03   1.67141989E-02   4.96238035E-03   1.90384582E-03   1.94728599E-10   2.00096825E-07   9.00435712E-06   5.48418653E-01   1.20062868E-02   5.07075818E-01   8.91662302E-03   1.80087142E-04   4.00193650E-04   1.70082301E-06   3.90188808E-05   8.47879669E-02
   2.97500000E+03   5.00000000E-01   5.00000000E-01   2.16387374E-04   2.99163555E-10   4.75255383E-03   1.42264631E-02   3.89957634E-03   3.26472091E-03   2.46165014E-10   2.00107530E-07   9.00483883E-06   5.48447992E-01   1.20069333E-02   5.08479351E-01   7.50610342E-03   1.80096777E-04   4.00215059E-04   1.70091400E-06   3.90209683E-05   8.82721342E-02
   3.32500000E+03   5.00000000E-01   5.00000000E-01   4.47853018E-04   8.08660652E-10   4.75282509E-03   1.11484534E-02   3.22206294E-03   5.00411807E-03   2.42276132E-10   2.00118951E-07   9.00535280E-06   5.48479296E-01   1.20073775E-02   5.10163309E-01   6.43226867E-03   1.80107056E-04   4.00237902E-04   1.70101108E-06   3.90231954E-05   9.24036613E-02
