 TITLE = "Total Concentrations" 
VARIABLES = "X"          "Y"              "Z"            "H+"             "Al+++"          "CO2(aq)"        "Mg++"           "Ca++"           "Fe++"           "Fe+++"          "Ba++"           "Sr++"           "Cl-"            "F-"             "K+"             "HS-"            "Na+"            "SO4--"          "O2(aq)"         "B(OH)3(aq)"     "HPO4--"         "NO3-"           "H4SiO4(aq)"    
 ZONE I=         100 , J=           1 , K=           1  F=POINT
   1.75000000E+01   5.00000000E-01   5.00000000E-01  -4.62564020E-03   2.24155984E-12   4.75000053E-03   5.04708953E-02   1.92555783E-02   2.20973210E-05   2.16313256E-13   2.00000022E-07   9.00000100E-06   5.48166604E-01   6.80000076E-05   1.20000013E-02   1.02871430E-10   4.74191653E-01   3.64022761E-02   1.80000020E-04   4.00000045E-04   1.70000019E-06   3.90000043E-05   6.48278671E-04
   5.25000000E+01   5.00000000E-01   5.00000000E-01  -4.58258153E-03   3.07564875E-12   4.75014841E-03   4.99078549E-02   2.65388838E-02   4.41572374E-05   9.16821547E-14   2.00006249E-07   9.00028120E-06   5.48183670E-01   6.80021246E-05   1.20003749E-02   1.19865038E-10   4.74341992E-01   4.32329521E-02   1.80005624E-04   4.00012498E-04   1.70005311E-06   3.90012185E-05   9.01214924E-04
   8.75000000E+01   5.00000000E-01   5.00000000E-01  -4.55730894E-03   3.60595241E-12   4.75058141E-03   4.93709964E-02   3.23026599E-02   6.61866703E-05   6.60821080E-14   2.00024480E-07   9.00110162E-06   5.48233639E-01   6.80083233E-05   1.20014688E-02   1.74704231E-10   4.74493103E-01   4.85456489E-02   1.80022032E-04   4.00048961E-04   1.70020808E-06   3.90047737E-05   1.03269791E-03
   1.22500000E+02   5.00000000E-01   5.00000000E-01  -4.53560783E-03   4.18605117E-12   4.75128324E-03   4.88454620E-02   3.66955183E-02   8.81465920E-05   5.66620038E-14   2.00054031E-07   9.00243140E-06   5.48314633E-01   6.80183705E-05   1.20032419E-02   3.02922435E-10   4.74660153E-01   5.24896915E-02   1.80048628E-04   4.00108062E-04   1.70045926E-06   3.90105360E-05   1.11512685E-03
   1.57500000E+02   5.00000000E-01   5.00000000E-01  -4.51379772E-03   4.85961298E-12   4.75223890E-03   4.83272319E-02   3.99079598E-02   1.09974556E-04   5.30782565E-14   2.00094269E-07   9.00424213E-06   5.48424920E-01   6.80320516E-05   1.20056562E-02   5.46440490E-10   4.74848337E-01   5.52567820E-02   1.80084843E-04   4.00188539E-04   1.70080129E-06   3.90183825E-05   1.17946186E-03
   1.92500000E+02   5.00000000E-01   5.00000000E-01  -4.49059950E-03   5.63585735E-12   4.75343422E-03   4.78161299E-02   4.21380959E-02   1.31585506E-04   5.25337554E-14   2.00144599E-07   9.00650694E-06   5.48562864E-01   6.80491636E-05   1.20086760E-02   9.45854786E-10   4.75058643E-01   5.70467056E-02   1.80130139E-04   4.00289197E-04   1.70122909E-06   3.90281967E-05   1.23792021E-03
   2.27500000E+02   5.00000000E-01   5.00000000E-01  -4.46544445E-03   6.52391506E-12   4.75485538E-03   4.73135753E-02   4.35721563E-02   1.52876547E-04   5.39664983E-14   2.00204437E-07   9.00919967E-06   5.48726871E-01   6.80695086E-05   1.20122664E-02   1.53331912E-09   4.75290410E-01   5.80477406E-02   1.80183993E-04   4.00408874E-04   1.70173772E-06   3.90398652E-05   1.29529908E-03
   2.62500000E+02   5.00000000E-01   5.00000000E-01  -4.43800568E-03   7.53545634E-12   4.75648857E-03   4.68216740E-02   4.43749075E-02   1.73734310E-04   5.69133259E-14   2.00273203E-07   9.01229413E-06   5.48915346E-01   6.80928890E-05   1.20163925E-02   2.32788763E-09   4.75542306E-01   5.84269252E-02   1.80245883E-04   4.00546406E-04   1.70232222E-06   3.90532746E-05   1.35350750E-03
   2.97500000E+02   5.00000000E-01   5.00000000E-01  -4.40804073E-03   8.68434200E-12   4.75831969E-03   4.63427541E-02   4.46861971E-02   1.94043208E-04   6.11721597E-14   2.00350303E-07   9.01576362E-06   5.49126664E-01   6.81191029E-05   1.20210186E-02   3.33385665E-09   4.75812726E-01   5.83264319E-02   1.80315272E-04   4.00700605E-04   1.70297757E-06   3.90683090E-05   1.41331931E-03
   3.32500000E+02   5.00000000E-01   5.00000000E-01  -4.37533437E-03   9.98631829E-12   4.76033424E-03   4.58790814E-02   4.46211150E-02   2.13693167E-04   6.66750850E-14   2.00435126E-07   9.01958067E-06   5.49359151E-01   6.81479429E-05   1.20261081E-02   4.54167047E-09   4.76099941E-01   5.78635694E-02   1.80391613E-04   4.00870252E-04   1.70369857E-06   3.90848496E-05   1.47505538E-03
   3.67500000E+02   5.00000000E-01   5.00000000E-01  -4.33967811E-03   1.14589264E-11   4.76251732E-03   4.54326735E-02   4.42725440E-02   2.32585883E-04   7.34324757E-14   2.00527045E-07   9.02371702E-06   5.49611085E-01   6.81791953E-05   1.20316235E-02   5.93051134E-09   4.76402188E-01   5.71332037E-02   1.80474340E-04   4.01054090E-04   1.70447988E-06   3.91027738E-05   1.53885363E-03
   4.02500000E+02   5.00000000E-01   5.00000000E-01  -4.30086376E-03   1.31215375E-11   4.76485365E-03   4.50051838E-02   4.37136883E-02   2.50639190E-04   8.15086182E-14   2.00625417E-07   9.02814375E-06   5.49880706E-01   6.82126417E-05   1.20375260E-02   7.47166273E-09   4.76717708E-01   5.62101958E-02   1.80562875E-04   4.01250834E-04   1.70531604E-06   3.91219563E-05   1.60477809E-03
   4.37500000E+02   5.00000000E-01   5.00000000E-01  -4.25868298E-03   1.49954620E-11   4.76732779E-03   4.45978393E-02   4.30013396E-02   2.67789493E-04   9.10095933E-14   2.00729591E-07   9.03283160E-06   5.50166230E-01   6.82480610E-05   1.20437766E-02   9.13192669E-09   4.77044779E-01   5.51526176E-02   1.80656632E-04   4.01459182E-04   1.70620152E-06   3.91422703E-05   1.67286367E-03
   4.72500000E+02   5.00000000E-01   5.00000000E-01  -4.21292964E-03   1.71041033E-11   4.76992430E-03   4.42114233E-02   4.21789771E-02   2.83992528E-04   1.02077917E-13   2.00838918E-07   9.03775130E-06   5.50465876E-01   6.82852320E-05   1.20503365E-02   1.08766349E-08   4.77381749E-01   5.40048344E-02   1.80755026E-04   4.01677835E-04   1.70713080E-06   3.91635890E-05   1.74313460E-03
   5.07500000E+02   5.00000000E-01   5.00000000E-01  -4.16340347E-03   1.94731431E-11   4.77262794E-03   4.38462907E-02   4.12795287E-02   2.99222789E-04   1.14890809E-13   2.00952756E-07   9.04287400E-06   5.50777886E-01   6.83239369E-05   1.20571670E-02   1.26720272E-08   4.77727045E-01   5.28002776E-02   1.80857480E-04   4.01905511E-04   1.70809842E-06   3.91857873E-05   1.81561198E-03
   5.42500000E+02   5.00000000E-01   5.00000000E-01  -4.10991469E-03   2.21307568E-11   4.77542392E-03   4.35024057E-02   4.03277232E-02   3.13472019E-04   1.29660550E-13   2.01070481E-07   9.04817163E-06   5.51100552E-01   6.83639635E-05   1.20642307E-02   1.44869449E-08   4.78079194E-01   5.15638268E-02   1.80963433E-04   4.02140961E-04   1.70909909E-06   3.92087437E-05   1.89031665E-03
   5.77500000E+02   5.00000000E-01   5.00000000E-01  -4.05228910E-03   2.51078564E-11   4.77829800E-03   4.31793943E-02   3.93420254E-02   3.26747116E-04   1.46636140E-13   2.01191495E-07   9.05361727E-06   5.51432231E-01   6.84051083E-05   1.20714918E-02   1.62938904E-08   4.78436834E-01   5.03137875E-02   1.81072345E-04   4.02382990E-04   1.71012771E-06   3.92323415E-05   1.96727021E-03
   6.12500000E+02   5.00000000E-01   5.00000000E-01  -3.99037361E-03   2.84383650E-11   4.78123673E-03   4.28766034E-02   3.83361842E-02   3.39067757E-04   1.66105811E-13   2.01315231E-07   9.05918539E-06   5.51771371E-01   6.84471785E-05   1.20789162E-02   1.80695627E-08   4.78798715E-01   4.90634873E-02   1.81183708E-04   4.02630462E-04   1.71117946E-06   3.92564700E-05   2.04649524E-03
   6.47500000E+02   5.00000000E-01   5.00000000E-01  -3.92404201E-03   3.21595235E-11   4.78422750E-03   4.25931614E-02   3.73204395E-02   3.50463960E-04   1.88400203E-13   2.01441158E-07   9.06485211E-06   5.52116516E-01   6.84899937E-05   1.20864720E-02   1.97949909E-08   4.79163705E-01   4.78225332E-02   1.81297042E-04   4.02882316E-04   1.71224984E-06   3.92810258E-05   2.12801529E-03
   6.82500000E+02   5.00000000E-01   5.00000000E-01  -3.85320076E-03   3.63122339E-11   4.78725866E-03   4.23280365E-02   3.63024446E-02   3.60973742E-04   2.13896061E-13   2.01568786E-07   9.07059535E-06   5.52466322E-01   6.85333871E-05   1.20941299E-02   2.14553833E-08   4.79530789E-01   4.65977817E-02   1.81411907E-04   4.03137571E-04   1.71333468E-06   3.93059132E-05   2.21185476E-03
   7.17500000E+02   5.00000000E-01   5.00000000E-01  -3.77779475E-03   4.09414425E-11   4.79031954E-03   4.20800903E-02   3.52879564E-02   3.70640969E-04   2.43020418E-13   2.01697665E-07   9.07639492E-06   5.52819558E-01   6.85772060E-05   1.21018629E-02   2.30397948E-08   4.79899065E-01   4.53940730E-02   1.81527898E-04   4.03395330E-04   1.71443015E-06   3.93310446E-05   2.29803879E-03
   7.52500000E+02   5.00000000E-01   5.00000000E-01  -3.69781266E-03   4.60965656E-11   4.79340051E-03   4.18481250E-02   3.42813430E-02   3.79513469E-04   2.76255259E-13   2.01827390E-07   9.08223255E-06   5.53175113E-01   6.86213126E-05   1.21096466E-02   2.45406899E-08   4.80267738E-01   4.42147780E-02   1.81644651E-04   4.03654780E-04   1.71553282E-06   3.93563411E-05   2.38659330E-03
   7.87500000E+02   5.00000000E-01   5.00000000E-01  -3.61329188E-03   5.18319630E-11   4.79649296E-03   4.16309243E-02   3.32859527E-02   3.87641410E-04   3.14142689E-13   2.01957598E-07   9.08809192E-06   5.53531992E-01   6.86655834E-05   1.21174592E-02   2.59534633E-08   4.80636115E-01   4.30622003E-02   1.81761838E-04   4.03915196E-04   1.71663958E-06   3.93817316E-05   2.47754481E-03
   8.22500000E+02   5.00000000E-01   5.00000000E-01  -3.52432264E-03   5.82074598E-11   4.79958924E-03   4.14272860E-02   3.23043778E-02   3.95075954E-04   3.57290630E-13   2.02087968E-07   9.09395856E-06   5.53889314E-01   6.87099091E-05   1.21252816E-02   2.72759580E-08   4.81003597E-01   4.19378672E-02   1.81879171E-04   4.04175936E-04   1.71774773E-06   3.94071538E-05   2.57092046E-03
   8.57500000E+02   5.00000000E-01   5.00000000E-01  -3.43105115E-03   6.52889206E-11   4.80268269E-03   4.12360495E-02   3.13386417E-02   4.01868176E-04   4.06379141E-13   2.02218219E-07   9.09981983E-06   5.54246309E-01   6.87541943E-05   1.21330968E-02   2.85080077E-08   4.81369673E-01   4.08427400E-02   1.81996397E-04   4.04436437E-04   1.71885486E-06   3.94325526E-05   2.66674780E-03
   8.92500000E+02   5.00000000E-01   5.00000000E-01  -3.33368164E-03   7.31488641E-11   4.80576754E-03   4.10561155E-02   3.03903319E-02   4.08068203E-04   4.62167523E-13   2.02348107E-07   9.10566481E-06   5.54602311E-01   6.87983563E-05   1.21408902E-02   2.96510216E-08   4.81733908E-01   3.97773636E-02   1.82113296E-04   4.04696214E-04   1.71995891E-06   3.94578808E-05   2.76505450E-03
   9.27500000E+02   5.00000000E-01   5.00000000E-01  -3.23247682E-03   8.18671724E-11   4.80883885E-03   4.08864616E-02   2.94606938E-02   4.13724571E-04   5.25501889E-13   2.02477425E-07   9.11148414E-06   5.54956752E-01   6.88423246E-05   1.21486495E-02   3.07076168E-08   4.82095937E-01   3.87419739E-02   1.82229683E-04   4.04954851E-04   1.72105812E-06   3.94830980E-05   2.86586820E-03
   9.62500000E+02   5.00000000E-01   5.00000000E-01  -3.12775692E-03   9.15318053E-11   4.81189250E-03   4.07261516E-02   2.85506977E-02   4.18883746E-04   5.97324051E-13   2.02606000E-07   9.11726999E-06   5.55309152E-01   6.88860399E-05   1.21563641E-02   3.16813027E-08   4.82455459E-01   3.77365745E-02   1.82345400E-04   4.05212000E-04   1.72215100E-06   3.95081700E-05   2.96921596E-03
   9.97500000E+02   5.00000000E-01   5.00000000E-01  -3.01989715E-03   1.02239583E-10   4.81492503E-03   4.05743416E-02   2.76610875E-02   4.23589805E-04   6.78681347E-13   2.02733686E-07   9.12301585E-06   5.55659118E-01   6.89294531E-05   1.21640253E-02   3.25762151E-08   4.82812226E-01   3.67609921E-02   1.82460317E-04   4.05467371E-04   1.72323633E-06   3.95330687E-05   3.07512357E-03
   1.03250000E+03   5.00000000E-01   5.00000000E-01  -2.90932333E-03   1.14097019E-10   4.81793369E-03   4.04302814E-02   2.67924176E-02   4.27884220E-04   7.70737731E-13   2.02860366E-07   9.12871646E-06   5.56006327E-01   6.89725243E-05   1.21716262E-02   3.33968971E-08   4.83166041E-01   3.58149172E-02   1.82574329E-04   4.05720731E-04   1.72431311E-06   3.95577713E-05   3.18361479E-03
   1.06750000E+03   5.00000000E-01   5.00000000E-01  -2.79650599E-03   1.27221191E-10   4.82091626E-03   4.02933135E-02   2.59450804E-02   4.31805753E-04   8.74786370E-13   2.02985948E-07   9.13436765E-06   5.56350526E-01   6.90152222E-05   1.21791613E-02   3.41481211E-08   4.83516748E-01   3.48979346E-02   1.82687353E-04   4.05971895E-04   1.72538056E-06   3.95822598E-05   3.29471038E-03
   1.10250000E+03   5.00000000E-01   5.00000000E-01  -2.68195289E-03   1.41740652E-10   4.82387107E-03   4.01628695E-02   2.51193292E-02   4.35390423E-04   9.92263960E-13   2.03110361E-07   9.13996624E-06   5.56691522E-01   6.90575227E-05   1.21866261E-02   3.48347486E-08   4.83864228E-01   3.40095465E-02   1.82799325E-04   4.06220722E-04   1.72643807E-06   3.96065204E-05   3.40842709E-03
   1.13750000E+03   5.00000000E-01   5.00000000E-01  -2.56620024E-03   1.57796372E-10   4.82679691E-03   4.00384638E-02   2.43152969E-02   4.38671527E-04   1.12476704E-12   2.03233554E-07   9.14550994E-06   5.57029174E-01   6.90994085E-05   1.21940178E-02   3.54616197E-08   4.84208396E-01   3.31491907E-02   1.82910199E-04   4.06467109E-04   1.72748521E-06   3.96305431E-05   3.52477658E-03
   1.17250000E+03   5.00000000E-01   5.00000000E-01  -2.44980294E-03   1.75542704E-10   4.82969298E-03   3.99196862E-02   2.35330116E-02   4.41679711E-04   1.27407053E-12   2.03355494E-07   9.15099722E-06   5.57363390E-01   6.91408679E-05   1.22013343E-02   3.60334711E-08   4.84549193E-01   3.23162552E-02   1.83019944E-04   4.06710988E-04   1.72852170E-06   3.96543213E-05   3.64376422E-03
   1.20750000E+03   5.00000000E-01   5.00000000E-01  -2.33332402E-03   1.95148375E-10   4.83255880E-03   3.98061937E-02   2.27724107E-02   4.44443070E-04   1.44214886E-12   2.03476160E-07   9.15642721E-06   5.57694116E-01   6.91818945E-05   1.22085743E-02   3.65548746E-08   4.84886587E-01   3.15100902E-02   1.83128544E-04   4.06952320E-04   1.72954736E-06   3.96778512E-05   3.76538799E-03
   1.24250000E+03   5.00000000E-01   5.00000000E-01  -2.21732387E-03   2.16797498E-10   4.83539424E-03   3.96977010E-02   2.20333533E-02   4.46987273E-04   1.63119991E-12   2.03595547E-07   9.16179962E-06   5.58021336E-01   6.92224860E-05   1.22157376E-02   3.70301938E-08   4.85220565E-01   3.07300177E-02   1.83235992E-04   4.07191094E-04   1.73056215E-06   3.97011317E-05   3.88963745E-03
   1.27750000E+03   5.00000000E-01   5.00000000E-01  -2.10234956E-03   2.40690600E-10   4.83819941E-03   3.95939712E-02   2.13156316E-02   4.49335696E-04   1.84367209E-12   2.03713659E-07   9.16711467E-06   5.58345062E-01   6.92626442E-05   1.22228244E-02   3.74635564E-08   4.85551135E-01   2.99753401E-02   1.83342293E-04   4.07427319E-04   1.73156610E-06   3.97241636E-05   4.01649282E-03
   1.31250000E+03   5.00000000E-01   5.00000000E-01  -1.98892467E-03   2.67045676E-10   4.84097464E-03   3.94948065E-02   2.06189802E-02   4.51509574E-04   2.08229489E-12   2.03830511E-07   9.17237299E-06   5.58665333E-01   6.93023737E-05   1.22298355E-02   3.78588362E-08   4.85878323E-01   2.92453472E-02   1.83447460E-04   4.07661022E-04   1.73255934E-06   3.97469496E-05   4.14592418E-03
   1.34750000E+03   5.00000000E-01   5.00000000E-01  -1.87754001E-03   2.96099269E-10   4.84372045E-03   3.94000390E-02   1.99430860E-02   4.53528143E-04   2.35011327E-12   2.03946124E-07   9.17757558E-06   5.58982209E-01   6.93416822E-05   1.22367724E-02   3.82196460E-08   4.86202167E-01   2.85393219E-02   1.83551512E-04   4.07892248E-04   1.73354205E-06   3.97694942E-05   4.27789099E-03
   1.38250000E+03   5.00000000E-01   5.00000000E-01  -1.76864562E-03   3.28107585E-10   4.84643752E-03   3.93095231E-02   1.92875956E-02   4.55408795E-04   2.65052611E-12   2.04060527E-07   9.18272372E-06   5.59295769E-01   6.93805792E-05   1.22436366E-02   3.85493363E-08   4.86522719E-01   2.78565457E-02   1.83654474E-04   4.08121054E-04   1.73451448E-06   3.97918028E-05   4.41234187E-03
   1.41750000E+03   5.00000000E-01   5.00000000E-01  -1.66264421E-03   3.63347650E-10   4.84912666E-03   3.92231279E-02   1.86521230E-02   4.57167218E-04   2.98732926E-12   2.04173754E-07   9.18781894E-06   5.59606105E-01   6.94190764E-05   1.22504303E-02   3.88509992E-08   4.86840046E-01   2.71963026E-02   1.83756379E-04   4.08347508E-04   1.73547691E-06   3.98138821E-05   4.54921462E-03
   1.45250000E+03   5.00000000E-01   5.00000000E-01  -1.55988630E-03   4.02118528E-10   4.85178879E-03   3.91407309E-02   1.80362559E-02   4.58817543E-04   3.36476350E-12   2.04285844E-07   9.19286297E-06   5.59913324E-01   6.94571869E-05   1.22571557E-02   3.91274769E-08   4.87154220E-01   2.65578827E-02   1.83857259E-04   4.08571687E-04   1.73642967E-06   3.98357395E-05   4.68843658E-03
   1.48750000E+03   5.00000000E-01   5.00000000E-01  -1.46066707E-03   4.44742601E-10   4.85442489E-03   3.90622132E-02   1.74395616E-02   4.60372470E-04   3.78756803E-12   2.04396837E-07   9.19785768E-06   5.60217539E-01   6.94949247E-05   1.22638153E-02   3.93813722E-08   4.87465328E-01   2.59405856E-02   1.83957154E-04   4.08793675E-04   1.73737312E-06   3.98573833E-05   4.82992505E-03
   1.52250000E+03   5.00000000E-01   5.00000000E-01  -1.36522499E-03   4.91566929E-10   4.85703602E-03   3.89874556E-02   1.68615921E-02   4.61843401E-04   4.26104009E-12   2.04506780E-07   9.20280509E-06   5.60518872E-01   6.95323051E-05   1.22704119E-02   3.96150610E-08   4.87773459E-01   2.53437224E-02   1.84056102E-04   4.09013559E-04   1.73830763E-06   3.98788220E-05   4.97358802E-03
   1.55750000E+03   5.00000000E-01   5.00000000E-01  -1.27374198E-03   5.42964694E-10   4.85962328E-03   3.89163353E-02   1.63018883E-02   4.63240558E-04   4.79110128E-12   2.04615717E-07   9.20770727E-06   5.60817452E-01   6.95693438E-05   1.22769482E-02   3.98307061E-08   4.88078714E-01   2.47666179E-02   1.84154145E-04   4.09231434E-04   1.73923360E-06   3.99000649E-05   5.11932502E-03
   1.59250000E+03   5.00000000E-01   5.00000000E-01  -1.18634507E-03   5.99336732E-10   4.86218782E-03   3.88487246E-02   1.57599845E-02   4.64573089E-04   5.38437149E-12   2.04723698E-07   9.21256640E-06   5.61113408E-01   6.96060572E-05   1.22834270E-02   4.00302713E-08   4.88381197E-01   2.42086123E-02   1.84251328E-04   4.09447395E-04   1.74015143E-06   3.99211210E-05   5.26702823E-03
   1.62750000E+03   5.00000000E-01   5.00000000E-01  -1.10310928E-03   6.61113166E-10   4.86473079E-03   3.87844897E-02   1.52354111E-02   4.65849177E-04   6.04825142E-12   2.04830770E-07   9.21738465E-06   5.61406875E-01   6.96424618E-05   1.22898514E-02   4.02155358E-08   4.88681018E-01   2.36690622E-02   1.84347693E-04   4.09661540E-04   1.74106154E-06   3.99420001E-05   5.41658364E-03
   1.66250000E+03   5.00000000E-01   5.00000000E-01  -1.02406137E-03   7.28755117E-10   4.86725335E-03   3.87234904E-02   1.47276981E-02   4.67076128E-04   6.79101469E-12   2.04936983E-07   9.22216424E-06   5.61697988E-01   6.96785743E-05   1.22962242E-02   4.03881082E-08   4.88978289E-01   2.31473421E-02   1.84443285E-04   4.09873966E-04   1.74196436E-06   3.99627117E-05   5.56787240E-03
   1.69750000E+03   5.00000000E-01   5.00000000E-01  -9.49184463E-04   8.02756511E-10   4.86975668E-03   3.86655808E-02   1.42363771E-02   4.68260461E-04   7.62191090E-12   2.05042387E-07   9.22690740E-06   5.61986881E-01   6.97144115E-05   1.23025484E-02   4.05494405E-08   4.89273127E-01   2.26428443E-02   1.84538148E-04   4.10084773E-04   1.74286029E-06   3.99832654E-05   5.72077207E-03
   1.73250000E+03   5.00000000E-01   5.00000000E-01  -8.78422935E-04   8.83645963E-10   4.87224195E-03   3.86106099E-02   1.37609837E-02   4.69407984E-04   8.55128120E-12   2.05147030E-07   9.23161633E-06   5.62273690E-01   6.97499900E-05   1.23088270E-02   4.07008411E-08   4.89565648E-01   2.21549800E-02   1.84632327E-04   4.10294059E-04   1.74374975E-06   4.00036708E-05   5.87515765E-03
   1.76750000E+03   5.00000000E-01   5.00000000E-01  -8.11687663E-04   9.71988729E-10   4.87471031E-03   3.85584228E-02   1.33010592E-02   4.70523870E-04   9.59068804E-12   2.05250960E-07   9.23629322E-06   5.62558547E-01   6.97853265E-05   1.23150629E-02   4.08434874E-08   4.89855972E-01   2.16831795E-02   1.84725864E-04   4.10501921E-04   1.74463316E-06   4.00239373E-05   6.03090251E-03
   1.80250000E+03   5.00000000E-01   5.00000000E-01  -7.48861181E-04   1.06838872E-09   4.87716290E-03   3.85088618E-02   1.28561521E-02   4.71612716E-04   1.07530608E-11   2.05354227E-07   9.24094023E-06   5.62841584E-01   6.98204373E-05   1.23212589E-02   4.09784376E-08   4.90144218E-01   2.12268919E-02   1.84818805E-04   4.10708455E-04   1.74551093E-06   4.00440743E-05   6.18787923E-03
   1.83750000E+03   5.00000000E-01   5.00000000E-01  -6.89802699E-04   1.17349055E-09   4.87960084E-03   3.84617684E-02   1.24258192E-02   4.72678606E-04   1.20528596E-11   2.05456877E-07   9.24555948E-06   5.63122931E-01   6.98553383E-05   1.23274179E-02   4.11066416E-08   4.90430502E-01   2.07855856E-02   1.84911190E-04   4.10913755E-04   1.74638346E-06   4.00640911E-05   6.34596042E-03
   1.87250000E+03   5.00000000E-01   5.00000000E-01  -6.34352816E-04   1.28798161E-09   4.88202523E-03   3.84169838E-02   1.20096265E-02   4.73725161E-04   1.35062593E-11   2.05558957E-07   9.25015306E-06   5.63402714E-01   6.98900454E-05   1.23335427E-02   4.12289514E-08   4.90714943E-01   2.03587478E-02   1.85003061E-04   4.11117914E-04   1.74725113E-06   4.00839966E-05   6.50501944E-03
   1.90750000E+03   5.00000000E-01   5.00000000E-01  -5.82337851E-04   1.41259420E-09   4.88443714E-03   3.83743507E-02   1.16071499E-02   4.74755588E-04   1.51313573E-11   2.05660511E-07   9.25472300E-06   5.63681057E-01   6.99245738E-05   1.23396360E-02   4.13461303E-08   4.90997656E-01   1.99458844E-02   1.85094460E-04   4.11321022E-04   1.74811434E-06   4.01037997E-05   6.66493086E-03
   1.94250000E+03   5.00000000E-01   5.00000000E-01  -5.33573723E-04   1.54810758E-09   4.88683761E-03   3.83337144E-02   1.12179761E-02   4.75772721E-04   1.69484067E-11   2.05761584E-07   9.25927127E-06   5.63958080E-01   6.99589385E-05   1.23457004E-02   4.14588617E-08   4.91278753E-01   1.95465195E-02   1.85185425E-04   4.11523168E-04   1.74897346E-06   4.01235088E-05   6.82557091E-03
   1.97750000E+03   5.00000000E-01   5.00000000E-01  -4.87869354E-04   1.69535007E-09   4.88922768E-03   3.82949237E-02   1.08417027E-02   4.76779059E-04   1.89800798E-11   2.05862218E-07   9.26379981E-06   5.64233902E-01   6.99931541E-05   1.23517384E-02   4.15677573E-08   4.91558346E-01   1.91601954E-02   1.85275996E-04   4.11724436E-04   1.74982885E-06   4.01431325E-05   6.98681773E-03
   2.01250000E+03   5.00000000E-01   5.00000000E-01  -4.45029596E-04   1.85520110E-09   4.89160832E-03   3.82578317E-02   1.04779384E-02   4.77776804E-04   2.12517648E-11   2.05962455E-07   9.26831049E-06   5.64508636E-01   7.00272348E-05   1.23577527E-02   4.16733639E-08   4.91836541E-01   1.87864716E-02   1.85366210E-04   4.11924911E-04   1.75068087E-06   4.01626788E-05   7.14855148E-03
   2.04750000E+03   5.00000000E-01   5.00000000E-01  -4.04857699E-04   2.02859316E-09   4.89398049E-03   3.82222964E-02   1.01263035E-02   4.78767884E-04   2.37919005E-11   2.06062336E-07   9.27280514E-06   5.64782393E-01   7.00611944E-05   1.23637456E-02   4.17761702E-08   4.92113443E-01   1.84249249E-02   1.85456103E-04   4.12124673E-04   1.75152986E-06   4.01821556E-05   7.31065395E-03
   2.08250000E+03   5.00000000E-01   5.00000000E-01  -3.67157316E-04   2.21651372E-09   4.89634513E-03   3.81881813E-02   9.78642953E-03   4.79753986E-04   2.66323544E-11   2.06161900E-07   9.27728551E-06   5.65055280E-01   7.00950460E-05   1.23697194E-02   4.18766130E-08   4.92389155E-01   1.80751483E-02   1.85545710E-04   4.12323800E-04   1.75237615E-06   4.02015705E-05   7.47300847E-03
   2.11750000E+03   5.00000000E-01   5.00000000E-01  -3.31734104E-04   2.42000704E-09   4.89870313E-03   3.81553554E-02   9.45795957E-03   4.80736582E-04   2.98088469E-11   2.06261185E-07   9.28175331E-06   5.65327403E-01   7.01288028E-05   1.23756765E-02   4.19750823E-08   4.92663774E-01   1.77367510E-02   1.85635066E-04   4.12522369E-04   1.75322007E-06   4.02209310E-05   7.63550023E-03
   2.15250000E+03   5.00000000E-01   5.00000000E-01  -2.98396943E-04   2.64017583E-09   4.90105538E-03   3.81236938E-02   9.14054803E-03   4.81716946E-04   3.33614297E-11   2.06360227E-07   9.28621020E-06   5.65598860E-01   7.01624771E-05   1.23816190E-02   4.20719265E-08   4.92937395E-01   1.74093574E-02   1.85724204E-04   4.12720453E-04   1.75406193E-06   4.02402442E-05   7.79801680E-03
   2.18750000E+03   5.00000000E-01   5.00000000E-01  -2.66958852E-04   2.87818288E-09   4.90340272E-03   3.80930775E-02   8.83386050E-03   4.82696180E-04   3.73350234E-11   2.06459062E-07   9.29065778E-06   5.65869751E-01   7.01960810E-05   1.23875491E-02   4.21674568E-08   4.93210110E-01   1.70926068E-02   1.85813156E-04   4.12918123E-04   1.75490202E-06   4.02595170E-05   7.96044867E-03
   2.22250000E+03   5.00000000E-01   5.00000000E-01  -2.37237616E-04   3.13525241E-09   4.90574595E-03   3.80633931E-02   8.53757359E-03   4.83675233E-04   4.17800223E-11   2.06557724E-07   9.29509759E-06   5.66140168E-01   7.02296262E-05   1.23934689E-02   4.22619509E-08   4.93482007E-01   1.67861525E-02   1.85901952E-04   4.13115448E-04   1.75574066E-06   4.02787562E-05   8.12268981E-03
   2.25750000E+03   5.00000000E-01   5.00000000E-01  -2.09056175E-04   3.41267145E-09   4.90808588E-03   3.80345332E-02   8.25137469E-03   4.84654922E-04   4.67529745E-11   2.06656248E-07   9.29953114E-06   5.66410204E-01   7.02631242E-05   1.23993803E-02   4.23556570E-08   4.93753171E-01   1.64896616E-02   1.85990623E-04   4.13312495E-04   1.75657810E-06   4.02979683E-05   8.28463816E-03
   2.29250000E+03   5.00000000E-01   5.00000000E-01  -1.82242819E-04   3.71179088E-09   4.91042326E-03   3.80063957E-02   7.97496178E-03   4.85635950E-04   5.23173444E-11   2.06754664E-07   9.30395987E-06   5.66679946E-01   7.02965857E-05   1.24052853E-02   4.24487969E-08   4.94023684E-01   1.62028141E-02   1.86079197E-04   4.13509328E-04   1.75741464E-06   4.03171594E-05   8.44619629E-03
   2.32750000E+03   5.00000000E-01   5.00000000E-01  -1.56631204E-04   4.03402649E-09   4.91275885E-03   3.79788834E-02   7.70804309E-03   4.86618927E-04   5.85443680E-11   2.06853004E-07   9.30838518E-06   5.66949481E-01   7.03300214E-05   1.24111857E-02   4.25415685E-08   4.94293623E-01   1.59253025E-02   1.86167704E-04   4.13706008E-04   1.75825053E-06   4.03363358E-05   8.60727193E-03
   2.36250000E+03   5.00000000E-01   5.00000000E-01  -1.32060234E-04   4.38085975E-09   4.91509334E-03   3.79519040E-02   7.45033691E-03   4.87604396E-04   6.55140106E-11   2.06951299E-07   9.31280844E-06   5.67218890E-01   7.03634415E-05   1.24170834E-02   4.26341492E-08   4.94563064E-01   1.56568308E-02   1.86256169E-04   4.13902597E-04   1.75908604E-06   4.03555032E-05   8.76777875E-03
   2.39750000E+03   5.00000000E-01   5.00000000E-01  -1.08373838E-04   4.75383851E-09   4.91742744E-03   3.79253695E-02   7.20157122E-03   4.88592850E-04   7.33160360E-11   2.07049576E-07   9.31723094E-06   5.67488253E-01   7.03968560E-05   1.24229801E-02   4.27266974E-08   4.94832079E-01   1.53971142E-02   1.86344619E-04   4.14099153E-04   1.75992140E-06   4.03746674E-05   8.92763707E-03
   2.43250000E+03   5.00000000E-01   5.00000000E-01  -8.54206420E-05   5.15457765E-09   4.91976181E-03   3.78991955E-02   6.96148347E-03   4.89584763E-04   8.20511998E-11   2.07147866E-07   9.32165396E-06   5.67757647E-01   7.04302744E-05   1.24288775E-02   4.28193552E-08   4.95100736E-01   1.51458787E-02   1.86433079E-04   4.14295732E-04   1.76075686E-06   4.03938338E-05   9.08677467E-03
   2.46750000E+03   5.00000000E-01   5.00000000E-01  -6.30535950E-05   5.58475957E-09   4.92209711E-03   3.78733007E-02   6.72982022E-03   4.90580611E-04   9.18325774E-11   2.07246194E-07   9.32607873E-06   5.68027149E-01   7.04637060E-05   1.24347772E-02   4.29122497E-08   4.95369101E-01   1.49028600E-02   1.86521575E-04   4.14492388E-04   1.76159265E-06   4.04130078E-05   9.24512756E-03
   2.50250000E+03   5.00000000E-01   5.00000000E-01  -4.11295274E-05   6.04613469E-09   4.92443396E-03   3.78476068E-02   6.50633688E-03   4.91580904E-04   1.02787039E-10   2.07344588E-07   9.33050645E-06   5.68296829E-01   7.04971598E-05   1.24406808E-02   4.30054953E-08   4.95637239E-01   1.46678033E-02   1.86610129E-04   4.14689176E-04   1.76242900E-06   4.04321946E-05   9.40264067E-03
   2.53750000E+03   5.00000000E-01   5.00000000E-01  -1.95086843E-05   6.54052199E-09   4.92677297E-03   3.78220376E-02   6.29079737E-03   4.92586207E-04   1.15056886E-10   2.07443073E-07   9.33493827E-06   5.68566760E-01   7.05306447E-05   1.24465899E-02   4.30991946E-08   4.95905208E-01   1.44404627E-02   1.86698765E-04   4.14886145E-04   1.76326612E-06   4.04513992E-05   9.55926842E-03
   2.57250000E+03   5.00000000E-01   5.00000000E-01   1.94576708E-06   7.06980952E-09   4.92911474E-03   3.77965186E-02   6.08297380E-03   4.93597165E-04   1.28801661E-10   2.07541673E-07   9.33937531E-06   5.68837008E-01   7.05641690E-05   1.24525060E-02   4.31934401E-08   4.96173069E-01   1.42206006E-02   1.86787506E-04   4.15083347E-04   1.76410422E-06   4.04706263E-05   9.71497500E-03
   2.60750000E+03   5.00000000E-01   5.00000000E-01   2.33682405E-05   7.63595501E-09   4.93145985E-03   3.77709766E-02   5.88264615E-03   4.94614523E-04   1.44200150E-10   2.07640415E-07   9.34381866E-06   5.69107642E-01   7.05977410E-05   1.24584305E-02   4.32883150E-08   4.96440878E-01   1.40079876E-02   1.86876373E-04   4.15280829E-04   1.76494352E-06   4.04898809E-05   9.86973440E-03