 TITLE = "Total Concentrations" 
VARIABLES = "X"          "Y"              "Z"            "H+"             "Al+++"          "CO2(aq)"        "Mg++"           "Ca++"           "Fe++"           "Fe+++"          "Ba++"           "Sr++"           "Li+"            "Rb+"            "Mn++"           "Zn++"           "Cu++"           "Cu+"            "Cl-"            "F-"             "K+"             "HS-"            "Na+"            "SO4--"          "O2(aq)"         "B(OH)3(aq)"     "HPO4--"         "NO3-"           "H4SiO4(aq)"     "Ti(OH)4(aq)"   
 ZONE I=         200 , J=           1 , K=           1  F=POINT
   8.75000000E+00   5.00000000E-01   5.00000000E-01  -4.67900894E-03   7.98777669E-13   4.74997155E-03   5.07972901E-02   1.05945926E-02   5.29287506E-05   1.76696581E-22   1.18964242E-07   8.99994824E-06   2.45998526E-05   1.39999161E-06   5.58740440E-06   3.88037585E-07   1.42214624E-09   1.21810060E-09   5.48189429E-01   6.79996184E-05   1.19999281E-02   1.31939435E-25   4.74032596E-01   2.79997513E-02   1.79997018E-08   3.99997604E-04   1.69998982E-06   3.89997664E-05   4.09710610E-04   2.09631040E-09
   2.62500000E+01   5.00000000E-01   5.00000000E-01  -4.60364769E-03   2.54426241E-12   4.74999810E-03   5.04914129E-02   1.07893448E-02   1.05816525E-04   6.93945869E-22   8.91033036E-08   9.00000071E-06   2.45999902E-05   1.39999944E-06   1.11683829E-05   7.00094079E-07   1.42430895E-09   1.21621522E-09   5.48192494E-01   6.80000246E-05   1.19999952E-02   1.48155863E-26   4.74065235E-01   2.79998779E-02   1.79996120E-08   3.99999840E-04   1.69999932E-06   3.89999844E-05   6.25767769E-04   2.10262440E-09
   4.37500000E+01   5.00000000E-01   5.00000000E-01  -4.55484429E-03   4.02783588E-12   4.75018787E-03   5.02043300E-02   1.09845064E-02   1.58679821E-04   1.38730675E-21   7.91722643E-08   9.00036241E-06   2.46009730E-05   1.40005537E-06   1.67508228E-05   1.01218880E-06   1.42652070E-09   1.21437145E-09   5.48214394E-01   6.80027676E-05   1.20004746E-02   3.31407183E-26   4.74106419E-01   2.80009866E-02   1.80001407E-08   4.00015821E-04   1.70006724E-06   3.90015425E-05   8.28238655E-04   2.10811969E-09
   6.12500000E+01   5.00000000E-01   5.00000000E-01  -4.51677690E-03   5.31572500E-12   4.75053372E-03   4.99299251E-02   1.11800782E-02   2.11514249E-04   2.18750362E-21   7.76323721E-08   9.00101986E-06   2.46027641E-05   1.40015731E-06   2.23352846E-05   1.32434855E-06   1.42877956E-09   1.21256728E-09   5.48254309E-01   6.80077454E-05   1.20013483E-02   6.72386093E-26   4.74151679E-01   2.80030238E-02   1.80012608E-08   4.00044945E-04   1.70019102E-06   3.90043821E-05   9.97716397E-04   2.11272237E-09
   7.87500000E+01   5.00000000E-01   5.00000000E-01  -4.48312916E-03   6.66393234E-12   4.75102913E-03   4.96651990E-02   1.13760678E-02   2.64319495E-04   3.10271385E-21   7.98904505E-08   9.00196068E-06   2.46053298E-05   1.40030332E-06   2.79222979E-05   1.63660074E-06   1.43108379E-09   1.21080085E-09   5.48311483E-01   6.80148645E-05   1.20025999E-02   1.30123349E-25   4.74199865E-01   2.80059463E-02   1.80029476E-08   4.00086663E-04   1.70036832E-06   3.90084497E-05   1.12977035E-03   2.11649253E-09
   9.62500000E+01   5.00000000E-01   5.00000000E-01  -4.45238373E-03   8.08075177E-12   4.75166807E-03   4.94082972E-02   1.15724841E-02   3.17094218E-04   4.11388480E-21   8.40158988E-08   9.00317345E-06   2.46086388E-05   1.40049164E-06   3.35123647E-05   1.94897144E-06   1.43343176E-09   1.20907045E-09   5.48385222E-01   6.80240387E-05   1.20042140E-02   2.43767743E-25   4.74252403E-01   2.80097168E-02   1.80051782E-08   4.00140469E-04   1.70059699E-06   3.90136957E-05   1.23040274E-03   2.11950068E-09
   1.13750000E+02   5.00000000E-01   5.00000000E-01  -4.42373278E-03   9.51531728E-12   4.75244499E-03   4.91572378E-02   1.17693347E-02   3.69834690E-04   5.20215242E-21   8.91601009E-08   9.00464767E-06   2.46126625E-05   1.40072063E-06   3.91059614E-05   2.26148538E-06   1.43582201E-09   1.20737451E-09   5.48474886E-01   6.80351885E-05   1.20061768E-02   4.45536942E-25   4.74311748E-01   2.80143017E-02   1.80079316E-08   4.00205894E-04   1.70087505E-06   3.90200747E-05   1.30916363E-03   2.12181621E-09
   1.31250000E+02   5.00000000E-01   5.00000000E-01  -4.39625561E-03   1.09438158E-11   4.75335479E-03   4.89101260E-02   1.19666254E-02   4.22535507E-04   6.36980862E-21   9.49349404E-08   9.00637365E-06   2.46173743E-05   1.40098878E-06   4.47035421E-05   2.57416616E-06   1.43825316E-09   1.20571154E-09   5.48579885E-01   6.80482407E-05   1.20084752E-02   7.99398451E-25   4.74380130E-01   2.80196704E-02   1.80111883E-08   4.00282508E-04   1.70120066E-06   3.90275446E-05   1.37466657E-03   2.12351167E-09
   1.48750000E+02   5.00000000E-01   5.00000000E-01  -4.36911080E-03   1.23662011E-11   4.75439272E-03   4.86654768E-02   1.21643610E-02   4.75190272E-04   7.63473247E-21   1.01156252E-07   9.00834243E-06   2.46227497E-05   1.40129470E-06   5.03055399E-05   2.88703646E-06   1.44072397E-09   1.20408021E-09   5.48699672E-01   6.80631276E-05   1.20110974E-02   1.41448037E-24   4.74459090E-01   2.80257950E-02   1.80149306E-08   4.00369914E-04   1.70157213E-06   3.90360666E-05   1.43316936E-03   2.12466407E-09
   1.66250000E+02   5.00000000E-01   5.00000000E-01  -4.34164172E-03   1.37937112E-11   4.75555443E-03   4.84222533E-02   1.23625455E-02   5.27792012E-04   9.02220953E-21   1.07733462E-07   9.01054572E-06   2.46287661E-05   1.40163710E-06   5.59123695E-05   3.20011812E-06   1.44323328E-09   1.20247924E-09   5.48833744E-01   6.80797866E-05   1.20140322E-02   2.47592085E-24   4.74549504E-01   2.80326495E-02   1.80191417E-08   4.00467742E-04   1.70198790E-06   3.90456048E-05   1.48871369E-03   2.12535428E-09
   1.83750000E+02   5.00000000E-01   5.00000000E-01  -4.31336727E-03   1.52419946E-11   4.75683587E-03   4.81797697E-02   1.25611822E-02   5.80333434E-04   1.05605968E-20   1.14620333E-07   9.01297586E-06   2.46354026E-05   1.40201478E-06   6.15244283E-05   3.51343215E-06   1.44578004E-09   1.20090747E-09   5.48981633E-01   6.80981597E-05   1.20172695E-02   4.29610749E-24   4.74651767E-01   2.80402100E-02   1.80238064E-08   4.00575652E-04   1.70244652E-06   3.90561261E-05   1.54371660E-03   2.12566594E-09
   2.01250000E+02   5.00000000E-01   5.00000000E-01  -4.28394144E-03   1.67277643E-11   4.75823327E-03   4.79375820E-02   1.27602745E-02   6.32807097E-04   1.22796779E-20   1.21792232E-07   9.01562574E-06   2.46426397E-05   1.40242665E-06   6.71420985E-05   3.82699884E-06   1.44836326E-09   1.19936381E-09   5.49142906E-01   6.81181932E-05   1.20207998E-02   7.39939393E-24   4.74765959E-01   2.80484545E-02   1.80289104E-08   4.00693328E-04   1.70294664E-06   3.90675995E-05   1.59953849E-03   2.12568434E-09
   2.18750000E+02   5.00000000E-01   5.00000000E-01  -4.25311452E-03   1.82672200E-11   4.75974317E-03   4.76954017E-02   1.29598255E-02   6.85205532E-04   1.42103153E-20   1.29235295E-07   9.01848876E-06   2.46504593E-05   1.40287167E-06   7.27657480E-05   4.14083778E-06   1.45098203E-09   1.19784724E-09   5.49317162E-01   6.81398373E-05   1.20246143E-02   1.26614704E-23   4.74891982E-01   2.80573623E-02   1.80344404E-08   4.00820477E-04   1.70348703E-06   3.90799965E-05   1.65689915E-03   2.12549531E-09
   2.36250000E+02   5.00000000E-01   5.00000000E-01  -4.22070341E-03   1.98753898E-11   4.76136232E-03   4.74530371E-02   1.31598381E-02   7.37521312E-04   1.63846307E-20   1.36941129E-07   9.02155880E-06   2.46588449E-05   1.40334889E-06   7.83957322E-05   4.45496793E-06   1.45363554E-09   1.19635680E-09   5.49504027E-01   6.81630457E-05   1.20287047E-02   2.15375212E-23   4.75029641E-01   2.80669144E-02   1.80403843E-08   4.00956827E-04   1.70406651E-06   3.90932906E-05   1.71614890E-03   2.12518432E-09
   2.53750000E+02   5.00000000E-01   5.00000000E-01  -4.18657117E-03   2.15659300E-11   4.76308773E-03   4.72103566E-02   1.33603156E-02   7.89747099E-04   1.88363449E-20   1.44904133E-07   9.02483016E-06   2.46677806E-05   1.40385744E-06   8.40323944E-05   4.76940766E-06   1.45632300E-09   1.19489163E-09   5.49703154E-01   6.81877753E-05   1.20330637E-02   3.64339143E-23   4.75178695E-01   2.80770931E-02   1.80467307E-08   4.01102124E-04   1.70468403E-06   3.91074571E-05   1.77743460E-03   2.12483560E-09
   2.71250000E+02   5.00000000E-01   5.00000000E-01  -4.15061333E-03   2.33511402E-11   4.76491659E-03   4.69672652E-02   1.35612613E-02   8.41875657E-04   2.16011282E-20   1.53120125E-07   9.02829756E-06   2.46772523E-05   1.40439647E-06   8.96760675E-05   5.08417475E-06   1.45904371E-09   1.19345088E-09   5.49914222E-01   6.82139862E-05   1.20376840E-02   6.13108074E-23   4.75338889E-01   2.80878820E-02   1.80534688E-08   4.01256134E-04   1.70533857E-06   3.91224731E-05   1.84079762E-03   2.12453147E-09
   2.88750000E+02   5.00000000E-01   5.00000000E-01  -4.11274916E-03   2.52420661E-11   4.76684632E-03   4.67236910E-02   1.37626785E-02   8.93899854E-04   2.47169116E-20   1.61585617E-07   9.03195606E-06   2.46872462E-05   1.40496523E-06   9.53270745E-05   5.39928652E-06   1.46179700E-09   1.19203379E-09   5.50136930E-01   6.82416411E-05   1.20425591E-02   1.02654489E-22   4.75509968E-01   2.80992656E-02   1.80605890E-08   4.01418638E-04   1.70602921E-06   3.91383172E-05   1.90623004E-03   2.12435172E-09
   3.06250000E+02   5.00000000E-01   5.00000000E-01  -4.07291610E-03   2.72486339E-11   4.76887449E-03   4.64795772E-02   1.39645711E-02   9.45812631E-04   2.82241500E-20   1.70297428E-07   9.03580107E-06   2.46977500E-05   1.40556301E-06   1.00985730E-04   5.71475980E-06   1.46458228E-09   1.19063962E-09   5.50370998E-01   6.82707054E-05   1.20476828E-02   1.71038956E-22   4.75691687E-01   2.81112297E-02   1.80680820E-08   4.01589430E-04   1.70675508E-06   3.91549695E-05   1.97370595E-03   2.12437313E-09
   3.23750000E+02   5.00000000E-01   5.00000000E-01  -4.03106626E-03   2.93797983E-11   4.77099883E-03   4.62348770E-02   1.41669430E-02   9.97606977E-04   3.21660533E-20   1.79252473E-07   9.03982833E-06   2.47087519E-05   1.40618913E-06   1.06652339E-04   6.03061098E-06   1.46739898E-09   1.18926770E-09   5.50616167E-01   6.83011468E-05   1.20530496E-02   2.83622250E-22   4.75883817E-01   2.81237611E-02   1.80759391E-08   4.01768323E-04   1.70751537E-06   3.91724115E-05   2.04319810E-03   2.12466911E-09
   3.41250000E+02   5.00000000E-01   5.00000000E-01  -3.98716416E-03   3.16437148E-11   4.77321726E-03   4.59895515E-02   1.43697985E-02   1.04927589E-03   3.65888094E-20   1.88447652E-07   9.04403384E-06   2.47202410E-05   1.40684298E-06   1.12327200E-04   6.34685605E-06   1.47024659E-09   1.18791739E-09   5.50872193E-01   6.83329350E-05   1.20586540E-02   4.68119039E-22   4.76086142E-01   2.81368472E-02   1.80841526E-08   4.01955138E-04   1.70830933E-06   3.91906259E-05   2.11468591E-03   2.12530935E-09
   3.58750000E+02   5.00000000E-01   5.00000000E-01  -3.94118512E-03   3.40479467E-11   4.77552780E-03   4.57435677E-02   1.45731421E-02   1.10081235E-03   4.15418279E-20   1.97879786E-07   9.04841389E-06   2.47322071E-05   1.40752398E-06   1.18010606E-04   6.66351065E-06   1.47312462E-09   1.18658808E-09   5.51138850E-01   6.83660421E-05   1.20644912E-02   7.69094586E-22   4.76298462E-01   2.81504765E-02   1.80927148E-08   4.02149709E-04   1.70913626E-06   3.92095967E-05   2.18815839E-03   2.12635967E-09
   3.76250000E+02   5.00000000E-01   5.00000000E-01  -3.89311422E-03   3.65997078E-11   4.77792862E-03   4.54968983E-02   1.47769787E-02   1.15220926E-03   4.70780228E-20   2.07545590E-07   9.05296501E-06   2.47446409E-05   1.40823159E-06   1.23702842E-04   6.98059006E-06   1.47603264E-09   1.18527921E-09   5.51415927E-01   6.84004418E-05   1.20705564E-02   1.25789365E-21   4.76520593E-01   2.81646383E-02   1.81016189E-08   4.02351884E-04   1.70999551E-06   3.92293087E-05   2.26361423E-03   2.12788181E-09
   3.93750000E+02   5.00000000E-01   5.00000000E-01  -3.84294553E-03   3.93061147E-11   4.78041802E-03   4.52495212E-02   1.49813132E-02   1.20345949E-03   5.32541326E-20   2.17441654E-07   9.05768396E-06   2.47575333E-05   1.40896531E-06   1.29404187E-04   7.29810926E-06   1.47897024E-09   1.18399026E-09   5.51703226E-01   6.84361096E-05   1.20768454E-02   2.04823762E-21   4.76752365E-01   2.81793225E-02   1.81108583E-08   4.02561517E-04   1.71088645E-06   3.92497480E-05   2.34106032E-03   2.12993342E-09
   4.11250000E+02   5.00000000E-01   5.00000000E-01  -3.79068193E-03   4.21743927E-11   4.78299440E-03   4.50014194E-02   1.51861509E-02   1.25455582E-03   6.01310423E-20   2.27564437E-07   9.06256771E-06   2.47708762E-05   1.40972466E-06   1.35114916E-04   7.61608296E-06   1.48193705E-09   1.18272071E-09   5.52000563E-01   6.84730227E-05   1.20833542E-02   3.32062402E-21   4.76993618E-01   2.81945196E-02   1.81204271E-08   4.02778476E-04   1.71180852E-06   3.92709014E-05   2.42051010E-03   2.13256797E-09
   4.28750000E+02   5.00000000E-01   5.00000000E-01  -3.73633538E-03   4.52119839E-11   4.78565626E-03   4.47525816E-02   1.53914973E-02   1.30549096E-03   6.77740579E-20   2.37910269E-07   9.06761345E-06   2.47846619E-05   1.41050921E-06   1.40835299E-04   7.93452558E-06   1.48493273E-09   1.18147009E-09   5.52307766E-01   6.85111597E-05   1.20900789E-02   5.36033893E-21   4.77244204E-01   2.82102208E-02   1.81303195E-08   4.03002633E-04   1.71276119E-06   3.92927567E-05   2.50198226E-03   2.13583482E-09
   4.46250000E+02   5.00000000E-01   5.00000000E-01  -3.67992769E-03   4.84265372E-11   4.78840223E-03   4.45030024E-02   1.55973580E-02   1.35625760E-03   7.62530939E-20   2.48475351E-07   9.07281853E-06   2.47988831E-05   1.41131855E-06   1.46565602E-04   8.25345134E-06   1.48795695E-09   1.18023796E-09   5.52624675E-01   6.85505008E-05   1.20970161E-02   8.61643480E-21   4.77503985E-01   2.82264180E-02   1.81405302E-08   4.03233872E-04   1.71374396E-06   3.93153025E-05   2.58550017E-03   2.13977923E-09
   4.63750000E+02   5.00000000E-01   5.00000000E-01  -3.62149147E-03   5.18258120E-11   4.79123099E-03   4.42526829E-02   1.58037389E-02   1.40684834E-03   8.56427794E-20   2.59255762E-07   9.07818049E-06   2.48135331E-05   1.41215229E-06   1.52306085E-04   8.57287423E-06   1.49100943E-09   1.17902390E-09   5.52951140E-01   6.85910273E-05   1.21041624E-02   1.37928664E-20   4.77772832E-01   2.82431035E-02   1.81510545E-08   4.03472084E-04   1.71475636E-06   3.93385282E-05   2.67109204E-03   2.14444247E-09
   4.81250000E+02   5.00000000E-01   5.00000000E-01  -3.56107091E-03   5.54175714E-11   4.79414134E-03   4.40016308E-02   1.60106458E-02   1.45725575E-03   9.60225352E-20   2.70247461E-07   9.08369705E-06   2.48286057E-05   1.41301008E-06   1.58057008E-04   8.89280802E-06   1.49408990E-09   1.17782752E-09   5.53287020E-01   6.86327218E-05   1.21115149E-02   2.19887591E-20   4.78050625E-01   2.82602701E-02   1.81618875E-08   4.03717166E-04   1.71579795E-06   3.93624237E-05   2.75879120E-03   2.14986190E-09
   4.98750000E+02   5.00000000E-01   5.00000000E-01  -3.49872205E-03   5.92095438E-11   4.79713214E-03   4.37498608E-02   1.62180850E-02   1.50747232E-03   1.07476704E-19   2.81446294E-07   9.08936604E-06   2.48440949E-05   1.41389158E-06   1.63818625E-04   9.21326634E-06   1.49719812E-09   1.17664842E-09   5.53632186E-01   6.86755682E-05   1.21190706E-02   3.49134587E-20   4.78337252E-01   2.82779112E-02   1.81730251E-08   4.03969023E-04   1.71686835E-06   3.93869797E-05   2.84863626E-03   2.15607110E-09
   5.16250000E+02   5.00000000E-01   5.00000000E-01  -3.43451258E-03   6.32095028E-11   4.80020234E-03   4.34973944E-02   1.64260626E-02   1.55749049E-03   1.20094807E-19   2.92847999E-07   9.09518547E-06   2.48599953E-05   1.41479648E-06   1.69591187E-04   9.53426264E-06   1.50033387E-09   1.17548627E-09   5.53986514E-01   6.87195513E-05   1.21268269E-02   5.52149900E-20   4.78632607E-01   2.82960205E-02   1.81844632E-08   4.04227566E-04   1.71796715E-06   3.94121876E-05   2.94067062E-03   2.16310000E-09
   5.33750000E+02   5.00000000E-01   5.00000000E-01  -3.36852123E-03   6.74254531E-11   4.80335095E-03   4.32442594E-02   1.66345850E-02   1.60730269E-03   1.33971952E-19   3.04448212E-07   9.10115347E-06   2.48763017E-05   1.41572449E-06   1.75374944E-04   9.85581022E-06   1.50349695E-09   1.17434071E-09   5.54349892E-01   6.87646570E-05   1.21347812E-02   8.69798873E-20   4.78936593E-01   2.83145921E-02   1.81961981E-08   4.04492711E-04   1.71909402E-06   3.94380394E-05   3.03494159E-03   2.17097504E-09
   5.51250000E+02   5.00000000E-01   5.00000000E-01  -3.30083704E-03   7.18658566E-11   4.80657704E-03   4.29904899E-02   1.68436586E-02   1.65690132E-03   1.49209342E-19   3.16242471E-07   9.10726829E-06   2.48930095E-05   1.41667534E-06   1.81170143E-04   1.01779222E-05   1.50668718E-09   1.17321144E-09   5.54722212E-01   6.88108720E-05   1.21429314E-02   1.36491073E-19   4.79249118E-01   2.83336208E-02   1.82082262E-08   4.04764382E-04   1.72024863E-06   3.94645273E-05   3.13149929E-03   2.17971934E-09
   5.68750000E+02   5.00000000E-01   5.00000000E-01  -3.23155887E-03   7.65397903E-11   4.80987977E-03   4.27361257E-02   1.70532899E-02   1.70627884E-03   1.65914766E-19   3.28226221E-07   9.11352831E-06   2.49101142E-05   1.41764877E-06   1.86977028E-04   1.05006118E-05   1.50990438E-09   1.17209816E-09   5.55103376E-01   6.88581842E-05   1.21512751E-02   2.13372896E-19   4.79570095E-01   2.83531013E-02   1.82205444E-08   4.05042507E-04   1.72143065E-06   3.94916444E-05   3.23039582E-03   2.18935284E-09
   5.86250000E+02   5.00000000E-01   5.00000000E-01  -3.16079526E-03   8.14569449E-11   4.81325833E-03   4.24812128E-02   1.72634855E-02   1.75542783E-03   1.84202916E-19   3.40394821E-07   9.11993202E-06   2.49276115E-05   1.41864456E-06   1.92795841E-04   1.08238917E-05   1.51314843E-09   1.17100056E-09   5.55493292E-01   6.89065821E-05   1.21598104E-02   3.32314917E-19   4.79899444E-01   2.83730291E-02   1.82331495E-08   4.05327017E-04   1.72263982E-06   3.95193842E-05   3.33168503E-03   2.19989250E-09
   6.03750000E+02   5.00000000E-01   5.00000000E-01  -3.08866470E-03   8.66274233E-11   4.81671197E-03   4.22258025E-02   1.74742519E-02   1.80434099E-03   2.04195430E-19   3.52743544E-07   9.12647800E-06   2.49454978E-05   1.41966248E-06   1.98626825E-04   1.11477750E-05   1.51641918E-09   1.16991839E-09   5.55891874E-01   6.89560550E-05   1.21685354E-02   5.15657604E-19   4.80237086E-01   2.83933996E-02   1.82460388E-08   4.05617850E-04   1.72387586E-06   3.95477404E-05   3.43542301E-03   2.21135246E-09
   6.21250000E+02   5.00000000E-01   5.00000000E-01  -3.01529594E-03   9.20613791E-11   4.82024002E-03   4.19699521E-02   1.76855960E-02   1.85301119E-03   2.26020642E-19   3.65267587E-07   9.13316496E-06   2.49637694E-05   1.42070232E-06   2.04470218E-04   1.14722743E-05   1.51971652E-09   1.16885139E-09   5.56299042E-01   6.90065930E-05   1.21774484E-02   7.97256916E-19   4.80582952E-01   2.84142089E-02   1.82592097E-08   4.05914949E-04   1.72513853E-06   3.95767075E-05   3.54166911E-03   2.22374419E-09
   6.38750000E+02   5.00000000E-01   5.00000000E-01  -2.94082803E-03   9.77685941E-11   4.82384182E-03   4.17137246E-02   1.78975243E-02   1.90143143E-03   2.49813114E-19   3.77962077E-07   9.13999166E-06   2.49824229E-05   1.42176391E-06   2.10326259E-04   1.17974025E-05   1.52304034E-09   1.16779931E-09   5.56714723E-01   6.90581870E-05   1.21865476E-02   1.22823956E-18   4.80936974E-01   2.84354531E-02   1.82726596E-08   4.06218259E-04   1.72642760E-06   3.96062802E-05   3.65048707E-03   2.23707664E-09
   6.56250000E+02   5.00000000E-01   5.00000000E-01  -2.86540977E-03   1.03758120E-10   4.82751678E-03   4.14571879E-02   1.81100437E-02   1.94959486E-03   2.75713127E-19   3.90822070E-07   9.14695700E-06   2.50014553E-05   1.42284705E-06   2.16195185E-04   1.21231720E-05   1.52639057E-09   1.16676191E-09   5.57138847E-01   6.91108285E-05   1.21958318E-02   1.88554355E-18   4.81299091E-01   2.84571288E-02   1.82863864E-08   4.06527729E-04   1.72774285E-06   3.96364536E-05   3.76194588E-03   2.25135642E-09
   6.73750000E+02   5.00000000E-01   5.00000000E-01  -2.78919852E-03   1.10038085E-10   4.83126436E-03   4.12004143E-02   1.83231609E-02   1.99749471E-03   3.03866316E-19   4.03842565E-07   9.15405991E-06   2.50208638E-05   1.42395160E-06   2.22077232E-04   1.24495954E-05   1.52976712E-09   1.16573898E-09   5.57571350E-01   6.91645095E-05   1.22052993E-02   2.88454823E-18   4.81669246E-01   2.84792326E-02   1.83003879E-08   4.06843314E-04   1.72908409E-06   3.96672232E-05   3.87611988E-03   2.26658791E-09
   6.91250000E+02   5.00000000E-01   5.00000000E-01  -2.71235827E-03   1.16615710E-10   4.83508403E-03   4.09434798E-02   1.85368831E-02   2.04512427E-03   3.34423564E-19   4.17018501E-07   9.16129944E-06   2.50406457E-05   1.42507740E-06   2.27972635E-04   1.27766854E-05   1.53316994E-09   1.16473032E-09   5.58012175E-01   6.92192227E-05   1.22149490E-02   4.39768849E-18   4.82047387E-01   2.85017616E-02   1.83146621E-08   4.07164971E-04   1.73045113E-06   3.96985847E-05   3.99308825E-03   2.28277344E-09
   7.08750000E+02   5.00000000E-01   5.00000000E-01  -2.63505748E-03   1.23497487E-10   4.83897534E-03   4.06864624E-02   1.87512170E-02   2.09247689E-03   3.67541160E-19   4.30344770E-07   9.16867470E-06   2.50607986E-05   1.42622431E-06   2.33881630E-04   1.31044543E-05   1.53659897E-09   1.16373571E-09   5.58461267E-01   6.92749615E-05   1.22247797E-02   6.68179769E-18   4.82433466E-01   2.85247130E-02   1.83292074E-08   4.07492660E-04   1.73184381E-06   3.97305344E-05   4.11293384E-03   2.29991341E-09
   7.26250000E+02   5.00000000E-01   5.00000000E-01  -2.55746697E-03   1.30689390E-10   4.84293785E-03   4.04294418E-02   1.89661696E-02   2.13954601E-03   4.03381039E-19   4.43816216E-07   9.17618487E-06   2.50813202E-05   1.42739221E-06   2.39804450E-04   1.34329147E-05   1.54005417E-09   1.16275498E-09   5.58918576E-01   6.93317197E-05   1.22347902E-02   1.01181392E-17   4.82827440E-01   2.85480843E-02   1.83440221E-08   4.07826345E-04   1.73326197E-06   3.97630687E-05   4.23574181E-03   2.31800645E-09
   7.43750000E+02   5.00000000E-01   5.00000000E-01  -2.47975824E-03   1.38196913E-10   4.84697116E-03   4.01724978E-02   1.91817481E-02   2.18632511E-03   4.42110699E-19   4.57427642E-07   9.18382921E-06   2.51022085E-05   1.42858097E-06   2.45741330E-04   1.37620788E-05   1.54353551E-09   1.16178793E-09   5.59384057E-01   6.93894916E-05   1.22449797E-02   1.52708172E-17   4.83229270E-01   2.85718730E-02   1.83591046E-08   4.08165993E-04   1.73470547E-06   3.97961843E-05   4.36159864E-03   2.33704952E-09
   7.61250000E+02   5.00000000E-01   5.00000000E-01  -2.40210248E-03   1.46024760E-10   4.85107492E-03   3.99157106E-02   1.93979594E-02   2.23280780E-03   4.83902372E-19   4.71173815E-07   9.19160701E-06   2.51234617E-05   1.42979050E-06   2.51692503E-04   1.40919591E-05   1.54704298E-09   1.16083441E-09   5.59857667E-01   6.94482720E-05   1.22553470E-02   2.29717097E-17   4.83638919E-01   2.85960772E-02   1.83744536E-08   4.08511572E-04   1.73617418E-06   3.98298783E-05   4.49059170E-03   2.35703806E-09
   7.78750000E+02   5.00000000E-01   5.00000000E-01  -2.32467017E-03   1.54176088E-10   4.85524879E-03   3.96591599E-02   1.96148106E-02   2.27898771E-03   5.28931054E-19   4.85049472E-07   9.19951767E-06   2.51450779E-05   1.43102070E-06   2.57658202E-04   1.44225680E-05   1.55057656E-09   1.15989425E-09   5.60339369E-01   6.95080561E-05   1.22658916E-02   3.44435160E-17   4.84056357E-01   2.86206947E-02   1.83900679E-08   4.08863056E-04   1.73766799E-06   3.98641479E-05   4.62280976E-03   2.37796610E-09
   7.96250000E+02   5.00000000E-01   5.00000000E-01  -2.24763095E-03   1.62651364E-10   4.85949247E-03   3.94029249E-02   1.98323087E-02   2.32485845E-03   5.77371309E-19   4.99049324E-07   9.20756061E-06   2.51670557E-05   1.43227147E-06   2.63638662E-04   1.47539177E-05   1.55413626E-09   1.15896730E-09   5.60829128E-01   6.95688398E-05   1.22766124E-02   5.14773578E-17   4.84481554E-01   2.86457240E-02   1.84059462E-08   4.09220419E-04   1.73918678E-06   3.98989908E-05   4.75834402E-03   2.39982638E-09
   8.13750000E+02   5.00000000E-01   5.00000000E-01  -2.17115325E-03   1.71447048E-10   4.86380570E-03   3.91470842E-02   2.00504610E-02   2.37041339E-03   6.29393114E-19   5.13168062E-07   9.21573533E-06   2.51893937E-05   1.43354273E-06   2.69634116E-04   1.50860207E-05   1.55772208E-09   1.15805342E-09   5.61326914E-01   6.96306192E-05   1.22875090E-02   7.66881375E-17   4.84914488E-01   2.86711633E-02   1.84220875E-08   4.09583638E-04   1.74073046E-06   3.99344047E-05   4.89728939E-03   2.42261040E-09
   8.31250000E+02   5.00000000E-01   5.00000000E-01  -2.09540330E-03   1.80554385E-10   4.86818824E-03   3.88917152E-02   2.02692745E-02   2.41564554E-03   6.85157287E-19   5.27400368E-07   9.22404137E-06   2.52120907E-05   1.43483443E-06   2.75644797E-04   1.54188891E-05   1.56133404E-09   1.15715247E-09   5.61832698E-01   6.96933908E-05   1.22985807E-02   1.13880288E-16   4.85355139E-01   2.86970112E-02   1.84384910E-08   4.09952694E-04   1.74229895E-06   3.99703876E-05   5.03974539E-03   2.44630859E-09
   8.48750000E+02   5.00000000E-01   5.00000000E-01  -2.02054341E-03   1.89958580E-10   4.87263986E-03   3.86368931E-02   2.04887566E-02   2.46054722E-03   7.44811175E-19   5.41740915E-07   9.23247833E-06   2.52351454E-05   1.43614649E-06   2.81670941E-04   1.57525353E-05   1.56497217E-09   1.15626434E-09   5.62346456E-01   6.97571516E-05   1.23098269E-02   1.68569639E-16   4.85803492E-01   2.87232665E-02   1.84551559E-08   4.10327568E-04   1.74389216E-06   4.00069378E-05   5.18581634E-03   2.47091035E-09
   8.66250000E+02   5.00000000E-01   5.00000000E-01  -1.94672957E-03   1.99638512E-10   4.87716040E-03   3.83826903E-02   2.07089145E-02   2.50510990E-03   8.08485161E-19   5.56184377E-07   9.24104584E-06   2.52585570E-05   1.43747885E-06   2.87712782E-04   1.60869714E-05   1.56863649E-09   1.15538890E-09   5.62868166E-01   6.98218988E-05   1.23212472E-02   2.48725265E-16   4.86259537E-01   2.87499281E-02   1.84720813E-08   4.10708244E-04   1.74551004E-06   4.00440538E-05   5.33561066E-03   2.49640413E-09
   8.83750000E+02   5.00000000E-01   5.00000000E-01  -1.87410875E-03   2.09567011E-10   4.88174967E-03   3.81291748E-02   2.09297556E-02   2.54932400E-03   8.76290284E-19   5.70725432E-07   9.24974360E-06   2.52823246E-05   1.43883148E-06   2.93770555E-04   1.64222098E-05   1.57232706E-09   1.15452607E-09   5.63397809E-01   6.98876302E-05   1.23328411E-02   3.65820129E-16   4.86723269E-01   2.87769950E-02   1.84892667E-08   4.11094709E-04   1.74715251E-06   4.00817341E-05   5.48923940E-03   2.52277758E-09
   9.01250000E+02   5.00000000E-01   5.00000000E-01  -1.80281638E-03   2.19711580E-10   4.88640754E-03   3.78764097E-02   2.11512875E-02   2.59317870E-03   9.48316974E-19   5.85358767E-07   9.25857135E-06   2.53064475E-05   1.44020433E-06   2.99844496E-04   1.67582626E-05   1.57604392E-09   1.15367576E-09   5.63935369E-01   6.99543437E-05   1.23446084E-02   5.36313689E-16   4.87194685E-01   2.88044664E-02   1.85067115E-08   4.11486951E-04   1.74881954E-06   4.01199777E-05   5.64681421E-03   2.55001757E-09
   9.18750000E+02   5.00000000E-01   5.00000000E-01  -1.73297415E-03   2.30035418E-10   4.89113389E-03   3.76244519E-02   2.13735177E-02   2.63666191E-03   1.02463471E-18   6.00079078E-07   9.26752886E-06   2.53309250E-05   1.44159736E-06   3.05934841E-04   1.70951419E-05   1.57978713E-09   1.15283790E-09   5.64480833E-01   7.00220377E-05   1.23565487E-02   7.83736470E-16   4.87673788E-01   2.88323415E-02   1.85244153E-08   4.11884959E-04   1.75051108E-06   4.01587835E-05   5.80844520E-03   2.57811031E-09
   9.36250000E+02   5.00000000E-01   5.00000000E-01  -1.66468857E-03   2.40498578E-10   4.89592864E-03   3.73733519E-02   2.15964538E-02   2.67976018E-03   1.10529238E-18   6.14881076E-07   9.27661596E-06   2.53557567E-05   1.44301055E-06   3.12041827E-04   1.74328599E-05   1.58355674E-09   1.15201246E-09   5.65034190E-01   7.00907108E-05   1.23686617E-02   1.14161051E-15   4.88160581E-01   2.88606198E-02   1.85423778E-08   4.12288727E-04   1.75222709E-06   4.01981509E-05   5.97423878E-03   2.60704143E-09
   9.53750000E+02   5.00000000E-01   5.00000000E-01  -1.59805007E-03   2.51059135E-10   4.90079170E-03   3.71231533E-02   2.18201038E-02   2.72245880E-03   1.19031898E-18   6.29759484E-07   9.28583250E-06   2.53809423E-05   1.44444387E-06   3.18165693E-04   1.77714286E-05   1.58735283E-09   1.15119944E-09   5.65595431E-01   7.01603619E-05   1.23809473E-02   1.65752611E-15   4.88655073E-01   2.88893007E-02   1.85605985E-08   4.12698248E-04   1.75396756E-06   4.02380792E-05   6.14429578E-03   2.63679605E-09
   9.71250000E+02   5.00000000E-01   5.00000000E-01  -1.53313288E-03   2.61674284E-10   4.90572302E-03   3.68738935E-02   2.20444752E-02   2.76474178E-03   1.27972468E-18   6.44709039E-07   9.29517839E-06   2.54064813E-05   1.44589731E-06   3.24306678E-04   1.81108602E-05   1.59117548E-09   1.15039888E-09   5.66164550E-01   7.02309903E-05   1.23934054E-02   2.39881202E-15   4.89157273E-01   2.89183840E-02   1.85790774E-08   4.13113518E-04   1.75573245E-06   4.02785680E-05   6.31870992E-03   2.66735890E-09
   9.88750000E+02   5.00000000E-01   5.00000000E-01  -1.46999533E-03   2.72301267E-10   4.91072257E-03   3.66256030E-02   2.22695758E-02   2.80659201E-03   1.37350170E-18   6.59724496E-07   9.30465355E-06   2.54323737E-05   1.44737086E-06   3.30465022E-04   1.84511667E-05   1.59502475E-09   1.14961087E-09   5.66741543E-01   7.03025956E-05   1.24060359E-02   3.46039272E-15   4.89667190E-01   2.89478691E-02   1.85978143E-08   4.13534532E-04   1.75752176E-06   4.03196169E-05   6.49756667E-03   2.69871430E-09