 TITLE = "Total Concentrations" 
VARIABLES = "X"          "Y"              "Z"            "H+"             "Al+++"          "CO2(aq)"        "Mg++"           "Ca++"           "Fe++"           "Fe+++"          "Ba++"           "Sr++"           "Cl-"            "F-"             "K+"             "HS-"            "Na+"            "SO4--"          "O2(aq)"         "B(OH)3(aq)"     "HPO4--"         "NO3-"           "H4SiO4(aq)"    
 ZONE I=         200 , J=           1 , K=           1  F=POINT
   8.75000000E+00   5.00000000E-01   5.00000000E-01  -4.68366266E-03   8.53790096E-13   4.74997155E-03   5.08036200E-02   1.05963496E-02   5.29665683E-05   1.48458206E-22   1.99998802E-07   8.99994609E-06   5.48163260E-01   6.79995927E-05   1.19946964E-02   1.00951402E-10   4.74038017E-01   2.79998323E-02   1.79997005E-08   3.99997604E-04   1.69998982E-06   3.89997664E-05   4.11268847E-04
   2.62500000E+01   5.00000000E-01   5.00000000E-01  -4.59643488E-03   3.67032312E-12   4.74999810E-03   5.04972379E-02   1.07928654E-02   1.05907571E-04   7.06987564E-22   1.99999920E-07   8.99999641E-06   5.48166324E-01   6.79999729E-05   1.19864175E-02   1.01904031E-10   4.74076298E-01   2.79999888E-02   1.79996093E-08   3.99999840E-04   1.69999932E-06   3.89999844E-05   6.11994080E-04
   4.37500000E+01   5.00000000E-01   5.00000000E-01  -4.54500959E-03   6.07957981E-12   4.75018787E-03   5.02155059E-02   1.09897908E-02   1.58831267E-04   1.43334044E-21   2.00007910E-07   9.00035596E-06   5.48188224E-01   6.80026895E-05   1.19784143E-02   1.02860263E-10   4.74120782E-01   2.80011074E-02   1.80001367E-08   4.00015821E-04   1.70006724E-06   3.90015425E-05   7.95113634E-04
   6.12500000E+01   5.00000000E-01   5.00000000E-01  -4.50836417E-03   7.88813421E-12   4.75053372E-03   4.99492453E-02   1.11871274E-02   2.11730509E-04   2.19647508E-21   2.00022473E-07   9.00101126E-06   5.48228136E-01   6.80076407E-05   1.19691447E-02   1.03820043E-10   4.74169452E-01   2.80031462E-02   1.80012554E-08   4.00044945E-04   1.70019102E-06   3.90043821E-05   9.41951885E-04
   7.87500000E+01   5.00000000E-01   5.00000000E-01  -4.47720807E-03   9.63862774E-12   4.75102913E-03   4.96931631E-02   1.13848859E-02   2.64603102E-04   3.01751776E-21   2.00043332E-07   9.00194993E-06   5.48285308E-01   6.80147328E-05   1.19584679E-02   1.04783323E-10   4.74222897E-01   2.80060664E-02   1.80029408E-08   4.00086663E-04   1.70036832E-06   3.90084497E-05   1.05205205E-03
   9.62500000E+01   5.00000000E-01   5.00000000E-01  -4.44931237E-03   1.13685899E-11   4.75166807E-03   4.94444278E-02   1.15830745E-02   3.17445748E-04   3.88506601E-21   2.00070234E-07   9.00316055E-06   5.48359044E-01   6.80238797E-05   1.19470074E-02   1.05750059E-10   4.74283150E-01   2.80098328E-02   1.80051701E-08   4.00140469E-04   1.70059699E-06   3.90136957E-05   1.13520159E-03
   1.13750000E+02   5.00000000E-01   5.00000000E-01  -4.42352598E-03   1.30195362E-11   4.75244499E-03   4.92006757E-02   1.17816997E-02   3.70252717E-04   4.79041948E-21   2.00102947E-07   9.00463261E-06   5.48448703E-01   6.80350020E-05   1.19354404E-02   1.06720216E-10   4.74352405E-01   2.80144126E-02   1.80079221E-08   4.00205894E-04   1.70087505E-06   3.90200747E-05   1.20220484E-03
   1.31250000E+02   5.00000000E-01   5.00000000E-01  -4.39877363E-03   1.45725880E-11   4.75335479E-03   4.89600063E-02   1.19807662E-02   4.23016415E-04   5.74369717E-21   2.00141254E-07   9.00635643E-06   5.48553697E-01   6.80480264E-05   1.19242598E-02   1.07693764E-10   4.74432249E-01   2.80197756E-02   1.80111775E-08   4.00282508E-04   1.70120066E-06   3.90275446E-05   1.26115805E-03
   1.48750000E+02   5.00000000E-01   5.00000000E-01  -4.37419009E-03   1.60375614E-11   4.75439272E-03   4.87210953E-02   1.21802785E-02   4.75727919E-04   6.76504558E-21   2.00184957E-07   9.00832306E-06   5.48673479E-01   6.80628853E-05   1.19137739E-02   1.08670676E-10   4.74523565E-01   2.80258940E-02   1.80149184E-08   4.00369914E-04   1.70157213E-06   3.90360666E-05   1.31719720E-03
   1.66250000E+02   5.00000000E-01   5.00000000E-01  -4.34910663E-03   1.74461902E-11   4.75555443E-03   4.84830842E-02   1.23802406E-02   5.28377556E-04   7.88000227E-21   2.00233871E-07   9.01052419E-06   5.48807544E-01   6.80795161E-05   1.19041513E-02   1.09650929E-10   4.74626686E-01   2.80327419E-02   1.80191282E-08   4.00467742E-04   1.70198790E-06   3.90456048E-05   1.37316534E-03
   1.83750000E+02   5.00000000E-01   5.00000000E-01  -4.32300852E-03   1.88441960E-11   4.75683587E-03   4.82454375E-02   1.25806564E-02   5.80955535E-04   9.11752919E-21   2.00287826E-07   9.01295217E-06   5.48955426E-01   6.80978608E-05   1.18954682E-02   1.10634506E-10   4.74741591E-01   2.80402956E-02   1.80237914E-08   4.00575652E-04   1.70244652E-06   3.90561261E-05   1.43038603E-03
   2.01250000E+02   5.00000000E-01   5.00000000E-01  -4.29561159E-03   2.02577734E-11   4.75823327E-03   4.80078558E-02   1.27815300E-02   6.33451759E-04   1.05018647E-20   2.00346664E-07   9.01559988E-06   5.49116691E-01   6.81178658E-05   1.18877598E-02   1.11621393E-10   4.74868093E-01   2.80485330E-02   1.80288940E-08   4.00693328E-04   1.70294664E-06   3.90675995E-05   1.48951515E-03
   2.18750000E+02   5.00000000E-01   5.00000000E-01  -4.26677217E-03   2.16968164E-11   4.75974317E-03   4.77701657E-02   1.29828663E-02   6.85855500E-04   1.20533828E-20   2.00410239E-07   9.01846074E-06   5.49290938E-01   6.81394811E-05   1.18810416E-02   1.12611578E-10   4.75005949E-01   2.80574334E-02   1.80344227E-08   4.00820477E-04   1.70348703E-06   3.90799965E-05   1.55092546E-03
   2.36250000E+02   5.00000000E-01   5.00000000E-01  -4.23632179E-03   2.31839512E-11   4.76136232E-03   4.75322297E-02   1.31846705E-02   7.38155953E-04   1.37978747E-20   2.00478413E-07   9.02152861E-06   5.49477794E-01   6.81626606E-05   1.18753067E-02   1.13605053E-10   4.75154873E-01   2.80669779E-02   1.80403652E-08   4.00956827E-04   1.70406651E-06   3.90932906E-05   1.61468095E-03
   2.53750000E+02   5.00000000E-01   5.00000000E-01  -4.20419553E-03   2.47242761E-11   4.76308773E-03   4.72939721E-02   1.33869486E-02   7.90341704E-04   1.57569899E-20   2.00551062E-07   9.02479780E-06   5.49676912E-01   6.81873611E-05   1.18705427E-02   1.14601812E-10   4.75314591E-01   2.80771487E-02   1.80467101E-08   4.01102124E-04   1.70468403E-06   3.91074571E-05   1.68084314E-03
   2.71250000E+02   5.00000000E-01   5.00000000E-01  -4.17034072E-03   2.63215592E-11   4.76491659E-03   4.70553315E-02   1.35897067E-02   8.42400709E-04   1.79535542E-20   2.00628067E-07   9.02826302E-06   5.49887970E-01   6.82135428E-05   1.18667301E-02   1.15601852E-10   4.75484850E-01   2.80879294E-02   1.80534469E-08   4.01256134E-04   1.70533857E-06   3.91224731E-05   1.74944665E-03
   2.88750000E+02   5.00000000E-01   5.00000000E-01  -4.13469624E-03   2.79826482E-11   4.76684632E-03   4.68162503E-02   1.37929509E-02   8.94320477E-04   2.04134662E-20   2.00709319E-07   9.03191935E-06   5.50110667E-01   6.82411684E-05   1.18638422E-02   1.16605173E-10   4.75665413E-01   2.80993046E-02   1.80605656E-08   4.01418638E-04   1.70602921E-06   3.91383172E-05   1.82048638E-03
   3.06250000E+02   5.00000000E-01   5.00000000E-01  -4.09719287E-03   2.97178169E-11   4.76887449E-03   4.65766754E-02   1.39966867E-02   9.46088341E-04   2.31663323E-20   2.00794715E-07   9.03576219E-06   5.50344724E-01   6.82702032E-05   1.18618460E-02   1.17611776E-10   4.75856056E-01   2.81112601E-02   1.80680571E-08   4.01589430E-04   1.70675508E-06   3.91549695E-05   1.89391839E-03
   3.23750000E+02   5.00000000E-01   5.00000000E-01  -4.05775822E-03   3.15400103E-11   4.77099883E-03   4.63365585E-02   1.42009193E-02   9.97691742E-04   2.62456761E-20   2.00884161E-07   9.03978726E-06   5.50589882E-01   6.83006149E-05   1.18607041E-02   1.18621665E-10   4.76056569E-01   2.81237826E-02   1.80759129E-08   4.01768323E-04   1.70751537E-06   3.91724115E-05   1.96966797E-03
   3.41250000E+02   5.00000000E-01   5.00000000E-01  -4.01632347E-03   3.34635355E-11   4.77321726E-03   4.60958582E-02   1.44056531E-02   1.04911846E-03   2.96887991E-20   2.00977569E-07   9.04399059E-06   5.50845895E-01   6.83323734E-05   1.18603756E-02   1.19634845E-10   4.76266753E-01   2.81368596E-02   1.80841249E-08   4.01955138E-04   1.70830933E-06   3.91906259E-05   2.04764267E-03
   3.58750000E+02   5.00000000E-01   5.00000000E-01  -3.97283509E-03   3.55013820E-11   4.77552780E-03   4.58545424E-02   1.46108926E-02   1.10035666E-03   3.35356869E-20   2.01074855E-07   9.04836846E-06   5.51112540E-01   6.83654506E-05   1.18608182E-02   1.20651323E-10   4.76486427E-01   2.81504797E-02   1.80926856E-08   4.02149709E-04   1.70913626E-06   3.92095967E-05   2.12775488E-03
   3.76250000E+02   5.00000000E-01   5.00000000E-01  -3.92725566E-03   3.76648393E-11   4.77792862E-03   4.56125873E-02   1.48166418E-02   1.15139490E-03   3.78288388E-20   2.01175942E-07   9.05291739E-06   5.51389603E-01   6.83998203E-05   1.18619886E-02   1.21671109E-10   4.76715427E-01   2.81646319E-02   1.81015882E-08   4.02351884E-04   1.70999551E-06   3.92293087E-05   2.20993209E-03
   3.93750000E+02   5.00000000E-01   5.00000000E-01  -3.87956828E-03   3.99622789E-11   4.78041802E-03   4.53699777E-02   1.50229051E-02   1.20222193E-03   4.26124421E-20   2.01280759E-07   9.05763414E-06   5.51676888E-01   6.84354580E-05   1.18638443E-02   1.22694213E-10   4.76953604E-01   2.81793062E-02   1.81108262E-08   4.02561517E-04   1.71088645E-06   3.92497480E-05   2.29412864E-03
   4.11250000E+02   5.00000000E-01   5.00000000E-01  -3.82977554E-03   4.23991529E-11   4.78299440E-03   4.51267062E-02   1.52296870E-02   1.25282656E-03   4.79321030E-20   2.01389238E-07   9.06251570E-06   5.51974211E-01   6.84723408E-05   1.18663434E-02   1.23720647E-10   4.77200830E-01   2.81944933E-02   1.81203935E-08   4.02778476E-04   1.71180852E-06   3.92709014E-05   2.38032939E-03
   4.28750000E+02   5.00000000E-01   5.00000000E-01  -3.77789659E-03   4.49785206E-11   4.78565626E-03   4.48827713E-02   1.54369923E-02   1.30319740E-03   5.38348968E-20   2.01501316E-07   9.06755924E-06   5.52281400E-01   6.85104476E-05   1.18694459E-02   1.24750425E-10   4.77456988E-01   2.82101843E-02   1.81302844E-08   4.03002633E-04   1.71276119E-06   3.92927567E-05   2.46854782E-03
   4.46250000E+02   5.00000000E-01   5.00000000E-01  -3.72396770E-03   4.77007773E-11   4.78840223E-03   4.46381785E-02   1.56448261E-02   1.35332267E-03   6.03688490E-20   2.01616936E-07   9.07276212E-06   5.52598294E-01   6.85497582E-05   1.18731135E-02   1.25783561E-10   4.77721980E-01   2.82263710E-02   1.81404937E-08   4.03233872E-04   1.71374396E-06   3.93153025E-05   2.55882604E-03
   4.63750000E+02   5.00000000E-01   5.00000000E-01  -3.66804082E-03   5.05638524E-11   4.79123099E-03   4.43929396E-02   1.58531939E-02   1.40318995E-03   6.75826973E-20   2.01736042E-07   9.07812188E-06   5.52924743E-01   6.85902542E-05   1.18773103E-02   1.26820071E-10   4.77995717E-01   2.82430459E-02   1.81510164E-08   4.03472084E-04   1.71475636E-06   3.93385282E-05   2.65123199E-03
   4.81250000E+02   5.00000000E-01   5.00000000E-01  -3.61018162E-03   5.35635691E-11   4.79414134E-03   4.41470725E-02   1.60621018E-02   1.45278597E-03   7.55257802E-20   2.01858583E-07   9.08363623E-06   5.53260608E-01   6.86319182E-05   1.18820027E-02   1.27859974E-10   4.78278124E-01   2.82602016E-02   1.81618480E-08   4.03717166E-04   1.71579795E-06   3.93624237E-05   2.74585530E-03
   4.98750000E+02   5.00000000E-01   5.00000000E-01  -3.55071475E-03   5.66234011E-11   4.79713214E-03   4.39007004E-02   1.62715560E-02   1.50209069E-03   8.41832920E-20   2.01984511E-07   9.08930301E-06   5.53605757E-01   6.86747339E-05   1.18871621E-02   1.28903287E-10   4.78569191E-01   2.82778316E-02   1.81729840E-08   4.03969023E-04   1.71686835E-06   3.93869797E-05   2.84311093E-03
   5.16250000E+02   5.00000000E-01   5.00000000E-01  -3.48951656E-03   5.97882894E-11   4.80020234E-03   4.36537562E-02   1.64815634E-02   1.55108711E-03   9.36498485E-20   2.02113783E-07   9.09512023E-06   5.53960068E-01   6.87186861E-05   1.18927570E-02   1.29950031E-10   4.78868846E-01   2.82959296E-02   1.81844206E-08   4.04227566E-04   1.71796715E-06   3.94121876E-05   2.94297441E-03
   5.33750000E+02   5.00000000E-01   5.00000000E-01  -3.42664155E-03   6.30619588E-11   4.80335095E-03   4.34062594E-02   1.66921313E-02   1.59975790E-03   1.03985707E-19   2.02246356E-07   9.10108601E-06   5.54323428E-01   6.87637609E-05   1.18987603E-02   1.31000227E-10   4.79177025E-01   2.83144898E-02   1.81961540E-08   4.04492711E-04   1.71909402E-06   3.94380394E-05   3.04552134E-03
   5.51250000E+02   5.00000000E-01   5.00000000E-01  -3.36221119E-03   6.64309438E-11   4.80657704E-03   4.31582615E-02   1.69032670E-02   1.64808392E-03   1.15235787E-19   2.02382191E-07   9.10719861E-06   5.54695731E-01   6.88099450E-05   1.19051480E-02   1.32053895E-10   4.79493678E-01   2.83335068E-02   1.82081806E-08   4.04764382E-04   1.72024863E-06   3.94645273E-05   3.15088496E-03
   5.68750000E+02   5.00000000E-01   5.00000000E-01  -3.29634956E-03   6.98817250E-11   4.80987977E-03   4.29098167E-02   1.71149781E-02   1.69604431E-03   1.27445217E-19   2.02521253E-07   9.11345640E-06   5.55076877E-01   6.88572261E-05   1.19118981E-02   1.33111061E-10   4.79818761E-01   2.83529755E-02   1.82204972E-08   4.05042507E-04   1.72143065E-06   3.94916444E-05   3.25920635E-03
   5.86250000E+02   5.00000000E-01   5.00000000E-01  -3.22917478E-03   7.34037952E-11   4.81325833E-03   4.26609790E-02   1.73272723E-02   1.74361670E-03   1.40662575E-19   2.02663508E-07   9.11985788E-06   5.55466774E-01   6.89055929E-05   1.19189909E-02   1.34171747E-10   4.80152230E-01   2.83728912E-02   1.82331008E-08   4.05327017E-04   1.72263982E-06   3.95193842E-05   3.37062007E-03
   6.03750000E+02   5.00000000E-01   5.00000000E-01  -3.16079896E-03   7.69902758E-11   4.81671197E-03   4.24118031E-02   1.75401569E-02   1.79077759E-03   1.54941099E-19   2.02808925E-07   9.12640163E-06   5.55865337E-01   6.89550346E-05   1.19264082E-02   1.35235978E-10   4.80494044E-01   2.83932495E-02   1.82459885E-08   4.05617850E-04   1.72387586E-06   3.95477404E-05   3.48524788E-03
   6.21250000E+02   5.00000000E-01   5.00000000E-01  -3.09132986E-03   8.06379227E-11   4.82024002E-03   4.21623449E-02   1.77536393E-02   1.83750270E-03   1.70339401E-19   2.02957474E-07   9.13308635E-06   5.56272486E-01   6.90055413E-05   1.19341338E-02   1.36303781E-10   4.80844161E-01   2.84140464E-02   1.82591578E-08   4.05914949E-04   1.72513853E-06   3.95767075E-05   3.60319614E-03
   6.38750000E+02   5.00000000E-01   5.00000000E-01  -3.02087373E-03   8.43465666E-11   4.82384182E-03   4.19126632E-02   1.79677266E-02   1.88376737E-03   1.86921520E-19   2.03109129E-07   9.13991082E-06   5.56688146E-01   6.90571040E-05   1.19421527E-02   1.37375183E-10   4.81202539E-01   2.84352781E-02   1.82726062E-08   4.06218259E-04   1.72642760E-06   3.96062802E-05   3.72455633E-03
   6.56250000E+02   5.00000000E-01   5.00000000E-01  -2.94953894E-03   8.81180364E-11   4.82751678E-03   4.16628206E-02   1.81824257E-02   1.92954678E-03   2.04756163E-19   2.03263865E-07   9.14687391E-06   5.57112250E-01   6.91097140E-05   1.19504517E-02   1.38450211E-10   4.81569134E-01   2.84569411E-02   1.82863314E-08   4.06527729E-04   1.72774285E-06   3.96364536E-05   3.84940818E-03
   6.73750000E+02   5.00000000E-01   5.00000000E-01  -2.87743909E-03   9.19549627E-11   4.83126436E-03   4.14128842E-02   1.83977432E-02   1.97481614E-03   2.23915447E-19   2.03421657E-07   9.15397457E-06   5.57544733E-01   6.91633634E-05   1.19590188E-02   1.39528894E-10   4.81943904E-01   2.84790320E-02   1.83003313E-08   4.06843314E-04   1.72908409E-06   3.96672232E-05   3.97782396E-03
   6.91250000E+02   5.00000000E-01   5.00000000E-01  -2.80469641E-03   9.58592260E-11   4.83508403E-03   4.11629271E-02   1.86136859E-02   2.01955072E-03   2.44472674E-19   2.03582486E-07   9.16121185E-06   5.57985537E-01   6.92180451E-05   1.19678432E-02   1.40611261E-10   4.82326806E-01   2.85015480E-02   1.83146040E-08   4.07164971E-04   1.73045113E-06   3.96985847E-05   4.10987396E-03
   7.08750000E+02   5.00000000E-01   5.00000000E-01  -2.73144207E-03   9.98311873E-11   4.83897534E-03   4.09130278E-02   1.88302603E-02   2.06372579E-03   2.66500815E-19   2.03746330E-07   9.16858486E-06   5.58434607E-01   6.92737523E-05   1.19769153E-02   1.41697344E-10   4.82717802E-01   2.85244862E-02   1.83291477E-08   4.07492660E-04   1.73184381E-06   3.97305344E-05   4.24563001E-03
   7.26250000E+02   5.00000000E-01   5.00000000E-01  -2.65781574E-03   1.03869138E-10   4.84293785E-03   4.06632692E-02   1.90474732E-02   2.10731650E-03   2.90071005E-19   2.03913173E-07   9.17609277E-06   5.58891895E-01   6.93304787E-05   1.19862266E-02   1.42787173E-10   4.83116854E-01   2.85478442E-02   1.83439607E-08   4.07826345E-04   1.73326197E-06   3.97630687E-05   4.38516801E-03
   7.43750000E+02   5.00000000E-01   5.00000000E-01  -2.58396428E-03   1.07968954E-10   4.84697116E-03   4.04137383E-02   1.92653315E-02   2.15029771E-03   3.15251091E-19   2.04082996E-07   9.18373483E-06   5.59357353E-01   6.93882188E-05   1.19957694E-02   1.43880780E-10   4.83523930E-01   2.85716195E-02   1.83590416E-08   4.08165993E-04   1.73470547E-06   3.97961843E-05   4.52856945E-03
   7.61250000E+02   5.00000000E-01   5.00000000E-01  -2.51003985E-03   1.12123980E-10   4.85107492E-03   4.01645248E-02   1.94838420E-02   2.19264384E-03   3.42104365E-19   2.04255786E-07   9.19151037E-06   5.59830941E-01   6.94469673E-05   1.20055371E-02   1.44978199E-10   4.83939000E-01   2.85958101E-02   1.83743890E-08   4.08511572E-04   1.73617418E-06   3.98298783E-05   4.67592202E-03
   7.78750000E+02   5.00000000E-01   5.00000000E-01  -2.43619745E-03   1.16325173E-10   4.85524879E-03   3.99157203E-02   1.97030120E-02   2.23432862E-03   3.70688650E-19   2.04431528E-07   9.19941876E-06   5.60312620E-01   6.95067195E-05   1.20155236E-02   1.46079462E-10   4.84362038E-01   2.86204139E-02   1.83900016E-08   4.08863056E-04   1.73766799E-06   3.98641479E-05   4.82731910E-03
   7.96250000E+02   5.00000000E-01   5.00000000E-01  -2.36259193E-03   1.20561563E-10   4.85949247E-03   3.96674164E-02   1.99228490E-02   2.27532506E-03   4.01056005E-19   2.04610209E-07   9.20745942E-06   5.60802356E-01   6.95674712E-05   1.20257235E-02   1.47184605E-10   4.84793022E-01   2.86454293E-02   1.84058782E-08   4.09220419E-04   1.73918678E-06   3.98989908E-05   4.98285835E-03
   8.13750000E+02   5.00000000E-01   5.00000000E-01  -2.28937465E-03   1.24821039E-10   4.86380570E-03   3.94197036E-02   2.01433604E-02   2.31560533E-03   4.33253268E-19   2.04791819E-07   9.21563186E-06   5.61300117E-01   6.96292185E-05   1.20361321E-02   1.48293662E-10   4.85231935E-01   2.86708547E-02   1.84220180E-08   4.09583638E-04   1.74073046E-06   3.99344047E-05   5.14263926E-03
   8.31250000E+02   5.00000000E-01   5.00000000E-01  -2.21669024E-03   1.29091369E-10   4.86818824E-03   3.91726696E-02   2.03645541E-02   2.35514086E-03   4.67323474E-19   2.04976347E-07   9.22393561E-06   5.61805877E-01   6.96919579E-05   1.20467451E-02   1.49406670E-10   4.85678759E-01   2.86966886E-02   1.84384198E-08   4.09952694E-04   1.74229895E-06   3.99703876E-05   5.30676010E-03
   8.48750000E+02   5.00000000E-01   5.00000000E-01  -2.14467346E-03   1.33361409E-10   4.87263986E-03   3.89263983E-02   2.05864380E-02   2.39390255E-03   5.03308218E-19   2.05163784E-07   9.23237027E-06   5.62319610E-01   6.97556865E-05   1.20575588E-02   1.50523665E-10   4.86133482E-01   2.87229297E-02   1.84550829E-08   4.10327568E-04   1.74389216E-06   4.00069378E-05   5.47531447E-03
   8.66250000E+02   5.00000000E-01   5.00000000E-01  -2.07344651E-03   1.37622490E-10   4.87716040E-03   3.86809677E-02   2.08090202E-02   2.43186124E-03   5.41251166E-19   2.05354122E-07   9.24093549E-06   5.62841295E-01   6.98204014E-05   1.20685697E-02   1.51644683E-10   4.86596091E-01   2.87495771E-02   1.84720067E-08   4.10708244E-04   1.74551004E-06   4.00440538E-05   5.64838749E-03
   8.83750000E+02   5.00000000E-01   5.00000000E-01  -2.00323080E-03   1.41807855E-10   4.88174967E-03   3.84365051E-02   2.10323080E-02   2.46898061E-03   5.81037207E-19   2.05547354E-07   9.24963095E-06   5.63370913E-01   6.98861005E-05   1.20797750E-02   1.52769765E-10   4.87066593E-01   2.87766296E-02   1.84891904E-08   4.11094709E-04   1.74715251E-06   4.00817341E-05   5.82616724E-03
   9.01250000E+02   5.00000000E-01   5.00000000E-01  -1.93398092E-03   1.45985665E-10   4.88640754E-03   3.81930108E-02   2.12563095E-02   2.50523405E-03   6.22901805E-19   2.05743475E-07   9.25845639E-06   5.63908448E-01   6.99527816E-05   1.20911716E-02   1.53898947E-10   4.87544963E-01   2.88040865E-02   1.85066335E-08   4.11486951E-04   1.74881954E-06   4.01199777E-05   6.00861032E-03
   9.18750000E+02   5.00000000E-01   5.00000000E-01  -1.86574834E-03   1.50178681E-10   4.89113389E-03   3.79505282E-02   2.14810327E-02   2.54059923E-03   6.66969624E-19   2.05942480E-07   9.26741159E-06   5.64453886E-01   7.00204431E-05   1.21027573E-02   1.55032270E-10   4.88031184E-01   2.88319471E-02   1.85243356E-08   4.11884959E-04   1.75051108E-06   4.01587835E-05   6.19572393E-03
   9.36250000E+02   5.00000000E-01   5.00000000E-01  -1.79862034E-03   1.54387233E-10   4.89592864E-03   3.77091162E-02   2.17064853E-02   2.57505563E-03   7.13307210E-19   2.06144364E-07   9.27649637E-06   5.65007216E-01   7.00890837E-05   1.21145298E-02   1.56169773E-10   4.88525240E-01   2.88602108E-02   1.85422963E-08   4.12288727E-04   1.75222709E-06   4.01981509E-05   6.38753938E-03
   9.53750000E+02   5.00000000E-01   5.00000000E-01  -1.73266345E-03   1.58619746E-10   4.90079170E-03   3.74688216E-02   2.19326748E-02   2.60858586E-03   7.62006838E-19   2.06349124E-07   9.28571059E-06   5.65568430E-01   7.01587022E-05   1.21264873E-02   1.57311498E-10   4.89027116E-01   2.88888772E-02   1.85605153E-08   4.12698248E-04   1.75396756E-06   4.02380792E-05   6.58406957E-03
   9.71250000E+02   5.00000000E-01   5.00000000E-01  -1.66792417E-03   1.62894459E-10   4.90572302E-03   3.72296788E-02   2.21596085E-02   2.64117716E-03   8.13195607E-19   2.06556759E-07   9.29505415E-06   5.66137522E-01   7.02292980E-05   1.21386281E-02   1.58457486E-10   4.89536797E-01   2.89179459E-02   1.85789924E-08   4.13113518E-04   1.75573245E-06   4.02785680E-05   6.78530514E-03
   9.88750000E+02   5.00000000E-01   5.00000000E-01  -1.60443825E-03   1.67235120E-10   4.91072257E-03   3.69917131E-02   2.23872935E-02   2.67282244E-03   8.67026416E-19   2.06767266E-07   9.30452698E-06   5.66714488E-01   7.03008705E-05   1.21509506E-02   1.59607779E-10   4.90054263E-01   2.89474166E-02   1.85977275E-08   4.13534532E-04   1.75752176E-06   4.03196169E-05   6.99121951E-03
   1.00625000E+03   5.00000000E-01   5.00000000E-01  -1.54223793E-03   1.71666716E-10   4.91579034E-03   3.67549434E-02   2.26157367E-02   2.70352064E-03   9.23666398E-19   2.06980646E-07   9.31412906E-06   5.67299325E-01   7.03734196E-05   1.21634535E-02   1.60762419E-10   4.90579498E-01   2.89772893E-02   1.86167205E-08   4.13961292E-04   1.75933549E-06   4.03612259E-05   7.20177471E-03
   1.02375000E+03   5.00000000E-01   5.00000000E-01  -1.48135591E-03   1.76212440E-10   4.92092632E-03   3.65193840E-02   2.28449448E-02   2.73327664E-03   9.83286876E-19   2.07196898E-07   9.32386040E-06   5.67892036E-01   7.04469452E-05   1.21761358E-02   1.61921450E-10   4.91112483E-01   2.90075638E-02   1.86359714E-08   4.14393795E-04   1.76117363E-06   4.04033951E-05   7.41692614E-03
   1.04125000E+03   5.00000000E-01   5.00000000E-01  -1.42182846E-03   1.80890364E-10   4.92613054E-03   3.62850460E-02   2.30749246E-02   2.76210067E-03   1.04604972E-18   2.07416023E-07   9.33372103E-06   5.68492621E-01   7.05214478E-05   1.21889963E-02   1.63084915E-10   4.91653202E-01   2.90382400E-02   1.86554803E-08   4.14832046E-04   1.76303619E-06   4.04461245E-05   7.63662793E-03
   1.05875000E+03   5.00000000E-01   5.00000000E-01  -1.36369351E-03   1.85713387E-10   4.93140304E-03   3.60519369E-02   2.33056824E-02   2.79000752E-03   1.11210412E-18   2.07638023E-07   9.34371102E-06   5.69101086E-01   7.05969277E-05   1.22020345E-02   1.64252861E-10   4.92201640E-01   2.90693179E-02   1.86752473E-08   4.15276046E-04   1.76492319E-06   4.04894144E-05   7.86083428E-03
   1.07625000E+03   5.00000000E-01   5.00000000E-01  -1.30698910E-03   1.90689060E-10   4.93674387E-03   3.58200602E-02   2.35372245E-02   2.81701579E-03   1.18158236E-18   2.07862900E-07   9.35383049E-06   5.69717436E-01   7.06733859E-05   1.22152494E-02   1.65425330E-10   4.92757786E-01   2.91007972E-02   1.86952726E-08   4.15725800E-04   1.76683465E-06   4.05332655E-05   8.08950066E-03
   1.09375000E+03   5.00000000E-01   5.00000000E-01  -1.25175115E-03   1.95820144E-10   4.94215311E-03   3.55894153E-02   2.37695566E-02   2.84314704E-03   1.25459853E-18   2.08090657E-07   9.36407957E-06   5.70341681E-01   7.07508234E-05   1.22286407E-02   1.66602371E-10   4.93321630E-01   2.91326777E-02   1.87155565E-08   4.16181314E-04   1.76877059E-06   4.05776781E-05   8.32258394E-03
   1.11125000E+03   5.00000000E-01   5.00000000E-01  -1.19801074E-03   2.01105998E-10   4.94763083E-03   3.53599963E-02   2.40026840E-02   2.86842530E-03   1.33125112E-18   2.08321298E-07   9.37445841E-06   5.70973829E-01   7.08292414E-05   1.22422079E-02   1.67784028E-10   4.93893165E-01   2.91649587E-02   1.87360993E-08   4.16642596E-04   1.77073103E-06   4.06226531E-05   8.56004139E-03
   1.12875000E+03   5.00000000E-01   5.00000000E-01  -1.14579121E-03   2.06544907E-10   4.95317715E-03   3.51317913E-02   2.42366110E-02   2.89287670E-03   1.41163097E-18   2.08554827E-07   9.38496723E-06   5.71613893E-01   7.09086413E-05   1.22559507E-02   1.68970349E-10   4.94472388E-01   2.91976387E-02   1.87569014E-08   4.17109654E-04   1.77271603E-06   4.06681913E-05   8.80182848E-03
   1.14625000E+03   5.00000000E-01   5.00000000E-01  -1.09510553E-03   2.12137054E-10   4.95879217E-03   3.49047814E-02   2.44713406E-02   2.91652971E-03   1.49583399E-18   2.08791249E-07   9.39560622E-06   5.72261887E-01   7.09890248E-05   1.22698689E-02   1.70161381E-10   4.95059295E-01   2.92307154E-02   1.87779632E-08   4.17582499E-04   1.77472562E-06   4.07142936E-05   9.04789590E-03
   1.16375000E+03   5.00000000E-01   5.00000000E-01  -1.04595477E-03   2.17887505E-10   4.96447604E-03   3.46789393E-02   2.47068734E-02   2.93941568E-03   1.58397648E-18   2.09030570E-07   9.40637566E-06   5.72917825E-01   7.10703939E-05   1.22839625E-02   1.71357173E-10   4.95653884E-01   2.92641848E-02   1.87992852E-08   4.18061140E-04   1.77675985E-06   4.07609612E-05   9.29818645E-03
   1.18125000E+03   5.00000000E-01   5.00000000E-01  -9.98327558E-04   2.23808887E-10   4.97022890E-03   3.44542288E-02   2.49432071E-02   2.96156975E-03   1.67621133E-18   2.09272796E-07   9.41727580E-06   5.73581725E-01   7.11527505E-05   1.22982315E-02   1.72557774E-10   4.96256154E-01   2.92980399E-02   1.88208679E-08   4.18545591E-04   1.77881876E-06   4.08081951E-05   9.55263215E-03
   1.19875000E+03   5.00000000E-01   5.00000000E-01  -9.52200496E-04   2.29923758E-10   4.97605090E-03   3.42306045E-02   2.51803343E-02   2.98303197E-03   1.77274497E-18   2.09517933E-07   9.42830696E-06   5.74253604E-01   7.12360971E-05   1.23126759E-02   1.73763232E-10   4.96866104E-01   2.93322696E-02   1.88427120E-08   4.19035865E-04   1.78090243E-06   4.08559968E-05   9.81115174E-03
   1.21625000E+03   5.00000000E-01   5.00000000E-01  -9.07539302E-04   2.36266466E-10   4.98194222E-03   3.40080107E-02   2.54182398E-02   3.00384865E-03   1.87385358E-18   2.09765988E-07   9.43946947E-06   5.74933483E-01   7.13204360E-05   1.23272959E-02   1.74973599E-10   4.97483730E-01   2.93668553E-02   1.88648180E-08   4.19531976E-04   1.78301090E-06   4.09043677E-05   1.00736487E-02
   1.23375000E+03   5.00000000E-01   5.00000000E-01  -8.64300874E-04   2.42883986E-10   4.98790305E-03   3.37863824E-02   2.56568965E-02   3.02407347E-03   1.97989515E-18   2.10016970E-07   9.45076367E-06   5.75621383E-01   7.14057699E-05   1.23420918E-02   1.76188923E-10   4.98109029E-01   2.94017672E-02   1.88871868E-08   4.20033941E-04   1.78514425E-06   4.09533092E-05   1.03400101E-02
   1.25125000E+03   5.00000000E-01   5.00000000E-01  -8.22435898E-04   2.49835693E-10   4.99393358E-03   3.35656448E-02   2.58962583E-02   3.04376850E-03   2.09131605E-18   2.10270888E-07   9.46218994E-06   5.76317328E-01   7.14921018E-05   1.23570639E-02   1.77409257E-10   4.98741995E-01   2.94369570E-02   1.89098190E-08   4.20541775E-04   1.78730254E-06   4.10028231E-05   1.06101070E-02
   1.26875000E+03   5.00000000E-01   5.00000000E-01  -7.81891856E-04   2.57191864E-10   5.00003403E-03   3.33457149E-02   2.61362491E-02   3.06300456E-03   2.20864960E-18   2.10527749E-07   9.47374869E-06   5.77021341E-01   7.15794346E-05   1.23722125E-02   1.78634653E-10   4.99382619E-01   2.94723469E-02   1.89327154E-08   4.21055497E-04   1.78948586E-06   4.10529110E-05   1.08837955E-02
   1.28625000E+03   5.00000000E-01   5.00000000E-01  -7.42615088E-04   2.65032669E-10   5.00620463E-03   3.31265021E-02   2.63767449E-02   3.08186126E-03   2.33251556E-18   2.10787563E-07   9.48544035E-06   5.77733449E-01   7.16677715E-05   1.23875381E-02   1.79865161E-10   5.00030894E-01   2.95078115E-02   1.89558769E-08   4.21575126E-04   1.79169429E-06   4.11035748E-05   1.11609187E-02
   1.30375000E+03   5.00000000E-01   5.00000000E-01  -7.04553336E-04   2.73445427E-10   5.01244560E-03   3.29079098E-02   2.66175447E-02   3.10042628E-03   2.46360741E-18   2.11050341E-07   9.49726535E-06   5.78453679E-01   7.17571160E-05   1.24030411E-02   1.81100837E-10   5.00686809E-01   2.95431485E-02   1.89793043E-08   4.22100682E-04   1.79392790E-06   4.11548165E-05   1.14413092E-02