 TITLE = "Total Concentrations" 
VARIABLES = "X"          "Y"              "Z"            "H+"             "Al+++"          "CO2(aq)"        "Mg++"           "Ca++"           "Fe++"           "Fe+++"          "Ba++"           "Sr++"           "Cl-"            "F-"             "K+"             "HS-"            "Na+"            "SO4--"          "O2(aq)"         "B(OH)3(aq)"     "HPO4--"         "NO3-"           "H4SiO4(aq)"    
 ZONE I=         100 , J=           1 , K=           1  F=POINT
   1.75000000E+01   5.00000000E-01   5.00000000E-01  -4.75423943E-03   1.34199083E-13   4.75010909E-03   4.95056032E-02   1.12559823E-02   6.00287255E-04   3.18644090E-12   2.00004593E-07   9.00020669E-06   5.48179132E-01   6.80015617E-05   1.20002756E-02   1.10869899E-10   4.74302639E-01   2.80006431E-02   1.79983729E-08   4.00009186E-04   1.70003904E-06   3.90008957E-05   1.72304625E-03
   5.25000000E+01   5.00000000E-01   5.00000000E-01  -4.72331256E-03   1.80534728E-13   4.75063957E-03   4.83605027E-02   1.20749245E-02   8.81523496E-04   2.03175958E-12   2.00026929E-07   9.00121182E-06   5.48240352E-01   6.80091559E-05   1.20016158E-02   1.21770293E-10   4.74427700E-01   2.80037701E-02   1.79983381E-08   4.00053859E-04   1.70022890E-06   3.90052512E-05   2.62854757E-03
   8.75000000E+01   5.00000000E-01   5.00000000E-01  -4.68685844E-03   2.27848184E-13   4.75176954E-03   4.74788036E-02   1.28662258E-02   9.99664320E-04   1.82101595E-12   2.00074507E-07   9.00335281E-06   5.48370754E-01   6.80253324E-05   1.20044704E-02   1.32708787E-10   4.74476651E-01   2.80104310E-02   1.80005698E-08   4.00149014E-04   1.70063331E-06   3.90145289E-05   3.12515555E-03
   1.22500000E+02   5.00000000E-01   5.00000000E-01  -4.64651958E-03   2.87959943E-13   4.75345252E-03   4.67046148E-02   1.36471052E-02   1.05412124E-03   1.77765681E-12   2.00145369E-07   9.00654161E-06   5.48564976E-01   6.80494255E-05   1.20087222E-02   1.43687811E-10   4.74523861E-01   2.80203517E-02   1.80048913E-08   4.00290738E-04   1.70123564E-06   3.90283470E-05   3.44968027E-03
   1.57500000E+02   5.00000000E-01   5.00000000E-01  -4.60340083E-03   3.64060519E-13   4.75564895E-03   4.59687010E-02   1.44273054E-02   1.08686266E-03   1.77891041E-12   2.00237850E-07   9.01070327E-06   5.48818451E-01   6.80808692E-05   1.20142710E-02   1.54709657E-10   4.74600551E-01   2.80332991E-02   1.80111520E-08   4.00475701E-04   1.70202173E-06   3.90463808E-05   3.71600204E-03
   1.92500000E+02   5.00000000E-01   5.00000000E-01  -4.55587615E-03   4.65848924E-13   4.75832501E-03   4.52403544E-02   1.52154899E-02   1.11870149E-03   1.76331644E-12   2.00350527E-07   9.01577370E-06   5.49127278E-01   6.81191790E-05   1.20210316E-02   1.65776501E-10   4.74703340E-01   2.80490737E-02   1.80192233E-08   4.00701053E-04   1.70297948E-06   3.90683527E-05   3.98615280E-03
   2.27500000E+02   5.00000000E-01   5.00000000E-01  -4.49423744E-03   6.52515468E-13   4.76145164E-03   4.44905044E-02   1.60380371E-02   1.18784952E-03   1.58354170E-12   2.00482174E-07   9.02169785E-06   5.49488102E-01   6.81639393E-05   1.20289305E-02   1.76890424E-10   4.74747858E-01   2.80675044E-02   1.80289946E-08   4.00964349E-04   1.70409848E-06   3.90940240E-05   4.36277204E-03
   2.62500000E+02   5.00000000E-01   5.00000000E-01  -4.42095590E-03   9.47940541E-13   4.76500382E-03   4.37542921E-02   1.68941069E-02   1.28924446E-03   1.37015020E-12   2.00631740E-07   9.02842829E-06   5.49898036E-01   6.82147915E-05   1.20379044E-02   1.88053392E-10   4.74674978E-01   2.80884436E-02   1.80403705E-08   4.01263479E-04   1.70536979E-06   3.91231892E-05   4.78961632E-03
   2.97500000E+02   5.00000000E-01   5.00000000E-01  -4.35363739E-03   1.21042823E-12   4.76895988E-03   4.30771874E-02   1.77570516E-02   1.35978235E-03   1.32863949E-12   2.00798311E-07   9.03592398E-06   5.50354579E-01   6.82714256E-05   1.20478986E-02   1.99267292E-10   4.74588169E-01   2.81117635E-02   1.80532684E-08   4.01596621E-04   1.70678564E-06   3.91556706E-05   5.15927134E-03
   3.32500000E+02   5.00000000E-01   5.00000000E-01  -4.28452794E-03   1.48007923E-12   4.77330104E-03   4.24285289E-02   1.86214982E-02   1.40305606E-03   1.34271520E-12   2.00981096E-07   9.04414934E-06   5.50855564E-01   6.83335728E-05   1.20588658E-02   2.10533970E-10   4.74542219E-01   2.81373535E-02   1.80676169E-08   4.01962193E-04   1.70833932E-06   3.91913138E-05   5.49439133E-03
   3.67500000E+02   5.00000000E-01   5.00000000E-01  -4.21003740E-03   1.78885563E-12   4.77801099E-03   4.17847414E-02   1.94867954E-02   1.43189436E-03   1.37090427E-12   2.01179410E-07   9.05307346E-06   5.51399109E-01   6.84009995E-05   1.20707646E-02   2.21855227E-10   4.74554297E-01   2.81651175E-02   1.80833537E-08   4.02358821E-04   1.71002499E-06   3.92299850E-05   5.81792999E-03
   4.02500000E+02   5.00000000E-01   5.00000000E-01  -4.12906174E-03   2.15090941E-12   4.78307553E-03   4.11345029E-02   2.03529731E-02   1.45386023E-03   1.40218230E-12   2.01392654E-07   9.06266942E-06   5.51983574E-01   6.84735023E-05   1.20835592E-02   2.33232823E-10   4.74628988E-01   2.81949716E-02   1.81004245E-08   4.02785308E-04   1.71183756E-06   3.92715675E-05   6.14099002E-03
   4.37500000E+02   5.00000000E-01   5.00000000E-01  -4.04099986E-03   2.57781240E-12   4.78848227E-03   4.04728076E-02   2.12201986E-02   1.47265105E-03   1.43235653E-12   2.01620306E-07   9.07291377E-06   5.52607531E-01   6.85509041E-05   1.20972184E-02   2.44668486E-10   4.74766429E-01   2.82268429E-02   1.81187822E-08   4.03240612E-04   1.71377260E-06   3.93159597E-05   6.46824883E-03
   4.72500000E+02   5.00000000E-01   5.00000000E-01  -3.94543627E-03   3.08203997E-12   4.79422042E-03   3.97975509E-02   2.20887079E-02   1.49001576E-03   1.45925626E-12   2.01861912E-07   9.08378605E-06   5.53269733E-01   6.86330502E-05   1.21117147E-02   2.56163927E-10   4.74965098E-01   2.82606678E-02   1.81383853E-08   4.03723825E-04   1.71582625E-06   3.93630729E-05   6.80157511E-03
   5.07500000E+02   5.00000000E-01   5.00000000E-01  -3.84211059E-03   3.67787997E-12   4.80028056E-03   3.91079568E-02   2.29587880E-02   1.50678982E-03   1.48151311E-12   2.02117076E-07   9.09526844E-06   5.53969095E-01   6.87198060E-05   1.21270246E-02   2.67720838E-10   4.75222868E-01   2.82963908E-02   1.81591979E-08   4.04234153E-04   1.71799515E-06   3.94128299E-05   7.14169644E-03
   5.42500000E+02   5.00000000E-01   5.00000000E-01  -3.73093070E-03   4.38188559E-12   4.80665451E-03   3.84038895E-02   2.38307614E-02   1.52338029E-03   1.49817175E-12   2.02385453E-07   9.10734539E-06   5.54704671E-01   6.88110541E-05   1.21431272E-02   2.79340906E-10   4.75537437E-01   2.83339635E-02   1.81811886E-08   4.04770906E-04   1.72027635E-06   3.94651634E-05   7.48888912E-03
   5.77500000E+02   5.00000000E-01   5.00000000E-01  -3.61198992E-03   5.21328646E-12   4.81333513E-03   3.76855524E-02   2.47049703E-02   1.53998875E-03   1.50854351E-12   2.02666742E-07   9.12000341E-06   5.55475638E-01   6.89066924E-05   1.21600045E-02   2.91025809E-10   4.75906516E-01   2.83733440E-02   1.82043301E-08   4.05333485E-04   1.72266731E-06   3.95200148E-05   7.84324644E-03
   6.12500000E+02   5.00000000E-01   5.00000000E-01  -3.48557997E-03   6.19444514E-12   4.82031624E-03   3.69533529E-02   2.55817639E-02   1.55671651E-03   1.51214460E-12   2.02960684E-07   9.13323077E-06   5.56281282E-01   6.90066325E-05   1.21776410E-02   3.02777223E-10   4.76327908E-01   2.84144958E-02   1.82285984E-08   4.05921368E-04   1.72516581E-06   3.95773334E-05   8.20477691E-03
   6.47500000E+02   5.00000000E-01   5.00000000E-01  -3.35219690E-03   7.35138221E-12   4.82759249E-03   3.62078377E-02   2.64614894E-02   1.57361628E-03   1.50866729E-12   2.03267052E-07   9.14701735E-06   5.57120987E-01   6.91107978E-05   1.21960231E-02   3.14596823E-10   4.76799552E-01   2.84573874E-02   1.82539732E-08   4.06534105E-04   1.72776994E-06   3.96370752E-05   8.57343778E-03
   6.82500000E+02   5.00000000E-01   5.00000000E-01  -3.21253812E-03   8.71438057E-12   4.83515929E-03   3.54496582E-02   2.73444860E-02   1.59071855E-03   1.49796448E-12   2.03585654E-07   9.16135444E-06   5.57994221E-01   6.92191224E-05   1.22151393E-02   3.26486290E-10   4.77319528E-01   2.85019917E-02   1.82804365E-08   4.07171308E-04   1.73047806E-06   3.96992026E-05   8.94914508E-03
   7.17500000E+02   5.00000000E-01   5.00000000E-01  -3.06748931E-03   1.03186799E-11   4.84301271E-03   3.46795486E-02   2.82310818E-02   1.60804535E-03   1.48003923E-12   2.03916324E-07   9.17623460E-06   5.58900533E-01   6.93315503E-05   1.22349795E-02   3.38447309E-10   4.77886065E-01   2.85482855E-02   1.83079733E-08   4.07832649E-04   1.73328876E-06   3.97636833E-05   9.33177603E-03
   7.52500000E+02   5.00000000E-01   5.00000000E-01  -2.91810115E-03   1.22052703E-11   4.85114943E-03   3.38983063E-02   2.91215913E-02   1.62561700E-03   1.45503523E-12   2.04258923E-07   9.19165155E-06   5.59839539E-01   6.94480339E-05   1.22555354E-02   3.50481575E-10   4.78497534E-01   2.85962493E-02   1.83365706E-08   4.08517847E-04   1.73620085E-06   3.98304900E-05   9.72117046E-03
   7.87500000E+02   5.00000000E-01   5.00000000E-01  -2.76555631E-03   1.44218030E-11   4.85956668E-03   3.31067736E-02   3.00163154E-02   1.64345514E-03   1.42322574E-12   2.04613334E-07   9.20760003E-06   5.60810919E-01   6.95685335E-05   1.22768000E-02   3.62590797E-10   4.79152444E-01   2.86458668E-02   1.83662175E-08   4.09226668E-04   1.73921334E-06   3.98996001E-05   1.01171324E-02
   8.22500000E+02   5.00000000E-01   5.00000000E-01  -2.61112877E-03   1.70236374E-11   4.86826219E-03   3.23058169E-02   3.09155404E-02   1.66158359E-03   1.38500015E-12   2.04979460E-07   9.22407572E-06   5.61814411E-01   6.96930166E-05   1.22987676E-02   3.74776699E-10   4.79849430E-01   2.86971246E-02   1.83969051E-08   4.09958921E-04   1.74232541E-06   3.99709948E-05   1.05194321E-02
   8.57500000E+02   5.00000000E-01   5.00000000E-01  -2.45613782E-03   2.00750464E-11   4.87723412E-03   3.14963061E-02   3.18195383E-02   1.68002784E-03   1.34084835E-12   2.05357226E-07   9.24107518E-06   5.62849804E-01   6.98214569E-05   1.23214336E-02   3.87041023E-10   4.80587252E-01   2.87500117E-02   1.84286262E-08   4.10714452E-04   1.74553642E-06   4.00446591E-05   1.09278086E-02
   8.92500000E+02   5.00000000E-01   5.00000000E-01  -2.30190030E-03   2.36506057E-11   4.88648108E-03   3.06790936E-02   3.27285665E-02   1.69881382E-03   1.29134350E-12   2.05746572E-07   9.25859572E-06   5.63916934E-01   6.99538344E-05   1.23447943E-02   3.99385529E-10   4.81364777E-01   2.88045201E-02   1.84613750E-08   4.11493143E-04   1.74884586E-06   4.01205815E-05   1.13419705E-02
   9.27500000E+02   5.00000000E-01   5.00000000E-01  -2.14968426E-03   2.78368037E-11   4.89600202E-03   2.98549948E-02   3.36428681E-02   1.71796612E-03   1.23712376E-12   2.06147453E-07   9.27663541E-06   5.65015685E-01   7.00901342E-05   1.23688472E-02   4.11812004E-10   4.82180979E-01   2.88606435E-02   1.84951474E-08   4.12294907E-04   1.75225335E-06   4.01987534E-05   1.17615975E-02
   9.62500000E+02   5.00000000E-01   5.00000000E-01  -2.00066733E-03   3.27339117E-11   4.90579628E-03   2.90247718E-02   3.45626721E-02   1.73750600E-03   1.17887389E-12   2.06559843E-07   9.29519295E-06   5.66145976E-01   7.02303467E-05   1.23935906E-02   4.24322253E-10   4.83034927E-01   2.89183781E-02   1.85299404E-08   4.13119686E-04   1.75575867E-06   4.02791694E-05   1.21863387E-02
   9.97500000E+02   5.00000000E-01   5.00000000E-01  -1.85590222E-03   3.84581635E-11   4.91586349E-03   2.81891201E-02   3.54881939E-02   1.75744912E-03   1.11730764E-12   2.06983726E-07   9.31426767E-06   5.67307768E-01   7.03744669E-05   1.24190236E-02   4.36918110E-10   4.83925776E-01   2.89777216E-02   1.85657523E-08   4.13967452E-04   1.75936167E-06   4.03618266E-05   1.26158116E-02
   1.03250000E+03   5.00000000E-01   5.00000000E-01  -1.71629120E-03   4.51443110E-11   4.92620362E-03   2.73486601E-02   3.64196352E-02   1.77780316E-03   1.05315131E-12   2.07419100E-07   9.33385949E-06   5.68501055E-01   7.05224940E-05   1.24451460E-02   4.49601433E-10   4.84852764E-01   2.90386739E-02   1.86025827E-08   4.14838200E-04   1.76306235E-06   4.04467245E-05   1.30495977E-02
   1.06750000E+03   5.00000000E-01   5.00000000E-01  -1.58257004E-03   5.29486459E-11   4.93681690E-03   2.65039337E-02   3.73571856E-02   1.79856554E-03   9.87128996E-13   2.07865975E-07   9.35396886E-06   5.69725864E-01   7.06744314E-05   1.24719585E-02   4.62374112E-10   4.85815197E-01   2.91012363E-02   1.86404320E-08   4.15731949E-04   1.76686078E-06   4.05338651E-05   1.34872372E-02
   1.10250000E+03   5.00000000E-01   5.00000000E-01  -1.45530132E-03   6.20526957E-11   4.94770383E-03   2.56554039E-02   3.83010242E-02   1.81972198E-03   9.19949159E-13   2.08324372E-07   9.37459672E-06   5.70982253E-01   7.08302863E-05   1.24994623E-02   4.75238062E-10   4.86812445E-01   2.91654117E-02   1.86793018E-08   4.16648743E-04   1.77075716E-06   4.06232525E-05   1.39282108E-02
   1.13750000E+03   5.00000000E-01   5.00000000E-01  -1.03529745E-03   3.69143688E-09   4.95886516E-03   2.37682721E-02   3.93596135E-02   2.78799003E-03   2.66851906E-13   2.08794322E-07   9.39574451E-06   5.72270310E-01   7.09900696E-05   1.25276593E-02   4.88195250E-10   4.87504640E-01   2.92312046E-02   1.87191946E-08   4.17588645E-04   1.77475174E-06   4.07148929E-05   2.81971918E-03
   1.17250000E+03   5.00000000E-01   5.00000000E-01  -1.04032707E-03   1.47006873E-09   4.97030189E-03   2.21304562E-02   4.04258046E-02   3.40928007E-03   2.83070856E-13   2.09275869E-07   9.41741410E-06   5.73590148E-01   7.11537954E-05   1.25565521E-02   5.01247602E-10   4.88836346E-01   2.92986207E-02   1.87601138E-08   4.18551738E-04   1.77884489E-06   4.08087944E-05   4.51683584E-03
   1.20750000E+03   5.00000000E-01   5.00000000E-01  -9.92939097E-04   9.99883866E-10   4.98201524E-03   2.08724506E-02   4.14997760E-02   3.64844937E-03   2.75136728E-13   2.09769063E-07   9.43960782E-06   5.74941909E-01   7.13214813E-05   1.25861438E-02   5.14397156E-10   4.90139178E-01   2.93676671E-02   1.88020636E-08   4.19538125E-04   1.78303703E-06   4.09049672E-05   5.85843589E-03
   1.24250000E+03   5.00000000E-01   5.00000000E-01  -9.28749684E-04   8.33784306E-10   4.99400664E-03   1.98746876E-02   4.25817621E-02   3.63316395E-03   2.61715019E-13   2.10273964E-07   9.46232837E-06   5.76325759E-01   7.14931477E-05   1.26164378E-02   5.27645980E-10   4.91432271E-01   2.94383519E-02   1.88450491E-08   4.20547928E-04   1.78732869E-06   4.10034229E-05   6.96002321E-03
   1.27750000E+03   5.00000000E-01   5.00000000E-01  -8.59801367E-04   7.62549501E-10   5.00627774E-03   1.90003100E-02   4.36729877E-02   3.49642236E-03   2.46038884E-13   2.10790642E-07   9.48557888E-06   5.77741887E-01   7.16688182E-05   1.26474385E-02   5.40996168E-10   4.92733140E-01   2.95106843E-02   1.88890762E-08   4.21581284E-04   1.79172046E-06   4.11041751E-05   7.94019027E-03
   1.31250000E+03   5.00000000E-01   5.00000000E-01  -7.91157790E-04   7.38352089E-10   5.01883039E-03   1.81498682E-02   4.47889018E-02   3.32228781E-03   2.26666727E-13   2.11319174E-07   9.50936285E-06   5.79190506E-01   7.18485193E-05   1.26791505E-02   5.54449854E-10   4.94046951E-01   2.95846739E-02   1.89341514E-08   4.22638349E-04   1.79621298E-06   4.12072390E-05   8.83926409E-03
   1.34750000E+03   5.00000000E-01   5.00000000E-01  -7.25484647E-04   7.43872289E-10   5.03166662E-03   1.72730720E-02   4.59431039E-02   3.14973418E-03   2.03547665E-13   2.11859647E-07   9.53368413E-06   5.80671852E-01   7.20322801E-05   1.27115788E-02   5.68009214E-10   4.95372051E-01   2.96603297E-02   1.89802821E-08   4.23719295E-04   1.80080700E-06   4.13126312E-05   9.67023942E-03
   1.38250000E+03   5.00000000E-01   5.00000000E-01  -5.48896631E-04   1.00307974E-08   5.04478867E-03   1.54588037E-02   4.71349962E-02   3.93038055E-03   7.49631730E-14   2.12412155E-07   9.55854696E-06   5.82186182E-01   7.22201326E-05   1.27447293E-02   5.81676474E-10   4.96514985E-01   2.97376582E-02   1.90274763E-08   4.24824309E-04   1.80550331E-06   4.14203701E-05   3.65092388E-03
   1.41750000E+03   5.00000000E-01   5.00000000E-01  -5.15276180E-04   1.14651762E-08   5.05819894E-03   1.37271269E-02   4.83621644E-02   4.51648009E-03   5.15946316E-14   2.12976798E-07   9.58395589E-06   5.83733774E-01   7.24121112E-05   1.27786079E-02   5.95453871E-10   4.97990149E-01   2.98166569E-02   1.90757428E-08   4.25953595E-04   1.81030278E-06   4.15304755E-05   3.76208407E-03
   1.45250000E+03   5.00000000E-01   5.00000000E-01  -4.81584254E-04   1.26873658E-08   5.07190003E-03   1.21931500E-02   4.96236085E-02   4.88194076E-03   3.55788266E-14   2.13553685E-07   9.60991585E-06   5.85314927E-01   7.26082531E-05   1.28132211E-02   6.09343722E-10   4.99478684E-01   2.98972975E-02   1.91250909E-08   4.27107371E-04   1.81520633E-06   4.16429687E-05   3.96934171E-03
   1.48750000E+03   5.00000000E-01   5.00000000E-01  -4.58959180E-04   1.00348695E-08   5.08589470E-03   1.10125563E-02   5.09190692E-02   4.87316573E-03   2.83288909E-14   2.14142935E-07   9.63643206E-06   5.86929961E-01   7.28085978E-05   1.28485761E-02   6.23348387E-10   5.00988188E-01   2.99794750E-02   1.91755306E-08   4.28285869E-04   1.82021495E-06   4.17578723E-05   4.79380180E-03
   1.52250000E+03   5.00000000E-01   5.00000000E-01  -4.26521301E-04   9.56226073E-09   5.10018590E-03   1.00052152E-02   5.22483713E-02   4.67551531E-03   2.18316880E-14   2.14744669E-07   9.66351012E-06   5.88579215E-01   7.30131876E-05   1.28846802E-02   6.37470283E-10   5.02487304E-01   3.00628486E-02   1.92270728E-08   4.29489339E-04   1.82532969E-06   4.18752105E-05   5.36818136E-03
   1.55750000E+03   5.00000000E-01   5.00000000E-01  -3.92511435E-04   9.98101427E-09   5.11477673E-03   9.05164832E-03   5.36105891E-02   4.40656996E-03   1.61813057E-14   2.15359020E-07   9.69115591E-06   5.90263048E-01   7.32220669E-05   1.29215412E-02   6.51711873E-10   5.03988057E-01   3.01463089E-02   1.92797286E-08   4.30718040E-04   1.83055167E-06   4.19950089E-05   5.78194143E-03
   1.59250000E+03   5.00000000E-01   5.00000000E-01  -3.59616178E-04   1.12384478E-08   5.12967049E-03   8.08922700E-03   5.50021263E-02   4.12948803E-03   1.12625477E-14   2.15986126E-07   9.71937566E-06   5.91981839E-01   7.34352827E-05   1.29591675E-02   6.66075674E-10   5.05492062E-01   3.02260679E-02   1.93335102E-08   4.31972251E-04   1.83588207E-06   4.21172945E-05   6.03906193E-03
   1.62750000E+03   5.00000000E-01   5.00000000E-01  -3.28409084E-04   1.40942905E-08   5.14487062E-03   7.07899252E-03   5.64095185E-02   3.88770846E-03   7.07855275E-15   2.16626131E-07   9.74817591E-06   5.93735987E-01   7.36528846E-05   1.29975679E-02   6.80564255E-10   5.06990677E-01   3.02883407E-02   1.93884302E-08   4.33252263E-04   1.84132212E-06   4.22420956E-05   6.05236716E-03
   1.66250000E+03   5.00000000E-01   5.00000000E-01  -2.99250196E-04   2.07572311E-08   5.16038075E-03   5.99387293E-03   5.77795875E-02   3.71339047E-03   3.79899528E-15   2.17279189E-07   9.77756352E-06   5.95525911E-01   7.38749244E-05   1.30367514E-02   6.95180245E-10   5.08473688E-01   3.02795469E-02   1.94445017E-08   4.34558379E-04   1.84687311E-06   4.23694419E-05   5.71867183E-03
   1.69750000E+03   5.00000000E-01   5.00000000E-01  -2.77588230E-04   3.21681429E-08   5.17620467E-03   4.88316248E-03   5.88962678E-02   3.54300407E-03   1.77254938E-15   2.17945460E-07   9.80754569E-06   5.97352046E-01   7.41014563E-05   1.30767276E-02   7.09926331E-10   5.09973541E-01   2.99826721E-02   1.95017387E-08   4.35890919E-04   1.85253641E-06   4.24993646E-05   5.32928993E-03
   1.73250000E+03   5.00000000E-01   5.00000000E-01  -2.67247768E-04   4.51055516E-08   5.19234634E-03   3.84559048E-03   5.89486554E-02   3.26390820E-03   7.69332247E-16   2.18625109E-07   9.83812991E-06   5.99214851E-01   7.43325371E-05   1.31175065E-02   7.24805263E-10   5.11519923E-01   2.85856029E-02   1.95601556E-08   4.37250218E-04   1.85831343E-06   4.26318963E-05   5.27101351E-03
   1.76750000E+03   5.00000000E-01   5.00000000E-01  -2.67611203E-04   5.64445397E-08   5.20880989E-03   2.93700013E-03   5.61326728E-02   2.83042849E-03   3.22785909E-16   2.19318311E-07   9.86932401E-06   6.01114803E-01   7.45682258E-05   1.31590987E-02   7.39819859E-10   5.13086524E-01   2.42813470E-02   1.96197677E-08   4.38636623E-04   1.86420565E-06   4.27670707E-05   5.73250859E-03
   1.80250000E+03   5.00000000E-01   5.00000000E-01  -2.79231509E-04   6.91172575E-08   5.22559963E-03   2.15271981E-03   5.04977990E-02   2.29310745E-03   1.25544519E-16   2.20025248E-07   9.90113614E-06   6.03052397E-01   7.48085842E-05   1.32015149E-02   7.54973002E-10   5.14577306E-01   1.71167198E-02   1.96805906E-08   4.40050495E-04   1.87021461E-06   4.29049233E-05   6.58069845E-03
   1.83750000E+03   5.00000000E-01   5.00000000E-01  -3.08186664E-04   8.97925024E-08   5.24272003E-03   1.47755109E-03   4.54815966E-02   1.71603771E-03   4.06222281E-17   2.20746107E-07   9.93357480E-06   6.05028151E-01   7.50536763E-05   1.32447664E-02   7.70267640E-10   5.15900652E-01   1.05290884E-02   1.97426408E-08   4.41492213E-04   1.87634191E-06   4.30454908E-05   7.06923254E-03
   1.87250000E+03   5.00000000E-01   5.00000000E-01  -3.57555682E-04   1.36497790E-07   5.26017575E-03   8.84950299E-04   4.28249119E-02   1.14833722E-03   7.59920607E-18   2.21481084E-07   9.96664878E-06   6.07042601E-01   7.53035686E-05   1.32888650E-02   7.85706792E-10   5.17022358E-01   6.26299652E-03   1.98059355E-08   4.42962168E-04   1.88258921E-06   4.31888114E-05   7.06256393E-03
   1.90750000E+03   5.00000000E-01   5.00000000E-01  -4.41556092E-04   3.31305114E-07   5.27797160E-03   4.12652673E-04   4.20637771E-02   6.75375322E-04   4.89638968E-19   2.22230383E-07   1.00003672E-05   6.09096304E-01   7.55583303E-05   1.33338230E-02   8.01293552E-10   5.17779943E-01   3.88914127E-03   1.98704922E-08   4.44460766E-04   1.88895826E-06   4.33349247E-05   6.19025827E-03
   1.94250000E+03   5.00000000E-01   5.00000000E-01  -7.68845088E-04   5.82815855E-07   5.29611260E-03   1.14669801E-04   4.23753019E-02   1.86466067E-04   7.58626479E-21   2.22994215E-07   1.00347397E-05   6.11189839E-01   7.58180331E-05   1.33796529E-02   8.17031090E-10   5.18574245E-01   2.62362958E-03   1.99363295E-08   4.45988430E-04   1.89545083E-06   4.34838719E-05   5.35900136E-03
   1.97750000E+03   5.00000000E-01   5.00000000E-01  -2.00849299E-03   8.59604759E-07   5.31460395E-03   1.19978731E-05   4.31783077E-02   1.29037390E-05   5.99499730E-24   2.23772798E-07   1.00697759E-05   6.13323805E-01   7.60827513E-05   1.34263679E-02   8.32922661E-10   5.19483794E-01   1.94196221E-03   2.00034664E-08   4.47545596E-04   1.90206878E-06   4.36356956E-05   4.84662289E-03
   2.01250000E+03   5.00000000E-01   5.00000000E-01  -3.02678142E-03   1.50511372E-06   5.33345102E-03   2.97790013E-06   4.38128803E-02   2.90933014E-06   7.09921017E-26   2.24566359E-07   1.01054861E-05   6.15498822E-01   7.63525619E-05   1.34739815E-02   8.48971586E-10   5.20639101E-01   1.56311372E-03   2.00719227E-08   4.49132717E-04   1.90881405E-06   4.37904399E-05   4.03648421E-03
   2.04750000E+03   5.00000000E-01   5.00000000E-01  -3.52727524E-03   2.39673573E-06   5.35265937E-03   1.48485859E-06   4.41642776E-02   1.55700262E-06   8.45002875E-27   2.25375131E-07   1.01418809E-05   6.17715533E-01   7.66275447E-05   1.35225079E-02   8.65181274E-10   5.22161743E-01   1.33979881E-03   2.01417188E-08   4.50750263E-04   1.91568862E-06   4.39481506E-05   3.25263850E-03
   2.08250000E+03   5.00000000E-01   5.00000000E-01  -3.82651984E-03   3.29541888E-06   5.37223478E-03   9.71155972E-07   4.43731652E-02   1.09091453E-06   2.53795790E-27   2.26199359E-07   1.01789712E-05   6.19974603E-01   7.69077821E-05   1.35719615E-02   8.81555221E-10   5.23965056E-01   1.19609129E-03   2.02128760E-08   4.52398718E-04   1.92269455E-06   4.41088750E-05   2.71559145E-03
   2.11750000E+03   5.00000000E-01   5.00000000E-01  -4.02755695E-03   4.16916935E-06   5.39218320E-03   7.21403687E-07   4.45019250E-02   8.63142163E-07   1.16015019E-27   2.27039292E-07   1.02167682E-05   6.22276720E-01   7.71933594E-05   1.36223575E-02   8.98097015E-10   5.25955018E-01   1.09409292E-03   2.02854162E-08   4.54078585E-04   1.92983399E-06   4.42726620E-05   2.35829099E-03
   2.15250000E+03   5.00000000E-01   5.00000000E-01  -4.16808040E-03   5.01951646E-06   5.41251079E-03   5.77315576E-07   4.45791545E-02   7.33301827E-07   6.72804856E-28   2.27895191E-07   1.02552836E-05   6.24622595E-01   7.74843649E-05   1.36737115E-02   9.14810337E-10   5.28075848E-01   1.01502015E-03   2.03593620E-08   4.55790382E-04   1.93710912E-06   4.44395622E-05   2.11187779E-03
   2.18750000E+03   5.00000000E-01   5.00000000E-01  -4.26702292E-03   5.85399184E-06   5.43322392E-03   4.84859523E-07   4.46209927E-02   6.52491859E-07   4.53868650E-28   2.28767323E-07   1.02945295E-05   6.27012963E-01   7.77808899E-05   1.37260394E-02   9.31698963E-10   5.30296334E-01   9.49487670E-04   2.04347370E-08   4.57534646E-04   1.94452225E-06   4.46096280E-05   1.93437189E-03
   2.22250000E+03   5.00000000E-01   5.00000000E-01  -4.33562582E-03   6.68186184E-06   5.45432919E-03   4.20814898E-07   4.46376554E-02   5.99211834E-07   3.38959383E-28   2.29655966E-07   1.03345185E-05   6.29448585E-01   7.80830284E-05   1.37793580E-02   9.48766772E-10   5.32598520E-01   8.92710744E-04   2.05115654E-08   4.59311932E-04   1.95207571E-06   4.47829134E-05   1.80125804E-03
   2.25750000E+03   5.00000000E-01   5.00000000E-01  -4.38116178E-03   7.51272967E-06   5.47583339E-03   3.73740210E-07   4.46360210E-02   5.62652387E-07   2.71726672E-28   2.30561406E-07   1.03752633E-05   6.31930244E-01   7.83908780E-05   1.38336844E-02   9.66017741E-10   5.34971666E-01   8.42168888E-04   2.05898722E-08   4.61122812E-04   1.95977195E-06   4.49594741E-05   1.69781396E-03
   2.29250000E+03   5.00000000E-01   5.00000000E-01  -4.40861657E-03   8.35598292E-06   5.49774355E-03   3.37442338E-07   4.46209048E-02   5.36852793E-07   2.29118046E-28   2.31483939E-07   1.04167773E-05   6.34458753E-01   7.87045392E-05   1.38890363E-02   9.83455959E-10   5.37409121E-01   7.96465356E-04   2.06696833E-08   4.62967878E-04   1.96761348E-06   4.51393681E-05   1.61485726E-03
   2.32750000E+03   5.00000000E-01   5.00000000E-01  -4.42156544E-03   9.22062345E-06   5.52006693E-03   3.08326867E-07   4.45957662E-02   5.18288794E-07   2.00403257E-28   2.32423871E-07   1.04590742E-05   6.37034948E-01   7.90241160E-05   1.39454322E-02   1.00108562E-09   5.39906674E-01   7.54761700E-04   2.07510255E-08   4.64847741E-04   1.97560290E-06   4.53226548E-05   1.54645363E-03
   2.36250000E+03   5.00000000E-01   5.00000000E-01  -4.42266862E-03   1.01152730E-05   5.54281102E-03   2.84192637E-07   4.45631461E-02   5.04759704E-07   1.80071408E-28   2.33381517E-07   1.05021683E-05   6.39659696E-01   7.93497157E-05   1.40028910E-02   1.01891105E-09   5.42461625E-01   7.16505263E-04   2.08339264E-08   4.66763033E-04   1.98374289E-06   4.55093958E-05   1.48864684E-03
   2.39750000E+03   5.00000000E-01   5.00000000E-01  -4.41396828E-03   1.10482509E-05   5.56598357E-03   2.63633709E-07   4.45249632E-02   4.94830133E-07   1.65065711E-28   2.34357203E-07   1.05460741E-05   6.42333889E-01   7.96814490E-05   1.40614322E-02   1.03693666E-09   5.45072261E-01   6.81309221E-04   2.09184145E-08   4.68714406E-04   1.99203623E-06   4.56996546E-05   1.43872913E-03
   2.43250000E+03   5.00000000E-01   5.00000000E-01  -4.39707504E-03   1.20276819E-05   5.58959257E-03   2.45721441E-07   4.44827019E-02   4.87530616E-07   1.53583686E-28   2.35351266E-07   1.05908070E-05   6.45058450E-01   8.00194305E-05   1.41210760E-02   1.05516702E-09   5.47737533E-01   6.48887589E-04   2.10045193E-08   4.70702532E-04   2.00048576E-06   4.58934969E-05   1.39480613E-03
   2.46750000E+03   5.00000000E-01   5.00000000E-01  -4.37328932E-03   1.30616155E-05   5.61364627E-03   2.29825581E-07   4.44375238E-02   4.82187912E-07   1.44509246E-28   2.36364054E-07   1.06363824E-05   6.47834331E-01   8.03637782E-05   1.41818432E-02   1.07360682E-09   5.50456862E-01   6.19006410E-04   2.10922711E-08   4.72728107E-04   2.00909446E-06   4.60909905E-05   1.35552814E-03
   2.50250000E+03   5.00000000E-01   5.00000000E-01  -4.34368299E-03   1.41581426E-05   5.63815320E-03   2.15508808E-07   4.43903503E-02   4.78324390E-07   1.37124003E-28   2.37395924E-07   1.06828166E-05   6.50662515E-01   8.07146142E-05   1.42437555E-02   1.09226086E-09   5.53230006E-01   5.91461303E-04   2.11817015E-08   4.74791848E-04   2.01786536E-06   4.62922052E-05   1.31991889E-03
   2.53750000E+03   5.00000000E-01   5.00000000E-01  -4.30915538E-03   1.53255008E-05   5.66312215E-03   2.02462003E-07   4.43419252E-02   4.75595907E-07   1.30951385E-28   2.38447248E-07   1.07301262E-05   6.53544019E-01   8.10720645E-05   1.43068349E-02   1.11113411E-09   5.56056983E-01   5.66069568E-04   2.12728429E-08   4.76894497E-04   2.02680161E-06   4.64972134E-05   1.28726357E-03
   2.57250000E+03   5.00000000E-01   5.00000000E-01  -4.27047267E-03   1.65721465E-05   5.68856221E-03   1.90463096E-07   4.42928534E-02   4.73751767E-07   1.25667897E-28   2.39518409E-07   1.07783284E-05   6.56479891E-01   8.14362590E-05   1.43711045E-02   1.13023166E-09   5.58938009E-01   5.42660954E-04   2.13657287E-08   4.79036818E-04   2.03590648E-06   4.67060897E-05   1.25703540E-03
   2.60750000E+03   5.00000000E-01   5.00000000E-01  -4.22829442E-03   1.79068150E-05   5.71448276E-03   1.79350318E-07   4.42436325E-02   4.72608821E-07   1.21050616E-28   2.40609800E-07   1.08274410E-05   6.59471212E-01   8.18073321E-05   1.44365880E-02   1.14955876E-09   5.61873463E-01   5.21076098E-04   2.14603936E-08   4.81219601E-04   2.04518330E-06   4.69189111E-05   1.22884513E-03