 TITLE = "Total Concentrations" 
VARIABLES = "X"          "Y"              "Z"            "H+"             "Al+++"          "CO2(aq)"        "Mg++"           "Ca++"           "Fe++"           "Fe+++"          "Ba++"           "Sr++"           "Cl-"            "F-"             "K+"             "HS-"            "Na+"            "SO4--"          "O2(aq)"         "B(OH)3(aq)"     "HPO4--"         "NO3-"           "H4SiO4(aq)"    
 ZONE I=         100 , J=           1 , K=           1  F=POINT
   1.75000000E+01   5.00000000E-01   5.00000000E-01  -4.75118793E-03   1.46057937E-13   4.75010909E-03   4.94691579E-02   1.12822966E-02   6.13908347E-04   2.95701494E-12   2.00004593E-07   9.00020669E-06   5.48179132E-01   6.80015617E-05   1.20002756E-02   1.11144746E-10   4.74292607E-01   2.80006431E-02   1.79983144E-08   4.00009186E-04   1.70003904E-06   3.90008957E-05   1.73117931E-03
   5.25000000E+01   5.00000000E-01   5.00000000E-01  -4.72245023E-03   1.87746442E-13   4.75063957E-03   4.83048812E-02   1.21284976E-02   8.96164043E-04   1.94545425E-12   2.00026929E-07   9.00121182E-06   5.48240352E-01   6.80091559E-05   1.20016158E-02   1.22319965E-10   4.74401653E-01   2.80037701E-02   1.79982210E-08   4.00053859E-04   1.70022890E-06   3.90052512E-05   2.63328593E-03
   8.75000000E+01   5.00000000E-01   5.00000000E-01  -4.68622936E-03   2.34800876E-13   4.75176954E-03   4.74050054E-02   1.29475897E-02   1.01280921E-03   1.74877630E-12   2.00074507E-07   9.00335281E-06   5.48370754E-01   6.80253324E-05   1.20044704E-02   1.33533767E-10   4.74434601E-01   2.80104310E-02   1.80003941E-08   4.00149014E-04   1.70063331E-06   3.90145289E-05   3.12721084E-03
   1.22500000E+02   5.00000000E-01   5.00000000E-01  -4.64576854E-03   2.96230308E-13   4.75345252E-03   4.66117244E-02   1.37564818E-02   1.06622932E-03   1.70210826E-12   2.00145369E-07   9.00654161E-06   5.48564976E-01   6.80494255E-05   1.20087222E-02   1.44788806E-10   4.74465921E-01   2.80203517E-02   1.80046568E-08   4.00290738E-04   1.70123564E-06   3.90283470E-05   3.45035771E-03
   1.57500000E+02   5.00000000E-01   5.00000000E-01  -4.60214753E-03   3.75961731E-13   4.75564895E-03   4.58550795E-02   1.45658564E-02   1.09993393E-03   1.68904125E-12   2.00237850E-07   9.01070327E-06   5.48818451E-01   6.80808692E-05   1.20142710E-02   1.56087471E-10   4.74523296E-01   2.80332991E-02   1.80108586E-08   4.00475701E-04   1.70202173E-06   3.90463808E-05   3.71980872E-03
   1.92500000E+02   5.00000000E-01   5.00000000E-01  -4.55095638E-03   4.98826808E-13   4.75832501E-03   4.50978516E-02   1.53928653E-02   1.14607018E-03   1.60404208E-12   2.00350527E-07   9.01577370E-06   5.49127278E-01   6.81191790E-05   1.20210316E-02   1.67431996E-10   4.74573937E-01   2.80490737E-02   1.80188707E-08   4.00701053E-04   1.70297948E-06   3.90683527E-05   4.02728591E-03
   2.27500000E+02   5.00000000E-01   5.00000000E-01  -4.48277738E-03   7.43763004E-13   4.76145164E-03   4.43271002E-02   1.62613990E-02   1.24424696E-03   1.35754704E-12   2.00482174E-07   9.02169785E-06   5.49488102E-01   6.81639393E-05   1.20289305E-02   1.78824515E-10   4.74503688E-01   2.80675045E-02   1.80285826E-08   4.00964349E-04   1.70409848E-06   3.90940240E-05   4.43907529E-03
   2.62500000E+02   5.00000000E-01   5.00000000E-01  -4.41653892E-03   1.00561729E-12   4.76500382E-03   4.36101208E-02   1.71452666E-02   1.33138628E-03   1.25374461E-12   2.00631740E-07   9.02842829E-06   5.49898036E-01   6.82147915E-05   1.20379044E-02   1.90267049E-10   4.74372301E-01   2.80884436E-02   1.80398989E-08   4.01263479E-04   1.70536979E-06   3.91231892E-05   4.81412462E-03
   2.97500000E+02   5.00000000E-01   5.00000000E-01  -4.35226084E-03   1.25092068E-12   4.76895988E-03   4.29360624E-02   1.80325212E-02   1.38578273E-03   1.24833180E-12   2.00798311E-07   9.03592398E-06   5.50354579E-01   6.82714256E-05   1.20478986E-02   2.01761582E-10   4.74266103E-01   2.81117635E-02   1.80527370E-08   4.01596621E-04   1.70678564E-06   3.91556706E-05   5.14469637E-03
   3.32500000E+02   5.00000000E-01   5.00000000E-01  -4.28388952E-03   1.52299557E-12   4.77330104E-03   4.22752138E-02   1.89213231E-02   1.42009389E-03   1.26789097E-12   2.00981096E-07   9.04414934E-06   5.50855564E-01   6.83335728E-05   1.20588658E-02   2.13310048E-10   4.74214485E-01   2.81373535E-02   1.80670254E-08   4.01962193E-04   1.70833932E-06   3.91913138E-05   5.45808842E-03
   3.67500000E+02   5.00000000E-01   5.00000000E-01  -4.20973031E-03   1.83946018E-12   4.77801099E-03   4.16118140E-02   1.98113709E-02   1.44429878E-03   1.29405695E-12   2.01179410E-07   9.05307346E-06   5.51399109E-01   6.84009995E-05   1.20707646E-02   2.24914324E-10   4.74225885E-01   2.81651175E-02   1.80827018E-08   4.02358821E-04   1.71002499E-06   3.92299850E-05   5.76912044E-03
   4.02500000E+02   5.00000000E-01   5.00000000E-01  -4.12902932E-03   2.21163162E-12   4.78307553E-03   4.09386832E-02   2.07026555E-02   1.46363049E-03   1.32088820E-12   2.01392654E-07   9.06266942E-06   5.51983574E-01   6.84735023E-05   1.20835592E-02   2.36576242E-10   4.74301690E-01   2.81949716E-02   1.80997120E-08   4.02785308E-04   1.71183756E-06   3.92715675E-05   6.08401163E-03
   4.37500000E+02   5.00000000E-01   5.00000000E-01  -4.04125682E-03   2.65086119E-12   4.78848227E-03   4.02526991E-02   2.15952907E-02   1.48064267E-03   1.34564957E-12   2.01620306E-07   9.07291377E-06   5.52607531E-01   6.85509041E-05   1.20972184E-02   2.48297593E-10   4.74440736E-01   2.82268429E-02   1.81180087E-08   4.03240612E-04   1.71377260E-06   3.93159597E-05   6.40508594E-03
   4.72500000E+02   5.00000000E-01   5.00000000E-01  -3.94601915E-03   3.16997738E-12   4.79422042E-03   3.95525880E-02   2.24894768E-02   1.49658306E-03   1.36673353E-12   2.01861912E-07   9.08378605E-06   5.53269733E-01   6.86330502E-05   1.21117147E-02   2.60080138E-10   4.74640934E-01   2.82606678E-02   1.81375505E-08   4.03723825E-04   1.71582625E-06   3.93630729E-05   6.73311086E-03
   5.07500000E+02   5.00000000E-01   5.00000000E-01  -3.84306637E-03   3.78380871E-12   4.80028056E-03   3.88379429E-02   2.33854781E-02   1.51207255E-03   1.38305572E-12   2.02117076E-07   9.09526844E-06   5.53969095E-01   6.87198060E-05   1.21270246E-02   2.71925614E-10   4.74899906E-01   2.82963908E-02   1.81583016E-08   4.04234153E-04   1.71799515E-06   3.94128299E-05   7.06828193E-03
   5.42500000E+02   5.00000000E-01   5.00000000E-01  -3.73231246E-03   4.50957644E-12   4.80665451E-03   3.81087945E-02   2.42836002E-02   1.52742399E-03   1.39383973E-12   2.02385453E-07   9.10734539E-06   5.54704671E-01   6.88110541E-05   1.21431272E-02   2.83835741E-10   4.75215244E-01   2.83339635E-02   1.81802304E-08   4.04770906E-04   1.72027635E-06   3.94651634E-05   7.41060181E-03
   5.77500000E+02   5.00000000E-01   5.00000000E-01  -3.61385372E-03   5.36731429E-12   4.81333513E-03   3.73654216E-02   2.51841723E-02   1.54279444E-03   1.39852921E-12   2.02666742E-07   9.12000341E-06   5.55475638E-01   6.89066924E-05   1.21600045E-02   2.95812231E-10   4.75584626E-01   2.83733440E-02   1.82033096E-08   4.05333485E-04   1.72266731E-06   3.95200148E-05   7.76001158E-03
   6.12500000E+02   5.00000000E-01   5.00000000E-01  -3.48798217E-03   6.38035117E-12   4.82031624E-03   3.66082638E-02   2.60875328E-02   1.55826111E-03   1.39674824E-12   2.02960684E-07   9.13323077E-06   5.56281282E-01   6.90066325E-05   1.21776410E-02   3.07856790E-10   4.76005862E-01   2.84144958E-02   1.82275154E-08   4.05921368E-04   1.72516581E-06   3.95773334E-05   8.11642775E-03
   6.47500000E+02   5.00000000E-01   5.00000000E-01  -3.35519151E-03   7.57587030E-12   4.82759249E-03   3.58378793E-02   2.69940200E-02   1.57386110E-03   1.38828135E-12   2.03267052E-07   9.14701735E-06   5.57120987E-01   6.91107978E-05   1.21960231E-02   3.19971127E-10   4.76476912E-01   2.84573874E-02   1.82528272E-08   4.06534105E-04   1.72776994E-06   3.96370752E-05   8.47974696E-03
   6.82500000E+02   5.00000000E-01   5.00000000E-01  -3.21617418E-03   8.98555513E-12   4.83515929E-03   3.50549206E-02   2.79039664E-02   1.58961276E-03   1.37306161E-12   2.03585654E-07   9.16135444E-06   5.57994221E-01   6.92191224E-05   1.22151393E-02   3.32156955E-10   4.76995890E-01   2.85019917E-02   1.82792273E-08   4.07171308E-04   1.73047806E-06   3.96992026E-05   8.84984165E-03
   7.17500000E+02   5.00000000E-01   5.00000000E-01  -3.07180847E-03   1.06463348E-11   4.84301271E-03   3.42601177E-02   2.88176946E-02   1.60552739E-03   1.35116131E-12   2.03916324E-07   9.17623460E-06   5.58900533E-01   6.93315503E-05   1.22349795E-02   3.44415997E-10   4.77561056E-01   2.85482855E-02   1.83067004E-08   4.07832649E-04   1.73328876E-06   3.97636833E-05   9.22655455E-03
   7.52500000E+02   5.00000000E-01   5.00000000E-01  -2.92313548E-03   1.26012393E-11   4.85114943E-03   3.34542620E-02   2.97355160E-02   1.62161501E-03   1.32278267E-12   2.04258923E-07   9.19165155E-06   5.59839539E-01   6.94480339E-05   1.22555354E-02   3.56749988E-10   4.78170812E-01   2.85962493E-02   1.83352336E-08   4.08517847E-04   1.73620085E-06   3.98304900E-05   9.60969566E-03
   7.87500000E+02   5.00000000E-01   5.00000000E-01  -2.77132651E-03   1.49003863E-11   4.85956668E-03   3.26381891E-02   3.06577291E-02   1.63788701E-03   1.28824655E-12   2.04613334E-07   9.20760003E-06   5.60810919E-01   6.95685335E-05   1.22768000E-02   3.69160675E-10   4.78823692E-01   2.86458668E-02   1.83648161E-08   4.09226668E-04   1.73921334E-06   3.98996001E-05   9.99904104E-03
   8.22500000E+02   5.00000000E-01   5.00000000E-01  -2.61764293E-03   1.76021202E-11   4.86826219E-03   3.18127595E-02   3.15846199E-02   1.65435661E-03   1.24797890E-12   2.04979460E-07   9.22407572E-06   5.61814411E-01   6.96930166E-05   1.22987676E-02   3.81649824E-10   4.79518354E-01   2.86971246E-02   1.83954389E-08   4.09958921E-04   1.74232541E-06   3.99709948E-05   1.03943331E-02
   8.57500000E+02   5.00000000E-01   5.00000000E-01  -2.46339089E-03   2.07743309E-11   4.87723412E-03   3.09788385E-02   3.25164610E-02   1.67103830E-03   1.20249512E-12   2.05357226E-07   9.24107518E-06   5.62849804E-01   6.98214569E-05   1.23214336E-02   3.94219219E-10   4.80253574E-01   2.87500117E-02   1.84270948E-08   4.10714452E-04   1.74553642E-06   4.00446591E-05   1.07952812E-02
   8.92500000E+02   5.00000000E-01   5.00000000E-01  -2.30987426E-03   2.44959843E-11   4.88648108E-03   3.01372755E-02   3.34535117E-02   1.68794631E-03   1.15238298E-12   2.05746572E-07   9.25859572E-06   5.63916934E-01   6.99538344E-05   1.23447943E-02   4.06870665E-10   4.81028231E-01   2.88045201E-02   1.84597781E-08   4.11493143E-04   1.74884586E-06   4.01205815E-05   1.12015623E-02
   9.27500000E+02   5.00000000E-01   5.00000000E-01  -2.15834896E-03   2.88589077E-11   4.89600202E-03   2.92888851E-02   3.43960186E-02   1.70509279E-03   1.09828477E-12   2.06147453E-07   9.27663541E-06   5.65015685E-01   7.00901342E-05   1.23688472E-02   4.19605989E-10   4.81841309E-01   2.88606435E-02   1.84934844E-08   4.12294907E-04   1.75225335E-06   4.01987534E-05   1.16128199E-02
   9.62500000E+02   5.00000000E-01   5.00000000E-01  -2.00998203E-03   3.39698819E-11   4.90579628E-03   2.84344305E-02   3.53442154E-02   1.72248559E-03   1.04087940E-12   2.06559843E-07   9.29519295E-06   5.66145976E-01   7.02303467E-05   1.23935906E-02   4.32427043E-10   4.82691878E-01   2.89183781E-02   1.85282110E-08   4.13119686E-04   1.75575867E-06   4.02791694E-05   1.20286622E-02
   9.97500000E+02   5.00000000E-01   5.00000000E-01  -1.86581761E-03   3.99530980E-11   4.91586349E-03   2.75746106E-02   3.62983237E-02   1.74012591E-03   9.80865564E-13   2.06983726E-07   9.31426767E-06   5.67307768E-01   7.03744669E-05   1.24190236E-02   4.45335707E-10   4.83579097E-01   2.89777216E-02   1.85639560E-08   4.13967452E-04   1.75936167E-06   4.03618266E-05   1.24486591E-02
   1.03250000E+03   5.00000000E-01   5.00000000E-01  -1.72675174E-03   4.69530682E-11   4.92620362E-03   2.67100518E-02   3.72585539E-02   1.75800576E-03   9.18946021E-13   2.07419100E-07   9.33385949E-06   5.68501055E-01   7.05224940E-05   1.24451460E-02   4.58333888E-10   4.84502198E-01   2.90386739E-02   1.86007191E-08   4.14838200E-04   1.76306235E-06   4.04467245E-05   1.28723367E-02
   1.06750000E+03   5.00000000E-01   5.00000000E-01  -1.59351653E-03   5.51381085E-11   4.93681690E-03   2.58413044E-02   3.82251062E-02   1.77610552E-03   8.55813728E-13   2.07865975E-07   9.35396886E-06   5.69725864E-01   7.06744314E-05   1.24719585E-02   4.71423524E-10   4.85460481E-01   2.91012363E-02   1.86385006E-08   4.15731949E-04   1.76686078E-06   4.05338651E-05   1.32991694E-02
   1.10250000E+03   5.00000000E-01   5.00000000E-01  -1.46667341E-03   6.47046599E-11   4.94770383E-03   2.49688417E-02   3.91981735E-02   1.79439254E-03   7.92139194E-13   2.08324372E-07   9.37459672E-06   5.70982253E-01   7.08302863E-05   1.24994623E-02   4.84606583E-10   4.86453302E-01   2.91654117E-02   1.86773021E-08   4.16648743E-04   1.77075716E-06   4.06232525E-05   1.37285579E-02
   1.13750000E+03   5.00000000E-01   5.00000000E-01  -1.04863243E-03   3.72894205E-09   4.95886516E-03   2.30588964E-02   4.02811823E-02   2.75939055E-03   2.28206589E-13   2.08794322E-07   9.39574451E-06   5.72270310E-01   7.09900696E-05   1.25276593E-02   4.97885084E-10   4.87150788E-01   2.92312046E-02   1.87171262E-08   4.17588645E-04   1.77475174E-06   4.07148929E-05   2.81784222E-03
   1.17250000E+03   5.00000000E-01   5.00000000E-01  -1.05277788E-03   1.52261558E-09   4.97030189E-03   2.14113875E-02   4.13719737E-02   3.36902867E-03   2.39285990E-13   2.09275869E-07   9.41741410E-06   5.73590148E-01   7.11537954E-05   1.25565521E-02   5.11261005E-10   4.88475099E-01   2.92986208E-02   1.87579762E-08   4.18551738E-04   1.77884489E-06   4.08087944E-05   4.46684225E-03
   1.20750000E+03   5.00000000E-01   5.00000000E-01  -1.00502392E-03   1.05143369E-09   4.98201524E-03   2.01445029E-02   4.24707299E-02   3.59578968E-03   2.29768070E-13   2.09769063E-07   9.43960782E-06   5.74941909E-01   7.13214813E-05   1.25861438E-02   5.24736443E-10   4.89770570E-01   2.93676672E-02   1.87998563E-08   4.19538125E-04   1.78303703E-06   4.09049672E-05   5.75858438E-03
   1.24250000E+03   5.00000000E-01   5.00000000E-01  -9.40633954E-04   8.86266575E-10   4.99400664E-03   1.91330997E-02   4.35776939E-02   3.57255176E-03   2.16105762E-13   2.10273964E-07   9.46232837E-06   5.76325759E-01   7.14931477E-05   1.26164378E-02   5.38313522E-10   4.91056693E-01   2.94383522E-02   1.88427715E-08   4.20547928E-04   1.78732869E-06   4.10034229E-05   6.81239605E-03
   1.27750000E+03   5.00000000E-01   5.00000000E-01  -8.71587791E-04   8.18101993E-10   5.00627774E-03   1.82403480E-02   4.46941314E-02   3.43239640E-03   2.00763019E-13   2.10790642E-07   9.48557888E-06   5.77741887E-01   7.16688182E-05   1.26474385E-02   5.51994394E-10   4.92350616E-01   2.95106849E-02   1.88867278E-08   4.21581284E-04   1.79172046E-06   4.11041751E-05   7.74420209E-03
   1.31250000E+03   5.00000000E-01   5.00000000E-01  -8.02940403E-04   7.99062238E-10   5.01883039E-03   1.73683689E-02   4.58359465E-02   3.25742899E-03   1.82526251E-13   2.11319174E-07   9.50936285E-06   5.79190506E-01   7.18485193E-05   1.26791505E-02   5.65781249E-10   4.93657363E-01   2.95846751E-02   1.89317318E-08   4.22638349E-04   1.79621298E-06   4.12072390E-05   8.59393393E-03
   1.34750000E+03   5.00000000E-01   5.00000000E-01  -7.37462563E-04   8.11028712E-10   5.03166662E-03   1.64688855E-02   4.70171190E-02   3.08416567E-03   1.61558852E-13   2.11859647E-07   9.53368413E-06   5.80671852E-01   7.20322801E-05   1.27115788E-02   5.79676322E-10   4.94975514E-01   2.96603325E-02   1.89777906E-08   4.23719295E-04   1.80080700E-06   4.13126312E-05   9.37734351E-03
   1.38250000E+03   5.00000000E-01   5.00000000E-01  -5.64044444E-04   1.01544979E-08   5.04478867E-03   1.46479842E-02   4.82369071E-02   3.84168528E-03   5.92843348E-14   2.12412155E-07   9.55854696E-06   5.82186182E-01   7.22201326E-05   1.27447293E-02   5.93681894E-10   4.96125354E-01   2.97376648E-02   1.90249124E-08   4.24824309E-04   1.80550331E-06   4.14203701E-05   3.65690954E-03
   1.41750000E+03   5.00000000E-01   5.00000000E-01  -5.32034269E-04   1.15049877E-08   5.05819894E-03   1.29353151E-02   4.94928999E-02   4.38556470E-03   4.01946224E-14   2.12976798E-07   9.58395589E-06   5.83733774E-01   7.24121112E-05   1.27786079E-02   6.07800259E-10   4.97590924E-01   2.98166735E-02   1.90731058E-08   4.25953595E-04   1.81030278E-06   4.15304755E-05   3.78052332E-03
   1.45250000E+03   5.00000000E-01   5.00000000E-01  -5.07849454E-04   9.81976327E-09   5.07190003E-03   1.15554244E-02   5.07841027E-02   4.57449455E-03   3.02561380E-14   2.13553685E-07   9.60991585E-06   5.85314927E-01   7.26082531E-05   1.28132211E-02   6.22033789E-10   4.99074400E-01   2.98973407E-02   1.91223803E-08   4.27107371E-04   1.81520633E-06   4.16429687E-05   4.43760418E-03
   1.48750000E+03   5.00000000E-01   5.00000000E-01  -4.79054380E-04   8.59234747E-09   5.08589470E-03   1.04512712E-02   5.21102588E-02   4.47058816E-03   2.35387333E-14   2.14142935E-07   9.63643206E-06   5.86929961E-01   7.28085978E-05   1.28485761E-02   6.36384909E-10   5.00553872E-01   2.99795940E-02   1.91727459E-08   4.28285869E-04   1.82021495E-06   4.17578723E-05   5.15051680E-03
   1.52250000E+03   5.00000000E-01   5.00000000E-01  -4.44556781E-04   8.65407719E-09   5.10018590E-03   9.45395148E-03   5.34713061E-02   4.24341027E-03   1.76165575E-14   2.14744669E-07   9.66351012E-06   5.88579215E-01   7.30131876E-05   1.28846802E-02   6.50856091E-10   5.02026909E-01   3.00631980E-02   1.92242132E-08   4.29489339E-04   1.82532969E-06   4.18752105E-05   5.64000254E-03
   1.55750000E+03   5.00000000E-01   5.00000000E-01  -4.10090567E-04   9.50979688E-09   5.11477673E-03   8.47087703E-03   5.48666829E-02   3.98450748E-03   1.24621412E-14   2.15359020E-07   9.69115591E-06   5.90263048E-01   7.32220669E-05   1.29215412E-02   6.65449853E-10   5.03501307E-01   3.01474037E-02   1.92767937E-08   4.30718040E-04   1.83055167E-06   4.19950089E-05   5.95615996E-03
   1.59250000E+03   5.00000000E-01   5.00000000E-01  -3.77250467E-04   1.15215993E-08   5.12967049E-03   7.45393012E-03   5.62941123E-02   3.74453438E-03   8.06161111E-15   2.15986126E-07   9.71937566E-06   5.91981839E-01   7.34352827E-05   1.29591675E-02   6.80168771E-10   5.04973579E-01   3.02297451E-02   1.93304992E-08   4.31972251E-04   1.83588207E-06   4.21172945E-05   6.05459536E-03
   1.62750000E+03   5.00000000E-01   5.00000000E-01  -3.46049651E-04   1.63080533E-08   5.14487062E-03   6.36766311E-03   5.77452898E-02   3.56522371E-03   4.50496765E-15   2.16626131E-07   9.74817591E-06   5.93735987E-01   7.36528846E-05   1.29975679E-02   6.95015472E-10   5.06430949E-01   3.03016164E-02   1.93853424E-08   4.33252263E-04   1.84132212E-06   4.22420956E-05   5.80853998E-03
   1.66250000E+03   5.00000000E-01   5.00000000E-01  -3.19420802E-04   2.64138029E-08   5.16038075E-03   5.22187471E-03   5.91885251E-02   3.43202606E-03   2.10248372E-15   2.17279189E-07   9.77756352E-06   5.95525911E-01   7.38749244E-05   1.30367514E-02   7.09992646E-10   5.07885557E-01   3.03309794E-02   1.94413366E-08   4.34558379E-04   1.84687311E-06   4.23694419E-05   5.32418855E-03
   1.69750000E+03   5.00000000E-01   5.00000000E-01  -3.05213817E-04   3.86767645E-08   5.17620467E-03   4.13006356E-03   6.04989579E-02   3.20828917E-03   8.93735414E-16   2.17945460E-07   9.80754569E-06   5.97352046E-01   7.41014563E-05   1.30767276E-02   7.25103042E-10   5.09390085E-01   3.01920170E-02   1.94984955E-08   4.35890919E-04   1.85253641E-06   4.24993646E-05   5.11759517E-03
   1.73250000E+03   5.00000000E-01   5.00000000E-01  -2.98342922E-04   5.03563955E-08   5.19234634E-03   3.15811137E-03   6.11902595E-02   2.83238206E-03   3.41809874E-16   2.18625109E-07   9.83812991E-06   5.99214851E-01   7.43325371E-05   1.31175065E-02   7.40349476E-10   5.10929126E-01   2.93972634E-02   1.95568337E-08   4.37250218E-04   1.85831343E-06   4.26318963E-05   5.38844756E-03
   1.76750000E+03   5.00000000E-01   5.00000000E-01  -2.97419287E-04   6.19996719E-08   5.20880989E-03   2.31744638E-03   5.98313164E-02   2.33126854E-03   1.14505956E-16   2.19318311E-07   9.86932401E-06   6.01114803E-01   7.45682258E-05   1.31590987E-02   7.55734831E-10   5.12419887E-01   2.65130627E-02   1.96163663E-08   4.38636623E-04   1.86420565E-06   4.27670707E-05   6.21392067E-03
   1.80250000E+03   5.00000000E-01   5.00000000E-01  -3.21456487E-04   7.87944089E-08   5.22559963E-03   1.60909171E-03   5.51384379E-02   1.76438887E-03   3.68290189E-17   2.20025248E-07   9.90113614E-06   6.03052397E-01   7.48085842E-05   1.32015149E-02   7.71262055E-10   5.13756031E-01   2.02532767E-02   1.96771091E-08   4.40050495E-04   1.87021461E-06   4.29049233E-05   6.78527313E-03
   1.83750000E+03   5.00000000E-01   5.00000000E-01  -3.72605027E-04   1.17956808E-07   5.24272003E-03   9.88776004E-04   4.95161789E-02   1.20377104E-03   8.10129869E-18   2.20746107E-07   9.93357480E-06   6.05028151E-01   7.50536763E-05   1.32447664E-02   7.86934164E-10   5.14889492E-01   1.30248823E-02   1.97390784E-08   4.41492213E-04   1.87634191E-06   4.30454908E-05   6.86112545E-03
   1.87250000E+03   5.00000000E-01   5.00000000E-01  -4.60907486E-04   2.62766101E-07   5.26017575E-03   4.81576415E-04   4.58302342E-02   7.19970165E-04   6.91458770E-19   2.21481084E-07   9.96664878E-06   6.07042601E-01   7.53035686E-05   1.32888650E-02   8.02754251E-10   5.15691897E-01   7.71986067E-03   1.98022914E-08   4.42962168E-04   1.88258921E-06   4.31888114E-05   6.14757441E-03
   1.90750000E+03   5.00000000E-01   5.00000000E-01  -7.43749444E-04   5.17292633E-07   5.27797160E-03   1.49783250E-04   4.43108630E-02   2.37594430E-04   1.53050596E-20   2.22230383E-07   1.00003672E-05   6.09096304E-01   7.55583303E-05   1.33338230E-02   8.18725481E-10   5.16440669E-01   4.61512261E-03   1.98667657E-08   4.44460766E-04   1.88895826E-06   4.33349247E-05   5.26516742E-03
   1.94250000E+03   5.00000000E-01   5.00000000E-01  -1.87738477E-03   7.90647096E-07   5.29611260E-03   1.71456011E-05   4.41599244E-02   1.88999203E-05   1.63582218E-23   2.22994215E-07   1.00347397E-05   6.11189839E-01   7.58180331E-05   1.33796529E-02   8.34851111E-10   5.17300946E-01   2.95255405E-03   1.99325198E-08   4.45988430E-04   1.89545083E-06   4.34838719E-05   4.70967697E-03
   1.97750000E+03   5.00000000E-01   5.00000000E-01  -3.06453102E-03   1.34547000E-06   5.31460395E-03   3.40760010E-06   4.44189789E-02   3.16637931E-06   9.78413998E-26   2.23772798E-07   1.00697759E-05   6.13323805E-01   7.60827513E-05   1.34263679E-02   8.51134459E-10   5.18376753E-01   2.08349516E-03   1.99995727E-08   4.47545596E-04   1.90206878E-06   4.36356956E-05   4.00188373E-03
   2.01250000E+03   5.00000000E-01   5.00000000E-01  -3.64348735E-03   2.24255006E-06   5.33345102E-03   1.52104118E-06   4.45901410E-02   1.51228671E-06   8.08781458E-27   2.24566359E-07   1.01054861E-05   6.15498822E-01   7.63525619E-05   1.34739815E-02   8.67578928E-10   5.19822007E-01   1.62172692E-03   2.00679442E-08   4.49132717E-04   1.90881405E-06   4.37904399E-05   3.20134188E-03
   2.04750000E+03   5.00000000E-01   5.00000000E-01  -3.97545995E-03   3.17328275E-06   5.35265937E-03   9.49316609E-07   4.47058776E-02   1.01493509E-06   2.09059869E-27   2.25375131E-07   1.01418809E-05   6.17715533E-01   7.66275447E-05   1.35225079E-02   8.84188013E-10   5.21571374E-01   1.36220939E-03   2.01376547E-08   4.50750263E-04   1.91568862E-06   4.39481506E-05   2.64055084E-03
   2.08250000E+03   5.00000000E-01   5.00000000E-01  -4.19546787E-03   4.07723516E-06   5.37223478E-03   6.88916402E-07   4.47859343E-02   7.86499939E-07   8.89244531E-28   2.26199359E-07   1.01789712E-05   6.19974603E-01   7.69077821E-05   1.35719615E-02   9.00965298E-10   5.23521172E-01   1.20303037E-03   2.02087254E-08   4.52398718E-04   1.92269455E-06   4.41088750E-05   2.27235369E-03
   2.11750000E+03   5.00000000E-01   5.00000000E-01  -4.34951194E-03   4.95115340E-06   5.39218320E-03   5.44455212E-07   4.48362568E-02   6.60874457E-07   4.96563328E-28   2.27039292E-07   1.02167682E-05   6.22276720E-01   7.71933594E-05   1.36223575E-02   9.17914457E-10   5.25607943E-01   1.09470365E-03   2.02811782E-08   4.54078585E-04   1.92983399E-06   4.42726620E-05   2.02319179E-03
   2.15250000E+03   5.00000000E-01   5.00000000E-01  -4.45917880E-03   5.80166663E-06   5.41251079E-03   4.54285359E-07   4.48617444E-02   5.84675523E-07   3.28504261E-28   2.27895191E-07   1.02552836E-05   6.24622595E-01   7.74843649E-05   1.36737115E-02   9.35039264E-10   5.27796479E-01   1.01327796E-03   2.03550358E-08   4.55790382E-04   1.93710912E-06   4.44395622E-05   1.84696877E-03
   2.18750000E+03   5.00000000E-01   5.00000000E-01  -4.53679749E-03   6.63826693E-06   5.43322392E-03   3.93129095E-07   4.48672716E-02   5.35494967E-07   2.43197738E-28   2.28767323E-07   1.02945295E-05   6.27012963E-01   7.77808899E-05   1.37260394E-02   9.52343589E-10   5.30066787E-01   9.47073583E-04   2.04303217E-08   4.57534646E-04   1.94452225E-06   4.46096280E-05   1.71700007E-03
   2.22250000E+03   5.00000000E-01   5.00000000E-01  -4.59015977E-03   7.47114295E-06   5.45432919E-03   3.48920642E-07   4.48572353E-02   5.02410120E-07   1.94546978E-28   2.29655966E-07   1.03345185E-05   6.29448585E-01   7.80830284E-05   1.37793580E-02   9.69831405E-10   5.32407036E-01   8.90296642E-04   2.05070600E-08   4.59311932E-04   1.95207571E-06   4.47829134E-05   1.61748930E-03
   2.25750000E+03   5.00000000E-01   5.00000000E-01  -4.62452770E-03   8.31032848E-06   5.47583339E-03   3.15279138E-07   4.48353206E-02   4.79531466E-07   1.64377175E-28   2.30561406E-07   1.03752633E-05   6.31930244E-01   7.83908780E-05   1.38336844E-02   9.87506791E-10   5.34809966E-01   8.39990812E-04   2.05852758E-08   4.61122812E-04   1.95977195E-06   4.49594741E-05   1.53871709E-03
   2.29250000E+03   5.00000000E-01   5.00000000E-01  -4.64363778E-03   9.16540238E-06   5.49774355E-03   2.88566335E-07   4.48044850E-02   4.63434252E-07   1.44448877E-28   2.31483939E-07   1.04167773E-05   6.34458753E-01   7.87045392E-05   1.38890363E-02   1.00537394E-09   5.37271023E-01   7.94577589E-04   2.06649949E-08   4.62967878E-04   1.96761348E-06   4.51393681E-05   1.47447763E-03
   2.32750000E+03   5.00000000E-01   5.00000000E-01  -4.65025096E-03   1.00454543E-05   5.52006693E-03   2.66585307E-07   4.47670397E-02   4.52006193E-07   1.30610697E-28   2.32423871E-07   1.04590742E-05   6.37034948E-01   7.90241160E-05   1.39454322E-02   1.02343714E-09   5.39787326E-01   7.53148053E-04   2.07462441E-08   4.64847741E-04   1.97560290E-06   4.53226548E-05   1.42067776E-03
   2.36250000E+03   5.00000000E-01   5.00000000E-01  -4.64647627E-03   1.09591663E-05   5.54281102E-03   2.47949013E-07   4.47247703E-02   4.43881925E-07   1.20591486E-28   2.33381517E-07   1.05021683E-05   6.39659696E-01   7.93497157E-05   1.40028910E-02   1.04170083E-09   5.42357089E-01   7.15126711E-04   2.08290510E-08   4.66763033E-04   1.98374289E-06   4.55093958E-05   1.37454172E-03
   2.39750000E+03   5.00000000E-01   5.00000000E-01  -4.63397168E-03   1.19149327E-05   5.56598357E-03   2.31750586E-07   4.46790657E-02   4.38144981E-07   1.13064857E-28   2.34357203E-07   1.05460741E-05   6.42333889E-01   7.96814490E-05   1.40614322E-02   1.06016955E-09   5.44979264E-01   6.80123363E-04   2.09134440E-08   4.68714406E-04   1.99203623E-06   4.56996546E-05   1.33414323E-03
   2.43250000E+03   5.00000000E-01   5.00000000E-01  -4.61407389E-03   1.29209901E-05   5.58959257E-03   2.17380522E-07   4.46310161E-02   4.34161361E-07   1.07214746E-28   2.35351266E-07   1.05908070E-05   6.45058450E-01   8.00194305E-05   1.41210760E-02   1.07884796E-09   5.47653324E-01   6.47855900E-04   2.09994527E-08   4.70702532E-04   2.00048576E-06   4.58934969E-05   1.29812015E-03
   2.46750000E+03   5.00000000E-01   5.00000000E-01  -4.58788502E-03   1.39855497E-05   5.61364627E-03   2.04420080E-07   4.45814736E-02   4.31481903E-07   1.02517930E-28   2.36364054E-07   1.06363824E-05   6.47834331E-01   8.03637782E-05   1.41818432E-02   1.09774086E-09   5.50379118E-01   6.18096411E-04   2.10871073E-08   4.72728107E-04   2.00909446E-06   4.60909905E-05   1.26549445E-03
   2.50250000E+03   5.00000000E-01   5.00000000E-01  -4.55633181E-03   1.51169209E-05   5.63815320E-03   1.92576514E-07   4.45311050E-02   4.29782730E-07   9.86281422E-29   2.37395924E-07   1.06828166E-05   6.50662515E-01   8.07146142E-05   1.42437555E-02   1.11685319E-09   5.53156783E-01   5.90646671E-04   2.11764394E-08   4.74791848E-04   2.01786536E-06   4.62922052E-05   1.23555531E-03
   2.53750000E+03   5.00000000E-01   5.00000000E-01  -4.52020702E-03   1.63236220E-05   5.66312215E-03   1.81642266E-07   4.44804374E-02   4.28827529E-07   9.53108865E-29   2.38447248E-07   1.07301262E-05   6.53544019E-01   8.10720645E-05   1.43068349E-02   1.13619003E-09   5.55986671E-01   5.65329497E-04   2.12674813E-08   4.76894497E-04   2.02680161E-06   4.64972134E-05   1.20778143E-03
   2.57250000E+03   5.00000000E-01   5.00000000E-01  -4.48019846E-03   1.76144533E-05   5.68856221E-03   1.71468387E-07   4.44298859E-02   4.28442605E-07   9.24049133E-29   2.39518409E-07   1.07783284E-05   6.56479891E-01   8.14362590E-05   1.43711045E-02   1.15575660E-09   5.58869308E-01   5.41979340E-04   2.13602665E-08   4.79036818E-04   2.03590648E-06   4.67060897E-05   1.18178964E-03
   2.60750000E+03   5.00000000E-01   5.00000000E-01  -4.43690837E-03   1.89985599E-05   5.71448276E-03   1.61946953E-07   4.43797791E-02   4.28500533E-07   8.97987183E-29   2.40609800E-07   1.08274410E-05   6.59471212E-01   8.18073321E-05   1.44365880E-02   1.17555828E-09   5.61805361E-01   5.20440736E-04   2.14548296E-08   4.81219601E-04   2.04518330E-06   4.69189111E-05   1.15729904E-03