 TITLE = "Total Concentrations" 
VARIABLES = "X"          "Y"              "Z"            "H+"             "Al+++"          "CO2(aq)"        "Mg++"           "Ca++"           "Fe++"           "Fe+++"          "Ba++"           "Sr++"           "Cl-"            "F-"             "K+"             "HS-"            "Na+"            "SO4--"          "O2(aq)"         "B(OH)3(aq)"     "HPO4--"         "NO3-"           "H4SiO4(aq)"    
 ZONE I=         200 , J=           1 , K=           1  F=POINT
   8.75000000E+00   5.00000000E-01   5.00000000E-01  -4.67797621E-03   1.00257714E-12   4.74997155E-03   5.08023081E-02   1.05952042E-02   5.29476968E-05   1.65572777E-22   1.99998802E-07   8.99994609E-06   5.48163260E-01   6.79995927E-05   1.19941706E-02   1.00947622E-10   4.74037809E-01   2.79998323E-02   1.79997013E-08   3.99997604E-04   1.69998982E-06   3.89997664E-05   4.05066036E-04
   2.62500000E+01   5.00000000E-01   5.00000000E-01  -4.59312272E-03   3.94020888E-12   4.74999810E-03   5.04984278E-02   1.07905811E-02   1.05866181E-04   7.39976333E-22   1.99999920E-07   8.99999641E-06   5.48166324E-01   6.79999729E-05   1.19858735E-02   1.01896494E-10   4.74075801E-01   2.79999888E-02   1.79996110E-08   3.99999840E-04   1.69999932E-06   3.89999844E-05   6.04602090E-04
   4.37500000E+01   5.00000000E-01   5.00000000E-01  -4.54249385E-03   6.37689442E-12   4.75018787E-03   5.02184386E-02   1.09863742E-02   1.58767577E-04   1.47486726E-21   2.00007910E-07   9.00035596E-06   5.48188224E-01   6.80026895E-05   1.19777617E-02   1.02848992E-10   4.74120014E-01   2.80011074E-02   1.80001392E-08   4.00015821E-04   1.70006724E-06   3.90015425E-05   7.85593177E-04
   6.12500000E+01   5.00000000E-01   5.00000000E-01  -4.50589150E-03   8.24254196E-12   4.75053372E-03   4.99535373E-02   1.11825843E-02   2.11646062E-04   2.25157094E-21   2.00022473E-07   9.00101126E-06   5.48228136E-01   6.80076407E-05   1.19683435E-02   1.03805057E-10   4.74168452E-01   2.80031462E-02   1.80012588E-08   4.00044945E-04   1.70019102E-06   3.90043821E-05   9.29969204E-04
   7.87500000E+01   5.00000000E-01   5.00000000E-01  -4.47469695E-03   1.00587695E-11   4.75102913E-03   4.96987232E-02   1.13792213E-02   2.64499818E-04   3.08722709E-21   2.00043332E-07   9.00194993E-06   5.48285308E-01   6.80147328E-05   1.19575285E-02   1.04764638E-10   4.74221741E-01   2.80060664E-02   1.80029451E-08   4.00086663E-04   1.70036832E-06   3.90084497E-05   1.03786073E-03
   9.62500000E+01   5.00000000E-01   5.00000000E-01  -4.44680544E-03   1.18453194E-11   4.75166807E-03   4.94511986E-02   1.15762928E-02   3.17325717E-04   3.96764488E-21   2.00070234E-07   9.00316055E-06   5.48359044E-01   6.80238797E-05   1.19459583E-02   1.05727690E-10   4.74281955E-01   2.80098328E-02   1.80051751E-08   4.00140469E-04   1.70059699E-06   3.90136957E-05   1.11930149E-03
   1.13750000E+02   5.00000000E-01   5.00000000E-01  -4.42102268E-03   1.35440926E-11   4.75244499E-03   4.92085824E-02   1.17738043E-02   3.70118309E-04   4.88519289E-21   2.00102947E-07   9.00463261E-06   5.48448703E-01   6.80350020E-05   1.19343072E-02   1.06694177E-10   4.74351281E-01   2.80144126E-02   1.80079280E-08   4.00205894E-04   1.70087505E-06   3.90200747E-05   1.18504849E-03
   1.31250000E+02   5.00000000E-01   5.00000000E-01  -4.39624055E-03   1.51408438E-11   4.75335479E-03   4.89689791E-02   1.19717600E-02   4.22870420E-04   5.85174006E-21   2.00141254E-07   9.00635643E-06   5.48553697E-01   6.80480264E-05   1.19230596E-02   1.07664063E-10   4.74431275E-01   2.80197756E-02   1.80111842E-08   4.00282508E-04   1.70120066E-06   3.90275446E-05   1.24304495E-03
   1.48750000E+02   5.00000000E-01   5.00000000E-01  -4.37158428E-03   1.66494252E-11   4.75439272E-03   4.87310819E-02   1.21701635E-02   4.75573659E-04   6.88874168E-21   2.00184957E-07   9.00832306E-06   5.48673479E-01   6.80628853E-05   1.19125162E-02   1.08637320E-10   4.74522782E-01   2.80258940E-02   1.80149259E-08   4.00369914E-04   1.70157213E-06   3.90360666E-05   1.29827652E-03
   1.66250000E+02   5.00000000E-01   5.00000000E-01  -4.34638819E-03   1.81043614E-11   4.75555443E-03   4.84940503E-02   1.23690184E-02   5.28218961E-04   8.02256651E-21   2.00233871E-07   9.01052419E-06   5.48807544E-01   6.80795161E-05   1.19028411E-02   1.09613925E-10   4.74626107E-01   2.80327419E-02   1.80191365E-08   4.00467742E-04   1.70198790E-06   3.90456048E-05   1.35347859E-03
   1.83750000E+02   5.00000000E-01   5.00000000E-01  -4.32014579E-03   1.95530285E-11   4.75683587E-03   4.82573625E-02   1.25683277E-02   5.80797169E-04   9.28268193E-21   2.00287826E-07   9.01295217E-06   5.48955426E-01   6.80978608E-05   1.18941083E-02   1.10593857E-10   4.74741212E-01   2.80402956E-02   1.80238006E-08   4.00575652E-04   1.70244652E-06   3.90561261E-05   1.40991363E-03
   2.01250000E+02   5.00000000E-01   5.00000000E-01  -4.29257764E-03   2.10226464E-11   4.75823327E-03   4.80207271E-02   1.27680952E-02   6.33298861E-04   1.06938613E-20   2.00346664E-07   9.01559988E-06   5.49116691E-01   6.81178658E-05   1.18863530E-02   1.11577099E-10   4.74867899E-01   2.80485330E-02   1.80289040E-08   4.00693328E-04   1.70294664E-06   3.90675995E-05   1.46820132E-03
   2.18750000E+02   5.00000000E-01   5.00000000E-01  -4.26354099E-03   2.25240178E-11   4.75974317E-03   4.77839747E-02   1.29683250E-02   6.85714063E-04   1.22771856E-20   2.00410239E-07   9.01846074E-06   5.49290938E-01   6.81394811E-05   1.18795906E-02   1.12563639E-10   4.75005917E-01   2.80574334E-02   1.80344335E-08   4.00820477E-04   1.70348703E-06   3.90799965E-05   1.52868947E-03
   2.36250000E+02   5.00000000E-01   5.00000000E-01  -4.23287007E-03   2.40805435E-11   4.76136232E-03   4.75469706E-02   1.31690220E-02   7.38032762E-04   1.40591295E-20   2.00478413E-07   9.02152861E-06   5.49477794E-01   6.81626606E-05   1.18738148E-02   1.13553468E-10   4.75154975E-01   2.80669779E-02   1.80403768E-08   4.00956827E-04   1.70406651E-06   3.90932906E-05   1.59143113E-03
   2.53750000E+02   5.00000000E-01   5.00000000E-01  -4.20049965E-03   2.56979963E-11   4.76308773E-03   4.73096396E-02   1.33701917E-02   7.90244417E-04   1.60622330E-20   2.00551062E-07   9.02479780E-06   5.49676912E-01   6.81873611E-05   1.18690140E-02   1.14546577E-10   4.75314797E-01   2.80771487E-02   1.80467226E-08   4.01102124E-04   1.70468403E-06   3.91074571E-05   1.65647909E-03
   2.71250000E+02   5.00000000E-01   5.00000000E-01  -4.16637590E-03   2.73809357E-11   4.76491659E-03   4.70719200E-02   1.35718399E-02   8.42337949E-04   1.83103905E-20   2.00628067E-07   9.02826302E-06   5.49887970E-01   6.82135428E-05   1.18651692E-02   1.15542963E-10   4.75485129E-01   2.80879294E-02   1.80534601E-08   4.01256134E-04   1.70533857E-06   3.91224731E-05   1.72386067E-03
   2.88750000E+02   5.00000000E-01   5.00000000E-01  -4.13043712E-03   2.91370263E-11   4.76684632E-03   4.68337540E-02   1.37739723E-02   8.94301920E-04   2.08306898E-20   2.00709319E-07   9.03191935E-06   5.50110667E-01   6.82411684E-05   1.18622540E-02   1.16542624E-10   4.75665730E-01   2.80993046E-02   1.80605797E-08   4.01418638E-04   1.70602921E-06   3.91383172E-05   1.79356570E-03
   3.06250000E+02   5.00000000E-01   5.00000000E-01  -4.09261431E-03   3.09773232E-11   4.76887449E-03   4.65950878E-02   1.39765940E-02   9.46124780E-04   2.36540159E-20   2.00794715E-07   9.03576219E-06   5.50344724E-01   6.82702032E-05   1.18602359E-02   1.17545560E-10   4.75856376E-01   2.81112601E-02   1.80680720E-08   4.01589430E-04   1.70675508E-06   3.91549695E-05   1.86554789E-03
   3.23750000E+02   5.00000000E-01   5.00000000E-01  -4.05283624E-03   3.29154939E-11   4.77099883E-03   4.63558729E-02   1.41797101E-02   9.97795130E-04   2.68152478E-20   2.00884161E-07   9.03978726E-06   5.50589882E-01   6.83006149E-05   1.18590775E-02   1.18551774E-10   4.76056856E-01   2.81237826E-02   1.80759286E-08   4.01768323E-04   1.70751537E-06   3.91724115E-05   1.93973298E-03
   3.41250000E+02   5.00000000E-01   5.00000000E-01  -4.01103592E-03   3.49665084E-11   4.77321726E-03   4.61160673E-02   1.43833247E-02   1.04930193E-03   3.03531209E-20   2.00977569E-07   9.04399059E-06   5.50845895E-01   6.83323734E-05   1.18587379E-02   1.19561271E-10   4.76266974E-01   2.81368596E-02   1.80841414E-08   4.01955138E-04   1.70830933E-06   3.91906259E-05   2.01603138E-03
   3.58750000E+02   5.00000000E-01   5.00000000E-01  -3.96716177E-03   3.71439761E-11   4.77552780E-03   4.58756384E-02   1.45874421E-02   1.10063452E-03   3.43091683E-20   2.01074855E-07   9.04836846E-06   5.51112540E-01   6.83654506E-05   1.18591747E-02   1.20574058E-10   4.76486551E-01   2.81504797E-02   1.80927030E-08   4.02149709E-04   1.70913626E-06   3.92095967E-05   2.09435971E-03
   3.76250000E+02   5.00000000E-01   5.00000000E-01  -3.92117831E-03   3.94598039E-11   4.77792862E-03   4.56345616E-02   1.47920662E-02   1.15178264E-03   3.87275827E-20   2.01175942E-07   9.05291739E-06   5.51389603E-01   6.83998203E-05   1.18603442E-02   1.21590142E-10   4.76715421E-01   2.81646319E-02   1.81016065E-08   4.02351884E-04   1.70999551E-06   3.92293087E-05   2.17465027E-03
   3.93750000E+02   5.00000000E-01   5.00000000E-01  -3.87307018E-03   4.19230026E-11   4.78041802E-03   4.53928208E-02   1.49972011E-02   1.20273623E-03   4.36544395E-20   2.01280759E-07   9.05763414E-06   5.51676888E-01   6.84354580E-05   1.18622033E-02   1.22609534E-10   4.76953441E-01   2.81793062E-02   1.81108453E-08   4.02561517E-04   1.71088645E-06   3.92497480E-05   2.25686182E-03
   4.11250000E+02   5.00000000E-01   5.00000000E-01  -3.82284103E-03   4.45397201E-11   4.78299440E-03   4.51504073E-02   1.52028513E-02   1.25348529E-03   4.91374784E-20   2.01389238E-07   9.06251570E-06   5.51974211E-01   6.84723408E-05   1.18647098E-02   1.23632246E-10   4.77200480E-01   2.81944933E-02   1.81204134E-08   4.02778476E-04   1.71180852E-06   3.92709014E-05   2.34098262E-03
   4.28750000E+02   5.00000000E-01   5.00000000E-01  -3.77051062E-03   4.73137938E-11   4.78565626E-03   4.49073188E-02   1.54090215E-02   1.30401967E-03   5.52261966E-20   2.01501316E-07   9.06755924E-06   5.52281400E-01   6.85104476E-05   1.18678228E-02   1.24658290E-10   4.77456427E-01   2.82101843E-02   1.81303052E-08   4.03002633E-04   1.71276119E-06   3.92927567E-05   2.42702820E-03
   4.46250000E+02   5.00000000E-01   5.00000000E-01  -3.71611534E-03   5.02464881E-11   4.78840223E-03   4.46635593E-02   1.56157166E-02   1.35432891E-03   6.19713863E-20   2.01616936E-07   9.07276212E-06   5.52598294E-01   6.85497582E-05   1.18715034E-02   1.25687681E-10   4.77721182E-01   2.82263710E-02   1.81405153E-08   4.03233872E-04   1.71374396E-06   3.93153025E-05   2.51504104E-03
   4.63750000E+02   5.00000000E-01   5.00000000E-01  -3.65970676E-03   5.33367117E-11   4.79123099E-03   4.44191391E-02   1.58229421E-02   1.40440198E-03   6.94249592E-20   2.01736042E-07   9.07812188E-06   5.52924743E-01   6.85902542E-05   1.18757151E-02   1.26720435E-10   4.77994659E-01   2.82430459E-02   1.81510389E-08   4.03472084E-04   1.71475636E-06   3.93385282E-05   2.60508770E-03
   4.81250000E+02   5.00000000E-01   5.00000000E-01  -3.60134976E-03   5.65813917E-11   4.79414134E-03   4.41740748E-02   1.60307038E-02   1.45422712E-03   7.76398963E-20   2.01858583E-07   9.08363623E-06   5.53260608E-01   6.86319182E-05   1.18804238E-02   1.27756569E-10   4.78276780E-01   2.82602016E-02   1.81618712E-08   4.03717166E-04   1.71579795E-06   3.93624237E-05   2.69725462E-03
   4.98750000E+02   5.00000000E-01   5.00000000E-01  -3.54135641E-03   5.99045561E-11   4.79713214E-03   4.39284832E-02   1.62390080E-02   1.50378656E-03   8.66070682E-20   2.01984511E-07   9.08930301E-06   5.53605757E-01   6.86747339E-05   1.18856001E-02   1.28796102E-10   4.78567533E-01   2.82778316E-02   1.81730082E-08   4.03969023E-04   1.71686835E-06   3.93869797E-05   2.79193698E-03
   5.16250000E+02   5.00000000E-01   5.00000000E-01  -3.47960564E-03   6.33545753E-11   4.80020234E-03   4.36822973E-02   1.64478614E-02   1.55306547E-03   9.64264361E-20   2.02113783E-07   9.09512023E-06   5.53960068E-01   6.87186861E-05   1.18912122E-02   1.29839052E-10   4.78866845E-01   2.82959296E-02   1.81844456E-08   4.04227566E-04   1.71796715E-06   3.94121876E-05   2.88910334E-03
   5.33750000E+02   5.00000000E-01   5.00000000E-01  -3.41615446E-03   6.69363626E-11   4.80335095E-03   4.34355368E-02   1.66572712E-02   1.60204874E-03   1.07163248E-19   2.02246356E-07   9.10108601E-06   5.54323428E-01   6.87637609E-05   1.18972325E-02   1.30885441E-10   4.79174650E-01   2.83144898E-02   1.81961798E-08   4.04492711E-04   1.71909402E-06   3.94380394E-05   2.98882379E-03
   5.51250000E+02   5.00000000E-01   5.00000000E-01  -3.35112376E-03   7.06376343E-11   4.80657704E-03   4.31882514E-02   1.68672445E-02   1.65071979E-03   1.18868482E-19   2.02382191E-07   9.10719861E-06   5.54695731E-01   6.88099450E-05   1.19036369E-02   1.31935289E-10   4.79490895E-01   2.83335068E-02   1.82082073E-08   4.04764382E-04   1.72024863E-06   3.94645273E-05   3.09122340E-03
   5.68750000E+02   5.00000000E-01   5.00000000E-01  -3.28463596E-03   7.44465353E-11   4.80987977E-03   4.29404931E-02   1.70777888E-02   1.69906057E-03   1.31594488E-19   2.02521253E-07   9.11345640E-06   5.55076877E-01   6.88572261E-05   1.19104032E-02   1.32988620E-10   4.79815535E-01   2.83529755E-02   1.82205248E-08   4.05042507E-04   1.72143065E-06   3.94916444E-05   3.19643328E-03
   5.86250000E+02   5.00000000E-01   5.00000000E-01  -3.21680778E-03   7.83545211E-11   4.81325833E-03   4.26923136E-02   1.72889116E-02   1.74705185E-03   1.45398053E-19   2.02663508E-07   9.11985788E-06   5.55466774E-01   6.89055929E-05   1.19175114E-02   1.34045456E-10   4.80148524E-01   2.83728912E-02   1.82331292E-08   4.05327017E-04   1.72263982E-06   3.95193842E-05   3.30457727E-03
   6.03750000E+02   5.00000000E-01   5.00000000E-01  -3.14775079E-03   8.23568386E-11   4.81671197E-03   4.24437651E-02   1.75006201E-02   1.79467360E-03   1.60341511E-19   2.02808925E-07   9.12640163E-06   5.55865337E-01   6.89550346E-05   1.19249433E-02   1.35105823E-10   4.80489818E-01   2.83932495E-02   1.82460179E-08   4.05617850E-04   1.72387586E-06   3.95477404E-05   3.41576660E-03
   6.21250000E+02   5.00000000E-01   5.00000000E-01  -3.07757332E-03   8.64524594E-11   4.82024002E-03   4.21949018E-02   1.77129214E-02   1.84190530E-03   1.76493423E-19   2.02957474E-07   9.13308635E-06   5.56272486E-01   6.90055413E-05   1.19326823E-02   1.36169746E-10   4.80839373E-01   2.84140464E-02   1.82591880E-08   4.05914949E-04   1.72513853E-06   3.95767075E-05   3.53009782E-03
   6.38750000E+02   5.00000000E-01   5.00000000E-01  -3.00638324E-03   9.06434732E-11   4.82384182E-03   4.19457806E-02   1.79258225E-02   1.88872626E-03   1.93928631E-19   2.03109129E-07   9.13991082E-06   5.56688146E-01   6.90571040E-05   1.19407138E-02   1.37237251E-10   4.81197143E-01   2.84352781E-02   1.82726373E-08   4.06218259E-04   1.72642760E-06   3.96062802E-05   3.64765358E-03
   6.56250000E+02   5.00000000E-01   5.00000000E-01  -2.93429150E-03   9.49339748E-11   4.82751678E-03   4.16964623E-02   1.81393299E-02   1.93511592E-03   2.12727519E-19   2.03263865E-07   9.14687391E-06   5.57112250E-01   6.91097140E-05   1.19490242E-02   1.38308364E-10   4.81563084E-01   2.84569411E-02   1.82863633E-08   4.06527729E-04   1.72774285E-06   3.96364536E-05   3.76850594E-03
   6.73750000E+02   5.00000000E-01   5.00000000E-01  -2.86141501E-03   9.93288469E-11   4.83126436E-03   4.14470127E-02   1.83534501E-02   1.98105393E-03   2.32974831E-19   2.03421657E-07   9.15397457E-06   5.57544733E-01   6.91633634E-05   1.19576015E-02   1.39383115E-10   4.81937151E-01   2.84790320E-02   1.83003641E-08   4.06843314E-04   1.72908409E-06   3.96672232E-05   3.89272045E-03
   6.91250000E+02   5.00000000E-01   5.00000000E-01  -2.78787968E-03   1.03832182E-10   4.83508403E-03   4.11975031E-02   1.85681896E-02   2.02652020E-03   2.54757530E-19   2.03582486E-07   9.16121185E-06   5.57985537E-01   6.92180451E-05   1.19664351E-02   1.40461531E-10   4.82319300E-01   2.85015480E-02   1.83146377E-08   4.07164971E-04   1.73045113E-06   3.96985847E-05   4.02036145E-03
   7.08750000E+02   5.00000000E-01   5.00000000E-01  -2.71382053E-03   1.08446523E-10   4.83897534E-03   4.09480099E-02   1.87835545E-02   2.07149486E-03   2.78163419E-19   2.03746330E-07   9.16858486E-06   5.58434607E-01   6.92737523E-05   1.19755153E-02   1.41543642E-10   4.82709490E-01   2.85244862E-02   1.83291823E-08   4.07492660E-04   1.73184381E-06   3.97305344E-05   4.15149523E-03
   7.26250000E+02   5.00000000E-01   5.00000000E-01  -2.63938100E-03   1.13172314E-10   4.84293785E-03   4.06986140E-02   1.89995514E-02   2.11595814E-03   3.03279750E-19   2.03913173E-07   9.17609277E-06   5.58891895E-01   6.93304787E-05   1.19848335E-02   1.42629478E-10   4.83107683E-01   2.85478442E-02   1.83439962E-08   4.07826345E-04   1.73326197E-06   3.97630687E-05   4.28619231E-03
   7.43750000E+02   5.00000000E-01   5.00000000E-01  -2.56471158E-03   1.18007547E-10   4.84697116E-03   4.04494001E-02   1.92161867E-02   2.15989023E-03   3.30191885E-19   2.04082996E-07   9.18373483E-06   5.59357353E-01   6.93882188E-05   1.19943822E-02   1.43719070E-10   4.83513845E-01   2.85716195E-02   1.83590780E-08   4.08165993E-04   1.73470547E-06   3.97961843E-05   4.42452873E-03
   7.61250000E+02   5.00000000E-01   5.00000000E-01  -2.48996780E-03   1.22947630E-10   4.85107492E-03   4.02004549E-02   1.94334670E-02   2.20327115E-03   3.58982134E-19   2.04255786E-07   9.19151037E-06   5.59830941E-01   6.94469673E-05   1.20041546E-02   1.44812450E-10   4.83927945E-01   2.85958101E-02   1.83744263E-08   4.08511572E-04   1.73617418E-06   3.98298783E-05   4.56658647E-03
   7.78750000E+02   5.00000000E-01   5.00000000E-01  -2.41530780E-03   1.27985513E-10   4.85524879E-03   3.99518666E-02   1.96513992E-02   2.24608057E-03   3.89728902E-19   2.04431528E-07   9.19941876E-06   5.60312620E-01   6.95067195E-05   1.20141446E-02   1.45909649E-10   4.84349956E-01   2.86204139E-02   1.83900398E-08   4.08863056E-04   1.73766799E-06   3.98641479E-05   4.71245290E-03
   7.96250000E+02   5.00000000E-01   5.00000000E-01  -2.34088935E-03   1.33112118E-10   4.85949247E-03   3.97037234E-02   1.98699901E-02   2.28829776E-03   4.22506425E-19   2.04610209E-07   9.20745942E-06   5.60802356E-01   6.95674712E-05   1.20243470E-02   1.47010701E-10   4.84779854E-01   2.86454293E-02   1.84059174E-08   4.09220419E-04   1.73918678E-06   3.98989908E-05   4.86221930E-03
   8.13750000E+02   5.00000000E-01   5.00000000E-01  -2.26686674E-03   1.38317105E-10   4.86380570E-03   3.94561116E-02   2.00892471E-02   2.32990149E-03   4.57385273E-19   2.04791819E-07   9.21563186E-06   5.61300117E-01   6.96292185E-05   1.20347568E-02   1.48115640E-10   4.85217620E-01   2.86708547E-02   1.84220581E-08   4.09583638E-04   1.74073046E-06   3.99344047E-05   5.01597855E-03
   8.31250000E+02   5.00000000E-01   5.00000000E-01  -2.19338764E-03   1.43589853E-10   4.86818824E-03   3.92091148E-02   2.03091774E-02   2.37087017E-03   4.94433642E-19   2.04976347E-07   9.22393561E-06   5.61805877E-01   6.96919579E-05   1.20453698E-02   1.49224499E-10   4.85663236E-01   2.86966886E-02   1.84384608E-08   4.09952694E-04   1.74229895E-06   3.99703876E-05   5.17382237E-03
   8.48750000E+02   5.00000000E-01   5.00000000E-01  -2.12059026E-03   1.48920630E-10   4.87263986E-03   3.89628122E-02   2.05297885E-02   2.41118199E-03   5.33719485E-19   2.05163784E-07   9.23237027E-06   5.62319610E-01   6.97556865E-05   1.20561823E-02   1.50337314E-10   4.86116687E-01   2.87229297E-02   1.84551249E-08   4.10327568E-04   1.74389216E-06   4.00069378E-05   5.33583809E-03
   8.66250000E+02   5.00000000E-01   5.00000000E-01  -2.04860087E-03   1.54301944E-10   4.87716040E-03   3.87172776E-02   2.07510881E-02   2.45081526E-03   5.75313678E-19   2.05354122E-07   9.24093549E-06   5.62841295E-01   6.98204014E-05   1.20671909E-02   1.51454120E-10   4.86577960E-01   2.87495771E-02   1.84720496E-08   4.10708244E-04   1.74551004E-06   4.00440538E-05   5.50210537E-03
   8.83750000E+02   5.00000000E-01   5.00000000E-01  -1.97764165E-03   1.59662117E-10   4.88174967E-03   3.84726312E-02   2.09730829E-02   2.48974222E-03   6.19123653E-19   2.05547354E-07   9.24963095E-06   5.63370913E-01   6.98861005E-05   1.20783925E-02   1.52574954E-10   4.87047060E-01   2.87766296E-02   1.84892342E-08   4.11094709E-04   1.74715251E-06   4.00817341E-05   5.67280436E-03
   9.01250000E+02   5.00000000E-01   5.00000000E-01  -1.90767292E-03   1.65079074E-10   4.88640754E-03   3.82288692E-02   2.11957808E-02   2.52794402E-03   6.65425497E-19   2.05743475E-07   9.25845639E-06   5.63908448E-01   6.99527816E-05   1.20897843E-02   1.53699852E-10   4.87523963E-01   2.88040865E-02   1.85066783E-08   4.11486951E-04   1.74881954E-06   4.01199777E-05   5.84788741E-03
   9.18750000E+02   5.00000000E-01   5.00000000E-01  -1.83875771E-03   1.70575834E-10   4.89113389E-03   3.79860343E-02   2.14191893E-02   2.56540537E-03   7.14368156E-19   2.05942480E-07   9.26741159E-06   5.64453886E-01   7.00204431E-05   1.21013638E-02   1.54828852E-10   4.88008649E-01   2.88319471E-02   1.85243814E-08   4.11884959E-04   1.75051108E-06   4.01587835E-05   6.02736419E-03
   9.36250000E+02   5.00000000E-01   5.00000000E-01  -1.77099380E-03   1.76149595E-10   4.89592864E-03   3.77441841E-02   2.16433156E-02   2.60211217E-03   7.66037113E-19   2.06144364E-07   9.27649637E-06   5.65007216E-01   7.00890837E-05   1.21131289E-02   1.55961992E-10   4.88501105E-01   2.88602108E-02   1.85423431E-08   4.12288727E-04   1.75222709E-06   4.01981509E-05   6.21127048E-03
   9.53750000E+02   5.00000000E-01   5.00000000E-01  -1.70445685E-03   1.81806662E-10   4.90079170E-03   3.75033640E-02   2.18681670E-02   2.63805257E-03   8.20544434E-19   2.06349124E-07   9.28571059E-06   5.65568430E-01   7.01587022E-05   1.21250777E-02   1.57099311E-10   4.89001317E-01   2.88888772E-02   1.85605631E-08   4.12698248E-04   1.75396756E-06   4.02380792E-05   6.39962504E-03
   9.71250000E+02   5.00000000E-01   5.00000000E-01  -1.63920245E-03   1.87563622E-10   4.90572302E-03   3.72636079E-02   2.20937503E-02   2.67321823E-03   8.78035639E-19   2.06556759E-07   9.29505415E-06   5.66137522E-01   7.02292980E-05   1.21372083E-02   1.58240849E-10   4.89509271E-01   2.89179458E-02   1.85790412E-08   4.13113518E-04   1.75573245E-06   4.02785680E-05   6.59242687E-03
   9.88750000E+02   5.00000000E-01   5.00000000E-01  -1.57527582E-03   1.93442066E-10   4.91072257E-03   3.70249418E-02   2.23200725E-02   2.70760495E-03   9.38677965E-19   2.06767266E-07   9.30452698E-06   5.66714488E-01   7.03008705E-05   1.21495194E-02   1.59386644E-10   4.90024951E-01   2.89474165E-02   1.85977773E-08   4.13534532E-04   1.75752176E-06   4.03196169E-05   6.78966078E-03
   1.00625000E+03   5.00000000E-01   5.00000000E-01  -1.51271862E-03   1.99463673E-10   4.91579034E-03   3.67873870E-02   2.25471401E-02   2.74121278E-03   1.00264686E-18   2.06980646E-07   9.31412906E-06   5.67299325E-01   7.03734196E-05   1.21620096E-02   1.60536738E-10   4.90548343E-01   2.89772890E-02   1.86167713E-08   4.13961292E-04   1.75933549E-06   4.03612259E-05   6.99130331E-03
   1.02375000E+03   5.00000000E-01   5.00000000E-01  -1.45157223E-03   2.05646828E-10   4.92092632E-03   3.65509608E-02   2.27749600E-02   2.77404569E-03   1.07011458E-18   2.07196898E-07   9.32386040E-06   5.67892036E-01   7.04469452E-05   1.21746776E-02   1.61691172E-10   4.91079434E-01   2.90075632E-02   1.86360233E-08   4.14393795E-04   1.76117363E-06   4.04033951E-05   7.19732721E-03
   1.04125000E+03   5.00000000E-01   5.00000000E-01  -1.39188040E-03   2.12002787E-10   4.92613054E-03   3.63156788E-02   2.30035385E-02   2.80611088E-03   1.14123474E-18   2.07416023E-07   9.33372103E-06   5.68492621E-01   7.05214478E-05   1.21875226E-02   1.62849988E-10   4.91618211E-01   2.90382388E-02   1.86555332E-08   4.14832046E-04   1.76303619E-06   4.04461245E-05   7.40770658E-03
   1.05875000E+03   5.00000000E-01   5.00000000E-01  -1.33368695E-03   2.18535668E-10   4.93140304E-03   3.60815538E-02   2.32328820E-02   2.83741798E-03   1.21613828E-18   2.07638023E-07   9.34371102E-06   5.69101086E-01   7.05969277E-05   1.22005436E-02   1.64013227E-10   4.92164666E-01   2.90693157E-02   1.86753012E-08   4.15276046E-04   1.76492319E-06   4.04894144E-05   7.62241786E-03
   1.07625000E+03   5.00000000E-01   5.00000000E-01  -1.27703408E-03   2.25242032E-10   4.93674387E-03   3.58485956E-02   2.34629966E-02   2.86797820E-03   1.29492752E-18   2.07862900E-07   9.35383049E-06   5.69717436E-01   7.06733859E-05   1.22137399E-02   1.65180935E-10   4.92718792E-01   2.91007931E-02   1.86953276E-08   4.15725800E-04   1.76683465E-06   4.05332655E-05   7.84144092E-03
   1.09375000E+03   5.00000000E-01   5.00000000E-01  -1.22196033E-03   2.32111253E-10   4.94215311E-03   3.56168104E-02   2.36938880E-02   2.89780358E-03   1.37767287E-18   2.08090657E-07   9.36407957E-06   5.70341681E-01   7.07508234E-05   1.22271111E-02   1.66353152E-10   4.93280587E-01   2.91326702E-02   1.87156126E-08   4.16181314E-04   1.76877059E-06   4.05776781E-05   8.06475923E-03
   1.11125000E+03   5.00000000E-01   5.00000000E-01  -1.16849813E-03   2.39126740E-10   4.94763083E-03   3.53862009E-02   2.39255608E-02   2.92690635E-03   1.46441310E-18   2.08321298E-07   9.37445841E-06   5.70973829E-01   7.08292414E-05   1.22406566E-02   1.67529926E-10   4.93850052E-01   2.91649450E-02   1.87361565E-08   4.16642596E-04   1.77073103E-06   4.06226531E-05   8.29235903E-03
   1.12875000E+03   5.00000000E-01   5.00000000E-01  -1.11667117E-03   2.46268269E-10   4.95317715E-03   3.51567647E-02   2.41580180E-02   2.95529857E-03   1.55516098E-18   2.08554827E-07   9.38496723E-06   5.71613893E-01   7.09086413E-05   1.22543761E-02   1.68711298E-10   4.94427189E-01   2.91976140E-02   1.87569597E-08   4.17109654E-04   1.77271603E-06   4.06681913E-05   8.52422738E-03
   1.14625000E+03   5.00000000E-01   5.00000000E-01  -1.06649220E-03   2.53515072E-10   4.95879217E-03   3.49284938E-02   2.43912600E-02   2.98299214E-03   1.64991387E-18   2.08791249E-07   9.39560622E-06   5.72261887E-01   7.09890248E-05   1.22682695E-02   1.69897317E-10   4.95012003E-01   2.92306712E-02   1.87780227E-08   4.17582499E-04   1.77472562E-06   4.07142936E-05   8.76034955E-03
   1.16375000E+03   5.00000000E-01   5.00000000E-01  -1.01796163E-03   2.60849023E-10   4.96447604E-03   3.47013743E-02   2.46252828E-02   3.00999914E-03   1.74866675E-18   2.09030570E-07   9.40637566E-06   5.72917825E-01   7.10703939E-05   1.22823365E-02   1.71088027E-10   4.95604504E-01   2.92641063E-02   1.87993458E-08   4.18061140E-04   1.77675985E-06   4.07609612E-05   9.00070616E-03
   1.18125000E+03   5.00000000E-01   5.00000000E-01  -9.71067208E-04   2.68257599E-10   4.97022890E-03   3.44753853E-02   2.48600743E-02   3.03633245E-03   1.85142678E-18   2.09272796E-07   9.41727580E-06   5.73581725E-01   7.11527505E-05   1.22965771E-02   1.72283475E-10   4.96204698E-01   2.92979011E-02   1.88209297E-08   4.18545591E-04   1.77881876E-06   4.08081951E-05   9.24527059E-03
   1.19875000E+03   5.00000000E-01   5.00000000E-01  -9.25784231E-04   2.75736751E-10   4.97605090E-03   3.42504988E-02   2.50956097E-02   3.06200672E-03   1.95822966E-18   2.09517933E-07   9.42830696E-06   5.74253604E-01   7.12360971E-05   1.23109915E-02   1.73483709E-10   4.96812594E-01   2.93320250E-02   1.88427750E-08   4.19035865E-04   1.78090243E-06   4.08559968E-05   9.49400639E-03
   1.21625000E+03   5.00000000E-01   5.00000000E-01  -8.82076394E-04   2.83293522E-10   4.98194222E-03   3.40266795E-02   2.53318422E-02   3.08703946E-03   2.06915713E-18   2.09765988E-07   9.43946947E-06   5.74933483E-01   7.13204360E-05   1.23255797E-02   1.74688777E-10   4.97428201E-01   2.93664258E-02   1.88648822E-08   4.19531976E-04   1.78301090E-06   4.09043677E-05   9.74686495E-03
   1.23375000E+03   5.00000000E-01   5.00000000E-01  -8.39897318E-04   2.90947803E-10   4.98790305E-03   3.38038845E-02   2.55686882E-02   3.11145229E-03   2.18435226E-18   2.10016970E-07   9.45076367E-06   5.75621383E-01   7.14057699E-05   1.23403420E-02   1.75898727E-10   4.98051525E-01   2.94010146E-02   1.88872522E-08   4.20033941E-04   1.78514425E-06   4.09533092E-05   1.00037838E-02
   1.25125000E+03   5.00000000E-01   5.00000000E-01  -7.99192543E-04   2.98733214E-10   4.99393358E-03   3.35820633E-02   2.58060009E-02   3.13527213E-03   2.30403182E-18   2.10270888E-07   9.46218994E-06   5.76317328E-01   7.14921018E-05   1.23552786E-02   1.77113609E-10   4.98682573E-01   2.94356399E-02   1.89098856E-08   4.20541775E-04   1.78730254E-06   4.10028231E-05   1.02646855E-02
   1.26875000E+03   5.00000000E-01   5.00000000E-01  -7.59901942E-04   3.06696725E-10   5.00003403E-03   3.33611584E-02   2.60435264E-02   3.15853233E-03   2.42849269E-18   2.10527749E-07   9.47374869E-06   5.77021341E-01   7.15794346E-05   1.23703899E-02   1.78333472E-10   4.99321348E-01   2.94700437E-02   1.89327833E-08   4.21055497E-04   1.78948586E-06   4.10529110E-05   1.05294779E-02
   1.28625000E+03   5.00000000E-01   5.00000000E-01  -7.21961113E-04   3.14899607E-10   5.00620463E-03   3.31411048E-02   2.62808272E-02   3.18127357E-03   2.55812518E-18   2.10787563E-07   9.48544035E-06   5.77733449E-01   7.16677715E-05   1.23856762E-02   1.79558366E-10   4.99967853E-01   2.95037844E-02   1.89559460E-08   4.21575126E-04   1.79169429E-06   4.11035748E-05   1.07980528E-02
   1.30375000E+03   5.00000000E-01   5.00000000E-01  -6.85303682E-04   3.23416172E-10   5.01244560E-03   3.29218305E-02   2.65171498E-02   3.20354454E-03   2.69341429E-18   2.11050341E-07   9.49726535E-06   5.78453679E-01   7.17571160E-05   1.24011380E-02   1.80788345E-10   5.00622089E-01   2.95361054E-02   1.89793747E-08   4.22100682E-04   1.79392790E-06   4.11548165E-05   1.10702880E-02