 TITLE = "Total Concentrations" 
VARIABLES = "X"          "Y"              "Z"            "H+"             "Al+++"          "CO2(aq)"        "Mg++"           "Ca++"           "Fe++"           "Fe+++"          "Ba++"           "Sr++"           "Cl-"            "F-"             "K+"             "HS-"            "Na+"            "SO4--"          "O2(aq)"         "B(OH)3(aq)"     "HPO4--"         "NO3-"           "H4SiO4(aq)"    
 ZONE I=         200 , J=           1 , K=           1  F=POINT
   8.75000000E+00   5.00000000E-01   5.00000000E-01  -4.69205348E-03   6.71359880E-13   4.74997155E-03   5.08059573E-02   1.05976916E-02   5.29832750E-05   1.25970104E-22   1.99998802E-07   8.99994609E-06   5.48163260E-01   6.79995927E-05   1.19954329E-02   1.00955817E-10   4.74038280E-01   2.79998323E-02   1.79996995E-08   3.99997604E-04   1.69998982E-06   3.89997664E-05   4.19768628E-04
   2.62500000E+01   5.00000000E-01   5.00000000E-01  -4.60107437E-03   3.32232546E-12   4.74999810E-03   5.04961247E-02   1.07955672E-02   1.05949143E-04   6.62654929E-22   1.99999920E-07   8.99999641E-06   5.48166324E-01   6.79999729E-05   1.19871383E-02   1.01912917E-10   4.74076956E-01   2.79999888E-02   1.79996073E-08   3.99999840E-04   1.69999932E-06   3.89999844E-05   6.21552553E-04
   4.37500000E+01   5.00000000E-01   5.00000000E-01  -4.54832311E-03   5.70961750E-12   4.75018787E-03   5.02120732E-02   1.09938673E-02   1.58898391E-04   1.37996894E-21   2.00007910E-07   9.00035596E-06   5.48188224E-01   6.80026895E-05   1.19792630E-02   1.02873669E-10   4.74121824E-01   2.80011074E-02   1.80001336E-08   4.00015821E-04   1.70006724E-06   3.90015425E-05   8.07264780E-04
   6.12500000E+01   5.00000000E-01   5.00000000E-01  -4.51151734E-03   7.45763288E-12   4.75053372E-03   4.99440618E-02   1.11925918E-02   2.11821669E-04   2.12771294E-21   2.00022473E-07   9.00101126E-06   5.48228136E-01   6.80076407E-05   1.19701841E-02   1.03838011E-10   4.74170822E-01   2.80031462E-02   1.80012514E-08   4.00044945E-04   1.70019102E-06   3.90043821E-05   9.57247881E-04
   7.87500000E+01   5.00000000E-01   5.00000000E-01  -4.48038055E-03   9.13082863E-12   4.75102913E-03   4.96863639E-02   1.13917495E-02   2.64716084E-04   2.93120145E-21   2.00043332E-07   9.00194993E-06   5.48285308E-01   6.80147328E-05   1.19596905E-02   1.04805889E-10   4.74224492E-01   2.80060664E-02   1.80029358E-08   4.00086663E-04   1.70036832E-06   3.90084497E-05   1.07022922E-03
   9.62500000E+01   5.00000000E-01   5.00000000E-01  -4.45246720E-03   1.07921390E-11   4.75166807E-03   4.94360810E-02   1.15913472E-02   3.17578005E-04   3.78307278E-21   2.00070234E-07   9.00316055E-06   5.48359044E-01   6.80238797E-05   1.19483788E-02   1.05777255E-10   4.74284817E-01   2.80098328E-02   1.80051640E-08   4.00140469E-04   1.70059699E-06   3.90136957E-05   1.15563860E-03
   1.13750000E+02   5.00000000E-01   5.00000000E-01  -4.42666659E-03   1.23844591E-11   4.75244499E-03   4.91908679E-02   1.17913899E-02   3.70401240E-04   4.67360078E-21   2.00102947E-07   9.00463261E-06   5.48448703E-01   6.80350020E-05   1.19369282E-02   1.06752071E-10   4.74353996E-01   2.80144126E-02   1.80079149E-08   4.00205894E-04   1.70087505E-06   3.90200747E-05   1.22431856E-03
   1.31250000E+02   5.00000000E-01   5.00000000E-01  -4.40194348E-03   1.38838740E-11   4.75335479E-03   4.89488196E-02   1.19918817E-02   4.23177545E-04   5.61077732E-21   2.00141254E-07   9.00635643E-06   5.48553697E-01   6.80480264E-05   1.19258421E-02   1.07730300E-10   4.74433657E-01   2.80197756E-02   1.80111693E-08   4.00282508E-04   1.70120066E-06   3.90275446E-05   1.28455479E-03
   1.48750000E+02   5.00000000E-01   5.00000000E-01  -4.37744493E-03   1.52954437E-11   4.75439272E-03   4.87085907E-02   1.21928261E-02   4.75897189E-04   6.61310324E-21   2.00184957E-07   9.00832306E-06   5.48673479E-01   6.80628853E-05   1.19154388E-02   1.08711916E-10   4.74524730E-01   2.80258940E-02   1.80149091E-08   4.00369914E-04   1.70157213E-06   3.90360666E-05   1.34167759E-03
   1.66250000E+02   5.00000000E-01   5.00000000E-01  -4.35249837E-03   1.66474995E-11   4.75555443E-03   4.84693002E-02   1.23942270E-02   5.28549581E-04   7.70506606E-21   2.00233871E-07   9.01052419E-06   5.48807544E-01   6.80795161E-05   1.19058932E-02   1.09696894E-10   4.74627587E-01   2.80327419E-02   1.80191178E-08   4.00467742E-04   1.70198790E-06   3.90456048E-05   1.39867229E-03
   1.83750000E+02   5.00000000E-01   5.00000000E-01  -4.32657841E-03   1.79836861E-11   4.75683587E-03   4.82303948E-02   1.25960881E-02   5.81123972E-04   8.91499646E-21   2.00287826E-07   9.01295217E-06   5.48955426E-01   6.80978608E-05   1.18972836E-02   1.10685217E-10   4.74742231E-01   2.80402956E-02   1.80237800E-08   4.00575652E-04   1.70244652E-06   3.90561261E-05   1.45694500E-03
   2.01250000E+02   5.00000000E-01   5.00000000E-01  -4.29939477E-03   1.93288921E-11   4.75823327E-03   4.79915648E-02   1.27984140E-02   6.33609234E-04   1.02664662E-20   2.00346664E-07   9.01559988E-06   5.49116691E-01   6.81178658E-05   1.18896462E-02   1.11676872E-10   4.74868489E-01   2.80485330E-02   1.80288815E-08   4.00693328E-04   1.70294664E-06   3.90675995E-05   1.51720171E-03
   2.18750000E+02   5.00000000E-01   5.00000000E-01  -4.27080267E-03   2.06918577E-11   4.75974317E-03   4.77526315E-02   1.30012103E-02   6.85993496E-04   1.17789635E-20   2.00410239E-07   9.01846074E-06   5.49290938E-01   6.81394811E-05   1.18829963E-02   1.12671850E-10   4.75006130E-01   2.80574334E-02   1.80344091E-08   4.00820477E-04   1.70348703E-06   3.90799965E-05   1.57985058E-03
   2.36250000E+02   5.00000000E-01   5.00000000E-01  -4.24063012E-03   2.20942138E-11   4.76136232E-03   4.75134530E-02   1.32044835E-02   7.38264738E-04   1.34774272E-20   2.00478413E-07   9.02152861E-06   5.49477794E-01   6.81626606E-05   1.18773261E-02   1.13670145E-10   4.75154872E-01   2.80669779E-02   1.80403505E-08   4.00956827E-04   1.70406651E-06   3.90932906E-05   1.64497239E-03
   2.53750000E+02   5.00000000E-01   5.00000000E-01  -4.20881276E-03   2.35402022E-11   4.76308773E-03   4.72739522E-02   1.34082410E-02   7.90410210E-04   1.53823888E-20   2.00551062E-07   9.02479780E-06   5.49676912E-01   6.81873611E-05   1.18726225E-02   1.14671759E-10   4.75314447E-01   2.80771487E-02   1.80466944E-08   4.01102124E-04   1.70468403E-06   3.91074571E-05   1.71264231E-03
   2.71250000E+02   5.00000000E-01   5.00000000E-01  -4.17529951E-03   2.50325943E-11   4.76491659E-03   4.70340665E-02   1.36124909E-02   8.42416373E-04   1.75153262E-20   2.00628067E-07   9.02826302E-06   5.49887970E-01   6.82135428E-05   1.18688653E-02   1.15676693E-10   4.75484604E-01   2.80879294E-02   1.80534300E-08   4.01256134E-04   1.70533857E-06   3.91224731E-05   1.78290671E-03
   2.88750000E+02   5.00000000E-01   5.00000000E-01  -4.14003028E-03   2.65772051E-11   4.76684632E-03   4.67937378E-02   1.38172414E-02   8.94269098E-04   1.99006346E-20   2.00709319E-07   9.03191935E-06   5.50110667E-01   6.82411684E-05   1.18660271E-02   1.16684954E-10   4.75665109E-01   2.80993046E-02   1.80605476E-08   4.01418638E-04   1.70602921E-06   3.91383172E-05   1.85576929E-03
   3.06250000E+02   5.00000000E-01   5.00000000E-01  -4.10293570E-03   2.81833162E-11   4.76887449E-03   4.65529117E-02   1.40225006E-02   9.45953953E-04   2.25662988E-20   2.00794715E-07   9.03576219E-06   5.50344724E-01   6.82702032E-05   1.18640748E-02   1.17696551E-10   4.75855739E-01   2.81112601E-02   1.80680380E-08   4.01589430E-04   1.70675508E-06   3.91549695E-05   1.93119127E-03
   3.23750000E+02   5.00000000E-01   5.00000000E-01  -4.06394213E-03   2.98629481E-11   4.77099883E-03   4.63115388E-02   1.42282763E-02   9.97456519E-04   2.55441205E-20   2.00884161E-07   9.03978726E-06   5.50589882E-01   6.83006149E-05   1.18629705E-02   1.18711498E-10   4.76056282E-01   2.81237826E-02   1.80758926E-08   4.01768323E-04   1.70751537E-06   3.91724115E-05   2.00909930E-03
   3.41250000E+02   5.00000000E-01   5.00000000E-01  -4.02297859E-03   3.16295547E-11   4.77321726E-03   4.60695762E-02   1.44345760E-02   1.04876265E-03   2.88695772E-20   2.00977569E-07   9.04399059E-06   5.50845895E-01   6.83323734E-05   1.18626736E-02   1.19729809E-10   4.76266540E-01   2.81368596E-02   1.80841035E-08   4.01955138E-04   1.70830933E-06   3.91906259E-05   2.08939896E-03
   3.58750000E+02   5.00000000E-01   5.00000000E-01  -3.97998915E-03   3.34953263E-11   4.77552780E-03   4.58269908E-02   1.46414071E-02   1.09985856E-03   3.25806827E-20   2.01074855E-07   9.04836846E-06   5.51112540E-01   6.83654506E-05   1.18631418E-02   1.20751500E-10   4.76486328E-01   2.81504797E-02   1.80926630E-08   4.02149709E-04   1.70913626E-06   3.92095967E-05   2.17199863E-03
   3.76250000E+02   5.00000000E-01   5.00000000E-01  -3.93493406E-03   3.54707565E-11   4.77792862E-03   4.55837573E-02   1.48487771E-02   1.15073077E-03   3.67177758E-20   2.01175942E-07   9.05291739E-06   5.51389603E-01   6.83998203E-05   1.18643326E-02   1.21776593E-10   4.76715479E-01   2.81646319E-02   1.81015645E-08   4.02351884E-04   1.70999551E-06   3.92293087E-05   2.25682087E-03
   3.93750000E+02   5.00000000E-01   5.00000000E-01  -3.88779459E-03   3.75633966E-11   4.78041802E-03   4.53398598E-02   1.50566938E-02   1.20136599E-03   4.13226298E-20   2.01280759E-07   9.05763414E-06   5.51676888E-01   6.84354580E-05   1.18662040E-02   1.22805108E-10   4.76953841E-01   2.81793062E-02   1.81108012E-08   4.02561517E-04   1.71088645E-06   3.92497480E-05   2.34381546E-03
   4.11250000E+02   5.00000000E-01   5.00000000E-01  -3.83857211E-03   3.97778101E-11   4.78299440E-03   4.50952899E-02   1.52651650E-02   1.25175089E-03   4.64381167E-20   2.01389238E-07   9.06251570E-06   5.51974211E-01   6.84723408E-05   1.18687154E-02   1.23837069E-10   4.77201282E-01   2.81944933E-02   1.81203672E-08   4.02778476E-04   1.71180852E-06   3.92709014E-05   2.43296398E-03
   4.28750000E+02   5.00000000E-01   5.00000000E-01  -3.78728524E-03   4.21160682E-11   4.78565626E-03   4.48500456E-02   1.54741989E-02   1.30187184E-03   5.21081983E-20   2.01501316E-07   9.06755924E-06   5.52281400E-01   6.85104476E-05   1.18718274E-02   1.24872500E-10   4.77457684E-01   2.82101843E-02   1.81302569E-08   4.03002633E-04   1.71276119E-06   3.92927567E-05   2.52427842E-03
   4.46250000E+02   5.00000000E-01   5.00000000E-01  -3.73397039E-03   4.45774668E-11   4.78840223E-03   4.46041321E-02   1.56838043E-02   1.35171467E-03   5.83773306E-20   2.01616936E-07   9.07276212E-06   5.52598294E-01   6.85497582E-05   1.18755032E-02   1.25911427E-10   4.77722945E-01   2.82263710E-02   1.81404649E-08   4.03233872E-04   1.71374396E-06   3.93153025E-05   2.61780172E-03
   4.63750000E+02   5.00000000E-01   5.00000000E-01  -3.67868034E-03   4.71587007E-11   4.79123099E-03   4.43575609E-02   1.58939901E-02   1.40126435E-03   6.52901414E-20   2.01736042E-07   9.07812188E-06   5.52924743E-01   6.85902542E-05   1.18797079E-02   1.26953877E-10   4.77996975E-01   2.82430459E-02   1.81509863E-08   4.03472084E-04   1.71475636E-06   3.93385282E-05   2.71360522E-03
   4.81250000E+02   5.00000000E-01   5.00000000E-01  -3.62148223E-03   4.98542053E-11   4.79414134E-03   4.41103501E-02   1.61047655E-02   1.45050475E-03   7.28912321E-20   2.01858583E-07   9.08363623E-06   5.53260608E-01   6.86319182E-05   1.18844090E-02   1.27999880E-10   4.78279698E-01   2.82602016E-02   1.81618164E-08   4.03717166E-04   1.71579795E-06   3.93624237E-05   2.81178461E-03
   4.98750000E+02   5.00000000E-01   5.00000000E-01  -3.56271836E-03   5.25868569E-11   4.79713214E-03   4.38626301E-02   1.63161402E-02   1.49941181E-03   8.11583384E-20   2.01984511E-07   9.08930301E-06   5.53605757E-01   6.86747339E-05   1.18895792E-02   1.29049463E-10   4.78571107E-01   2.82778316E-02   1.81729511E-08   4.03969023E-04   1.71686835E-06   3.93869797E-05   2.91278417E-03
   5.16250000E+02   5.00000000E-01   5.00000000E-01  -3.50226244E-03   5.53972682E-11   4.80020234E-03   4.36143320E-02   1.65281242E-02   1.54796447E-03   9.01790512E-20   2.02113783E-07   9.09512023E-06   5.53960068E-01   6.87186861E-05   1.18951879E-02   1.30102657E-10   4.78871133E-01   2.82959296E-02   1.81843862E-08   4.04227566E-04   1.71796715E-06   3.94121876E-05   3.01659210E-03
   5.33750000E+02   5.00000000E-01   5.00000000E-01  -3.44016640E-03   5.82875879E-11   4.80335095E-03   4.33654743E-02   1.67407276E-02   1.59614108E-03   1.00006981E-19   2.02246356E-07   9.10108601E-06   5.54323428E-01   6.87637609E-05   1.19012088E-02   1.31159492E-10   4.79179713E-01   2.83144898E-02   1.81961181E-08   4.04492711E-04   1.71909402E-06   3.94380394E-05   3.12329499E-03
   5.51250000E+02   5.00000000E-01   5.00000000E-01  -3.37655323E-03   6.12428557E-11   4.80657704E-03   4.31161098E-02   1.69539608E-02   1.64391766E-03   1.10678997E-19   2.02382191E-07   9.10719861E-06   5.54695731E-01   6.88099450E-05   1.19076185E-02   1.32219999E-10   4.79496798E-01   2.83335068E-02   1.82081431E-08   4.04764382E-04   1.72024863E-06   3.94645273E-05   3.23304102E-03
   5.68750000E+02   5.00000000E-01   5.00000000E-01  -3.31155010E-03   6.42474842E-11   4.80987977E-03   4.28662954E-02   1.71678339E-02   1.69126786E-03   1.22230614E-19   2.02521253E-07   9.11345640E-06   5.55076877E-01   6.88572261E-05   1.19143960E-02   1.33284210E-10   4.79822347E-01   2.83529755E-02   1.82204582E-08   4.05042507E-04   1.72143065E-06   3.94916444E-05   3.34598926E-03
   5.86250000E+02   5.00000000E-01   5.00000000E-01  -3.24527797E-03   6.72885248E-11   4.81325833E-03   4.26160882E-02   1.73823569E-02   1.73816315E-03   1.34699444E-19   2.02663508E-07   9.11985788E-06   5.55466774E-01   6.89055929E-05   1.19215219E-02   1.34352157E-10   4.80156321E-01   2.83728912E-02   1.82330601E-08   4.05327017E-04   1.72263982E-06   3.95193842E-05   3.46229378E-03
   6.03750000E+02   5.00000000E-01   5.00000000E-01  -3.17785075E-03   7.03564458E-11   4.81671197E-03   4.23655463E-02   1.75975397E-02   1.78457317E-03   1.48126511E-19   2.02808925E-07   9.12640163E-06   5.55865337E-01   6.89550346E-05   1.19289788E-02   1.35423872E-10   4.80498682E-01   2.83932495E-02   1.82459462E-08   4.05617850E-04   1.72387586E-06   3.95477404E-05   3.58209633E-03
   6.21250000E+02   5.00000000E-01   5.00000000E-01  -3.10937656E-03   7.34452304E-11   4.82024002E-03   4.21147291E-02   1.78133914E-02   1.83046614E-03   1.62557014E-19   2.02957474E-07   9.13308635E-06   5.56272486E-01   6.90055413E-05   1.19367506E-02   1.36499388E-10   4.80849392E-01   2.84140464E-02   1.82591137E-08   4.05914949E-04   1.72513853E-06   3.95767075E-05   3.70552291E-03
   6.38750000E+02   5.00000000E-01   5.00000000E-01  -3.03996050E-03   7.65518819E-11   4.82384182E-03   4.18636990E-02   1.80299211E-02   1.87580923E-03   1.78040391E-19   2.03109129E-07   9.13991082E-06   5.56688146E-01   6.90571040E-05   1.19448230E-02   1.37578736E-10   4.81208412E-01   2.84352781E-02   1.82725603E-08   4.06218259E-04   1.72642760E-06   3.96062802E-05   3.83268381E-03
   6.56250000E+02   5.00000000E-01   5.00000000E-01  -2.96970842E-03   7.96754003E-11   4.82751678E-03   4.16125224E-02   1.82471371E-02   1.92056882E-03   1.94629513E-19   2.03263865E-07   9.14687391E-06   5.57112250E-01   6.91097140E-05   1.19531829E-02   1.38661951E-10   4.81575702E-01   2.84569411E-02   1.82862836E-08   4.06527729E-04   1.72774285E-06   3.96364536E-05   3.96367664E-03
   6.73750000E+02   5.00000000E-01   5.00000000E-01  -2.89873040E-03   8.28156212E-11   4.83126436E-03   4.13612708E-02   1.84650475E-02   1.96471073E-03   2.12379355E-19   2.03421657E-07   9.15397457E-06   5.57544733E-01   6.91633634E-05   1.19618185E-02   1.39749066E-10   4.81951225E-01   2.84790320E-02   1.83002816E-08   4.06843314E-04   1.72908409E-06   3.96672232E-05   4.09859064E-03
   6.91250000E+02   5.00000000E-01   5.00000000E-01  -2.82714440E-03   8.59717107E-11   4.83508403E-03   4.11100221E-02   1.86836601E-02   2.00820024E-03   2.31344654E-19   2.03582486E-07   9.16121185E-06   5.57985537E-01   6.92180451E-05   1.19707193E-02   1.40840113E-10   4.82334941E-01   2.85015480E-02   1.83145524E-08   4.07164971E-04   1.73045113E-06   3.96985847E-05   4.23751257E-03
   7.08750000E+02   5.00000000E-01   5.00000000E-01  -2.75507705E-03   8.91413973E-11   4.83897534E-03   4.08588600E-02   1.89029824E-02   2.05100197E-03   2.51578243E-19   2.03746330E-07   9.16858486E-06   5.58434607E-01   6.92737523E-05   1.19798758E-02   1.41935126E-10   4.82726815E-01   2.85244862E-02   1.83290941E-08   4.07492660E-04   1.73184381E-06   3.97305344E-05   4.38053065E-03
   7.26250000E+02   5.00000000E-01   5.00000000E-01  -2.68266334E-03   9.23204360E-11   4.84293785E-03   4.06078738E-02   1.91230218E-02   2.09307978E-03   2.73129400E-19   2.03913173E-07   9.17609277E-06   5.58891895E-01   6.93304787E-05   1.19892796E-02   1.43034139E-10   4.83126816E-01   2.85478442E-02   1.83439050E-08   4.07826345E-04   1.73326197E-06   3.97630687E-05   4.52773739E-03
   7.43750000E+02   5.00000000E-01   5.00000000E-01  -2.61004554E-03   9.55022892E-11   4.84697116E-03   4.03571576E-02   1.93437855E-02   2.13439654E-03   2.96042279E-19   2.04082996E-07   9.18373483E-06   5.59357353E-01   6.93882188E-05   1.19989232E-02   1.44137186E-10   4.83534913E-01   2.85716195E-02   1.83589838E-08   4.08165993E-04   1.73470547E-06   3.97961843E-05   4.67923158E-03
   7.61250000E+02   5.00000000E-01   5.00000000E-01  -2.53737140E-03   9.86780518E-11   4.85107492E-03   4.01068094E-02   1.95652807E-02   2.17491388E-03   3.20354557E-19   2.04255786E-07   9.19151037E-06   5.59830941E-01   6.94469673E-05   1.20087998E-02   1.45244300E-10   4.83951082E-01   2.85958101E-02   1.83743290E-08   4.08511572E-04   1.73617418E-06   3.98298783E-05   4.83511900E-03
   7.78750000E+02   5.00000000E-01   5.00000000E-01  -2.46479164E-03   1.01836642E-10   4.85524879E-03   3.98569295E-02   1.97875146E-02   2.21459201E-03   3.46096488E-19   2.04431528E-07   9.19941876E-06   5.60312620E-01   6.95067195E-05   1.20189034E-02   1.46355514E-10   4.84375302E-01   2.86204139E-02   1.83899393E-08   4.08863056E-04   1.73766799E-06   3.98641479E-05   4.99551220E-03
   7.96250000E+02   5.00000000E-01   5.00000000E-01  -2.39245687E-03   1.04965322E-10   4.85949247E-03   3.96076198E-02   2.00104943E-02   2.25338949E-03   3.73290663E-19   2.04610209E-07   9.20745942E-06   5.60802356E-01   6.95674712E-05   1.20292286E-02   1.47470865E-10   4.84807556E-01   2.86454293E-02   1.84058137E-08   4.09220419E-04   1.73918678E-06   3.98989908E-05   5.16052893E-03
   8.13750000E+02   5.00000000E-01   5.00000000E-01  -2.32051406E-03   1.08050540E-10   4.86380570E-03   3.93589816E-02   2.02342270E-02   2.29126320E-03   4.01952725E-19   2.04791819E-07   9.21563186E-06   5.61300117E-01   6.96292185E-05   1.20397705E-02   1.48590385E-10   4.85247831E-01   2.86708547E-02   1.84219510E-08   4.09583638E-04   1.74073046E-06   3.99344047E-05   5.33028959E-03
   8.31250000E+02   5.00000000E-01   5.00000000E-01  -2.24910283E-03   1.11079034E-10   4.86818824E-03   3.91111144E-02   2.04587196E-02   2.32816843E-03   4.32093112E-19   2.04976347E-07   9.22393561E-06   5.61805877E-01   6.96919579E-05   1.20505250E-02   1.49714109E-10   4.85696116E-01   2.86966886E-02   1.84383505E-08   4.09952694E-04   1.74229895E-06   3.99703876E-05   5.50491371E-03
   8.48750000E+02   5.00000000E-01   5.00000000E-01  -2.17835205E-03   1.14039108E-10   4.87263986E-03   3.88641140E-02   2.06839792E-02   2.36405922E-03   4.63719944E-19   2.05163784E-07   9.23237027E-06   5.62319610E-01   6.97556865E-05   1.20614879E-02   1.50842072E-10   4.86152404E-01   2.87229297E-02   1.84550111E-08   4.10327568E-04   1.74389216E-06   4.00069378E-05   5.68451592E-03
   8.66250000E+02   5.00000000E-01   5.00000000E-01  -2.10837657E-03   1.16922097E-10   4.87716039E-03   3.86180709E-02   2.09100126E-02   2.39888898E-03   4.96843246E-19   2.05354122E-07   9.24093549E-06   5.62841295E-01   6.98204014E-05   1.20726559E-02   1.51974309E-10   4.86616688E-01   2.87495771E-02   1.84719323E-08   4.10708244E-04   1.74551004E-06   4.00440538E-05   5.86920138E-03
   8.83750000E+02   5.00000000E-01   5.00000000E-01  -2.03939366E-03   1.19669851E-10   4.88174967E-03   3.83731279E-02   2.11368256E-02   2.43260237E-03   5.31323310E-19   2.05547354E-07   9.24963095E-06   5.63370913E-01   6.98861005E-05   1.20840258E-02   1.53110854E-10   4.87088980E-01   2.87766296E-02   1.84891134E-08   4.11094709E-04   1.74715251E-06   4.00817341E-05   6.05918069E-03
   9.01250000E+02   5.00000000E-01   5.00000000E-01  -1.97134796E-03   1.22340342E-10   4.88640754E-03   3.81292975E-02   2.13644247E-02   2.46515483E-03   5.67346679E-19   2.05743475E-07   9.25845639E-06   5.63908448E-01   6.99527816E-05   1.20955946E-02   1.54251744E-10   4.87569262E-01   2.88040865E-02   1.85065539E-08   4.11486950E-04   1.74881954E-06   4.01199777E-05   6.25442874E-03
   9.18750000E+02   5.00000000E-01   5.00000000E-01  -1.90427152E-03   1.24957599E-10   4.89113389E-03   3.78866300E-02   2.15928157E-02   2.49650754E-03   6.05011656E-19   2.05942480E-07   9.26741159E-06   5.64453886E-01   7.00204431E-05   1.21073595E-02   1.55397014E-10   4.88057519E-01   2.88319471E-02   1.85242533E-08   4.11884959E-04   1.75051108E-06   4.01587835E-05   6.45496062E-03
   9.36250000E+02   5.00000000E-01   5.00000000E-01  -1.83823177E-03   1.27528187E-10   4.89592864E-03   3.76451904E-02   2.18220038E-02   2.52662513E-03   6.44369261E-19   2.06144364E-07   9.27649637E-06   5.65007216E-01   7.00890837E-05   1.21193182E-02   1.56546700E-10   4.88553739E-01   2.88602108E-02   1.85422112E-08   4.12288727E-04   1.75222709E-06   4.01981509E-05   6.66081068E-03
   9.53750000E+02   5.00000000E-01   5.00000000E-01  -1.77327618E-03   1.30066175E-10   4.90079170E-03   3.74050306E-02   2.20519939E-02   2.55547761E-03   6.85498996E-19   2.06349124E-07   9.28571059E-06   5.65568430E-01   7.01587022E-05   1.21314686E-02   1.57700838E-10   4.89057908E-01   2.88888772E-02   1.85604275E-08   4.12698248E-04   1.75396756E-06   4.02380792E-05   6.87199081E-03
   9.71250000E+02   5.00000000E-01   5.00000000E-01  -1.70943153E-03   1.32595145E-10   4.90572302E-03   3.71661874E-02   2.22827897E-02   2.58304282E-03   7.28520566E-19   2.06556759E-07   9.29505415E-06   5.66137522E-01   7.02292980E-05   1.21438088E-02   1.58859465E-10   4.89570012E-01   2.89179459E-02   1.85789017E-08   4.13113518E-04   1.75573245E-06   4.02785680E-05   7.08848502E-03
   9.88750000E+02   5.00000000E-01   5.00000000E-01  -1.64671284E-03   1.35144947E-10   4.91072257E-03   3.69286855E-02   2.25143948E-02   2.60930832E-03   7.73588622E-19   2.06767266E-07   9.30452698E-06   5.66714488E-01   7.03008705E-05   1.21563368E-02   1.60022618E-10   4.90090033E-01   2.89474168E-02   1.85976339E-08   4.13534532E-04   1.75752176E-06   4.03196169E-05   7.31025336E-03
   1.00625000E+03   5.00000000E-01   5.00000000E-01  -1.58513133E-03   1.37748218E-10   4.91579034E-03   3.66925389E-02   2.27468118E-02   2.63427270E-03   8.20884347E-19   2.06980646E-07   9.31412906E-06   5.67299325E-01   7.03734196E-05   1.21690512E-02   1.61190334E-10   4.90617949E-01   2.89772896E-02   1.86166239E-08   4.13961292E-04   1.75933549E-06   4.03612259E-05   7.53723730E-03
   1.02375000E+03   5.00000000E-01   5.00000000E-01  -1.52469928E-03   1.40437841E-10   4.92092632E-03   3.64577531E-02   2.29800424E-02   2.65794623E-03   8.70607959E-19   2.07196898E-07   9.32386040E-06   5.67892036E-01   7.04469452E-05   1.21819505E-02   1.62362651E-10   4.91153740E-01   2.90075643E-02   1.86358718E-08   4.14393795E-04   1.76117363E-06   4.04033951E-05   7.76936447E-03
   1.04125000E+03   5.00000000E-01   5.00000000E-01  -1.46543420E-03   1.43244308E-10   4.92613054E-03   3.62243265E-02   2.32140878E-02   2.68035074E-03   9.22968325E-19   2.07416023E-07   9.33372103E-06   5.68492621E-01   7.05214478E-05   1.21950334E-02   1.63539608E-10   4.91697385E-01   2.90382409E-02   1.86553777E-08   4.14832046E-04   1.76303619E-06   4.04461244E-05   8.00655410E-03
   1.05875000E+03   5.00000000E-01   5.00000000E-01  -1.40735771E-03   1.46195693E-10   4.93140304E-03   3.59922496E-02   2.34489481E-02   2.70151936E-03   9.78181615E-19   2.07638023E-07   9.34371102E-06   5.69101086E-01   7.05969277E-05   1.22082989E-02   1.64721243E-10   4.92248863E-01   2.90693196E-02   1.86751416E-08   4.15276045E-04   1.76492319E-06   4.04894144E-05   8.24871862E-03
   1.07625000E+03   5.00000000E-01   5.00000000E-01  -1.35049449E-03   1.49317721E-10   4.93674387E-03   3.57615053E-02   2.36846226E-02   2.72149596E-03   1.03646997E-18   2.07862900E-07   9.35383049E-06   5.69717436E-01   7.06733859E-05   1.22217459E-02   1.65907595E-10   4.92808154E-01   2.91008004E-02   1.86951638E-08   4.15725800E-04   1.76683465E-06   4.05332655E-05   8.49576499E-03
   1.09375000E+03   5.00000000E-01   5.00000000E-01  -1.29487013E-03   1.52634500E-10   4.94215310E-03   3.55320680E-02   2.39211092E-02   2.74033451E-03   1.09806315E-18   2.08090657E-07   9.36407957E-06   5.70341680E-01   7.07508234E-05   1.22353736E-02   1.67098704E-10   4.93375242E-01   2.91326833E-02   1.87154445E-08   4.16181314E-04   1.76877058E-06   4.05776781E-05   8.74759473E-03
   1.11125000E+03   5.00000000E-01   5.00000000E-01  -1.24050856E-03   1.56169881E-10   4.94763083E-03   3.53039032E-02   2.41584048E-02   2.75809858E-03   1.16320387E-18   2.08321298E-07   9.37445841E-06   5.70973829E-01   7.08292413E-05   1.22491813E-02   1.68294610E-10   4.93950107E-01   2.91649683E-02   1.87359841E-08   4.16642596E-04   1.77073103E-06   4.06226531E-05   9.00410302E-03
   1.12875000E+03   5.00000000E-01   5.00000000E-01  -1.18742915E-03   1.59949450E-10   4.95317715E-03   3.50769665E-02   2.43965049E-02   2.77486101E-03   1.23215740E-18   2.08554827E-07   9.38496722E-06   5.71613893E-01   7.09086412E-05   1.22631684E-02   1.69495354E-10   4.94532734E-01   2.91976552E-02   1.87567829E-08   4.17109654E-04   1.77271603E-06   4.06681913E-05   9.26517657E-03
   1.14625000E+03   5.00000000E-01   5.00000000E-01  -1.13564432E-03   1.64002782E-10   4.95879217E-03   3.48512024E-02   2.46354033E-02   2.79070388E-03   1.30522440E-18   2.08791249E-07   9.39560622E-06   5.72261887E-01   7.09890248E-05   1.22773344E-02   1.70700977E-10   4.95123108E-01   2.92307436E-02   1.87778414E-08   4.17582499E-04   1.77472562E-06   4.07142936E-05   9.53069111E-03
   1.16375000E+03   5.00000000E-01   5.00000000E-01  -1.08515835E-03   1.68365418E-10   4.96447604E-03   3.46265440E-02   2.48750923E-02   2.80571872E-03   1.38275424E-18   2.09030570E-07   9.40637565E-06   5.72917825E-01   7.10703938E-05   1.22916790E-02   1.71911521E-10   4.95721213E-01   2.92642325E-02   1.87991601E-08   4.18061140E-04   1.77675985E-06   4.07609612E-05   9.80050915E-03
   1.18125000E+03   5.00000000E-01   5.00000000E-01  -1.03596753E-03   1.73080251E-10   4.97022889E-03   3.44029131E-02   2.51155624E-02   2.82000656E-03   1.46515645E-18   2.09272796E-07   9.41727580E-06   5.73581724E-01   7.11527505E-05   1.23062018E-02   1.73127028E-10   4.96327031E-01   2.92981201E-02   1.88207394E-08   4.18545591E-04   1.77881876E-06   4.08081951E-05   1.00744786E-02
   1.19875000E+03   5.00000000E-01   5.00000000E-01  -9.88061372E-04   1.78198219E-10   4.97605089E-03   3.41802205E-02   2.53568019E-02   2.83367790E-03   1.55290919E-18   2.09517932E-07   9.42830696E-06   5.74253604E-01   7.12360970E-05   1.23209027E-02   1.74347541E-10   4.96940546E-01   2.93324035E-02   1.88425801E-08   4.19035865E-04   1.78090243E-06   4.08559968E-05   1.03524327E-02
   1.21625000E+03   5.00000000E-01   5.00000000E-01  -9.41424714E-04   1.83778189E-10   4.98194222E-03   3.39583676E-02   2.55987972E-02   2.84685209E-03   1.64656275E-18   2.09765988E-07   9.43946946E-06   5.74933482E-01   7.13204359E-05   1.23357815E-02   1.75573104E-10   4.97561740E-01   2.93670779E-02   1.88646828E-08   4.19531976E-04   1.78301090E-06   4.09043677E-05   1.06341906E-02
   1.23375000E+03   5.00000000E-01   5.00000000E-01  -8.96040431E-04   1.89885798E-10   4.98790304E-03   3.37372483E-02   2.58415319E-02   2.85965614E-03   1.74673580E-18   2.10016970E-07   9.45076366E-06   5.75621383E-01   7.14057699E-05   1.23508382E-02   1.76803761E-10   4.98190592E-01   2.94021362E-02   1.88870481E-08   4.20033940E-04   1.78514425E-06   4.09533092E-05   1.09195605E-02
   1.25125000E+03   5.00000000E-01   5.00000000E-01  -8.51892168E-04   1.96591419E-10   4.99393358E-03   3.35167517E-02   2.60849862E-02   2.87222264E-03   1.85410404E-18   2.10270887E-07   9.46218993E-06   5.76317327E-01   7.14921017E-05   1.23660728E-02   1.78039557E-10   4.98827083E-01   2.94375667E-02   1.89096767E-08   4.20541775E-04   1.78730254E-06   4.10028230E-05   1.12083432E-02
   1.26875000E+03   5.00000000E-01   5.00000000E-01  -8.08966607E-04   2.03967449E-10   5.00003403E-03   3.32967653E-02   2.63291355E-02   2.88468704E-03   1.96938172E-18   2.10527749E-07   9.47374868E-06   5.77021341E-01   7.15794345E-05   1.23814854E-02   1.79280537E-10   4.99471193E-01   2.94733522E-02   1.89325696E-08   4.21055497E-04   1.78948586E-06   4.10529110E-05   1.15003371E-02
   1.28625000E+03   5.00000000E-01   5.00000000E-01  -7.67254198E-04   2.12086080E-10   5.00620462E-03   3.30771772E-02   2.65739474E-02   2.89718437E-03   2.09330334E-18   2.10787563E-07   9.48544033E-06   5.77733448E-01   7.16677714E-05   1.23970762E-02   1.80526748E-10   5.00122902E-01   2.95094660E-02   1.89557276E-08   4.21575126E-04   1.79169429E-06   4.11035748E-05   1.17953424E-02
   1.30375000E+03   5.00000000E-01   5.00000000E-01  -7.26749277E-04   2.21016730E-10   5.01244559E-03   3.28578795E-02   2.68193782E-02   2.90984589E-03   2.22660069E-18   2.11050341E-07   9.49726533E-06   5.78453678E-01   7.17571159E-05   1.24128453E-02   1.81778236E-10   5.00782195E-01   2.95458683E-02   1.89791514E-08   4.22100682E-04   1.79392790E-06   4.11548165E-05   1.20931661E-02