 TITLE = "Total Concentrations" 
VARIABLES = "X"          "Y"              "Z"            "H+"             "Al+++"          "CO2(aq)"        "Mg++"           "Ca++"           "Fe++"           "Fe+++"          "Ba++"           "Sr++"           "Cl-"            "F-"             "K+"             "HS-"            "Na+"            "SO4--"          "O2(aq)"         "B(OH)3(aq)"     "HPO4--"         "NO3-"           "H4SiO4(aq)"    
 ZONE I=         100 , J=           1 , K=           1  F=POINT
   1.75000000E+01   5.00000000E-01   5.00000000E-01  -4.74434927E-03   1.78874583E-13   4.75010909E-03   4.93945567E-02   1.13340286E-02   6.45787639E-04   2.51093065E-12   2.00004593E-07   9.00020669E-06   5.48179132E-01   6.80015617E-05   1.20002756E-02   1.11714182E-10   4.74267748E-01   2.80006431E-02   1.79981926E-08   4.00009186E-04   1.70003904E-06   3.90008957E-05   1.73128652E-03
   5.25000000E+01   5.00000000E-01   5.00000000E-01  -4.72082938E-03   2.06223718E-13   4.75063957E-03   4.81894943E-02   1.22373068E-02   9.31015211E-04   1.77406939E-12   2.00026929E-07   9.00121182E-06   5.48240352E-01   6.80091559E-05   1.20016158E-02   1.23459978E-10   4.74343485E-01   2.80037701E-02   1.79979773E-08   4.00053859E-04   1.70022890E-06   3.90052512E-05   2.62730614E-03
   8.75000000E+01   5.00000000E-01   5.00000000E-01  -4.68506272E-03   2.52028097E-13   4.75176954E-03   4.72509378E-02   1.31153136E-02   1.04406676E-03   1.60515285E-12   2.00074507E-07   9.00335281E-06   5.48370754E-01   6.80253324E-05   1.20044704E-02   1.35245721E-10   4.74343607E-01   2.80104310E-02   1.80000281E-08   4.00149014E-04   1.70063331E-06   3.90145289E-05   3.11961282E-03
   1.22500000E+02   5.00000000E-01   5.00000000E-01  -4.64396595E-03   3.17460574E-13   4.75345252E-03   4.64166408E-02   1.39844097E-02   1.09617878E-03   1.54639073E-12   2.00145369E-07   9.00654161E-06   5.48564976E-01   6.80494255E-05   1.20087222E-02   1.47074311E-10   4.74338531E-01   2.80203517E-02   1.80041681E-08   4.00290738E-04   1.70123564E-06   3.90283470E-05   3.44611169E-03
   1.57500000E+02   5.00000000E-01   5.00000000E-01  -4.59549262E-03   4.24335506E-13   4.75564895E-03   4.56076003E-02   1.48665294E-02   1.14905895E-03   1.44027557E-12   2.00237850E-07   9.01070327E-06   5.48818451E-01   6.80808692E-05   1.20142710E-02   1.58948346E-10   4.74312003E-01   2.80332991E-02   1.80102467E-08   4.00475701E-04   1.70202173E-06   3.90463808E-05   3.76165373E-03
   1.92500000E+02   5.00000000E-01   5.00000000E-01  -4.53183078E-03   6.45046949E-13   4.75832501E-03   4.47994506E-02   1.57856461E-02   1.25328561E-03   1.19925460E-12   2.00350527E-07   9.01577370E-06   5.49127278E-01   6.81191790E-05   1.20210316E-02   1.70870234E-10   4.74151621E-01   2.80490737E-02   1.80181353E-08   4.00701053E-04   1.70297948E-06   3.90683527E-05   4.14361854E-03
   2.27500000E+02   5.00000000E-01   5.00000000E-01  -4.47183799E-03   8.74703374E-13   4.76145164E-03   4.40505586E-02   1.67178620E-02   1.34112348E-03   1.10784961E-12   2.00482174E-07   9.02169785E-06   5.49488102E-01   6.81639393E-05   1.20289305E-02   1.82842216E-10   4.73939153E-01   2.80675045E-02   1.80277232E-08   4.00964349E-04   1.70409848E-06   3.90940240E-05   4.47734738E-03
   2.62500000E+02   5.00000000E-01   5.00000000E-01  -4.41320919E-03   1.09489100E-12   4.76500382E-03   4.33416054E-02   1.76541183E-02   1.39542336E-03   1.09931685E-12   2.00631740E-07   9.02842829E-06   5.49898036E-01   6.82147915E-05   1.20379044E-02   1.94866460E-10   4.73760224E-01   2.80884436E-02   1.80389150E-08   4.01263479E-04   1.70536979E-06   3.91231892E-05   4.77391764E-03
   2.97500000E+02   5.00000000E-01   5.00000000E-01  -4.35071554E-03   1.34084590E-12   4.76895988E-03   4.26437927E-02   1.85928523E-02   1.42930918E-03   1.11160022E-12   2.00798311E-07   9.03592398E-06   5.50354579E-01   6.82714256E-05   1.20478986E-02   2.06945054E-10   4.73641382E-01   2.81117635E-02   1.80516281E-08   4.01596621E-04   1.70678564E-06   3.91556706E-05   5.06015213E-03
   3.32500000E+02   5.00000000E-01   5.00000000E-01  -4.28297833E-03   1.62664309E-12   4.77330104E-03   4.19425455E-02   1.95335985E-02   1.45254624E-03   1.12976963E-12   2.00981096E-07   9.04414934E-06   5.50855564E-01   6.83335728E-05   1.20588658E-02   2.19080009E-10   4.73589455E-01   2.81373536E-02   1.80657909E-08   4.01962193E-04   1.70833932E-06   3.91913138E-05   5.34861597E-03
   3.67500000E+02   5.00000000E-01   5.00000000E-01  -4.20929484E-03   1.96215204E-12   4.77801099E-03   4.12312649E-02   2.04761553E-02   1.47033969E-03   1.14881539E-12   2.01179410E-07   9.05307346E-06   5.51399109E-01   6.84009995E-05   1.20707646E-02   2.31273280E-10   4.73604897E-01   2.81651175E-02   1.80813412E-08   4.02358821E-04   1.71002499E-06   3.92299850E-05   5.64385533E-03
   4.02500000E+02   5.00000000E-01   5.00000000E-01  -4.12909643E-03   2.35772599E-12   4.78307553E-03   4.05070453E-02   2.14204735E-02   1.48534423E-03   1.16632417E-12   2.01392654E-07   9.06266942E-06   5.51983574E-01   6.84735023E-05   1.20835592E-02   2.43526774E-10   4.73685969E-01   2.81949716E-02   1.80982246E-08   4.02785308E-04   1.71183756E-06   3.92715675E-05   5.94706646E-03
   4.37500000E+02   5.00000000E-01   5.00000000E-01  -4.04190330E-03   2.82524855E-12   4.78848227E-03   3.97686585E-02   2.23666261E-02   1.49893750E-03   1.18083150E-12   2.01620306E-07   9.07291377E-06   5.52607531E-01   6.85509041E-05   1.20972184E-02   2.55842366E-10   4.73830203E-01   2.82268429E-02   1.81163940E-08   4.03240612E-04   1.71377260E-06   3.93159597E-05   6.25824358E-03
   4.72500000E+02   5.00000000E-01   5.00000000E-01  -3.94734504E-03   3.37854013E-12   4.79422042E-03   3.90156675E-02   2.33147825E-02   1.51185109E-03   1.19133432E-12   2.01861912E-07   9.08378605E-06   5.53269733E-01   6.86330502E-05   1.21117147E-02   2.68221905E-10   4.74034954E-01   2.82606678E-02   1.81358080E-08   4.03723825E-04   1.71582625E-06   3.93630729E-05   6.57704420E-03
   5.07500000E+02   5.00000000E-01   5.00000000E-01  -3.84518645E-03   4.03370107E-12   4.80028056E-03   3.82480402E-02   2.42651831E-02   1.52447542E-03   1.19711191E-12   2.02117076E-07   9.09526844E-06   5.53969095E-01   6.87198060E-05   1.21270246E-02   2.80667221E-10   4.74297615E-01   2.82963908E-02   1.81564305E-08   4.04234153E-04   1.71799515E-06   3.94128299E-05   6.90309841E-03
   5.42500000E+02   5.00000000E-01   5.00000000E-01  -3.73535083E-03   4.80950538E-12   4.80665451E-03   3.74659780E-02   2.52181159E-02   1.53701345E-03   1.19764895E-12   2.02385453E-07   9.10734539E-06   5.54704671E-01   6.88110541E-05   1.21431272E-02   2.93180129E-10   4.74615705E-01   2.83339635E-02   1.81782301E-08   4.04770906E-04   1.72027635E-06   3.94651634E-05   7.23609428E-03
   5.77500000E+02   5.00000000E-01   5.00000000E-01  -3.61793897E-03   5.72786788E-12   4.81333513E-03   3.66698366E-02   2.61738969E-02   1.54956308E-03   1.19259888E-12   2.02666742E-07   9.12000341E-06   5.55475638E-01   6.89066924E-05   1.21600045E-02   3.05762439E-10   4.74986894E-01   2.83733440E-02   1.82011795E-08   4.05333485E-04   1.72266731E-06   3.95200148E-05   7.57578079E-03
   6.12500000E+02   5.00000000E-01   5.00000000E-01  -3.49324238E-03   6.81439476E-12   4.82031624E-03   3.58600880E-02   2.71328564E-02   1.56216391E-03   1.18176466E-12   2.02960684E-07   9.13323077E-06   5.56281282E-01   6.90066325E-05   1.21776410E-02   3.18415952E-10   4.75409021E-01   2.84144958E-02   1.82252547E-08   4.05921368E-04   1.72516581E-06   3.95773334E-05   7.92194588E-03
   6.47500000E+02   5.00000000E-01   5.00000000E-01  -3.36174912E-03   8.09902766E-12   4.82759249E-03   3.50372997E-02   2.80953282E-02   1.57482453E-03   1.16508686E-12   2.03267052E-07   9.14701735E-06   5.57120987E-01   6.91107978E-05   1.21960231E-02   3.31142474E-10   4.75880086E-01   2.84573874E-02   1.82504353E-08   4.06534105E-04   1.72776994E-06   3.96370752E-05   8.27439230E-03
   6.82500000E+02   5.00000000E-01   5.00000000E-01  -3.22414086E-03   9.61679478E-12   4.83515929E-03   3.42021216E-02   2.90616438E-02   1.58753866E-03   1.14263456E-12   2.03585654E-07   9.16135444E-06   5.57994221E-01   6.92191224E-05   1.22151393E-02   3.43943814E-10   4.76398248E-01   2.85019917E-02   1.82767034E-08   4.07171308E-04   1.73047806E-06   3.96992026E-05   8.63291753E-03
   7.17500000E+02   5.00000000E-01   5.00000000E-01  -3.08128009E-03   1.14086892E-11   4.84301271E-03   3.33552744E-02   3.00321279E-02   1.60029447E-03   1.11459629E-12   2.03916324E-07   9.17623460E-06   5.58900533E-01   6.93315503E-05   1.22349795E-02   3.56821792E-10   4.76961813E-01   2.85482855E-02   1.83040438E-08   4.07832649E-04   1.73328876E-06   3.97636833E-05   8.99729808E-03
   7.52500000E+02   5.00000000E-01   5.00000000E-01  -2.93418756E-03   1.35226880E-11   4.85114943E-03   3.24975365E-02   3.10070967E-02   1.61307932E-03   1.08127011E-12   2.04258923E-07   9.19165155E-06   5.59839539E-01   6.94480339E-05   1.22555354E-02   3.69778238E-10   4.77569225E-01   2.85962494E-02   1.83324435E-08   4.08517847E-04   1.73620085E-06   3.98304900E-05   9.36728029E-03
   7.87500000E+02   5.00000000E-01   5.00000000E-01  -2.78401054E-03   1.60149441E-11   4.85956668E-03   3.16297282E-02   3.19868567E-02   1.62588174E-03   1.04305161E-12   2.04613334E-07   9.20760003E-06   5.60810919E-01   6.95685335E-05   1.22768000E-02   3.82814999E-10   4.78219053E-01   2.86458668E-02   1.83618917E-08   4.09226668E-04   1.73921334E-06   3.98996001E-05   9.74257413E-03
   8.22500000E+02   5.00000000E-01   5.00000000E-01  -2.63198377E-03   1.89511816E-11   4.86826219E-03   3.07526943E-02   3.29717044E-02   1.63869161E-03   1.00041995E-12   2.04979460E-07   9.22407572E-06   5.61814411E-01   6.96930166E-05   1.22987676E-02   3.95933940E-10   4.78909987E-01   2.86971246E-02   1.83923794E-08   4.09958921E-04   1.74232541E-06   3.99709948E-05   1.01228501E-02
   8.57500000E+02   5.00000000E-01   5.00000000E-01  -2.47938559E-03   2.24083399E-11   4.87723412E-03   2.98672849E-02   3.39619264E-02   1.65149916E-03   9.53922224E-13   2.05357226E-07   9.24107518E-06   5.62849804E-01   6.98214569E-05   1.23214336E-02   4.09136943E-10   4.79640823E-01   2.87500117E-02   1.84238993E-08   4.10714452E-04   1.74553642E-06   4.00446591E-05   1.05077357E-02
   8.92500000E+02   5.00000000E-01   5.00000000E-01  -2.32749234E-03   2.64765149E-11   4.88648108E-03   2.89743354E-02   3.49578000E-02   1.66429331E-03   9.04156907E-13   2.05746572E-07   9.25859572E-06   5.63916934E-01   6.99538344E-05   1.23447943E-02   4.22425914E-10   4.80410459E-01   2.88045201E-02   1.84564457E-08   4.11493143E-04   1.74884586E-06   4.01205815E-05   1.08968131E-02
   9.27500000E+02   5.00000000E-01   5.00000000E-01  -2.17753421E-03   3.12612820E-11   4.89600202E-03   2.80746483E-02   3.59595940E-02   1.67705951E-03   8.51756779E-13   2.06147453E-07   9.27663541E-06   5.65015685E-01   7.00901342E-05   1.23688472E-02   4.35802780E-10   4.81217883E-01   2.88606436E-02   1.84900144E-08   4.12294907E-04   1.75225335E-06   4.01987534E-05   1.12896129E-02
   9.62500000E+02   5.00000000E-01   5.00000000E-01  -2.03065559E-03   3.68864865E-11   4.90579628E-03   2.71689763E-02   3.69675703E-02   1.68977755E-03   7.97372381E-13   2.06559843E-07   9.29519295E-06   5.66145976E-01   7.02303467E-05   1.23935906E-02   4.49269495E-10   4.82062167E-01   2.89183781E-02   1.85246024E-08   4.13119686E-04   1.75575867E-06   4.02791694E-05   1.16856066E-02
   9.97500000E+02   5.00000000E-01   5.00000000E-01  -1.88788220E-03   4.34976062E-11   4.91586349E-03   2.62580098E-02   3.79819854E-02   1.70241881E-03   7.41656671E-13   2.06983726E-07   9.31426767E-06   5.67307768E-01   7.03744669E-05   1.24190236E-02   4.62828036E-10   4.82942454E-01   2.89777216E-02   1.85602079E-08   4.13967452E-04   1.75936167E-06   4.03618266E-05   1.20841981E-02
   1.03250000E+03   5.00000000E-01   5.00000000E-01  -1.75009671E-03   5.12658622E-11   4.92620362E-03   2.53423677E-02   3.90030931E-02   1.71494359E-03   6.85251138E-13   2.07419100E-07   9.33385949E-06   5.68501055E-01   7.05224940E-05   1.24451460E-02   4.76480409E-10   4.83857957E-01   2.90386739E-02   1.85968305E-08   4.14838200E-04   1.76306235E-06   4.04467245E-05   1.24847116E-02
   1.06750000E+03   5.00000000E-01   5.00000000E-01  -1.61802325E-03   6.03933524E-11   4.93681690E-03   2.44225925E-02   4.00311484E-02   1.72729860E-03   6.28773518E-13   2.07865975E-07   9.35396886E-06   5.69725864E-01   7.06744314E-05   1.24719585E-02   4.90228651E-10   4.84807941E-01   2.91012363E-02   1.86344706E-08   4.15731949E-04   1.76686078E-06   4.05338651E-05   1.28863715E-02
   1.10250000E+03   5.00000000E-01   5.00000000E-01  -1.49222066E-03   7.11197418E-11   4.94770383E-03   2.34991472E-02   4.10664134E-02   1.73941622E-03   5.72806777E-13   2.08324372E-07   9.37459672E-06   5.70982253E-01   7.08302863E-05   1.24994623E-02   5.04074829E-10   4.85791711E-01   2.91654118E-02   1.86731297E-08   4.16648743E-04   1.77075716E-06   4.06232525E-05   1.32882584E-02
   1.13750000E+03   5.00000000E-01   5.00000000E-01  -1.07857189E-03   3.80470570E-09   4.95886516E-03   2.15433811E-02   4.22004024E-02   2.69550329E-03   1.63075709E-13   2.08794322E-07   9.39574451E-06   5.72270310E-01   7.09900696E-05   1.25276593E-02   5.18021059E-10   4.86501092E-01   2.92312047E-02   1.87128104E-08   4.17588645E-04   1.77475174E-06   4.07148929E-05   2.81774685E-03
   1.17250000E+03   5.00000000E-01   5.00000000E-01  -1.08087145E-03   1.65454982E-09   4.97030189E-03   1.98777272E-02   4.33425574E-02   3.27928578E-03   1.65627986E-13   2.09275869E-07   9.41741410E-06   5.73590148E-01   7.11537954E-05   1.25565521E-02   5.32069414E-10   4.87808831E-01   2.92986209E-02   1.87535159E-08   4.18551738E-04   1.77884489E-06   4.08087944E-05   4.34952377E-03
   1.20750000E+03   5.00000000E-01   5.00000000E-01  -1.03210468E-03   1.18825025E-09   4.98201524E-03   1.85906202E-02   4.44930686E-02   3.48214659E-03   1.54324605E-13   2.09769063E-07   9.43960782E-06   5.74941909E-01   7.13214813E-05   1.25861438E-02   5.46222098E-10   4.89088025E-01   2.93676674E-02   1.87952505E-08   4.19538125E-04   1.78303703E-06   4.09049672E-05   5.51996483E-03
   1.24250000E+03   5.00000000E-01   5.00000000E-01  -9.67153591E-04   1.03224941E-09   4.99400664E-03   1.75463951E-02   4.56521947E-02   3.44710367E-03   1.40992809E-13   2.10273964E-07   9.46232837E-06   5.76325759E-01   7.14931477E-05   1.26164378E-02   5.60481339E-10   4.90358517E-01   2.94383526E-02   1.88380192E-08   4.20547928E-04   1.78732869E-06   4.10034229E-05   6.45277140E-03
   1.27750000E+03   5.00000000E-01   5.00000000E-01  -8.97649379E-04   9.82309793E-10   5.00627774E-03   1.66087611E-02   4.68212842E-02   3.30724419E-03   1.26831196E-13   2.10790642E-07   9.48557888E-06   5.77741887E-01   7.16688182E-05   1.26474385E-02   5.74849396E-10   4.91635852E-01   2.95106858E-02   1.88818279E-08   4.21581284E-04   1.79172046E-06   4.11041751E-05   7.24943420E-03
   1.31250000E+03   5.00000000E-01   5.00000000E-01  -8.28825517E-04   9.88493531E-10   5.01883039E-03   1.56846596E-02   4.80171872E-02   3.13867313E-03   1.11206403E-13   2.11319174E-07   9.50936285E-06   5.79190506E-01   7.18485193E-05   1.26791505E-02   5.89328569E-10   4.92925700E-01   2.95846772E-02   1.89266830E-08   4.22638349E-04   1.79621298E-06   4.12072390E-05   7.95628219E-03
   1.34750000E+03   5.00000000E-01   5.00000000E-01  -7.64005327E-04   1.02601450E-09   5.03166662E-03   1.47330188E-02   4.92546734E-02   2.96902954E-03   9.47674768E-14   2.11859647E-07   9.53368413E-06   5.80671852E-01   7.20322801E-05   1.27115788E-02   6.03921205E-10   4.94228963E-01   2.96603371E-02   1.89725919E-08   4.23719295E-04   1.80080700E-06   4.13126312E-05   8.61163608E-03
   1.38250000E+03   5.00000000E-01   5.00000000E-01  -6.00907041E-04   1.03432544E-08   5.04478867E-03   1.29174853E-02   5.05326898E-02   3.65793118E-03   3.48814330E-14   2.12412155E-07   9.55854696E-06   5.82186182E-01   7.22201326E-05   1.27447293E-02   6.18629696E-10   4.95399178E-01   2.97376756E-02   1.90195626E-08   4.24824309E-04   1.80550331E-06   4.14203701E-05   3.69083822E-03
   1.41750000E+03   5.00000000E-01   5.00000000E-01  -5.86686922E-04   8.01330709E-09   5.05819894E-03   1.14219478E-02   5.18488664E-02   3.94139771E-03   2.63655863E-14   2.12976798E-07   9.58395589E-06   5.83733774E-01   7.24121112E-05   1.27786079E-02   6.33456453E-10   4.96848773E-01   2.98166990E-02   1.90676038E-08   4.25953595E-04   1.81030278E-06   4.15304755E-05   4.44921605E-03
   1.45250000E+03   5.00000000E-01   5.00000000E-01  -5.56478630E-04   7.35437263E-09   5.07190003E-03   1.02059292E-02   5.32021424E-02   3.92666912E-03   1.94470451E-14   2.13553685E-07   9.60991585E-06   5.85314927E-01   7.26082531E-05   1.28132211E-02   6.48403977E-10   4.98281726E-01   2.98974046E-02   1.91167247E-08   4.27107371E-04   1.81520633E-06   4.16429687E-05   5.08439940E-03
   1.48750000E+03   5.00000000E-01   5.00000000E-01  -5.19728276E-04   7.92156260E-09   5.08589470E-03   9.10384107E-03   5.45922871E-02   3.78226769E-03   1.36428665E-14   2.14142935E-07   9.63643206E-06   5.86929961E-01   7.28085978E-05   1.28485761E-02   6.63474814E-10   4.99702329E-01   2.99797625E-02   1.91669356E-08   4.28285869E-04   1.82021495E-06   4.17578723E-05   5.43672506E-03
   1.52250000E+03   5.00000000E-01   5.00000000E-01  -4.82948744E-04   9.49692507E-09   5.10018590E-03   8.01947354E-03   5.60193771E-02   3.60314535E-03   8.90203352E-15   2.14744669E-07   9.66351012E-06   5.88579215E-01   7.30131876E-05   1.28846802E-02   6.78671556E-10   5.01119582E-01   3.00636679E-02   1.92182469E-08   4.29489339E-04   1.82532969E-06   4.18752105E-05   5.56414439E-03
   1.55750000E+03   5.00000000E-01   5.00000000E-01  -4.48507287E-04   1.27319663E-08   5.11477673E-03   6.90673804E-03   5.74832652E-02   3.43641644E-03   5.20864577E-15   2.15359020E-07   9.69115591E-06   5.90263048E-01   7.32220669E-05   1.29215412E-02   6.93996853E-10   5.02533795E-01   3.01487964E-02   1.92706700E-08   4.30718040E-04   1.83055167E-06   4.19950089E-05   5.45508482E-03
   1.59250000E+03   5.00000000E-01   5.00000000E-01  -4.17926589E-04   1.94371588E-08   5.12967049E-03   5.75026061E-03   5.89830846E-02   3.29823673E-03   2.61014748E-15   2.15986126E-07   9.71937566E-06   5.91981839E-01   7.34352827E-05   1.29591675E-02   7.09453405E-10   5.03945024E-01   3.02341468E-02   1.93242169E-08   4.31972251E-04   1.83588207E-06   4.21172945E-05   5.10705191E-03
   1.62750000E+03   5.00000000E-01   5.00000000E-01  -3.96826388E-04   2.98078473E-08   5.14487062E-03   4.60856803E-03   6.05158416E-02   3.11834652E-03   1.14144133E-15   2.16626131E-07   9.74817591E-06   5.93735987E-01   7.36528846E-05   1.29975679E-02   7.25043977E-10   5.05382305E-01   3.03165058E-02   1.93789001E-08   4.33252263E-04   1.84132212E-06   4.22420956E-05   4.81637159E-03
   1.66250000E+03   5.00000000E-01   5.00000000E-01  -3.87414947E-04   4.03052518E-08   5.16038075E-03   3.57025187E-03   6.20709633E-02   2.80193880E-03   4.53896417E-16   2.17279189E-07   9.77756352E-06   5.95525911E-01   7.38749244E-05   1.30367514E-02   7.40771394E-10   5.06860039E-01   3.03849725E-02   1.94347329E-08   4.34558379E-04   1.84687311E-06   4.23694419E-05   4.86675470E-03
   1.69750000E+03   5.00000000E-01   5.00000000E-01  -3.83614480E-04   5.08577718E-08   5.17620467E-03   2.65286403E-03   6.36100069E-02   2.35221718E-03   1.52263634E-16   2.17945460E-07   9.80754569E-06   5.97352046E-01   7.41014563E-05   1.30767276E-02   7.56638548E-10   5.08329617E-01   3.04003785E-02   1.94917290E-08   4.35890919E-04   1.85253641E-06   4.24993646E-05   5.32697712E-03
   1.73250000E+03   5.00000000E-01   5.00000000E-01  -3.89295741E-04   6.48764451E-08   5.19234634E-03   1.85376660E-03   6.49865514E-02   1.82654168E-03   4.00853178E-17   2.18625109E-07   9.83812991E-06   5.99214851E-01   7.43325371E-05   1.31175065E-02   7.72648398E-10   5.09685386E-01   3.02160454E-02   1.95499030E-08   4.37250218E-04   1.85831343E-06   4.26318963E-05   6.06042222E-03
   1.76750000E+03   5.00000000E-01   5.00000000E-01  -4.29947153E-04   8.86892700E-08   5.20880989E-03   1.17676720E-03   6.56708745E-02   1.26844436E-03   8.19682960E-18   2.19318311E-07   9.86932401E-06   6.01114803E-01   7.45682258E-05   1.31590987E-02   7.88803966E-10   5.10856546E-01   2.93012228E-02   1.96092699E-08   4.38636623E-04   1.86420565E-06   4.27670707E-05   6.35920169E-03
   1.80250000E+03   5.00000000E-01   5.00000000E-01  -5.26121358E-04   1.60492924E-07   5.22559963E-03   6.05954340E-04   6.42359137E-02   7.49292244E-04   8.26695599E-19   2.20025248E-07   9.90113614E-06   6.03052397E-01   7.48085842E-05   1.32015149E-02   8.05108345E-10   5.11772697E-01   2.62386417E-02   1.96698454E-08   4.40050495E-04   1.87021461E-06   4.29049233E-05   6.04974757E-03
   1.83750000E+03   5.00000000E-01   5.00000000E-01  -7.79364334E-04   3.76697289E-07   5.24272003E-03   2.10435303E-04   5.95470664E-02   2.98595979E-04   2.45860769E-20   2.20746107E-07   9.93357480E-06   6.05028151E-01   7.50536763E-05   1.32447664E-02   8.21564705E-10   5.12450042E-01   1.99495375E-02   1.97316460E-08   4.41492213E-04   1.87634191E-06   4.30454908E-05   5.16185143E-03
   1.87250000E+03   5.00000000E-01   5.00000000E-01  -1.75962133E-03   6.27858793E-07   5.26017575E-03   3.03303442E-05   5.39348542E-02   3.31420576E-05   6.10148018E-23   2.21481084E-07   9.96664878E-06   6.07042601E-01   7.53035686E-05   1.32888650E-02   8.38176301E-10   5.13210577E-01   1.27969372E-02   1.97946887E-08   4.42962168E-04   1.88258921E-06   4.31888114E-05   4.52170832E-03
   1.90750000E+03   5.00000000E-01   5.00000000E-01  -3.12906040E-03   1.06050738E-06   5.27797160E-03   4.62249070E-06   4.99423878E-02   3.92244934E-06   1.80467842E-25   2.22230383E-07   1.00003672E-05   6.09096304E-01   7.55583303E-05   1.33338230E-02   8.54946455E-10   5.14137334E-01   7.52430640E-03   1.98589911E-08   4.44460766E-04   1.88895826E-06   4.33349247E-05   3.90754795E-03
   1.94250000E+03   5.00000000E-01   5.00000000E-01  -3.84879958E-03   1.92995392E-06   5.29611260E-03   1.64989339E-06   4.76043553E-02   1.47984620E-06   7.70957428E-27   2.22994215E-07   1.00347397E-05   6.11189839E-01   7.58180331E-05   1.33796529E-02   8.71878564E-10   5.15419195E-01   4.43919556E-03   1.99245716E-08   4.45988430E-04   1.89545083E-06   4.34838719E-05   3.08665645E-03
   1.97750000E+03   5.00000000E-01   5.00000000E-01  -4.24348482E-03   2.91841914E-06   5.31460395E-03   9.19676497E-07   4.64000126E-02   8.94480417E-07   1.43745423E-27   2.23772798E-07   1.00697759E-05   6.13323805E-01   7.60827513E-05   1.34263679E-02   8.88976116E-10   5.17041088E-01   2.80481890E-03   1.99914492E-08   4.47545596E-04   1.90206878E-06   4.36356956E-05   2.48804177E-03
   2.01250000E+03   5.00000000E-01   5.00000000E-01  -4.49859441E-03   3.88874887E-06   5.33345102E-03   6.29936943E-07   4.58243870E-02   6.58634430E-07   5.20084819E-28   2.24566359E-07   1.01054861E-05   6.15498822E-01   7.63525619E-05   1.34739815E-02   9.06242690E-10   5.18887952E-01   1.96211638E-03   2.00596437E-08   4.49132717E-04   1.90881405E-06   4.37904399E-05   2.10348841E-03
   2.04750000E+03   5.00000000E-01   5.00000000E-01  -4.67671602E-03   4.81515672E-06   5.35265937E-03   4.83249972E-07   4.55566053E-02   5.39496138E-07   2.67518391E-28   2.25375131E-07   1.01418809E-05   6.17715533E-01   7.66275447E-05   1.35225079E-02   9.23681952E-10   5.20882839E-01   1.51956299E-03   2.01291755E-08   4.50750263E-04   1.91568862E-06   4.39481506E-05   1.85238551E-03
   2.08250000E+03   5.00000000E-01   5.00000000E-01  -4.80508905E-03   5.69889185E-06   5.37223478E-03   3.97529868E-07   4.54287950E-02   4.71619657E-07   1.70223071E-28   2.26199359E-07   1.01789712E-05   6.19974603E-01   7.69077821E-05   1.35719615E-02   9.41297665E-10   5.22983303E-01   1.27397213E-03   2.02000657E-08   4.52398718E-04   1.92269455E-06   4.41088750E-05   1.68123881E-03
   2.11750000E+03   5.00000000E-01   5.00000000E-01  -4.89831778E-03   6.54977314E-06   5.39218320E-03   3.42235940E-07   4.53604055E-02   4.30034202E-07   1.24269012E-28   2.27039292E-07   1.02167682E-05   6.22276720E-01   7.71933594E-05   1.36223575E-02   9.59093689E-10   5.25165706E-01   1.12529590E-03   2.02723362E-08   4.54078585E-04   1.92983399E-06   4.42726620E-05   1.55937569E-03
   2.15250000E+03   5.00000000E-01   5.00000000E-01  -4.96522633E-03   7.37990559E-06   5.41251079E-03   3.03812826E-07   4.53147985E-02   4.03406341E-07   9.94973885E-29   2.27895191E-07   1.02552836E-05   6.24622595E-01   7.74843649E-05   1.36737115E-02   9.77073981E-10   5.27416237E-01   1.02522295E-03   2.03460096E-08   4.55790382E-04   1.93710912E-06   4.44395622E-05   1.46907049E-03
   2.18750000E+03   5.00000000E-01   5.00000000E-01  -5.01158631E-03   8.20132540E-06   5.43322392E-03   2.75479833E-07   4.52762264E-02   3.85950826E-07   8.49062127E-29   2.28767323E-07   1.02945295E-05   6.27012963E-01   7.77808899E-05   1.37260394E-02   9.95242606E-10   5.29726399E-01   9.50517028E-04   2.04211094E-08   4.57534646E-04   1.94452225E-06   4.46096280E-05   1.39969444E-03
   2.22250000E+03   5.00000000E-01   5.00000000E-01  -5.04140549E-03   9.02526487E-06   5.45432919E-03   2.53531995E-07   4.52385440E-02   3.74441341E-07   7.57739941E-29   2.29655966E-07   1.03345185E-05   6.29448585E-01   7.80830284E-05   1.37793580E-02   1.01360373E-09   5.32090738E-01   8.89941433E-04   2.04976596E-08   4.59311932E-04   1.95207571E-06   4.47829134E-05   1.34461352E-03
   2.25750000E+03   5.00000000E-01   5.00000000E-01  -5.05759985E-03   9.86203518E-06   5.47583339E-03   2.35803838E-07   4.51998642E-02   3.66948790E-07   6.98117897E-29   2.30561406E-07   1.03752633E-05   6.31930244E-01   7.83908780E-05   1.38336844E-02   1.03216164E-09   5.34505676E-01   8.37988471E-04   2.05756853E-08   4.61122812E-04   1.95977195E-06   4.49594741E-05   1.29953586E-03
   2.29250000E+03   5.00000000E-01   5.00000000E-01  -5.06236943E-03   1.07211227E-05   5.49774355E-03   2.20962556E-07   4.51600684E-02   3.62253744E-07   6.57994700E-29   2.31483939E-07   1.04167773E-05   6.34458753E-01   7.87045392E-05   1.38890363E-02   1.05092074E-09   5.36968882E-01   7.91889402E-04   2.06552124E-08   4.62967878E-04   1.96761348E-06   4.51393681E-05   1.26160176E-03
   2.32750000E+03   5.00000000E-01   5.00000000E-01  -5.05742459E-03   1.16113752E-05   5.52006693E-03   2.08154702E-07   4.51196631E-02   3.59550218E-07   6.30355081E-29   2.32423871E-07   1.04590742E-05   6.37034948E-01   7.90241160E-05   1.39454322E-02   1.06988552E-09   5.39478930E-01   7.50184416E-04   2.07362674E-08   4.64847741E-04   1.97560290E-06   4.53226548E-05   1.22885827E-03
   2.36250000E+03   5.00000000E-01   5.00000000E-01  -5.04413214E-03   1.25412074E-05   5.54281102E-03   1.96816937E-07   4.50792782E-02   3.58285780E-07   6.10910502E-29   2.33381517E-07   1.05021683E-05   6.39659696E-01   7.93497157E-05   1.40028910E-02   1.08906064E-09   5.42035098E-01   7.12047096E-04   2.08188780E-08   4.66763033E-04   1.98374289E-06   4.55093958E-05   1.19994373E-03
   2.39750000E+03   5.00000000E-01   5.00000000E-01  -5.02361392E-03   1.35187899E-05   5.56598357E-03   1.86568795E-07   4.50394714E-02   3.58070308E-07   5.96905616E-29   2.34357203E-07   1.05460741E-05   6.42333889E-01   7.96814490E-05   1.40614322E-02   1.10845086E-09   5.44637241E-01   6.76976600E-04   2.09030726E-08   4.68714406E-04   1.99203623E-06   4.56996546E-05   1.17389311E-03
   2.43250000E+03   5.00000000E-01   5.00000000E-01  -4.99681469E-03   1.45522204E-05   5.58959257E-03   1.77148942E-07   4.50006547E-02   3.58621472E-07   5.86498579E-29   2.35351266E-07   1.05908070E-05   6.45058450E-01   8.00194305E-05   1.41210760E-02   1.12806108E-09   5.47285704E-01   6.44645359E-04   2.09888805E-08   4.70702532E-04   2.00048576E-06   4.58934969E-05   1.15001376E-03
   2.46750000E+03   5.00000000E-01   5.00000000E-01  -4.96454989E-03   1.56496815E-05   5.61364627E-03   1.68375725E-07   4.49630657E-02   3.59730840E-07   5.78420383E-29   2.36364054E-07   1.06363824E-05   6.47834331E-01   8.03637782E-05   1.41818432E-02   1.14789633E-09   5.49981249E-01   6.14810040E-04   2.10763322E-08   4.72728107E-04   2.00909446E-06   4.60909905E-05   1.12780389E-03
   2.50250000E+03   5.00000000E-01   5.00000000E-01  -4.92753894E-03   1.68195837E-05   5.63815320E-03   1.60121986E-07   4.49267783E-02   3.61242250E-07   5.71778520E-29   2.37395924E-07   1.06828166E-05   6.50662515E-01   8.07146142E-05   1.42437555E-02   1.16796180E-09   5.52724985E-01   5.87270524E-04   2.11654590E-08   4.74791848E-04   2.01786536E-06   4.62922052E-05   1.10689760E-03
   2.53750000E+03   5.00000000E-01   5.00000000E-01  -4.88642846E-03   1.80706876E-05   5.66312215E-03   1.52298504E-07   4.48917322E-02   3.63037602E-07   5.65938794E-29   2.38447248E-07   1.07301262E-05   6.53544019E-01   8.10720645E-05   1.43068349E-02   1.18826281E-09   5.55518299E-01   5.61853451E-04   2.12562932E-08   4.76894497E-04   2.02680161E-06   4.64972134E-05   1.08702745E-03
   2.57250000E+03   5.00000000E-01   5.00000000E-01  -4.84180770E-03   1.94121839E-05   5.68856221E-03   1.44842793E-07   4.48577625E-02   3.65027094E-07   5.60450876E-29   2.39518409E-07   1.07783284E-05   6.56479891E-01   8.14362590E-05   1.43711045E-02   1.20880483E-09   5.58362791E-01   5.38399122E-04   2.13488682E-08   4.79036818E-04   2.03590648E-06   4.67060897E-05   1.06799977E-03
   2.60750000E+03   5.00000000E-01   5.00000000E-01  -4.79421712E-03   2.08537605E-05   5.71448276E-03   1.37711501E-07   4.48246345E-02   3.67142902E-07   5.55001086E-29   2.40609800E-07   1.08274410E-05   6.59471212E-01   8.18073321E-05   1.44365880E-02   1.22959352E-09   5.61260200E-01   5.16758203E-04   2.14432186E-08   4.81219601E-04   2.04518330E-06   4.69189111E-05   1.04967708E-03