 TITLE = "Total Concentrations" 
VARIABLES = "X"          "Y"              "Z"            "H+"             "Al+++"          "CO2(aq)"        "Mg++"           "Ca++"           "Fe++"           "Fe+++"          "Ba++"           "Sr++"           "Cl-"            "F-"             "K+"             "HS-"            "Na+"            "SO4--"          "O2(aq)"         "B(OH)3(aq)"     "HPO4--"         "NO3-"           "H4SiO4(aq)"    
 ZONE I=         100 , J=           1 , K=           1  F=POINT
   1.75000000E+01   5.00000000E-01   5.00000000E-01  -4.67789184E-03   8.57066608E-12   4.75009711E-03   4.97189708E-02   1.07159777E-02   9.05389223E-04   5.01672160E-13   2.00004089E-07   9.00018399E-06   5.48177749E-01   6.80013902E-05   1.20002453E-02   1.18030830E-10   4.74267868E-01   2.80005724E-02   1.79967100E-08   4.00008177E-04   1.70003475E-06   3.90007973E-05   4.42292414E-04
   5.25000000E+01   5.00000000E-01   5.00000000E-01  -4.67045828E-03   1.25833395E-11   4.75054892E-03   4.87349699E-02   1.09643234E-02   1.56476007E-03   4.38749819E-13   2.00023112E-07   9.00104005E-06   5.48229890E-01   6.80078582E-05   1.20013867E-02   1.32218566E-10   4.74469337E-01   2.80032358E-02   1.79955450E-08   4.00046225E-04   1.70019645E-06   3.90045069E-05   5.33982801E-04
   8.75000000E+01   5.00000000E-01   5.00000000E-01  -4.64395535E-03   1.63754987E-11   4.75143374E-03   4.80701649E-02   1.11426946E-02   1.99688665E-03   4.71721930E-13   2.00060368E-07   9.00271656E-06   5.48332001E-01   6.80205251E-05   1.20036221E-02   1.42370443E-10   4.74661773E-01   2.80084516E-02   1.79968416E-08   4.00120736E-04   1.70051313E-06   3.90117717E-05   5.86303690E-04
   1.22500000E+02   5.00000000E-01   5.00000000E-01  -4.59943410E-03   2.06996657E-11   4.75259703E-03   4.76379098E-02   1.12633545E-02   2.26456566E-03   5.35497086E-13   2.00109348E-07   9.00492068E-06   5.48466249E-01   6.80371785E-05   1.20065609E-02   1.49177748E-10   4.74850130E-01   2.80153089E-02   1.79998734E-08   4.00218697E-04   1.70092946E-06   3.90213230E-05   6.31960475E-04
   1.57500000E+02   5.00000000E-01   5.00000000E-01  -4.54298341E-03   2.57746623E-11   4.75391301E-03   4.73573513E-02   1.13422985E-02   2.42785998E-03   6.23012150E-13   2.00164758E-07   9.00741412E-06   5.48618118E-01   6.80560178E-05   1.20098855E-02   1.53568138E-10   4.75034405E-01   2.80230662E-02   1.80039750E-08   4.00329517E-04   1.70140045E-06   3.90321279E-05   6.76772186E-04
   1.92500000E+02   5.00000000E-01   5.00000000E-01  -4.47831308E-03   3.17822709E-11   4.75529335E-03   4.71679839E-02   1.13935512E-02   2.52983718E-03   7.33596485E-13   2.00222878E-07   9.01002951E-06   5.48777414E-01   6.80757785E-05   1.20133727E-02   1.56357634E-10   4.75214119E-01   2.80312030E-02   1.80086457E-08   4.00445756E-04   1.70189446E-06   3.90434612E-05   7.21771108E-04
   2.27500000E+02   5.00000000E-01   5.00000000E-01  -4.40700899E-03   3.89018307E-11   4.75668277E-03   4.70299836E-02   1.14275301E-02   2.59738982E-03   8.68413927E-13   2.00281380E-07   9.01266209E-06   5.48937758E-01   6.80956691E-05   1.20168828E-02   1.58147513E-10   4.75388993E-01   2.80393933E-02   1.80135537E-08   4.00562760E-04   1.70239173E-06   3.90548691E-05   7.67220310E-04
   2.62500000E+02   5.00000000E-01   5.00000000E-01  -4.32947834E-03   4.72906814E-11   4.75805025E-03   4.69193898E-02   1.14511445E-02   2.64584747E-03   1.03001310E-12   2.00338958E-07   9.01525310E-06   5.49095569E-01   6.81152456E-05   1.20203375E-02   1.59339028E-10   4.75559011E-01   2.80474542E-02   1.80184999E-08   4.00677915E-04   1.70288114E-06   3.90660968E-05   8.13380812E-04
   2.97500000E+02   5.00000000E-01   5.00000000E-01  -4.24555113E-03   5.71518568E-11   4.75938065E-03   4.68224691E-02   1.14686480E-02   2.68358580E-03   1.22135567E-12   2.00394975E-07   9.01777387E-06   5.49249103E-01   6.81342914E-05   1.20236985E-02   1.60183768E-10   4.75724324E-01   2.80552966E-02   1.80233759E-08   4.00789950E-04   1.70335729E-06   3.90770201E-05   8.60118661E-04
   3.32500000E+02   5.00000000E-01   5.00000000E-01  -4.15490646E-03   6.87132102E-11   4.76066842E-03   4.67315787E-02   1.14825941E-02   2.71504425E-03   1.44628849E-12   2.00449197E-07   9.02021385E-06   5.49397716E-01   6.81527269E-05   1.20269518E-02   1.60833038E-10   4.75885218E-01   2.80628876E-02   1.80281298E-08   4.00898393E-04   1.70381817E-06   3.90875934E-05   9.07056435E-04
   3.67500000E+02   5.00000000E-01   5.00000000E-01  -4.05729230E-03   8.21683735E-11   4.76191334E-03   4.66427585E-02   1.14944618E-02   2.74238128E-03   1.71036473E-12   2.00501614E-07   9.02257265E-06   5.49541384E-01   6.81705489E-05   1.20300969E-02   1.61375248E-10   4.76042060E-01   2.80702261E-02   1.80327428E-08   4.01003229E-04   1.70426372E-06   3.90978148E-05   9.53886422E-04
   4.02500000E+02   5.00000000E-01   5.00000000E-01  -3.95256364E-03   9.77270112E-11   4.76311794E-03   4.65541004E-02   1.15050719E-02   2.76659253E-03   2.02032091E-12   2.00552335E-07   9.02485505E-06   5.49680400E-01   6.81877937E-05   1.20331401E-02   1.61861022E-10   4.76195201E-01   2.80773269E-02   1.80372143E-08   4.01104669E-04   1.70469484E-06   3.91077052E-05   1.00015253E-03
   4.37500000E+02   5.00000000E-01   5.00000000E-01  -3.84077133E-03   1.15594914E-10   4.76428599E-03   4.64648357E-02   1.15148792E-02   2.78809850E-03   2.38465850E-12   2.00601515E-07   9.02706818E-06   5.49815195E-01   6.82045152E-05   1.20360909E-02   1.62318950E-10   4.76344950E-01   2.80842122E-02   1.80415527E-08   4.01203030E-04   1.70511288E-06   3.91172955E-05   1.04528927E-03
   4.72500000E+02   5.00000000E-01   5.00000000E-01  -3.72220238E-03   1.35946089E-10   4.76542163E-03   4.63748598E-02   1.15241461E-02   2.80702205E-03   2.81434945E-12   2.00649332E-07   9.02921992E-06   5.49946252E-01   6.82207728E-05   1.20389599E-02   1.62765028E-10   4.76491551E-01   2.80909065E-02   1.80457706E-08   4.01298663E-04   1.70551932E-06   3.91266197E-05   1.08869377E-03
   5.07500000E+02   5.00000000E-01   5.00000000E-01  -3.59737774E-03   1.58914025E-10   4.76652900E-03   4.62844636E-02   1.15330348E-02   2.82334121E-03   3.32342011E-12   2.00695958E-07   9.03131810E-06   5.50074047E-01   6.82366256E-05   1.20417575E-02   1.63208166E-10   4.76635176E-01   2.80974342E-02   1.80498819E-08   4.01391915E-04   1.70591564E-06   3.91357118E-05   1.12973473E-03
   5.42500000E+02   5.00000000E-01   5.00000000E-01  -3.46704132E-03   1.84574884E-10   4.76761199E-03   4.61941855E-02   1.15416557E-02   2.83696995E-03   3.92984366E-12   2.00741557E-07   9.03337008E-06   5.50199028E-01   6.82521295E-05   1.20444934E-02   1.63653325E-10   4.76775930E-01   2.81038181E-02   1.80539002E-08   4.01483115E-04   1.70630324E-06   3.91446037E-05   1.16777712E-03
   5.77500000E+02   5.00000000E-01   5.00000000E-01  -3.33212953E-03   2.12930588E-10   4.76867418E-03   4.61047174E-02   1.15500911E-02   2.84780184E-03   4.65667557E-12   2.00786281E-07   9.03538266E-06   5.50321609E-01   6.82673357E-05   1.20471769E-02   1.64103283E-10   4.76913861E-01   2.81100795E-02   1.80578386E-08   4.01572563E-04   1.70668339E-06   3.91533249E-05   1.20221581E-03
   6.12500000E+02   5.00000000E-01   5.00000000E-01  -3.19372070E-03   2.43897301E-10   4.76971882E-03   4.60168310E-02   1.15584055E-02   2.85573653E-03   5.53341919E-12   2.00830266E-07   9.03736197E-06   5.50442163E-01   6.82822904E-05   1.20498160E-02   1.64559620E-10   4.77048978E-01   2.81162373E-02   1.80617092E-08   4.01660532E-04   1.70705726E-06   3.91619019E-05   1.23251452E-03
   6.47500000E+02   5.00000000E-01   5.00000000E-01  -3.05296948E-03   2.77303374E-10   4.77074882E-03   4.59313095E-02   1.15666509E-02   2.86069924E-03   6.59761053E-12   2.00873634E-07   9.03931355E-06   5.50561029E-01   6.82970357E-05   1.20524181E-02   1.65023260E-10   4.77181280E-01   2.81223089E-02   1.80655227E-08   4.01747269E-04   1.70742589E-06   3.91703587E-05   1.25824845E-03
   6.82500000E+02   5.00000000E-01   5.00000000E-01  -2.91103333E-03   3.12900570E-10   4.77176681E-03   4.58488804E-02   1.15748683E-02   2.86265743E-03   7.89656985E-12   2.00916497E-07   9.04124238E-06   5.50678509E-01   6.83116091E-05   1.20549898E-02   1.65494771E-10   4.77310781E-01   2.81283097E-02   1.80692891E-08   4.01832995E-04   1.70779023E-06   3.91787170E-05   1.27914612E-03
   7.17500000E+02   5.00000000E-01   5.00000000E-01  -2.76900150E-03   3.50390287E-10   4.77277518E-03   4.57701539E-02   1.15830884E-02   2.86163548E-03   9.48922474E-12   2.00958955E-07   9.04315296E-06   5.50794878E-01   6.83260446E-05   1.20575373E-02   1.65974527E-10   4.77437534E-01   2.81342537E-02   1.80730173E-08   4.01917909E-04   1.70815112E-06   3.91869962E-05   1.29512296E-03
   7.52500000E+02   5.00000000E-01   5.00000000E-01  -2.62783705E-03   3.89462887E-10   4.77377604E-03   4.56955734E-02   1.15913335E-02   2.85772676E-03   1.14478706E-11   2.01001096E-07   9.04504934E-06   5.50910381E-01   6.83403728E-05   1.20600658E-02   1.66462801E-10   4.77561651E-01   2.81401536E-02   1.80767153E-08   4.02002193E-04   1.70850932E-06   3.91952138E-05   1.30629870E-03
   7.87500000E+02   5.00000000E-01   5.00000000E-01  -2.48834049E-03   4.29844366E-10   4.77477135E-03   4.56253848E-02   1.15996187E-02   2.85110195E-03   1.38597070E-11   2.01043004E-07   9.04693519E-06   5.51025243E-01   6.83546214E-05   1.20625802E-02   1.66959809E-10   4.77683312E-01   2.81460207E-02   1.80803904E-08   4.02086008E-04   1.70886554E-06   3.92033858E-05   1.31299231E-03
   8.22500000E+02   5.00000000E-01   5.00000000E-01  -2.35113928E-03   4.71341427E-10   4.77576286E-03   4.55596269E-02   1.16079553E-02   2.84201252E-03   1.68279941E-11   2.01084752E-07   9.04881384E-06   5.51139667E-01   6.83688157E-05   1.20650851E-02   1.67465742E-10   4.77802760E-01   2.81518654E-02   1.80840493E-08   4.02169504E-04   1.70922039E-06   3.92115267E-05   1.31569309E-03
   8.57500000E+02   5.00000000E-01   5.00000000E-01  -2.21670172E-03   5.13874274E-10   4.77675219E-03   4.54981438E-02   1.16163551E-02   2.83078779E-03   2.04727486E-11   2.01126408E-07   9.05068836E-06   5.51253839E-01   6.83829788E-05   1.20675845E-02   1.67980779E-10   4.77920294E-01   2.81576972E-02   1.80876981E-08   4.02252816E-04   1.70957447E-06   3.92196496E-05   1.31501400E-03
   8.92500000E+02   5.00000000E-01   5.00000000E-01  -2.08536857E-03   5.57487855E-10   4.77774082E-03   4.54406187E-02   1.16248344E-02   2.81782364E-03   2.49310310E-11   2.01168034E-07   9.05256155E-06   5.51367930E-01   6.83971317E-05   1.20700821E-02   1.68505094E-10   4.78036249E-01   2.81635249E-02   1.80913423E-08   4.02336069E-04   1.70992829E-06   3.92277667E-05   1.31163881E-03
   9.27500000E+02   5.00000000E-01   5.00000000E-01  -1.95739118E-03   6.02339629E-10   4.77873010E-03   4.53866248E-02   1.16334131E-02   2.80356180E-03   3.03569290E-11   2.01209689E-07   9.05443599E-06   5.51482097E-01   6.84112941E-05   1.20725813E-02   1.69038862E-10   4.78150975E-01   2.81693565E-02   1.80949871E-08   4.02419377E-04   1.71028235E-06   3.92358893E-05   1.30627633E-03
   9.62500000E+02   5.00000000E-01   5.00000000E-01  -1.83296446E-03   6.48673837E-10   4.77972132E-03   4.53356865E-02   1.16421075E-02   2.78846331E-03   3.69211448E-11   2.01251424E-07   9.05631407E-06   5.51596486E-01   6.84254841E-05   1.20750854E-02   1.69582259E-10   4.78264823E-01   2.81751994E-02   1.80986373E-08   4.02502848E-04   1.71063710E-06   3.92440276E-05   1.29962858E-03
   9.97500000E+02   5.00000000E-01   5.00000000E-01  -1.71224668E-03   6.96807740E-10   4.78071563E-03   4.52873296E-02   1.16509193E-02   2.77298694E-03   4.48093492E-11   2.01293290E-07   9.05819804E-06   5.51711234E-01   6.84397185E-05   1.20775974E-02   1.70135469E-10   4.78378125E-01   2.81810606E-02   1.81022973E-08   4.02586579E-04   1.71099296E-06   3.92521915E-05   1.29236728E-03
   1.03250000E+03   5.00000000E-01   5.00000000E-01  -1.59536668E-03   7.47162768E-10   4.78171415E-03   4.52410919E-02   1.16598340E-02   2.75758951E-03   5.42173913E-11   2.01335333E-07   9.06008997E-06   5.51826466E-01   6.84540131E-05   1.20801200E-02   1.70698678E-10   4.78491188E-01   2.81869466E-02   1.81059711E-08   4.02670665E-04   1.71135033E-06   3.92603899E-05   1.28509986E-03
   1.06750000E+03   5.00000000E-01   5.00000000E-01  -1.48243406E-03   8.00309762E-10   4.78271791E-03   4.51964904E-02   1.16688416E-02   2.74274579E-03   6.53436117E-11   2.01377596E-07   9.06199184E-06   5.51942304E-01   6.84683828E-05   1.20826558E-02   1.71272079E-10   4.78604285E-01   2.81928635E-02   1.81096628E-08   4.02755193E-04   1.71170957E-06   3.92686313E-05   1.27832886E-03
   1.10250000E+03   5.00000000E-01   5.00000000E-01  -1.37356267E-03   8.56918478E-10   4.78372790E-03   4.51530069E-02   1.16779636E-02   2.72894871E-03   7.83842103E-11   2.01420122E-07   9.06390550E-06   5.52058860E-01   6.84828415E-05   1.20852073E-02   1.71855871E-10   4.78717662E-01   2.81988171E-02   1.81133760E-08   4.02840244E-04   1.71207104E-06   3.92769238E-05   1.27245343E-03
   1.13750000E+03   5.00000000E-01   5.00000000E-01  -1.26888008E-03   9.17629935E-10   4.78474505E-03   4.51101319E-02   1.16872523E-02   2.71667028E-03   9.35335130E-11   2.01462949E-07   9.06583272E-06   5.52176242E-01   6.84974028E-05   1.20877770E-02   1.72450262E-10   4.78831532E-01   2.82048129E-02   1.81171142E-08   4.02925899E-04   1.71243507E-06   3.92852751E-05   1.26783096E-03
   1.17250000E+03   5.00000000E-01   5.00000000E-01  -1.16850209E-03   9.82987909E-10   4.78577024E-03   4.50674409E-02   1.16967476E-02   2.70631509E-03   1.10981204E-10   2.01506115E-07   9.06777518E-06   5.52294553E-01   6.85120792E-05   1.20903669E-02   1.73055462E-10   4.78946083E-01   2.82108561E-02   1.81208808E-08   4.03012230E-04   1.71280198E-06   3.92936925E-05   1.26486225E-03
   1.20750000E+03   5.00000000E-01   5.00000000E-01  -1.07248585E-03   1.05357935E-09   4.78680432E-03   4.50246164E-02   1.17064254E-02   2.69822491E-03   1.30891029E-10   2.01549656E-07   9.06973451E-06   5.52413890E-01   6.85268829E-05   1.20929793E-02   1.73671692E-10   4.79061476E-01   2.82169518E-02   1.81246788E-08   4.03099311E-04   1.71317207E-06   3.93021829E-05   1.26402502E-03
   1.24250000E+03   5.00000000E-01   5.00000000E-01  -9.80796661E-04   1.13049907E-09   4.78784813E-03   4.49812965E-02   1.17162219E-02   2.69278762E-03   1.53343310E-10   2.01593606E-07   9.07171225E-06   5.52534349E-01   6.85418259E-05   1.20956163E-02   1.74299179E-10   4.79177856E-01   2.82231048E-02   1.81285114E-08   4.03187211E-04   1.71354565E-06   3.93107531E-05   1.26576418E-03
   1.27750000E+03   5.00000000E-01   5.00000000E-01  -8.93358454E-04   1.21548676E-09   4.78890246E-03   4.49368935E-02   1.17261430E-02   2.69053241E-03   1.78296475E-10   2.01637998E-07   9.07370991E-06   5.52656022E-01   6.85569194E-05   1.20982799E-02   1.74938157E-10   4.79295351E-01   2.82293197E-02   1.81323816E-08   4.03275996E-04   1.71392298E-06   3.93194096E-05   1.27038508E-03
   1.31250000E+03   5.00000000E-01   5.00000000E-01  -8.10133898E-04   1.31030625E-09   4.78996807E-03   4.48906511E-02   1.17363276E-02   2.69204842E-03   2.05629552E-10   2.01682866E-07   9.07572897E-06   5.52778997E-01   6.85721744E-05   1.21009720E-02   1.75588868E-10   4.79414077E-01   2.82356012E-02   1.81362923E-08   4.03365732E-04   1.71430436E-06   3.93281589E-05   1.27815115E-03
   1.34750000E+03   5.00000000E-01   5.00000000E-01  -7.31113227E-04   1.41608391E-09   4.79104572E-03   4.48419395E-02   1.17469459E-02   2.69778411E-03   2.35206793E-10   2.01728241E-07   9.07777084E-06   5.52903362E-01   6.85876019E-05   1.21036945E-02   1.76251563E-10   4.79534139E-01   2.82419537E-02   1.81402462E-08   4.03456482E-04   1.71469005E-06   3.93370070E-05   1.28952943E-03
   1.38250000E+03   5.00000000E-01   5.00000000E-01  -6.56269258E-04   1.53216875E-09   4.79213616E-03   4.47909405E-02   1.17578484E-02   2.70769039E-03   2.66998110E-10   2.01774154E-07   9.07983693E-06   5.53029202E-01   6.86032123E-05   1.21064492E-02   1.76926498E-10   4.79655637E-01   2.82483815E-02   1.81442461E-08   4.03548308E-04   1.71508031E-06   3.93459600E-05   1.30567104E-03
   1.41750000E+03   5.00000000E-01   5.00000000E-01  -5.85370382E-04   1.65797687E-09   4.79324010E-03   4.47389543E-02   1.17683320E-02   2.72105411E-03   3.00830511E-10   2.01820636E-07   9.08192861E-06   5.53156601E-01   6.86190162E-05   1.21092381E-02   1.77613941E-10   4.79778662E-01   2.82548889E-02   1.81482947E-08   4.03641272E-04   1.71547540E-06   3.93550240E-05   1.32837084E-03
   1.45250000E+03   5.00000000E-01   5.00000000E-01  -5.17739821E-04   1.80391421E-09   4.79435827E-03   4.46859146E-02   1.17780701E-02   2.73793093E-03   3.35064742E-10   2.01867717E-07   9.08404725E-06   5.53285642E-01   6.86350237E-05   1.21120630E-02   1.78314166E-10   4.79903301E-01   2.82614802E-02   1.81523947E-08   4.03735433E-04   1.71587559E-06   3.93642047E-05   1.35773656E-03
   1.48750000E+03   5.00000000E-01   5.00000000E-01  -4.53305532E-04   1.97704511E-09   4.79549138E-03   4.46306422E-02   1.17875026E-02   2.75902628E-03   3.68690168E-10   2.01915426E-07   9.08619419E-06   5.53416406E-01   6.86512450E-05   1.21149256E-02   1.79027457E-10   4.80029638E-01   2.82681596E-02   1.81565487E-08   4.03830853E-04   1.71628112E-06   3.93735082E-05   1.39284208E-03
   1.52250000E+03   5.00000000E-01   5.00000000E-01  -3.92576631E-04   2.16575885E-09   4.79664013E-03   4.45742395E-02   1.17965562E-02   2.78356705E-03   4.03291169E-10   2.01963795E-07   9.08837077E-06   5.53548976E-01   6.86676903E-05   1.21178277E-02   1.79754107E-10   4.80157758E-01   2.82749312E-02   1.81607593E-08   4.03927590E-04   1.71669226E-06   3.93829400E-05   1.43469703E-03
   1.55750000E+03   5.00000000E-01   5.00000000E-01  -3.35323196E-04   2.36120988E-09   4.79780523E-03   4.45200880E-02   1.18041678E-02   2.80912289E-03   4.39770094E-10   2.02012852E-07   9.09057833E-06   5.53683433E-01   6.86843696E-05   1.21207711E-02   1.80494416E-10   4.80287743E-01   2.82817991E-02   1.81650292E-08   4.04025703E-04   1.71710924E-06   3.93925061E-05   1.48573638E-03
   1.59250000E+03   5.00000000E-01   5.00000000E-01  -2.80340883E-04   2.58798520E-09   4.79898738E-03   4.44684395E-02   1.18102078E-02   2.83497461E-03   4.74696972E-10   2.02062626E-07   9.09281819E-06   5.53819857E-01   6.87012930E-05   1.21237576E-02   1.81248698E-10   4.80419672E-01   2.82887675E-02   1.81693610E-08   4.04125253E-04   1.71753233E-06   3.94022122E-05   1.54536379E-03
   1.62750000E+03   5.00000000E-01   5.00000000E-01  -2.27256731E-04   2.85912966E-09   4.80018729E-03   4.44173026E-02   1.18159112E-02   2.86169656E-03   5.06961187E-10   2.02113149E-07   9.09509171E-06   5.53958331E-01   6.87184707E-05   1.21267889E-02   1.82017274E-10   4.80553621E-01   2.82958407E-02   1.81737572E-08   4.04226298E-04   1.71796177E-06   3.94120641E-05   1.61148563E-03
   1.66250000E+03   5.00000000E-01   5.00000000E-01  -1.76166576E-04   3.16087760E-09   4.80140567E-03   4.43664738E-02   1.18227717E-02   2.88805041E-03   5.38990534E-10   2.02164449E-07   9.09740021E-06   5.54098936E-01   6.87359127E-05   1.21298669E-02   1.82800476E-10   4.80689674E-01   2.83030227E-02   1.81782205E-08   4.04328898E-04   1.71839782E-06   3.94220676E-05   1.68375027E-03
   1.69750000E+03   5.00000000E-01   5.00000000E-01  -1.26535815E-04   3.49091078E-09   4.80264323E-03   4.43162948E-02   1.18317896E-02   2.91243042E-03   5.71447457E-10   2.02216557E-07   9.09974507E-06   5.54241755E-01   6.87536294E-05   1.21329934E-02   1.83598647E-10   4.80827911E-01   2.83103177E-02   1.81827536E-08   4.04433114E-04   1.71884073E-06   3.94322286E-05   1.76207559E-03
   1.73250000E+03   5.00000000E-01   5.00000000E-01  -7.75649935E-05   3.86337560E-09   4.80390070E-03   4.42646031E-02   1.18432506E-02   2.93631853E-03   6.03522656E-10   2.02269503E-07   9.10212764E-06   5.54386871E-01   6.87716310E-05   1.21361702E-02   1.84412141E-10   4.80968412E-01   2.83177301E-02   1.81873590E-08   4.04539006E-04   1.71929078E-06   3.94425531E-05   1.84425196E-03
   1.76750000E+03   5.00000000E-01   5.00000000E-01  -2.88450951E-05   4.27232635E-09   4.80517880E-03   4.42085554E-02   1.18568487E-02   2.96266342E-03   6.37134798E-10   2.02323318E-07   9.10454930E-06   5.54534369E-01   6.87899281E-05   1.21393991E-02   1.85241324E-10   4.81111262E-01   2.83252642E-02   1.81920396E-08   4.04646636E-04   1.71974820E-06   3.94530470E-05   1.92767227E-03
   1.80250000E+03   5.00000000E-01   5.00000000E-01   1.99365136E-05   4.68991249E-09   4.80647828E-03   4.41475147E-02   1.18719301E-02   2.99260292E-03   6.76016718E-10   2.02378033E-07   9.10701147E-06   5.54684333E-01   6.88085311E-05   1.21426820E-02   1.86086574E-10   4.81256545E-01   2.83329242E-02   1.81967980E-08   4.04756065E-04   1.72021328E-06   3.94637164E-05   2.01157037E-03
   1.83750000E+03   5.00000000E-01   5.00000000E-01   6.91601479E-05   5.07293583E-09   4.80779988E-03   4.40842957E-02   1.18874099E-02   3.02422029E-03   7.24630393E-10   2.02433679E-07   9.10951557E-06   5.54836851E-01   6.88274510E-05   1.21460208E-02   1.86948280E-10   4.81404350E-01   2.83407147E-02   1.82016370E-08   4.04867359E-04   1.72068627E-06   3.94745675E-05   2.09775725E-03
   1.87250000E+03   5.00000000E-01   5.00000000E-01   1.19300084E-04   5.37497201E-09   4.80914438E-03   4.40244599E-02   1.19018659E-02   3.05314327E-03   7.87652720E-10   2.02490290E-07   9.11206304E-06   5.54992011E-01   6.88466986E-05   1.21494174E-02   1.87826846E-10   4.81554763E-01   2.83486401E-02   1.82065594E-08   4.04980580E-04   1.72116746E-06   3.94856065E-05   2.18978014E-03
   1.90750000E+03   5.00000000E-01   5.00000000E-01   1.71637352E-04   5.61769947E-09   4.81051256E-03   4.39718674E-02   1.19147069E-02   3.07546899E-03   8.63863087E-10   2.02547897E-07   9.11465537E-06   5.55149903E-01   6.88662850E-05   1.21528738E-02   1.88722687E-10   4.81707868E-01   2.83567051E-02   1.82115682E-08   4.05095794E-04   1.72165713E-06   3.94968399E-05   2.28924971E-03
   1.94250000E+03   5.00000000E-01   5.00000000E-01   2.28158911E-04   5.89410386E-09   4.81190519E-03   4.39239856E-02   1.19268339E-02   3.09184435E-03   9.45186491E-10   2.02606535E-07   9.11729405E-06   5.55310618E-01   6.88862217E-05   1.21563921E-02   1.89636233E-10   4.81863747E-01   2.83649143E-02   1.82166661E-08   4.05213069E-04   1.72215554E-06   3.95082742E-05   2.39249530E-03
   1.97750000E+03   5.00000000E-01   5.00000000E-01   2.90400238E-04   6.27971665E-09   4.81332311E-03   4.38723161E-02   1.19397985E-02   3.10845686E-03   1.02513983E-09   2.02666236E-07   9.11998063E-06   5.55474251E-01   6.89065203E-05   1.21599742E-02   1.90567928E-10   4.82022483E-01   2.83732724E-02   1.82218563E-08   4.05332473E-04   1.72266301E-06   3.95199161E-05   2.49148976E-03
   2.01250000E+03   5.00000000E-01   5.00000000E-01   3.58764182E-04   6.77470648E-09   4.81476714E-03   4.38082084E-02   1.19548375E-02   3.13252455E-03   1.10583303E-09   2.02727037E-07   9.12271668E-06   5.55640896E-01   6.89271927E-05   1.21636222E-02   1.91518231E-10   4.82184169E-01   2.83817845E-02   1.82271418E-08   4.05454075E-04   1.72317982E-06   3.95317723E-05   2.57886878E-03
   2.04750000E+03   5.00000000E-01   5.00000000E-01   4.32929333E-04   7.32170209E-09   4.81623812E-03   4.37275124E-02   1.19725269E-02   3.16778663E-03   1.19586115E-09   2.02788974E-07   9.12550381E-06   5.55810653E-01   6.89482510E-05   1.21673384E-02   1.92487615E-10   4.82348902E-01   2.83904555E-02   1.82325256E-08   4.05577947E-04   1.72370628E-06   3.95438499E-05   2.65156938E-03
   2.08250000E+03   5.00000000E-01   5.00000000E-01   5.12853607E-04   7.87088156E-09   4.81773694E-03   4.36301540E-02   1.19928815E-02   3.21432841E-03   1.30259329E-09   2.02852082E-07   9.12834367E-06   5.55983622E-01   6.89697078E-05   1.21711249E-02   1.93476571E-10   4.82516781E-01   2.83992906E-02   1.82380111E-08   4.05704163E-04   1.72424269E-06   3.95561559E-05   2.71000507E-03
   2.11750000E+03   5.00000000E-01   5.00000000E-01   5.98998346E-04   8.39986831E-09   4.81926448E-03   4.35179547E-02   1.20155869E-02   3.27041806E-03   1.43043411E-09   2.02916399E-07   9.13123796E-06   5.56159905E-01   6.89915757E-05   1.21749839E-02   1.94485606E-10   4.82687906E-01   2.84082949E-02   1.82436015E-08   4.05832798E-04   1.72478939E-06   3.95686978E-05   2.75602060E-03
   2.15250000E+03   5.00000000E-01   5.00000000E-01   6.92081607E-04   8.90223839E-09   4.82082166E-03   4.33930826E-02   1.20401981E-02   3.33398072E-03   1.58264453E-09   2.02981965E-07   9.13418841E-06   5.56339609E-01   6.90138680E-05   1.21789179E-02   1.95515242E-10   4.82862376E-01   2.84174740E-02   1.82493001E-08   4.05963929E-04   1.72534670E-06   3.95814831E-05   2.79158855E-03
   2.18750000E+03   5.00000000E-01   5.00000000E-01   7.92874863E-04   9.37672762E-09   4.82240943E-03   4.32573567E-02   1.20662635E-02   3.40327081E-03   1.76281850E-09   2.03048818E-07   9.13719682E-06   5.56522843E-01   6.90365982E-05   1.21829291E-02   1.96566022E-10   4.83040293E-01   2.84268334E-02   1.82551105E-08   4.06097636E-04   1.72591495E-06   3.95945195E-05   2.81827962E-03
   2.22250000E+03   5.00000000E-01   5.00000000E-01   9.02111128E-04   9.82251992E-09   4.82402876E-03   4.31120721E-02   1.20933864E-02   3.47703151E-03   1.97561023E-09   2.03117000E-07   9.14026501E-06   5.56709719E-01   6.90597801E-05   1.21870200E-02   1.97638505E-10   4.83221764E-01   2.84363787E-02   1.82610362E-08   4.06234000E-04   1.72649450E-06   3.96078150E-05   2.83717370E-03
   2.25750000E+03   5.00000000E-01   5.00000000E-01   1.02045415E-03   1.02379715E-08   4.82568064E-03   4.29580507E-02   1.21212470E-02   3.55443681E-03   2.22712218E-09   2.03186553E-07   9.14339489E-06   5.56900352E-01   6.90834280E-05   1.21911932E-02   1.98733271E-10   4.83406896E-01   2.84461160E-02   1.82670809E-08   4.06373106E-04   1.72708570E-06   3.96213779E-05   2.84895352E-03
   2.29250000E+03   5.00000000E-01   5.00000000E-01   1.14849238E-03   1.06206651E-08   4.82736610E-03   4.27957562E-02   1.21496040E-02   3.63497775E-03   2.52522325E-09   2.03257520E-07   9.14658840E-06   5.57094860E-01   6.91075568E-05   1.21954512E-02   1.99850919E-10   4.83595803E-01   2.84560512E-02   1.82732484E-08   4.06515040E-04   1.72768892E-06   3.96352164E-05   2.85404074E-03
   2.32750000E+03   5.00000000E-01   5.00000000E-01   1.28674100E-03   1.09678268E-08   4.82908621E-03   4.26254061E-02   1.21782875E-02   3.71835714E-03   2.87992307E-09   2.03329946E-07   9.14984755E-06   5.57293367E-01   6.91321815E-05   1.21997967E-02   2.00992070E-10   4.83788599E-01   2.84661907E-02   1.82795425E-08   4.06659891E-04   1.72830454E-06   3.96493394E-05   2.85271642E-03
   2.36250000E+03   5.00000000E-01   5.00000000E-01   1.43564575E-03   1.12767357E-08   4.83084206E-03   4.24470604E-02   1.22071885E-02   3.80440934E-03   3.30386825E-09   2.03403876E-07   9.15317442E-06   5.57495998E-01   6.91573178E-05   1.22042326E-02   2.02157366E-10   4.83985407E-01   2.84765408E-02   1.82859673E-08   4.06807752E-04   1.72893295E-06   3.96637558E-05   2.84521081E-03
   2.39750000E+03   5.00000000E-01   5.00000000E-01   1.59558639E-03   1.15450162E-08   4.83263477E-03   4.22606873E-02   1.22362479E-02   3.89304322E-03   3.81300805E-09   2.03479359E-07   9.15657114E-06   5.57702883E-01   6.91829820E-05   1.22087615E-02   2.03347472E-10   4.84186349E-01   2.84871082E-02   1.82925270E-08   4.06958717E-04   1.72957455E-06   3.96784750E-05   2.83176455E-03
   2.43250000E+03   5.00000000E-01   5.00000000E-01   1.76687981E-03   1.17708038E-08   4.83446552E-03   4.20662118E-02   1.22654467E-02   3.98420270E-03   4.42747764E-09   2.03556443E-07   9.16003993E-06   5.57914158E-01   6.92091906E-05   1.22133866E-02   2.04563077E-10   4.84391556E-01   2.84978998E-02   1.82992257E-08   4.07112886E-04   1.73022976E-06   3.96935064E-05   2.81266828E-03
   2.46750000E+03   5.00000000E-01   5.00000000E-01   1.94978371E-03   1.19528155E-08   4.83633550E-03   4.18635501E-02   1.22947968E-02   4.07783936E-03   5.17275441E-09   2.03635179E-07   9.16358306E-06   5.58129961E-01   6.92359609E-05   1.22181107E-02   2.05804894E-10   4.84601160E-01   2.85089226E-02   1.83060680E-08   4.07270358E-04   1.73089902E-06   3.97088599E-05   2.78828722E-03
   2.50250000E+03   5.00000000E-01   5.00000000E-01   2.14450167E-03   1.20903607E-08   4.83824597E-03   4.16526332E-02   1.23243331E-02   4.17389407E-03   6.08115209E-09   2.03715620E-07   9.16720289E-06   5.58350435E-01   6.92633107E-05   1.22229372E-02   2.07073661E-10   4.84815298E-01   2.85201841E-02   1.83130584E-08   4.07431239E-04   1.73158277E-06   3.97245458E-05   2.75907563E-03
   2.53750000E+03   5.00000000E-01   5.00000000E-01   2.35119087E-03   1.21833228E-08   4.84019820E-03   4.14334216E-02   1.23541069E-02   4.27228547E-03   7.19372643E-09   2.03797819E-07   9.17090186E-06   5.58575730E-01   6.92912585E-05   1.22278691E-02   2.08370145E-10   4.85034115E-01   2.85316918E-02   1.83202017E-08   4.07595638E-04   1.73228146E-06   3.97405747E-05   2.72558423E-03
   2.57250000E+03   5.00000000E-01   5.00000000E-01   2.56997283E-03   1.22321225E-08   4.84219354E-03   4.12059111E-02   1.23841796E-02   4.37290460E-03   8.56266872E-09   2.03881833E-07   9.17468250E-06   5.58805999E-01   6.93198233E-05   1.22329100E-02   2.09695139E-10   4.85257756E-01   2.85434535E-02   1.83275026E-08   4.07763667E-04   1.73299558E-06   3.97569575E-05   2.68846281E-03
   2.60750000E+03   5.00000000E-01   5.00000000E-01   2.80094730E-03   1.22376664E-08   4.84423336E-03   4.09701316E-02   1.24146176E-02   4.47561469E-03   1.02542549E-08   2.03967720E-07   9.17854742E-06   5.59041401E-01   6.93490249E-05   1.22380632E-02   2.11049467E-10   4.85486375E-01   2.85554774E-02   1.83349664E-08   4.07935441E-04   1.73372562E-06   3.97737055E-05   2.64845957E-03