 TITLE = "Total Concentrations" 
VARIABLES = "X"          "Y"              "Z"            "H+"             "Al+++"          "CO2(aq)"        "Mg++"           "Ca++"           "Fe++"           "Fe+++"          "Ba++"           "Sr++"           "Cl-"            "F-"             "K+"             "Na+"            "SO4--"          "O2(aq)"         "B(OH)3(aq)"     "HPO4--"         "NO3-"           "H4SiO4(aq)"    
 ZONE I=         100 , J=           1 , K=           1  F=POINT
   1.75000000E+01   5.00000000E-01   5.00000000E-01  -4.60460588E-03   3.80540003E-11   4.75000053E-03   5.09643884E-02   3.86157046E-02   2.64999442E-05   5.49307304E-15   2.00000022E-07   9.00000100E-06   5.48166604E-01   6.80000076E-05   1.19841809E-02   4.74070124E-01   5.62021403E-02   1.80000020E-04   4.00000045E-04   1.70000019E-06   3.90000043E-05   2.72712402E-04
   5.25000000E+01   5.00000000E-01   5.00000000E-01  -4.56698009E-03   3.56448168E-11   4.75014842E-03   5.08900800E-02   4.77056920E-02   5.29743476E-05   6.48032039E-15   2.00006249E-07   9.00028122E-06   5.48183671E-01   6.80021248E-05   1.19666429E-02   4.74136738E-01   6.52791098E-02   1.80005624E-04   4.00012499E-04   1.70005312E-06   3.90012186E-05   3.49022992E-04
   8.75000000E+01   5.00000000E-01   5.00000000E-01  -4.53638304E-03   3.64347397E-11   4.75058151E-03   5.08260233E-02   4.92285496E-02   7.94534225E-05   8.89018986E-15   2.00024485E-07   9.00110182E-06   5.48233652E-01   6.80083248E-05   1.19506569E-02   4.74223340E-01   6.67900019E-02   1.80022036E-04   4.00048970E-04   1.70020812E-06   3.90047745E-05   4.00826244E-04
   1.22500000E+02   5.00000000E-01   5.00000000E-01  -4.50753830E-03   3.93933717E-11   4.75128379E-03   5.07674440E-02   4.87443342E-02   1.05941056E-04   1.17644859E-14   2.00054054E-07   9.00243244E-06   5.48314697E-01   6.80183784E-05   1.19360310E-02   4.74332413E-01   6.62948112E-02   1.80048649E-04   4.00108108E-04   1.70045946E-06   3.90105406E-05   4.40572936E-04
   1.57500000E+02   5.00000000E-01   5.00000000E-01  -4.47853734E-03   4.38924573E-11   4.75224091E-03   5.07123171E-02   4.77716182E-02   1.32440865E-04   1.49121084E-14   2.00094354E-07   9.00424593E-06   5.48425151E-01   6.80320803E-05   1.19224599E-02   4.74464630E-01   6.53120552E-02   1.80084919E-04   4.00188708E-04   1.70080201E-06   3.90183990E-05   4.73710736E-04
   1.92500000E+02   5.00000000E-01   5.00000000E-01  -4.44838875E-03   4.97302345E-11   4.75344002E-03   5.06595116E-02   4.66756250E-02   1.58956241E-04   1.83186103E-14   2.00144843E-07   9.00651793E-06   5.48563533E-01   6.80492466E-05   1.19097120E-02   4.74619906E-01   6.42069076E-02   1.80130359E-04   4.00289686E-04   1.70123117E-06   3.90282444E-05   5.03028884E-04
   2.27500000E+02   5.00000000E-01   5.00000000E-01  -4.41647272E-03   5.68799806E-11   4.75486958E-03   5.06082990E-02   4.55439421E-02   1.85490378E-04   2.20353260E-14   2.00205035E-07   9.00922658E-06   5.48728510E-01   6.80697119E-05   1.18976239E-02   4.74797813E-01   6.30669117E-02   1.80184532E-04   4.00410070E-04   1.70174280E-06   3.90399818E-05   5.30100677E-04
   2.62500000E+02   5.00000000E-01   5.00000000E-01  -4.38234818E-03   6.54024363E-11   4.75651919E-03   5.05581614E-02   4.43994675E-02   2.12046307E-04   2.61367245E-14   2.00274492E-07   9.01235216E-06   5.48918881E-01   6.80933274E-05   1.18860801E-02   4.74997775E-01   6.19149250E-02   1.80247043E-04   4.00548985E-04   1.70233318E-06   3.90535260E-05   5.55868168E-04
   2.97500000E+02   5.00000000E-01   5.00000000E-01  -4.34566938E-03   7.54124920E-11   4.75837947E-03   5.05087017E-02   4.32501338E-02   2.38626914E-04   3.07056642E-14   2.00352820E-07   9.01587689E-06   5.49133563E-01   6.81199587E-05   1.18749966E-02   4.75219161E-01   6.07588440E-02   1.80317538E-04   4.00705639E-04   1.70299897E-06   3.90687999E-05   5.80917704E-04
   3.32500000E+02   5.00000000E-01   5.00000000E-01  -4.30614600E-03   8.70656345E-11   4.76044193E-03   5.04595983E-02   4.21003067E-02   2.65234961E-04   3.58296245E-14   2.00439660E-07   9.01978471E-06   5.49371578E-01   6.81494844E-05   1.18643114E-02   4.75461338E-01   5.96030016E-02   1.80395694E-04   4.00879320E-04   1.70373711E-06   3.90857337E-05   6.05624048E-04
   3.67500000E+02   5.00000000E-01   5.00000000E-01  -4.26352315E-03   1.00552544E-10   4.76269889E-03   5.04105796E-02   4.09533515E-02   2.91873106E-04   4.16007853E-14   2.00534690E-07   9.02406106E-06   5.49632039E-01   6.81817946E-05   1.18539770E-02   4.75723689E-01   5.84507330E-02   1.80481221E-04   4.01069380E-04   1.70454487E-06   3.91042646E-05   6.30231523E-04
   4.02500000E+02   5.00000000E-01   5.00000000E-01  -4.21757151E-03   1.16097456E-10   4.76514339E-03   5.03614100E-02   3.98122017E-02   3.18543910E-04   4.81173444E-14   2.00637617E-07   9.02869275E-06   5.49914144E-01   6.82167896E-05   1.18439564E-02   4.76005630E-01   5.73049446E-02   1.80573855E-04   4.01275233E-04   1.70541974E-06   3.91243352E-05   6.54902205E-04
   4.37500000E+02   5.00000000E-01   5.00000000E-01  -4.16808298E-03   1.33958432E-10   4.76776912E-03   5.03118815E-02   3.86794864E-02   3.45249855E-04   5.54852270E-14   2.00748173E-07   9.03366780E-06   5.50217161E-01   6.82543790E-05   1.18342203E-02   4.76306614E-01   5.61682409E-02   1.80673356E-04   4.01496347E-04   1.70635947E-06   3.91458938E-05   6.79745757E-04
   4.72500000E+02   5.00000000E-01   5.00000000E-01  -4.11486954E-03   1.54428698E-10   4.77057031E-03   5.02618097E-02   3.75575637E-02   3.71993350E-04   6.38199691E-14   2.00866119E-07   9.03897533E-06   5.50540429E-01   6.82944803E-05   1.18247450E-02   4.76626132E-01   5.50429573E-02   1.80779507E-04   4.01732237E-04   1.70736201E-06   3.91688931E-05   7.04838536E-04
   5.07500000E+02   5.00000000E-01   5.00000000E-01  -4.05776405E-03   1.77838596E-10   4.77354176E-03   5.02110317E-02   3.64485359E-02   3.98776742E-04   7.32487616E-14   2.00991232E-07   9.04460543E-06   5.50883344E-01   6.83370188E-05   1.18155114E-02   4.76963714E-01   5.39311754E-02   1.80892109E-04   4.01982464E-04   1.70842547E-06   3.91932902E-05   7.30236204E-04
   5.42500000E+02   5.00000000E-01   5.00000000E-01  -3.99662241E-03   2.04557905E-10   4.77667868E-03   5.01594051E-02   3.53542618E-02   4.25602324E-04   8.39127111E-14   2.01123313E-07   9.05054908E-06   5.51245356E-01   6.83819264E-05   1.18065040E-02   4.77318922E-01   5.28347352E-02   1.81010982E-04   4.02246626E-04   1.70954816E-06   3.92190460E-05   7.55982286E-04
   5.77500000E+02   5.00000000E-01   5.00000000E-01  -3.93132633E-03   2.34998386E-10   4.77997675E-03   5.01068084E-02   3.42763700E-02   4.52472345E-04   9.59693944E-14   2.01262179E-07   9.05679806E-06   5.51625965E-01   6.84291409E-05   1.17977100E-02   4.77691355E-01   5.17552481E-02   1.81135961E-04   4.02524358E-04   1.71072852E-06   3.92461249E-05   7.82114123E-04
   6.12500000E+02   5.00000000E-01   5.00000000E-01  -3.86178674E-03   2.69616423E-10   4.78343201E-03   5.00531422E-02   3.32162728E-02   4.79389010E-04   1.09595795E-13   2.01407664E-07   9.06334486E-06   5.52024714E-01   6.84786056E-05   1.17891193E-02   4.78080641E-01   5.06941104E-02   1.81266897E-04   4.02815327E-04   1.71196514E-06   3.92744944E-05   8.08667124E-04
   6.47500000E+02   5.00000000E-01   5.00000000E-01  -3.78794648E-03   3.08905905E-10   4.78704085E-03   4.99983280E-02   3.21751804E-02   5.06354495E-04   1.24998572E-13   2.01559615E-07   9.07018267E-06   5.52441187E-01   6.85302691E-05   1.17807254E-02   4.78486434E-01   4.96525180E-02   1.81403653E-04   4.03119230E-04   1.71325673E-06   3.93041249E-05   8.35681724E-04
   6.82500000E+02   5.00000000E-01   5.00000000E-01  -3.70977830E-03   3.53330178E-10   4.79079999E-03   4.99422987E-02   3.11541154E-02   5.33370950E-04   1.42467317E-13   2.01717894E-07   9.07730523E-06   5.52875003E-01   6.85840840E-05   1.17725348E-02   4.78908426E-01   4.86314800E-02   1.81546105E-04   4.03435788E-04   1.71460210E-06   3.93349894E-05   8.63229990E-04
   7.17500000E+02   5.00000000E-01   5.00000000E-01  -3.62729664E-03   4.03535987E-10   4.79470640E-03   4.98850248E-02   3.01539275E-02   5.60440507E-04   1.62231808E-13   2.01882375E-07   9.08470687E-06   5.53325818E-01   6.86400075E-05   1.17645449E-02   4.79346317E-01   4.76318340E-02   1.81694137E-04   4.03764750E-04   1.71600019E-06   3.93670631E-05   8.91350297E-04
   7.52500000E+02   5.00000000E-01   5.00000000E-01  -3.54056502E-03   4.60170238E-10   4.79875737E-03   4.98265069E-02   2.91753075E-02   5.87565283E-04   1.84596719E-13   2.02052942E-07   9.09238239E-06   5.53793314E-01   6.86980003E-05   1.17567543E-02   4.79799827E-01   4.66542594E-02   1.81847648E-04   4.04105884E-04   1.71745001E-06   3.94003237E-05   9.20091829E-04
   7.87500000E+02   5.00000000E-01   5.00000000E-01  -3.44969249E-03   5.23933284E-10   4.80295040E-03   4.97667736E-02   2.82188013E-02   6.14747391E-04   2.09912781E-13   2.02229490E-07   9.10032707E-06   5.54277203E-01   6.87580267E-05   1.17491624E-02   4.80268697E-01   4.56992919E-02   1.82006541E-04   4.04458981E-04   1.71895067E-06   3.94347506E-05   9.49511781E-04
   8.22500000E+02   5.00000000E-01   5.00000000E-01  -3.35483581E-03   5.95581088E-10   4.80728320E-03   4.97058823E-02   2.72848232E-02   6.41988938E-04   2.38584361E-13   2.02411924E-07   9.10853659E-06   5.54777224E-01   6.88200543E-05   1.17417698E-02   4.80752681E-01   4.47673363E-02   1.82170732E-04   4.04823849E-04   1.72050136E-06   3.94703252E-05   9.79675563E-04
   8.57500000E+02   5.00000000E-01   5.00000000E-01  -3.25620077E-03   6.75926861E-10   4.81175372E-03   4.96439200E-02   2.63736686E-02   6.69292039E-04   2.71078633E-13   2.02600157E-07   9.11700704E-06   5.55293137E-01   6.88840532E-05   1.17345772E-02   4.81251552E-01   4.38586791E-02   1.82340141E-04   4.05200313E-04   1.72210133E-06   3.95070305E-05   1.01065679E-03
   8.92500000E+02   5.00000000E-01   5.00000000E-01  -3.15404276E-03   7.65842649E-10   4.81636006E-03   4.95810032E-02   2.54855258E-02   6.96658814E-04   3.07936252E-13   2.02794108E-07   9.12573486E-06   5.55824726E-01   6.89499967E-05   1.17275859E-02   4.81765091E-01   4.29735006E-02   1.82514697E-04   4.05588216E-04   1.72374992E-06   3.95448511E-05   1.04253702E-03
   9.27500000E+02   5.00000000E-01   5.00000000E-01  -3.04866618E-03   8.66261001E-10   4.82110054E-03   4.95172776E-02   2.46204872E-02   7.24091398E-04   3.49783721E-13   2.02993707E-07   9.13471681E-06   5.56371793E-01   6.90178603E-05   1.17207973E-02   4.82293096E-01   4.21118861E-02   1.82694336E-04   4.05987414E-04   1.72544651E-06   3.95837728E-05   1.07540528E-03
   9.62500000E+02   5.00000000E-01   5.00000000E-01  -2.94042279E-03   9.78176829E-10   4.82597359E-03   4.94529165E-02   2.37785605E-02   7.51591945E-04   3.97347721E-13   2.03198888E-07   9.14394996E-06   5.56934160E-01   6.90876219E-05   1.17142126E-02   4.82835373E-01   4.12738362E-02   1.82878999E-04   4.06397776E-04   1.72719055E-06   3.96237832E-05   1.10935732E-03
   9.97500000E+02   5.00000000E-01   5.00000000E-01  -2.82970885E-03   1.10264963E-09   4.83097783E-03   4.93881199E-02   2.29596773E-02   7.79162628E-04   4.51471671E-13   2.03409593E-07   9.15343167E-06   5.57511666E-01   6.91592615E-05   1.17078329E-02   4.83391741E-01   4.04592766E-02   1.83068633E-04   4.06819185E-04   1.72898154E-06   3.96648706E-05   1.14449465E-03
   1.03250000E+03   5.00000000E-01   5.00000000E-01  -2.71696096E-03   1.24080623E-09   4.83611199E-03   4.93231113E-02   2.21637033E-02   8.06805646E-04   5.13134819E-13   2.03625768E-07   9.16315956E-06   5.58104167E-01   6.92327612E-05   1.17016587E-02   4.83962027E-01   3.96680670E-02   1.83263191E-04   4.07251536E-04   1.73081903E-06   3.97070248E-05   1.18092337E-03
   1.06750000E+03   5.00000000E-01   5.00000000E-01  -2.60265071E-03   1.39384430E-09   4.84137496E-03   4.92581351E-02   2.13904458E-02   8.34523224E-04   5.83474228E-13   2.03847367E-07   9.17313150E-06   5.58711532E-01   6.93081047E-05   1.16956904E-02   4.84546068E-01   3.89000096E-02   1.83462630E-04   4.07694733E-04   1.73270262E-06   3.97502365E-05   1.21875276E-03
   1.10250000E+03   5.00000000E-01   5.00000000E-01  -2.48727812E-03   1.56303674E-09   4.84676572E-03   4.91934529E-02   2.06396616E-02   8.62317614E-04   6.63810014E-13   2.04074346E-07   9.18334558E-06   5.59333644E-01   6.93852777E-05   1.16899277E-02   4.85143713E-01   3.81548565E-02   1.83666912E-04   4.08148692E-04   1.73463194E-06   3.97944975E-05   1.25809372E-03
   1.13750000E+03   5.00000000E-01   5.00000000E-01  -2.37136389E-03   1.74973733E-09   4.85228339E-03   4.91293387E-02   1.99110639E-02   8.90191097E-04   7.55674251E-13   2.04306669E-07   9.19380010E-06   5.59970402E-01   6.94642674E-05   1.16843697E-02   4.85754818E-01   3.74323165E-02   1.83876002E-04   4.08613338E-04   1.73660669E-06   3.98398004E-05   1.29905700E-03
   1.17250000E+03   5.00000000E-01   5.00000000E-01  -2.25544088E-03   1.95538767E-09   4.85792716E-03   4.90660749E-02   1.92043288E-02   9.18145984E-04   8.60843977E-13   2.04544302E-07   9.20449357E-06   5.60621714E-01   6.95450626E-05   1.16790154E-02   4.86379248E-01   3.67320618E-02   1.84089871E-04   4.09088603E-04   1.73862656E-06   3.98861388E-05   1.34175138E-03
   1.20750000E+03   5.00000000E-01   5.00000000E-01  -2.14004475E-03   2.18152574E-09   4.86369637E-03   4.90039464E-02   1.85191007E-02   9.46184611E-04   9.81378767E-13   2.04787215E-07   9.21542469E-06   5.61287500E-01   6.96276532E-05   1.16738632E-02   4.87016880E-01   3.60537331E-02   1.84308494E-04   4.09574431E-04   1.74069133E-06   3.99335070E-05   1.38628171E-03
   1.24250000E+03   5.00000000E-01   5.00000000E-01  -2.02570432E-03   2.42979622E-09   4.86959040E-03   4.89432355E-02   1.78549976E-02   9.74309342E-04   1.11966335E-12   2.05035385E-07   9.22659233E-06   5.61967691E-01   6.97120309E-05   1.16689116E-02   4.87667599E-01   3.53969452E-02   1.84531847E-04   4.10070770E-04   1.74280077E-06   3.99819001E-05   1.43274701E-03
   1.27750000E+03   5.00000000E-01   5.00000000E-01  -1.91293176E-03   2.70196275E-09   4.87560875E-03   4.88842166E-02   1.72116158E-02   1.00252256E-03   1.27845583E-12   2.05288789E-07   9.23799552E-06   5.62662230E-01   6.97981884E-05   1.16641588E-02   4.88331301E-01   3.47612916E-02   1.84759910E-04   4.10577579E-04   1.74495471E-06   4.00313139E-05   1.48123854E-03
   1.31250000E+03   5.00000000E-01   5.00000000E-01  -1.80221314E-03   2.99992210E-09   4.88175099E-03   4.88271508E-02   1.65885341E-02   1.03082667E-03   1.46094205E-12   2.05547410E-07   9.24963346E-06   5.63371066E-01   6.98861194E-05   1.16596033E-02   4.89007893E-01   3.41463484E-02   1.84992669E-04   4.11094820E-04   1.74715299E-06   4.00817450E-05   1.53183807E-03
   1.34750000E+03   5.00000000E-01   5.00000000E-01  -1.69399963E-03   3.32572047E-09   4.88801678E-03   4.87722811E-02   1.59853175E-02   1.05922411E-03   1.67079674E-12   2.05811233E-07   9.26150548E-06   5.64094160E-01   6.99758192E-05   1.16552438E-02   4.89697290E-01   3.35516783E-02   1.85230110E-04   4.11622466E-04   1.74939548E-06   4.01331904E-05   1.58461635E-03
   1.38250000E+03   5.00000000E-01   5.00000000E-01  -1.58869976E-03   3.68157170E-09   4.89440585E-03   4.87198280E-02   1.54015207E-02   1.08771729E-03   1.91225220E-12   2.06080246E-07   9.27361108E-06   5.64831481E-01   7.00672837E-05   1.16510797E-02   4.90399422E-01   3.29768337E-02   1.85472222E-04   4.12160492E-04   1.75168209E-06   4.01856480E-05   1.63963183E-03
   1.41750000E+03   5.00000000E-01   5.00000000E-01  -1.48667299E-03   4.06987732E-09   4.90091798E-03   4.86699860E-02   1.48366906E-02   1.11630868E-03   2.19017538E-12   2.06354441E-07   9.28594986E-06   5.65583004E-01   7.01605100E-05   1.16471106E-02   4.91114226E-01   3.24213601E-02   1.85718997E-04   4.12708883E-04   1.75401275E-06   4.02391160E-05   1.69692971E-03
   1.45250000E+03   5.00000000E-01   5.00000000E-01  -1.38822482E-03   4.49324832E-09   4.90755305E-03   4.86229209E-02   1.42903697E-02   1.14500072E-03   2.51015421E-12   2.06633813E-07   9.29852156E-06   5.66348713E-01   7.02554963E-05   1.16433370E-02   4.91841653E-01   3.18847981E-02   1.85970431E-04   4.13267625E-04   1.75638741E-06   4.02935934E-05   1.75654148E-03
   1.48750000E+03   5.00000000E-01   5.00000000E-01  -1.29360369E-03   4.95452823E-09   4.91431098E-03   4.85787678E-02   1.37620978E-02   1.17379588E-03   2.87859468E-12   2.06918357E-07   9.31132606E-06   5.67128602E-01   7.03522413E-05   1.16397603E-02   4.92581662E-01   3.13666863E-02   1.86226521E-04   4.13836714E-04   1.75880603E-06   4.03490796E-05   1.81848472E-03
   1.52250000E+03   5.00000000E-01   5.00000000E-01  -1.20299962E-03   5.45681741E-09   4.92119175E-03   4.85376304E-02   1.32514142E-02   1.20269661E-03   3.30282972E-12   2.07208074E-07   9.32436332E-06   5.67922667E-01   7.04507451E-05   1.16363824E-02   4.93334227E-01   3.08665629E-02   1.86487266E-04   4.14416147E-04   1.76126863E-06   4.04055744E-05   1.88276341E-03
   1.55750000E+03   5.00000000E-01   5.00000000E-01  -1.11654449E-03   6.00349813E-09   4.92819542E-03   4.84995810E-02   1.27578599E-02   1.23170537E-03   3.79124196E-12   2.07502965E-07   9.33763343E-06   5.68730915E-01   7.05510081E-05   1.16332062E-02   4.94099330E-01   3.03839678E-02   1.86752669E-04   4.15005930E-04   1.76377520E-06   4.04630782E-05   1.94936864E-03
   1.59250000E+03   5.00000000E-01   5.00000000E-01  -1.03431399E-03   6.59826024E-09   4.93532209E-03   4.84646616E-02   1.22809786E-02   1.26082462E-03   4.35340212E-12   2.07803035E-07   9.35113659E-06   5.69553357E-01   7.06530320E-05   1.16302353E-02   4.94876965E-01   2.99184443E-02   1.87022732E-04   4.15606070E-04   1.76632580E-06   4.05215919E-05   2.01827960E-03
   1.62750000E+03   5.00000000E-01   5.00000000E-01  -9.56330829E-04   7.24512731E-09   4.94257190E-03   4.84328854E-02   1.18203185E-02   1.29005681E-03   5.00022557E-12   2.08108291E-07   9.36487308E-06   5.70390011E-01   7.07568188E-05   1.16274741E-02   4.95667134E-01   2.94695399E-02   1.87297462E-04   4.16216581E-04   1.76892047E-06   4.05811167E-05   2.08946484E-03
   1.66250000E+03   5.00000000E-01   5.00000000E-01  -8.82569002E-04   7.94848298E-09   4.94994507E-03   4.84042392E-02   1.13754332E-02   1.31940440E-03   5.74414973E-12   2.08418740E-07   9.37884330E-06   5.71240901E-01   7.08623716E-05   1.16249275E-02   4.96469853E-01   2.90368078E-02   1.87576866E-04   4.16837480E-04   1.77155929E-06   4.06416543E-05   2.16288380E-03
   1.69750000E+03   5.00000000E-01   5.00000000E-01  -8.12958839E-04   8.71309760E-09   4.95744186E-03   4.83786857E-02   1.09458828E-02   1.34886982E-03   6.59933539E-12   2.08734394E-07   9.39304773E-06   5.72106056E-01   7.09696940E-05   1.16226011E-02   4.97285144E-01   2.86198078E-02   1.87860955E-04   4.17468788E-04   1.77424235E-06   4.07032068E-05   2.23848834E-03
   1.73250000E+03   5.00000000E-01   5.00000000E-01  -7.47392485E-04   9.54415519E-09   4.96506256E-03   4.83561671E-02   1.05312344E-02   1.37845552E-03   7.58189560E-12   2.09055266E-07   9.40748695E-06   5.72985511E-01   7.10787903E-05   1.16205009E-02   4.98113040E-01   2.82181074E-02   1.88149739E-04   4.18110531E-04   1.77696976E-06   4.07657768E-05   2.31622440E-03
   1.76750000E+03   5.00000000E-01   5.00000000E-01  -6.85729562E-04   1.04472808E-08   4.97280752E-03   4.83366073E-02   1.01310632E-02   1.40816394E-03   8.71015610E-12   2.09381369E-07   9.42216162E-06   5.73879307E-01   7.11896656E-05   1.16186335E-02   4.98953582E-01   2.78312817E-02   1.88443232E-04   4.18762739E-04   1.77974164E-06   4.08293670E-05   2.39603351E-03
   1.80250000E+03   5.00000000E-01   5.00000000E-01  -6.27802745E-04   1.14285684E-08   4.98067715E-03   4.83199157E-02   9.74495297E-03   1.43799751E-03   1.00049516E-11   2.09712722E-07   9.43707249E-06   5.74787489E-01   7.13023255E-05   1.16170057E-02   4.99806817E-01   2.74589148E-02   1.88741450E-04   4.19425444E-04   1.78255814E-06   4.08939808E-05   2.47785430E-03
   1.83750000E+03   5.00000000E-01   5.00000000E-01  -5.73423073E-04   1.24946099E-08   4.98867187E-03   4.83059894E-02   9.37249591E-03   1.46795867E-03   1.14899634E-11   2.10049342E-07   9.45222038E-06   5.75710108E-01   7.14167762E-05   1.16156244E-02   5.00672802E-01   2.71005993E-02   1.89044408E-04   4.20098684E-04   1.78541941E-06   4.09596217E-05   2.56162377E-03
   1.87250000E+03   5.00000000E-01   5.00000000E-01  -5.22384825E-04   1.36525246E-08   4.99679217E-03   4.82947164E-02   9.01329357E-03   1.49804986E-03   1.31921027E-11   2.10391249E-07   9.46760621E-06   5.76647219E-01   7.15330247E-05   1.16144971E-02   5.01551601E-01   2.67559375E-02   1.89352124E-04   4.20782498E-04   1.78832562E-06   4.10262936E-05   2.64727844E-03
   1.90750000E+03   5.00000000E-01   5.00000000E-01  -4.74469881E-04   1.49099908E-08   5.00503857E-03   4.82859777E-02   8.66695668E-03   1.52827350E-03   1.51419479E-11   2.10738466E-07   9.48323097E-06   5.77598882E-01   7.16510784E-05   1.16136312E-02   5.02443281E-01   2.64245408E-02   1.89664619E-04   4.21476932E-04   1.79127696E-06   4.10940009E-05   2.73475520E-03
   1.94250000E+03   5.00000000E-01   5.00000000E-01  -4.29451497E-04   1.62752778E-08   5.01341163E-03   4.82796493E-02   8.33310539E-03   1.55863203E-03   1.73742402E-11   2.11091016E-07   9.49909571E-06   5.78565162E-01   7.17709454E-05   1.16130343E-02   5.03347920E-01   2.61060303E-02   1.89981914E-04   4.22182032E-04   1.79427363E-06   4.11627481E-05   2.82399213E-03
   1.97750000E+03   5.00000000E-01   5.00000000E-01  -3.87097475E-04   1.77572810E-08   5.02191195E-03   4.82756043E-02   8.01136925E-03   1.58912791E-03   1.99284468E-11   2.11448924E-07   9.51520159E-06   5.79546129E-01   7.18926342E-05   1.16127140E-02   5.04265596E-01   2.58000365E-02   1.90304032E-04   4.22897848E-04   1.79731586E-06   4.12325402E-05   2.91492890E-03
   2.01250000E+03   5.00000000E-01   5.00000000E-01  -3.47172745E-04   1.93655573E-08   5.03054018E-03   4.82737139E-02   7.70138723E-03   1.61976357E-03   2.28493996E-11   2.11812218E-07   9.53154981E-06   5.80541856E-01   7.20161541E-05   1.16126781E-02   5.05196396E-01   2.55061995E-02   1.90630996E-04   4.23624436E-04   1.80040385E-06   4.13033825E-05   3.00750720E-03
   2.04750000E+03   5.00000000E-01   5.00000000E-01  -3.09441383E-04   2.11103643E-08   5.03929698E-03   4.82738490E-02   7.40280757E-03   1.65054146E-03   2.61880188E-11   2.12180926E-07   9.54814165E-06   5.81552422E-01   7.21415147E-05   1.16129345E-02   5.06140411E-01   2.52241688E-02   1.90962833E-04   4.24361851E-04   1.80353787E-06   4.13752805E-05   3.10167082E-03
   2.08250000E+03   5.00000000E-01   5.00000000E-01  -2.73668110E-04   2.30027001E-08   5.04818308E-03   4.82758807E-02   7.11528775E-03   1.68146406E-03   3.00021303E-11   2.12555077E-07   9.56497847E-06   5.82577909E-01   7.22687262E-05   1.16134909E-02   5.07097735E-01   2.49536034E-02   1.91299569E-04   4.25110154E-04   1.80671816E-06   4.14482401E-05   3.19736571E-03
   2.11750000E+03   5.00000000E-01   5.00000000E-01  -2.39619332E-04   2.50543465E-08   5.05719923E-03   4.82796810E-02   6.83849425E-03   1.71253383E-03   3.43573904E-11   2.12934704E-07   9.58206170E-06   5.83618404E-01   7.23977995E-05   1.16143553E-02   5.08068467E-01   2.46941713E-02   1.91641234E-04   4.25869409E-04   1.80994499E-06   4.15222674E-05   3.29453986E-03
   2.15250000E+03   5.00000000E-01   5.00000000E-01  -2.07063764E-04   2.72779142E-08   5.06634622E-03   4.82851236E-02   6.57210241E-03   1.74375325E-03   3.93283271E-11   2.13319841E-07   9.59939283E-06   5.84673998E-01   7.25287458E-05   1.16155357E-02   5.09052712E-01   2.44455493E-02   1.91987857E-04   4.26639681E-04   1.81321865E-06   4.15973689E-05   3.39314307E-03
   2.18750000E+03   5.00000000E-01   5.00000000E-01  -1.75772707E-04   2.96868908E-08   5.07562486E-03   4.82920833E-02   6.31579624E-03   1.77512483E-03   4.49995133E-11   2.13710520E-07   9.61697341E-06   5.85744786E-01   7.26615769E-05   1.16170401E-02   5.10050574E-01   2.42074234E-02   1.92339468E-04   4.27421041E-04   1.81653942E-06   4.16735515E-05   3.49312667E-03
   2.22250000E+03   5.00000000E-01   5.00000000E-01  -1.45520027E-04   3.22956907E-08   5.08503602E-03   4.83004367E-02   6.06926817E-03   1.80665107E-03   5.14668846E-11   2.14106780E-07   9.63480509E-06   5.86830866E-01   7.27963051E-05   1.16188766E-02   5.11062166E-01   2.39794878E-02   1.92696102E-04   4.28213559E-04   1.81990763E-06   4.17508220E-05   3.59444315E-03
   2.25750000E+03   5.00000000E-01   5.00000000E-01  -1.16081888E-04   3.51197089E-08   5.09458059E-03   4.83100621E-02   5.83221886E-03   1.83833451E-03   5.88392171E-11   2.14508656E-07   9.65288954E-06   5.87932343E-01   7.29329432E-05   1.16210534E-02   5.12087600E-01   2.37614452E-02   1.93057791E-04   4.29017313E-04   1.82332358E-06   4.18291880E-05   3.69704574E-03
   2.29250000E+03   5.00000000E-01   5.00000000E-01  -8.72362752E-05   3.81753760E-08   5.10425951E-03   4.83208388E-02   5.60435692E-03   1.87017769E-03   6.72397805E-11   2.14916190E-07   9.67122854E-06   5.89049324E-01   7.30715045E-05   1.16235786E-02   5.13126994E-01   2.35530062E-02   1.93424571E-04   4.29832379E-04   1.82678761E-06   4.19086570E-05   3.80088797E-03
   2.32750000E+03   5.00000000E-01   5.00000000E-01  -5.87623647E-05   4.14802175E-08   5.11407373E-03   4.83326472E-02   5.38539874E-03   1.90218318E-03   7.68081836E-11   2.15329420E-07   9.68982390E-06   5.90181919E-01   7.32120028E-05   1.16264605E-02   5.14180469E-01   2.33538895E-02   1.93796478E-04   4.30658840E-04   1.83030007E-06   4.19892369E-05   3.90592320E-03
   2.36250000E+03   5.00000000E-01   5.00000000E-01  -3.04397558E-05   4.50529143E-08   5.12402425E-03   4.83453683E-02   5.17506825E-03   1.93435357E-03   8.77024288E-11   2.15748389E-07   9.70867753E-06   5.91330244E-01   7.33544524E-05   1.16297075E-02   5.15248148E-01   2.31638214E-02   1.94173551E-04   4.31496779E-04   1.83386131E-06   4.20709359E-05   4.01210409E-03
   2.39750000E+03   5.00000000E-01   5.00000000E-01  -2.04761282E-06   4.89133677E-08   5.13411211E-03   4.83588833E-02   4.97309665E-03   1.96669147E-03   1.00101191E-10   2.16173141E-07   9.72779136E-06   5.92494418E-01   7.34988681E-05   1.16333280E-02   5.16330158E-01   2.29825354E-02   1.94555827E-04   4.32346283E-04   1.83747170E-06   4.21537626E-05   4.11938216E-03
   2.43250000E+03   5.00000000E-01   5.00000000E-01   2.66362684E-05   5.30827653E-08   5.14433837E-03   4.83730732E-02   4.77922226E-03   1.99919952E-03   1.14206341E-10   2.16603721E-07   9.74716744E-06   5.93674565E-01   7.36452651E-05   1.16373306E-02   5.17426631E-01   2.28097726E-02   1.94943349E-04   4.33207442E-04   1.84113163E-06   4.22377256E-05   4.22770723E-03
   2.46750000E+03   5.00000000E-01   5.00000000E-01   5.58364408E-05   5.75836516E-08   5.15470414E-03   4.83878181E-02   4.59319030E-03   2.03188039E-03   1.30245721E-10   2.17040174E-07   9.76680784E-06   5.94870810E-01   7.37936592E-05   1.16417237E-02   5.18537699E-01   2.26452806E-02   1.95336157E-04   4.34080348E-04   1.84484148E-06   4.23228340E-05   4.33702698E-03
   2.50250000E+03   5.00000000E-01   5.00000000E-01   8.57808139E-05   6.24399998E-08   5.16521054E-03   4.84029968E-02   4.41475268E-03   2.06473677E-03   1.48476199E-10   2.17482549E-07   9.78671472E-06   5.96083286E-01   7.39440667E-05   1.16465161E-02   5.19663499E-01   2.24888142E-02   1.95734294E-04   4.34965098E-04   1.84860167E-06   4.24090971E-05   4.44728645E-03
   2.53750000E+03   5.00000000E-01   5.00000000E-01   1.16701673E-04   6.76772876E-08   5.17585876E-03   4.84184863E-02   4.24366783E-03   2.09777140E-03   1.69186998E-10   2.17930895E-07   9.80689028E-06   5.97312127E-01   7.40965044E-05   1.16517165E-02   5.20804172E-01   2.23401348E-02   1.96137806E-04   4.35861790E-04   1.85241261E-06   4.24965246E-05   4.55842754E-03
   2.57250000E+03   5.00000000E-01   5.00000000E-01   1.48836687E-04   7.33225744E-08   5.18664999E-03   4.84341614E-02   4.07970055E-03   2.13098704E-03   1.92703320E-10   2.18385263E-07   9.82733682E-06   5.98557472E-01   7.42509893E-05   1.16573337E-02   5.21959861E-01   2.21990100E-02   1.96546736E-04   4.36770525E-04   1.85627473E-06   4.25851262E-05   4.67038862E-03
   2.60750000E+03   5.00000000E-01   5.00000000E-01   1.82429899E-04   7.94045820E-08   5.19758547E-03   4.84498938E-02   3.92262184E-03   2.16438649E-03   2.19390258E-10   2.18845704E-07   9.84805668E-06   5.99819465E-01   7.44075393E-05   1.16633767E-02   5.23130712E-01   2.20652140E-02   1.96961134E-04   4.37691408E-04   1.86018848E-06   4.26749123E-05   4.78310405E-03
   2.64250000E+03   5.00000000E-01   5.00000000E-01   2.17732672E-04   8.59537772E-08   5.20866647E-03   4.84655520E-02   3.77220875E-03   2.19797258E-03   2.49657001E-10   2.19312273E-07   9.86905227E-06   6.01098252E-01   7.45661727E-05   1.16698545E-02   5.24316877E-01   2.19385269E-02   1.97381045E-04   4.38624545E-04   1.86415432E-06   4.27658932E-05   4.89650383E-03
   2.67750000E+03   5.00000000E-01   5.00000000E-01   2.55004577E-04   9.30024568E-08   5.21989431E-03   4.84810007E-02   3.62824430E-03   2.23174819E-03   2.83961312E-10   2.19785024E-07   9.89032607E-06   6.02393983E-01   7.47269081E-05   1.16767760E-02   5.25518508E-01   2.18187352E-02   1.97806521E-04   4.39570047E-04   1.86817270E-06   4.28580796E-05   5.01051321E-03
   2.71250000E+03   5.00000000E-01   5.00000000E-01   2.94514221E-04   1.00584835E-07   5.23127033E-03   4.84961002E-02   3.49051729E-03   2.26571624E-03   3.22814260E-10   2.20264014E-07   9.91188062E-06   6.03706815E-01   7.48897647E-05   1.16841505E-02   5.26735764E-01   2.17056311E-02   1.98237612E-04   4.40528028E-04   1.87224412E-06   4.29514827E-05   5.12505237E-03