 TITLE = "Total Concentrations" 
VARIABLES = "X"          "Y"              "Z"            "H+"             "Al+++"          "CO2(aq)"        "Mg++"           "Ca++"           "Fe++"           "Fe+++"          "Ba++"           "Sr++"           "Cl-"            "F-"             "K+"             "HS-"            "Na+"            "SO4--"          "O2(aq)"         "B(OH)3(aq)"     "HPO4--"         "NO3-"           "H4SiO4(aq)"    
 ZONE I=         200 , J=           1 , K=           1  F=POINT
   8.75000000E+00   5.00000000E-01   5.00000000E-01  -4.67964349E-03   9.56577758E-13   4.74997155E-03   5.08026622E-02   1.05955666E-02   5.29539700E-05   1.60390063E-22   1.99998802E-07   8.99994609E-06   5.48163260E-01   6.79995927E-05   1.19943278E-02   1.00948819E-10   4.74037874E-01   2.79998323E-02   1.79997010E-08   3.99997604E-04   1.69998982E-06   3.89997664E-05   4.06935051E-04
   2.62500000E+01   5.00000000E-01   5.00000000E-01  -4.59410470E-03   3.85788888E-12   4.74999810E-03   5.04980208E-02   1.07913065E-02   1.05879734E-04   7.30078132E-22   1.99999920E-07   8.99999641E-06   5.48166324E-01   6.79999729E-05   1.19860395E-02   1.01898890E-10   4.74075953E-01   2.79999888E-02   1.79996105E-08   3.99999840E-04   1.69999932E-06   3.89999844E-05   6.06877593E-04
   4.37500000E+01   5.00000000E-01   5.00000000E-01  -4.54325006E-03   6.28523745E-12   4.75018787E-03   5.02174899E-02   1.09874630E-02   1.58788365E-04   1.46229422E-21   2.00007910E-07   9.00035596E-06   5.48188224E-01   6.80026895E-05   1.19779628E-02   1.02852588E-10   4.74120247E-01   2.80011074E-02   1.80001384E-08   4.00015821E-04   1.70006724E-06   3.90015425E-05   7.88546145E-04
   6.12500000E+01   5.00000000E-01   5.00000000E-01  -4.50663975E-03   8.13250354E-12   4.75053372E-03   4.99521562E-02   1.11840373E-02   2.11673654E-04   2.23479291E-21   2.00022473E-07   9.00101126E-06   5.48228136E-01   6.80076407E-05   1.19685912E-02   1.03809855E-10   4.74168753E-01   2.80031462E-02   1.80012577E-08   4.00044945E-04   1.70019102E-06   3.90043821E-05   9.33692992E-04
   7.87500000E+01   5.00000000E-01   5.00000000E-01  -4.47545756E-03   9.92807361E-12   4.75102913E-03   4.96969341E-02   1.13810392E-02   2.64533669E-04   3.06598954E-21   2.00043332E-07   9.00194993E-06   5.48285308E-01   6.80147328E-05   1.19578191E-02   1.04770640E-10   4.74222085E-01   2.80060664E-02   1.80029437E-08   4.00086663E-04   1.70036832E-06   3.90084497E-05   1.04227180E-03
   9.62500000E+01   5.00000000E-01   5.00000000E-01  -4.44756449E-03   1.16969480E-11   4.75166807E-03   4.94490173E-02   1.15784763E-02   3.17365220E-04   3.94250901E-21   2.00070234E-07   9.00316055E-06   5.48359044E-01   6.80238797E-05   1.19462830E-02   1.05734900E-10   4.74282306E-01   2.80098328E-02   1.80051735E-08   4.00140469E-04   1.70059699E-06   3.90136957E-05   1.12424393E-03
   1.13750000E+02   5.00000000E-01   5.00000000E-01  -4.42178031E-03   1.33807927E-11   4.75244499E-03   4.92060304E-02   1.17763540E-02   3.70162765E-04   4.85636937E-21   2.00102947E-07   9.00463261E-06   5.48448703E-01   6.80350020E-05   1.19346582E-02   1.06702594E-10   4.74351604E-01   2.80144126E-02   1.80079261E-08   4.00205894E-04   1.70087505E-06   3.90200747E-05   1.19038283E-03
   1.31250000E+02   5.00000000E-01   5.00000000E-01  -4.39700697E-03   1.49638960E-11   4.75335479E-03   4.89660763E-02   1.19746767E-02   4.22918990E-04   5.81889937E-21   2.00141254E-07   9.00635643E-06   5.48553697E-01   6.80480264E-05   1.19234318E-02   1.07673691E-10   4.74431544E-01   2.80197756E-02   1.80111821E-08   4.00282508E-04   1.70120066E-06   3.90275446E-05   1.24867948E-03
   1.48750000E+02   5.00000000E-01   5.00000000E-01  -4.37237256E-03   1.64588533E-11   4.75439272E-03   4.87278433E-02   1.21734478E-02   4.75625332E-04   6.85115543E-21   2.00184957E-07   9.00832306E-06   5.48673479E-01   6.80628853E-05   1.19129067E-02   1.08648161E-10   4.74522985E-01   2.80258940E-02   1.80149235E-08   4.00369914E-04   1.70157213E-06   3.90360666E-05   1.30416587E-03
   1.66250000E+02   5.00000000E-01   5.00000000E-01  -4.34721043E-03   1.78993246E-11   4.75555443E-03   4.84904854E-02   1.23726709E-02   5.28272531E-04   7.97925497E-21   2.00233871E-07   9.01052419E-06   5.48807544E-01   6.80795161E-05   1.19032486E-02   1.09625981E-10   4.74626240E-01   2.80327419E-02   1.80191338E-08   4.00467742E-04   1.70198790E-06   3.90456048E-05   1.35961040E-03
   1.83750000E+02   5.00000000E-01   5.00000000E-01  -4.32101155E-03   1.93321742E-11   4.75683587E-03   4.82534767E-02   1.25723491E-02   5.80851225E-04   9.23251392E-21   2.00287826E-07   9.01295217E-06   5.48955426E-01   6.80978608E-05   1.18945319E-02   1.10607129E-10   4.74741275E-01   2.80402956E-02   1.80237976E-08   4.00575652E-04   1.70244652E-06   3.90561261E-05   1.41629426E-03
   2.01250000E+02   5.00000000E-01   5.00000000E-01  -4.29349503E-03   2.07843046E-11   4.75823327E-03   4.80165236E-02   1.27724859E-02   6.33351776E-04   1.06355447E-20   2.00346664E-07   9.01559988E-06   5.49116691E-01   6.81178658E-05   1.18867920E-02   1.11591589E-10   4.74867897E-01   2.80485330E-02   1.80289007E-08   4.00693328E-04   1.70294664E-06   3.90675995E-05   1.47484820E-03
   2.18750000E+02   5.00000000E-01   5.00000000E-01  -4.26451783E-03   2.22662366E-11   4.75974317E-03   4.77794559E-02   1.29730855E-02   6.85763970E-04   1.22092146E-20   2.00410239E-07   9.01846074E-06   5.49290938E-01   6.81394811E-05   1.18800442E-02   1.12579349E-10   4.75005857E-01   2.80574334E-02   1.80344299E-08   4.00820477E-04   1.70348703E-06   3.90799965E-05   1.53562766E-03
   2.36250000E+02   5.00000000E-01   5.00000000E-01  -4.23391333E-03   2.38011316E-11   4.76136232E-03   4.75421377E-02   1.31741529E-02   7.38077540E-04   1.39797934E-20   2.00478413E-07   9.02152861E-06   5.49477794E-01   6.81626606E-05   1.18742820E-02   1.13570399E-10   4.75154865E-01   2.80669779E-02   1.80403730E-08   4.00956827E-04   1.70406651E-06   3.90932906E-05   1.59868907E-03
   2.53750000E+02   5.00000000E-01   5.00000000E-01  -4.20161638E-03   2.53945527E-11   4.76308773E-03   4.73044942E-02   1.33756935E-02   7.90281671E-04   1.59695523E-20   2.00551062E-07   9.02479780E-06   5.49676912E-01   6.81873611E-05   1.18694936E-02   1.14564730E-10   4.75314647E-01   2.80771487E-02   1.80467185E-08   4.01102124E-04   1.70468403E-06   3.91074571E-05   1.66408791E-03
   2.71250000E+02   5.00000000E-01   5.00000000E-01  -4.16757348E-03   2.70508140E-11   4.76491659E-03   4.70664636E-02   1.35777130E-02   8.42364980E-04   1.82020634E-20   2.00628067E-07   9.02826302E-06   5.49887970E-01   6.82135428E-05   1.18656598E-02   1.15562340E-10   4.75484948E-01   2.80879294E-02   1.80534558E-08   4.01256134E-04   1.70533857E-06   3.91224731E-05   1.73185374E-03
   2.88750000E+02   5.00000000E-01   5.00000000E-01  -4.13172308E-03   2.87773269E-11   4.76684632E-03   4.68279884E-02   1.37802171E-02   8.94315697E-04   2.07040572E-20   2.00709319E-07   9.03191935E-06   5.50110667E-01   6.82411684E-05   1.18627540E-02   1.16563226E-10   4.75665529E-01   2.80993046E-02   1.80605751E-08   4.01418638E-04   1.70602921E-06   3.91383172E-05   1.80197797E-03
   3.06250000E+02   5.00000000E-01   5.00000000E-01  -4.09399611E-03   3.05849047E-11   4.76887449E-03   4.65890150E-02   1.39832112E-02   9.46121926E-04   2.35060345E-20   2.00794715E-07   9.03576219E-06   5.50344724E-01   6.82702032E-05   1.18607436E-02   1.17567388E-10   4.75856167E-01   2.81112601E-02   1.80680671E-08   4.01589430E-04   1.70675508E-06   3.91549695E-05   1.87441506E-03
   3.23750000E+02   5.00000000E-01   5.00000000E-01  -4.05432092E-03   3.24869912E-11   4.77099883E-03   4.63494950E-02   1.41866999E-02   9.97771904E-04   2.66424686E-20   2.00884161E-07   9.03978726E-06   5.50589882E-01   6.83006149E-05   1.18595912E-02   1.18574831E-10   4.76056650E-01   2.81237826E-02   1.80759234E-08   4.01768323E-04   1.70751537E-06   3.91724115E-05   1.94909060E-03
   3.41250000E+02   5.00000000E-01   5.00000000E-01  -4.01262999E-03   3.44983509E-11   4.77321726E-03   4.61093867E-02   1.43906878E-02   1.04925422E-03   3.01516663E-20   2.00977569E-07   9.04399059E-06   5.50845895E-01   6.83323734E-05   1.18592559E-02   1.19585557E-10   4.76266781E-01   2.81368596E-02   1.80841360E-08   4.01955138E-04   1.70830933E-06   3.91906259E-05   2.02591417E-03
   3.58750000E+02   5.00000000E-01   5.00000000E-01  -3.96887111E-03   3.66324013E-11   4.77552780E-03   4.58686577E-02   1.45951789E-02   1.10055787E-03   3.40746984E-20   2.01074855E-07   9.04836846E-06   5.51112540E-01   6.83654506E-05   1.18596952E-02   1.20599575E-10   4.76486381E-01   2.81504797E-02   1.80926973E-08   4.02149709E-04   1.70913626E-06   3.92095967E-05   2.10480112E-03
   3.76250000E+02   5.00000000E-01   5.00000000E-01  -3.92300819E-03   3.89008578E-11   4.77792862E-03   4.56272835E-02   1.48001772E-02   1.15167219E-03   3.84552522E-20   2.01175942E-07   9.05291739E-06   5.51389603E-01   6.83998203E-05   1.18608657E-02   1.21616891E-10   4.76715284E-01   2.81646319E-02   1.81016004E-08   4.02351884E-04   1.70999551E-06   3.92293087E-05   2.18568227E-03
   3.93750000E+02   5.00000000E-01   5.00000000E-01  -3.87502543E-03   4.13125330E-11   4.78041802E-03   4.53852485E-02   1.50056870E-02   1.20258678E-03   4.33388393E-20   2.01280759E-07   9.05763414E-06   5.51676888E-01   6.84354580E-05   1.18627243E-02   1.22637518E-10   4.76953346E-01   2.81793062E-02   1.81108390E-08   4.02561517E-04   1.71088645E-06   3.92497480E-05   2.26851510E-03
   4.11250000E+02   5.00000000E-01   5.00000000E-01  -3.82492611E-03   4.38733590E-11   4.78299440E-03   4.51425443E-02   1.52117127E-02   1.25329126E-03   4.87725620E-20   2.01389238E-07   9.06251570E-06   5.51974211E-01   6.84723408E-05   1.18652290E-02   1.23661466E-10   4.77200438E-01   2.81944933E-02   1.81204068E-08   4.02778476E-04   1.71180852E-06   3.92709014E-05   2.35328682E-03
   4.28750000E+02   5.00000000E-01   5.00000000E-01  -3.77272983E-03   4.65869320E-11   4.78565626E-03   4.48991688E-02   1.54182589E-02   1.30377511E-03   5.48051939E-20   2.01501316E-07   9.06755924E-06   5.52281400E-01   6.85104476E-05   1.18683391E-02   1.24688748E-10   4.77456444E-01   2.82101843E-02   1.81302983E-08   4.03002633E-04   1.71276119E-06   3.92927567E-05   2.44001238E-03
   4.46250000E+02   5.00000000E-01   5.00000000E-01  -3.71847292E-03   4.94542467E-11   4.78840223E-03   4.46551265E-02   1.56253307E-02   1.35402745E-03   6.14866999E-20   2.01616936E-07   9.07276212E-06   5.52598294E-01   6.85497582E-05   1.18720160E-02   1.25719379E-10   4.77721267E-01   2.82263710E-02   1.81405081E-08   4.03233872E-04   1.71374396E-06   3.93153025E-05   2.52873417E-03
   4.63750000E+02   5.00000000E-01   5.00000000E-01  -3.66220706E-03   5.24739080E-11   4.79123099E-03   4.44104283E-02   1.58329335E-02   1.40403682E-03   6.88680420E-20   2.01736042E-07   9.07812188E-06   5.52924743E-01   6.85902542E-05   1.18762233E-02   1.26753376E-10   4.77994820E-01   2.82430459E-02   1.81510314E-08   4.03472084E-04   1.71475636E-06   3.93385282E-05   2.61951919E-03
   4.81250000E+02   5.00000000E-01   5.00000000E-01  -3.60399736E-03   5.56425002E-11   4.79414134E-03   4.41650909E-02   1.60410734E-02   1.45379101E-03   7.70011114E-20   2.01858583E-07   9.08363623E-06   5.53260608E-01   6.86319182E-05   1.18809270E-02   1.27790754E-10   4.78277025E-01   2.82602016E-02   1.81618635E-08   4.03717166E-04   1.71579795E-06   3.93624237E-05   2.71245487E-03
   4.98750000E+02   5.00000000E-01   5.00000000E-01  -3.54415969E-03   5.88838638E-11   4.79713214E-03   4.39192332E-02   1.62497565E-02   1.50327157E-03   8.58750525E-20   2.01984511E-07   9.08930301E-06   5.53605757E-01   6.86747339E-05   1.18860981E-02   1.28831534E-10   4.78567872E-01   2.82778316E-02   1.81730002E-08   4.03969023E-04   1.71686835E-06   3.93869797E-05   2.80794250E-03
   5.16250000E+02   5.00000000E-01   5.00000000E-01  -3.48257212E-03   6.22453223E-11   4.80020234E-03   4.36727880E-02   1.64589896E-02   1.55246300E-03   9.55882473E-20   2.02113783E-07   9.09512023E-06   5.53960068E-01   6.87186861E-05   1.18917047E-02   1.29875734E-10   4.78867286E-01   2.82959296E-02   1.81844373E-08   4.04227566E-04   1.71796715E-06   3.94121876E-05   2.90595268E-03
   5.33750000E+02   5.00000000E-01   5.00000000E-01  -3.41929086E-03   6.57314221E-11   4.80335095E-03   4.34257750E-02   1.66687799E-02   1.60134953E-03   1.06204457E-19   2.02246356E-07   9.10108601E-06   5.54323428E-01   6.87637609E-05   1.18977196E-02   1.30923374E-10   4.79175203E-01   2.83144898E-02   1.81961713E-08   4.04492711E-04   1.71909402E-06   3.94380394E-05   3.00655717E-03
   5.51250000E+02   5.00000000E-01   5.00000000E-01  -3.35443696E-03   6.93295078E-11   4.80657704E-03   4.31782445E-02   1.68791347E-02   1.64991381E-03   1.17772845E-19   2.02382191E-07   9.10719861E-06   5.54695731E-01   6.88099450E-05   1.19041185E-02   1.31974478E-10   4.79491572E-01   2.83335068E-02   1.82081985E-08   4.04764382E-04   1.72024863E-06   3.94645273E-05   3.10988353E-03
   5.68750000E+02   5.00000000E-01   5.00000000E-01  -3.28813333E-03   7.30272029E-11   4.80987977E-03   4.29302489E-02   1.70900615E-02   1.69813695E-03   1.30343594E-19   2.02521253E-07   9.11345640E-06   5.55076877E-01   6.88572261E-05   1.19108795E-02   1.33029067E-10   4.79816347E-01   2.83529755E-02   1.82205157E-08   4.05042507E-04   1.72143065E-06   3.94916444E-05   3.21606591E-03
   5.86250000E+02   5.00000000E-01   5.00000000E-01  -3.22049706E-03   7.68153492E-11   4.81325833E-03   4.26818407E-02   1.73015677E-02   1.74599878E-03   1.43971034E-19   2.02663508E-07   9.11985788E-06   5.55466774E-01   6.89055929E-05   1.19179825E-02   1.34087165E-10   4.80149482E-01   2.83728912E-02   1.82331198E-08   4.05327017E-04   1.72263982E-06   3.95193842E-05   3.32523139E-03
   6.03750000E+02   5.00000000E-01   5.00000000E-01  -3.15163986E-03   8.06885294E-11   4.81671197E-03   4.24330730E-02   1.75136606E-02   1.79347824E-03   1.58714779E-19   2.02808925E-07   9.12640163E-06   5.55865337E-01   6.89550346E-05   1.19254094E-02   1.35148796E-10   4.80490935E-01   2.83932495E-02   1.82460082E-08   4.05617850E-04   1.72387586E-06   3.95477404E-05   3.43749439E-03
   6.21250000E+02   5.00000000E-01   5.00000000E-01  -3.08166983E-03   8.46450222E-11   4.82024002E-03   4.21840002E-02   1.77263475E-02   1.84055368E-03   1.74640413E-19   2.02957474E-07   9.13308635E-06   5.56272486E-01   6.90055413E-05   1.19331437E-02   1.36213987E-10   4.80840662E-01   2.84140464E-02   1.82591781E-08   4.05914949E-04   1.72513853E-06   3.95767075E-05   3.55295439E-03
   6.38750000E+02   5.00000000E-01   5.00000000E-01  -3.01069433E-03   8.86862099E-11   4.82384182E-03   4.19346798E-02   1.79396353E-02   1.88720326E-03   1.91819553E-19   2.03109129E-07   9.13991082E-06   5.56688146E-01   6.90571040E-05   1.19411707E-02   1.37282764E-10   4.81198619E-01   2.84352781E-02   1.82726270E-08   4.06218259E-04   1.72642760E-06   3.96062802E-05   3.67169671E-03
   6.56250000E+02   5.00000000E-01   5.00000000E-01  -2.93882348E-03   9.28154750E-11   4.82751678E-03   4.16851733E-02   1.81535306E-02   1.93340513E-03   2.10329094E-19   2.03263865E-07   9.14687391E-06   5.57112250E-01   6.91097140E-05   1.19494769E-02   1.38355153E-10   4.81564762E-01   2.84569411E-02   1.82863528E-08   4.06527729E-04   1.72774285E-06   3.96364536E-05   3.79379569E-03
   6.73750000E+02   5.00000000E-01   5.00000000E-01  -2.86617320E-03   9.70369893E-11   4.83126436E-03   4.14355467E-02   1.83680398E-02   1.97913765E-03   2.30250006E-19   2.03421657E-07   9.15397457E-06   5.57544733E-01   6.91633634E-05   1.19580504E-02   1.39431183E-10   4.81939045E-01   2.84790320E-02   1.83003533E-08   4.06843314E-04   1.72908409E-06   3.96672232E-05   3.91931889E-03
   6.91250000E+02   5.00000000E-01   5.00000000E-01  -2.79286826E-03   1.01354142E-10   4.83508403E-03   4.11858720E-02   1.85831696E-02   2.02437937E-03   2.51665167E-19   2.03582486E-07   9.16121185E-06   5.57985537E-01   6.92180451E-05   1.19668804E-02   1.40510882E-10   4.82321427E-01   2.85015480E-02   1.83146266E-08   4.07164971E-04   1.73045113E-06   3.96985847E-05   4.04833242E-03
   7.08750000E+02   5.00000000E-01   5.00000000E-01  -2.71904254E-03   1.05768778E-10   4.83897534E-03   4.09362260E-02   1.87989262E-02   2.06910897E-03   2.74657937E-19   2.03746330E-07   9.16858486E-06   5.58434607E-01   6.92737523E-05   1.19759573E-02   1.41594281E-10   4.82711866E-01   2.85244862E-02   1.83291709E-08   4.07492660E-04   1.73184381E-06   3.97305344E-05   4.18090422E-03
   7.26250000E+02   5.00000000E-01   5.00000000E-01  -2.64483835E-03   1.10280644E-10   4.84293785E-03   4.06866905E-02   1.90153161E-02   2.11330521E-03   2.99310728E-19   2.03913173E-07   9.17609277E-06   5.58891895E-01   6.93304787E-05   1.19852726E-02   1.42681409E-10   4.83110325E-01   2.85478442E-02   1.83439845E-08   4.07826345E-04   1.73326197E-06   3.97630687E-05   4.31710641E-03
   7.43750000E+02   5.00000000E-01   5.00000000E-01  -2.57040511E-03   1.14887037E-10   4.84697116E-03   4.04373507E-02   1.92323458E-02   2.15694673E-03   3.25703633E-19   2.04082996E-07   9.18373483E-06   5.59357353E-01   6.93882188E-05   1.19948187E-02   1.43772298E-10   4.83516770E-01   2.85716195E-02   1.83590661E-08   4.08165993E-04   1.73470547E-06   3.97961843E-05   4.45701669E-03
   7.61250000E+02   5.00000000E-01   5.00000000E-01  -2.49589739E-03   1.19582680E-10   4.85107492E-03   4.01882943E-02   1.94500219E-02   2.20001190E-03   3.53913222E-19   2.04255786E-07   9.19151037E-06   5.59830941E-01   6.94469673E-05   1.20045887E-02   1.44866979E-10   4.83931171E-01   2.85958101E-02   1.83744140E-08   4.08511572E-04   1.73617418E-06   3.98298783E-05   4.60071876E-03
   7.78750000E+02   5.00000000E-01   5.00000000E-01  -2.42147241E-03   1.24359843E-10   4.85524879E-03   3.99396105E-02   1.96683514E-02   2.24247868E-03   3.84011663E-19   2.04431528E-07   9.19941876E-06   5.60312620E-01   6.95067195E-05   1.20145767E-02   1.45965484E-10   4.84353500E-01   2.86204139E-02   1.83900273E-08   4.08863056E-04   1.73766799E-06   3.98641479E-05   4.74830180E-03
   7.96250000E+02   5.00000000E-01   5.00000000E-01  -2.34728715E-03   1.29208792E-10   4.85949247E-03   3.96913885E-02   1.98873413E-02   2.28432452E-03   4.16066446E-19   2.04610209E-07   9.20745942E-06   5.60802356E-01   6.95674712E-05   1.20247772E-02   1.47067848E-10   4.84783736E-01   2.86454293E-02   1.84059045E-08   4.09220419E-04   1.73918678E-06   3.98989908E-05   4.89985903E-03
   8.13750000E+02   5.00000000E-01   5.00000000E-01  -2.27349508E-03   1.34118544E-10   4.86380570E-03   3.94437159E-02   2.01069988E-02   2.32552628E-03   4.50140883E-19   2.04791819E-07   9.21563186E-06   5.61300117E-01   6.96292185E-05   1.20351856E-02   1.48174103E-10   4.85221858E-01   2.86708547E-02   1.84220449E-08   4.09583638E-04   1.74073046E-06   3.99344047E-05   5.05548540E-03
   8.31250000E+02   5.00000000E-01   5.00000000E-01  -2.20024303E-03   1.39077876E-10   4.86818824E-03   3.91966777E-02   2.03273313E-02   2.36606035E-03   4.86295433E-19   2.04976347E-07   9.22393561E-06   5.61805877E-01   6.96919579E-05   1.20457975E-02   1.49284285E-10   4.85667850E-01   2.86966886E-02   1.84384474E-08   4.09952694E-04   1.74229895E-06   3.99703876E-05   5.21527462E-03
   8.48750000E+02   5.00000000E-01   5.00000000E-01  -2.12766831E-03   1.44076491E-10   4.87263986E-03   3.89503543E-02   2.05483464E-02   2.40590281E-03   5.24589885E-19   2.05163784E-07   9.23237027E-06   5.62319610E-01   6.97556865E-05   1.20566092E-02   1.50398428E-10   4.86121697E-01   2.87229297E-02   1.84551112E-08   4.10327568E-04   1.74389216E-06   4.00069378E-05   5.37931602E-03
   8.66250000E+02   5.00000000E-01   5.00000000E-01  -2.05589607E-03   1.49106384E-10   4.87716040E-03   3.87048210E-02   2.07700516E-02   2.44502982E-03   5.65086615E-19   2.05354122E-07   9.24093549E-06   5.62841295E-01   6.98204014E-05   1.20676171E-02   1.51516569E-10   4.86583386E-01   2.87495771E-02   1.84720355E-08   4.10708244E-04   1.74551004E-06   4.00440538E-05   5.54769098E-03
   8.83750000E+02   5.00000000E-01   5.00000000E-01  -1.98514856E-03   1.54097137E-10   4.88174967E-03   3.84602000E-02   2.09924540E-02   2.48341112E-03   6.07685578E-19   2.05547354E-07   9.24963095E-06   5.63370913E-01   6.98861005E-05   1.20788185E-02   1.52638744E-10   4.87052924E-01   2.87766296E-02   1.84892199E-08   4.11094709E-04   1.74715251E-06   4.00817341E-05   5.72058237E-03
   9.01250000E+02   5.00000000E-01   5.00000000E-01  -1.91538434E-03   1.59123535E-10   4.88640754E-03   3.82164890E-02   2.12155613E-02   2.52102563E-03   6.52650372E-19   2.05743475E-07   9.25845639E-06   5.63908448E-01   6.99527816E-05   1.20902103E-02   1.53764989E-10   4.87530285E-01   2.88040865E-02   1.85066637E-08   4.11486951E-04   1.74881954E-06   4.01199777E-05   5.89794383E-03
   9.18750000E+02   5.00000000E-01   5.00000000E-01  -1.84666318E-03   1.64208354E-10   4.89113389E-03   3.79737307E-02   2.14393811E-02   2.55785599E-03   7.00122122E-19   2.05942480E-07   9.26741159E-06   5.64453886E-01   7.00204431E-05   1.21017901E-02   1.54895344E-10   4.88015451E-01   2.88319471E-02   1.85243664E-08   4.11884959E-04   1.75051108E-06   4.01587835E-05   6.07978445E-03
   9.36250000E+02   5.00000000E-01   5.00000000E-01  -1.77908003E-03   1.69349520E-10   4.89592864E-03   3.77319834E-02   2.16639208E-02   2.59388621E-03   7.50179764E-19   2.06144364E-07   9.27649637E-06   5.65007216E-01   7.00890837E-05   1.21135558E-02   1.56029845E-10   4.88508407E-01   2.88602108E-02   1.85423278E-08   4.12288727E-04   1.75222709E-06   4.01981509E-05   6.26613901E-03
   9.53750000E+02   5.00000000E-01   5.00000000E-01  -1.71270814E-03   1.74553716E-10   4.90079170E-03   3.74912931E-02   2.18891875E-02   2.62910277E-03   8.02928344E-19   2.06349124E-07   9.28571059E-06   5.65568430E-01   7.01587022E-05   1.21255054E-02   1.57168534E-10   4.89009141E-01   2.88888772E-02   1.85605475E-08   4.12698248E-04   1.75396756E-06   4.02380792E-05   6.45702489E-03
   9.71250000E+02   5.00000000E-01   5.00000000E-01  -1.64760072E-03   1.79837743E-10   4.90572302E-03   3.72516941E-02   2.21151883E-02   2.66349594E-03   8.58506586E-19   2.06556759E-07   9.29505415E-06   5.66137522E-01   7.02292980E-05   1.21376371E-02   1.58311448E-10   4.89517636E-01   2.89179458E-02   1.85790253E-08   4.13113518E-04   1.75573245E-06   4.02785680E-05   6.65243902E-03
   9.88750000E+02   5.00000000E-01   5.00000000E-01  -1.58380050E-03   1.85223550E-10   4.91072257E-03   3.70132124E-02   2.23419299E-02   2.69706053E-03   9.17075935E-19   2.06767266E-07   9.30452698E-06   5.66714488E-01   7.03008705E-05   1.21499496E-02   1.59458628E-10   4.90033878E-01   2.89474166E-02   1.85977611E-08   4.13534532E-04   1.75752176E-06   4.03196169E-05   6.85236333E-03
   1.00625000E+03   5.00000000E-01   5.00000000E-01  -1.52134668E-03   1.90733508E-10   4.91579034E-03   3.67758690E-02   2.25694192E-02   2.72979607E-03   9.78807587E-19   2.06980646E-07   9.31412906E-06   5.67299325E-01   7.03734196E-05   1.21624413E-02   1.60610116E-10   4.90557851E-01   2.89772891E-02   1.86167548E-08   4.13961292E-04   1.75933549E-06   4.03612259E-05   7.05677057E-03
   1.02375000E+03   5.00000000E-01   5.00000000E-01  -1.46027842E-03   1.96387133E-10   4.92092632E-03   3.65396809E-02   2.27976627E-02   2.76170653E-03   1.04387142E-18   2.07196898E-07   9.32386040E-06   5.67892036E-01   7.04469452E-05   1.21751113E-02   1.61765953E-10   4.91089540E-01   2.90075634E-02   1.86360064E-08   4.14393795E-04   1.76117363E-06   4.04033951E-05   7.26562898E-03
   1.04125000E+03   5.00000000E-01   5.00000000E-01  -1.40063763E-03   2.02197391E-10   4.92613054E-03   3.63046626E-02   2.30266670E-02   2.79279965E-03   1.11242101E-18   2.07416023E-07   9.33372103E-06   5.68492621E-01   7.05214478E-05   1.21879583E-02   1.62926182E-10   4.91628931E-01   2.90382393E-02   1.86555160E-08   4.14832046E-04   1.76303619E-06   4.04461245E-05   7.47890743E-03
   1.05875000E+03   5.00000000E-01   5.00000000E-01  -1.34246674E-03   2.08170673E-10   4.93140304E-03   3.60708261E-02   2.32564385E-02   2.82308612E-03   1.18458976E-18   2.07638023E-07   9.34371102E-06   5.69101086E-01   7.05969277E-05   1.22009817E-02   1.64090844E-10   4.92176015E-01   2.90693165E-02   1.86752838E-08   4.15276046E-04   1.76492319E-06   4.04894144E-05   7.69657658E-03
   1.07625000E+03   5.00000000E-01   5.00000000E-01  -1.28580710E-03   2.14306454E-10   4.93674387E-03   3.58381799E-02   2.34869833E-02   2.85257879E-03   1.26048541E-18   2.07862900E-07   9.35383049E-06   5.69717436E-01   7.06733859E-05   1.22141807E-02   1.65259983E-10   4.92730784E-01   2.91007946E-02   1.86953098E-08   4.15725800E-04   1.76683465E-06   4.05332655E-05   7.91860996E-03
   1.09375000E+03   5.00000000E-01   5.00000000E-01  -1.23069679E-03   2.20597710E-10   4.94215311E-03   3.56067290E-02   2.37183072E-02   2.88129185E-03   1.34018728E-18   2.08090657E-07   9.36407957E-06   5.70341681E-01   7.07508234E-05   1.22275548E-02   1.66433645E-10   4.93293234E-01   2.91326730E-02   1.87155945E-08   4.16181314E-04   1.76877059E-06   4.05776781E-05   8.14498415E-03
   1.11125000E+03   5.00000000E-01   5.00000000E-01  -1.17716816E-03   2.27032213E-10   4.94763083E-03   3.53764742E-02   2.39504151E-02   2.90924023E-03   1.42374721E-18   2.08321298E-07   9.37445841E-06   5.70973829E-01   7.08292414E-05   1.22411034E-02   1.67611872E-10   4.93863362E-01   2.91649501E-02   1.87361381E-08   4.16642596E-04   1.77073103E-06   4.06226531E-05   8.37567788E-03
   1.12875000E+03   5.00000000E-01   5.00000000E-01  -1.12524506E-03   2.33594867E-10   4.95317715E-03   3.51474114E-02   2.41833107E-02   2.93643925E-03   1.51119590E-18   2.08554827E-07   9.38496723E-06   5.71613893E-01   7.09086413E-05   1.22548264E-02   1.68794711E-10   4.94441171E-01   2.91976233E-02   1.87569409E-08   4.17109654E-04   1.77271603E-06   4.06681913E-05   8.61066999E-03
   1.14625000E+03   5.00000000E-01   5.00000000E-01  -1.07494046E-03   2.40270796E-10   4.95879217E-03   3.49195303E-02   2.44169957E-02   2.96290470E-03   1.60255422E-18   2.08791249E-07   9.39560622E-06   5.72261887E-01   7.09890248E-05   1.22687234E-02   1.69982208E-10   4.95026662E-01   2.92306882E-02   1.87780035E-08   4.17582499E-04   1.77472562E-06   4.07142936E-05   8.84993668E-03
   1.16375000E+03   5.00000000E-01   5.00000000E-01  -1.02625506E-03   2.47048512E-10   4.96447604E-03   3.46928139E-02   2.46514681E-02   2.98865321E-03   1.69784715E-18   2.09030570E-07   9.40637566E-06   5.72917825E-01   7.10703939E-05   1.22827943E-02   1.71174410E-10   4.95619842E-01   2.92641368E-02   1.87993263E-08   4.18061140E-04   1.77675985E-06   4.07609612E-05   9.09344856E-03
   1.18125000E+03   5.00000000E-01   5.00000000E-01  -9.79176775E-04   2.53922839E-10   4.97022890E-03   3.44672379E-02   2.48867203E-02   3.01370305E-03   1.79711907E-18   2.09272796E-07   9.41727580E-06   5.73581725E-01   7.11527505E-05   1.22970392E-02   1.72371362E-10   4.96220716E-01   2.92979559E-02   1.88209099E-08   4.18545591E-04   1.77881876E-06   4.08081951E-05   9.34116785E-03
   1.19875000E+03   5.00000000E-01   5.00000000E-01  -9.33681050E-04   2.60897710E-10   4.97605090E-03   3.42427701E-02   2.51227351E-02   3.03807510E-03   1.90045086E-18   2.09517933E-07   9.42830696E-06   5.74253604E-01   7.12360971E-05   1.23114581E-02   1.73573114E-10   4.96829290E-01   2.93321229E-02   1.88427548E-08   4.19035865E-04   1.78090243E-06   4.08559968E-05   9.59304574E-03
   1.21625000E+03   5.00000000E-01   5.00000000E-01  -8.89731688E-04   2.67988626E-10   4.98194222E-03   3.40193701E-02   2.53594799E-02   3.06179412E-03   2.00797753E-18   2.09765988E-07   9.43946947E-06   5.74933483E-01   7.13204360E-05   1.23260511E-02   1.74779714E-10   4.97445568E-01   2.93666003E-02   1.88648617E-08   4.19531976E-04   1.78301090E-06   4.09043677E-05   9.84902005E-03
   1.23375000E+03   5.00000000E-01   5.00000000E-01  -8.47282532E-04   2.75224221E-10   4.98790305E-03   3.37969891E-02   2.55968960E-02   3.08489003E-03   2.11990344E-18   2.10016970E-07   9.45076367E-06   5.75621383E-01   7.14057699E-05   1.23408185E-02   1.75991211E-10   4.98069554E-01   2.94013251E-02   1.88872314E-08   4.20033941E-04   1.78514425E-06   4.09533092E-05   1.01090136E-02
   1.25125000E+03   5.00000000E-01   5.00000000E-01  -8.06279604E-04   2.82646887E-10   4.99393358E-03   3.35755701E-02   2.58348822E-02   3.10739916E-03   2.23651376E-18   2.10270888E-07   9.46218994E-06   5.76317328E-01   7.14921018E-05   1.23557605E-02   1.77207655E-10   4.98701251E-01   2.94361917E-02   1.89098644E-08   4.20541775E-04   1.78730254E-06   4.10028231E-05   1.03729334E-02
   1.26875000E+03   5.00000000E-01   5.00000000E-01  -7.66663697E-04   2.90312118E-10   5.00003403E-03   3.33550481E-02   2.60732653E-02   3.12936529E-03   2.35817947E-18   2.10527749E-07   9.47374869E-06   5.77021341E-01   7.15794346E-05   1.23708775E-02   1.78429096E-10   4.99340660E-01   2.94710238E-02   1.89327617E-08   4.21055497E-04   1.78948586E-06   4.10529110E-05   1.06406706E-02
   1.28625000E+03   5.00000000E-01   5.00000000E-01  -7.28372001E-04   2.98288879E-10   5.00620463E-03   3.31353501E-02   2.63117524E-02   3.15084041E-03   2.48536734E-18   2.10787563E-07   9.48544035E-06   5.77733449E-01   7.16677715E-05   1.23861698E-02   1.79655586E-10   4.99987777E-01   2.95055251E-02   1.89559241E-08   4.21575126E-04   1.79169429E-06   4.11035748E-05   1.09121010E-02
   1.30375000E+03   5.00000000E-01   5.00000000E-01  -6.91340546E-04   3.06657855E-10   5.01244560E-03   3.29163960E-02   2.65498484E-02   3.17188516E-03   2.61863745E-18   2.11050341E-07   9.49726535E-06   5.78453679E-01   7.17571160E-05   1.24016380E-02   1.80887176E-10   5.00642602E-01   2.95391982E-02   1.89793525E-08   4.22100682E-04   1.79392790E-06   4.11548165E-05   1.11870859E-02