 TITLE = "Total Component Concentration in Minerals" 
VARIABLES = "X"          "Y"              "Z"            "H+"             "Al+++"          "CO2(aq)"        "Mg++"           "Ca++"           "Fe++"           "Fe+++"          "Ba++"           "Sr++"           "Cl-"            "F-"             "K+"             "HS-"            "Na+"            "SO4--"          "O2(aq)"         "B(OH)3(aq)"     "HPO4--"         "NO3-"           "H4SiO4(aq)"    
 ZONE I=         100 , J=           1 , K=           1  F=POINT
   1.75000000E+01   5.00000000E-01   5.00000000E-01  -5.15727719E+04   4.76125345E+03   0.00000000E+00   1.50205539E+04   3.88745521E+03   1.20709365E+03   7.19372707E+00   0.00000000E+00   0.00000000E+00   0.00000000E+00   0.00000000E+00   0.00000000E+00   0.00000000E+00   1.33560971E+03   2.14919242E+03   0.00000000E+00   0.00000000E+00   0.00000000E+00   0.00000000E+00   1.99799453E+04
   5.25000000E+01   5.00000000E-01   5.00000000E-01  -5.15725753E+04   4.76125334E+03   0.00000000E+00   1.50203810E+04   3.89161665E+03   1.20709366E+03   7.19372707E+00   0.00000000E+00   0.00000000E+00   0.00000000E+00   0.00000000E+00   0.00000000E+00   0.00000000E+00   1.33575903E+03   2.15335385E+03   0.00000000E+00   0.00000000E+00   0.00000000E+00   0.00000000E+00   1.99805455E+04
   8.75000000E+01   5.00000000E-01   5.00000000E-01  -5.15725303E+04   4.76125334E+03   0.00000000E+00   1.50203225E+04   3.89546568E+03   1.20709367E+03   7.19372707E+00   0.00000000E+00   0.00000000E+00   0.00000000E+00   0.00000000E+00   0.00000000E+00   0.00000000E+00   1.33583118E+03   2.15720287E+03   0.00000000E+00   0.00000000E+00   0.00000000E+00   0.00000000E+00   1.99808635E+04
   1.22500000E+02   5.00000000E-01   5.00000000E-01  -5.15725244E+04   4.76125334E+03   0.00000000E+00   1.50203062E+04   3.89880077E+03   1.20709369E+03   7.19372707E+00   0.00000000E+00   0.00000000E+00   0.00000000E+00   0.00000000E+00   0.00000000E+00   0.00000000E+00   1.33585773E+03   2.16053794E+03   0.00000000E+00   0.00000000E+00   0.00000000E+00   0.00000000E+00   1.99809869E+04
   1.57500000E+02   5.00000000E-01   5.00000000E-01  -5.15725287E+04   4.76125334E+03   0.00000000E+00   1.50203043E+04   3.90156929E+03   1.20709370E+03   7.19372707E+00   0.00000000E+00   0.00000000E+00   0.00000000E+00   0.00000000E+00   0.00000000E+00   0.00000000E+00   1.33586583E+03   2.16330646E+03   0.00000000E+00   0.00000000E+00   0.00000000E+00   0.00000000E+00   1.99810279E+04
   1.92500000E+02   5.00000000E-01   5.00000000E-01  -5.15725366E+04   4.76125334E+03   0.00000000E+00   1.50203078E+04   3.90380127E+03   1.20709372E+03   7.19372707E+00   0.00000000E+00   0.00000000E+00   0.00000000E+00   0.00000000E+00   0.00000000E+00   0.00000000E+00   1.33586678E+03   2.16553844E+03   0.00000000E+00   0.00000000E+00   0.00000000E+00   0.00000000E+00   1.99810366E+04
   2.27500000E+02   5.00000000E-01   5.00000000E-01  -5.15725463E+04   4.76125334E+03   0.00000000E+00   1.50203135E+04   3.90556547E+03   1.20709375E+03   7.19372707E+00   0.00000000E+00   0.00000000E+00   0.00000000E+00   0.00000000E+00   0.00000000E+00   0.00000000E+00   1.33586488E+03   2.16730263E+03   0.00000000E+00   0.00000000E+00   0.00000000E+00   0.00000000E+00   1.99810329E+04
   2.62500000E+02   5.00000000E-01   5.00000000E-01  -5.15725570E+04   4.76125334E+03   0.00000000E+00   1.50203204E+04   3.90694274E+03   1.20709377E+03   7.19372707E+00   0.00000000E+00   0.00000000E+00   0.00000000E+00   0.00000000E+00   0.00000000E+00   0.00000000E+00   1.33586177E+03   2.16867990E+03   0.00000000E+00   0.00000000E+00   0.00000000E+00   0.00000000E+00   1.99810241E+04
   2.97500000E+02   5.00000000E-01   5.00000000E-01  -5.15725687E+04   4.76125334E+03   0.00000000E+00   1.50203281E+04   3.90801153E+03   1.20709379E+03   7.19372707E+00   0.00000000E+00   0.00000000E+00   0.00000000E+00   0.00000000E+00   0.00000000E+00   0.00000000E+00   1.33585809E+03   2.16974870E+03   0.00000000E+00   0.00000000E+00   0.00000000E+00   0.00000000E+00   1.99810134E+04
   3.32500000E+02   5.00000000E-01   5.00000000E-01  -5.15725812E+04   4.76125334E+03   0.00000000E+00   1.50203363E+04   3.90884105E+03   1.20709381E+03   7.19372707E+00   0.00000000E+00   0.00000000E+00   0.00000000E+00   0.00000000E+00   0.00000000E+00   0.00000000E+00   1.33585408E+03   2.17057822E+03   0.00000000E+00   0.00000000E+00   0.00000000E+00   0.00000000E+00   1.99810017E+04
   3.67500000E+02   5.00000000E-01   5.00000000E-01  -5.15725945E+04   4.76125334E+03   0.00000000E+00   1.50203451E+04   3.90948807E+03   1.20709383E+03   7.19372707E+00   0.00000000E+00   0.00000000E+00   0.00000000E+00   0.00000000E+00   0.00000000E+00   0.00000000E+00   1.33584983E+03   2.17122524E+03   0.00000000E+00   0.00000000E+00   0.00000000E+00   0.00000000E+00   1.99809896E+04
   4.02500000E+02   5.00000000E-01   5.00000000E-01  -5.15726087E+04   4.76125334E+03   0.00000000E+00   1.50203544E+04   3.90999812E+03   1.20709385E+03   7.19372707E+00   0.00000000E+00   0.00000000E+00   0.00000000E+00   0.00000000E+00   0.00000000E+00   0.00000000E+00   1.33584538E+03   2.17173529E+03   0.00000000E+00   0.00000000E+00   0.00000000E+00   0.00000000E+00   1.99809773E+04
   4.37500000E+02   5.00000000E-01   5.00000000E-01  -5.15726238E+04   4.76125334E+03   0.00000000E+00   1.50203642E+04   3.91040649E+03   1.20709387E+03   7.19372707E+00   0.00000000E+00   0.00000000E+00   0.00000000E+00   0.00000000E+00   0.00000000E+00   0.00000000E+00   1.33584075E+03   2.17214365E+03   0.00000000E+00   0.00000000E+00   0.00000000E+00   0.00000000E+00   1.99809647E+04
   4.72500000E+02   5.00000000E-01   5.00000000E-01  -5.15726398E+04   4.76125334E+03   0.00000000E+00   1.50203746E+04   3.91073980E+03   1.20709389E+03   7.19372707E+00   0.00000000E+00   0.00000000E+00   0.00000000E+00   0.00000000E+00   0.00000000E+00   0.00000000E+00   1.33583595E+03   2.17247695E+03   0.00000000E+00   0.00000000E+00   0.00000000E+00   0.00000000E+00   1.99809521E+04
   5.07500000E+02   5.00000000E-01   5.00000000E-01  -5.15726566E+04   4.76125334E+03   0.00000000E+00   1.50203855E+04   3.91101774E+03   1.20709390E+03   7.19372707E+00   0.00000000E+00   0.00000000E+00   0.00000000E+00   0.00000000E+00   0.00000000E+00   0.00000000E+00   1.33583098E+03   2.17275487E+03   0.00000000E+00   0.00000000E+00   0.00000000E+00   0.00000000E+00   1.99809393E+04
   5.42500000E+02   5.00000000E-01   5.00000000E-01  -5.15726743E+04   4.76125334E+03   0.00000000E+00   1.50203968E+04   3.91125467E+03   1.20709391E+03   7.19372706E+00   0.00000000E+00   0.00000000E+00   0.00000000E+00   0.00000000E+00   0.00000000E+00   0.00000000E+00   1.33582586E+03   2.17299176E+03   0.00000000E+00   0.00000000E+00   0.00000000E+00   0.00000000E+00   1.99809264E+04
   5.77500000E+02   5.00000000E-01   5.00000000E-01  -5.15726929E+04   4.76125334E+03   0.00000000E+00   1.50204086E+04   3.91146092E+03   1.20709393E+03   7.19372706E+00   0.00000000E+00   0.00000000E+00   0.00000000E+00   0.00000000E+00   0.00000000E+00   0.00000000E+00   1.33582060E+03   2.17319793E+03   0.00000000E+00   0.00000000E+00   0.00000000E+00   0.00000000E+00   1.99809134E+04
   6.12500000E+02   5.00000000E-01   5.00000000E-01  -5.15727122E+04   4.76125334E+03   0.00000000E+00   1.50204208E+04   3.91164384E+03   1.20709394E+03   7.19372706E+00   0.00000000E+00   0.00000000E+00   0.00000000E+00   0.00000000E+00   0.00000000E+00   0.00000000E+00   1.33581520E+03   2.17338075E+03   0.00000000E+00   0.00000000E+00   0.00000000E+00   0.00000000E+00   1.99809002E+04
   6.47500000E+02   5.00000000E-01   5.00000000E-01  -5.15727321E+04   4.76125334E+03   0.00000000E+00   1.50204335E+04   3.91180859E+03   1.20709394E+03   7.19372706E+00   0.00000000E+00   0.00000000E+00   0.00000000E+00   0.00000000E+00   0.00000000E+00   0.00000000E+00   1.33580969E+03   2.17354538E+03   0.00000000E+00   0.00000000E+00   0.00000000E+00   0.00000000E+00   1.99808870E+04
   6.82500000E+02   5.00000000E-01   5.00000000E-01  -5.15727527E+04   4.76125334E+03   0.00000000E+00   1.50204464E+04   3.91195882E+03   1.20709395E+03   7.19372706E+00   0.00000000E+00   0.00000000E+00   0.00000000E+00   0.00000000E+00   0.00000000E+00   0.00000000E+00   1.33580407E+03   2.17369547E+03   0.00000000E+00   0.00000000E+00   0.00000000E+00   0.00000000E+00   1.99808737E+04
   7.17500000E+02   5.00000000E-01   5.00000000E-01  -5.15727738E+04   4.76125334E+03   0.00000000E+00   1.50204597E+04   3.91209709E+03   1.20709395E+03   7.19372706E+00   0.00000000E+00   0.00000000E+00   0.00000000E+00   0.00000000E+00   0.00000000E+00   0.00000000E+00   1.33579837E+03   2.17383359E+03   0.00000000E+00   0.00000000E+00   0.00000000E+00   0.00000000E+00   1.99808603E+04
   7.52500000E+02   5.00000000E-01   5.00000000E-01  -5.15727953E+04   4.76125334E+03   0.00000000E+00   1.50204732E+04   3.91222522E+03   1.20709396E+03   7.19372706E+00   0.00000000E+00   0.00000000E+00   0.00000000E+00   0.00000000E+00   0.00000000E+00   0.00000000E+00   1.33579260E+03   2.17396157E+03   0.00000000E+00   0.00000000E+00   0.00000000E+00   0.00000000E+00   1.99808468E+04
   7.87500000E+02   5.00000000E-01   5.00000000E-01  -5.15728171E+04   4.76125334E+03   0.00000000E+00   1.50204868E+04   3.91234453E+03   1.20709396E+03   7.19372705E+00   0.00000000E+00   0.00000000E+00   0.00000000E+00   0.00000000E+00   0.00000000E+00   0.00000000E+00   1.33578677E+03   2.17408072E+03   0.00000000E+00   0.00000000E+00   0.00000000E+00   0.00000000E+00   1.99808332E+04
   8.22500000E+02   5.00000000E-01   5.00000000E-01  -5.15728391E+04   4.76125334E+03   0.00000000E+00   1.50205006E+04   3.91245597E+03   1.20709396E+03   7.19372705E+00   0.00000000E+00   0.00000000E+00   0.00000000E+00   0.00000000E+00   0.00000000E+00   0.00000000E+00   1.33578091E+03   2.17419201E+03   0.00000000E+00   0.00000000E+00   0.00000000E+00   0.00000000E+00   1.99808195E+04
   8.57500000E+02   5.00000000E-01   5.00000000E-01  -5.15728610E+04   4.76125334E+03   0.00000000E+00   1.50205143E+04   3.91256028E+03   1.20709396E+03   7.19372704E+00   0.00000000E+00   0.00000000E+00   0.00000000E+00   0.00000000E+00   0.00000000E+00   0.00000000E+00   1.33577503E+03   2.17429615E+03   0.00000000E+00   0.00000000E+00   0.00000000E+00   0.00000000E+00   1.99808056E+04
   8.92500000E+02   5.00000000E-01   5.00000000E-01  -5.15728828E+04   4.76125334E+03   0.00000000E+00   1.50205280E+04   3.91265803E+03   1.20709396E+03   7.19372703E+00   0.00000000E+00   0.00000000E+00   0.00000000E+00   0.00000000E+00   0.00000000E+00   0.00000000E+00   1.33576916E+03   2.17439374E+03   0.00000000E+00   0.00000000E+00   0.00000000E+00   0.00000000E+00   1.99807916E+04
   9.27500000E+02   5.00000000E-01   5.00000000E-01  -5.15729042E+04   4.76125334E+03   0.00000000E+00   1.50205414E+04   3.91274970E+03   1.20709396E+03   7.19372702E+00   0.00000000E+00   0.00000000E+00   0.00000000E+00   0.00000000E+00   0.00000000E+00   0.00000000E+00   1.33576330E+03   2.17448525E+03   0.00000000E+00   0.00000000E+00   0.00000000E+00   0.00000000E+00   1.99807774E+04
   9.62500000E+02   5.00000000E-01   5.00000000E-01  -5.15729252E+04   4.76125334E+03   0.00000000E+00   1.50205547E+04   3.91283570E+03   1.20709395E+03   7.19372701E+00   0.00000000E+00   0.00000000E+00   0.00000000E+00   0.00000000E+00   0.00000000E+00   0.00000000E+00   1.33575749E+03   2.17457108E+03   0.00000000E+00   0.00000000E+00   0.00000000E+00   0.00000000E+00   1.99807630E+04
   9.97500000E+02   5.00000000E-01   5.00000000E-01  -5.15729456E+04   4.76125334E+03   0.00000000E+00   1.50205676E+04   3.91291640E+03   1.20709395E+03   7.19372699E+00   0.00000000E+00   0.00000000E+00   0.00000000E+00   0.00000000E+00   0.00000000E+00   0.00000000E+00   1.33575173E+03   2.17465161E+03   0.00000000E+00   0.00000000E+00   0.00000000E+00   0.00000000E+00   1.99807484E+04
   1.03250000E+03   5.00000000E-01   5.00000000E-01  -5.15729652E+04   4.76125334E+03   0.00000000E+00   1.50205801E+04   3.91299212E+03   1.20709395E+03   7.19372697E+00   0.00000000E+00   0.00000000E+00   0.00000000E+00   0.00000000E+00   0.00000000E+00   0.00000000E+00   1.33574605E+03   2.17472717E+03   0.00000000E+00   0.00000000E+00   0.00000000E+00   0.00000000E+00   1.99807336E+04
   1.06750000E+03   5.00000000E-01   5.00000000E-01  -5.15729840E+04   4.76125334E+03   0.00000000E+00   1.50205921E+04   3.91306318E+03   1.20709394E+03   7.19372693E+00   0.00000000E+00   0.00000000E+00   0.00000000E+00   0.00000000E+00   0.00000000E+00   0.00000000E+00   1.33574045E+03   2.17479805E+03   0.00000000E+00   0.00000000E+00   0.00000000E+00   0.00000000E+00   1.99807186E+04
   1.10250000E+03   5.00000000E-01   5.00000000E-01  -5.15730017E+04   4.76125334E+03   0.00000000E+00   1.50206035E+04   3.91312985E+03   1.20709394E+03   7.19372689E+00   0.00000000E+00   0.00000000E+00   0.00000000E+00   0.00000000E+00   0.00000000E+00   0.00000000E+00   1.33573496E+03   2.17486456E+03   0.00000000E+00   0.00000000E+00   0.00000000E+00   0.00000000E+00   1.99807033E+04
   1.13750000E+03   5.00000000E-01   5.00000000E-01  -5.15730183E+04   4.76125334E+03   0.00000000E+00   1.50206144E+04   3.91319242E+03   1.20709393E+03   7.19372684E+00   0.00000000E+00   0.00000000E+00   0.00000000E+00   0.00000000E+00   0.00000000E+00   0.00000000E+00   1.33572958E+03   2.17492696E+03   0.00000000E+00   0.00000000E+00   0.00000000E+00   0.00000000E+00   1.99806878E+04
   1.17250000E+03   5.00000000E-01   5.00000000E-01  -5.15730338E+04   4.76125334E+03   0.00000000E+00   1.50206246E+04   3.91325114E+03   1.20709393E+03   7.19372677E+00   0.00000000E+00   0.00000000E+00   0.00000000E+00   0.00000000E+00   0.00000000E+00   0.00000000E+00   1.33572431E+03   2.17498551E+03   0.00000000E+00   0.00000000E+00   0.00000000E+00   0.00000000E+00   1.99806720E+04
   1.20750000E+03   5.00000000E-01   5.00000000E-01  -5.15730480E+04   4.76125334E+03   0.00000000E+00   1.50206341E+04   3.91330625E+03   1.20709392E+03   7.19372667E+00   0.00000000E+00   0.00000000E+00   0.00000000E+00   0.00000000E+00   0.00000000E+00   0.00000000E+00   1.33571917E+03   2.17504045E+03   0.00000000E+00   0.00000000E+00   0.00000000E+00   0.00000000E+00   1.99806559E+04
   1.24250000E+03   5.00000000E-01   5.00000000E-01  -5.15730609E+04   4.76125334E+03   0.00000000E+00   1.50206429E+04   3.91335799E+03   1.20709391E+03   7.19372655E+00   0.00000000E+00   0.00000000E+00   0.00000000E+00   0.00000000E+00   0.00000000E+00   0.00000000E+00   1.33571416E+03   2.17509203E+03   0.00000000E+00   0.00000000E+00   0.00000000E+00   0.00000000E+00   1.99806396E+04
   1.27750000E+03   5.00000000E-01   5.00000000E-01  -5.15730724E+04   4.76125334E+03   0.00000000E+00   1.50206510E+04   3.91340657E+03   1.20709391E+03   7.19372639E+00   0.00000000E+00   0.00000000E+00   0.00000000E+00   0.00000000E+00   0.00000000E+00   0.00000000E+00   1.33570929E+03   2.17514045E+03   0.00000000E+00   0.00000000E+00   0.00000000E+00   0.00000000E+00   1.99806230E+04
   1.31250000E+03   5.00000000E-01   5.00000000E-01  -5.15730827E+04   4.76125334E+03   0.00000000E+00   1.50206583E+04   3.91345219E+03   1.20709390E+03   7.19372618E+00   0.00000000E+00   0.00000000E+00   0.00000000E+00   0.00000000E+00   0.00000000E+00   0.00000000E+00   1.33570454E+03   2.17518592E+03   0.00000000E+00   0.00000000E+00   0.00000000E+00   0.00000000E+00   1.99806061E+04
   1.34750000E+03   5.00000000E-01   5.00000000E-01  -5.15730917E+04   4.76125334E+03   0.00000000E+00   1.50206650E+04   3.91349506E+03   1.20709389E+03   7.19372591E+00   0.00000000E+00   0.00000000E+00   0.00000000E+00   0.00000000E+00   0.00000000E+00   0.00000000E+00   1.33569993E+03   2.17522864E+03   0.00000000E+00   0.00000000E+00   0.00000000E+00   0.00000000E+00   1.99805890E+04
   1.38250000E+03   5.00000000E-01   5.00000000E-01  -5.15730995E+04   4.76125334E+03   0.00000000E+00   1.50206710E+04   3.91353534E+03   1.20709389E+03   7.19372557E+00   0.00000000E+00   0.00000000E+00   0.00000000E+00   0.00000000E+00   0.00000000E+00   0.00000000E+00   1.33569544E+03   2.17526877E+03   0.00000000E+00   0.00000000E+00   0.00000000E+00   0.00000000E+00   1.99805716E+04
   1.41750000E+03   5.00000000E-01   5.00000000E-01  -5.15731061E+04   4.76125334E+03   0.00000000E+00   1.50206763E+04   3.91357321E+03   1.20709388E+03   7.19372514E+00   0.00000000E+00   0.00000000E+00   0.00000000E+00   0.00000000E+00   0.00000000E+00   0.00000000E+00   1.33569107E+03   2.17530650E+03   0.00000000E+00   0.00000000E+00   0.00000000E+00   0.00000000E+00   1.99805539E+04
   1.45250000E+03   5.00000000E-01   5.00000000E-01  -5.15731115E+04   4.76125334E+03   0.00000000E+00   1.50206810E+04   3.91360883E+03   1.20709388E+03   7.19372459E+00   0.00000000E+00   0.00000000E+00   0.00000000E+00   0.00000000E+00   0.00000000E+00   0.00000000E+00   1.33568682E+03   2.17534198E+03   0.00000000E+00   0.00000000E+00   0.00000000E+00   0.00000000E+00   1.99805361E+04
   1.48750000E+03   5.00000000E-01   5.00000000E-01  -5.15731159E+04   4.76125334E+03   0.00000000E+00   1.50206852E+04   3.91364233E+03   1.20709387E+03   7.19372389E+00   0.00000000E+00   0.00000000E+00   0.00000000E+00   0.00000000E+00   0.00000000E+00   0.00000000E+00   1.33568267E+03   2.17537536E+03   0.00000000E+00   0.00000000E+00   0.00000000E+00   0.00000000E+00   1.99805181E+04
   1.52250000E+03   5.00000000E-01   5.00000000E-01  -5.15731193E+04   4.76125334E+03   0.00000000E+00   1.50206888E+04   3.91367386E+03   1.20709386E+03   7.19372301E+00   0.00000000E+00   0.00000000E+00   0.00000000E+00   0.00000000E+00   0.00000000E+00   0.00000000E+00   1.33567863E+03   2.17540676E+03   0.00000000E+00   0.00000000E+00   0.00000000E+00   0.00000000E+00   1.99804999E+04
   1.55750000E+03   5.00000000E-01   5.00000000E-01  -5.15731218E+04   4.76125334E+03   0.00000000E+00   1.50206919E+04   3.91370353E+03   1.20709386E+03   7.19372190E+00   0.00000000E+00   0.00000000E+00   0.00000000E+00   0.00000000E+00   0.00000000E+00   0.00000000E+00   1.33567469E+03   2.17543632E+03   0.00000000E+00   0.00000000E+00   0.00000000E+00   0.00000000E+00   1.99804815E+04
   1.59250000E+03   5.00000000E-01   5.00000000E-01  -5.15731235E+04   4.76125334E+03   0.00000000E+00   1.50206946E+04   3.91373148E+03   1.20709385E+03   7.19372050E+00   0.00000000E+00   0.00000000E+00   0.00000000E+00   0.00000000E+00   0.00000000E+00   0.00000000E+00   1.33567083E+03   2.17546415E+03   0.00000000E+00   0.00000000E+00   0.00000000E+00   0.00000000E+00   1.99804630E+04
   1.62750000E+03   5.00000000E-01   5.00000000E-01  -5.15731246E+04   4.76125334E+03   0.00000000E+00   1.50206969E+04   3.91375779E+03   1.20709385E+03   7.19371875E+00   0.00000000E+00   0.00000000E+00   0.00000000E+00   0.00000000E+00   0.00000000E+00   0.00000000E+00   1.33566705E+03   2.17549036E+03   0.00000000E+00   0.00000000E+00   0.00000000E+00   0.00000000E+00   1.99804444E+04
   1.66250000E+03   5.00000000E-01   5.00000000E-01  -5.15731250E+04   4.76125334E+03   0.00000000E+00   1.50206989E+04   3.91378258E+03   1.20709385E+03   7.19371657E+00   0.00000000E+00   0.00000000E+00   0.00000000E+00   0.00000000E+00   0.00000000E+00   0.00000000E+00   1.33566335E+03   2.17551505E+03   0.00000000E+00   0.00000000E+00   0.00000000E+00   0.00000000E+00   1.99804257E+04
   1.69750000E+03   5.00000000E-01   5.00000000E-01  -5.15731250E+04   4.76125334E+03   0.00000000E+00   1.50207006E+04   3.91380593E+03   1.20709384E+03   7.19371393E+00   0.00000000E+00   0.00000000E+00   0.00000000E+00   0.00000000E+00   0.00000000E+00   0.00000000E+00   1.33565971E+03   2.17553831E+03   0.00000000E+00   0.00000000E+00   0.00000000E+00   0.00000000E+00   1.99804068E+04
   1.73250000E+03   5.00000000E-01   5.00000000E-01  -5.15731245E+04   4.76125334E+03   0.00000000E+00   1.50207021E+04   3.91382792E+03   1.20709384E+03   7.19371078E+00   0.00000000E+00   0.00000000E+00   0.00000000E+00   0.00000000E+00   0.00000000E+00   0.00000000E+00   1.33565613E+03   2.17556022E+03   0.00000000E+00   0.00000000E+00   0.00000000E+00   0.00000000E+00   1.99803880E+04
   1.76750000E+03   5.00000000E-01   5.00000000E-01  -5.15731236E+04   4.76125334E+03   0.00000000E+00   1.50207033E+04   3.91384865E+03   1.20709384E+03   7.19370708E+00   0.00000000E+00   0.00000000E+00   0.00000000E+00   0.00000000E+00   0.00000000E+00   0.00000000E+00   1.33565262E+03   2.17558087E+03   0.00000000E+00   0.00000000E+00   0.00000000E+00   0.00000000E+00   1.99803691E+04
   1.80250000E+03   5.00000000E-01   5.00000000E-01  -5.15731224E+04   4.76125334E+03   0.00000000E+00   1.50207044E+04   3.91386817E+03   1.20709383E+03   7.19370276E+00   0.00000000E+00   0.00000000E+00   0.00000000E+00   0.00000000E+00   0.00000000E+00   0.00000000E+00   1.33564915E+03   2.17560031E+03   0.00000000E+00   0.00000000E+00   0.00000000E+00   0.00000000E+00   1.99803502E+04
   1.83750000E+03   5.00000000E-01   5.00000000E-01  -5.15731210E+04   4.76125334E+03   0.00000000E+00   1.50207053E+04   3.91388656E+03   1.20709383E+03   7.19369771E+00   0.00000000E+00   0.00000000E+00   0.00000000E+00   0.00000000E+00   0.00000000E+00   0.00000000E+00   1.33564574E+03   2.17561863E+03   0.00000000E+00   0.00000000E+00   0.00000000E+00   0.00000000E+00   1.99803313E+04
   1.87250000E+03   5.00000000E-01   5.00000000E-01  -5.15731195E+04   4.76125334E+03   0.00000000E+00   1.50207062E+04   3.91390387E+03   1.20709383E+03   7.19369177E+00   0.00000000E+00   0.00000000E+00   0.00000000E+00   0.00000000E+00   0.00000000E+00   0.00000000E+00   1.33564237E+03   2.17563588E+03   0.00000000E+00   0.00000000E+00   0.00000000E+00   0.00000000E+00   1.99803124E+04
   1.90750000E+03   5.00000000E-01   5.00000000E-01  -5.15731178E+04   4.76125334E+03   0.00000000E+00   1.50207069E+04   3.91392017E+03   1.20709383E+03   7.19368475E+00   0.00000000E+00   0.00000000E+00   0.00000000E+00   0.00000000E+00   0.00000000E+00   0.00000000E+00   1.33563906E+03   2.17565212E+03   0.00000000E+00   0.00000000E+00   0.00000000E+00   0.00000000E+00   1.99802935E+04
   1.94250000E+03   5.00000000E-01   5.00000000E-01  -5.15731161E+04   4.76125334E+03   0.00000000E+00   1.50207077E+04   3.91393551E+03   1.20709384E+03   7.19367651E+00   0.00000000E+00   0.00000000E+00   0.00000000E+00   0.00000000E+00   0.00000000E+00   0.00000000E+00   1.33563579E+03   2.17566739E+03   0.00000000E+00   0.00000000E+00   0.00000000E+00   0.00000000E+00   1.99802747E+04
   1.97750000E+03   5.00000000E-01   5.00000000E-01  -5.15731143E+04   4.76125334E+03   0.00000000E+00   1.50207084E+04   3.91394993E+03   1.20709384E+03   7.19366707E+00   0.00000000E+00   0.00000000E+00   0.00000000E+00   0.00000000E+00   0.00000000E+00   0.00000000E+00   1.33563256E+03   2.17568176E+03   0.00000000E+00   0.00000000E+00   0.00000000E+00   0.00000000E+00   1.99802560E+04
   2.01250000E+03   5.00000000E-01   5.00000000E-01  -5.15731126E+04   4.76125334E+03   0.00000000E+00   1.50207090E+04   3.91396348E+03   1.20709384E+03   7.19365666E+00   0.00000000E+00   0.00000000E+00   0.00000000E+00   0.00000000E+00   0.00000000E+00   0.00000000E+00   1.33562938E+03   2.17569526E+03   0.00000000E+00   0.00000000E+00   0.00000000E+00   0.00000000E+00   1.99802374E+04
   2.04750000E+03   5.00000000E-01   5.00000000E-01  -5.15731108E+04   4.76125334E+03   0.00000000E+00   1.50207097E+04   3.91397620E+03   1.20709385E+03   7.19364561E+00   0.00000000E+00   0.00000000E+00   0.00000000E+00   0.00000000E+00   0.00000000E+00   0.00000000E+00   1.33562625E+03   2.17570793E+03   0.00000000E+00   0.00000000E+00   0.00000000E+00   0.00000000E+00   1.99802190E+04
   2.08250000E+03   5.00000000E-01   5.00000000E-01  -5.15731092E+04   4.76125334E+03   0.00000000E+00   1.50207104E+04   3.91398814E+03   1.20709385E+03   7.19363430E+00   0.00000000E+00   0.00000000E+00   0.00000000E+00   0.00000000E+00   0.00000000E+00   0.00000000E+00   1.33562316E+03   2.17571982E+03   0.00000000E+00   0.00000000E+00   0.00000000E+00   0.00000000E+00   1.99802007E+04
   2.11750000E+03   5.00000000E-01   5.00000000E-01  -5.15731078E+04   4.76125334E+03   0.00000000E+00   1.50207111E+04   3.91399932E+03   1.20709386E+03   7.19362304E+00   0.00000000E+00   0.00000000E+00   0.00000000E+00   0.00000000E+00   0.00000000E+00   0.00000000E+00   1.33562012E+03   2.17573095E+03   0.00000000E+00   0.00000000E+00   0.00000000E+00   0.00000000E+00   1.99801825E+04
   2.15250000E+03   5.00000000E-01   5.00000000E-01  -5.15731064E+04   4.76125334E+03   0.00000000E+00   1.50207119E+04   3.91400979E+03   1.20709387E+03   7.19361203E+00   0.00000000E+00   0.00000000E+00   0.00000000E+00   0.00000000E+00   0.00000000E+00   0.00000000E+00   1.33561713E+03   2.17574137E+03   0.00000000E+00   0.00000000E+00   0.00000000E+00   0.00000000E+00   1.99801645E+04
   2.18750000E+03   5.00000000E-01   5.00000000E-01  -5.15731053E+04   4.76125334E+03   0.00000000E+00   1.50207128E+04   3.91401957E+03   1.20709388E+03   7.19360141E+00   0.00000000E+00   0.00000000E+00   0.00000000E+00   0.00000000E+00   0.00000000E+00   0.00000000E+00   1.33561418E+03   2.17575110E+03   0.00000000E+00   0.00000000E+00   0.00000000E+00   0.00000000E+00   1.99801466E+04
   2.22250000E+03   5.00000000E-01   5.00000000E-01  -5.15731044E+04   4.76125334E+03   0.00000000E+00   1.50207138E+04   3.91402869E+03   1.20709389E+03   7.19359129E+00   0.00000000E+00   0.00000000E+00   0.00000000E+00   0.00000000E+00   0.00000000E+00   0.00000000E+00   1.33561129E+03   2.17576019E+03   0.00000000E+00   0.00000000E+00   0.00000000E+00   0.00000000E+00   1.99801288E+04
   2.25750000E+03   5.00000000E-01   5.00000000E-01  -5.15731038E+04   4.76125334E+03   0.00000000E+00   1.50207149E+04   3.91403718E+03   1.20709390E+03   7.19358157E+00   0.00000000E+00   0.00000000E+00   0.00000000E+00   0.00000000E+00   0.00000000E+00   0.00000000E+00   1.33560844E+03   2.17576864E+03   0.00000000E+00   0.00000000E+00   0.00000000E+00   0.00000000E+00   1.99801112E+04
   2.29250000E+03   5.00000000E-01   5.00000000E-01  -5.15731035E+04   4.76125334E+03   0.00000000E+00   1.50207161E+04   3.91404508E+03   1.20709391E+03   7.19357190E+00   0.00000000E+00   0.00000000E+00   0.00000000E+00   0.00000000E+00   0.00000000E+00   0.00000000E+00   1.33560565E+03   2.17577651E+03   0.00000000E+00   0.00000000E+00   0.00000000E+00   0.00000000E+00   1.99800937E+04
   2.32750000E+03   5.00000000E-01   5.00000000E-01  -5.15731035E+04   4.76125334E+03   0.00000000E+00   1.50207174E+04   3.91405239E+03   1.20709392E+03   7.19356171E+00   0.00000000E+00   0.00000000E+00   0.00000000E+00   0.00000000E+00   0.00000000E+00   0.00000000E+00   1.33560292E+03   2.17578381E+03   0.00000000E+00   0.00000000E+00   0.00000000E+00   0.00000000E+00   1.99800763E+04
   2.36250000E+03   5.00000000E-01   5.00000000E-01  -5.15731038E+04   4.76125334E+03   0.00000000E+00   1.50207189E+04   3.91405914E+03   1.20709394E+03   7.19355047E+00   0.00000000E+00   0.00000000E+00   0.00000000E+00   0.00000000E+00   0.00000000E+00   0.00000000E+00   1.33560024E+03   2.17579056E+03   0.00000000E+00   0.00000000E+00   0.00000000E+00   0.00000000E+00   1.99800591E+04
   2.39750000E+03   5.00000000E-01   5.00000000E-01  -5.15731044E+04   4.76125334E+03   0.00000000E+00   1.50207206E+04   3.91406537E+03   1.20709395E+03   7.19353806E+00   0.00000000E+00   0.00000000E+00   0.00000000E+00   0.00000000E+00   0.00000000E+00   0.00000000E+00   1.33559762E+03   2.17579680E+03   0.00000000E+00   0.00000000E+00   0.00000000E+00   0.00000000E+00   1.99800418E+04
   2.43250000E+03   5.00000000E-01   5.00000000E-01  -5.15731054E+04   4.76125334E+03   0.00000000E+00   1.50207224E+04   3.91407108E+03   1.20709396E+03   7.19352491E+00   0.00000000E+00   0.00000000E+00   0.00000000E+00   0.00000000E+00   0.00000000E+00   0.00000000E+00   1.33559506E+03   2.17580255E+03   0.00000000E+00   0.00000000E+00   0.00000000E+00   0.00000000E+00   1.99800247E+04
   2.46750000E+03   5.00000000E-01   5.00000000E-01  -5.15731068E+04   4.76125334E+03   0.00000000E+00   1.50207244E+04   3.91407630E+03   1.20709396E+03   7.19351202E+00   0.00000000E+00   0.00000000E+00   0.00000000E+00   0.00000000E+00   0.00000000E+00   0.00000000E+00   1.33559255E+03   2.17580783E+03   0.00000000E+00   0.00000000E+00   0.00000000E+00   0.00000000E+00   1.99800076E+04
   2.50250000E+03   5.00000000E-01   5.00000000E-01  -5.15731084E+04   4.76125334E+03   0.00000000E+00   1.50207265E+04   3.91408105E+03   1.20709397E+03   7.19350079E+00   0.00000000E+00   0.00000000E+00   0.00000000E+00   0.00000000E+00   0.00000000E+00   0.00000000E+00   1.33559011E+03   2.17581264E+03   0.00000000E+00   0.00000000E+00   0.00000000E+00   0.00000000E+00   1.99799905E+04
   2.53750000E+03   5.00000000E-01   5.00000000E-01  -5.15731103E+04   4.76125334E+03   0.00000000E+00   1.50207287E+04   3.91408534E+03   1.20709397E+03   7.19349268E+00   0.00000000E+00   0.00000000E+00   0.00000000E+00   0.00000000E+00   0.00000000E+00   0.00000000E+00   1.33558774E+03   2.17581701E+03   0.00000000E+00   0.00000000E+00   0.00000000E+00   0.00000000E+00   1.99799735E+04
   2.57250000E+03   5.00000000E-01   5.00000000E-01  -5.15731124E+04   4.76125334E+03   0.00000000E+00   1.50207310E+04   3.91408921E+03   1.20709398E+03   7.19348889E+00   0.00000000E+00   0.00000000E+00   0.00000000E+00   0.00000000E+00   0.00000000E+00   0.00000000E+00   1.33558542E+03   2.17582094E+03   0.00000000E+00   0.00000000E+00   0.00000000E+00   0.00000000E+00   1.99799565E+04
   2.60750000E+03   5.00000000E-01   5.00000000E-01  -5.15731147E+04   4.76125334E+03   0.00000000E+00   1.50207334E+04   3.91409265E+03   1.20709397E+03   7.19349014E+00   0.00000000E+00   0.00000000E+00   0.00000000E+00   0.00000000E+00   0.00000000E+00   0.00000000E+00   1.33558317E+03   2.17582445E+03   0.00000000E+00   0.00000000E+00   0.00000000E+00   0.00000000E+00   1.99799395E+04