 TITLE = "Total Component Concentration in Minerals" 
VARIABLES = "X"          "Y"              "Z"            "H+"             "Al+++"          "CO2(aq)"        "Mg++"           "Ca++"           "Fe++"           "Fe+++"          "Ba++"           "Sr++"           "Cl-"            "F-"             "K+"             "Na+"            "SO4--"          "O2(aq)"         "B(OH)3(aq)"     "HPO4--"         "NO3-"           "H4SiO4(aq)"    
 ZONE I=         100 , J=           1 , K=           1  F=POINT
   1.75000000E+01   5.00000000E-01   5.00000000E-01  -5.31201887E+04   2.29394789E+03   0.00000000E+00   1.95104859E+04   3.26277444E+03   2.20603649E+03   7.19372704E+00   0.00000000E+00   0.00000000E+00   0.00000000E+00   0.00000000E+00   9.14542040E-01   1.54519111E+03   2.64396770E+03   0.00000000E+00   0.00000000E+00   0.00000000E+00   0.00000000E+00   1.93616879E+04
   5.25000000E+01   5.00000000E-01   5.00000000E-01  -5.31145320E+04   2.29394578E+03   0.00000000E+00   1.95070805E+04   4.50781618E+03   2.20603656E+03   7.19372705E+00   0.00000000E+00   0.00000000E+00   0.00000000E+00   0.00000000E+00   1.03304430E+00   1.54623246E+03   3.88900923E+03   0.00000000E+00   0.00000000E+00   0.00000000E+00   0.00000000E+00   1.93632016E+04
   8.75000000E+01   5.00000000E-01   5.00000000E-01  -5.31141438E+04   2.29394578E+03   0.00000000E+00   1.95066679E+04   4.89773545E+03   2.20603666E+03   7.19372704E+00   0.00000000E+00   0.00000000E+00   0.00000000E+00   0.00000000E+00   9.85144725E-01   1.54671700E+03   4.27892843E+03   0.00000000E+00   0.00000000E+00   0.00000000E+00   0.00000000E+00   1.93646002E+04
   1.22500000E+02   5.00000000E-01   5.00000000E-01  -5.31140581E+04   2.29394578E+03   0.00000000E+00   1.95065189E+04   4.99683965E+03   2.20603679E+03   7.19372704E+00   0.00000000E+00   0.00000000E+00   0.00000000E+00   0.00000000E+00   9.45869948E-01   1.54696824E+03   4.37803260E+03   0.00000000E+00   0.00000000E+00   0.00000000E+00   0.00000000E+00   1.93652885E+04
   1.57500000E+02   5.00000000E-01   5.00000000E-01  -5.31140817E+04   2.29394578E+03   0.00000000E+00   1.95064770E+04   5.02111162E+03   2.20603695E+03   7.19372703E+00   0.00000000E+00   0.00000000E+00   0.00000000E+00   0.00000000E+00   9.21883687E-01   1.54709921E+03   4.40230455E+03   0.00000000E+00   0.00000000E+00   0.00000000E+00   0.00000000E+00   1.93656657E+04
   1.92500000E+02   5.00000000E-01   5.00000000E-01  -5.31141614E+04   2.29394578E+03   0.00000000E+00   1.95064916E+04   5.02745945E+03   2.20603713E+03   7.19372702E+00   0.00000000E+00   0.00000000E+00   0.00000000E+00   0.00000000E+00   9.09150922E-01   1.54716206E+03   4.40865236E+03   0.00000000E+00   0.00000000E+00   0.00000000E+00   0.00000000E+00   1.93658836E+04
   2.27500000E+02   5.00000000E-01   5.00000000E-01  -5.31142757E+04   2.29394578E+03   0.00000000E+00   1.95065403E+04   5.02947195E+03   2.20603734E+03   7.19372701E+00   0.00000000E+00   0.00000000E+00   0.00000000E+00   0.00000000E+00   9.03950282E-01   1.54718378E+03   4.41066483E+03   0.00000000E+00   0.00000000E+00   0.00000000E+00   0.00000000E+00   1.93660118E+04
   2.62500000E+02   5.00000000E-01   5.00000000E-01  -5.31144144E+04   2.29394578E+03   0.00000000E+00   1.95066117E+04   5.03031701E+03   2.20603756E+03   7.19372701E+00   0.00000000E+00   0.00000000E+00   0.00000000E+00   0.00000000E+00   9.03719300E-01   1.54717943E+03   4.41150986E+03   0.00000000E+00   0.00000000E+00   0.00000000E+00   0.00000000E+00   1.93660864E+04
   2.97500000E+02   5.00000000E-01   5.00000000E-01  -5.31145721E+04   2.29394578E+03   0.00000000E+00   1.95066995E+04   5.03072981E+03   2.20603780E+03   7.19372700E+00   0.00000000E+00   0.00000000E+00   0.00000000E+00   0.00000000E+00   9.06778288E-01   1.54715790E+03   4.41192263E+03   0.00000000E+00   0.00000000E+00   0.00000000E+00   0.00000000E+00   1.93661277E+04
   3.32500000E+02   5.00000000E-01   5.00000000E-01  -5.31147456E+04   2.29394578E+03   0.00000000E+00   1.95067999E+04   5.03088796E+03   2.20603806E+03   7.19372699E+00   0.00000000E+00   0.00000000E+00   0.00000000E+00   0.00000000E+00   9.12029037E-01   1.54712464E+03   4.41208074E+03   0.00000000E+00   0.00000000E+00   0.00000000E+00   0.00000000E+00   1.93661479E+04
   3.67500000E+02   5.00000000E-01   5.00000000E-01  -5.31149328E+04   2.29394578E+03   0.00000000E+00   1.95069106E+04   5.03084353E+03   2.20603833E+03   7.19372698E+00   0.00000000E+00   0.00000000E+00   0.00000000E+00   0.00000000E+00   9.18745061E-01   1.54708312E+03   4.41203629E+03   0.00000000E+00   0.00000000E+00   0.00000000E+00   0.00000000E+00   1.93661543E+04
   4.02500000E+02   5.00000000E-01   5.00000000E-01  -5.31151323E+04   2.29394578E+03   0.00000000E+00   1.95070300E+04   5.03062077E+03   2.20603861E+03   7.19372697E+00   0.00000000E+00   0.00000000E+00   0.00000000E+00   0.00000000E+00   9.26436721E-01   1.54703561E+03   4.41181350E+03   0.00000000E+00   0.00000000E+00   0.00000000E+00   0.00000000E+00   1.93661517E+04
   4.37500000E+02   5.00000000E-01   5.00000000E-01  -5.31153429E+04   2.29394578E+03   0.00000000E+00   1.95071568E+04   5.03023763E+03   2.20603891E+03   7.19372695E+00   0.00000000E+00   0.00000000E+00   0.00000000E+00   0.00000000E+00   9.34770334E-01   1.54698365E+03   4.41143033E+03   0.00000000E+00   0.00000000E+00   0.00000000E+00   0.00000000E+00   1.93661431E+04
   4.72500000E+02   5.00000000E-01   5.00000000E-01  -5.31155635E+04   2.29394578E+03   0.00000000E+00   1.95072900E+04   5.02971032E+03   2.20603921E+03   7.19372694E+00   0.00000000E+00   0.00000000E+00   0.00000000E+00   0.00000000E+00   9.43513453E-01   1.54692833E+03   4.41090300E+03   0.00000000E+00   0.00000000E+00   0.00000000E+00   0.00000000E+00   1.93661305E+04
   5.07500000E+02   5.00000000E-01   5.00000000E-01  -5.31157927E+04   2.29394578E+03   0.00000000E+00   1.95074288E+04   5.02905421E+03   2.20603951E+03   7.19372693E+00   0.00000000E+00   0.00000000E+00   0.00000000E+00   0.00000000E+00   9.52475684E-01   1.54687047E+03   4.41024686E+03   0.00000000E+00   0.00000000E+00   0.00000000E+00   0.00000000E+00   1.93661148E+04
   5.42500000E+02   5.00000000E-01   5.00000000E-01  -5.31160293E+04   2.29394578E+03   0.00000000E+00   1.95075721E+04   5.02828393E+03   2.20603983E+03   7.19372692E+00   0.00000000E+00   0.00000000E+00   0.00000000E+00   0.00000000E+00   9.61521403E-01   1.54681069E+03   4.40947655E+03   0.00000000E+00   0.00000000E+00   0.00000000E+00   0.00000000E+00   1.93660969E+04
   5.77500000E+02   5.00000000E-01   5.00000000E-01  -5.31162718E+04   2.29394578E+03   0.00000000E+00   1.95077190E+04   5.02741329E+03   2.20604015E+03   7.19372691E+00   0.00000000E+00   0.00000000E+00   0.00000000E+00   0.00000000E+00   9.70544622E-01   1.54674954E+03   4.40860589E+03   0.00000000E+00   0.00000000E+00   0.00000000E+00   0.00000000E+00   1.93660770E+04
   6.12500000E+02   5.00000000E-01   5.00000000E-01  -5.31165184E+04   2.29394578E+03   0.00000000E+00   1.95078686E+04   5.02645529E+03   2.20604047E+03   7.19372690E+00   0.00000000E+00   0.00000000E+00   0.00000000E+00   0.00000000E+00   9.79460560E-01   1.54668745E+03   4.40764787E+03   0.00000000E+00   0.00000000E+00   0.00000000E+00   0.00000000E+00   1.93660553E+04
   6.47500000E+02   5.00000000E-01   5.00000000E-01  -5.31167675E+04   2.29394578E+03   0.00000000E+00   1.95080199E+04   5.02542208E+03   2.20604079E+03   7.19372689E+00   0.00000000E+00   0.00000000E+00   0.00000000E+00   0.00000000E+00   9.88009886E-01   1.54662470E+03   4.40661464E+03   0.00000000E+00   0.00000000E+00   0.00000000E+00   0.00000000E+00   1.93660311E+04
   6.82500000E+02   5.00000000E-01   5.00000000E-01  -5.31170172E+04   2.29394578E+03   0.00000000E+00   1.95081722E+04   5.02432491E+03   2.20604112E+03   7.19372688E+00   0.00000000E+00   0.00000000E+00   0.00000000E+00   0.00000000E+00   9.95696432E-01   1.54656138E+03   4.40551745E+03   0.00000000E+00   0.00000000E+00   0.00000000E+00   0.00000000E+00   1.93660035E+04
   7.17500000E+02   5.00000000E-01   5.00000000E-01  -5.31172651E+04   2.29394578E+03   0.00000000E+00   1.95083237E+04   5.02317420E+03   2.20604144E+03   7.19372687E+00   0.00000000E+00   0.00000000E+00   0.00000000E+00   0.00000000E+00   1.00299137E+00   1.54649840E+03   4.40436672E+03   0.00000000E+00   0.00000000E+00   0.00000000E+00   0.00000000E+00   1.93659738E+04
   7.52500000E+02   5.00000000E-01   5.00000000E-01  -5.31175084E+04   2.29394578E+03   0.00000000E+00   1.95084727E+04   5.02197949E+03   2.20604176E+03   7.19372686E+00   0.00000000E+00   0.00000000E+00   0.00000000E+00   0.00000000E+00   1.00986732E+00   1.54643610E+03   4.40317200E+03   0.00000000E+00   0.00000000E+00   0.00000000E+00   0.00000000E+00   1.93659416E+04
   7.87500000E+02   5.00000000E-01   5.00000000E-01  -5.31177446E+04   2.29394578E+03   0.00000000E+00   1.95086179E+04   5.02074950E+03   2.20604208E+03   7.19372685E+00   0.00000000E+00   0.00000000E+00   0.00000000E+00   0.00000000E+00   1.01630320E+00   1.54637483E+03   4.40194199E+03   0.00000000E+00   0.00000000E+00   0.00000000E+00   0.00000000E+00   1.93659064E+04
   8.22500000E+02   5.00000000E-01   5.00000000E-01  -5.31179709E+04   2.29394578E+03   0.00000000E+00   1.95087577E+04   5.01949216E+03   2.20604240E+03   7.19372684E+00   0.00000000E+00   0.00000000E+00   0.00000000E+00   0.00000000E+00   1.02228836E+00   1.54631492E+03   4.40068465E+03   0.00000000E+00   0.00000000E+00   0.00000000E+00   0.00000000E+00   1.93658676E+04
   8.57500000E+02   5.00000000E-01   5.00000000E-01  -5.31181847E+04   2.29394577E+03   0.00000000E+00   1.95088906E+04   5.01821466E+03   2.20604271E+03   7.19372682E+00   0.00000000E+00   0.00000000E+00   0.00000000E+00   0.00000000E+00   1.02782296E+00   1.54625668E+03   4.39940713E+03   0.00000000E+00   0.00000000E+00   0.00000000E+00   0.00000000E+00   1.93658250E+04
   8.92500000E+02   5.00000000E-01   5.00000000E-01  -5.31183831E+04   2.29394577E+03   0.00000000E+00   1.95090151E+04   5.01692343E+03   2.20604301E+03   7.19372683E+00   0.00000000E+00   0.00000000E+00   0.00000000E+00   0.00000000E+00   1.03291775E+00   1.54620044E+03   4.39811589E+03   0.00000000E+00   0.00000000E+00   0.00000000E+00   0.00000000E+00   1.93657781E+04
   9.27500000E+02   5.00000000E-01   5.00000000E-01  -5.31185634E+04   2.29394577E+03   0.00000000E+00   1.95091296E+04   5.01562428E+03   2.20604331E+03   7.19372683E+00   0.00000000E+00   0.00000000E+00   0.00000000E+00   0.00000000E+00   1.03759344E+00   1.54614647E+03   4.39681673E+03   0.00000000E+00   0.00000000E+00   0.00000000E+00   0.00000000E+00   1.93657264E+04
   9.62500000E+02   5.00000000E-01   5.00000000E-01  -5.31187230E+04   2.29394577E+03   0.00000000E+00   1.95092326E+04   5.01432235E+03   2.20604360E+03   7.19372683E+00   0.00000000E+00   0.00000000E+00   0.00000000E+00   0.00000000E+00   1.04187965E+00   1.54609506E+03   4.39551480E+03   0.00000000E+00   0.00000000E+00   0.00000000E+00   0.00000000E+00   1.93656696E+04
   9.97500000E+02   5.00000000E-01   5.00000000E-01  -5.31188595E+04   2.29394577E+03   0.00000000E+00   1.95093229E+04   5.01302223E+03   2.20604387E+03   7.19372684E+00   0.00000000E+00   0.00000000E+00   0.00000000E+00   0.00000000E+00   1.04581326E+00   1.54604643E+03   4.39421467E+03   0.00000000E+00   0.00000000E+00   0.00000000E+00   0.00000000E+00   1.93656075E+04
   1.03250000E+03   5.00000000E-01   5.00000000E-01  -5.31189706E+04   2.29394577E+03   0.00000000E+00   1.95093992E+04   5.01172795E+03   2.20604413E+03   7.19372685E+00   0.00000000E+00   0.00000000E+00   0.00000000E+00   0.00000000E+00   1.04943667E+00   1.54600081E+03   4.39292038E+03   0.00000000E+00   0.00000000E+00   0.00000000E+00   0.00000000E+00   1.93655397E+04
   1.06750000E+03   5.00000000E-01   5.00000000E-01  -5.31190545E+04   2.29394577E+03   0.00000000E+00   1.95094605E+04   5.01044305E+03   2.20604437E+03   7.19372686E+00   0.00000000E+00   0.00000000E+00   0.00000000E+00   0.00000000E+00   1.05279500E+00   1.54595835E+03   4.39163548E+03   0.00000000E+00   0.00000000E+00   0.00000000E+00   0.00000000E+00   1.93654662E+04
   1.10250000E+03   5.00000000E-01   5.00000000E-01  -5.31191097E+04   2.29394577E+03   0.00000000E+00   1.95095059E+04   5.00917061E+03   2.20604460E+03   7.19372686E+00   0.00000000E+00   0.00000000E+00   0.00000000E+00   0.00000000E+00   1.05593426E+00   1.54591919E+03   4.39036304E+03   0.00000000E+00   0.00000000E+00   0.00000000E+00   0.00000000E+00   1.93653868E+04
   1.13750000E+03   5.00000000E-01   5.00000000E-01  -5.31191353E+04   2.29394577E+03   0.00000000E+00   1.95095348E+04   5.00791331E+03   2.20604481E+03   7.19372687E+00   0.00000000E+00   0.00000000E+00   0.00000000E+00   0.00000000E+00   1.05889801E+00   1.54588342E+03   4.38910574E+03   0.00000000E+00   0.00000000E+00   0.00000000E+00   0.00000000E+00   1.93653017E+04
   1.17250000E+03   5.00000000E-01   5.00000000E-01  -5.31191305E+04   2.29394577E+03   0.00000000E+00   1.95095470E+04   5.00667344E+03   2.20604500E+03   7.19372688E+00   0.00000000E+00   0.00000000E+00   0.00000000E+00   0.00000000E+00   1.06172564E+00   1.54585108E+03   4.38786587E+03   0.00000000E+00   0.00000000E+00   0.00000000E+00   0.00000000E+00   1.93652110E+04
   1.20750000E+03   5.00000000E-01   5.00000000E-01  -5.31190954E+04   2.29394577E+03   0.00000000E+00   1.95095424E+04   5.00545295E+03   2.20604516E+03   7.19372689E+00   0.00000000E+00   0.00000000E+00   0.00000000E+00   0.00000000E+00   1.06444950E+00   1.54582218E+03   4.38664537E+03   0.00000000E+00   0.00000000E+00   0.00000000E+00   0.00000000E+00   1.93651149E+04
   1.24250000E+03   5.00000000E-01   5.00000000E-01  -5.31190306E+04   2.29394577E+03   0.00000000E+00   1.95095213E+04   5.00425347E+03   2.20604531E+03   7.19372690E+00   0.00000000E+00   0.00000000E+00   0.00000000E+00   0.00000000E+00   1.06709400E+00   1.54579666E+03   4.38544590E+03   0.00000000E+00   0.00000000E+00   0.00000000E+00   0.00000000E+00   1.93650137E+04
   1.27750000E+03   5.00000000E-01   5.00000000E-01  -5.31189371E+04   2.29394576E+03   0.00000000E+00   1.95094842E+04   5.00307638E+03   2.20604543E+03   7.19372690E+00   0.00000000E+00   0.00000000E+00   0.00000000E+00   0.00000000E+00   1.06967304E+00   1.54577444E+03   4.38426881E+03   0.00000000E+00   0.00000000E+00   0.00000000E+00   0.00000000E+00   1.93649081E+04
   1.31250000E+03   5.00000000E-01   5.00000000E-01  -5.31188164E+04   2.29394576E+03   0.00000000E+00   1.95094321E+04   5.00192278E+03   2.20604553E+03   7.19372691E+00   0.00000000E+00   0.00000000E+00   0.00000000E+00   0.00000000E+00   1.07219075E+00   1.54575538E+03   4.38311521E+03   0.00000000E+00   0.00000000E+00   0.00000000E+00   0.00000000E+00   1.93647984E+04
   1.34750000E+03   5.00000000E-01   5.00000000E-01  -5.31186708E+04   2.29394576E+03   0.00000000E+00   1.95093660E+04   5.00079355E+03   2.20604560E+03   7.19372692E+00   0.00000000E+00   0.00000000E+00   0.00000000E+00   0.00000000E+00   1.07464141E+00   1.54573932E+03   4.38198598E+03   0.00000000E+00   0.00000000E+00   0.00000000E+00   0.00000000E+00   1.93646853E+04
   1.38250000E+03   5.00000000E-01   5.00000000E-01  -5.31185026E+04   2.29394576E+03   0.00000000E+00   1.95092873E+04   4.99968938E+03   2.20604565E+03   7.19372692E+00   0.00000000E+00   0.00000000E+00   0.00000000E+00   0.00000000E+00   1.07701046E+00   1.54572605E+03   4.38088182E+03   0.00000000E+00   0.00000000E+00   0.00000000E+00   0.00000000E+00   1.93645696E+04
   1.41750000E+03   5.00000000E-01   5.00000000E-01  -5.31183147E+04   2.29394576E+03   0.00000000E+00   1.95091976E+04   4.99861077E+03   2.20604568E+03   7.19372691E+00   0.00000000E+00   0.00000000E+00   0.00000000E+00   0.00000000E+00   1.07927566E+00   1.54571534E+03   4.37980322E+03   0.00000000E+00   0.00000000E+00   0.00000000E+00   0.00000000E+00   1.93644520E+04
   1.45250000E+03   5.00000000E-01   5.00000000E-01  -5.31181102E+04   2.29394576E+03   0.00000000E+00   1.95090985E+04   4.99755807E+03   2.20604568E+03   7.19372689E+00   0.00000000E+00   0.00000000E+00   0.00000000E+00   0.00000000E+00   1.08140880E+00   1.54570693E+03   4.37875052E+03   0.00000000E+00   0.00000000E+00   0.00000000E+00   0.00000000E+00   1.93643332E+04
   1.48750000E+03   5.00000000E-01   5.00000000E-01  -5.31178924E+04   2.29394575E+03   0.00000000E+00   1.95089918E+04   4.99653148E+03   2.20604566E+03   7.19372687E+00   0.00000000E+00   0.00000000E+00   0.00000000E+00   0.00000000E+00   1.08337715E+00   1.54570055E+03   4.37772394E+03   0.00000000E+00   0.00000000E+00   0.00000000E+00   0.00000000E+00   1.93642142E+04
   1.52250000E+03   5.00000000E-01   5.00000000E-01  -5.31176646E+04   2.29394575E+03   0.00000000E+00   1.95088794E+04   4.99553109E+03   2.20604562E+03   7.19372682E+00   0.00000000E+00   0.00000000E+00   0.00000000E+00   0.00000000E+00   1.08514610E+00   1.54569592E+03   4.37672355E+03   0.00000000E+00   0.00000000E+00   0.00000000E+00   0.00000000E+00   1.93640955E+04
   1.55750000E+03   5.00000000E-01   5.00000000E-01  -5.31174299E+04   2.29394575E+03   0.00000000E+00   1.95087630E+04   4.99455685E+03   2.20604555E+03   7.19372676E+00   0.00000000E+00   0.00000000E+00   0.00000000E+00   0.00000000E+00   1.08668051E+00   1.54569274E+03   4.37574933E+03   0.00000000E+00   0.00000000E+00   0.00000000E+00   0.00000000E+00   1.93639779E+04
   1.59250000E+03   5.00000000E-01   5.00000000E-01  -5.31171917E+04   2.29394575E+03   0.00000000E+00   1.95086443E+04   4.99360865E+03   2.20604547E+03   7.19372666E+00   0.00000000E+00   0.00000000E+00   0.00000000E+00   0.00000000E+00   1.08794664E+00   1.54569074E+03   4.37480114E+03   0.00000000E+00   0.00000000E+00   0.00000000E+00   0.00000000E+00   1.93638621E+04
   1.62750000E+03   5.00000000E-01   5.00000000E-01  -5.31169527E+04   2.29394574E+03   0.00000000E+00   1.95085250E+04   4.99268629E+03   2.20604537E+03   7.19372651E+00   0.00000000E+00   0.00000000E+00   0.00000000E+00   0.00000000E+00   1.08891350E+00   1.54568963E+03   4.37387879E+03   0.00000000E+00   0.00000000E+00   0.00000000E+00   0.00000000E+00   1.93637487E+04
   1.66250000E+03   5.00000000E-01   5.00000000E-01  -5.31167158E+04   2.29394574E+03   0.00000000E+00   1.95084066E+04   4.99178948E+03   2.20604525E+03   7.19372630E+00   0.00000000E+00   0.00000000E+00   0.00000000E+00   0.00000000E+00   1.08955350E+00   1.54568915E+03   4.37298199E+03   0.00000000E+00   0.00000000E+00   0.00000000E+00   0.00000000E+00   1.93636381E+04
   1.69750000E+03   5.00000000E-01   5.00000000E-01  -5.31164832E+04   2.29394574E+03   0.00000000E+00   1.95082904E+04   4.99091790E+03   2.20604511E+03   7.19372601E+00   0.00000000E+00   0.00000000E+00   0.00000000E+00   0.00000000E+00   1.08984329E+00   1.54568905E+03   4.37211042E+03   0.00000000E+00   0.00000000E+00   0.00000000E+00   0.00000000E+00   1.93635308E+04
   1.73250000E+03   5.00000000E-01   5.00000000E-01  -5.31162571E+04   2.29394573E+03   0.00000000E+00   1.95081775E+04   4.99007115E+03   2.20604496E+03   7.19372562E+00   0.00000000E+00   0.00000000E+00   0.00000000E+00   0.00000000E+00   1.08976391E+00   1.54568910E+03   4.37126369E+03   0.00000000E+00   0.00000000E+00   0.00000000E+00   0.00000000E+00   1.93634270E+04
   1.76750000E+03   5.00000000E-01   5.00000000E-01  -5.31160392E+04   2.29394573E+03   0.00000000E+00   1.95080690E+04   4.98924882E+03   2.20604479E+03   7.19372509E+00   0.00000000E+00   0.00000000E+00   0.00000000E+00   0.00000000E+00   1.08930064E+00   1.54568910E+03   4.37044137E+03   0.00000000E+00   0.00000000E+00   0.00000000E+00   0.00000000E+00   1.93633271E+04
   1.80250000E+03   5.00000000E-01   5.00000000E-01  -5.31158310E+04   2.29394573E+03   0.00000000E+00   1.95079656E+04   4.98845045E+03   2.20604462E+03   7.19372440E+00   0.00000000E+00   0.00000000E+00   0.00000000E+00   0.00000000E+00   1.08844285E+00   1.54568886E+03   4.36964301E+03   0.00000000E+00   0.00000000E+00   0.00000000E+00   0.00000000E+00   1.93632311E+04
   1.83750000E+03   5.00000000E-01   5.00000000E-01  -5.31156335E+04   2.29394572E+03   0.00000000E+00   1.95078680E+04   4.98767555E+03   2.20604443E+03   7.19372351E+00   0.00000000E+00   0.00000000E+00   0.00000000E+00   0.00000000E+00   1.08718349E+00   1.54568822E+03   4.36886813E+03   0.00000000E+00   0.00000000E+00   0.00000000E+00   0.00000000E+00   1.93631392E+04
   1.87250000E+03   5.00000000E-01   5.00000000E-01  -5.31154476E+04   2.29394572E+03   0.00000000E+00   1.95077767E+04   4.98692362E+03   2.20604423E+03   7.19372236E+00   0.00000000E+00   0.00000000E+00   0.00000000E+00   0.00000000E+00   1.08551863E+00   1.54568705E+03   4.36811622E+03   0.00000000E+00   0.00000000E+00   0.00000000E+00   0.00000000E+00   1.93630514E+04
   1.90750000E+03   5.00000000E-01   5.00000000E-01  -5.31152740E+04   2.29394571E+03   0.00000000E+00   1.95076921E+04   4.98619415E+03   2.20604403E+03   7.19372093E+00   0.00000000E+00   0.00000000E+00   0.00000000E+00   0.00000000E+00   1.08344686E+00   1.54568522E+03   4.36738678E+03   0.00000000E+00   0.00000000E+00   0.00000000E+00   0.00000000E+00   1.93629675E+04
   1.94250000E+03   5.00000000E-01   5.00000000E-01  -5.31151131E+04   2.29394571E+03   0.00000000E+00   1.95076144E+04   4.98548663E+03   2.20604382E+03   7.19371914E+00   0.00000000E+00   0.00000000E+00   0.00000000E+00   0.00000000E+00   1.08096862E+00   1.54568266E+03   4.36667927E+03   0.00000000E+00   0.00000000E+00   0.00000000E+00   0.00000000E+00   1.93628876E+04
   1.97750000E+03   5.00000000E-01   5.00000000E-01  -5.31149650E+04   2.29394570E+03   0.00000000E+00   1.95075438E+04   4.98480052E+03   2.20604360E+03   7.19371695E+00   0.00000000E+00   0.00000000E+00   0.00000000E+00   0.00000000E+00   1.07808600E+00   1.54567927E+03   4.36599319E+03   0.00000000E+00   0.00000000E+00   0.00000000E+00   0.00000000E+00   1.93628116E+04
   2.01250000E+03   5.00000000E-01   5.00000000E-01  -5.31148299E+04   2.29394569E+03   0.00000000E+00   1.95074802E+04   4.98413529E+03   2.20604338E+03   7.19371428E+00   0.00000000E+00   0.00000000E+00   0.00000000E+00   0.00000000E+00   1.07480182E+00   1.54567501E+03   4.36532799E+03   0.00000000E+00   0.00000000E+00   0.00000000E+00   0.00000000E+00   1.93627394E+04
   2.04750000E+03   5.00000000E-01   5.00000000E-01  -5.31147078E+04   2.29394569E+03   0.00000000E+00   1.95074239E+04   4.98349044E+03   2.20604315E+03   7.19371107E+00   0.00000000E+00   0.00000000E+00   0.00000000E+00   0.00000000E+00   1.07111976E+00   1.54566983E+03   4.36468316E+03   0.00000000E+00   0.00000000E+00   0.00000000E+00   0.00000000E+00   1.93626708E+04
   2.08250000E+03   5.00000000E-01   5.00000000E-01  -5.31145985E+04   2.29394568E+03   0.00000000E+00   1.95073746E+04   4.98286543E+03   2.20604293E+03   7.19370723E+00   0.00000000E+00   0.00000000E+00   0.00000000E+00   0.00000000E+00   1.06704376E+00   1.54566371E+03   4.36405817E+03   0.00000000E+00   0.00000000E+00   0.00000000E+00   0.00000000E+00   1.93626057E+04
   2.11750000E+03   5.00000000E-01   5.00000000E-01  -5.31145020E+04   2.29394567E+03   0.00000000E+00   1.95073324E+04   4.98225975E+03   2.20604270E+03   7.19370270E+00   0.00000000E+00   0.00000000E+00   0.00000000E+00   0.00000000E+00   1.06257783E+00   1.54565663E+03   4.36345253E+03   0.00000000E+00   0.00000000E+00   0.00000000E+00   0.00000000E+00   1.93625440E+04
   2.15250000E+03   5.00000000E-01   5.00000000E-01  -5.31144184E+04   2.29394566E+03   0.00000000E+00   1.95072973E+04   4.98167290E+03   2.20604247E+03   7.19369736E+00   0.00000000E+00   0.00000000E+00   0.00000000E+00   0.00000000E+00   1.05782326E+00   1.54564858E+03   4.36286571E+03   0.00000000E+00   0.00000000E+00   0.00000000E+00   0.00000000E+00   1.93624870E+04
   2.18750000E+03   5.00000000E-01   5.00000000E-01  -5.31143470E+04   2.29394565E+03   0.00000000E+00   1.95072689E+04   4.98110440E+03   2.20604224E+03   7.19369115E+00   0.00000000E+00   0.00000000E+00   0.00000000E+00   0.00000000E+00   1.05275896E+00   1.54563955E+03   4.36229724E+03   0.00000000E+00   0.00000000E+00   0.00000000E+00   0.00000000E+00   1.93624338E+04
   2.22250000E+03   5.00000000E-01   5.00000000E-01  -5.31142874E+04   2.29394564E+03   0.00000000E+00   1.95072471E+04   4.98055376E+03   2.20604201E+03   7.19368399E+00   0.00000000E+00   0.00000000E+00   0.00000000E+00   0.00000000E+00   1.04732196E+00   1.54562953E+03   4.36174664E+03   0.00000000E+00   0.00000000E+00   0.00000000E+00   0.00000000E+00   1.93623837E+04
   2.25750000E+03   5.00000000E-01   5.00000000E-01  -5.31142396E+04   2.29394563E+03   0.00000000E+00   1.95072320E+04   4.98002052E+03   2.20604179E+03   7.19367580E+00   0.00000000E+00   0.00000000E+00   0.00000000E+00   0.00000000E+00   1.04150095E+00   1.54561855E+03   4.36121344E+03   0.00000000E+00   0.00000000E+00   0.00000000E+00   0.00000000E+00   1.93623366E+04
   2.29250000E+03   5.00000000E-01   5.00000000E-01  -5.31142036E+04   2.29394562E+03   0.00000000E+00   1.95072233E+04   4.97950422E+03   2.20604157E+03   7.19366654E+00   0.00000000E+00   0.00000000E+00   0.00000000E+00   0.00000000E+00   1.03528740E+00   1.54560661E+03   4.36069718E+03   0.00000000E+00   0.00000000E+00   0.00000000E+00   0.00000000E+00   1.93622925E+04
   2.32750000E+03   5.00000000E-01   5.00000000E-01  -5.31141793E+04   2.29394560E+03   0.00000000E+00   1.95072212E+04   4.97900441E+03   2.20604135E+03   7.19365617E+00   0.00000000E+00   0.00000000E+00   0.00000000E+00   0.00000000E+00   1.02868251E+00   1.54559376E+03   4.36019742E+03   0.00000000E+00   0.00000000E+00   0.00000000E+00   0.00000000E+00   1.93622513E+04
   2.36250000E+03   5.00000000E-01   5.00000000E-01  -5.31141666E+04   2.29394559E+03   0.00000000E+00   1.95072255E+04   4.97852066E+03   2.20604114E+03   7.19364473E+00   0.00000000E+00   0.00000000E+00   0.00000000E+00   0.00000000E+00   1.02170082E+00   1.54558001E+03   4.35971371E+03   0.00000000E+00   0.00000000E+00   0.00000000E+00   0.00000000E+00   1.93622132E+04
   2.39750000E+03   5.00000000E-01   5.00000000E-01  -5.31141654E+04   2.29394558E+03   0.00000000E+00   1.95072362E+04   4.97805253E+03   2.20604093E+03   7.19363229E+00   0.00000000E+00   0.00000000E+00   0.00000000E+00   0.00000000E+00   1.01435407E+00   1.54556539E+03   4.35924563E+03   0.00000000E+00   0.00000000E+00   0.00000000E+00   0.00000000E+00   1.93621784E+04
   2.43250000E+03   5.00000000E-01   5.00000000E-01  -5.31141757E+04   2.29394556E+03   0.00000000E+00   1.95072532E+04   4.97759964E+03   2.20604072E+03   7.19361903E+00   0.00000000E+00   0.00000000E+00   0.00000000E+00   0.00000000E+00   1.00663028E+00   1.54554993E+03   4.35879279E+03   0.00000000E+00   0.00000000E+00   0.00000000E+00   0.00000000E+00   1.93621468E+04
   2.46750000E+03   5.00000000E-01   5.00000000E-01  -5.31141976E+04   2.29394554E+03   0.00000000E+00   1.95072767E+04   4.97716157E+03   2.20604053E+03   7.19360521E+00   0.00000000E+00   0.00000000E+00   0.00000000E+00   0.00000000E+00   9.98530185E-01   1.54553364E+03   4.35835477E+03   0.00000000E+00   0.00000000E+00   0.00000000E+00   0.00000000E+00   1.93621184E+04
   2.50250000E+03   5.00000000E-01   5.00000000E-01  -5.31142312E+04   2.29394553E+03   0.00000000E+00   1.95073065E+04   4.97673793E+03   2.20604033E+03   7.19359116E+00   0.00000000E+00   0.00000000E+00   0.00000000E+00   0.00000000E+00   9.90058250E-01   1.54551656E+03   4.35793118E+03   0.00000000E+00   0.00000000E+00   0.00000000E+00   0.00000000E+00   1.93620934E+04
   2.53750000E+03   5.00000000E-01   5.00000000E-01  -5.31142767E+04   2.29394551E+03   0.00000000E+00   1.95073429E+04   4.97632835E+03   2.20604015E+03   7.19357733E+00   0.00000000E+00   0.00000000E+00   0.00000000E+00   0.00000000E+00   9.81218685E-01   1.54549871E+03   4.35752164E+03   0.00000000E+00   0.00000000E+00   0.00000000E+00   0.00000000E+00   1.93620720E+04
   2.57250000E+03   5.00000000E-01   5.00000000E-01  -5.31143343E+04   2.29394549E+03   0.00000000E+00   1.95073859E+04   4.97593244E+03   2.20603997E+03   7.19356426E+00   0.00000000E+00   0.00000000E+00   0.00000000E+00   0.00000000E+00   9.72016616E-01   1.54548010E+03   4.35712579E+03   0.00000000E+00   0.00000000E+00   0.00000000E+00   0.00000000E+00   1.93620543E+04
   2.60750000E+03   5.00000000E-01   5.00000000E-01  -5.31144042E+04   2.29394546E+03   0.00000000E+00   1.95074356E+04   4.97554985E+03   2.20603979E+03   7.19355258E+00   0.00000000E+00   0.00000000E+00   0.00000000E+00   0.00000000E+00   9.62455361E-01   1.54546076E+03   4.35674324E+03   0.00000000E+00   0.00000000E+00   0.00000000E+00   0.00000000E+00   1.93620406E+04
   2.64250000E+03   5.00000000E-01   5.00000000E-01  -5.31144868E+04   2.29394544E+03   0.00000000E+00   1.95074921E+04   4.97518022E+03   2.20603962E+03   7.19354297E+00   0.00000000E+00   0.00000000E+00   0.00000000E+00   0.00000000E+00   9.52539961E-01   1.54544071E+03   4.35637365E+03   0.00000000E+00   0.00000000E+00   0.00000000E+00   0.00000000E+00   1.93620310E+04
   2.67750000E+03   5.00000000E-01   5.00000000E-01  -5.31145826E+04   2.29394541E+03   0.00000000E+00   1.95075558E+04   4.97482318E+03   2.20603946E+03   7.19353617E+00   0.00000000E+00   0.00000000E+00   0.00000000E+00   0.00000000E+00   9.42303068E-01   1.54541995E+03   4.35601664E+03   0.00000000E+00   0.00000000E+00   0.00000000E+00   0.00000000E+00   1.93620263E+04
   2.71250000E+03   5.00000000E-01   5.00000000E-01  -5.31146916E+04   2.29394539E+03   0.00000000E+00   1.95076265E+04   4.97447841E+03   2.20603930E+03   7.19353287E+00   0.00000000E+00   0.00000000E+00   0.00000000E+00   0.00000000E+00   9.31730225E-01   1.54539851E+03   4.35567190E+03   0.00000000E+00   0.00000000E+00   0.00000000E+00   0.00000000E+00   1.93620263E+04