 TITLE = "Total Component Concentration in Minerals" 
VARIABLES = "X"          "Y"              "Z"            "H+"             "Al+++"          "CO2(aq)"        "Mg++"           "Ca++"           "Fe++"           "Fe+++"          "Ba++"           "Sr++"           "Cl-"            "F-"             "K+"             "HS-"            "Na+"            "SO4--"          "O2(aq)"         "B(OH)3(aq)"     "HPO4--"         "NO3-"           "H4SiO4(aq)"    
 ZONE I=         100 , J=           1 , K=           1  F=POINT
   1.75000000E+01   5.00000000E-01   5.00000000E-01  -4.35410082E+04   2.90248967E+03   0.00000000E+00   8.93327728E+03   1.73855015E+03   6.25685628E+03   7.19372707E+00   0.00000000E+00   0.00000000E+00   0.00000000E+00   0.00000000E+00   0.00000000E+00   1.17022647E-05   9.54590620E+02   4.16802462E-06  -2.07680504E-06   0.00000000E+00   0.00000000E+00   0.00000000E+00   1.51324039E+04
   5.25000000E+01   5.00000000E-01   5.00000000E-01  -4.35409397E+04   2.90248956E+03   0.00000000E+00   8.93303320E+03   1.73854972E+03   6.25699455E+03   7.19372707E+00   0.00000000E+00   0.00000000E+00   0.00000000E+00   0.00000000E+00   0.00000000E+00   1.17022668E-05   9.54734886E+02   4.16863417E-06  -2.07680504E-06   0.00000000E+00   0.00000000E+00   0.00000000E+00   1.51328487E+04
   8.75000000E+01   5.00000000E-01   5.00000000E-01  -4.35410025E+04   2.90248956E+03   0.00000000E+00   8.93295373E+03   1.73854817E+03   6.25709392E+03   7.19372707E+00   0.00000000E+00   0.00000000E+00   0.00000000E+00   0.00000000E+00   0.00000000E+00   1.17022673E-05   9.54761019E+02   4.16926347E-06  -2.07680504E-06   0.00000000E+00   0.00000000E+00   0.00000000E+00   1.51329180E+04
   1.22500000E+02   5.00000000E-01   5.00000000E-01  -4.35410778E+04   2.90248956E+03   0.00000000E+00   8.93293983E+03   1.73854740E+03   6.25714898E+03   7.19372707E+00   0.00000000E+00   0.00000000E+00   0.00000000E+00   0.00000000E+00   0.00000000E+00   1.17022669E-05   9.54755519E+02   4.16992857E-06  -2.07680504E-06   0.00000000E+00   0.00000000E+00   0.00000000E+00   1.51328996E+04
   1.57500000E+02   5.00000000E-01   5.00000000E-01  -4.35411530E+04   2.90248956E+03   0.00000000E+00   8.93296080E+03   1.73854745E+03   6.25717336E+03   7.19372707E+00   0.00000000E+00   0.00000000E+00   0.00000000E+00   0.00000000E+00   0.00000000E+00   1.17022661E-05   9.54739942E+02   4.17064277E-06  -2.07680504E-06   0.00000000E+00   0.00000000E+00   0.00000000E+00   1.51328644E+04
   1.92500000E+02   5.00000000E-01   5.00000000E-01  -4.35412299E+04   2.90248956E+03   0.00000000E+00   8.93300275E+03   1.73854716E+03   6.25718006E+03   7.19372707E+00   0.00000000E+00   0.00000000E+00   0.00000000E+00   0.00000000E+00   0.00000000E+00   1.17022652E-05   9.54720088E+02   4.17141736E-06  -2.07680504E-06   0.00000000E+00   0.00000000E+00   0.00000000E+00   1.51328276E+04
   2.27500000E+02   5.00000000E-01   5.00000000E-01  -4.35413098E+04   2.90248956E+03   0.00000000E+00   8.93305674E+03   1.73854625E+03   6.25717808E+03   7.19372707E+00   0.00000000E+00   0.00000000E+00   0.00000000E+00   0.00000000E+00   0.00000000E+00   1.17022643E-05   9.54697870E+02   4.17226193E-06  -2.07680504E-06   0.00000000E+00   0.00000000E+00   0.00000000E+00   1.51327909E+04
   2.62500000E+02   5.00000000E-01   5.00000000E-01  -4.35413937E+04   2.90248956E+03   0.00000000E+00   8.93311570E+03   1.73854588E+03   6.25717326E+03   7.19372707E+00   0.00000000E+00   0.00000000E+00   0.00000000E+00   0.00000000E+00   0.00000000E+00   1.17022636E-05   9.54674184E+02   4.17318454E-06  -2.07680504E-06   0.00000000E+00   0.00000000E+00   0.00000000E+00   1.51327526E+04
   2.97500000E+02   5.00000000E-01   5.00000000E-01  -4.35414831E+04   2.90248956E+03   0.00000000E+00   8.93317771E+03   1.73854598E+03   6.25716805E+03   7.19372707E+00   0.00000000E+00   0.00000000E+00   0.00000000E+00   0.00000000E+00   0.00000000E+00   1.17022629E-05   9.54649777E+02   4.17419267E-06  -2.07680504E-06   0.00000000E+00   0.00000000E+00   0.00000000E+00   1.51327149E+04
   3.32500000E+02   5.00000000E-01   5.00000000E-01  -4.35415783E+04   2.90248956E+03   0.00000000E+00   8.93324200E+03   1.73854606E+03   6.25716364E+03   7.19372707E+00   0.00000000E+00   0.00000000E+00   0.00000000E+00   0.00000000E+00   0.00000000E+00   1.17022623E-05   9.54625034E+02   4.17529391E-06  -2.07680504E-06   0.00000000E+00   0.00000000E+00   0.00000000E+00   1.51326790E+04
   3.67500000E+02   5.00000000E-01   5.00000000E-01  -4.35416787E+04   2.90248956E+03   0.00000000E+00   8.93330666E+03   1.73854652E+03   6.25716117E+03   7.19372707E+00   0.00000000E+00   0.00000000E+00   0.00000000E+00   0.00000000E+00   0.00000000E+00   1.17022618E-05   9.54600149E+02   4.17649579E-06  -2.07680504E-06   0.00000000E+00   0.00000000E+00   0.00000000E+00   1.51326441E+04
   4.02500000E+02   5.00000000E-01   5.00000000E-01  -4.35417845E+04   2.90248956E+03   0.00000000E+00   8.93337120E+03   1.73854738E+03   6.25716104E+03   7.19372706E+00   0.00000000E+00   0.00000000E+00   0.00000000E+00   0.00000000E+00   0.00000000E+00   1.17022614E-05   9.54575401E+02   4.17780618E-06  -2.07680504E-06   0.00000000E+00   0.00000000E+00   0.00000000E+00   1.51326111E+04
   4.37500000E+02   5.00000000E-01   5.00000000E-01  -4.35418952E+04   2.90248956E+03   0.00000000E+00   8.93343522E+03   1.73854851E+03   6.25716341E+03   7.19372706E+00   0.00000000E+00   0.00000000E+00   0.00000000E+00   0.00000000E+00   0.00000000E+00   1.17022610E-05   9.54551043E+02   4.17923349E-06  -2.07680504E-06   0.00000000E+00   0.00000000E+00   0.00000000E+00   1.51325806E+04
   4.72500000E+02   5.00000000E-01   5.00000000E-01  -4.35420100E+04   2.90248956E+03   0.00000000E+00   8.93349806E+03   1.73854986E+03   6.25716849E+03   7.19372706E+00   0.00000000E+00   0.00000000E+00   0.00000000E+00   0.00000000E+00   0.00000000E+00   1.17022607E-05   9.54527318E+02   4.18078677E-06  -2.07680504E-06   0.00000000E+00   0.00000000E+00   0.00000000E+00   1.51325530E+04
   5.07500000E+02   5.00000000E-01   5.00000000E-01  -4.35421280E+04   2.90248956E+03   0.00000000E+00   8.93355904E+03   1.73855139E+03   6.25717642E+03   7.19372706E+00   0.00000000E+00   0.00000000E+00   0.00000000E+00   0.00000000E+00   0.00000000E+00   1.17022605E-05   9.54504488E+02   4.18247578E-06  -2.07680504E-06   0.00000000E+00   0.00000000E+00   0.00000000E+00   1.51325287E+04
   5.42500000E+02   5.00000000E-01   5.00000000E-01  -4.35422483E+04   2.90248956E+03   0.00000000E+00   8.93361746E+03   1.73855305E+03   6.25718730E+03   7.19372705E+00   0.00000000E+00   0.00000000E+00   0.00000000E+00   0.00000000E+00   0.00000000E+00   1.17022602E-05   9.54482824E+02   4.18431106E-06  -2.07680504E-06   0.00000000E+00   0.00000000E+00   0.00000000E+00   1.51325082E+04
   5.77500000E+02   5.00000000E-01   5.00000000E-01  -4.35423695E+04   2.90248956E+03   0.00000000E+00   8.93367257E+03   1.73855480E+03   6.25720117E+03   7.19372705E+00   0.00000000E+00   0.00000000E+00   0.00000000E+00   0.00000000E+00   0.00000000E+00   1.17022600E-05   9.54462594E+02   4.18630402E-06  -2.07680504E-06   0.00000000E+00   0.00000000E+00   0.00000000E+00   1.51324917E+04
   6.12500000E+02   5.00000000E-01   5.00000000E-01  -4.35424906E+04   2.90248956E+03   0.00000000E+00   8.93372370E+03   1.73855661E+03   6.25721804E+03   7.19372704E+00   0.00000000E+00   0.00000000E+00   0.00000000E+00   0.00000000E+00   0.00000000E+00   1.17022599E-05   9.54444032E+02   4.18846700E-06  -2.07680504E-06   0.00000000E+00   0.00000000E+00   0.00000000E+00   1.51324794E+04
   6.47500000E+02   5.00000000E-01   5.00000000E-01  -4.35426103E+04   2.90248956E+03   0.00000000E+00   8.93377024E+03   1.73855848E+03   6.25723787E+03   7.19372702E+00   0.00000000E+00   0.00000000E+00   0.00000000E+00   0.00000000E+00   0.00000000E+00   1.17022597E-05   9.54427323E+02   4.19081332E-06  -2.07680504E-06   0.00000000E+00   0.00000000E+00   0.00000000E+00   1.51324715E+04
   6.82500000E+02   5.00000000E-01   5.00000000E-01  -4.35427278E+04   2.90248956E+03   0.00000000E+00   8.93381176E+03   1.73856040E+03   6.25726053E+03   7.19372700E+00   0.00000000E+00   0.00000000E+00   0.00000000E+00   0.00000000E+00   0.00000000E+00   1.17022596E-05   9.54412580E+02   4.19335739E-06  -2.07680504E-06   0.00000000E+00   0.00000000E+00   0.00000000E+00   1.51324678E+04
   7.17500000E+02   5.00000000E-01   5.00000000E-01  -4.35428421E+04   2.90248956E+03   0.00000000E+00   8.93384802E+03   1.73856236E+03   6.25728583E+03   7.19372697E+00   0.00000000E+00   0.00000000E+00   0.00000000E+00   0.00000000E+00   0.00000000E+00   1.17022595E-05   9.54399833E+02   4.19611479E-06  -2.07680504E-06   0.00000000E+00   0.00000000E+00   0.00000000E+00   1.51324681E+04
   7.52500000E+02   5.00000000E-01   5.00000000E-01  -4.35429526E+04   2.90248956E+03   0.00000000E+00   8.93387899E+03   1.73856437E+03   6.25731349E+03   7.19372693E+00   0.00000000E+00   0.00000000E+00   0.00000000E+00   0.00000000E+00   0.00000000E+00   1.17022594E-05   9.54389032E+02   4.19910232E-06  -2.07680504E-06   0.00000000E+00   0.00000000E+00   0.00000000E+00   1.51324720E+04
   7.87500000E+02   5.00000000E-01   5.00000000E-01  -4.35430588E+04   2.90248956E+03   0.00000000E+00   8.93390487E+03   1.73856644E+03   6.25734316E+03   7.19372687E+00   0.00000000E+00   0.00000000E+00   0.00000000E+00   0.00000000E+00   0.00000000E+00   1.17022593E-05   9.54380054E+02   4.20233814E-06  -2.07680504E-06   0.00000000E+00   0.00000000E+00   0.00000000E+00   1.51324789E+04
   8.22500000E+02   5.00000000E-01   5.00000000E-01  -4.35431605E+04   2.90248956E+03   0.00000000E+00   8.93392600E+03   1.73856856E+03   6.25737440E+03   7.19372679E+00   0.00000000E+00   0.00000000E+00   0.00000000E+00   0.00000000E+00   0.00000000E+00   1.17022592E-05   9.54372724E+02   4.20584192E-06  -2.07680504E-06   0.00000000E+00   0.00000000E+00   0.00000000E+00   1.51324883E+04
   8.57500000E+02   5.00000000E-01   5.00000000E-01  -4.35432573E+04   2.90248956E+03   0.00000000E+00   8.93394289E+03   1.73857069E+03   6.25740673E+03   7.19372667E+00   0.00000000E+00   0.00000000E+00   0.00000000E+00   0.00000000E+00   0.00000000E+00   1.17022591E-05   9.54366833E+02   4.20963490E-06  -2.07680504E-06   0.00000000E+00   0.00000000E+00   0.00000000E+00   1.51324995E+04
   8.92500000E+02   5.00000000E-01   5.00000000E-01  -4.35433491E+04   2.90248956E+03   0.00000000E+00   8.93395613E+03   1.73857280E+03   6.25743964E+03   7.19372651E+00   0.00000000E+00   0.00000000E+00   0.00000000E+00   0.00000000E+00   0.00000000E+00   1.17022591E-05   9.54362165E+02   4.21374012E-06  -2.07680504E-06   0.00000000E+00   0.00000000E+00   0.00000000E+00   1.51325119E+04
   9.27500000E+02   5.00000000E-01   5.00000000E-01  -4.35434359E+04   2.90248956E+03   0.00000000E+00   8.93396625E+03   1.73857488E+03   6.25747266E+03   7.19372630E+00   0.00000000E+00   0.00000000E+00   0.00000000E+00   0.00000000E+00   0.00000000E+00   1.17022590E-05   9.54358507E+02   4.21818251E-06  -2.07680504E-06   0.00000000E+00   0.00000000E+00   0.00000000E+00   1.51325249E+04
   9.62500000E+02   5.00000000E-01   5.00000000E-01  -4.35435175E+04   2.90248956E+03   0.00000000E+00   8.93397371E+03   1.73857697E+03   6.25750534E+03   7.19372602E+00   0.00000000E+00   0.00000000E+00   0.00000000E+00   0.00000000E+00   0.00000000E+00   1.17022590E-05   9.54355666E+02   4.22298892E-06  -2.07680504E-06   0.00000000E+00   0.00000000E+00   0.00000000E+00   1.51325381E+04
   9.97500000E+02   5.00000000E-01   5.00000000E-01  -4.35435940E+04   2.90248956E+03   0.00000000E+00   8.93397888E+03   1.73857916E+03   6.25753733E+03   7.19372566E+00   0.00000000E+00   0.00000000E+00   0.00000000E+00   0.00000000E+00   0.00000000E+00   1.17022589E-05   9.54353475E+02   4.22818823E-06  -2.07680504E-06   0.00000000E+00   0.00000000E+00   0.00000000E+00   1.51325507E+04
   1.03250000E+03   5.00000000E-01   5.00000000E-01  -4.35436654E+04   2.90248956E+03   0.00000000E+00   8.93398220E+03   1.73858147E+03   6.25756824E+03   7.19372523E+00   0.00000000E+00   0.00000000E+00   0.00000000E+00   0.00000000E+00   0.00000000E+00   1.17022589E-05   9.54351792E+02   4.23381154E-06  -2.07680504E-06   0.00000000E+00   0.00000000E+00   0.00000000E+00   1.51325624E+04
   1.06750000E+03   5.00000000E-01   5.00000000E-01  -4.35437318E+04   2.90248956E+03   0.00000000E+00   8.93398436E+03   1.73858380E+03   6.25759759E+03   7.19372471E+00   0.00000000E+00   0.00000000E+00   0.00000000E+00   0.00000000E+00   0.00000000E+00   1.17022588E-05   9.54350503E+02   4.23989277E-06  -2.07680504E-06   0.00000000E+00   0.00000000E+00   0.00000000E+00   1.51325732E+04
   1.10250000E+03   5.00000000E-01   5.00000000E-01  -4.35437931E+04   2.90248955E+03   0.00000000E+00   8.93398609E+03   1.73858594E+03   6.25762488E+03   7.19372411E+00   0.00000000E+00   0.00000000E+00   0.00000000E+00   0.00000000E+00   0.00000000E+00   1.17022588E-05   9.54349517E+02   4.24646909E-06  -2.07680504E-06   0.00000000E+00   0.00000000E+00   0.00000000E+00   1.51325828E+04
   1.13750000E+03   5.00000000E-01   5.00000000E-01  -4.35438495E+04   2.90248955E+03   0.00000000E+00   8.93398780E+03   1.73858784E+03   6.25764980E+03   7.19372344E+00   0.00000000E+00   0.00000000E+00   0.00000000E+00   0.00000000E+00   0.00000000E+00   1.17022588E-05   9.54348761E+02   4.25358085E-06  -2.07680504E-06   0.00000000E+00   0.00000000E+00   0.00000000E+00   1.51325909E+04
   1.17250000E+03   5.00000000E-01   5.00000000E-01  -4.35439011E+04   2.90248955E+03   0.00000000E+00   8.93398949E+03   1.73858975E+03   6.25767229E+03   7.19372272E+00   0.00000000E+00   0.00000000E+00   0.00000000E+00   0.00000000E+00   0.00000000E+00   1.17022587E-05   9.54348180E+02   4.26127100E-06  -2.07680504E-06   0.00000000E+00   0.00000000E+00   0.00000000E+00   1.51325969E+04
   1.20750000E+03   5.00000000E-01   5.00000000E-01  -4.35439485E+04   2.90248955E+03   0.00000000E+00   8.93399112E+03   1.73859202E+03   6.25769232E+03   7.19372198E+00   0.00000000E+00   0.00000000E+00   0.00000000E+00   0.00000000E+00   0.00000000E+00   1.17022587E-05   9.54347734E+02   4.26958474E-06  -2.07680504E-06   0.00000000E+00   0.00000000E+00   0.00000000E+00   1.51326001E+04
   1.24250000E+03   5.00000000E-01   5.00000000E-01  -4.35439921E+04   2.90248955E+03   0.00000000E+00   8.93399344E+03   1.73859456E+03   6.25770944E+03   7.19372123E+00   0.00000000E+00   0.00000000E+00   0.00000000E+00   0.00000000E+00   0.00000000E+00   1.17022587E-05   9.54347390E+02   4.27857119E-06  -2.07680504E-06   0.00000000E+00   0.00000000E+00   0.00000000E+00   1.51326004E+04
   1.27750000E+03   5.00000000E-01   5.00000000E-01  -4.35440319E+04   2.90248955E+03   0.00000000E+00   8.93399804E+03   1.73859663E+03   6.25772283E+03   7.19372050E+00   0.00000000E+00   0.00000000E+00   0.00000000E+00   0.00000000E+00   0.00000000E+00   1.17022586E-05   9.54347126E+02   4.28828615E-06  -2.07680504E-06   0.00000000E+00   0.00000000E+00   0.00000000E+00   1.51325983E+04
   1.31250000E+03   5.00000000E-01   5.00000000E-01  -4.35440679E+04   2.90248955E+03   0.00000000E+00   8.93400589E+03   1.73859771E+03   6.25773199E+03   7.19371986E+00   0.00000000E+00   0.00000000E+00   0.00000000E+00   0.00000000E+00   0.00000000E+00   1.17022586E-05   9.54346921E+02   4.29879224E-06  -2.07680504E-06   0.00000000E+00   0.00000000E+00   0.00000000E+00   1.51325937E+04
   1.34750000E+03   5.00000000E-01   5.00000000E-01  -4.35441003E+04   2.90248955E+03   0.00000000E+00   8.93401636E+03   1.73859829E+03   6.25773721E+03   7.19371937E+00   0.00000000E+00   0.00000000E+00   0.00000000E+00   0.00000000E+00   0.00000000E+00   1.17022586E-05   9.54346763E+02   4.31015520E-06  -2.07680504E-06   0.00000000E+00   0.00000000E+00   0.00000000E+00   1.51325851E+04
   1.38250000E+03   5.00000000E-01   5.00000000E-01  -4.35441298E+04   2.90248955E+03   0.00000000E+00   8.93402526E+03   1.73860094E+03   6.25774047E+03   7.19371909E+00   0.00000000E+00   0.00000000E+00   0.00000000E+00   0.00000000E+00   0.00000000E+00   1.17022586E-05   9.54346641E+02   4.32243359E-06  -2.07680504E-06   0.00000000E+00   0.00000000E+00   0.00000000E+00   1.51325691E+04
   1.41750000E+03   5.00000000E-01   5.00000000E-01  -4.35441562E+04   2.90248955E+03   0.00000000E+00   8.93402669E+03   1.73860805E+03   6.25774517E+03   7.19371895E+00   0.00000000E+00   0.00000000E+00   0.00000000E+00   0.00000000E+00   0.00000000E+00   1.17022586E-05   9.54346549E+02   4.33567724E-06  -2.07680504E-06   0.00000000E+00   0.00000000E+00   0.00000000E+00   1.51325422E+04
   1.45250000E+03   5.00000000E-01   5.00000000E-01  -4.35441764E+04   2.90248955E+03   0.00000000E+00   8.93402872E+03   1.73861335E+03   6.25774800E+03   7.19371872E+00   0.00000000E+00   0.00000000E+00   0.00000000E+00   0.00000000E+00   0.00000000E+00   1.17022585E-05   9.54346483E+02   4.34997368E-06  -2.07680504E-06   0.00000000E+00   0.00000000E+00   0.00000000E+00   1.51325119E+04
   1.48750000E+03   5.00000000E-01   5.00000000E-01  -4.35441897E+04   2.90248955E+03   0.00000000E+00   8.93403839E+03   1.73861480E+03   6.25774355E+03   7.19371851E+00   0.00000000E+00   0.00000000E+00   0.00000000E+00   0.00000000E+00   0.00000000E+00   1.17022585E-05   9.54346436E+02   4.36543149E-06  -2.07680504E-06   0.00000000E+00   0.00000000E+00   0.00000000E+00   1.51324832E+04
   1.52250000E+03   5.00000000E-01   5.00000000E-01  -4.35441982E+04   2.90248955E+03   0.00000000E+00   8.93404330E+03   1.73862057E+03   6.25773714E+03   7.19371874E+00   0.00000000E+00   0.00000000E+00   0.00000000E+00   0.00000000E+00   0.00000000E+00   1.17022585E-05   9.54346401E+02   4.38211509E-06  -2.07680504E-06   0.00000000E+00   0.00000000E+00   0.00000000E+00   1.51324466E+04
   1.55750000E+03   5.00000000E-01   5.00000000E-01  -4.35442026E+04   2.90248955E+03   0.00000000E+00   8.93403207E+03   1.73863365E+03   6.25773751E+03   7.19371912E+00   0.00000000E+00   0.00000000E+00   0.00000000E+00   0.00000000E+00   0.00000000E+00   1.17022585E-05   9.54346376E+02   4.40006950E-06  -2.07680504E-06   0.00000000E+00   0.00000000E+00   0.00000000E+00   1.51323946E+04
   1.59250000E+03   5.00000000E-01   5.00000000E-01  -4.35442047E+04   2.90248955E+03   0.00000000E+00   8.93402234E+03   1.73864263E+03   6.25773930E+03   7.19371903E+00   0.00000000E+00   0.00000000E+00   0.00000000E+00   0.00000000E+00   0.00000000E+00   1.17022585E-05   9.54346364E+02   4.41942843E-06  -2.07680504E-06   0.00000000E+00   0.00000000E+00   0.00000000E+00   1.51323418E+04
   1.62750000E+03   5.00000000E-01   5.00000000E-01  -4.35442042E+04   2.90248955E+03   0.00000000E+00   8.93402142E+03   1.73864484E+03   6.25773779E+03   7.19371861E+00   0.00000000E+00   0.00000000E+00   0.00000000E+00   0.00000000E+00   0.00000000E+00   1.17022585E-05   9.54346361E+02   4.44036197E-06  -2.07680504E-06   0.00000000E+00   0.00000000E+00   0.00000000E+00   1.51322935E+04
   1.66250000E+03   5.00000000E-01   5.00000000E-01  -4.35441970E+04   2.90248955E+03   0.00000000E+00   8.93401457E+03   1.73864392E+03   6.25774194E+03   7.19371761E+00   0.00000000E+00   0.00000000E+00   0.00000000E+00   0.00000000E+00   0.00000000E+00   1.17022585E-05   9.54346363E+02   4.46302312E-06  -2.07680504E-06   0.00000000E+00   0.00000000E+00   0.00000000E+00   1.51322378E+04
   1.69750000E+03   5.00000000E-01   5.00000000E-01  -4.35441882E+04   2.90248955E+03   0.00000000E+00   8.93400365E+03   1.73864149E+03   6.25775090E+03   7.19371629E+00   0.00000000E+00   0.00000000E+00   0.00000000E+00   0.00000000E+00   0.00000000E+00   1.17022585E-05   9.54346368E+02   4.48755690E-06  -2.07680504E-06   0.00000000E+00   0.00000000E+00   0.00000000E+00   1.51321778E+04
   1.73250000E+03   5.00000000E-01   5.00000000E-01  -4.35441867E+04   2.90248955E+03   0.00000000E+00   8.93400652E+03   1.73863870E+03   6.25775005E+03   7.19371607E+00   0.00000000E+00   0.00000000E+00   0.00000000E+00   0.00000000E+00   0.00000000E+00   1.17022585E-05   9.54346375E+02   4.51410023E-06  -2.07680504E-06   0.00000000E+00   0.00000000E+00   0.00000000E+00   1.51321294E+04
   1.76750000E+03   5.00000000E-01   5.00000000E-01  -4.35441879E+04   2.90248955E+03   0.00000000E+00   8.93402113E+03   1.73863665E+03   6.25773810E+03   7.19371707E+00   0.00000000E+00   0.00000000E+00   0.00000000E+00   0.00000000E+00   0.00000000E+00   1.17022584E-05   9.54346381E+02   4.54278520E-06  -2.07680504E-06   0.00000000E+00   0.00000000E+00   0.00000000E+00   1.51320898E+04
   1.80250000E+03   5.00000000E-01   5.00000000E-01  -4.35441853E+04   2.90248955E+03   0.00000000E+00   8.93403341E+03   1.73863607E+03   6.25772508E+03   7.19371811E+00   0.00000000E+00   0.00000000E+00   0.00000000E+00   0.00000000E+00   0.00000000E+00   1.17022584E-05   9.54346381E+02   4.57374761E-06  -2.07680504E-06   0.00000000E+00   0.00000000E+00   0.00000000E+00   1.51320472E+04
   1.83750000E+03   5.00000000E-01   5.00000000E-01  -4.35441769E+04   2.90248955E+03   0.00000000E+00   8.93403164E+03   1.73863905E+03   6.25771971E+03   7.19371856E+00   0.00000000E+00   0.00000000E+00   0.00000000E+00   0.00000000E+00   0.00000000E+00   1.17022584E-05   9.54346370E+02   4.60710897E-06  -2.07680504E-06   0.00000000E+00   0.00000000E+00   0.00000000E+00   1.51319939E+04
   1.87250000E+03   5.00000000E-01   5.00000000E-01  -4.35441643E+04   2.90248955E+03   0.00000000E+00   8.93401082E+03   1.73864686E+03   6.25772642E+03   7.19371866E+00   0.00000000E+00   0.00000000E+00   0.00000000E+00   0.00000000E+00   0.00000000E+00   1.17022584E-05   9.54346348E+02   4.64298446E-06  -2.07680504E-06   0.00000000E+00   0.00000000E+00   0.00000000E+00   1.51319285E+04
   1.90750000E+03   5.00000000E-01   5.00000000E-01  -4.35441550E+04   2.90248955E+03   0.00000000E+00   8.93398198E+03   1.73865456E+03   6.25774293E+03   7.19371881E+00   0.00000000E+00   0.00000000E+00   0.00000000E+00   0.00000000E+00   0.00000000E+00   1.17022584E-05   9.54346320E+02   4.68156607E-06  -2.07680504E-06   0.00000000E+00   0.00000000E+00   0.00000000E+00   1.51318613E+04
   1.94250000E+03   5.00000000E-01   5.00000000E-01  -4.35441567E+04   2.90248955E+03   0.00000000E+00   8.93396434E+03   1.73865712E+03   6.25775884E+03   7.19371896E+00   0.00000000E+00   0.00000000E+00   0.00000000E+00   0.00000000E+00   0.00000000E+00   1.17022584E-05   9.54346298E+02   4.72312086E-06  -2.07680504E-06   0.00000000E+00   0.00000000E+00   0.00000000E+00   1.51318079E+04
   1.97750000E+03   5.00000000E-01   5.00000000E-01  -4.35441684E+04   2.90248955E+03   0.00000000E+00   8.93397029E+03   1.73865511E+03   6.25776079E+03   7.19371918E+00   0.00000000E+00   0.00000000E+00   0.00000000E+00   0.00000000E+00   0.00000000E+00   1.17022584E-05   9.54346283E+02   4.76791157E-06  -2.07680504E-06   0.00000000E+00   0.00000000E+00   0.00000000E+00   1.51317773E+04
   2.01250000E+03   5.00000000E-01   5.00000000E-01  -4.35441845E+04   2.90248954E+03   0.00000000E+00   8.93399742E+03   1.73865070E+03   6.25774612E+03   7.19371947E+00   0.00000000E+00   0.00000000E+00   0.00000000E+00   0.00000000E+00   0.00000000E+00   1.17022584E-05   9.54346270E+02   4.81618313E-06  -2.07680504E-06   0.00000000E+00   0.00000000E+00   0.00000000E+00   1.51317661E+04
   2.04750000E+03   5.00000000E-01   5.00000000E-01  -4.35442012E+04   2.90248954E+03   0.00000000E+00   8.93403523E+03   1.73864534E+03   6.25772204E+03   7.19371964E+00   0.00000000E+00   0.00000000E+00   0.00000000E+00   0.00000000E+00   0.00000000E+00   1.17022584E-05   9.54346252E+02   4.86817642E-06  -2.07680504E-06   0.00000000E+00   0.00000000E+00   0.00000000E+00   1.51317644E+04
   2.08250000E+03   5.00000000E-01   5.00000000E-01  -4.35442191E+04   2.90248954E+03   0.00000000E+00   8.93407693E+03   1.73863975E+03   6.25769486E+03   7.19371961E+00   0.00000000E+00   0.00000000E+00   0.00000000E+00   0.00000000E+00   0.00000000E+00   1.17022584E-05   9.54346228E+02   4.92412830E-06  -2.07680504E-06   0.00000000E+00   0.00000000E+00   0.00000000E+00   1.51317668E+04
   2.11750000E+03   5.00000000E-01   5.00000000E-01  -4.35442396E+04   2.90248954E+03   0.00000000E+00   8.93412041E+03   1.73863425E+03   6.25766718E+03   7.19371941E+00   0.00000000E+00   0.00000000E+00   0.00000000E+00   0.00000000E+00   0.00000000E+00   1.17022584E-05   9.54346199E+02   4.98427038E-06  -2.07680504E-06   0.00000000E+00   0.00000000E+00   0.00000000E+00   1.51317718E+04
   2.15250000E+03   5.00000000E-01   5.00000000E-01  -4.35442640E+04   2.90248954E+03   0.00000000E+00   8.93416545E+03   1.73862902E+03   6.25763958E+03   7.19371904E+00   0.00000000E+00   0.00000000E+00   0.00000000E+00   0.00000000E+00   0.00000000E+00   1.17022584E-05   9.54346167E+02   5.04883116E-06  -2.07680504E-06   0.00000000E+00   0.00000000E+00   0.00000000E+00   1.51317797E+04
   2.18750000E+03   5.00000000E-01   5.00000000E-01  -4.35442929E+04   2.90248954E+03   0.00000000E+00   8.93421229E+03   1.73862414E+03   6.25761207E+03   7.19371853E+00   0.00000000E+00   0.00000000E+00   0.00000000E+00   0.00000000E+00   0.00000000E+00   1.17022584E-05   9.54346134E+02   5.11803773E-06  -2.07680504E-06   0.00000000E+00   0.00000000E+00   0.00000000E+00   1.51317909E+04
   2.22250000E+03   5.00000000E-01   5.00000000E-01  -4.35443266E+04   2.90248954E+03   0.00000000E+00   8.93426116E+03   1.73861967E+03   6.25758452E+03   7.19371786E+00   0.00000000E+00   0.00000000E+00   0.00000000E+00   0.00000000E+00   0.00000000E+00   1.17022584E-05   9.54346102E+02   5.19211579E-06  -2.07680504E-06   0.00000000E+00   0.00000000E+00   0.00000000E+00   1.51318057E+04
   2.25750000E+03   5.00000000E-01   5.00000000E-01  -4.35443653E+04   2.90248954E+03   0.00000000E+00   8.93431225E+03   1.73861560E+03   6.25755687E+03   7.19371705E+00   0.00000000E+00   0.00000000E+00   0.00000000E+00   0.00000000E+00   0.00000000E+00   1.17022584E-05   9.54346071E+02   5.27128806E-06  -2.07680504E-06   0.00000000E+00   0.00000000E+00   0.00000000E+00   1.51318242E+04
   2.29250000E+03   5.00000000E-01   5.00000000E-01  -4.35444091E+04   2.90248954E+03   0.00000000E+00   8.93436566E+03   1.73861194E+03   6.25752908E+03   7.19371609E+00   0.00000000E+00   0.00000000E+00   0.00000000E+00   0.00000000E+00   0.00000000E+00   1.17022584E-05   9.54346041E+02   5.35577172E-06  -2.07680504E-06   0.00000000E+00   0.00000000E+00   0.00000000E+00   1.51318462E+04
   2.32750000E+03   5.00000000E-01   5.00000000E-01  -4.35444583E+04   2.90248954E+03   0.00000000E+00   8.93442146E+03   1.73860866E+03   6.25750114E+03   7.19371496E+00   0.00000000E+00   0.00000000E+00   0.00000000E+00   0.00000000E+00   0.00000000E+00   1.17022584E-05   9.54346014E+02   5.44577493E-06  -2.07680504E-06   0.00000000E+00   0.00000000E+00   0.00000000E+00   1.51318717E+04
   2.36250000E+03   5.00000000E-01   5.00000000E-01  -4.35445126E+04   2.90248954E+03   0.00000000E+00   8.93447967E+03   1.73860571E+03   6.25747308E+03   7.19371368E+00   0.00000000E+00   0.00000000E+00   0.00000000E+00   0.00000000E+00   0.00000000E+00   1.17022584E-05   9.54345989E+02   5.54149277E-06  -2.07680504E-06   0.00000000E+00   0.00000000E+00   0.00000000E+00   1.51319003E+04
   2.39750000E+03   5.00000000E-01   5.00000000E-01  -4.35445723E+04   2.90248954E+03   0.00000000E+00   8.93454026E+03   1.73860305E+03   6.25744497E+03   7.19371221E+00   0.00000000E+00   0.00000000E+00   0.00000000E+00   0.00000000E+00   0.00000000E+00   1.17022584E-05   9.54345967E+02   5.64310249E-06  -2.07680504E-06   0.00000000E+00   0.00000000E+00   0.00000000E+00   1.51319319E+04
   2.43250000E+03   5.00000000E-01   5.00000000E-01  -4.35446371E+04   2.90248954E+03   0.00000000E+00   8.93460318E+03   1.73860064E+03   6.25741689E+03   7.19371055E+00   0.00000000E+00   0.00000000E+00   0.00000000E+00   0.00000000E+00   0.00000000E+00   1.17022584E-05   9.54345947E+02   5.75075816E-06  -2.07680504E-06   0.00000000E+00   0.00000000E+00   0.00000000E+00   1.51319659E+04
   2.46750000E+03   5.00000000E-01   5.00000000E-01  -4.35447069E+04   2.90248954E+03   0.00000000E+00   8.93466829E+03   1.73859841E+03   6.25738893E+03   7.19370867E+00   0.00000000E+00   0.00000000E+00   0.00000000E+00   0.00000000E+00   0.00000000E+00   1.17022584E-05   9.54345929E+02   5.86458471E-06  -2.07680504E-06   0.00000000E+00   0.00000000E+00   0.00000000E+00   1.51320020E+04
   2.50250000E+03   5.00000000E-01   5.00000000E-01  -4.35447817E+04   2.90248953E+03   0.00000000E+00   8.93473546E+03   1.73859634E+03   6.25736123E+03   7.19370652E+00   0.00000000E+00   0.00000000E+00   0.00000000E+00   0.00000000E+00   0.00000000E+00   1.17022584E-05   9.54345913E+02   5.98467133E-06  -2.07680504E-06   0.00000000E+00   0.00000000E+00   0.00000000E+00   1.51320398E+04
   2.53750000E+03   5.00000000E-01   5.00000000E-01  -4.35448611E+04   2.90248953E+03   0.00000000E+00   8.93480448E+03   1.73859437E+03   6.25733391E+03   7.19370409E+00   0.00000000E+00   0.00000000E+00   0.00000000E+00   0.00000000E+00   0.00000000E+00   1.17022584E-05   9.54345900E+02   6.11106419E-06  -2.07680504E-06   0.00000000E+00   0.00000000E+00   0.00000000E+00   1.51320787E+04
   2.57250000E+03   5.00000000E-01   5.00000000E-01  -4.35449451E+04   2.90248953E+03   0.00000000E+00   8.93487517E+03   1.73859247E+03   6.25730714E+03   7.19370131E+00   0.00000000E+00   0.00000000E+00   0.00000000E+00   0.00000000E+00   0.00000000E+00   1.17022584E-05   9.54345888E+02   6.24375844E-06  -2.07680504E-06   0.00000000E+00   0.00000000E+00   0.00000000E+00   1.51321182E+04
   2.60750000E+03   5.00000000E-01   5.00000000E-01  -4.35450335E+04   2.90248952E+03   0.00000000E+00   8.93494730E+03   1.73859061E+03   6.25728106E+03   7.19369813E+00   0.00000000E+00   0.00000000E+00   0.00000000E+00   0.00000000E+00   0.00000000E+00   1.17022584E-05   9.54345878E+02   6.38268938E-06  -2.07680504E-06   0.00000000E+00   0.00000000E+00   0.00000000E+00   1.51321577E+04