 TITLE = "Total Component Concentration in Minerals" 
VARIABLES = "X"          "Y"              "Z"            "H+"             "Al+++"          "CO2(aq)"        "Mg++"           "Ca++"           "Fe++"           "Fe+++"          "Ba++"           "Sr++"           "Cl-"            "F-"             "K+"             "HS-"            "Na+"            "SO4--"          "O2(aq)"         "B(OH)3(aq)"     "HPO4--"         "NO3-"           "H4SiO4(aq)"    
 ZONE I=         100 , J=           1 , K=           1  F=POINT
   1.75000000E+01   5.00000000E-01   5.00000000E-01  -4.35706672E+04   2.90250383E+03   0.00000000E+00   9.71215001E+03   1.28953794E+03   5.93565913E+03   7.19372661E+00   0.00000000E+00   0.00000000E+00   0.00000000E+00   0.00000000E+00   0.00000000E+00   6.07100303E-06   9.66880399E+02   1.87398548E-06  -9.75182168E-07   0.00000000E+00   0.00000000E+00   0.00000000E+00   1.47079856E+04
   5.25000000E+01   5.00000000E-01   5.00000000E-01  -4.35374276E+04   2.90248956E+03   0.00000000E+00   9.54288929E+03   1.29401632E+03   6.04775885E+03   7.19372719E+00   0.00000000E+00   0.00000000E+00   0.00000000E+00   0.00000000E+00   0.00000000E+00   6.07126893E-06   1.03904884E+03   1.88945400E-06  -9.75182168E-07   0.00000000E+00   0.00000000E+00   0.00000000E+00   1.48902021E+04
   8.75000000E+01   5.00000000E-01   5.00000000E-01  -4.35501210E+04   2.90248956E+03   0.00000000E+00   9.45251171E+03   1.29779288E+03   6.12074277E+03   7.19372711E+00   0.00000000E+00   0.00000000E+00   0.00000000E+00   0.00000000E+00   0.00000000E+00   6.07139051E-06   1.07897643E+03   1.90680066E-06  -9.75182168E-07   0.00000000E+00   0.00000000E+00   0.00000000E+00   1.50017020E+04
   1.22500000E+02   5.00000000E-01   5.00000000E-01  -4.35562837E+04   2.90248956E+03   0.00000000E+00   9.40958220E+03   1.29875965E+03   6.15671759E+03   7.19372709E+00   0.00000000E+00   0.00000000E+00   0.00000000E+00   0.00000000E+00   0.00000000E+00   6.07143978E-06   1.09711492E+03   1.92638787E-06  -9.75182168E-07   0.00000000E+00   0.00000000E+00   0.00000000E+00   1.50507681E+04
   1.57500000E+02   5.00000000E-01   5.00000000E-01  -4.35597662E+04   2.90248956E+03   0.00000000E+00   9.39028193E+03   1.29799657E+03   6.17504440E+03   7.19372709E+00   0.00000000E+00   0.00000000E+00   0.00000000E+00   0.00000000E+00   0.00000000E+00   6.07145257E-06   1.10407059E+03   1.94862255E-06  -9.75182168E-07   0.00000000E+00   0.00000000E+00   0.00000000E+00   1.50673149E+04
   1.92500000E+02   5.00000000E-01   5.00000000E-01  -4.35623982E+04   2.90248956E+03   0.00000000E+00   9.38111530E+03   1.29657599E+03   6.18583367E+03   7.19372708E+00   0.00000000E+00   0.00000000E+00   0.00000000E+00   0.00000000E+00   0.00000000E+00   6.07144452E-06   1.10629842E+03   1.97396159E-06  -9.75182168E-07   0.00000000E+00   0.00000000E+00   0.00000000E+00   1.50703844E+04
   2.27500000E+02   5.00000000E-01   5.00000000E-01  -4.35647991E+04   2.90248956E+03   0.00000000E+00   9.37605490E+03   1.29499267E+03   6.19355744E+03   7.19372708E+00   0.00000000E+00   0.00000000E+00   0.00000000E+00   0.00000000E+00   0.00000000E+00   6.07142330E-06   1.10653923E+03   2.00293536E-06  -9.75182168E-07   0.00000000E+00   0.00000000E+00   0.00000000E+00   1.50684428E+04
   2.62500000E+02   5.00000000E-01   5.00000000E-01  -4.35670995E+04   2.90248956E+03   0.00000000E+00   9.37234326E+03   1.29373138E+03   6.20041739E+03   7.19372708E+00   0.00000000E+00   0.00000000E+00   0.00000000E+00   0.00000000E+00   0.00000000E+00   6.07139320E-06   1.10506558E+03   2.03616057E-06  -9.75182168E-07   0.00000000E+00   0.00000000E+00   0.00000000E+00   1.50660500E+04
   2.97500000E+02   5.00000000E-01   5.00000000E-01  -4.35691115E+04   2.90248956E+03   0.00000000E+00   9.36865214E+03   1.29352365E+03   6.20794068E+03   7.19372708E+00   0.00000000E+00   0.00000000E+00   0.00000000E+00   0.00000000E+00   0.00000000E+00   6.07135695E-06   1.09982871E+03   2.07434745E-06  -9.75182168E-07   0.00000000E+00   0.00000000E+00   0.00000000E+00   1.50666196E+04
   3.32500000E+02   5.00000000E-01   5.00000000E-01  -4.35712574E+04   2.90248955E+03   0.00000000E+00   9.36621252E+03   1.29391197E+03   6.21523606E+03   7.19372707E+00   0.00000000E+00   0.00000000E+00   0.00000000E+00   0.00000000E+00   0.00000000E+00   6.07131603E-06   1.09148647E+03   2.11836664E-06  -9.75182168E-07   0.00000000E+00   0.00000000E+00   0.00000000E+00   1.50675046E+04
   3.67500000E+02   5.00000000E-01   5.00000000E-01  -4.35737411E+04   2.90248955E+03   0.00000000E+00   9.36525294E+03   1.29442764E+03   6.22151251E+03   7.19372707E+00   0.00000000E+00   0.00000000E+00   0.00000000E+00   0.00000000E+00   0.00000000E+00   6.07127183E-06   1.08230514E+03   2.16929507E-06  -9.75182168E-07   0.00000000E+00   0.00000000E+00   0.00000000E+00   1.50674470E+04
   4.02500000E+02   5.00000000E-01   5.00000000E-01  -4.35763853E+04   2.90248955E+03   0.00000000E+00   9.36502534E+03   1.29497771E+03   6.22705367E+03   7.19372707E+00   0.00000000E+00   0.00000000E+00   0.00000000E+00   0.00000000E+00   0.00000000E+00   6.07122575E-06   1.07322200E+03   2.22845898E-06  -9.75182168E-07   0.00000000E+00   0.00000000E+00   0.00000000E+00   1.50670053E+04
   4.37500000E+02   5.00000000E-01   5.00000000E-01  -4.35791094E+04   2.90248955E+03   0.00000000E+00   9.36508377E+03   1.29553731E+03   6.23213739E+03   7.19372707E+00   0.00000000E+00   0.00000000E+00   0.00000000E+00   0.00000000E+00   0.00000000E+00   6.07117892E-06   1.06454264E+03   2.29750201E-06  -9.75182168E-07   0.00000000E+00   0.00000000E+00   0.00000000E+00   1.50665490E+04
   4.72500000E+02   5.00000000E-01   5.00000000E-01  -4.35818602E+04   2.90248955E+03   0.00000000E+00   9.36522182E+03   1.29609112E+03   6.23691069E+03   7.19372707E+00   0.00000000E+00   0.00000000E+00   0.00000000E+00   0.00000000E+00   0.00000000E+00   6.07113216E-06   1.05636318E+03   2.37847857E-06  -9.75182168E-07   0.00000000E+00   0.00000000E+00   0.00000000E+00   1.50662102E+04
   5.07500000E+02   5.00000000E-01   5.00000000E-01  -4.35845824E+04   2.90248954E+03   0.00000000E+00   9.36533817E+03   1.29662631E+03   6.24144847E+03   7.19372707E+00   0.00000000E+00   0.00000000E+00   0.00000000E+00   0.00000000E+00   0.00000000E+00   6.07108614E-06   1.04870670E+03   2.47398049E-06  -9.75182168E-07   0.00000000E+00   0.00000000E+00   0.00000000E+00   1.50660134E+04
   5.42500000E+02   5.00000000E-01   5.00000000E-01  -4.35872138E+04   2.90248954E+03   0.00000000E+00   9.36536629E+03   1.29713215E+03   6.24579852E+03   7.19372707E+00   0.00000000E+00   0.00000000E+00   0.00000000E+00   0.00000000E+00   0.00000000E+00   6.07104138E-06   1.04157008E+03   2.58731005E-06  -9.75182168E-07   0.00000000E+00   0.00000000E+00   0.00000000E+00   1.50659510E+04
   5.77500000E+02   5.00000000E-01   5.00000000E-01  -4.35896902E+04   2.90248954E+03   0.00000000E+00   9.36525388E+03   1.29760015E+03   6.24999641E+03   7.19372707E+00   0.00000000E+00   0.00000000E+00   0.00000000E+00   0.00000000E+00   0.00000000E+00   6.07099827E-06   1.03493949E+03   2.72271883E-06  -9.75182168E-07   0.00000000E+00   0.00000000E+00   0.00000000E+00   1.50660083E+04
   6.12500000E+02   5.00000000E-01   5.00000000E-01  -4.35919470E+04   2.90248953E+03   0.00000000E+00   9.36496572E+03   1.29802407E+03   6.25406138E+03   7.19372707E+00   0.00000000E+00   0.00000000E+00   0.00000000E+00   0.00000000E+00   0.00000000E+00   6.07095709E-06   1.02879492E+03   2.88574142E-06  -9.75182168E-07   0.00000000E+00   0.00000000E+00   0.00000000E+00   1.50661633E+04
   6.47500000E+02   5.00000000E-01   5.00000000E-01  -4.35939203E+04   2.90248953E+03   0.00000000E+00   9.36448612E+03   1.29839991E+03   6.25799338E+03   7.19372707E+00   0.00000000E+00   0.00000000E+00   0.00000000E+00   0.00000000E+00   0.00000000E+00   6.07091803E-06   1.02311178E+03   3.08366703E-06  -9.75182168E-07   0.00000000E+00   0.00000000E+00   0.00000000E+00   1.50663860E+04
   6.82500000E+02   5.00000000E-01   5.00000000E-01  -4.35955516E+04   2.90248952E+03   0.00000000E+00   9.36380776E+03   1.29872581E+03   6.26178515E+03   7.19372707E+00   0.00000000E+00   0.00000000E+00   0.00000000E+00   0.00000000E+00   0.00000000E+00   6.07088124E-06   1.01786442E+03   3.32621601E-06  -9.75182168E-07   0.00000000E+00   0.00000000E+00   0.00000000E+00   1.50666491E+04
   7.17500000E+02   5.00000000E-01   5.00000000E-01  -4.35967878E+04   2.90248952E+03   0.00000000E+00   9.36291080E+03   1.29900158E+03   6.26544119E+03   7.19372707E+00   0.00000000E+00   0.00000000E+00   0.00000000E+00   0.00000000E+00   0.00000000E+00   6.07084679E-06   1.01303094E+03   3.62652450E-06  -9.75182168E-07   0.00000000E+00   0.00000000E+00   0.00000000E+00   1.50669465E+04
   7.52500000E+02   5.00000000E-01   5.00000000E-01  -4.35975879E+04   2.90248951E+03   0.00000000E+00   9.36177025E+03   1.29922842E+03   6.26897433E+03   7.19372707E+00   0.00000000E+00   0.00000000E+00   0.00000000E+00   0.00000000E+00   0.00000000E+00   6.07081469E-06   1.00859220E+03   4.00259927E-06  -9.75182168E-07   0.00000000E+00   0.00000000E+00   0.00000000E+00   1.50672861E+04
   7.87500000E+02   5.00000000E-01   5.00000000E-01  -4.35979231E+04   2.90248950E+03   0.00000000E+00   9.36036192E+03   1.29940847E+03   6.27240066E+03   7.19372707E+00   0.00000000E+00   0.00000000E+00   0.00000000E+00   0.00000000E+00   0.00000000E+00   6.07078493E-06   1.00453129E+03   4.47950279E-06  -9.75182168E-07   0.00000000E+00   0.00000000E+00   0.00000000E+00   1.50676834E+04
   8.22500000E+02   5.00000000E-01   5.00000000E-01  -4.35977780E+04   2.90248949E+03   0.00000000E+00   9.35866488E+03   1.29954455E+03   6.27573807E+03   7.19372707E+00   0.00000000E+00   0.00000000E+00   0.00000000E+00   0.00000000E+00   0.00000000E+00   6.07075745E-06   1.00083339E+03   5.09269259E-06  -9.75182168E-07   0.00000000E+00   0.00000000E+00   0.00000000E+00   1.50681582E+04
   8.57500000E+02   5.00000000E-01   5.00000000E-01  -4.35971499E+04   2.90248948E+03   0.00000000E+00   9.35665952E+03   1.29963977E+03   6.27900756E+03   7.19372707E+00   0.00000000E+00   0.00000000E+00   0.00000000E+00   0.00000000E+00   0.00000000E+00   6.07073217E-06   9.97486607E+02   5.89322126E-06  -9.75182168E-07   0.00000000E+00   0.00000000E+00   0.00000000E+00   1.50687348E+04
   8.92500000E+02   5.00000000E-01   5.00000000E-01  -4.35960475E+04   2.90248946E+03   0.00000000E+00   9.35432893E+03   1.29969739E+03   6.28223150E+03   7.19372706E+00   0.00000000E+00   0.00000000E+00   0.00000000E+00   0.00000000E+00   0.00000000E+00   6.07070899E-06   9.94482340E+02   6.95599665E-06  -9.75182168E-07   0.00000000E+00   0.00000000E+00   0.00000000E+00   1.50694400E+04
   9.27500000E+02   5.00000000E-01   5.00000000E-01  -4.35944869E+04   2.90248945E+03   0.00000000E+00   9.35165687E+03   1.29972051E+03   6.28543302E+03   7.19372705E+00   0.00000000E+00   0.00000000E+00   0.00000000E+00   0.00000000E+00   0.00000000E+00   6.07068780E-06   9.91816553E+02   8.39318593E-06  -9.75182168E-07   0.00000000E+00   0.00000000E+00   0.00000000E+00   1.50703031E+04
   9.62500000E+02   5.00000000E-01   5.00000000E-01  -4.35924862E+04   2.90248943E+03   0.00000000E+00   9.34862515E+03   1.29971194E+03   6.28863564E+03   7.19372704E+00   0.00000000E+00   0.00000000E+00   0.00000000E+00   0.00000000E+00   0.00000000E+00   6.07066846E-06   9.89491241E+02   1.03764704E-05  -9.75182168E-07   0.00000000E+00   0.00000000E+00   0.00000000E+00   1.50713564E+04
   9.97500000E+02   5.00000000E-01   5.00000000E-01  -4.35900588E+04   2.90248940E+03   0.00000000E+00   9.34521160E+03   1.29967430E+03   6.29186064E+03   7.19372702E+00   0.00000000E+00   0.00000000E+00   0.00000000E+00   0.00000000E+00   0.00000000E+00   6.07065083E-06   9.87516408E+02   1.31749114E-05  -9.75182168E-07   0.00000000E+00   0.00000000E+00   0.00000000E+00   1.50726368E+04
   1.03250000E+03   5.00000000E-01   5.00000000E-01  -4.35872031E+04   2.90248937E+03   0.00000000E+00   9.34138845E+03   1.29961008E+03   6.29512153E+03   7.19372700E+00   0.00000000E+00   0.00000000E+00   0.00000000E+00   0.00000000E+00   0.00000000E+00   6.07063479E-06   9.85913730E+02   1.72210916E-05  -9.75182168E-07   0.00000000E+00   0.00000000E+00   0.00000000E+00   1.50741859E+04
   1.06750000E+03   5.00000000E-01   5.00000000E-01  -4.35838805E+04   2.90248933E+03   0.00000000E+00   9.33710698E+03   1.29952149E+03   6.29842443E+03   7.19372697E+00   0.00000000E+00   0.00000000E+00   0.00000000E+00   0.00000000E+00   0.00000000E+00   6.07062020E-06   9.84725569E+02   2.32299561E-05  -9.75182168E-07   0.00000000E+00   0.00000000E+00   0.00000000E+00   1.50760603E+04
   1.10250000E+03   5.00000000E-01   5.00000000E-01  -4.35799787E+04   2.90248927E+03   0.00000000E+00   9.33227674E+03   1.29941003E+03   6.30176211E+03   7.19372694E+00   0.00000000E+00   0.00000000E+00   0.00000000E+00   0.00000000E+00   0.00000000E+00   6.07060688E-06   9.84032025E+02   3.24189165E-05  -9.75182168E-07   0.00000000E+00   0.00000000E+00   0.00000000E+00   1.50783442E+04
   1.13750000E+03   5.00000000E-01   5.00000000E-01  -4.36179648E+04   2.90248865E+03   0.00000000E+00   9.47569704E+03   1.28757244E+03   6.16757535E+03   7.19372696E+00   0.00000000E+00   0.00000000E+00   0.00000000E+00   0.00000000E+00   0.00000000E+00   6.07059262E-06   1.02722816E+03   4.68295723E-05  -9.75182168E-07   0.00000000E+00   0.00000000E+00   0.00000000E+00   1.66313065E+04
   1.17250000E+03   5.00000000E-01   5.00000000E-01  -4.35527925E+04   2.90248935E+03   0.00000000E+00   9.42525197E+03   1.28757174E+03   6.22504505E+03   7.19372686E+00   0.00000000E+00   0.00000000E+00   0.00000000E+00   0.00000000E+00   0.00000000E+00   6.07058866E-06   9.48005949E+02   7.04331179E-05  -9.75182168E-07   0.00000000E+00   0.00000000E+00   0.00000000E+00   1.49274879E+04
   1.20750000E+03   5.00000000E-01   5.00000000E-01  -4.35515989E+04   2.90248886E+03   0.00000000E+00   9.36376961E+03   1.28758492E+03   6.28026848E+03   7.19372682E+00   0.00000000E+00   0.00000000E+00   0.00000000E+00   0.00000000E+00   0.00000000E+00   6.07058060E-06   9.59305390E+02   1.10725952E-04  -9.75182168E-07   0.00000000E+00   0.00000000E+00   0.00000000E+00   1.49832284E+04
   1.24250000E+03   5.00000000E-01   5.00000000E-01  -4.35368928E+04   2.90248803E+03   0.00000000E+00   9.31746306E+03   1.28763863E+03   6.31270368E+03   7.19372678E+00   0.00000000E+00   0.00000000E+00   0.00000000E+00   0.00000000E+00   0.00000000E+00   6.07056975E-06   9.72237112E+02   1.82413664E-04  -9.75182168E-07   0.00000000E+00   0.00000000E+00   0.00000000E+00   1.50234262E+04
   1.27750000E+03   5.00000000E-01   5.00000000E-01  -4.35061334E+04   2.90248327E+03   0.00000000E+00   9.28061925E+03   1.28820616E+03   6.32025805E+03   7.19372674E+00   0.00000000E+00   0.00000000E+00   0.00000000E+00   0.00000000E+00   0.00000000E+00   6.07055665E-06   9.98936093E+02   3.15655635E-04  -9.75182168E-07   0.00000000E+00   0.00000000E+00   0.00000000E+00   1.50556595E+04
   1.31250000E+03   5.00000000E-01   5.00000000E-01  -4.34893265E+04   2.90244995E+03   0.00000000E+00   9.25021879E+03   1.29591562E+03   6.31864093E+03   7.19372670E+00   0.00000000E+00   0.00000000E+00   0.00000000E+00   0.00000000E+00   0.00000000E+00   6.07054430E-06   1.03084594E+03   5.74624832E-04  -9.75182168E-07   0.00000000E+00   0.00000000E+00   0.00000000E+00   1.50661351E+04
   1.34750000E+03   5.00000000E-01   5.00000000E-01  -4.34859257E+04   2.90241928E+03   0.00000000E+00   9.22809796E+03   1.31406255E+03   6.31943396E+03   7.19372665E+00   0.00000000E+00   0.00000000E+00   0.00000000E+00   0.00000000E+00   0.00000000E+00   6.07053493E-06   1.03389998E+03   1.10054505E-03  -9.75182168E-07   0.00000000E+00   0.00000000E+00   0.00000000E+00   1.50654623E+04
   1.38250000E+03   5.00000000E-01   5.00000000E-01  -4.34979842E+04   2.90240616E+03   0.00000000E+00   9.29083561E+03   1.33525011E+03   6.23604713E+03   7.19372661E+00   0.00000000E+00   0.00000000E+00   0.00000000E+00   0.00000000E+00   0.00000000E+00   6.07052704E-06   1.04492325E+03   2.21484582E-03  -9.75182168E-07   0.00000000E+00   0.00000000E+00   0.00000000E+00   1.56404320E+04
   1.41750000E+03   5.00000000E-01   5.00000000E-01  -4.34864949E+04   2.90240246E+03   0.00000000E+00   9.25897154E+03   1.35458585E+03   6.25818861E+03   7.19372655E+00   0.00000000E+00   0.00000000E+00   0.00000000E+00   0.00000000E+00   0.00000000E+00   6.07052278E-06   1.01422378E+03   4.72947680E-03  -9.75182168E-07   0.00000000E+00   0.00000000E+00   0.00000000E+00   1.51190411E+04
   1.45250000E+03   5.00000000E-01   5.00000000E-01  -4.34876350E+04   2.90240090E+03   0.00000000E+00   9.22101225E+03   1.37276825E+03   6.27996294E+03   7.19372651E+00   0.00000000E+00   0.00000000E+00   0.00000000E+00   0.00000000E+00   0.00000000E+00   6.07051875E-06   1.01138580E+03   1.07652849E-02  -9.75182168E-07   0.00000000E+00   0.00000000E+00   0.00000000E+00   1.51120968E+04
   1.48750000E+03   5.00000000E-01   5.00000000E-01  -4.34885457E+04   2.90240003E+03   0.00000000E+00   9.18729867E+03   1.39037232E+03   6.29776938E+03   7.19372649E+00   0.00000000E+00   0.00000000E+00   0.00000000E+00   0.00000000E+00   0.00000000E+00   6.07051500E-06   1.00893614E+03   2.62345744E-02  -9.75182168E-07   0.00000000E+00   0.00000000E+00   0.00000000E+00   1.51122303E+04
   1.52250000E+03   5.00000000E-01   5.00000000E-01  -4.34898602E+04   2.90239956E+03   0.00000000E+00   9.16161408E+03   1.40766967E+03   6.30815179E+03   7.19372648E+00   0.00000000E+00   0.00000000E+00   0.00000000E+00   0.00000000E+00   0.00000000E+00   6.07051159E-06   1.00634678E+03   6.87365274E-02  -9.75182168E-07   0.00000000E+00   0.00000000E+00   0.00000000E+00   1.51205134E+04
   1.55750000E+03   5.00000000E-01   5.00000000E-01  -4.34911807E+04   2.90239961E+03   0.00000000E+00   9.14389781E+03   1.42472375E+03   6.31099385E+03   7.19372649E+00   0.00000000E+00   0.00000000E+00   0.00000000E+00   0.00000000E+00   0.00000000E+00   6.07050859E-06   1.00355886E+03   1.94458570E-01  -9.75182168E-07   0.00000000E+00   0.00000000E+00   0.00000000E+00   1.51343678E+04
   1.59250000E+03   5.00000000E-01   5.00000000E-01  -4.34923909E+04   2.90239999E+03   0.00000000E+00   9.12981412E+03   1.44174125E+03   6.31055481E+03   7.19372652E+00   0.00000000E+00   0.00000000E+00   0.00000000E+00   0.00000000E+00   0.00000000E+00   6.07050605E-06   1.00058269E+03   5.96630173E-01  -9.75182168E-07   0.00000000E+00   0.00000000E+00   0.00000000E+00   1.51440768E+04
   1.62750000E+03   5.00000000E-01   5.00000000E-01  -4.34936459E+04   2.90240060E+03   0.00000000E+00   9.11661362E+03   1.45952301E+03   6.30937101E+03   7.19372655E+00   0.00000000E+00   0.00000000E+00   0.00000000E+00   0.00000000E+00   0.00000000E+00   6.07050392E-06   9.97831814E+02   1.99209507E+00  -9.75182168E-07   0.00000000E+00   0.00000000E+00   0.00000000E+00   1.51515062E+04
   1.66250000E+03   5.00000000E-01   5.00000000E-01  -4.34943094E+04   2.90240130E+03   0.00000000E+00   9.10275138E+03   1.48096871E+03   6.30835537E+03   7.19372660E+00   0.00000000E+00   0.00000000E+00   0.00000000E+00   0.00000000E+00   0.00000000E+00   6.07050211E-06   9.95822716E+02   7.22463922E+00  -9.75182168E-07   0.00000000E+00   0.00000000E+00   0.00000000E+00   1.51567465E+04
   1.69750000E+03   5.00000000E-01   5.00000000E-01  -4.34929415E+04   2.90240120E+03   0.00000000E+00   9.08690095E+03   1.51782821E+03   6.30756485E+03   7.19372665E+00   0.00000000E+00   0.00000000E+00   0.00000000E+00   0.00000000E+00   0.00000000E+00   6.07050053E-06   9.95028581E+02   2.77299369E+01  -9.75182168E-07   0.00000000E+00   0.00000000E+00   0.00000000E+00   1.51595436E+04
   1.73250000E+03   5.00000000E-01   5.00000000E-01  -4.34884663E+04   2.90240100E+03   0.00000000E+00   9.06961476E+03   1.60759278E+03   6.30685766E+03   7.19372670E+00   0.00000000E+00   0.00000000E+00   0.00000000E+00   0.00000000E+00   0.00000000E+00   6.07049907E-06   9.93127596E+02   1.00787937E+02  -9.75182168E-07   0.00000000E+00   0.00000000E+00   0.00000000E+00   1.51516054E+04
   1.76750000E+03   5.00000000E-01   5.00000000E-01  -4.34880217E+04   2.90239882E+03   0.00000000E+00   9.05109065E+03   1.79880163E+03   6.30786352E+03   7.19372675E+00   0.00000000E+00   0.00000000E+00   0.00000000E+00   0.00000000E+00   0.00000000E+00   6.07049782E-06   9.90029924E+02   2.73148741E+02  -9.75182168E-07   0.00000000E+00   0.00000000E+00   0.00000000E+00   1.51436257E+04
   1.80250000E+03   5.00000000E-01   5.00000000E-01  -4.34899370E+04   2.90239471E+03   0.00000000E+00   9.03400813E+03   2.02653921E+03   6.30664152E+03   7.19372679E+00   0.00000000E+00   0.00000000E+00   0.00000000E+00   0.00000000E+00   0.00000000E+00   6.07049675E-06   9.87560009E+02   4.80383005E+02  -9.75182168E-07   0.00000000E+00   0.00000000E+00   0.00000000E+00   1.51456739E+04
   1.83750000E+03   5.00000000E-01   5.00000000E-01  -4.34888346E+04   2.90239042E+03   0.00000000E+00   9.01913059E+03   2.17118450E+03   6.30124931E+03   7.19372683E+00   0.00000000E+00   0.00000000E+00   0.00000000E+00   0.00000000E+00   0.00000000E+00   6.07049579E-06   9.86023839E+02   6.04535214E+02  -9.75182168E-07   0.00000000E+00   0.00000000E+00   0.00000000E+00   1.51564782E+04
   1.87250000E+03   5.00000000E-01   5.00000000E-01  -4.34855871E+04   2.90238400E+03   0.00000000E+00   9.00583457E+03   2.21847251E+03   6.29404162E+03   7.19372686E+00   0.00000000E+00   0.00000000E+00   0.00000000E+00   0.00000000E+00   0.00000000E+00   6.07049497E-06   9.82321185E+02   6.31082346E+02  -9.75182168E-07   0.00000000E+00   0.00000000E+00   0.00000000E+00   1.51724852E+04
   1.90750000E+03   5.00000000E-01   5.00000000E-01  -4.34871663E+04   2.90237038E+03   0.00000000E+00   8.99496545E+03   2.21450179E+03   6.28604804E+03   7.19372688E+00   0.00000000E+00   0.00000000E+00   0.00000000E+00   0.00000000E+00   0.00000000E+00   6.07049429E-06   9.75867020E+02   6.04211820E+02  -9.75182168E-07   0.00000000E+00   0.00000000E+00   0.00000000E+00   1.51877659E+04
   1.94250000E+03   5.00000000E-01   5.00000000E-01  -4.34892759E+04   2.90235241E+03   0.00000000E+00   8.98538526E+03   2.19493049E+03   6.27829064E+03   7.19372690E+00   0.00000000E+00   0.00000000E+00   0.00000000E+00   0.00000000E+00   0.00000000E+00   6.07049373E-06   9.64221919E+02   5.60398618E+02  -9.75182168E-07   0.00000000E+00   0.00000000E+00   0.00000000E+00   1.51925302E+04
   1.97750000E+03   5.00000000E-01   5.00000000E-01  -4.34926903E+04   2.90233457E+03   0.00000000E+00   8.97766272E+03   2.17567272E+03   6.27156695E+03   7.19372692E+00   0.00000000E+00   0.00000000E+00   0.00000000E+00   0.00000000E+00   0.00000000E+00   6.07049326E-06   9.45987510E+02   5.15843464E+02  -9.75182168E-07   0.00000000E+00   0.00000000E+00   0.00000000E+00   1.51843254E+04
   2.01250000E+03   5.00000000E-01   5.00000000E-01  -4.34992423E+04   2.90231836E+03   0.00000000E+00   8.97254382E+03   2.16060694E+03   6.26444170E+03   7.19372693E+00   0.00000000E+00   0.00000000E+00   0.00000000E+00   0.00000000E+00   0.00000000E+00   6.07049288E-06   9.26293468E+02   4.75386167E+02  -9.75182168E-07   0.00000000E+00   0.00000000E+00   0.00000000E+00   1.51742136E+04
   2.04750000E+03   5.00000000E-01   5.00000000E-01  -4.35159128E+04   2.90230339E+03   0.00000000E+00   8.96996276E+03   2.14903489E+03   6.26048413E+03   7.19372694E+00   0.00000000E+00   0.00000000E+00   0.00000000E+00   0.00000000E+00   0.00000000E+00   6.07049265E-06   9.07713046E+02   4.39627545E+02  -9.75182168E-07   0.00000000E+00   0.00000000E+00   0.00000000E+00   1.51680910E+04
   2.08250000E+03   5.00000000E-01   5.00000000E-01  -4.35338499E+04   2.90229355E+03   0.00000000E+00   8.96925290E+03   2.13534642E+03   6.26018594E+03   7.19372695E+00   0.00000000E+00   0.00000000E+00   0.00000000E+00   0.00000000E+00   0.00000000E+00   6.07049252E-06   8.91811137E+02   4.07996796E+02  -9.75182168E-07   0.00000000E+00   0.00000000E+00   0.00000000E+00   1.51589544E+04
   2.11750000E+03   5.00000000E-01   5.00000000E-01  -4.35436082E+04   2.90228790E+03   0.00000000E+00   8.96877464E+03   2.11795063E+03   6.26026622E+03   7.19372695E+00   0.00000000E+00   0.00000000E+00   0.00000000E+00   0.00000000E+00   0.00000000E+00   6.07049243E-06   8.80560051E+02   3.79689846E+02  -9.75182168E-07   0.00000000E+00   0.00000000E+00   0.00000000E+00   1.51484825E+04
   2.15250000E+03   5.00000000E-01   5.00000000E-01  -4.35499032E+04   2.90228214E+03   0.00000000E+00   8.96829696E+03   2.09950331E+03   6.26038376E+03   7.19372696E+00   0.00000000E+00   0.00000000E+00   0.00000000E+00   0.00000000E+00   0.00000000E+00   6.07049235E-06   8.73053742E+02   3.53973088E+02  -9.75182168E-07   0.00000000E+00   0.00000000E+00   0.00000000E+00   1.51413935E+04
   2.18750000E+03   5.00000000E-01   5.00000000E-01  -4.35546147E+04   2.90227540E+03   0.00000000E+00   8.96779727E+03   2.08117193E+03   6.26052711E+03   7.19372696E+00   0.00000000E+00   0.00000000E+00   0.00000000E+00   0.00000000E+00   0.00000000E+00   6.07049229E-06   8.67838907E+02   3.30312105E+02  -9.75182168E-07   0.00000000E+00   0.00000000E+00   0.00000000E+00   1.51370358E+04
   2.22250000E+03   5.00000000E-01   5.00000000E-01  -4.35583779E+04   2.90226751E+03   0.00000000E+00   8.96727444E+03   2.06339333E+03   6.26069266E+03   7.19372696E+00   0.00000000E+00   0.00000000E+00   0.00000000E+00   0.00000000E+00   0.00000000E+00   6.07049223E-06   8.63998301E+02   3.08362474E+02  -9.75182168E-07   0.00000000E+00   0.00000000E+00   0.00000000E+00   1.51343248E+04
   2.25750000E+03   5.00000000E-01   5.00000000E-01  -4.35614807E+04   2.90225846E+03   0.00000000E+00   8.96673897E+03   2.04630863E+03   6.26086641E+03   7.19372696E+00   0.00000000E+00   0.00000000E+00   0.00000000E+00   0.00000000E+00   0.00000000E+00   6.07049217E-06   8.61020464E+02   2.87862160E+02  -9.75182168E-07   0.00000000E+00   0.00000000E+00   0.00000000E+00   1.51325810E+04
   2.29250000E+03   5.00000000E-01   5.00000000E-01  -4.35640638E+04   2.90224830E+03   0.00000000E+00   8.96620392E+03   2.02993050E+03   6.26103050E+03   7.19372695E+00   0.00000000E+00   0.00000000E+00   0.00000000E+00   0.00000000E+00   0.00000000E+00   6.07049212E-06   8.58624352E+02   2.68608232E+02  -9.75182168E-07   0.00000000E+00   0.00000000E+00   0.00000000E+00   1.51314169E+04
   2.32750000E+03   5.00000000E-01   5.00000000E-01  -4.35662112E+04   2.90223705E+03   0.00000000E+00   8.96567628E+03   2.01431490E+03   6.26117444E+03   7.19372694E+00   0.00000000E+00   0.00000000E+00   0.00000000E+00   0.00000000E+00   0.00000000E+00   6.07049207E-06   8.56648159E+02   2.50530264E+02  -9.75182168E-07   0.00000000E+00   0.00000000E+00   0.00000000E+00   1.51306139E+04
   2.36250000E+03   5.00000000E-01   5.00000000E-01  -4.35679900E+04   2.90222468E+03   0.00000000E+00   8.96515712E+03   1.99954000E+03   6.26129491E+03   7.19372692E+00   0.00000000E+00   0.00000000E+00   0.00000000E+00   0.00000000E+00   0.00000000E+00   6.07049203E-06   8.54989818E+02   2.33619532E+02  -9.75182168E-07   0.00000000E+00   0.00000000E+00   0.00000000E+00   1.51300504E+04
   2.39750000E+03   5.00000000E-01   5.00000000E-01  -4.35694547E+04   2.90221111E+03   0.00000000E+00   8.96464515E+03   1.98553622E+03   6.26138978E+03   7.19372689E+00   0.00000000E+00   0.00000000E+00   0.00000000E+00   0.00000000E+00   0.00000000E+00   6.07049199E-06   8.53579084E+02   2.17740590E+02  -9.75182168E-07   0.00000000E+00   0.00000000E+00   0.00000000E+00   1.51296554E+04
   2.43250000E+03   5.00000000E-01   5.00000000E-01  -4.35706485E+04   2.90219621E+03   0.00000000E+00   8.96413881E+03   1.97214118E+03   6.26145585E+03   7.19372686E+00   0.00000000E+00   0.00000000E+00   0.00000000E+00   0.00000000E+00   0.00000000E+00   6.07049195E-06   8.52363618E+02   2.02678280E+02  -9.75182168E-07   0.00000000E+00   0.00000000E+00   0.00000000E+00   1.51293836E+04
   2.46750000E+03   5.00000000E-01   5.00000000E-01  -4.35716082E+04   2.90217976E+03   0.00000000E+00   8.96363672E+03   1.95928663E+03   6.26148957E+03   7.19372682E+00   0.00000000E+00   0.00000000E+00   0.00000000E+00   0.00000000E+00   0.00000000E+00   6.07049191E-06   8.51301763E+02   1.88319917E+02  -9.75182168E-07   0.00000000E+00   0.00000000E+00   0.00000000E+00   1.51292038E+04
   2.50250000E+03   5.00000000E-01   5.00000000E-01  -4.35723693E+04   2.90216152E+03   0.00000000E+00   8.96313738E+03   1.94697019E+03   6.26148786E+03   7.19372676E+00   0.00000000E+00   0.00000000E+00   0.00000000E+00   0.00000000E+00   0.00000000E+00   6.07049187E-06   8.50359009E+02   1.74623155E+02  -9.75182168E-07   0.00000000E+00   0.00000000E+00   0.00000000E+00   1.51290973E+04
   2.53750000E+03   5.00000000E-01   5.00000000E-01  -4.35729685E+04   2.90214123E+03   0.00000000E+00   8.96263914E+03   1.93520406E+03   6.26144974E+03   7.19372667E+00   0.00000000E+00   0.00000000E+00   0.00000000E+00   0.00000000E+00   0.00000000E+00   6.07049184E-06   8.49506511E+02   1.61564370E+02  -9.75182168E-07   0.00000000E+00   0.00000000E+00   0.00000000E+00   1.51290546E+04
   2.57250000E+03   5.00000000E-01   5.00000000E-01  -4.35734304E+04   2.90211868E+03   0.00000000E+00   8.96214108E+03   1.92404857E+03   6.26138094E+03   7.19372657E+00   0.00000000E+00   0.00000000E+00   0.00000000E+00   0.00000000E+00   0.00000000E+00   6.07049180E-06   8.48721737E+02   1.49184855E+02  -9.75182168E-07   0.00000000E+00   0.00000000E+00   0.00000000E+00   1.51290510E+04
   2.60750000E+03   5.00000000E-01   5.00000000E-01  -4.35737600E+04   2.90209369E+03   0.00000000E+00   8.96164277E+03   1.91355787E+03   6.26129397E+03   7.19372642E+00   0.00000000E+00   0.00000000E+00   0.00000000E+00   0.00000000E+00   0.00000000E+00   6.07049177E-06   8.47988942E+02   1.37540215E+02  -9.75182168E-07   0.00000000E+00   0.00000000E+00   0.00000000E+00   1.51290390E+04