 TITLE = "Total Component Concentration in Minerals" 
VARIABLES = "X"          "Y"              "Z"            "H+"             "Al+++"          "CO2(aq)"        "Mg++"           "Ca++"           "Fe++"           "Fe+++"          "Cl-"            "K+"             "Na+"            "SO4--"          "O2(aq)"         "B(OH)3(aq)"     "HPO4--"         "NO3-"           "H4SiO4(aq)"    
 ZONE I=          35 , J=           1 , K=           1  F=POINT
   5.00000000E+01   5.00000000E-01   5.00000000E-01  -5.50558127E+04   2.72530810E+03   0.00000000E+00   2.11578153E+04   4.85402262E+03   1.00039299E+03   0.00000000E+00   0.00000000E+00   0.00000000E+00   1.54918882E+03   4.34688106E+03   0.00000000E+00   0.00000000E+00   0.00000000E+00   0.00000000E+00   1.95133741E+04
   1.50000000E+02   5.00000000E-01   5.00000000E-01  -5.50558145E+04   2.72530810E+03   0.00000000E+00   2.11578161E+04   4.85402263E+03   1.00039299E+03   0.00000000E+00   0.00000000E+00   0.00000000E+00   1.54918882E+03   4.34688106E+03   0.00000000E+00   0.00000000E+00   0.00000000E+00   0.00000000E+00   1.95133745E+04
   2.50000000E+02   5.00000000E-01   5.00000000E-01  -5.50558148E+04   2.72530810E+03   0.00000000E+00   2.11578163E+04   4.85402263E+03   1.00039299E+03   0.00000000E+00   0.00000000E+00   0.00000000E+00   1.54918882E+03   4.34688106E+03   0.00000000E+00   0.00000000E+00   0.00000000E+00   0.00000000E+00   1.95133745E+04
   3.50000000E+02   5.00000000E-01   5.00000000E-01  -5.50558149E+04   2.72530810E+03   0.00000000E+00   2.11578163E+04   4.85402263E+03   1.00039299E+03   0.00000000E+00   0.00000000E+00   0.00000000E+00   1.54918882E+03   4.34688107E+03   0.00000000E+00   0.00000000E+00   0.00000000E+00   0.00000000E+00   1.95133745E+04
   4.50000000E+02   5.00000000E-01   5.00000000E-01  -5.50558148E+04   2.72530810E+03   0.00000000E+00   2.11578163E+04   4.85402263E+03   1.00039299E+03   0.00000000E+00   0.00000000E+00   0.00000000E+00   1.54918882E+03   4.34688107E+03   0.00000000E+00   0.00000000E+00   0.00000000E+00   0.00000000E+00   1.95133745E+04
   5.50000000E+02   5.00000000E-01   5.00000000E-01  -5.50558148E+04   2.72530810E+03   0.00000000E+00   2.11578163E+04   4.85402263E+03   1.00039299E+03   0.00000000E+00   0.00000000E+00   0.00000000E+00   1.54918882E+03   4.34688107E+03   0.00000000E+00   0.00000000E+00   0.00000000E+00   0.00000000E+00   1.95133745E+04
   6.50000000E+02   5.00000000E-01   5.00000000E-01  -5.50558147E+04   2.72530810E+03   0.00000000E+00   2.11578163E+04   4.85402264E+03   1.00039299E+03   0.00000000E+00   0.00000000E+00   0.00000000E+00   1.54918882E+03   4.34688107E+03   0.00000000E+00   0.00000000E+00   0.00000000E+00   0.00000000E+00   1.95133744E+04
   7.50000000E+02   5.00000000E-01   5.00000000E-01  -5.50558147E+04   2.72530810E+03   0.00000000E+00   2.11578162E+04   4.85402264E+03   1.00039299E+03   0.00000000E+00   0.00000000E+00   0.00000000E+00   1.54918882E+03   4.34688108E+03   0.00000000E+00   0.00000000E+00   0.00000000E+00   0.00000000E+00   1.95133744E+04
   8.50000000E+02   5.00000000E-01   5.00000000E-01  -5.50558146E+04   2.72530810E+03   0.00000000E+00   2.11578162E+04   4.85402265E+03   1.00039299E+03   0.00000000E+00   0.00000000E+00   0.00000000E+00   1.54918882E+03   4.34688108E+03   0.00000000E+00   0.00000000E+00   0.00000000E+00   0.00000000E+00   1.95133744E+04
   9.50000000E+02   5.00000000E-01   5.00000000E-01  -5.50558145E+04   2.72530810E+03   0.00000000E+00   2.11578161E+04   4.85402265E+03   1.00039299E+03   0.00000000E+00   0.00000000E+00   0.00000000E+00   1.54918882E+03   4.34688109E+03   0.00000000E+00   0.00000000E+00   0.00000000E+00   0.00000000E+00   1.95133744E+04
   1.05000000E+03   5.00000000E-01   5.00000000E-01  -5.50558144E+04   2.72530810E+03   0.00000000E+00   2.11578161E+04   4.85402266E+03   1.00039299E+03   0.00000000E+00   0.00000000E+00   0.00000000E+00   1.54918882E+03   4.34688109E+03   0.00000000E+00   0.00000000E+00   0.00000000E+00   0.00000000E+00   1.95133743E+04
   1.15000000E+03   5.00000000E-01   5.00000000E-01  -5.50558143E+04   2.72530810E+03   0.00000000E+00   2.11578160E+04   4.85402266E+03   1.00039299E+03   0.00000000E+00   0.00000000E+00   0.00000000E+00   1.54918882E+03   4.34688110E+03   0.00000000E+00   0.00000000E+00   0.00000000E+00   0.00000000E+00   1.95133743E+04
   1.25000000E+03   5.00000000E-01   5.00000000E-01  -5.50558142E+04   2.72530810E+03   0.00000000E+00   2.11578160E+04   4.85402267E+03   1.00039299E+03   0.00000000E+00   0.00000000E+00   0.00000000E+00   1.54918882E+03   4.34688111E+03   0.00000000E+00   0.00000000E+00   0.00000000E+00   0.00000000E+00   1.95133743E+04
   1.35000000E+03   5.00000000E-01   5.00000000E-01  -5.50558141E+04   2.72530810E+03   0.00000000E+00   2.11578159E+04   4.85402268E+03   1.00039299E+03   0.00000000E+00   0.00000000E+00   0.00000000E+00   1.54918882E+03   4.34688112E+03   0.00000000E+00   0.00000000E+00   0.00000000E+00   0.00000000E+00   1.95133743E+04
   1.45000000E+03   5.00000000E-01   5.00000000E-01  -5.50558140E+04   2.72530810E+03   0.00000000E+00   2.11578159E+04   4.85402269E+03   1.00039299E+03   0.00000000E+00   0.00000000E+00   0.00000000E+00   1.54918882E+03   4.34688112E+03   0.00000000E+00   0.00000000E+00   0.00000000E+00   0.00000000E+00   1.95133742E+04
   1.55000000E+03   5.00000000E-01   5.00000000E-01  -5.50558139E+04   2.72530810E+03   0.00000000E+00   2.11578158E+04   4.85402270E+03   1.00039299E+03   0.00000000E+00   0.00000000E+00   0.00000000E+00   1.54918882E+03   4.34688114E+03   0.00000000E+00   0.00000000E+00   0.00000000E+00   0.00000000E+00   1.95133742E+04
   1.65000000E+03   5.00000000E-01   5.00000000E-01  -5.50558137E+04   2.72530810E+03   0.00000000E+00   2.11578157E+04   4.85402271E+03   1.00039299E+03   0.00000000E+00   0.00000000E+00   0.00000000E+00   1.54918882E+03   4.34688115E+03   0.00000000E+00   0.00000000E+00   0.00000000E+00   0.00000000E+00   1.95133742E+04
   1.75000000E+03   5.00000000E-01   5.00000000E-01  -5.50558136E+04   2.72530810E+03   0.00000000E+00   2.11578157E+04   4.85402273E+03   1.00039299E+03   0.00000000E+00   0.00000000E+00   0.00000000E+00   1.54918882E+03   4.34688116E+03   0.00000000E+00   0.00000000E+00   0.00000000E+00   0.00000000E+00   1.95133741E+04
   1.85000000E+03   5.00000000E-01   5.00000000E-01  -5.50558135E+04   2.72530810E+03   0.00000000E+00   2.11578156E+04   4.85402274E+03   1.00039299E+03   0.00000000E+00   0.00000000E+00   0.00000000E+00   1.54918882E+03   4.34688118E+03   0.00000000E+00   0.00000000E+00   0.00000000E+00   0.00000000E+00   1.95133741E+04
   1.95000000E+03   5.00000000E-01   5.00000000E-01  -5.50558133E+04   2.72530810E+03   0.00000000E+00   2.11578156E+04   4.85402276E+03   1.00039299E+03   0.00000000E+00   0.00000000E+00   0.00000000E+00   1.54918882E+03   4.34688120E+03   0.00000000E+00   0.00000000E+00   0.00000000E+00   0.00000000E+00   1.95133741E+04
   2.05000000E+03   5.00000000E-01   5.00000000E-01  -5.50558132E+04   2.72530810E+03   0.00000000E+00   2.11578155E+04   4.85402278E+03   1.00039299E+03   0.00000000E+00   0.00000000E+00   0.00000000E+00   1.54918882E+03   4.34688122E+03   0.00000000E+00   0.00000000E+00   0.00000000E+00   0.00000000E+00   1.95133740E+04
   2.15000000E+03   5.00000000E-01   5.00000000E-01  -5.50558131E+04   2.72530810E+03   0.00000000E+00   2.11578154E+04   4.85402281E+03   1.00039299E+03   0.00000000E+00   0.00000000E+00   0.00000000E+00   1.54918882E+03   4.34688125E+03   0.00000000E+00   0.00000000E+00   0.00000000E+00   0.00000000E+00   1.95133740E+04
   2.25000000E+03   5.00000000E-01   5.00000000E-01  -5.50558129E+04   2.72530810E+03   0.00000000E+00   2.11578153E+04   4.85402284E+03   1.00039299E+03   0.00000000E+00   0.00000000E+00   0.00000000E+00   1.54918882E+03   4.34688127E+03   0.00000000E+00   0.00000000E+00   0.00000000E+00   0.00000000E+00   1.95133740E+04
   2.35000000E+03   5.00000000E-01   5.00000000E-01  -5.50558128E+04   2.72530810E+03   0.00000000E+00   2.11578153E+04   4.85402287E+03   1.00039299E+03   0.00000000E+00   0.00000000E+00   0.00000000E+00   1.54918882E+03   4.34688130E+03   0.00000000E+00   0.00000000E+00   0.00000000E+00   0.00000000E+00   1.95133739E+04
   2.45000000E+03   5.00000000E-01   5.00000000E-01  -5.50558126E+04   2.72530810E+03   0.00000000E+00   2.11578152E+04   4.85402290E+03   1.00039299E+03   0.00000000E+00   0.00000000E+00   0.00000000E+00   1.54918882E+03   4.34688134E+03   0.00000000E+00   0.00000000E+00   0.00000000E+00   0.00000000E+00   1.95133739E+04
   2.55000000E+03   5.00000000E-01   5.00000000E-01  -5.50558124E+04   2.72530810E+03   0.00000000E+00   2.11578151E+04   4.85402294E+03   1.00039299E+03   0.00000000E+00   0.00000000E+00   0.00000000E+00   1.54918882E+03   4.34688138E+03   0.00000000E+00   0.00000000E+00   0.00000000E+00   0.00000000E+00   1.95133739E+04
   2.65000000E+03   5.00000000E-01   5.00000000E-01  -5.50558123E+04   2.72530810E+03   0.00000000E+00   2.11578150E+04   4.85402299E+03   1.00039299E+03   0.00000000E+00   0.00000000E+00   0.00000000E+00   1.54918882E+03   4.34688142E+03   0.00000000E+00   0.00000000E+00   0.00000000E+00   0.00000000E+00   1.95133738E+04
   2.75000000E+03   5.00000000E-01   5.00000000E-01  -5.50558121E+04   2.72530810E+03   0.00000000E+00   2.11578149E+04   4.85402303E+03   1.00039299E+03   0.00000000E+00   0.00000000E+00   0.00000000E+00   1.54918882E+03   4.34688147E+03   0.00000000E+00   0.00000000E+00   0.00000000E+00   0.00000000E+00   1.95133738E+04
   2.85000000E+03   5.00000000E-01   5.00000000E-01  -5.50558119E+04   2.72530810E+03   0.00000000E+00   2.11578149E+04   4.85402309E+03   1.00039299E+03   0.00000000E+00   0.00000000E+00   0.00000000E+00   1.54918882E+03   4.34688152E+03   0.00000000E+00   0.00000000E+00   0.00000000E+00   0.00000000E+00   1.95133737E+04
   2.95000000E+03   5.00000000E-01   5.00000000E-01  -5.50558118E+04   2.72530810E+03   0.00000000E+00   2.11578148E+04   4.85402315E+03   1.00039299E+03   0.00000000E+00   0.00000000E+00   0.00000000E+00   1.54918882E+03   4.34688158E+03   0.00000000E+00   0.00000000E+00   0.00000000E+00   0.00000000E+00   1.95133737E+04
   3.05000000E+03   5.00000000E-01   5.00000000E-01  -5.50558116E+04   2.72530810E+03   0.00000000E+00   2.11578147E+04   4.85402321E+03   1.00039299E+03   0.00000000E+00   0.00000000E+00   0.00000000E+00   1.54918882E+03   4.34688165E+03   0.00000000E+00   0.00000000E+00   0.00000000E+00   0.00000000E+00   1.95133736E+04
   3.15000000E+03   5.00000000E-01   5.00000000E-01  -5.50558114E+04   2.72530810E+03   0.00000000E+00   2.11578146E+04   4.85402328E+03   1.00039299E+03   0.00000000E+00   0.00000000E+00   0.00000000E+00   1.54918882E+03   4.34688171E+03   0.00000000E+00   0.00000000E+00   0.00000000E+00   0.00000000E+00   1.95133736E+04
   3.25000000E+03   5.00000000E-01   5.00000000E-01  -5.50558112E+04   2.72530810E+03   0.00000000E+00   2.11578145E+04   4.85402335E+03   1.00039299E+03   0.00000000E+00   0.00000000E+00   0.00000000E+00   1.54918882E+03   4.34688179E+03   0.00000000E+00   0.00000000E+00   0.00000000E+00   0.00000000E+00   1.95133736E+04
   3.35000000E+03   5.00000000E-01   5.00000000E-01  -5.50558110E+04   2.72530810E+03   0.00000000E+00   2.11578144E+04   4.85402343E+03   1.00039299E+03   0.00000000E+00   0.00000000E+00   0.00000000E+00   1.54918882E+03   4.34688187E+03   0.00000000E+00   0.00000000E+00   0.00000000E+00   0.00000000E+00   1.95133735E+04
   3.45000000E+03   5.00000000E-01   5.00000000E-01  -5.50558108E+04   2.72530809E+03   0.00000000E+00   2.11578143E+04   4.85402351E+03   1.00039299E+03   0.00000000E+00   0.00000000E+00   0.00000000E+00   1.54918882E+03   4.34688195E+03   0.00000000E+00   0.00000000E+00   0.00000000E+00   0.00000000E+00   1.95133735E+04
