 TITLE = "Total Component Concentration in Minerals" 
VARIABLES = "X"          "Y"              "Z"            "H+"             "Al+++"          "CO2(aq)"        "Mg++"           "Ca++"           "Fe++"           "Fe+++"          "Ba++"           "Sr++"           "Cl-"            "F-"             "K+"             "HS-"            "Na+"            "SO4--"          "O2(aq)"         "B(OH)3(aq)"     "HPO4--"         "NO3-"           "H4SiO4(aq)"    
 ZONE I=         100 , J=           1 , K=           1  F=POINT
   1.75000000E+01   5.00000000E-01   5.00000000E-01  -4.35714540E+04   2.90250119E+03   0.00000000E+00   9.59703087E+03   1.35145300E+03   5.97904013E+03   7.19372683E+00   0.00000000E+00   0.00000000E+00   0.00000000E+00   0.00000000E+00   0.00000000E+00   6.85604874E-06   9.87321247E+02   2.18173913E-06  -1.12281567E-06   0.00000000E+00   0.00000000E+00   0.00000000E+00   1.48188626E+04
   5.25000000E+01   5.00000000E-01   5.00000000E-01  -4.35352793E+04   2.90248956E+03   0.00000000E+00   9.46026479E+03   1.35317072E+03   6.06781230E+03   7.19372711E+00   0.00000000E+00   0.00000000E+00   0.00000000E+00   0.00000000E+00   0.00000000E+00   6.85632083E-06   1.04373380E+03   2.19720812E-06  -1.12281567E-06   0.00000000E+00   0.00000000E+00   0.00000000E+00   1.49547383E+04
   8.75000000E+01   5.00000000E-01   5.00000000E-01  -4.35474486E+04   2.90248956E+03   0.00000000E+00   9.38841017E+03   1.35473765E+03   6.12903133E+03   7.19372709E+00   0.00000000E+00   0.00000000E+00   0.00000000E+00   0.00000000E+00   0.00000000E+00   6.85645441E-06   1.07404044E+03   2.21453681E-06  -1.12281567E-06   0.00000000E+00   0.00000000E+00   0.00000000E+00   1.50370857E+04
   1.22500000E+02   5.00000000E-01   5.00000000E-01  -4.35532809E+04   2.90248956E+03   0.00000000E+00   9.35285621E+03   1.35469649E+03   6.16048174E+03   7.19372709E+00   0.00000000E+00   0.00000000E+00   0.00000000E+00   0.00000000E+00   0.00000000E+00   6.85651516E-06   1.08816219E+03   2.23405645E-06  -1.12281567E-06   0.00000000E+00   0.00000000E+00   0.00000000E+00   1.50738815E+04
   1.57500000E+02   5.00000000E-01   5.00000000E-01  -4.35564869E+04   2.90248956E+03   0.00000000E+00   9.33592820E+03   1.35373914E+03   6.17747440E+03   7.19372709E+00   0.00000000E+00   0.00000000E+00   0.00000000E+00   0.00000000E+00   0.00000000E+00   6.85653767E-06   1.09315359E+03   2.25613768E-06  -1.12281567E-06   0.00000000E+00   0.00000000E+00   0.00000000E+00   1.50867311E+04
   1.92500000E+02   5.00000000E-01   5.00000000E-01  -4.35585678E+04   2.90248956E+03   0.00000000E+00   9.32678405E+03   1.35315887E+03   6.18911390E+03   7.19372708E+00   0.00000000E+00   0.00000000E+00   0.00000000E+00   0.00000000E+00   0.00000000E+00   6.85653764E-06   1.09140434E+03   2.28117425E-06  -1.12281567E-06   0.00000000E+00   0.00000000E+00   0.00000000E+00   1.50916825E+04
   2.27500000E+02   5.00000000E-01   5.00000000E-01  -4.35602528E+04   2.90248956E+03   0.00000000E+00   9.32164184E+03   1.35314763E+03   6.19858673E+03   7.19372707E+00   0.00000000E+00   0.00000000E+00   0.00000000E+00   0.00000000E+00   0.00000000E+00   6.85652263E-06   1.08445058E+03   2.30962065E-06  -1.12281567E-06   0.00000000E+00   0.00000000E+00   0.00000000E+00   1.50935438E+04
   2.62500000E+02   5.00000000E-01   5.00000000E-01  -4.35620850E+04   2.90248956E+03   0.00000000E+00   9.31920711E+03   1.35328278E+03   6.20606931E+03   7.19372707E+00   0.00000000E+00   0.00000000E+00   0.00000000E+00   0.00000000E+00   0.00000000E+00   6.85649683E-06   1.07591682E+03   2.34202630E-06  -1.12281567E-06   0.00000000E+00   0.00000000E+00   0.00000000E+00   1.50931688E+04
   2.97500000E+02   5.00000000E-01   5.00000000E-01  -4.35640213E+04   2.90248956E+03   0.00000000E+00   9.31797221E+03   1.35347485E+03   6.21235825E+03   7.19372707E+00   0.00000000E+00   0.00000000E+00   0.00000000E+00   0.00000000E+00   0.00000000E+00   6.85646347E-06   1.06736082E+03   2.37904642E-06  -1.12281567E-06   0.00000000E+00   0.00000000E+00   0.00000000E+00   1.50920525E+04
   3.32500000E+02   5.00000000E-01   5.00000000E-01  -4.35660460E+04   2.90248955E+03   0.00000000E+00   9.31715839E+03   1.35370701E+03   6.21802383E+03   7.19372707E+00   0.00000000E+00   0.00000000E+00   0.00000000E+00   0.00000000E+00   0.00000000E+00   6.85642486E-06   1.05921768E+03   2.42146414E-06  -1.12281567E-06   0.00000000E+00   0.00000000E+00   0.00000000E+00   1.50909470E+04
   3.67500000E+02   5.00000000E-01   5.00000000E-01  -4.35681552E+04   2.90248955E+03   0.00000000E+00   9.31645171E+03   1.35397001E+03   6.22333482E+03   7.19372707E+00   0.00000000E+00   0.00000000E+00   0.00000000E+00   0.00000000E+00   0.00000000E+00   6.85638267E-06   1.05159232E+03   2.47022151E-06  -1.12281567E-06   0.00000000E+00   0.00000000E+00   0.00000000E+00   1.50901165E+04
   4.02500000E+02   5.00000000E-01   5.00000000E-01  -4.35703324E+04   2.90248955E+03   0.00000000E+00   9.31574148E+03   1.35425474E+03   6.22840082E+03   7.19372707E+00   0.00000000E+00   0.00000000E+00   0.00000000E+00   0.00000000E+00   0.00000000E+00   6.85633822E-06   1.04448855E+03   2.52645988E-06  -1.12281567E-06   0.00000000E+00   0.00000000E+00   0.00000000E+00   1.50896116E+04
   4.37500000E+02   5.00000000E-01   5.00000000E-01  -4.35725477E+04   2.90248955E+03   0.00000000E+00   9.31499525E+03   1.35455162E+03   6.23326166E+03   7.19372707E+00   0.00000000E+00   0.00000000E+00   0.00000000E+00   0.00000000E+00   0.00000000E+00   6.85629256E-06   1.03788088E+03   2.59157294E-06  -1.12281567E-06   0.00000000E+00   0.00000000E+00   0.00000000E+00   1.50894000E+04
   4.72500000E+02   5.00000000E-01   5.00000000E-01  -4.35747637E+04   2.90248955E+03   0.00000000E+00   9.31420374E+03   1.35485102E+03   6.23793297E+03   7.19372707E+00   0.00000000E+00   0.00000000E+00   0.00000000E+00   0.00000000E+00   0.00000000E+00   6.85624658E-06   1.03173841E+03   2.66727642E-06  -1.12281567E-06   0.00000000E+00   0.00000000E+00   0.00000000E+00   1.50894257E+04
   5.07500000E+02   5.00000000E-01   5.00000000E-01  -4.35769363E+04   2.90248954E+03   0.00000000E+00   9.31335638E+03   1.35514385E+03   6.24242646E+03   7.19372707E+00   0.00000000E+00   0.00000000E+00   0.00000000E+00   0.00000000E+00   0.00000000E+00   6.85620099E-06   1.02603314E+03   2.75570063E-06  -1.12281567E-06   0.00000000E+00   0.00000000E+00   0.00000000E+00   1.50896357E+04
   5.42500000E+02   5.00000000E-01   5.00000000E-01  -4.35790156E+04   2.90248954E+03   0.00000000E+00   9.31242992E+03   1.35542192E+03   6.24676010E+03   7.19372707E+00   0.00000000E+00   0.00000000E+00   0.00000000E+00   0.00000000E+00   0.00000000E+00   6.85615637E-06   1.02074199E+03   2.85951460E-06  -1.12281567E-06   0.00000000E+00   0.00000000E+00   0.00000000E+00   1.50899918E+04
   5.77500000E+02   5.00000000E-01   5.00000000E-01  -4.35809505E+04   2.90248954E+03   0.00000000E+00   9.31139462E+03   1.35567815E+03   6.25095516E+03   7.19372707E+00   0.00000000E+00   0.00000000E+00   0.00000000E+00   0.00000000E+00   0.00000000E+00   6.85611318E-06   1.01584491E+03   2.98209403E-06  -1.12281567E-06   0.00000000E+00   0.00000000E+00   0.00000000E+00   1.50904673E+04
   6.12500000E+02   5.00000000E-01   5.00000000E-01  -4.35826904E+04   2.90248953E+03   0.00000000E+00   9.31022853E+03   1.35590680E+03   6.25502394E+03   7.19372707E+00   0.00000000E+00   0.00000000E+00   0.00000000E+00   0.00000000E+00   0.00000000E+00   6.85607176E-06   1.01132214E+03   3.12775092E-06  -1.12281567E-06   0.00000000E+00   0.00000000E+00   0.00000000E+00   1.50910347E+04
   6.47500000E+02   5.00000000E-01   5.00000000E-01  -4.35841856E+04   2.90248953E+03   0.00000000E+00   9.30892487E+03   1.35610376E+03   6.25896303E+03   7.19372707E+00   0.00000000E+00   0.00000000E+00   0.00000000E+00   0.00000000E+00   0.00000000E+00   6.85603235E-06   1.00715250E+03   3.30205095E-06  -1.12281567E-06   0.00000000E+00   0.00000000E+00   0.00000000E+00   1.50916607E+04
   6.82500000E+02   5.00000000E-01   5.00000000E-01  -4.35853913E+04   2.90248952E+03   0.00000000E+00   9.30748294E+03   1.35626659E+03   6.26276366E+03   7.19372707E+00   0.00000000E+00   0.00000000E+00   0.00000000E+00   0.00000000E+00   0.00000000E+00   6.85599512E-06   1.00331523E+03   3.51225782E-06  -1.12281567E-06   0.00000000E+00   0.00000000E+00   0.00000000E+00   1.50923155E+04
   7.17500000E+02   5.00000000E-01   5.00000000E-01  -4.35862677E+04   2.90248952E+03   0.00000000E+00   9.30588797E+03   1.35639429E+03   6.26642979E+03   7.19372707E+00   0.00000000E+00   0.00000000E+00   0.00000000E+00   0.00000000E+00   0.00000000E+00   6.85596018E-06   9.99793882E+02   3.76796420E-06  -1.12281567E-06   0.00000000E+00   0.00000000E+00   0.00000000E+00   1.50929902E+04
   7.52500000E+02   5.00000000E-01   5.00000000E-01  -4.35867847E+04   2.90248951E+03   0.00000000E+00   9.30411881E+03   1.35648707E+03   6.26997412E+03   7.19372707E+00   0.00000000E+00   0.00000000E+00   0.00000000E+00   0.00000000E+00   0.00000000E+00   6.85592756E-06   9.96574989E+02   4.08199911E-06  -1.12281567E-06   0.00000000E+00   0.00000000E+00   0.00000000E+00   1.50936904E+04
   7.87500000E+02   5.00000000E-01   5.00000000E-01  -4.35869223E+04   2.90248950E+03   0.00000000E+00   9.30215376E+03   1.35654603E+03   6.27341288E+03   7.19372707E+00   0.00000000E+00   0.00000000E+00   0.00000000E+00   0.00000000E+00   0.00000000E+00   6.85589728E-06   9.93647250E+02   4.47175200E-06  -1.12281567E-06   0.00000000E+00   0.00000000E+00   0.00000000E+00   1.50944288E+04
   8.22500000E+02   5.00000000E-01   5.00000000E-01  -4.35866710E+04   2.90248949E+03   0.00000000E+00   9.29997301E+03   1.35657290E+03   6.27676411E+03   7.19372707E+00   0.00000000E+00   0.00000000E+00   0.00000000E+00   0.00000000E+00   0.00000000E+00   6.85586928E-06   9.91001297E+02   4.96113507E-06  -1.12281567E-06   0.00000000E+00   0.00000000E+00   0.00000000E+00   1.50952232E+04
   8.57500000E+02   5.00000000E-01   5.00000000E-01  -4.35860305E+04   2.90248948E+03   0.00000000E+00   9.29755659E+03   1.35656970E+03   6.28004893E+03   7.19372706E+00   0.00000000E+00   0.00000000E+00   0.00000000E+00   0.00000000E+00   0.00000000E+00   6.85584350E-06   9.88630443E+02   5.58354016E-06  -1.12281567E-06   0.00000000E+00   0.00000000E+00   0.00000000E+00   1.50960954E+04
   8.92500000E+02   5.00000000E-01   5.00000000E-01  -4.35850088E+04   2.90248946E+03   0.00000000E+00   9.29488582E+03   1.35653857E+03   6.28328973E+03   7.19372706E+00   0.00000000E+00   0.00000000E+00   0.00000000E+00   0.00000000E+00   0.00000000E+00   6.85581983E-06   9.86531002E+02   6.38637308E-06  -1.12281567E-06   0.00000000E+00   0.00000000E+00   0.00000000E+00   1.50970703E+04
   9.27500000E+02   5.00000000E-01   5.00000000E-01  -4.35836178E+04   2.90248945E+03   0.00000000E+00   9.29194133E+03   1.35648150E+03   6.28650957E+03   7.19372705E+00   0.00000000E+00   0.00000000E+00   0.00000000E+00   0.00000000E+00   0.00000000E+00   6.85579818E-06   9.84703526E+02   7.43813894E-06  -1.12281567E-06   0.00000000E+00   0.00000000E+00   0.00000000E+00   1.50981749E+04
   9.62500000E+02   5.00000000E-01   5.00000000E-01  -4.35818689E+04   2.90248943E+03   0.00000000E+00   9.28870067E+03   1.35640023E+03   6.28973171E+03   7.19372704E+00   0.00000000E+00   0.00000000E+00   0.00000000E+00   0.00000000E+00   0.00000000E+00   6.85577840E-06   9.83154246E+02   8.83973853E-06  -1.12281567E-06   0.00000000E+00   0.00000000E+00   0.00000000E+00   1.50994394E+04
   9.97500000E+02   5.00000000E-01   5.00000000E-01  -4.35797662E+04   2.90248940E+03   0.00000000E+00   9.28513655E+03   1.35629632E+03   6.29297703E+03   7.19372702E+00   0.00000000E+00   0.00000000E+00   0.00000000E+00   0.00000000E+00   0.00000000E+00   6.85576038E-06   9.81897049E+02   1.07428692E-05  -1.12281567E-06   0.00000000E+00   0.00000000E+00   0.00000000E+00   1.51008985E+04
   1.03250000E+03   5.00000000E-01   5.00000000E-01  -4.35772970E+04   2.90248937E+03   0.00000000E+00   9.28121551E+03   1.35617128E+03   6.29625851E+03   7.19372700E+00   0.00000000E+00   0.00000000E+00   0.00000000E+00   0.00000000E+00   0.00000000E+00   6.85574396E-06   9.80957098E+02   1.33806924E-05  -1.12281567E-06   0.00000000E+00   0.00000000E+00   0.00000000E+00   1.51025910E+04
   1.06750000E+03   5.00000000E-01   5.00000000E-01  -4.35744108E+04   2.90248933E+03   0.00000000E+00   9.27688297E+03   1.35602638E+03   6.29958158E+03   7.19372697E+00   0.00000000E+00   0.00000000E+00   0.00000000E+00   0.00000000E+00   0.00000000E+00   6.85572900E-06   9.80379787E+02   1.71202220E-05  -1.12281567E-06   0.00000000E+00   0.00000000E+00   0.00000000E+00   1.51045705E+04
   1.10250000E+03   5.00000000E-01   5.00000000E-01  -4.35709829E+04   2.90248927E+03   0.00000000E+00   9.27204262E+03   1.35586241E+03   6.30293812E+03   7.19372694E+00   0.00000000E+00   0.00000000E+00   0.00000000E+00   0.00000000E+00   0.00000000E+00   6.85571535E-06   9.80247699E+02   2.25542006E-05  -1.12281567E-06   0.00000000E+00   0.00000000E+00   0.00000000E+00   1.51069176E+04
   1.13750000E+03   5.00000000E-01   5.00000000E-01  -4.35890168E+04   2.90248890E+03   0.00000000E+00   9.34473427E+03   1.35120522E+03   6.23350929E+03   7.19372692E+00   0.00000000E+00   0.00000000E+00   0.00000000E+00   0.00000000E+00   0.00000000E+00   6.85570189E-06   1.00107145E+03   3.06189144E-05  -1.12281567E-06   0.00000000E+00   0.00000000E+00   0.00000000E+00   1.58766095E+04
   1.17250000E+03   5.00000000E-01   5.00000000E-01  -4.35528991E+04   2.90248920E+03   0.00000000E+00   9.31233273E+03   1.35120569E+03   6.26672657E+03   7.19372686E+00   0.00000000E+00   0.00000000E+00   0.00000000E+00   0.00000000E+00   0.00000000E+00   6.85569480E-06   9.63320424E+02   4.30298075E-05  -1.12281567E-06   0.00000000E+00   0.00000000E+00   0.00000000E+00   1.50411387E+04
   1.20750000E+03   5.00000000E-01   5.00000000E-01  -4.35481394E+04   2.90248883E+03   0.00000000E+00   9.27715156E+03   1.35122085E+03   6.29579285E+03   7.19372682E+00   0.00000000E+00   0.00000000E+00   0.00000000E+00   0.00000000E+00   0.00000000E+00   6.85568528E-06   9.70761294E+02   6.27822172E-05  -1.12281567E-06   0.00000000E+00   0.00000000E+00   0.00000000E+00   1.50722725E+04
   1.24250000E+03   5.00000000E-01   5.00000000E-01  -4.35323134E+04   2.90248802E+03   0.00000000E+00   9.24869408E+03   1.35128112E+03   6.31108148E+03   7.19372678E+00   0.00000000E+00   0.00000000E+00   0.00000000E+00   0.00000000E+00   0.00000000E+00   6.85567388E-06   9.81154965E+02   9.53140642E-05  -1.12281567E-06   0.00000000E+00   0.00000000E+00   0.00000000E+00   1.50959463E+04
   1.27750000E+03   5.00000000E-01   5.00000000E-01  -4.35012535E+04   2.90248326E+03   0.00000000E+00   9.22033882E+03   1.35192767E+03   6.31060268E+03   7.19372674E+00   0.00000000E+00   0.00000000E+00   0.00000000E+00   0.00000000E+00   0.00000000E+00   6.85566045E-06   1.00648449E+03   1.50859085E-04  -1.12281567E-06   0.00000000E+00   0.00000000E+00   0.00000000E+00   1.51195942E+04
   1.31250000E+03   5.00000000E-01   5.00000000E-01  -4.34844930E+04   2.90244995E+03   0.00000000E+00   9.19174086E+03   1.36076216E+03   6.30658963E+03   7.19372670E+00   0.00000000E+00   0.00000000E+00   0.00000000E+00   0.00000000E+00   0.00000000E+00   6.85564791E-06   1.03737713E+03   2.49100001E-04  -1.12281567E-06   0.00000000E+00   0.00000000E+00   0.00000000E+00   1.51243417E+04
   1.34750000E+03   5.00000000E-01   5.00000000E-01  -4.34813255E+04   2.90241928E+03   0.00000000E+00   9.16813871E+03   1.38094041E+03   6.30750200E+03   7.19372665E+00   0.00000000E+00   0.00000000E+00   0.00000000E+00   0.00000000E+00   0.00000000E+00   6.85563857E-06   1.03932509E+03   4.28669643E-04  -1.12281567E-06   0.00000000E+00   0.00000000E+00   0.00000000E+00   1.51191438E+04
   1.38250000E+03   5.00000000E-01   5.00000000E-01  -4.34860789E+04   2.90240678E+03   0.00000000E+00   9.16895991E+03   1.40408278E+03   6.28724445E+03   7.19372660E+00   0.00000000E+00   0.00000000E+00   0.00000000E+00   0.00000000E+00   0.00000000E+00   6.85563122E-06   1.03670462E+03   7.69634360E-04  -1.12281567E-06   0.00000000E+00   0.00000000E+00   0.00000000E+00   1.52465991E+04
   1.41750000E+03   5.00000000E-01   5.00000000E-01  -4.34842020E+04   2.90240253E+03   0.00000000E+00   9.14481670E+03   1.42518045E+03   6.29481717E+03   7.19372655E+00   0.00000000E+00   0.00000000E+00   0.00000000E+00   0.00000000E+00   0.00000000E+00   6.85562584E-06   1.02578748E+03   1.44869363E-03  -1.12281567E-06   0.00000000E+00   0.00000000E+00   0.00000000E+00   1.51287636E+04
   1.45250000E+03   5.00000000E-01   5.00000000E-01  -4.34855193E+04   2.90240089E+03   0.00000000E+00   9.12469350E+03   1.44502729E+03   6.29767785E+03   7.19372651E+00   0.00000000E+00   0.00000000E+00   0.00000000E+00   0.00000000E+00   0.00000000E+00   6.85562112E-06   1.02194391E+03   2.86734068E-03  -1.12281567E-06   0.00000000E+00   0.00000000E+00   0.00000000E+00   1.51407050E+04
   1.48750000E+03   5.00000000E-01   5.00000000E-01  -4.34864187E+04   2.90239998E+03   0.00000000E+00   9.10808864E+03   1.46424701E+03   6.29758751E+03   7.19372649E+00   0.00000000E+00   0.00000000E+00   0.00000000E+00   0.00000000E+00   0.00000000E+00   6.85561713E-06   1.01780321E+03   5.98528382E-03  -1.12281567E-06   0.00000000E+00   0.00000000E+00   0.00000000E+00   1.51488127E+04
   1.52250000E+03   5.00000000E-01   5.00000000E-01  -4.34875755E+04   2.90239953E+03   0.00000000E+00   9.09337526E+03   1.48311934E+03   6.29628444E+03   7.19372648E+00   0.00000000E+00   0.00000000E+00   0.00000000E+00   0.00000000E+00   0.00000000E+00   6.85561381E-06   1.01326410E+03   1.32176141E-02  -1.12281567E-06   0.00000000E+00   0.00000000E+00   0.00000000E+00   1.51537469E+04
   1.55750000E+03   5.00000000E-01   5.00000000E-01  -4.34887988E+04   2.90239966E+03   0.00000000E+00   9.07927024E+03   1.50165769E+03   6.29486198E+03   7.19372649E+00   0.00000000E+00   0.00000000E+00   0.00000000E+00   0.00000000E+00   0.00000000E+00   6.85561106E-06   1.00850081E+03   3.09836783E-02  -1.12281567E-06   0.00000000E+00   0.00000000E+00   0.00000000E+00   1.51556217E+04
   1.59250000E+03   5.00000000E-01   5.00000000E-01  -4.34900977E+04   2.90240013E+03   0.00000000E+00   9.06475373E+03   1.51989308E+03   6.29429737E+03   7.19372652E+00   0.00000000E+00   0.00000000E+00   0.00000000E+00   0.00000000E+00   0.00000000E+00   6.85560877E-06   1.00358253E+03   7.73638675E-02  -1.12281567E-06   0.00000000E+00   0.00000000E+00   0.00000000E+00   1.51530164E+04
   1.62750000E+03   5.00000000E-01   5.00000000E-01  -4.34915347E+04   2.90240089E+03   0.00000000E+00   9.04933108E+03   1.53797054E+03   6.29490285E+03   7.19372655E+00   0.00000000E+00   0.00000000E+00   0.00000000E+00   0.00000000E+00   0.00000000E+00   6.85560685E-06   9.98754883E+02   2.06474870E-01  -1.12281567E-06   0.00000000E+00   0.00000000E+00   0.00000000E+00   1.51467004E+04
   1.66250000E+03   5.00000000E-01   5.00000000E-01  -4.34925372E+04   2.90240177E+03   0.00000000E+00   9.03404591E+03   1.55612367E+03   6.29472079E+03   7.19372660E+00   0.00000000E+00   0.00000000E+00   0.00000000E+00   0.00000000E+00   0.00000000E+00   6.85560518E-06   9.95151458E+02   5.90737510E-01  -1.12281567E-06   0.00000000E+00   0.00000000E+00   0.00000000E+00   1.51434938E+04
   1.69750000E+03   5.00000000E-01   5.00000000E-01  -4.34916730E+04   2.90240182E+03   0.00000000E+00   9.01974866E+03   1.57528698E+03   6.29145230E+03   7.19372665E+00   0.00000000E+00   0.00000000E+00   0.00000000E+00   0.00000000E+00   0.00000000E+00   6.85560370E-06   9.93538210E+02   1.81385243E+00  -1.12281567E-06   0.00000000E+00   0.00000000E+00   0.00000000E+00   1.51496877E+04
   1.73250000E+03   5.00000000E-01   5.00000000E-01  -4.34876535E+04   2.90240178E+03   0.00000000E+00   9.00657559E+03   1.59774991E+03   6.28610328E+03   7.19372670E+00   0.00000000E+00   0.00000000E+00   0.00000000E+00   0.00000000E+00   0.00000000E+00   6.85560240E-06   9.89910287E+02   5.95042169E+00  -1.12281567E-06   0.00000000E+00   0.00000000E+00   0.00000000E+00   1.51589154E+04
   1.76750000E+03   5.00000000E-01   5.00000000E-01  -4.34882319E+04   2.90239967E+03   0.00000000E+00   8.99565060E+03   1.63273709E+03   6.28030365E+03   7.19372675E+00   0.00000000E+00   0.00000000E+00   0.00000000E+00   0.00000000E+00   0.00000000E+00   6.85560135E-06   9.82737142E+02   2.03340392E+01  -1.12281567E-06   0.00000000E+00   0.00000000E+00   0.00000000E+00   1.51689022E+04
   1.80250000E+03   5.00000000E-01   5.00000000E-01  -4.34914974E+04   2.90239600E+03   0.00000000E+00   8.98644020E+03   1.70104251E+03   6.27411705E+03   7.19372679E+00   0.00000000E+00   0.00000000E+00   0.00000000E+00   0.00000000E+00   0.00000000E+00   6.85560050E-06   9.72156108E+02   6.63137128E+01  -1.12281567E-06   0.00000000E+00   0.00000000E+00   0.00000000E+00   1.51737942E+04
   1.83750000E+03   5.00000000E-01   5.00000000E-01  -4.34920774E+04   2.90239414E+03   0.00000000E+00   8.97874688E+03   1.82830895E+03   6.26810750E+03   7.19372683E+00   0.00000000E+00   0.00000000E+00   0.00000000E+00   0.00000000E+00   0.00000000E+00   6.85559976E-06   9.56777148E+02   1.71895000E+02  -1.12281567E-06   0.00000000E+00   0.00000000E+00   0.00000000E+00   1.51663096E+04
   1.87250000E+03   5.00000000E-01   5.00000000E-01  -4.34951195E+04   2.90239114E+03   0.00000000E+00   8.97358141E+03   1.98703637E+03   6.26199074E+03   7.19372686E+00   0.00000000E+00   0.00000000E+00   0.00000000E+00   0.00000000E+00   0.00000000E+00   6.85559916E-06   9.40864361E+02   3.09858267E+02  -1.12281567E-06   0.00000000E+00   0.00000000E+00   0.00000000E+00   1.51578402E+04
   1.90750000E+03   5.00000000E-01   5.00000000E-01  -4.35133446E+04   2.90238210E+03   0.00000000E+00   8.97162154E+03   2.10902335E+03   6.25999487E+03   7.19372688E+00   0.00000000E+00   0.00000000E+00   0.00000000E+00   0.00000000E+00   0.00000000E+00   6.85559885E-06   9.25461779E+02   4.11062088E+02  -1.12281567E-06   0.00000000E+00   0.00000000E+00   0.00000000E+00   1.51552289E+04
   1.94250000E+03   5.00000000E-01   5.00000000E-01  -4.35289429E+04   2.90237285E+03   0.00000000E+00   8.97097591E+03   2.16853678E+03   6.25984564E+03   7.19372690E+00   0.00000000E+00   0.00000000E+00   0.00000000E+00   0.00000000E+00   0.00000000E+00   6.85559867E-06   9.11904679E+02   4.55189095E+02  -1.12281567E-06   0.00000000E+00   0.00000000E+00   0.00000000E+00   1.51476656E+04
   1.97750000E+03   5.00000000E-01   5.00000000E-01  -4.35375111E+04   2.90236595E+03   0.00000000E+00   8.97050515E+03   2.18289899E+03   6.25987855E+03   7.19372692E+00   0.00000000E+00   0.00000000E+00   0.00000000E+00   0.00000000E+00   0.00000000E+00   6.85559855E-06   9.02339270E+02   4.60036304E+02  -1.12281567E-06   0.00000000E+00   0.00000000E+00   0.00000000E+00   1.51392506E+04
   2.01250000E+03   5.00000000E-01   5.00000000E-01  -4.35431988E+04   2.90235954E+03   0.00000000E+00   8.97006880E+03   2.17446340E+03   6.25995090E+03   7.19372693E+00   0.00000000E+00   0.00000000E+00   0.00000000E+00   0.00000000E+00   0.00000000E+00   6.85559844E-06   8.95949699E+02   4.45188439E+02  -1.12281567E-06   0.00000000E+00   0.00000000E+00   0.00000000E+00   1.51336990E+04
   2.04750000E+03   5.00000000E-01   5.00000000E-01  -4.35475181E+04   2.90235309E+03   0.00000000E+00   8.96963945E+03   2.15640621E+03   6.26004027E+03   7.19372694E+00   0.00000000E+00   0.00000000E+00   0.00000000E+00   0.00000000E+00   0.00000000E+00   6.85559836E-06   8.91501704E+02   4.22397950E+02  -1.12281567E-06   0.00000000E+00   0.00000000E+00   0.00000000E+00   1.51303951E+04
   2.08250000E+03   5.00000000E-01   5.00000000E-01  -4.35510127E+04   2.90234641E+03   0.00000000E+00   8.96920508E+03   2.13506676E+03   6.26013991E+03   7.19372695E+00   0.00000000E+00   0.00000000E+00   0.00000000E+00   0.00000000E+00   0.00000000E+00   6.85559828E-06   8.88235065E+02   3.97333126E+02  -1.12281567E-06   0.00000000E+00   0.00000000E+00   0.00000000E+00   1.51284853E+04
   2.11750000E+03   5.00000000E-01   5.00000000E-01  -4.35539449E+04   2.90233936E+03   0.00000000E+00   8.96875713E+03   2.11320820E+03   6.26025003E+03   7.19372695E+00   0.00000000E+00   0.00000000E+00   0.00000000E+00   0.00000000E+00   0.00000000E+00   6.85559821E-06   8.85719731E+02   3.72402387E+02  -1.12281567E-06   0.00000000E+00   0.00000000E+00   0.00000000E+00   1.51274294E+04
   2.15250000E+03   5.00000000E-01   5.00000000E-01  -4.35564632E+04   2.90233187E+03   0.00000000E+00   8.96828781E+03   2.09192180E+03   6.26037545E+03   7.19372696E+00   0.00000000E+00   0.00000000E+00   0.00000000E+00   0.00000000E+00   0.00000000E+00   6.85559815E-06   8.83700006E+02   3.48491860E+02  -1.12281567E-06   0.00000000E+00   0.00000000E+00   0.00000000E+00   1.51268929E+04
   2.18750000E+03   5.00000000E-01   5.00000000E-01  -4.35586622E+04   2.90232386E+03   0.00000000E+00   8.96779167E+03   2.07159766E+03   6.26052221E+03   7.19372696E+00   0.00000000E+00   0.00000000E+00   0.00000000E+00   0.00000000E+00   0.00000000E+00   6.85559810E-06   8.82011101E+02   3.25862329E+02  -1.12281567E-06   0.00000000E+00   0.00000000E+00   0.00000000E+00   1.51266548E+04
   2.22250000E+03   5.00000000E-01   5.00000000E-01  -4.35606090E+04   2.90231527E+03   0.00000000E+00   8.96727066E+03   2.05236462E+03   6.26068953E+03   7.19372696E+00   0.00000000E+00   0.00000000E+00   0.00000000E+00   0.00000000E+00   0.00000000E+00   6.85559805E-06   8.80543907E+02   3.04555774E+02  -1.12281567E-06   0.00000000E+00   0.00000000E+00   0.00000000E+00   1.51265728E+04
   2.25750000E+03   5.00000000E-01   5.00000000E-01  -4.35623371E+04   2.90230612E+03   0.00000000E+00   8.96673624E+03   2.03419867E+03   6.26086432E+03   7.19372696E+00   0.00000000E+00   0.00000000E+00   0.00000000E+00   0.00000000E+00   0.00000000E+00   6.85559800E-06   8.79235637E+02   2.84498270E+02  -1.12281567E-06   0.00000000E+00   0.00000000E+00   0.00000000E+00   1.51265654E+04
   2.29250000E+03   5.00000000E-01   5.00000000E-01  -4.35638469E+04   2.90229641E+03   0.00000000E+00   8.96620183E+03   2.01700701E+03   6.26102906E+03   7.19372695E+00   0.00000000E+00   0.00000000E+00   0.00000000E+00   0.00000000E+00   0.00000000E+00   6.85559796E-06   8.78058700E+02   2.65579025E+02  -1.12281567E-06   0.00000000E+00   0.00000000E+00   0.00000000E+00   1.51265872E+04
   2.32750000E+03   5.00000000E-01   5.00000000E-01  -4.35651368E+04   2.90228614E+03   0.00000000E+00   8.96567462E+03   2.00077305E+03   6.26117343E+03   7.19372694E+00   0.00000000E+00   0.00000000E+00   0.00000000E+00   0.00000000E+00   0.00000000E+00   6.85559791E-06   8.77000693E+02   2.47772823E+02  -1.12281567E-06   0.00000000E+00   0.00000000E+00   0.00000000E+00   1.51266183E+04
   2.36250000E+03   5.00000000E-01   5.00000000E-01  -4.35662190E+04   2.90227523E+03   0.00000000E+00   8.96515575E+03   1.98552407E+03   6.26129418E+03   7.19372692E+00   0.00000000E+00   0.00000000E+00   0.00000000E+00   0.00000000E+00   0.00000000E+00   6.85559787E-06   8.76051536E+02   2.31093701E+02  -1.12281567E-06   0.00000000E+00   0.00000000E+00   0.00000000E+00   1.51266568E+04
   2.39750000E+03   5.00000000E-01   5.00000000E-01  -4.35671108E+04   2.90226360E+03   0.00000000E+00   8.96464398E+03   1.97115513E+03   6.26138926E+03   7.19372689E+00   0.00000000E+00   0.00000000E+00   0.00000000E+00   0.00000000E+00   0.00000000E+00   6.85559783E-06   8.75199941E+02   2.15418912E+02  -1.12281567E-06   0.00000000E+00   0.00000000E+00   0.00000000E+00   1.51267064E+04
   2.43250000E+03   5.00000000E-01   5.00000000E-01  -4.35678297E+04   2.90225108E+03   0.00000000E+00   8.96413780E+03   1.95747876E+03   6.26145547E+03   7.19372686E+00   0.00000000E+00   0.00000000E+00   0.00000000E+00   0.00000000E+00   0.00000000E+00   6.85559780E-06   8.74432713E+02   2.00540721E+02  -1.12281567E-06   0.00000000E+00   0.00000000E+00   0.00000000E+00   1.51267701E+04
   2.46750000E+03   5.00000000E-01   5.00000000E-01  -4.35683939E+04   2.90223744E+03   0.00000000E+00   8.96363582E+03   1.94440787E+03   6.26148929E+03   7.19372682E+00   0.00000000E+00   0.00000000E+00   0.00000000E+00   0.00000000E+00   0.00000000E+00   6.85559776E-06   8.73734997E+02   1.86350268E+02  -1.12281567E-06   0.00000000E+00   0.00000000E+00   0.00000000E+00   1.51268486E+04
   2.50250000E+03   5.00000000E-01   5.00000000E-01  -4.35688253E+04   2.90222244E+03   0.00000000E+00   8.96313657E+03   1.93192594E+03   6.26148767E+03   7.19372676E+00   0.00000000E+00   0.00000000E+00   0.00000000E+00   0.00000000E+00   0.00000000E+00   6.85559773E-06   8.73091152E+02   1.72807373E+02  -1.12281567E-06   0.00000000E+00   0.00000000E+00   0.00000000E+00   1.51269452E+04
   2.53750000E+03   5.00000000E-01   5.00000000E-01  -4.35691501E+04   2.90220582E+03   0.00000000E+00   8.96263840E+03   1.92003473E+03   6.26144960E+03   7.19372667E+00   0.00000000E+00   0.00000000E+00   0.00000000E+00   0.00000000E+00   0.00000000E+00   6.85559769E-06   8.72485949E+02   1.59889957E+02  -1.12281567E-06   0.00000000E+00   0.00000000E+00   0.00000000E+00   1.51270655E+04
   2.57250000E+03   5.00000000E-01   5.00000000E-01  -4.35693851E+04   2.90218738E+03   0.00000000E+00   8.96214040E+03   1.90878639E+03   6.26138085E+03   7.19372657E+00   0.00000000E+00   0.00000000E+00   0.00000000E+00   0.00000000E+00   0.00000000E+00   6.85559766E-06   8.71906957E+02   1.47640234E+02  -1.12281567E-06   0.00000000E+00   0.00000000E+00   0.00000000E+00   1.51271955E+04
   2.60750000E+03   5.00000000E-01   5.00000000E-01  -4.35695285E+04   2.90216693E+03   0.00000000E+00   8.96164214E+03   1.89822876E+03   6.26129391E+03   7.19372642E+00   0.00000000E+00   0.00000000E+00   0.00000000E+00   0.00000000E+00   0.00000000E+00   6.85559763E-06   8.71346151E+02   1.36114606E+02  -1.12281567E-06   0.00000000E+00   0.00000000E+00   0.00000000E+00   1.51272956E+04