 TITLE = "Total Component Concentration in Minerals" 
VARIABLES = "X"          "Y"              "Z"            "H+"             "Al+++"          "CO2(aq)"        "Mg++"           "Ca++"           "Fe++"           "Fe+++"          "Ba++"           "Sr++"           "Cl-"            "F-"             "K+"             "HS-"            "Na+"            "SO4--"          "O2(aq)"         "B(OH)3(aq)"     "HPO4--"         "NO3-"           "H4SiO4(aq)"    
 ZONE I=         100 , J=           1 , K=           1  F=POINT
   1.75000000E+01   5.00000000E-01   5.00000000E-01  -4.35714385E+04   2.90250023E+03   0.00000000E+00   9.55233787E+03   1.37600053E+03   5.99603981E+03   7.19372688E+00   0.00000000E+00   0.00000000E+00   0.00000000E+00   0.00000000E+00   0.00000000E+00   7.16349341E-06   9.93600235E+02   2.30451159E-06  -1.18126988E-06   0.00000000E+00   0.00000000E+00   0.00000000E+00   1.48587995E+04
   5.25000000E+01   5.00000000E-01   5.00000000E-01  -4.35347340E+04   2.90248956E+03   0.00000000E+00   9.42873754E+03   1.37694732E+03   6.07516924E+03   7.19372709E+00   0.00000000E+00   0.00000000E+00   0.00000000E+00   0.00000000E+00   0.00000000E+00   7.16376552E-06   1.04397597E+03   2.31979348E-06  -1.18126988E-06   0.00000000E+00   0.00000000E+00   0.00000000E+00   1.49777151E+04
   8.75000000E+01   5.00000000E-01   5.00000000E-01  -4.35465067E+04   2.90248956E+03   0.00000000E+00   9.36365667E+03   1.37779997E+03   6.13185371E+03   7.19372709E+00   0.00000000E+00   0.00000000E+00   0.00000000E+00   0.00000000E+00   0.00000000E+00   7.16390349E-06   1.07083619E+03   2.33690479E-06  -1.18126988E-06   0.00000000E+00   0.00000000E+00   0.00000000E+00   1.50497869E+04
   1.22500000E+02   5.00000000E-01   5.00000000E-01  -4.35521568E+04   2.90248956E+03   0.00000000E+00   9.33062702E+03   1.37748816E+03   6.16184881E+03   7.19372709E+00   0.00000000E+00   0.00000000E+00   0.00000000E+00   0.00000000E+00   0.00000000E+00   7.16396892E-06   1.08317892E+03   2.35615912E-06  -1.18126988E-06   0.00000000E+00   0.00000000E+00   0.00000000E+00   1.50825248E+04
   1.57500000E+02   5.00000000E-01   5.00000000E-01  -4.35550535E+04   2.90248956E+03   0.00000000E+00   9.31412675E+03   1.37700743E+03   6.17943065E+03   7.19372708E+00   0.00000000E+00   0.00000000E+00   0.00000000E+00   0.00000000E+00   0.00000000E+00   7.16399556E-06   1.08487402E+03   2.37789159E-06  -1.18126988E-06   0.00000000E+00   0.00000000E+00   0.00000000E+00   1.50956729E+04
   1.92500000E+02   5.00000000E-01   5.00000000E-01  -4.35569355E+04   2.90248956E+03   0.00000000E+00   9.30574590E+03   1.37696393E+03   6.19170478E+03   7.19372708E+00   0.00000000E+00   0.00000000E+00   0.00000000E+00   0.00000000E+00   0.00000000E+00   7.16399851E-06   1.07905644E+03   2.40247274E-06  -1.18126988E-06   0.00000000E+00   0.00000000E+00   0.00000000E+00   1.51006177E+04
   2.27500000E+02   5.00000000E-01   5.00000000E-01  -4.35587339E+04   2.90248956E+03   0.00000000E+00   9.30197715E+03   1.37703033E+03   6.20036854E+03   7.19372707E+00   0.00000000E+00   0.00000000E+00   0.00000000E+00   0.00000000E+00   0.00000000E+00   7.16398540E-06   1.07093198E+03   2.43034591E-06  -1.18126988E-06   0.00000000E+00   0.00000000E+00   0.00000000E+00   1.51012192E+04
   2.62500000E+02   5.00000000E-01   5.00000000E-01  -4.35605168E+04   2.90248956E+03   0.00000000E+00   9.30014237E+03   1.37713618E+03   6.20713058E+03   7.19372707E+00   0.00000000E+00   0.00000000E+00   0.00000000E+00   0.00000000E+00   0.00000000E+00   7.16396137E-06   1.06264871E+03   2.46203489E-06  -1.18126988E-06   0.00000000E+00   0.00000000E+00   0.00000000E+00   1.51003031E+04
   2.97500000E+02   5.00000000E-01   5.00000000E-01  -4.35623330E+04   2.90248956E+03   0.00000000E+00   9.29896867E+03   1.37727273E+03   6.21301398E+03   7.19372707E+00   0.00000000E+00   0.00000000E+00   0.00000000E+00   0.00000000E+00   0.00000000E+00   7.16392970E-06   1.05477245E+03   2.49815901E-06  -1.18126988E-06   0.00000000E+00   0.00000000E+00   0.00000000E+00   1.50991395E+04
   3.32500000E+02   5.00000000E-01   5.00000000E-01  -4.35642158E+04   2.90248955E+03   0.00000000E+00   9.29796660E+03   1.37743618E+03   6.21846653E+03   7.19372707E+00   0.00000000E+00   0.00000000E+00   0.00000000E+00   0.00000000E+00   0.00000000E+00   7.16389257E-06   1.04742734E+03   2.53945430E-06  -1.18126988E-06   0.00000000E+00   0.00000000E+00   0.00000000E+00   1.50981806E+04
   3.67500000E+02   5.00000000E-01   5.00000000E-01  -4.35661683E+04   2.90248955E+03   0.00000000E+00   9.29696474E+03   1.37762207E+03   6.22366553E+03   7.19372707E+00   0.00000000E+00   0.00000000E+00   0.00000000E+00   0.00000000E+00   0.00000000E+00   7.16385164E-06   1.04061380E+03   2.58680129E-06  -1.18126988E-06   0.00000000E+00   0.00000000E+00   0.00000000E+00   1.50975515E+04
   4.02500000E+02   5.00000000E-01   5.00000000E-01  -4.35681759E+04   2.90248955E+03   0.00000000E+00   9.29591668E+03   1.37782490E+03   6.22867251E+03   7.19372707E+00   0.00000000E+00   0.00000000E+00   0.00000000E+00   0.00000000E+00   0.00000000E+00   7.16380820E-06   1.03429788E+03   2.64126088E-06  -1.18126988E-06   0.00000000E+00   0.00000000E+00   0.00000000E+00   1.50972496E+04
   4.37500000E+02   5.00000000E-01   5.00000000E-01  -4.35702107E+04   2.90248955E+03   0.00000000E+00   9.29481922E+03   1.37803817E+03   6.23350290E+03   7.19372707E+00   0.00000000E+00   0.00000000E+00   0.00000000E+00   0.00000000E+00   0.00000000E+00   7.16376334E-06   1.02844035E+03   2.70412086E-06  -1.18126988E-06   0.00000000E+00   0.00000000E+00   0.00000000E+00   1.50972262E+04
   4.72500000E+02   5.00000000E-01   5.00000000E-01  -4.35722382E+04   2.90248955E+03   0.00000000E+00   9.29367711E+03   1.37825472E+03   6.23815946E+03   7.19372707E+00   0.00000000E+00   0.00000000E+00   0.00000000E+00   0.00000000E+00   0.00000000E+00   7.16371796E-06   1.02300580E+03   2.77695694E-06  -1.18126988E-06   0.00000000E+00   0.00000000E+00   0.00000000E+00   1.50974232E+04
   5.07500000E+02   5.00000000E-01   5.00000000E-01  -4.35742178E+04   2.90248954E+03   0.00000000E+00   9.29248720E+03   1.37846734E+03   6.24264672E+03   7.19372707E+00   0.00000000E+00   0.00000000E+00   0.00000000E+00   0.00000000E+00   0.00000000E+00   7.16367282E-06   1.01796545E+03   2.86171294E-06  -1.18126988E-06   0.00000000E+00   0.00000000E+00   0.00000000E+00   1.50977897E+04
   5.42500000E+02   5.00000000E-01   5.00000000E-01  -4.35761035E+04   2.90248954E+03   0.00000000E+00   9.29123071E+03   1.37866909E+03   6.24697852E+03   7.19372707E+00   0.00000000E+00   0.00000000E+00   0.00000000E+00   0.00000000E+00   0.00000000E+00   7.16362851E-06   1.01329704E+03   2.96080769E-06  -1.18126988E-06   0.00000000E+00   0.00000000E+00   0.00000000E+00   1.50982906E+04
   5.77500000E+02   5.00000000E-01   5.00000000E-01  -4.35778487E+04   2.90248954E+03   0.00000000E+00   9.28988099E+03   1.37885370E+03   6.25117374E+03   7.19372707E+00   0.00000000E+00   0.00000000E+00   0.00000000E+00   0.00000000E+00   0.00000000E+00   7.16358554E-06   1.00898206E+03   3.07727853E-06  -1.18126988E-06   0.00000000E+00   0.00000000E+00   0.00000000E+00   1.50989013E+04
   6.12500000E+02   5.00000000E-01   5.00000000E-01  -4.35794077E+04   2.90248953E+03   0.00000000E+00   9.28841850E+03   1.37901585E+03   6.25524332E+03   7.19372707E+00   0.00000000E+00   0.00000000E+00   0.00000000E+00   0.00000000E+00   0.00000000E+00   7.16354425E-06   1.00500257E+03   3.21497564E-06  -1.18126988E-06   0.00000000E+00   0.00000000E+00   0.00000000E+00   1.50995960E+04
   6.47500000E+02   5.00000000E-01   5.00000000E-01  -4.35807355E+04   2.90248953E+03   0.00000000E+00   9.28683851E+03   1.37915159E+03   6.25918311E+03   7.19372707E+00   0.00000000E+00   0.00000000E+00   0.00000000E+00   0.00000000E+00   0.00000000E+00   7.16350491E-06   1.00133938E+03   3.37882834E-06  -1.18126988E-06   0.00000000E+00   0.00000000E+00   0.00000000E+00   1.51003420E+04
   6.82500000E+02   5.00000000E-01   5.00000000E-01  -4.35817925E+04   2.90248952E+03   0.00000000E+00   9.28514209E+03   1.37925843E+03   6.26298401E+03   7.19372707E+00   0.00000000E+00   0.00000000E+00   0.00000000E+00   0.00000000E+00   0.00000000E+00   7.16346769E-06   9.97973700E+02   3.57521421E-06  -1.18126988E-06   0.00000000E+00   0.00000000E+00   0.00000000E+00   1.51011096E+04
   7.17500000E+02   5.00000000E-01   5.00000000E-01  -4.35825429E+04   2.90248952E+03   0.00000000E+00   9.28331602E+03   1.37933522E+03   6.26664985E+03   7.19372707E+00   0.00000000E+00   0.00000000E+00   0.00000000E+00   0.00000000E+00   0.00000000E+00   7.16343273E-06   9.94891039E+02   3.81247801E-06  -1.18126988E-06   0.00000000E+00   0.00000000E+00   0.00000000E+00   1.51018894E+04
   7.52500000E+02   5.00000000E-01   5.00000000E-01  -4.35829607E+04   2.90248951E+03   0.00000000E+00   9.28134032E+03   1.37938196E+03   6.27019335E+03   7.19372707E+00   0.00000000E+00   0.00000000E+00   0.00000000E+00   0.00000000E+00   0.00000000E+00   7.16340007E-06   9.92079765E+02   4.10166988E-06  -1.18126988E-06   0.00000000E+00   0.00000000E+00   0.00000000E+00   1.51026861E+04
   7.87500000E+02   5.00000000E-01   5.00000000E-01  -4.35830288E+04   2.90248950E+03   0.00000000E+00   9.27919413E+03   1.37939951E+03   6.27363078E+03   7.19372707E+00   0.00000000E+00   0.00000000E+00   0.00000000E+00   0.00000000E+00   0.00000000E+00   7.16336973E-06   9.89530345E+02   4.45761008E-06  -1.18126988E-06   0.00000000E+00   0.00000000E+00   0.00000000E+00   1.51035118E+04
   8.22500000E+02   5.00000000E-01   5.00000000E-01  -4.35827398E+04   2.90248949E+03   0.00000000E+00   9.27685800E+03   1.37938931E+03   6.27698023E+03   7.19372707E+00   0.00000000E+00   0.00000000E+00   0.00000000E+00   0.00000000E+00   0.00000000E+00   7.16334166E-06   9.87235075E+02   4.90044748E-06  -1.18126988E-06   0.00000000E+00   0.00000000E+00   0.00000000E+00   1.51043828E+04
   8.57500000E+02   5.00000000E-01   5.00000000E-01  -4.35820941E+04   2.90248948E+03   0.00000000E+00   9.27431187E+03   1.37935313E+03   6.28026285E+03   7.19372706E+00   0.00000000E+00   0.00000000E+00   0.00000000E+00   0.00000000E+00   0.00000000E+00   7.16331580E-06   9.85188815E+02   5.45797711E-06  -1.18126988E-06   0.00000000E+00   0.00000000E+00   0.00000000E+00   1.51053201E+04
   8.92500000E+02   5.00000000E-01   5.00000000E-01  -4.35810996E+04   2.90248946E+03   0.00000000E+00   9.27153648E+03   1.37929288E+03   6.28350101E+03   7.19372706E+00   0.00000000E+00   0.00000000E+00   0.00000000E+00   0.00000000E+00   0.00000000E+00   7.16329206E-06   9.83389315E+02   6.16914414E-06  -1.18126988E-06   0.00000000E+00   0.00000000E+00   0.00000000E+00   1.51063470E+04
   9.27500000E+02   5.00000000E-01   5.00000000E-01  -4.35797667E+04   2.90248945E+03   0.00000000E+00   9.26851138E+03   1.37921034E+03   6.28671770E+03   7.19372705E+00   0.00000000E+00   0.00000000E+00   0.00000000E+00   0.00000000E+00   0.00000000E+00   7.16327033E-06   9.81838415E+02   7.08943662E-06  -1.18126988E-06   0.00000000E+00   0.00000000E+00   0.00000000E+00   1.51074891E+04
   9.62500000E+02   5.00000000E-01   5.00000000E-01  -4.35781045E+04   2.90248943E+03   0.00000000E+00   9.26521265E+03   1.37910709E+03   6.28993606E+03   7.19372703E+00   0.00000000E+00   0.00000000E+00   0.00000000E+00   0.00000000E+00   0.00000000E+00   7.16325047E-06   9.80543483E+02   8.29934480E-06  -1.18126988E-06   0.00000000E+00   0.00000000E+00   0.00000000E+00   1.51087748E+04
   9.97500000E+02   5.00000000E-01   5.00000000E-01  -4.35761140E+04   2.90248940E+03   0.00000000E+00   9.26161121E+03   1.37898463E+03   6.29317678E+03   7.19372702E+00   0.00000000E+00   0.00000000E+00   0.00000000E+00   0.00000000E+00   0.00000000E+00   7.16323237E-06   9.79519385E+02   9.91790215E-06  -1.18126988E-06   0.00000000E+00   0.00000000E+00   0.00000000E+00   1.51102366E+04
   1.03250000E+03   5.00000000E-01   5.00000000E-01  -4.35737787E+04   2.90248937E+03   0.00000000E+00   9.25767160E+03   1.37884447E+03   6.29645260E+03   7.19372700E+00   0.00000000E+00   0.00000000E+00   0.00000000E+00   0.00000000E+00   0.00000000E+00   7.16321588E-06   9.78792082E+02   1.21248334E-05  -1.18126988E-06   0.00000000E+00   0.00000000E+00   0.00000000E+00   1.51119109E+04
   1.06750000E+03   5.00000000E-01   5.00000000E-01  -4.35710440E+04   2.90248933E+03   0.00000000E+00   9.25333707E+03   1.37868801E+03   6.29976861E+03   7.19372697E+00   0.00000000E+00   0.00000000E+00   0.00000000E+00   0.00000000E+00   0.00000000E+00   7.16320086E-06   9.78407512E+02   1.51976324E-05  -1.18126988E-06   0.00000000E+00   0.00000000E+00   0.00000000E+00   1.51138480E+04
   1.10250000E+03   5.00000000E-01   5.00000000E-01  -4.35677812E+04   2.90248927E+03   0.00000000E+00   9.24850907E+03   1.37851642E+03   6.30311642E+03   7.19372694E+00   0.00000000E+00   0.00000000E+00   0.00000000E+00   0.00000000E+00   0.00000000E+00   7.16318714E-06   9.78448453E+02   1.95751872E-05  -1.18126988E-06   0.00000000E+00   0.00000000E+00   0.00000000E+00   1.51161240E+04
   1.13750000E+03   5.00000000E-01   5.00000000E-01  -4.35787816E+04   2.90248899E+03   0.00000000E+00   9.29599450E+03   1.37594060E+03   6.25687680E+03   7.19372691E+00   0.00000000E+00   0.00000000E+00   0.00000000E+00   0.00000000E+00   0.00000000E+00   7.16317396E-06   9.92109742E+02   2.59385159E-05  -1.18126988E-06   0.00000000E+00   0.00000000E+00   0.00000000E+00   1.56236906E+04
   1.17250000E+03   5.00000000E-01   5.00000000E-01  -4.35528388E+04   2.90248915E+03   0.00000000E+00   9.27121736E+03   1.37594155E+03   6.28069858E+03   7.19372686E+00   0.00000000E+00   0.00000000E+00   0.00000000E+00   0.00000000E+00   0.00000000E+00   7.16316550E-06   9.68075289E+02   3.54968316E-05  -1.18126988E-06   0.00000000E+00   0.00000000E+00   0.00000000E+00   1.50769842E+04
   1.20750000E+03   5.00000000E-01   5.00000000E-01  -4.35468400E+04   2.90248881E+03   0.00000000E+00   9.24539032E+03   1.37595754E+03   6.30047410E+03   7.19372682E+00   0.00000000E+00   0.00000000E+00   0.00000000E+00   0.00000000E+00   0.00000000E+00   7.16315542E-06   9.74148573E+02   5.03012208E-05  -1.18126988E-06   0.00000000E+00   0.00000000E+00   0.00000000E+00   1.50991306E+04
   1.24250000E+03   5.00000000E-01   5.00000000E-01  -4.35306307E+04   2.90248802E+03   0.00000000E+00   9.22282725E+03   1.37602063E+03   6.31011480E+03   7.19372678E+00   0.00000000E+00   0.00000000E+00   0.00000000E+00   0.00000000E+00   0.00000000E+00   7.16314386E-06   9.83660253E+02   7.39672615E-05  -1.18126988E-06   0.00000000E+00   0.00000000E+00   0.00000000E+00   1.51168658E+04
   1.27750000E+03   5.00000000E-01   5.00000000E-01  -4.34994644E+04   2.90248326E+03   0.00000000E+00   9.19702003E+03   1.37669918E+03   6.30727171E+03   7.19372674E+00   0.00000000E+00   0.00000000E+00   0.00000000E+00   0.00000000E+00   0.00000000E+00   7.16313036E-06   1.00845181E+03   1.13074036E-04  -1.18126988E-06   0.00000000E+00   0.00000000E+00   0.00000000E+00   1.51367252E+04
   1.31250000E+03   5.00000000E-01   5.00000000E-01  -4.34827342E+04   2.90244995E+03   0.00000000E+00   9.16878913E+03   1.38598084E+03   6.30264161E+03   7.19372670E+00   0.00000000E+00   0.00000000E+00   0.00000000E+00   0.00000000E+00   0.00000000E+00   7.16311781E-06   1.03898036E+03   1.79765345E-04  -1.18126988E-06   0.00000000E+00   0.00000000E+00   0.00000000E+00   1.51391461E+04
   1.34750000E+03   5.00000000E-01   5.00000000E-01  -4.34796932E+04   2.90241928E+03   0.00000000E+00   9.14472878E+03   1.40696425E+03   6.30340636E+03   7.19372665E+00   0.00000000E+00   0.00000000E+00   0.00000000E+00   0.00000000E+00   0.00000000E+00   7.16310853E-06   1.04065597E+03   2.96784426E-04  -1.18126988E-06   0.00000000E+00   0.00000000E+00   0.00000000E+00   1.51332659E+04
   1.38250000E+03   5.00000000E-01   5.00000000E-01  -4.34822954E+04   2.90240699E+03   0.00000000E+00   9.12656128E+03   1.43087067E+03   6.30201949E+03   7.19372660E+00   0.00000000E+00   0.00000000E+00   0.00000000E+00   0.00000000E+00   0.00000000E+00   7.16310134E-06   1.03459141E+03   5.09699456E-04  -1.18126988E-06   0.00000000E+00   0.00000000E+00   0.00000000E+00   1.51416868E+04
   1.41750000E+03   5.00000000E-01   5.00000000E-01  -4.34837768E+04   2.90240248E+03   0.00000000E+00   9.11082580E+03   1.45266298E+03   6.29956317E+03   7.19372655E+00   0.00000000E+00   0.00000000E+00   0.00000000E+00   0.00000000E+00   0.00000000E+00   7.16309552E-06   1.02888613E+03   9.13260029E-04  -1.18126988E-06   0.00000000E+00   0.00000000E+00   0.00000000E+00   1.51465481E+04
   1.45250000E+03   5.00000000E-01   5.00000000E-01  -4.34845951E+04   2.90240090E+03   0.00000000E+00   9.09582590E+03   1.47316630E+03   6.29704176E+03   7.19372651E+00   0.00000000E+00   0.00000000E+00   0.00000000E+00   0.00000000E+00   0.00000000E+00   7.16309073E-06   1.02374678E+03   1.71174925E-03  -1.18126988E-06   0.00000000E+00   0.00000000E+00   0.00000000E+00   1.51500835E+04
   1.48750000E+03   5.00000000E-01   5.00000000E-01  -4.34854202E+04   2.90240001E+03   0.00000000E+00   9.08109276E+03   1.49302521E+03   6.29487908E+03   7.19372649E+00   0.00000000E+00   0.00000000E+00   0.00000000E+00   0.00000000E+00   0.00000000E+00   7.16308679E-06   1.01865161E+03   3.36511815E-03  -1.18126988E-06   0.00000000E+00   0.00000000E+00   0.00000000E+00   1.51517939E+04
   1.52250000E+03   5.00000000E-01   5.00000000E-01  -4.34866175E+04   2.90239960E+03   0.00000000E+00   9.06654392E+03   1.51252718E+03   6.29318895E+03   7.19372648E+00   0.00000000E+00   0.00000000E+00   0.00000000E+00   0.00000000E+00   0.00000000E+00   7.16308355E-06   1.01333135E+03   6.95738088E-03  -1.18126988E-06   0.00000000E+00   0.00000000E+00   0.00000000E+00   1.51514142E+04
   1.55750000E+03   5.00000000E-01   5.00000000E-01  -4.34879456E+04   2.90239978E+03   0.00000000E+00   9.05204596E+03   1.53168122E+03   6.29191702E+03   7.19372649E+00   0.00000000E+00   0.00000000E+00   0.00000000E+00   0.00000000E+00   0.00000000E+00   7.16308085E-06   1.00790707E+03   1.51703164E-02  -1.18126988E-06   0.00000000E+00   0.00000000E+00   0.00000000E+00   1.51488751E+04
   1.59250000E+03   5.00000000E-01   5.00000000E-01  -4.34894332E+04   2.90240032E+03   0.00000000E+00   9.03772767E+03   1.55050585E+03   6.29079157E+03   7.19372652E+00   0.00000000E+00   0.00000000E+00   0.00000000E+00   0.00000000E+00   0.00000000E+00   7.16307860E-06   1.00267082E+03   3.49848702E-02  -1.18126988E-06   0.00000000E+00   0.00000000E+00   0.00000000E+00   1.51455355E+04
   1.62750000E+03   5.00000000E-01   5.00000000E-01  -4.34911363E+04   2.90240112E+03   0.00000000E+00   9.02419782E+03   1.56911330E+03   6.28898796E+03   7.19372655E+00   0.00000000E+00   0.00000000E+00   0.00000000E+00   0.00000000E+00   0.00000000E+00   7.16307672E-06   9.97924764E+02   8.55628095E-02  -1.18126988E-06   0.00000000E+00   0.00000000E+00   0.00000000E+00   1.51449468E+04
   1.66250000E+03   5.00000000E-01   5.00000000E-01  -4.34923062E+04   2.90240200E+03   0.00000000E+00   9.01179884E+03   1.58761929E+03   6.28571843E+03   7.19372660E+00   0.00000000E+00   0.00000000E+00   0.00000000E+00   0.00000000E+00   0.00000000E+00   7.16307515E-06   9.93690820E+02   2.22477030E-01  -1.18126988E-06   0.00000000E+00   0.00000000E+00   0.00000000E+00   1.51511896E+04
   1.69750000E+03   5.00000000E-01   5.00000000E-01  -4.34916473E+04   2.90240210E+03   0.00000000E+00   9.00043373E+03   1.60654857E+03   6.28036015E+03   7.19372665E+00   0.00000000E+00   0.00000000E+00   0.00000000E+00   0.00000000E+00   0.00000000E+00   7.16307383E-06   9.89406997E+02   6.16008987E-01  -1.18126988E-06   0.00000000E+00   0.00000000E+00   0.00000000E+00   1.51634889E+04
   1.73250000E+03   5.00000000E-01   5.00000000E-01  -4.34882344E+04   2.90240225E+03   0.00000000E+00   8.99011711E+03   1.62664548E+03   6.27411465E+03   7.19372670E+00   0.00000000E+00   0.00000000E+00   0.00000000E+00   0.00000000E+00   0.00000000E+00   7.16307267E-06   9.81323505E+02   1.81574802E+00  -1.18126988E-06   0.00000000E+00   0.00000000E+00   0.00000000E+00   1.51674996E+04
   1.76750000E+03   5.00000000E-01   5.00000000E-01  -4.34899393E+04   2.90240088E+03   0.00000000E+00   8.98184271E+03   1.65151300E+03   6.26860145E+03   7.19372675E+00   0.00000000E+00   0.00000000E+00   0.00000000E+00   0.00000000E+00   0.00000000E+00   7.16307172E-06   9.68560810E+02   5.65982121E+00  -1.18126988E-06   0.00000000E+00   0.00000000E+00   0.00000000E+00   1.51655337E+04
   1.80250000E+03   5.00000000E-01   5.00000000E-01  -4.34959656E+04   2.90239966E+03   0.00000000E+00   8.97614919E+03   1.68587827E+03   6.26386618E+03   7.19372679E+00   0.00000000E+00   0.00000000E+00   0.00000000E+00   0.00000000E+00   0.00000000E+00   7.16307098E-06   9.51825952E+02   1.82138985E+01  -1.18126988E-06   0.00000000E+00   0.00000000E+00   0.00000000E+00   1.51571109E+04
   1.83750000E+03   5.00000000E-01   5.00000000E-01  -4.35077882E+04   2.90239926E+03   0.00000000E+00   8.97310677E+03   1.74394579E+03   6.26056126E+03   7.19372683E+00   0.00000000E+00   0.00000000E+00   0.00000000E+00   0.00000000E+00   0.00000000E+00   7.16307051E-06   9.36057311E+02   5.61378459E+01  -1.18126988E-06   0.00000000E+00   0.00000000E+00   0.00000000E+00   1.51504693E+04
   1.87250000E+03   5.00000000E-01   5.00000000E-01  -4.35243402E+04   2.90239830E+03   0.00000000E+00   8.97202482E+03   1.84657907E+03   6.25989480E+03   7.19372686E+00   0.00000000E+00   0.00000000E+00   0.00000000E+00   0.00000000E+00   0.00000000E+00   7.16307027E-06   9.22554704E+02   1.41993992E+02  -1.18126988E-06   0.00000000E+00   0.00000000E+00   0.00000000E+00   1.51457717E+04
   1.90750000E+03   5.00000000E-01   5.00000000E-01  -4.35339473E+04   2.90239752E+03   0.00000000E+00   8.97143965E+03   1.97513719E+03   6.25981974E+03   7.19372688E+00   0.00000000E+00   0.00000000E+00   0.00000000E+00   0.00000000E+00   0.00000000E+00   7.16307011E-06   9.12742286E+02   2.60180918E+02  -1.18126988E-06   0.00000000E+00   0.00000000E+00   0.00000000E+00   1.51384379E+04
   1.94250000E+03   5.00000000E-01   5.00000000E-01  -4.35395497E+04   2.90239397E+03   0.00000000E+00   8.97094589E+03   2.07754146E+03   6.25982192E+03   7.19372690E+00   0.00000000E+00   0.00000000E+00   0.00000000E+00   0.00000000E+00   0.00000000E+00   7.16306998E-06   9.06245068E+02   3.56038495E+02  -1.18126988E-06   0.00000000E+00   0.00000000E+00   0.00000000E+00   1.51327817E+04
   1.97750000E+03   5.00000000E-01   5.00000000E-01  -4.35437776E+04   2.90238778E+03   0.00000000E+00   8.97049560E+03   2.13091878E+03   6.25987098E+03   7.19372692E+00   0.00000000E+00   0.00000000E+00   0.00000000E+00   0.00000000E+00   0.00000000E+00   7.16306988E-06   9.01728688E+02   4.04633171E+02  -1.18126988E-06   0.00000000E+00   0.00000000E+00   0.00000000E+00   1.51293392E+04
   2.01250000E+03   5.00000000E-01   5.00000000E-01  -4.35472764E+04   2.90238043E+03   0.00000000E+00   8.97006452E+03   2.14632038E+03   6.25994749E+03   7.19372693E+00   0.00000000E+00   0.00000000E+00   0.00000000E+00   0.00000000E+00   0.00000000E+00   7.16306979E-06   8.98378371E+02   4.16244608E+02  -1.18126988E-06   0.00000000E+00   0.00000000E+00   0.00000000E+00   1.51273039E+04
   2.04750000E+03   5.00000000E-01   5.00000000E-01  -4.35502557E+04   2.90237271E+03   0.00000000E+00   8.96963716E+03   2.14064536E+03   6.26003847E+03   7.19372694E+00   0.00000000E+00   0.00000000E+00   0.00000000E+00   0.00000000E+00   0.00000000E+00   7.16306971E-06   8.95776487E+02   4.07431046E+02  -1.18126988E-06   0.00000000E+00   0.00000000E+00   0.00000000E+00   1.51261309E+04
   2.08250000E+03   5.00000000E-01   5.00000000E-01  -4.35528355E+04   2.90236489E+03   0.00000000E+00   8.96920369E+03   2.12524381E+03   6.26013887E+03   7.19372695E+00   0.00000000E+00   0.00000000E+00   0.00000000E+00   0.00000000E+00   0.00000000E+00   7.16306964E-06   8.93688903E+02   3.89351003E+02  -1.18126988E-06   0.00000000E+00   0.00000000E+00   0.00000000E+00   1.51255162E+04
   2.11750000E+03   5.00000000E-01   5.00000000E-01  -4.35550991E+04   2.90235700E+03   0.00000000E+00   8.96875620E+03   2.10608443E+03   6.26024939E+03   7.19372695E+00   0.00000000E+00   0.00000000E+00   0.00000000E+00   0.00000000E+00   0.00000000E+00   7.16306957E-06   8.91967858E+02   3.67850492E+02  -1.18126988E-06   0.00000000E+00   0.00000000E+00   0.00000000E+00   1.51252727E+04
   2.15250000E+03   5.00000000E-01   5.00000000E-01  -4.35571050E+04   2.90234896E+03   0.00000000E+00   8.96828715E+03   2.08595566E+03   6.26037505E+03   7.19372696E+00   0.00000000E+00   0.00000000E+00   0.00000000E+00   0.00000000E+00   0.00000000E+00   7.16306952E-06   8.90509148E+02   3.45633983E+02  -1.18126988E-06   0.00000000E+00   0.00000000E+00   0.00000000E+00   1.51252634E+04
   2.18750000E+03   5.00000000E-01   5.00000000E-01  -4.35588979E+04   2.90234069E+03   0.00000000E+00   8.96779117E+03   2.06608086E+03   6.26052195E+03   7.19372696E+00   0.00000000E+00   0.00000000E+00   0.00000000E+00   0.00000000E+00   0.00000000E+00   7.16306946E-06   8.89232427E+02   3.23862891E+02  -1.18126988E-06   0.00000000E+00   0.00000000E+00   0.00000000E+00   1.51253778E+04
   2.22250000E+03   5.00000000E-01   5.00000000E-01  -4.35605146E+04   2.90233211E+03   0.00000000E+00   8.96727027E+03   2.04698331E+03   6.26068936E+03   7.19372696E+00   0.00000000E+00   0.00000000E+00   0.00000000E+00   0.00000000E+00   0.00000000E+00   7.16306941E-06   8.88077883E+02   3.03013331E+02  -1.18126988E-06   0.00000000E+00   0.00000000E+00   0.00000000E+00   1.51255371E+04
   2.25750000E+03   5.00000000E-01   5.00000000E-01  -4.35619699E+04   2.90232318E+03   0.00000000E+00   8.96673591E+03   2.02882153E+03   6.26086422E+03   7.19372696E+00   0.00000000E+00   0.00000000E+00   0.00000000E+00   0.00000000E+00   0.00000000E+00   7.16306937E-06   8.87012943E+02   2.83218560E+02  -1.18126988E-06   0.00000000E+00   0.00000000E+00   0.00000000E+00   1.51256981E+04
   2.29250000E+03   5.00000000E-01   5.00000000E-01  -4.35632510E+04   2.90231391E+03   0.00000000E+00   8.96620155E+03   2.01158513E+03   6.26102900E+03   7.19372695E+00   0.00000000E+00   0.00000000E+00   0.00000000E+00   0.00000000E+00   0.00000000E+00   7.16306933E-06   8.86029437E+02   2.64466354E+02  -1.18126988E-06   0.00000000E+00   0.00000000E+00   0.00000000E+00   1.51258391E+04
   2.32750000E+03   5.00000000E-01   5.00000000E-01  -4.35643474E+04   2.90230425E+03   0.00000000E+00   8.96567437E+03   1.99529334E+03   6.26117340E+03   7.19372694E+00   0.00000000E+00   0.00000000E+00   0.00000000E+00   0.00000000E+00   0.00000000E+00   7.16306928E-06   8.85127917E+02   2.46778318E+02  -1.18126988E-06   0.00000000E+00   0.00000000E+00   0.00000000E+00   1.51259560E+04
   2.36250000E+03   5.00000000E-01   5.00000000E-01  -4.35652647E+04   2.90229414E+03   0.00000000E+00   8.96515553E+03   1.97998815E+03   6.26129417E+03   7.19372692E+00   0.00000000E+00   0.00000000E+00   0.00000000E+00   0.00000000E+00   0.00000000E+00   7.16306925E-06   8.84307195E+02   2.30190909E+02  -1.18126988E-06   0.00000000E+00   0.00000000E+00   0.00000000E+00   1.51260567E+04
   2.39750000E+03   5.00000000E-01   5.00000000E-01  -4.35660153E+04   2.90228347E+03   0.00000000E+00   8.96464378E+03   1.96557025E+03   6.26138927E+03   7.19372689E+00   0.00000000E+00   0.00000000E+00   0.00000000E+00   0.00000000E+00   0.00000000E+00   7.16306921E-06   8.83562242E+02   2.14592549E+02  -1.18126988E-06   0.00000000E+00   0.00000000E+00   0.00000000E+00   1.51261521E+04
   2.43250000E+03   5.00000000E-01   5.00000000E-01  -4.35666132E+04   2.90227208E+03   0.00000000E+00   8.96413761E+03   1.95185382E+03   6.26145549E+03   7.19372686E+00   0.00000000E+00   0.00000000E+00   0.00000000E+00   0.00000000E+00   0.00000000E+00   7.16306917E-06   8.82884371E+02   1.99781211E+02  -1.18126988E-06   0.00000000E+00   0.00000000E+00   0.00000000E+00   1.51262498E+04
   2.46750000E+03   5.00000000E-01   5.00000000E-01  -4.35670737E+04   2.90225973E+03   0.00000000E+00   8.96363564E+03   1.93875149E+03   6.26148932E+03   7.19372682E+00   0.00000000E+00   0.00000000E+00   0.00000000E+00   0.00000000E+00   0.00000000E+00   7.16306914E-06   8.82262038E+02   1.85650798E+02  -1.18126988E-06   0.00000000E+00   0.00000000E+00   0.00000000E+00   1.51263542E+04
   2.50250000E+03   5.00000000E-01   5.00000000E-01  -4.35674166E+04   2.90224618E+03   0.00000000E+00   8.96313640E+03   1.92624583E+03   6.26148770E+03   7.19372676E+00   0.00000000E+00   0.00000000E+00   0.00000000E+00   0.00000000E+00   0.00000000E+00   7.16306910E-06   8.81682078E+02   1.72162535E+02  -1.18126988E-06   0.00000000E+00   0.00000000E+00   0.00000000E+00   1.51264707E+04
   2.53750000E+03   5.00000000E-01   5.00000000E-01  -4.35676664E+04   2.90223118E+03   0.00000000E+00   8.96263824E+03   1.91433759E+03   6.26144963E+03   7.19372667E+00   0.00000000E+00   0.00000000E+00   0.00000000E+00   0.00000000E+00   0.00000000E+00   7.16306907E-06   8.81131153E+02   1.59295172E+02  -1.18126988E-06   0.00000000E+00   0.00000000E+00   0.00000000E+00   1.51266068E+04
   2.57250000E+03   5.00000000E-01   5.00000000E-01  -4.35678384E+04   2.90221453E+03   0.00000000E+00   8.96214025E+03   1.90307791E+03   6.26138088E+03   7.19372657E+00   0.00000000E+00   0.00000000E+00   0.00000000E+00   0.00000000E+00   0.00000000E+00   7.16306904E-06   8.80598326E+02   1.47091366E+02  -1.18126988E-06   0.00000000E+00   0.00000000E+00   0.00000000E+00   1.51267498E+04
   2.60750000E+03   5.00000000E-01   5.00000000E-01  -4.35679297E+04   2.90219606E+03   0.00000000E+00   8.96164199E+03   1.89251372E+03   6.26129394E+03   7.19372642E+00   0.00000000E+00   0.00000000E+00   0.00000000E+00   0.00000000E+00   0.00000000E+00   7.16306901E-06   8.80076789E+02   1.35607846E+02  -1.18126988E-06   0.00000000E+00   0.00000000E+00   0.00000000E+00   1.51268613E+04