 TITLE = "Total Component Concentration in Minerals" 
VARIABLES = "X"          "Y"              "Z"            "H+"             "Al+++"          "CO2(aq)"        "Mg++"           "Ca++"           "Fe++"           "Fe+++"          "Ba++"           "Sr++"           "Cl-"            "K+"             "Na+"            "SO4--"          "O2(aq)"         "B(OH)3(aq)"     "HPO4--"         "NO3-"           "H4SiO4(aq)"    
 ZONE I=          10 , J=           1 , K=           1  F=POINT
   1.75000000E+02   5.00000000E-01   5.00000000E-01  -5.21738596E+04   2.06327568E+03   0.00000000E+00   1.95047937E+04   4.85163269E+03   2.20754664E+03   7.19371069E-06   0.00000000E+00   0.00000000E+00   0.00000000E+00   0.00000000E+00   1.54704545E+03   4.34547955E+03   0.00000000E+00   0.00000000E+00   0.00000000E+00   0.00000000E+00   1.91184046E+04
   5.25000000E+02   5.00000000E-01   5.00000000E-01  -5.21738878E+04   2.06327568E+03   0.00000000E+00   1.95048337E+04   4.85250836E+03   2.20754516E+03   7.19336667E-06   0.00000000E+00   0.00000000E+00   0.00000000E+00   0.00000000E+00   1.54699672E+03   4.34635522E+03   0.00000000E+00   0.00000000E+00   0.00000000E+00   0.00000000E+00   1.91182486E+04
   8.75000000E+02   5.00000000E-01   5.00000000E-01  -5.21739487E+04   2.06327568E+03   0.00000000E+00   1.95048912E+04   4.85313041E+03   2.20754170E+03   7.19268127E-06   0.00000000E+00   0.00000000E+00   0.00000000E+00   0.00000000E+00   1.54694954E+03   4.34697726E+03   0.00000000E+00   0.00000000E+00   0.00000000E+00   0.00000000E+00   1.91181149E+04
   1.22500000E+03   5.00000000E-01   5.00000000E-01  -5.21740393E+04   2.06327568E+03   0.00000000E+00   1.95049644E+04   4.85359155E+03   2.20753587E+03   7.19163604E-06   0.00000000E+00   0.00000000E+00   0.00000000E+00   0.00000000E+00   1.54690551E+03   4.34743841E+03   0.00000000E+00   0.00000000E+00   0.00000000E+00   0.00000000E+00   1.91180058E+04
   1.57500000E+03   5.00000000E-01   5.00000000E-01  -5.21741212E+04   2.06327568E+03   0.00000000E+00   1.95050329E+04   4.85392141E+03   2.20752549E+03   7.18998869E-06   0.00000000E+00   0.00000000E+00   0.00000000E+00   0.00000000E+00   1.54687100E+03   4.34776827E+03   0.00000000E+00   0.00000000E+00   0.00000000E+00   0.00000000E+00   1.91179246E+04
   1.92500000E+03   5.00000000E-01   5.00000000E-01  -5.21741678E+04   2.06327568E+03   0.00000000E+00   1.95050863E+04   4.85415333E+03   2.20750613E+03   7.18743515E-06   0.00000000E+00   0.00000000E+00   0.00000000E+00   0.00000000E+00   1.54684952E+03   4.34800019E+03   0.00000000E+00   0.00000000E+00   0.00000000E+00   0.00000000E+00   1.91178716E+04
   2.27500000E+03   5.00000000E-01   5.00000000E-01  -5.21741868E+04   2.06327568E+03   0.00000000E+00   1.95051399E+04   4.85431282E+03   2.20747029E+03   7.18360406E-06   0.00000000E+00   0.00000000E+00   0.00000000E+00   0.00000000E+00   1.54683300E+03   4.34815967E+03   0.00000000E+00   0.00000000E+00   0.00000000E+00   0.00000000E+00   1.91178282E+04
   2.62500000E+03   5.00000000E-01   5.00000000E-01  -5.21741937E+04   2.06327568E+03   0.00000000E+00   1.95052171E+04   4.85441823E+03   2.20740841E+03   7.17889527E-06   0.00000000E+00   0.00000000E+00   0.00000000E+00   0.00000000E+00   1.54680922E+03   4.34826509E+03   0.00000000E+00   0.00000000E+00   0.00000000E+00   0.00000000E+00   1.91177675E+04
   2.97500000E+03   5.00000000E-01   5.00000000E-01  -5.21741982E+04   2.06327568E+03   0.00000000E+00   1.95053314E+04   4.85448278E+03   2.20731560E+03   7.17517250E-06   0.00000000E+00   0.00000000E+00   0.00000000E+00   0.00000000E+00   1.54677090E+03   4.34832964E+03   0.00000000E+00   0.00000000E+00   0.00000000E+00   0.00000000E+00   1.91176735E+04
   3.32500000E+03   5.00000000E-01   5.00000000E-01  -5.21742041E+04   2.06327568E+03   0.00000000E+00   1.95054682E+04   4.85451595E+03   2.20720469E+03   7.17634482E-06   0.00000000E+00   0.00000000E+00   0.00000000E+00   0.00000000E+00   1.54672492E+03   4.34836281E+03   0.00000000E+00   0.00000000E+00   0.00000000E+00   0.00000000E+00   1.91175642E+04
