 TITLE = "Total Component Concentration in Minerals" 
VARIABLES = "X"          "Y"              "Z"            "H+"             "Al+++"          "CO2(aq)"        "Mg++"           "Ca++"           "Fe++"           "Fe+++"          "Ba++"           "Sr++"           "Li+"            "Rb+"            "Mn++"           "Zn++"           "Cu++"           "Cu+"            "Cl-"            "F-"             "K+"             "HS-"            "Na+"            "SO4--"          "O2(aq)"         "B(OH)3(aq)"     "HPO4--"         "NO3-"           "H4SiO4(aq)"     "Ti(OH)4(aq)"   
 ZONE I=         200 , J=           1 , K=           1  F=POINT
   8.75000000E+00   5.00000000E-01   5.00000000E-01  -4.46109569E+04   3.03736213E+03   0.00000000E+00   9.16624789E+03   1.70686301E+03   6.21733399E+03   7.34541571E+01   1.98377217E+00   2.16216044E+00   0.00000000E+00   0.00000000E+00   2.04223456E+01   6.94849488E+01   2.44618223E+00   7.03745945E+00   0.00000000E+00   8.14927456E+00   5.75279838E-06   3.51874070E+00   9.22434192E+02   6.59211677E+00  -1.92971309E-06   0.00000000E+00   0.00000000E+00   0.00000000E+00   1.51080596E+04   7.11043926E+00
   2.62500000E+01   5.00000000E-01   5.00000000E-01  -4.46346649E+04   3.03733253E+03   0.00000000E+00   9.17616120E+03   1.70708290E+03   6.21754292E+03   7.34541570E+01   1.94354113E+00   2.16216044E+00   0.00000000E+00   0.00000000E+00   2.04223456E+01   6.94849514E+01   2.44618223E+00   7.03729945E+00   0.00000000E+00   8.14927427E+00   1.10502901E-05   3.51866070E+00   9.25546810E+02   6.55188573E+00  -1.92971309E-06   0.00000000E+00   0.00000000E+00   0.00000000E+00   1.51290523E+04   7.11043960E+00
   4.37500000E+01   5.00000000E-01   5.00000000E-01  -4.46276755E+04   3.03733253E+03   0.00000000E+00   9.17056060E+03   1.70723733E+03   6.21775160E+03   7.34541570E+01   1.92757090E+00   2.16216044E+00   0.00000000E+00   0.00000000E+00   2.04223456E+01   6.94849515E+01   2.44618223E+00   7.03729945E+00   0.00000000E+00   8.14927400E+00   1.38652690E-05   3.51866070E+00   9.29032463E+02   6.53591550E+00  -1.92971309E-06   0.00000000E+00   0.00000000E+00   0.00000000E+00   1.51374408E+04   7.11044010E+00
   6.12500000E+01   5.00000000E-01   5.00000000E-01  -4.46215804E+04   3.03733253E+03   0.00000000E+00   9.16444318E+03   1.70736482E+03   6.21796941E+03   7.34541570E+01   1.92079813E+00   2.16216044E+00   0.00000000E+00   0.00000000E+00   2.04223456E+01   6.94849541E+01   2.44618223E+00   7.03729945E+00   0.00000000E+00   8.14927376E+00   1.58106344E-05   3.51866070E+00   9.34481522E+02   6.52914273E+00  -1.92971309E-06   0.00000000E+00   0.00000000E+00   0.00000000E+00   1.51526547E+04   7.11044071E+00
   7.87500000E+01   5.00000000E-01   5.00000000E-01  -4.46183831E+04   3.03733253E+03   0.00000000E+00   9.15924290E+03   1.70752882E+03   6.21821146E+03   7.34541570E+01   1.91772539E+00   2.16216044E+00   0.00000000E+00   0.00000000E+00   2.04223456E+01   6.94849589E+01   2.44618223E+00   7.03729945E+00   0.00000000E+00   8.14927353E+00   1.79193854E-05   3.51866070E+00   9.40872737E+02   6.52606999E+00  -1.92971309E-06   0.00000000E+00   0.00000000E+00   0.00000000E+00   1.51722819E+04   7.11044136E+00
   9.62500000E+01   5.00000000E-01   5.00000000E-01  -4.46166897E+04   3.03733253E+03   0.00000000E+00   9.15480760E+03   1.70773859E+03   6.21848223E+03   7.34541570E+01   1.91621417E+00   2.16216044E+00   0.00000000E+00   0.00000000E+00   2.04223456E+01   6.94849651E+01   2.44618223E+00   7.03729944E+00   0.00000000E+00   8.14927333E+00   2.01043323E-05   3.51866070E+00   9.47088756E+02   6.52455877E+00  -1.92971309E-06   0.00000000E+00   0.00000000E+00   0.00000000E+00   1.51920335E+04   7.11044198E+00
   1.13750000E+02   5.00000000E-01   5.00000000E-01  -4.46156768E+04   3.03733253E+03   0.00000000E+00   9.15112232E+03   1.70798046E+03   6.21878013E+03   7.34541570E+01   1.91539026E+00   2.16216044E+00   0.00000000E+00   0.00000000E+00   2.04223456E+01   6.94849725E+01   2.44618223E+00   7.03729944E+00   0.00000000E+00   8.14927314E+00   2.20226081E-05   3.51866070E+00   9.52366928E+02   6.52373486E+00  -1.92971309E-06   0.00000000E+00   0.00000000E+00   0.00000000E+00   1.52090242E+04   7.11044255E+00
   1.31250000E+02   5.00000000E-01   5.00000000E-01  -4.46151372E+04   3.03733253E+03   0.00000000E+00   9.14824142E+03   1.70823726E+03   6.21910204E+03   7.34541570E+01   1.91488082E+00   2.16216044E+00   0.00000000E+00   0.00000000E+00   2.04223456E+01   6.94849807E+01   2.44618223E+00   7.03729944E+00   0.00000000E+00   8.14927296E+00   2.34211241E-05   3.51866070E+00   9.56431676E+02   6.52322542E+00  -1.92971309E-06   0.00000000E+00   0.00000000E+00   0.00000000E+00   1.52222417E+04   7.11044306E+00
   1.48750000E+02   5.00000000E-01   5.00000000E-01  -4.46150055E+04   3.03733253E+03   0.00000000E+00   9.14611707E+03   1.70849586E+03   6.21944511E+03   7.34541570E+01   1.91452066E+00   2.16216044E+00   0.00000000E+00   0.00000000E+00   2.04223456E+01   6.94849896E+01   2.44618223E+00   7.03729944E+00   0.00000000E+00   8.14927280E+00   2.42066572E-05   3.51866070E+00   9.59345264E+02   6.52286526E+00  -1.92971309E-06   0.00000000E+00   0.00000000E+00   0.00000000E+00   1.52318510E+04   7.11044350E+00
   1.66250000E+02   5.00000000E-01   5.00000000E-01  -4.46152215E+04   3.03733253E+03   0.00000000E+00   9.14462687E+03   1.70874763E+03   6.21980705E+03   7.34541570E+01   1.91423401E+00   2.16216044E+00   0.00000000E+00   0.00000000E+00   2.04223456E+01   6.94849991E+01   2.44618223E+00   7.03729944E+00   0.00000000E+00   8.14927265E+00   2.44061822E-05   3.51866070E+00   9.61314205E+02   6.52257861E+00  -1.92971309E-06   0.00000000E+00   0.00000000E+00   0.00000000E+00   1.52384976E+04   7.11044386E+00
   1.83750000E+02   5.00000000E-01   5.00000000E-01  -4.46157236E+04   3.03733253E+03   0.00000000E+00   9.14363356E+03   1.70898704E+03   6.22018578E+03   7.34541570E+01   1.91398504E+00   2.16216044E+00   0.00000000E+00   0.00000000E+00   2.04223456E+01   6.94850092E+01   2.44618223E+00   7.03729944E+00   0.00000000E+00   8.14927251E+00   2.41094155E-05   3.51866070E+00   9.62566633E+02   6.52232964E+00  -1.92971309E-06   0.00000000E+00   0.00000000E+00   0.00000000E+00   1.52428995E+04   7.11044415E+00
   2.01250000E+02   5.00000000E-01   5.00000000E-01  -4.46164559E+04   3.03733253E+03   0.00000000E+00   9.14301674E+03   1.70921045E+03   6.22057931E+03   7.34541570E+01   1.91375630E+00   2.16216044E+00   0.00000000E+00   0.00000000E+00   2.04223456E+01   6.94850196E+01   2.44618223E+00   7.03729944E+00   0.00000000E+00   8.14927238E+00   2.34276614E-05   3.51866070E+00   9.63298784E+02   6.52210090E+00  -1.92971309E-06   0.00000000E+00   0.00000000E+00   0.00000000E+00   1.52456745E+04   7.11044437E+00
   2.18750000E+02   5.00000000E-01   5.00000000E-01  -4.46173723E+04   3.03733253E+03   0.00000000E+00   9.14268205E+03   1.70941553E+03   6.22098568E+03   7.34541570E+01   1.91353912E+00   2.16216044E+00   0.00000000E+00   0.00000000E+00   2.04223456E+01   6.94850304E+01   2.44618223E+00   7.03729944E+00   0.00000000E+00   8.14927226E+00   2.24705697E-05   3.51866069E+00   9.63661544E+02   6.52188372E+00  -1.92971309E-06   0.00000000E+00   0.00000000E+00   0.00000000E+00   1.52472965E+04   7.11044451E+00
   2.36250000E+02   5.00000000E-01   5.00000000E-01  -4.46184358E+04   3.03733253E+03   0.00000000E+00   9.14255958E+03   1.70960106E+03   6.22140304E+03   7.34541570E+01   1.91332911E+00   2.16216044E+00   0.00000000E+00   0.00000000E+00   2.04223456E+01   6.94850416E+01   2.44618223E+00   7.03729944E+00   0.00000000E+00   8.14927215E+00   2.13347599E-05   3.51866069E+00   9.63764252E+02   6.52167370E+00  -1.92971309E-06   0.00000000E+00   0.00000000E+00   0.00000000E+00   1.52481081E+04   7.11044457E+00
   2.53750000E+02   5.00000000E-01   5.00000000E-01  -4.46196182E+04   3.03733253E+03   0.00000000E+00   9.14259882E+03   1.70976669E+03   6.22182970E+03   7.34541570E+01   1.91312403E+00   2.16216044E+00   0.00000000E+00   0.00000000E+00   2.04223456E+01   6.94850530E+01   2.44618223E+00   7.03729944E+00   0.00000000E+00   8.14927204E+00   2.00994137E-05   3.51866069E+00   9.63683522E+02   6.52146863E+00  -1.92971309E-06   0.00000000E+00   0.00000000E+00   0.00000000E+00   1.52483488E+04   7.11044457E+00
   2.71250000E+02   5.00000000E-01   5.00000000E-01  -4.46208971E+04   3.03733253E+03   0.00000000E+00   9.14276344E+03   1.70991284E+03   6.22226414E+03   7.34541570E+01   1.91292277E+00   2.16216044E+00   0.00000000E+00   0.00000000E+00   2.04223456E+01   6.94850646E+01   2.44618223E+00   7.03729944E+00   0.00000000E+00   8.14927195E+00   1.88257867E-05   3.51866069E+00   9.63471977E+02   6.52126737E+00  -1.92971309E-06   0.00000000E+00   0.00000000E+00   0.00000000E+00   1.52481825E+04   7.11044449E+00
   2.88750000E+02   5.00000000E-01   5.00000000E-01  -4.46222550E+04   3.03733253E+03   0.00000000E+00   9.14302709E+03   1.71004054E+03   6.22270505E+03   7.34541570E+01   1.91272479E+00   2.16216044E+00   0.00000000E+00   0.00000000E+00   2.04223456E+01   6.94850766E+01   2.44618223E+00   7.03729944E+00   0.00000000E+00   8.14927186E+00   1.75587898E-05   3.51866069E+00   9.63165318E+02   6.52106939E+00  -1.92971309E-06   0.00000000E+00   0.00000000E+00   0.00000000E+00   1.52477203E+04   7.11044435E+00
   3.06250000E+02   5.00000000E-01   5.00000000E-01  -4.46236775E+04   3.03733253E+03   0.00000000E+00   9.14337022E+03   1.71015125E+03   6.22315133E+03   7.34541570E+01   1.91252985E+00   2.16216044E+00   0.00000000E+00   0.00000000E+00   2.04223456E+01   6.94850887E+01   2.44618223E+00   7.03729944E+00   0.00000000E+00   8.14927178E+00   1.63295059E-05   3.51866069E+00   9.62787581E+02   6.52087445E+00  -1.92971309E-06   0.00000000E+00   0.00000000E+00   0.00000000E+00   1.52470363E+04   7.11044415E+00
   3.23750000E+02   5.00000000E-01   5.00000000E-01  -4.46251527E+04   3.03733253E+03   0.00000000E+00   9.14377791E+03   1.71024670E+03   6.22360209E+03   7.34541570E+01   1.91233789E+00   2.16216044E+00   0.00000000E+00   0.00000000E+00   2.04223456E+01   6.94851011E+01   2.44618223E+00   7.03729944E+00   0.00000000E+00   8.14927170E+00   1.51579599E-05   3.51866069E+00   9.62354908E+02   6.52068249E+00  -1.92971309E-06   0.00000000E+00   0.00000000E+00   0.00000000E+00   1.52461801E+04   7.11044389E+00
   3.41250000E+02   5.00000000E-01   5.00000000E-01  -4.46266701E+04   3.03733253E+03   0.00000000E+00   9.14423841E+03   1.71032877E+03   6.22405661E+03   7.34541570E+01   1.91214893E+00   2.16216044E+00   0.00000000E+00   0.00000000E+00   2.04223456E+01   6.94851137E+01   2.44618223E+00   7.03729944E+00   0.00000000E+00   8.14927163E+00   1.40557549E-05   3.51866069E+00   9.61878205E+02   6.52049353E+00  -1.92971309E-06   0.00000000E+00   0.00000000E+00   0.00000000E+00   1.52451850E+04   7.11044357E+00
   3.58750000E+02   5.00000000E-01   5.00000000E-01  -4.46282210E+04   3.03733253E+03   0.00000000E+00   9.14474214E+03   1.71039933E+03   6.22451434E+03   7.34541570E+01   1.91196306E+00   2.16216044E+00   0.00000000E+00   0.00000000E+00   2.04223456E+01   6.94851265E+01   2.44618223E+00   7.03729944E+00   0.00000000E+00   8.14927156E+00   1.30283805E-05   3.51866069E+00   9.61365032E+02   6.52030766E+00  -1.92971309E-06   0.00000000E+00   0.00000000E+00   0.00000000E+00   1.52440735E+04   7.11044320E+00
   3.76250000E+02   5.00000000E-01   5.00000000E-01  -4.46297974E+04   3.03733253E+03   0.00000000E+00   9.14528107E+03   1.71046013E+03   6.22497484E+03   7.34541570E+01   1.91178036E+00   2.16216044E+00   0.00000000E+00   0.00000000E+00   2.04223456E+01   6.94851396E+01   2.44618223E+00   7.03729944E+00   0.00000000E+00   8.14927150E+00   1.20771113E-05   3.51866069E+00   9.60820920E+02   6.52012496E+00  -1.92971309E-06   0.00000000E+00   0.00000000E+00   0.00000000E+00   1.52428621E+04   7.11044278E+00
   3.93750000E+02   5.00000000E-01   5.00000000E-01  -4.46313925E+04   3.03733253E+03   0.00000000E+00   9.14584831E+03   1.71051279E+03   6.22543780E+03   7.34541570E+01   1.91160094E+00   2.16216044E+00   0.00000000E+00   0.00000000E+00   2.04223456E+01   6.94851529E+01   2.44618223E+00   7.03729944E+00   0.00000000E+00   8.14927145E+00   1.12004789E-05   3.51866069E+00   9.60250255E+02   6.51994554E+00  -1.92971309E-06   0.00000000E+00   0.00000000E+00   0.00000000E+00   1.52415637E+04   7.11044231E+00
   4.11250000E+02   5.00000000E-01   5.00000000E-01  -4.46329999E+04   3.03733253E+03   0.00000000E+00   9.14643767E+03   1.71055869E+03   6.22590297E+03   7.34541570E+01   1.91142493E+00   2.16216044E+00   0.00000000E+00   0.00000000E+00   2.04223456E+01   6.94851665E+01   2.44618223E+00   7.03729943E+00   0.00000000E+00   8.14927140E+00   1.03953394E-05   3.51866069E+00   9.59656806E+02   6.51976953E+00  -1.92971309E-06   0.00000000E+00   0.00000000E+00   0.00000000E+00   1.52401891E+04   7.11044181E+00
   4.28750000E+02   5.00000000E-01   5.00000000E-01  -4.46346136E+04   3.03733253E+03   0.00000000E+00   9.14704340E+03   1.71059904E+03   6.22637015E+03   7.34541570E+01   1.91125243E+00   2.16216044E+00   0.00000000E+00   0.00000000E+00   2.04223456E+01   6.94851803E+01   2.44618223E+00   7.03729943E+00   0.00000000E+00   8.14927135E+00   9.65759428E-06   3.51866069E+00   9.59043955E+02   6.51959703E+00  -1.92971309E-06   0.00000000E+00   0.00000000E+00   0.00000000E+00   1.52387479E+04   7.11044127E+00
   4.46250000E+02   5.00000000E-01   5.00000000E-01  -4.46362272E+04   3.03733253E+03   0.00000000E+00   9.14765995E+03   1.71063490E+03   6.22683913E+03   7.34541570E+01   1.91108354E+00   2.16216044E+00   0.00000000E+00   0.00000000E+00   2.04223456E+01   6.94851945E+01   2.44618223E+00   7.03729943E+00   0.00000000E+00   8.14927130E+00   8.98264560E-06   3.51866069E+00   9.58414759E+02   6.51942814E+00  -1.92971309E-06   0.00000000E+00   0.00000000E+00   0.00000000E+00   1.52372482E+04   7.11044070E+00
   4.63750000E+02   5.00000000E-01   5.00000000E-01  -4.46378338E+04   3.03733253E+03   0.00000000E+00   9.14828178E+03   1.71066719E+03   6.22730970E+03   7.34541570E+01   1.91091839E+00   2.16216044E+00   0.00000000E+00   0.00000000E+00   2.04223456E+01   6.94852089E+01   2.44618223E+00   7.03729943E+00   0.00000000E+00   8.14927126E+00   8.36567675E-06   3.51866069E+00   9.57771914E+02   6.51926299E+00  -1.92971309E-06   0.00000000E+00   0.00000000E+00   0.00000000E+00   1.52356968E+04   7.11044009E+00
   4.81250000E+02   5.00000000E-01   5.00000000E-01  -4.46394258E+04   3.03733253E+03   0.00000000E+00   9.14890340E+03   1.71069673E+03   6.22778159E+03   7.34541570E+01   1.91075706E+00   2.16216044E+00   0.00000000E+00   0.00000000E+00   2.04223456E+01   6.94852236E+01   2.44618223E+00   7.03729943E+00   0.00000000E+00   8.14927122E+00   7.80183755E-06   3.51866069E+00   9.57117755E+02   6.51910166E+00  -1.92971309E-06   0.00000000E+00   0.00000000E+00   0.00000000E+00   1.52340987E+04   7.11043946E+00
   4.98750000E+02   5.00000000E-01   5.00000000E-01  -4.46409952E+04   3.03733253E+03   0.00000000E+00   9.14951943E+03   1.71072423E+03   6.22825450E+03   7.34541570E+01   1.91059965E+00   2.16216044E+00   0.00000000E+00   0.00000000E+00   2.04223456E+01   6.94852387E+01   2.44618223E+00   7.03729943E+00   0.00000000E+00   8.14927119E+00   7.28638499E-06   3.51866069E+00   9.56454304E+02   6.51894425E+00  -1.92971309E-06   0.00000000E+00   0.00000000E+00   0.00000000E+00   1.52324579E+04   7.11043881E+00
   5.16250000E+02   5.00000000E-01   5.00000000E-01  -4.46425341E+04   3.03733253E+03   0.00000000E+00   9.15012471E+03   1.71075024E+03   6.22872809E+03   7.34541570E+01   1.91044626E+00   2.16216044E+00   0.00000000E+00   0.00000000E+00   2.04223456E+01   6.94852541E+01   2.44618223E+00   7.03729943E+00   0.00000000E+00   8.14927116E+00   6.81480155E-06   3.51866069E+00   9.55783392E+02   6.51879086E+00  -1.92971309E-06   0.00000000E+00   0.00000000E+00   0.00000000E+00   1.52307772E+04   7.11043814E+00
   5.33750000E+02   5.00000000E-01   5.00000000E-01  -4.46440346E+04   3.03733253E+03   0.00000000E+00   9.15071441E+03   1.71077517E+03   6.22920200E+03   7.34541570E+01   1.91029697E+00   2.16216044E+00   0.00000000E+00   0.00000000E+00   2.04223456E+01   6.94852698E+01   2.44618223E+00   7.03729943E+00   0.00000000E+00   8.14927113E+00   6.38289115E-06   3.51866069E+00   9.55106780E+02   6.51864157E+00  -1.92971309E-06   0.00000000E+00   0.00000000E+00   0.00000000E+00   1.52290596E+04   7.11043745E+00
   5.51250000E+02   5.00000000E-01   5.00000000E-01  -4.46454892E+04   3.03733253E+03   0.00000000E+00   9.15128406E+03   1.71079923E+03   6.22967583E+03   7.34541570E+01   1.91015186E+00   2.16216044E+00   0.00000000E+00   0.00000000E+00   2.04223456E+01   6.94852859E+01   2.44618223E+00   7.03729943E+00   0.00000000E+00   8.14927110E+00   5.98684217E-06   3.51866069E+00   9.54426257E+02   6.51849646E+00  -1.92971309E-06   0.00000000E+00   0.00000000E+00   0.00000000E+00   1.52273079E+04   7.11043675E+00
   5.68750000E+02   5.00000000E-01   5.00000000E-01  -4.46468906E+04   3.03733252E+03   0.00000000E+00   9.15182949E+03   1.71082247E+03   6.23014917E+03   7.34541570E+01   1.91001100E+00   2.16216044E+00   0.00000000E+00   0.00000000E+00   2.04223456E+01   6.94853024E+01   2.44618223E+00   7.03729943E+00   0.00000000E+00   8.14927108E+00   5.62324865E-06   3.51866069E+00   9.53743661E+02   6.51835560E+00  -1.92971309E-06   0.00000000E+00   0.00000000E+00   0.00000000E+00   1.52255251E+04   7.11043603E+00
   5.86250000E+02   5.00000000E-01   5.00000000E-01  -4.46482318E+04   3.03733252E+03   0.00000000E+00   9.15234672E+03   1.71084483E+03   6.23062159E+03   7.34541570E+01   1.90987448E+00   2.16216044E+00   0.00000000E+00   0.00000000E+00   2.04223456E+01   6.94853192E+01   2.44618223E+00   7.03729943E+00   0.00000000E+00   8.14927106E+00   5.28909012E-06   3.51866069E+00   9.53060813E+02   6.51821908E+00  -1.92971309E-06   0.00000000E+00   0.00000000E+00   0.00000000E+00   1.52237141E+04   7.11043530E+00
   6.03750000E+02   5.00000000E-01   5.00000000E-01  -4.46495055E+04   3.03733252E+03   0.00000000E+00   9.15283187E+03   1.71086619E+03   6.23109261E+03   7.34541570E+01   1.90974235E+00   2.16216044E+00   0.00000000E+00   0.00000000E+00   2.04223456E+01   6.94853365E+01   2.44618223E+00   7.03729943E+00   0.00000000E+00   8.14927104E+00   4.98168128E-06   3.51866069E+00   9.52379412E+02   6.51808696E+00  -1.92971309E-06   0.00000000E+00   0.00000000E+00   0.00000000E+00   1.52218774E+04   7.11043457E+00
   6.21250000E+02   5.00000000E-01   5.00000000E-01  -4.46507041E+04   3.03733252E+03   0.00000000E+00   9.15328108E+03   1.71088644E+03   6.23156168E+03   7.34541570E+01   1.90961469E+00   2.16216044E+00   0.00000000E+00   0.00000000E+00   2.04223456E+01   6.94853541E+01   2.44618223E+00   7.03729943E+00   0.00000000E+00   8.14927103E+00   4.69860971E-06   3.51866069E+00   9.51700922E+02   6.51795930E+00  -1.92971309E-06   0.00000000E+00   0.00000000E+00   0.00000000E+00   1.52200165E+04   7.11043383E+00
   6.38750000E+02   5.00000000E-01   5.00000000E-01  -4.46518199E+04   3.03733252E+03   0.00000000E+00   9.15369062E+03   1.71090549E+03   6.23202817E+03   7.34541570E+01   1.90949155E+00   2.16216044E+00   0.00000000E+00   0.00000000E+00   2.04223456E+01   6.94853721E+01   2.44618223E+00   7.03729943E+00   0.00000000E+00   8.14927101E+00   4.43767918E-06   3.51866069E+00   9.51026503E+02   6.51783616E+00  -1.92971309E-06   0.00000000E+00   0.00000000E+00   0.00000000E+00   1.52181319E+04   7.11043309E+00
   6.56250000E+02   5.00000000E-01   5.00000000E-01  -4.46528452E+04   3.03733252E+03   0.00000000E+00   9.15405697E+03   1.71092330E+03   6.23249138E+03   7.34541570E+01   1.90937299E+00   2.16216044E+00   0.00000000E+00   0.00000000E+00   2.04223456E+01   6.94853905E+01   2.44618223E+00   7.03729943E+00   0.00000000E+00   8.14927100E+00   4.19687009E-06   3.51866069E+00   9.50357008E+02   6.51771761E+00  -1.92971309E-06   0.00000000E+00   0.00000000E+00   0.00000000E+00   1.52162233E+04   7.11043234E+00
   6.73750000E+02   5.00000000E-01   5.00000000E-01  -4.46537726E+04   3.03733252E+03   0.00000000E+00   9.15437697E+03   1.71093982E+03   6.23295053E+03   7.34541570E+01   1.90925905E+00   2.16216044E+00   0.00000000E+00   0.00000000E+00   2.04223456E+01   6.94854094E+01   2.44618223E+00   7.03729943E+00   0.00000000E+00   8.14927099E+00   3.97432085E-06   3.51866069E+00   9.49693042E+02   6.51760368E+00  -1.92971309E-06   0.00000000E+00   0.00000000E+00   0.00000000E+00   1.52142895E+04   7.11043160E+00
   6.91250000E+02   5.00000000E-01   5.00000000E-01  -4.46545956E+04   3.03733252E+03   0.00000000E+00   9.15464799E+03   1.71095498E+03   6.23340480E+03   7.34541570E+01   1.90914979E+00   2.16216044E+00   0.00000000E+00   0.00000000E+00   2.04223456E+01   6.94854286E+01   2.44618223E+00   7.03729942E+00   0.00000000E+00   8.14927098E+00   3.76832689E-06   3.51866069E+00   9.49035059E+02   6.51749443E+00  -1.92971309E-06   0.00000000E+00   0.00000000E+00   0.00000000E+00   1.52123295E+04   7.11043086E+00
   7.08750000E+02   5.00000000E-01   5.00000000E-01  -4.46553084E+04   3.03733252E+03   0.00000000E+00   9.15486797E+03   1.71096860E+03   6.23385342E+03   7.34541570E+01   1.90904524E+00   2.16216045E+00   0.00000000E+00   0.00000000E+00   2.04223456E+01   6.94854483E+01   2.44618223E+00   7.03729942E+00   0.00000000E+00   8.14927097E+00   3.57734969E-06   3.51866069E+00   9.48383469E+02   6.51738989E+00  -1.92971309E-06   0.00000000E+00   0.00000000E+00   0.00000000E+00   1.52103422E+04   7.11043012E+00
   7.26250000E+02   5.00000000E-01   5.00000000E-01  -4.46559067E+04   3.03733252E+03   0.00000000E+00   9.15503541E+03   1.71098042E+03   6.23429564E+03   7.34541570E+01   1.90894544E+00   2.16216045E+00   0.00000000E+00   0.00000000E+00   2.04223456E+01   6.94854684E+01   2.44618223E+00   7.03729942E+00   0.00000000E+00   8.14927097E+00   3.40002621E-06   3.51866069E+00   9.47738700E+02   6.51729012E+00  -1.92971309E-06   0.00000000E+00   0.00000000E+00   0.00000000E+00   1.52083270E+04   7.11042939E+00
   7.43750000E+02   5.00000000E-01   5.00000000E-01  -4.46563866E+04   3.03733252E+03   0.00000000E+00   9.15514925E+03   1.71099004E+03   6.23473087E+03   7.34541570E+01   1.90885041E+00   2.16216045E+00   0.00000000E+00   0.00000000E+00   2.04223456E+01   6.94854890E+01   2.44618223E+00   7.03729942E+00   0.00000000E+00   8.14927097E+00   3.23517075E-06   3.51866069E+00   9.47101210E+02   6.51719514E+00  -1.92971309E-06   0.00000000E+00   0.00000000E+00   0.00000000E+00   1.52062837E+04   7.11042866E+00
   7.61250000E+02   5.00000000E-01   5.00000000E-01  -4.46567453E+04   3.03733252E+03   0.00000000E+00   9.15520873E+03   1.71099702E+03   6.23515862E+03   7.34541570E+01   1.90876020E+00   2.16216045E+00   0.00000000E+00   0.00000000E+00   2.04223456E+01   6.94855100E+01   2.44618223E+00   7.03729942E+00   0.00000000E+00   8.14927097E+00   3.08176460E-06   3.51866069E+00   9.46471438E+02   6.51710499E+00  -1.92971309E-06   0.00000000E+00   0.00000000E+00   0.00000000E+00   1.52042123E+04   7.11042794E+00
   7.78750000E+02   5.00000000E-01   5.00000000E-01  -4.46569805E+04   3.03733252E+03   0.00000000E+00   9.15521330E+03   1.71100091E+03   6.23557858E+03   7.34541570E+01   1.90867482E+00   2.16216045E+00   0.00000000E+00   0.00000000E+00   2.04223456E+01   6.94855314E+01   2.44618223E+00   7.03729942E+00   0.00000000E+00   8.14927097E+00   2.93893401E-06   3.51866069E+00   9.45849713E+02   6.51701972E+00  -1.92971309E-06   0.00000000E+00   0.00000000E+00   0.00000000E+00   1.52021124E+04   7.11042723E+00
   7.96250000E+02   5.00000000E-01   5.00000000E-01  -4.46570901E+04   3.03733252E+03   0.00000000E+00   9.15516249E+03   1.71100132E+03   6.23599056E+03   7.34541570E+01   1.90859428E+00   2.16216045E+00   0.00000000E+00   0.00000000E+00   2.04223456E+01   6.94855533E+01   2.44618223E+00   7.03729942E+00   0.00000000E+00   8.14927097E+00   2.80592083E-06   3.51866068E+00   9.45236174E+02   6.51693935E+00  -1.92971309E-06   0.00000000E+00   0.00000000E+00   0.00000000E+00   1.51999835E+04   7.11042652E+00
   8.13750000E+02   5.00000000E-01   5.00000000E-01  -4.46570730E+04   3.03733252E+03   0.00000000E+00   9.15505606E+03   1.71099797E+03   6.23639449E+03   7.34541570E+01   1.90851861E+00   2.16216045E+00   0.00000000E+00   0.00000000E+00   2.04223456E+01   6.94855758E+01   2.44618223E+00   7.03729942E+00   0.00000000E+00   8.14927097E+00   2.68205214E-06   3.51866068E+00   9.44630720E+02   6.51686395E+00  -1.92971309E-06   0.00000000E+00   0.00000000E+00   0.00000000E+00   1.51978244E+04   7.11042583E+00
   8.31250000E+02   5.00000000E-01   5.00000000E-01  -4.46569288E+04   3.03733252E+03   0.00000000E+00   9.15489414E+03   1.71099071E+03   6.23679040E+03   7.34541570E+01   1.90844780E+00   2.16216045E+00   0.00000000E+00   0.00000000E+00   2.04223456E+01   6.94855987E+01   2.44618223E+00   7.03729942E+00   0.00000000E+00   8.14927098E+00   2.56671402E-06   3.51866068E+00   9.44033032E+02   6.51679359E+00  -1.92971309E-06   0.00000000E+00   0.00000000E+00   0.00000000E+00   1.51956337E+04   7.11042515E+00
   8.48750000E+02   5.00000000E-01   5.00000000E-01  -4.46566586E+04   3.03733252E+03   0.00000000E+00   9.15467743E+03   1.71097953E+03   6.23717833E+03   7.34541570E+01   1.90838186E+00   2.16216045E+00   0.00000000E+00   0.00000000E+00   2.04223456E+01   6.94856221E+01   2.44618223E+00   7.03729942E+00   0.00000000E+00   8.14927098E+00   2.45933233E-06   3.51866068E+00   9.43442654E+02   6.51672838E+00  -1.92971309E-06   0.00000000E+00   0.00000000E+00   0.00000000E+00   1.51934105E+04   7.11042447E+00
   8.66250000E+02   5.00000000E-01   5.00000000E-01  -4.46562650E+04   3.03733252E+03   0.00000000E+00   9.15440739E+03   1.71096450E+03   6.23755836E+03   7.34541570E+01   1.90832079E+00   2.16216045E+00   0.00000000E+00   0.00000000E+00   2.04223456E+01   6.94856461E+01   2.44618223E+00   7.03729942E+00   0.00000000E+00   8.14927099E+00   2.35936076E-06   3.51866068E+00   9.42859111E+02   6.51666852E+00  -1.92971309E-06   0.00000000E+00   0.00000000E+00   0.00000000E+00   1.51911543E+04   7.11042382E+00
   8.83750000E+02   5.00000000E-01   5.00000000E-01  -4.46557528E+04   3.03733252E+03   0.00000000E+00   9.15408640E+03   1.71094580E+03   6.23793047E+03   7.34541570E+01   1.90826458E+00   2.16216045E+00   0.00000000E+00   0.00000000E+00   2.04223456E+01   6.94856707E+01   2.44618223E+00   7.03729942E+00   0.00000000E+00   8.14927100E+00   2.26627489E-06   3.51866068E+00   9.42282045E+02   6.51661433E+00  -1.92971309E-06   0.00000000E+00   0.00000000E+00   0.00000000E+00   1.51888664E+04   7.11042317E+00
   9.01250000E+02   5.00000000E-01   5.00000000E-01  -4.46551286E+04   3.03733252E+03   0.00000000E+00   9.15371773E+03   1.71092363E+03   6.23829453E+03   7.34541570E+01   1.90821321E+00   2.16216045E+00   0.00000000E+00   0.00000000E+00   2.04223456E+01   6.94856958E+01   2.44618223E+00   7.03729942E+00   0.00000000E+00   8.14927101E+00   2.17957029E-06   3.51866068E+00   9.41711331E+02   6.51656639E+00  -1.92971309E-06   0.00000000E+00   0.00000000E+00   0.00000000E+00   1.51865494E+04   7.11042254E+00
   9.18750000E+02   5.00000000E-01   5.00000000E-01  -4.46544004E+04   3.03733252E+03   0.00000000E+00   9.15330546E+03   1.71089821E+03   6.23865020E+03   7.34541570E+01   1.90816668E+00   2.16216045E+00   0.00000000E+00   0.00000000E+00   2.04223456E+01   6.94857216E+01   2.44618223E+00   7.03729942E+00   0.00000000E+00   8.14927103E+00   2.09876296E-06   3.51866068E+00   9.41147147E+02   6.51652570E+00  -1.92971309E-06   0.00000000E+00   0.00000000E+00   0.00000000E+00   1.51842078E+04   7.11042192E+00
   9.36250000E+02   5.00000000E-01   5.00000000E-01  -4.46535776E+04   3.03733252E+03   0.00000000E+00   9.15285434E+03   1.71086977E+03   6.23899691E+03   7.34541570E+01   1.90812496E+00   2.16216045E+00   0.00000000E+00   0.00000000E+00   2.04223456E+01   6.94857479E+01   2.44618223E+00   7.03729942E+00   0.00000000E+00   8.14927104E+00   2.02339109E-06   3.51866068E+00   9.40590009E+02   6.51649406E+00  -1.92971309E-06   0.00000000E+00   0.00000000E+00   0.00000000E+00   1.51818480E+04   7.11042131E+00
   9.53750000E+02   5.00000000E-01   5.00000000E-01  -4.46526701E+04   3.03733252E+03   0.00000000E+00   9.15236956E+03   1.71083853E+03   6.23933380E+03   7.34541570E+01   1.90808803E+00   2.16216045E+00   0.00000000E+00   0.00000000E+00   2.04223456E+01   6.94857749E+01   2.44618223E+00   7.03729941E+00   0.00000000E+00   8.14927106E+00   1.95301726E-06   3.51866068E+00   9.40040764E+02   6.51647470E+00  -1.92971309E-06   0.00000000E+00   0.00000000E+00   0.00000000E+00   1.51794776E+04   7.11042072E+00
   9.71250000E+02   5.00000000E-01   5.00000000E-01  -4.46516881E+04   3.03733252E+03   0.00000000E+00   9.15185659E+03   1.71080467E+03   6.23965975E+03   7.34541570E+01   1.90805588E+00   2.16216045E+00   0.00000000E+00   0.00000000E+00   2.04223456E+01   6.94858026E+01   2.44618223E+00   7.03729941E+00   0.00000000E+00   8.14927108E+00   1.88723087E-06   3.51866068E+00   9.39500539E+02   6.51647347E+00  -1.92971309E-06   0.00000000E+00   0.00000000E+00   0.00000000E+00   1.51771056E+04   7.11042015E+00
   9.88750000E+02   5.00000000E-01   5.00000000E-01  -4.46506415E+04   3.03733252E+03   0.00000000E+00   9.15132091E+03   1.71076839E+03   6.23997336E+03   7.34541570E+01   1.90802847E+00   2.16216046E+00   0.00000000E+00   0.00000000E+00   2.04223456E+01   6.94858309E+01   2.44618223E+00   7.03729941E+00   0.00000000E+00   8.14927109E+00   1.82565042E-06   3.51866068E+00   9.38970683E+02   6.51650111E+00  -1.92971309E-06   0.00000000E+00   0.00000000E+00   0.00000000E+00   1.51747415E+04   7.11041959E+00