 TITLE = "Total Component Concentration in Minerals" 
VARIABLES = "X"          "Y"              "Z"            "H+"             "Al+++"          "CO2(aq)"        "Mg++"           "Ca++"           "Fe++"           "Fe+++"          "Ba++"           "Sr++"           "Cl-"            "F-"             "K+"             "HS-"            "Na+"            "SO4--"          "O2(aq)"         "B(OH)3(aq)"     "HPO4--"         "NO3-"           "H4SiO4(aq)"    
 ZONE I=         100 , J=           1 , K=           1  F=POINT
   1.75000000E+01   5.00000000E-01   5.00000000E-01  -4.35712716E+04   2.90250224E+03   0.00000000E+00   9.64463805E+03   1.32556557E+03   5.96109623E+03   7.19372675E+00   0.00000000E+00   0.00000000E+00   0.00000000E+00   0.00000000E+00   0.00000000E+00   6.53024935E-06   9.79583962E+02   2.05298937E-06  -1.06125330E-06   0.00000000E+00   0.00000000E+00   0.00000000E+00   1.47742012E+04
   5.25000000E+01   5.00000000E-01   5.00000000E-01  -4.35360427E+04   2.90248956E+03   0.00000000E+00   9.49413957E+03   1.32833773E+03   6.05974769E+03   7.19372713E+00   0.00000000E+00   0.00000000E+00   0.00000000E+00   0.00000000E+00   0.00000000E+00   6.53051985E-06   1.04254287E+03   2.06854027E-06  -1.06125330E-06   0.00000000E+00   0.00000000E+00   0.00000000E+00   1.49290540E+04
   8.75000000E+01   5.00000000E-01   5.00000000E-01  -4.35485076E+04   2.90248956E+03   0.00000000E+00   9.41482892E+03   1.33076622E+03   6.12578599E+03   7.19372710E+00   0.00000000E+00   0.00000000E+00   0.00000000E+00   0.00000000E+00   0.00000000E+00   6.53064859E-06   1.07669549E+03   2.08596830E-06  -1.06125330E-06   0.00000000E+00   0.00000000E+00   0.00000000E+00   1.50230254E+04
   1.22500000E+02   5.00000000E-01   5.00000000E-01  -4.35544886E+04   2.90248956E+03   0.00000000E+00   9.37636293E+03   1.33111946E+03   6.15902152E+03   7.19372709E+00   0.00000000E+00   0.00000000E+00   0.00000000E+00   0.00000000E+00   0.00000000E+00   6.53070453E-06   1.09243093E+03   2.10561940E-06  -1.06125330E-06   0.00000000E+00   0.00000000E+00   0.00000000E+00   1.50646661E+04
   1.57500000E+02   5.00000000E-01   5.00000000E-01  -4.35578348E+04   2.90248956E+03   0.00000000E+00   9.35858546E+03   1.33015427E+03   6.17639969E+03   7.19372709E+00   0.00000000E+00   0.00000000E+00   0.00000000E+00   0.00000000E+00   0.00000000E+00   6.53072289E-06   1.09850613E+03   2.12788416E-06  -1.06125330E-06   0.00000000E+00   0.00000000E+00   0.00000000E+00   1.50786678E+04
   1.92500000E+02   5.00000000E-01   5.00000000E-01  -4.35602756E+04   2.90248956E+03   0.00000000E+00   9.34968389E+03   1.32885243E+03   6.18708360E+03   7.19372708E+00   0.00000000E+00   0.00000000E+00   0.00000000E+00   0.00000000E+00   0.00000000E+00   6.53071936E-06   1.09998592E+03   2.15319606E-06  -1.06125330E-06   0.00000000E+00   0.00000000E+00   0.00000000E+00   1.50816801E+04
   2.27500000E+02   5.00000000E-01   5.00000000E-01  -4.35621999E+04   2.90248956E+03   0.00000000E+00   9.34395235E+03   1.32816539E+03   6.19587504E+03   7.19372708E+00   0.00000000E+00   0.00000000E+00   0.00000000E+00   0.00000000E+00   0.00000000E+00   6.53070188E-06   1.09716447E+03   2.18203483E-06  -1.06125330E-06   0.00000000E+00   0.00000000E+00   0.00000000E+00   1.50828343E+04
   2.62500000E+02   5.00000000E-01   5.00000000E-01  -4.35639272E+04   2.90248956E+03   0.00000000E+00   9.34007971E+03   1.32820595E+03   6.20416340E+03   7.19372707E+00   0.00000000E+00   0.00000000E+00   0.00000000E+00   0.00000000E+00   0.00000000E+00   6.53067458E-06   1.08997923E+03   2.21496234E-06  -1.06125330E-06   0.00000000E+00   0.00000000E+00   0.00000000E+00   1.50837737E+04
   2.97500000E+02   5.00000000E-01   5.00000000E-01  -4.35659208E+04   2.90248956E+03   0.00000000E+00   9.33816605E+03   1.32845014E+03   6.21120384E+03   7.19372707E+00   0.00000000E+00   0.00000000E+00   0.00000000E+00   0.00000000E+00   0.00000000E+00   6.53063987E-06   1.08123087E+03   2.25266494E-06  -1.06125330E-06   0.00000000E+00   0.00000000E+00   0.00000000E+00   1.50833891E+04
   3.32500000E+02   5.00000000E-01   5.00000000E-01  -4.35680912E+04   2.90248955E+03   0.00000000E+00   9.33727249E+03   1.32876395E+03   6.21728648E+03   7.19372707E+00   0.00000000E+00   0.00000000E+00   0.00000000E+00   0.00000000E+00   0.00000000E+00   6.53060000E-06   1.07239547E+03   2.29597116E-06  -1.06125330E-06   0.00000000E+00   0.00000000E+00   0.00000000E+00   1.50824610E+04
   3.67500000E+02   5.00000000E-01   5.00000000E-01  -4.35703741E+04   2.90248955E+03   0.00000000E+00   9.33677137E+03   1.32911910E+03   6.22280789E+03   7.19372707E+00   0.00000000E+00   0.00000000E+00   0.00000000E+00   0.00000000E+00   0.00000000E+00   6.53055676E-06   1.06392758E+03   2.34588390E-06  -1.06125330E-06   0.00000000E+00   0.00000000E+00   0.00000000E+00   1.50815608E+04
   4.02500000E+02   5.00000000E-01   5.00000000E-01  -4.35727417E+04   2.90248955E+03   0.00000000E+00   9.33638961E+03   1.32950080E+03   6.22797862E+03   7.19372707E+00   0.00000000E+00   0.00000000E+00   0.00000000E+00   0.00000000E+00   0.00000000E+00   6.53051146E-06   1.05595382E+03   2.40362557E-06  -1.06125330E-06   0.00000000E+00   0.00000000E+00   0.00000000E+00   1.50808973E+04
   4.37500000E+02   5.00000000E-01   5.00000000E-01  -4.35751601E+04   2.90248955E+03   0.00000000E+00   9.33602020E+03   1.32989586E+03   6.23289137E+03   7.19372707E+00   0.00000000E+00   0.00000000E+00   0.00000000E+00   0.00000000E+00   0.00000000E+00   6.53046516E-06   1.04849543E+03   2.47069790E-06  -1.06125330E-06   0.00000000E+00   0.00000000E+00   0.00000000E+00   1.50805030E+04
   4.72500000E+02   5.00000000E-01   5.00000000E-01  -4.35775885E+04   2.90248955E+03   0.00000000E+00   9.33561974E+03   1.33029186E+03   6.23758779E+03   7.19372707E+00   0.00000000E+00   0.00000000E+00   0.00000000E+00   0.00000000E+00   0.00000000E+00   6.53041873E-06   1.04153993E+03   2.54896152E-06  -1.06125330E-06   0.00000000E+00   0.00000000E+00   0.00000000E+00   1.50803451E+04
   5.07500000E+02   5.00000000E-01   5.00000000E-01  -4.35799790E+04   2.90248954E+03   0.00000000E+00   9.33516124E+03   1.33067768E+03   6.24209257E+03   7.19372707E+00   0.00000000E+00   0.00000000E+00   0.00000000E+00   0.00000000E+00   0.00000000E+00   6.53037284E-06   1.03506622E+03   2.64074216E-06  -1.06125330E-06   0.00000000E+00   0.00000000E+00   0.00000000E+00   1.50803772E+04
   5.42500000E+02   5.00000000E-01   5.00000000E-01  -4.35822770E+04   2.90248954E+03   0.00000000E+00   9.33461283E+03   1.33104378E+03   6.24643041E+03   7.19372707E+00   0.00000000E+00   0.00000000E+00   0.00000000E+00   0.00000000E+00   0.00000000E+00   6.53032804E-06   1.02905316E+03   2.74897435E-06  -1.06125330E-06   0.00000000E+00   0.00000000E+00   0.00000000E+00   1.50805625E+04
   5.77500000E+02   5.00000000E-01   5.00000000E-01  -4.35844262E+04   2.90248954E+03   0.00000000E+00   9.33393960E+03   1.33138228E+03   6.25062614E+03   7.19372707E+00   0.00000000E+00   0.00000000E+00   0.00000000E+00   0.00000000E+00   0.00000000E+00   6.53028478E-06   1.02348035E+03   2.87739748E-06  -1.06125330E-06   0.00000000E+00   0.00000000E+00   0.00000000E+00   1.50808735E+04
   6.12500000E+02   5.00000000E-01   5.00000000E-01  -4.35863706E+04   2.90248953E+03   0.00000000E+00   9.33311606E+03   1.33168713E+03   6.25469394E+03   7.19372707E+00   0.00000000E+00   0.00000000E+00   0.00000000E+00   0.00000000E+00   0.00000000E+00   6.53024336E-06   1.01832656E+03   3.03082622E-06  -1.06125330E-06   0.00000000E+00   0.00000000E+00   0.00000000E+00   1.50812825E+04
   6.47500000E+02   5.00000000E-01   5.00000000E-01  -4.35880548E+04   2.90248953E+03   0.00000000E+00   9.33213273E+03   1.33195413E+03   6.25863138E+03   7.19372707E+00   0.00000000E+00   0.00000000E+00   0.00000000E+00   0.00000000E+00   0.00000000E+00   6.53020401E-06   1.01356860E+03   3.21552786E-06  -1.06125330E-06   0.00000000E+00   0.00000000E+00   0.00000000E+00   1.50817562E+04
   6.82500000E+02   5.00000000E-01   5.00000000E-01  -4.35894289E+04   2.90248952E+03   0.00000000E+00   9.33098666E+03   1.33218101E+03   6.26243016E+03   7.19372707E+00   0.00000000E+00   0.00000000E+00   0.00000000E+00   0.00000000E+00   0.00000000E+00   6.53016688E-06   1.00918347E+03   3.43975609E-06  -1.06125330E-06   0.00000000E+00   0.00000000E+00   0.00000000E+00   1.50822651E+04
   7.17500000E+02   5.00000000E-01   5.00000000E-01  -4.35904476E+04   2.90248952E+03   0.00000000E+00   9.32966129E+03   1.33236703E+03   6.26609437E+03   7.19372707E+00   0.00000000E+00   0.00000000E+00   0.00000000E+00   0.00000000E+00   0.00000000E+00   6.53013206E-06   1.00515246E+03   3.71451669E-06  -1.06125330E-06   0.00000000E+00   0.00000000E+00   0.00000000E+00   1.50828009E+04
   7.52500000E+02   5.00000000E-01   5.00000000E-01  -4.35910766E+04   2.90248951E+03   0.00000000E+00   9.32813404E+03   1.33251275E+03   6.26963676E+03   7.19372707E+00   0.00000000E+00   0.00000000E+00   0.00000000E+00   0.00000000E+00   0.00000000E+00   6.53009959E-06   1.00145986E+03   4.05468141E-06  -1.06125330E-06   0.00000000E+00   0.00000000E+00   0.00000000E+00   1.50833699E+04
   7.87500000E+02   5.00000000E-01   5.00000000E-01  -4.35912926E+04   2.90248950E+03   0.00000000E+00   9.32638226E+03   1.33261964E+03   6.27307348E+03   7.19372707E+00   0.00000000E+00   0.00000000E+00   0.00000000E+00   0.00000000E+00   0.00000000E+00   6.53006945E-06   9.98092182E+02   4.48063309E-06  -1.06125330E-06   0.00000000E+00   0.00000000E+00   0.00000000E+00   1.50839860E+04
   8.22500000E+02   5.00000000E-01   5.00000000E-01  -4.35910837E+04   2.90248949E+03   0.00000000E+00   9.32438569E+03   1.33268982E+03   6.27642253E+03   7.19372707E+00   0.00000000E+00   0.00000000E+00   0.00000000E+00   0.00000000E+00   0.00000000E+00   6.53004161E-06   9.95037984E+02   5.02073536E-06  -1.06125330E-06   0.00000000E+00   0.00000000E+00   0.00000000E+00   1.50846677E+04
   8.57500000E+02   5.00000000E-01   5.00000000E-01  -4.35904486E+04   2.90248948E+03   0.00000000E+00   9.32212449E+03   1.33272571E+03   6.27970500E+03   7.19372706E+00   0.00000000E+00   0.00000000E+00   0.00000000E+00   0.00000000E+00   0.00000000E+00   6.53001599E-06   9.92288611E+02   5.71510584E-06  -1.06125330E-06   0.00000000E+00   0.00000000E+00   0.00000000E+00   1.50854378E+04
   8.92500000E+02   5.00000000E-01   5.00000000E-01  -4.35893957E+04   2.90248946E+03   0.00000000E+00   9.31958064E+03   1.33272986E+03   6.28294328E+03   7.19372706E+00   0.00000000E+00   0.00000000E+00   0.00000000E+00   0.00000000E+00   0.00000000E+00   6.52999247E-06   9.89838535E+02   6.62148815E-06  -1.06125330E-06   0.00000000E+00   0.00000000E+00   0.00000000E+00   1.50863222E+04
   9.27500000E+02   5.00000000E-01   5.00000000E-01  -4.35879383E+04   2.90248945E+03   0.00000000E+00   9.31673595E+03   1.33270467E+03   6.28616050E+03   7.19372705E+00   0.00000000E+00   0.00000000E+00   0.00000000E+00   0.00000000E+00   0.00000000E+00   6.52997096E-06   9.87686602E+02   7.82457390E-06  -1.06125330E-06   0.00000000E+00   0.00000000E+00   0.00000000E+00   1.50873488E+04
   9.62500000E+02   5.00000000E-01   5.00000000E-01  -4.35860906E+04   2.90248943E+03   0.00000000E+00   9.31356960E+03   1.33265222E+03   6.28938003E+03   7.19372704E+00   0.00000000E+00   0.00000000E+00   0.00000000E+00   0.00000000E+00   0.00000000E+00   6.52995133E-06   9.85837482E+02   9.45111926E-06  -1.06125330E-06   0.00000000E+00   0.00000000E+00   0.00000000E+00   1.50885491E+04
   9.97500000E+02   5.00000000E-01   5.00000000E-01  -4.35838604E+04   2.90248940E+03   0.00000000E+00   9.31005626E+03   1.33257446E+03   6.29262297E+03   7.19372702E+00   0.00000000E+00   0.00000000E+00   0.00000000E+00   0.00000000E+00   0.00000000E+00   6.52993343E-06   9.84303646E+02   1.16950215E-05  -1.06125330E-06   0.00000000E+00   0.00000000E+00   0.00000000E+00   1.50899587E+04
   1.03250000E+03   5.00000000E-01   5.00000000E-01  -4.35812391E+04   2.90248937E+03   0.00000000E+00   9.30616466E+03   1.33247321E+03   6.29590254E+03   7.19372700E+00   0.00000000E+00   0.00000000E+00   0.00000000E+00   0.00000000E+00   0.00000000E+00   6.52991714E-06   9.83109008E+02   1.48599408E-05  -1.06125330E-06   0.00000000E+00   0.00000000E+00   0.00000000E+00   1.50916180E+04
   1.06750000E+03   5.00000000E-01   5.00000000E-01  -4.35781810E+04   2.90248933E+03   0.00000000E+00   9.30184248E+03   1.33235002E+03   6.29922450E+03   7.19372697E+00   0.00000000E+00   0.00000000E+00   0.00000000E+00   0.00000000E+00   0.00000000E+00   6.52990230E-06   9.82297910E+02   1.94336621E-05  -1.06125330E-06   0.00000000E+00   0.00000000E+00   0.00000000E+00   1.50935823E+04
   1.10250000E+03   5.00000000E-01   5.00000000E-01  -4.35745663E+04   2.90248927E+03   0.00000000E+00   9.29699569E+03   1.33220582E+03   6.30258111E+03   7.19372694E+00   0.00000000E+00   0.00000000E+00   0.00000000E+00   0.00000000E+00   0.00000000E+00   6.52988876E-06   9.81952133E+02   2.62215136E-05  -1.06125330E-06   0.00000000E+00   0.00000000E+00   0.00000000E+00   1.50959340E+04
   1.13750000E+03   5.00000000E-01   5.00000000E-01  -4.36005155E+04   2.90248879E+03   0.00000000E+00   9.39791595E+03   1.32488723E+03   6.20726997E+03   7.19372693E+00   0.00000000E+00   0.00000000E+00   0.00000000E+00   0.00000000E+00   0.00000000E+00   6.52987496E-06   1.01132171E+03   3.65251472E-05  -1.06125330E-06   0.00000000E+00   0.00000000E+00   0.00000000E+00   1.61702308E+04
   1.17250000E+03   5.00000000E-01   5.00000000E-01  -4.35528989E+04   2.90248926E+03   0.00000000E+00   9.35775798E+03   1.32488720E+03   6.25052493E+03   7.19372686E+00   0.00000000E+00   0.00000000E+00   0.00000000E+00   0.00000000E+00   0.00000000E+00   6.52986924E-06   9.57509883E+02   5.27954556E-05  -1.06125330E-06   0.00000000E+00   0.00000000E+00   0.00000000E+00   1.49977048E+04
   1.20750000E+03   5.00000000E-01   5.00000000E-01  -4.35495425E+04   2.90248884E+03   0.00000000E+00   9.31203082E+03   1.32490152E+03   6.29007047E+03   7.19372682E+00   0.00000000E+00   0.00000000E+00   0.00000000E+00   0.00000000E+00   0.00000000E+00   6.52986032E-06   9.66489304E+02   7.94510994E-05  -1.06125330E-06   0.00000000E+00   0.00000000E+00   0.00000000E+00   1.50387350E+04
   1.24250000E+03   5.00000000E-01   5.00000000E-01  -4.35341572E+04   2.90248802E+03   0.00000000E+00   9.27663143E+03   1.32495896E+03   6.31202578E+03   7.19372678E+00   0.00000000E+00   0.00000000E+00   0.00000000E+00   0.00000000E+00   0.00000000E+00   6.52984912E-06   9.77879892E+02   1.24773313E-04  -1.06125330E-06   0.00000000E+00   0.00000000E+00   0.00000000E+00   1.50689260E+04
   1.27750000E+03   5.00000000E-01   5.00000000E-01  -4.35032137E+04   2.90248326E+03   0.00000000E+00   9.24507343E+03   1.32557225E+03   6.31456773E+03   7.19372674E+00   0.00000000E+00   0.00000000E+00   0.00000000E+00   0.00000000E+00   0.00000000E+00   6.52983579E-06   1.00375633E+03   2.04912248E-04  -1.06125330E-06   0.00000000E+00   0.00000000E+00   0.00000000E+00   1.50960510E+04
   1.31250000E+03   5.00000000E-01   5.00000000E-01  -4.34864304E+04   2.90244995E+03   0.00000000E+00   9.21587570E+03   1.33393682E+03   6.31140912E+03   7.19372670E+00   0.00000000E+00   0.00000000E+00   0.00000000E+00   0.00000000E+00   0.00000000E+00   6.52982330E-06   1.03505683E+03   3.52276045E-04  -1.06125330E-06   0.00000000E+00   0.00000000E+00   0.00000000E+00   1.51031161E+04
   1.34750000E+03   5.00000000E-01   5.00000000E-01  -4.34831601E+04   2.90241928E+03   0.00000000E+00   9.19289428E+03   1.35326760E+03   6.31228317E+03   7.19372665E+00   0.00000000E+00   0.00000000E+00   0.00000000E+00   0.00000000E+00   0.00000000E+00   6.52981392E-06   1.03743224E+03   6.33612631E-04  -1.06125330E-06   0.00000000E+00   0.00000000E+00   0.00000000E+00   1.50995824E+04
   1.38250000E+03   5.00000000E-01   5.00000000E-01  -4.34907040E+04   2.90240653E+03   0.00000000E+00   9.21775041E+03   1.37559946E+03   6.26776143E+03   7.19372660E+00   0.00000000E+00   0.00000000E+00   0.00000000E+00   0.00000000E+00   0.00000000E+00   6.52980636E-06   1.03968302E+03   1.19252168E-03  -1.06125330E-06   0.00000000E+00   0.00000000E+00   0.00000000E+00   1.53913194E+04
   1.41750000E+03   5.00000000E-01   5.00000000E-01  -4.34850282E+04   2.90240252E+03   0.00000000E+00   9.18912275E+03   1.39596397E+03   6.28226312E+03   7.19372655E+00   0.00000000E+00   0.00000000E+00   0.00000000E+00   0.00000000E+00   0.00000000E+00   6.52980147E-06   1.02154450E+03   2.36485549E-03  -1.06125330E-06   0.00000000E+00   0.00000000E+00   0.00000000E+00   1.51230686E+04
   1.45250000E+03   5.00000000E-01   5.00000000E-01  -4.34861835E+04   2.90240095E+03   0.00000000E+00   9.15924050E+03   1.41511740E+03   6.29529830E+03   7.19372651E+00   0.00000000E+00   0.00000000E+00   0.00000000E+00   0.00000000E+00   0.00000000E+00   6.52979703E-06   1.01809696E+03   4.95980330E-03  -1.06125330E-06   0.00000000E+00   0.00000000E+00   0.00000000E+00   1.51201728E+04
   1.48750000E+03   5.00000000E-01   5.00000000E-01  -4.34873743E+04   2.90239998E+03   0.00000000E+00   9.13726008E+03   1.43366297E+03   6.30081811E+03   7.19372649E+00   0.00000000E+00   0.00000000E+00   0.00000000E+00   0.00000000E+00   0.00000000E+00   6.52979305E-06   1.01513295E+03   1.10377005E-02  -1.06125330E-06   0.00000000E+00   0.00000000E+00   0.00000000E+00   1.51353727E+04
   1.52250000E+03   5.00000000E-01   5.00000000E-01  -4.34885880E+04   2.90239951E+03   0.00000000E+00   9.12062779E+03   1.45187359E+03   6.30170055E+03   7.19372648E+00   0.00000000E+00   0.00000000E+00   0.00000000E+00   0.00000000E+00   0.00000000E+00   6.52978964E-06   1.01145675E+03   2.61561192E-02  -1.06125330E-06   0.00000000E+00   0.00000000E+00   0.00000000E+00   1.51456864E+04
   1.55750000E+03   5.00000000E-01   5.00000000E-01  -4.34897741E+04   2.90239961E+03   0.00000000E+00   9.10642024E+03   1.46977224E+03   6.30063771E+03   7.19372649E+00   0.00000000E+00   0.00000000E+00   0.00000000E+00   0.00000000E+00   0.00000000E+00   6.52978677E-06   1.00746622E+03   6.62528625E-02  -1.06125330E-06   0.00000000E+00   0.00000000E+00   0.00000000E+00   1.51524701E+04
   1.59250000E+03   5.00000000E-01   5.00000000E-01  -4.34910083E+04   2.90240002E+03   0.00000000E+00   9.09279138E+03   1.48742125E+03   6.29935241E+03   7.19372652E+00   0.00000000E+00   0.00000000E+00   0.00000000E+00   0.00000000E+00   0.00000000E+00   6.52978440E-06   1.00345719E+03   1.80096194E-01  -1.06125330E-06   0.00000000E+00   0.00000000E+00   0.00000000E+00   1.51562133E+04
   1.62750000E+03   5.00000000E-01   5.00000000E-01  -4.34923294E+04   2.90240069E+03   0.00000000E+00   9.07834145E+03   1.50506918E+03   6.29916171E+03   7.19372655E+00   0.00000000E+00   0.00000000E+00   0.00000000E+00   0.00000000E+00   0.00000000E+00   6.52978242E-06   9.99456283E+02   5.27419783E-01  -1.06125330E-06   0.00000000E+00   0.00000000E+00   0.00000000E+00   1.51554269E+04
   1.66250000E+03   5.00000000E-01   5.00000000E-01  -4.34930841E+04   2.90240150E+03   0.00000000E+00   9.06224081E+03   1.52333574E+03   6.30029401E+03   7.19372660E+00   0.00000000E+00   0.00000000E+00   0.00000000E+00   0.00000000E+00   0.00000000E+00   6.52978072E-06   9.95894709E+02   1.66871552E+00  -1.06125330E-06   0.00000000E+00   0.00000000E+00   0.00000000E+00   1.51494178E+04
   1.69750000E+03   5.00000000E-01   5.00000000E-01  -4.34919602E+04   2.90240154E+03   0.00000000E+00   9.04519203E+03   1.54464419E+03   6.30033342E+03   7.19372665E+00   0.00000000E+00   0.00000000E+00   0.00000000E+00   0.00000000E+00   0.00000000E+00   6.52977919E-06   9.94218093E+02   5.69150378E+00  -1.06125330E-06   0.00000000E+00   0.00000000E+00   0.00000000E+00   1.51469699E+04
   1.73250000E+03   5.00000000E-01   5.00000000E-01  -4.34878626E+04   2.90240149E+03   0.00000000E+00   9.02898152E+03   1.57709845E+03   6.29790906E+03   7.19372670E+00   0.00000000E+00   0.00000000E+00   0.00000000E+00   0.00000000E+00   0.00000000E+00   6.52977776E-06   9.92059971E+02   2.04805472E+01  -1.06125330E-06   0.00000000E+00   0.00000000E+00   0.00000000E+00   1.51430855E+04
   1.76750000E+03   5.00000000E-01   5.00000000E-01  -4.34879668E+04   2.90239929E+03   0.00000000E+00   9.01468150E+03   1.64772935E+03   6.29395180E+03   7.19372675E+00   0.00000000E+00   0.00000000E+00   0.00000000E+00   0.00000000E+00   0.00000000E+00   6.52977658E-06   9.88885425E+02   7.12114997E+01  -1.06125330E-06   0.00000000E+00   0.00000000E+00   0.00000000E+00   1.51528801E+04
   1.80250000E+03   5.00000000E-01   5.00000000E-01  -4.34903463E+04   2.90239518E+03   0.00000000E+00   9.00262583E+03   1.79365288E+03   6.28808195E+03   7.19372679E+00   0.00000000E+00   0.00000000E+00   0.00000000E+00   0.00000000E+00   0.00000000E+00   6.52977562E-06   9.83841833E+02   1.95491770E+02  -1.06125330E-06   0.00000000E+00   0.00000000E+00   0.00000000E+00   1.51690172E+04
   1.83750000E+03   5.00000000E-01   5.00000000E-01  -4.34896180E+04   2.90239114E+03   0.00000000E+00   8.99198913E+03   1.98142372E+03   6.28040497E+03   7.19372683E+00   0.00000000E+00   0.00000000E+00   0.00000000E+00   0.00000000E+00   0.00000000E+00   6.52977480E-06   9.76517694E+02   3.61644938E+02  -1.06125330E-06   0.00000000E+00   0.00000000E+00   0.00000000E+00   1.51790662E+04
   1.87250000E+03   5.00000000E-01   5.00000000E-01  -4.34869779E+04   2.90238560E+03   0.00000000E+00   8.98252577E+03   2.11929104E+03   6.27285326E+03   7.19372686E+00   0.00000000E+00   0.00000000E+00   0.00000000E+00   0.00000000E+00   0.00000000E+00   6.52977408E-06   9.64527307E+02   4.77813761E+02  -1.06125330E-06   0.00000000E+00   0.00000000E+00   0.00000000E+00   1.51785510E+04
   1.90750000E+03   5.00000000E-01   5.00000000E-01  -4.34900511E+04   2.90237512E+03   0.00000000E+00   8.97580684E+03   2.18407787E+03   6.26645094E+03   7.19372688E+00   0.00000000E+00   0.00000000E+00   0.00000000E+00   0.00000000E+00   0.00000000E+00   6.52977348E-06   9.47675252E+02   5.19500984E+02  -1.06125330E-06   0.00000000E+00   0.00000000E+00   0.00000000E+00   1.51711886E+04
   1.94250000E+03   5.00000000E-01   5.00000000E-01  -4.35000480E+04   2.90236052E+03   0.00000000E+00   8.97189262E+03   2.20280616E+03   6.26117340E+03   7.19372690E+00   0.00000000E+00   0.00000000E+00   0.00000000E+00   0.00000000E+00   0.00000000E+00   6.52977306E-06   9.29900488E+02   5.15129798E+02  -1.06125330E-06   0.00000000E+00   0.00000000E+00   0.00000000E+00   1.51635302E+04
   1.97750000E+03   5.00000000E-01   5.00000000E-01  -4.35205441E+04   2.90234544E+03   0.00000000E+00   8.97059938E+03   2.20010772E+03   6.25997036E+03   7.19372692E+00   0.00000000E+00   0.00000000E+00   0.00000000E+00   0.00000000E+00   0.00000000E+00   6.52977285E-06   9.12975072E+02   4.91201671E+02  -1.06125330E-06   0.00000000E+00   0.00000000E+00   0.00000000E+00   1.51579812E+04
   2.01250000E+03   5.00000000E-01   5.00000000E-01  -4.35343819E+04   2.90233653E+03   0.00000000E+00   8.97008813E+03   2.18439157E+03   6.25996721E+03   7.19372693E+00   0.00000000E+00   0.00000000E+00   0.00000000E+00   0.00000000E+00   0.00000000E+00   6.52977272E-06   8.99591966E+02   4.61347313E+02  -1.06125330E-06   0.00000000E+00   0.00000000E+00   0.00000000E+00   1.51482208E+04
   2.04750000E+03   5.00000000E-01   5.00000000E-01  -4.35421640E+04   2.90233075E+03   0.00000000E+00   8.96964686E+03   2.16290312E+03   6.26004652E+03   7.19372694E+00   0.00000000E+00   0.00000000E+00   0.00000000E+00   0.00000000E+00   0.00000000E+00   6.52977261E-06   8.90627550E+02   4.31114968E+02  -1.06125330E-06   0.00000000E+00   0.00000000E+00   0.00000000E+00   1.51399556E+04
   2.08250000E+03   5.00000000E-01   5.00000000E-01  -4.35475274E+04   2.90232515E+03   0.00000000E+00   8.96920885E+03   2.14020817E+03   6.26014307E+03   7.19372695E+00   0.00000000E+00   0.00000000E+00   0.00000000E+00   0.00000000E+00   0.00000000E+00   6.52977253E-06   8.84655036E+02   4.02402233E+02  -1.06125330E-06   0.00000000E+00   0.00000000E+00   0.00000000E+00   1.51348180E+04
   2.11750000E+03   5.00000000E-01   5.00000000E-01  -4.35516669E+04   2.90231905E+03   0.00000000E+00   8.96875936E+03   2.11798668E+03   6.26025184E+03   7.19372695E+00   0.00000000E+00   0.00000000E+00   0.00000000E+00   0.00000000E+00   0.00000000E+00   6.52977245E-06   8.80458121E+02   3.75662669E+02  -1.06125330E-06   0.00000000E+00   0.00000000E+00   0.00000000E+00   1.51318057E+04
   2.15250000E+03   5.00000000E-01   5.00000000E-01  -4.35550394E+04   2.90231226E+03   0.00000000E+00   8.96828927E+03   2.09675334E+03   6.26037658E+03   7.19372696E+00   0.00000000E+00   0.00000000E+00   0.00000000E+00   0.00000000E+00   0.00000000E+00   6.52977239E-06   8.77334833E+02   3.50825890E+02  -1.06125330E-06   0.00000000E+00   0.00000000E+00   0.00000000E+00   1.51300562E+04
   2.18750000E+03   5.00000000E-01   5.00000000E-01  -4.35578769E+04   2.90230468E+03   0.00000000E+00   8.96779269E+03   2.07662771E+03   6.26052294E+03   7.19372696E+00   0.00000000E+00   0.00000000E+00   0.00000000E+00   0.00000000E+00   0.00000000E+00   6.52977233E-06   8.74884301E+02   3.27694626E+02  -1.06125330E-06   0.00000000E+00   0.00000000E+00   0.00000000E+00   1.51290375E+04
   2.22250000E+03   5.00000000E-01   5.00000000E-01  -4.35603192E+04   2.90229625E+03   0.00000000E+00   8.96727142E+03   2.05762171E+03   6.26069002E+03   7.19372696E+00   0.00000000E+00   0.00000000E+00   0.00000000E+00   0.00000000E+00   0.00000000E+00   6.52977228E-06   8.72868830E+02   3.06092928E+02  -1.06125330E-06   0.00000000E+00   0.00000000E+00   0.00000000E+00   1.51284357E+04
   2.25750000E+03   5.00000000E-01   5.00000000E-01  -4.35624425E+04   2.90228701E+03   0.00000000E+00   8.96673683E+03   2.03966568E+03   6.26086465E+03   7.19372696E+00   0.00000000E+00   0.00000000E+00   0.00000000E+00   0.00000000E+00   0.00000000E+00   6.52977223E-06   8.71152069E+02   2.85843033E+02  -1.06125330E-06   0.00000000E+00   0.00000000E+00   0.00000000E+00   1.51280718E+04
   2.29250000E+03   5.00000000E-01   5.00000000E-01  -4.35642738E+04   2.90227698E+03   0.00000000E+00   8.96620232E+03   2.02265266E+03   6.26102928E+03   7.19372695E+00   0.00000000E+00   0.00000000E+00   0.00000000E+00   0.00000000E+00   0.00000000E+00   6.52977218E-06   8.69662126E+02   2.66784461E+02  -1.06125330E-06   0.00000000E+00   0.00000000E+00   0.00000000E+00   1.51278430E+04
   2.32750000E+03   5.00000000E-01   5.00000000E-01  -4.35658293E+04   2.90226617E+03   0.00000000E+00   8.96567503E+03   2.00656506E+03   6.26117358E+03   7.19372694E+00   0.00000000E+00   0.00000000E+00   0.00000000E+00   0.00000000E+00   0.00000000E+00   6.52977214E-06   8.68358695E+02   2.48868195E+02  -1.06125330E-06   0.00000000E+00   0.00000000E+00   0.00000000E+00   1.51276941E+04
   2.36250000E+03   5.00000000E-01   5.00000000E-01  -4.35671332E+04   2.90225454E+03   0.00000000E+00   8.96515610E+03   1.99143375E+03   6.26129428E+03   7.19372692E+00   0.00000000E+00   0.00000000E+00   0.00000000E+00   0.00000000E+00   0.00000000E+00   6.52977210E-06   8.67213446E+02   2.32096666E+02  -1.06125330E-06   0.00000000E+00   0.00000000E+00   0.00000000E+00   1.51276009E+04
   2.39750000E+03   5.00000000E-01   5.00000000E-01  -4.35682114E+04   2.90224199E+03   0.00000000E+00   8.96464430E+03   1.97715810E+03   6.26138933E+03   7.19372689E+00   0.00000000E+00   0.00000000E+00   0.00000000E+00   0.00000000E+00   0.00000000E+00   6.52977206E-06   8.66202757E+02   2.16340976E+02  -1.06125330E-06   0.00000000E+00   0.00000000E+00   0.00000000E+00   1.51275524E+04
   2.43250000E+03   5.00000000E-01   5.00000000E-01  -4.35690877E+04   2.90222837E+03   0.00000000E+00   8.96413808E+03   1.96355470E+03   6.26145551E+03   7.19372686E+00   0.00000000E+00   0.00000000E+00   0.00000000E+00   0.00000000E+00   0.00000000E+00   6.52977202E-06   8.65304858E+02   2.01389990E+02  -1.06125330E-06   0.00000000E+00   0.00000000E+00   0.00000000E+00   1.51275416E+04
   2.46750000E+03   5.00000000E-01   5.00000000E-01  -4.35697850E+04   2.90221345E+03   0.00000000E+00   8.96363608E+03   1.95054013E+03   6.26148931E+03   7.19372682E+00   0.00000000E+00   0.00000000E+00   0.00000000E+00   0.00000000E+00   0.00000000E+00   6.52977198E-06   8.64498785E+02   1.87133156E+02  -1.06125330E-06   0.00000000E+00   0.00000000E+00   0.00000000E+00   1.51275627E+04
   2.50250000E+03   5.00000000E-01   5.00000000E-01  -4.35703288E+04   2.90219699E+03   0.00000000E+00   8.96313681E+03   1.93810100E+03   6.26148768E+03   7.19372676E+00   0.00000000E+00   0.00000000E+00   0.00000000E+00   0.00000000E+00   0.00000000E+00   6.52977195E-06   8.63764442E+02   1.73529381E+02  -1.06125330E-06   0.00000000E+00   0.00000000E+00   0.00000000E+00   1.51276140E+04
   2.53750000E+03   5.00000000E-01   5.00000000E-01  -4.35707482E+04   2.90217874E+03   0.00000000E+00   8.96263862E+03   1.92624149E+03   6.26144960E+03   7.19372667E+00   0.00000000E+00   0.00000000E+00   0.00000000E+00   0.00000000E+00   0.00000000E+00   6.52977191E-06   8.63083282E+02   1.60555968E+02  -1.06125330E-06   0.00000000E+00   0.00000000E+00   0.00000000E+00   1.51276978E+04
   2.57250000E+03   5.00000000E-01   5.00000000E-01  -4.35710619E+04   2.90215848E+03   0.00000000E+00   8.96214061E+03   1.91501580E+03   6.26138084E+03   7.19372657E+00   0.00000000E+00   0.00000000E+00   0.00000000E+00   0.00000000E+00   0.00000000E+00   6.52977188E-06   8.62440333E+02   1.48254777E+02  -1.06125330E-06   0.00000000E+00   0.00000000E+00   0.00000000E+00   1.51277977E+04
   2.60750000E+03   5.00000000E-01   5.00000000E-01  -4.35712703E+04   2.90213603E+03   0.00000000E+00   8.96164234E+03   1.90447341E+03   6.26129390E+03   7.19372642E+00   0.00000000E+00   0.00000000E+00   0.00000000E+00   0.00000000E+00   0.00000000E+00   6.52977185E-06   8.61825560E+02   1.36681910E+02  -1.06125330E-06   0.00000000E+00   0.00000000E+00   0.00000000E+00   1.51278722E+04