 TITLE = "Total Component Concentration in Minerals" 
VARIABLES = "X"          "Y"              "Z"            "H+"             "Al+++"          "CO2(aq)"        "Mg++"           "Ca++"           "Fe++"           "Fe+++"          "Ba++"           "Sr++"           "Cl-"            "F-"             "K+"             "HS-"            "Na+"            "SO4--"          "O2(aq)"         "B(OH)3(aq)"     "HPO4--"         "NO3-"           "H4SiO4(aq)"    
 ZONE I=         200 , J=           1 , K=           1  F=POINT
   8.75000000E+00   5.00000000E-01   5.00000000E-01  -4.43435105E+04   3.02039543E+03   0.00000000E+00   9.13392763E+03   1.71474821E+03   6.22187576E+03   7.19372819E+01   0.00000000E+00   0.00000000E+00   0.00000000E+00   0.00000000E+00   5.92033813E-01   1.10531409E-05   9.24817158E+02   1.94549732E-06  -1.94549732E-06   0.00000000E+00   0.00000000E+00   0.00000000E+00   1.50985892E+04
   2.62500000E+01   5.00000000E-01   5.00000000E-01  -4.43773200E+04   3.02036900E+03   0.00000000E+00   9.14842135E+03   1.71498368E+03   6.22205401E+03   7.19372818E+01   0.00000000E+00   0.00000000E+00   0.00000000E+00   0.00000000E+00   2.92755474E+00   1.10531446E-05   9.26555535E+02   1.94549732E-06  -1.94549732E-06   0.00000000E+00   0.00000000E+00   0.00000000E+00   1.51272720E+04
   4.37500000E+01   5.00000000E-01   5.00000000E-01  -4.43716852E+04   3.02036900E+03   0.00000000E+00   9.14282767E+03   1.71509406E+03   6.22219969E+03   7.19372818E+01   0.00000000E+00   0.00000000E+00   0.00000000E+00   0.00000000E+00   3.52269465E+00   1.10531462E-05   9.31000886E+02   1.94549732E-06  -1.94549732E-06   0.00000000E+00   0.00000000E+00   0.00000000E+00   1.51413617E+04
   6.12500000E+01   5.00000000E-01   5.00000000E-01  -4.43626747E+04   3.02036900E+03   0.00000000E+00   9.13457262E+03   1.71518208E+03   6.22235848E+03   7.19372818E+01   0.00000000E+00   0.00000000E+00   0.00000000E+00   0.00000000E+00   4.29929993E+00   1.10531475E-05   9.37230238E+02   1.94549732E-06  -1.94549732E-06   0.00000000E+00   0.00000000E+00   0.00000000E+00   1.51603788E+04
   7.87500000E+01   5.00000000E-01   5.00000000E-01  -4.43578973E+04   3.02036900E+03   0.00000000E+00   9.12818496E+03   1.71533000E+03   6.22254577E+03   7.19372818E+01   0.00000000E+00   0.00000000E+00   0.00000000E+00   0.00000000E+00   5.25684788E+00   1.10531486E-05   9.43600193E+02   1.94549732E-06  -1.94549732E-06   0.00000000E+00   0.00000000E+00   0.00000000E+00   1.51823846E+04
   9.62500000E+01   5.00000000E-01   5.00000000E-01  -4.43554208E+04   3.02036900E+03   0.00000000E+00   9.12338583E+03   1.71551569E+03   6.22276669E+03   7.19372818E+01   0.00000000E+00   0.00000000E+00   0.00000000E+00   0.00000000E+00   6.04993875E+00   1.10531495E-05   9.49115627E+02   1.94549732E-06  -1.94549732E-06   0.00000000E+00   0.00000000E+00   0.00000000E+00   1.52020889E+04
   1.13750000E+02   5.00000000E-01   5.00000000E-01  -4.43539417E+04   3.02036900E+03   0.00000000E+00   9.11984175E+03   1.71571634E+03   6.22302201E+03   7.19372818E+01   0.00000000E+00   0.00000000E+00   0.00000000E+00   0.00000000E+00   6.52773369E+00   1.10531503E-05   9.53334953E+02   1.94549732E-06  -1.94549732E-06   0.00000000E+00   0.00000000E+00   0.00000000E+00   1.52169420E+04
   1.31250000E+02   5.00000000E-01   5.00000000E-01  -4.43530647E+04   3.02036900E+03   0.00000000E+00   9.11736722E+03   1.71591838E+03   6.22331313E+03   7.19372818E+01   0.00000000E+00   0.00000000E+00   0.00000000E+00   0.00000000E+00   6.69647168E+00   1.10531510E-05   9.56251922E+02   1.94549732E-06  -1.94549732E-06   0.00000000E+00   0.00000000E+00   0.00000000E+00   1.52267551E+04
   1.48750000E+02   5.00000000E-01   5.00000000E-01  -4.43526381E+04   3.02036900E+03   0.00000000E+00   9.11574835E+03   1.71611480E+03   6.22364292E+03   7.19372818E+01   0.00000000E+00   0.00000000E+00   0.00000000E+00   0.00000000E+00   6.62181562E+00   1.10531516E-05   9.58085339E+02   1.94549732E-06  -1.94549732E-06   0.00000000E+00   0.00000000E+00   0.00000000E+00   1.52323880E+04
   1.66250000E+02   5.00000000E-01   5.00000000E-01  -4.43526224E+04   3.02036900E+03   0.00000000E+00   9.11477785E+03   1.71630171E+03   6.22401343E+03   7.19372818E+01   0.00000000E+00   0.00000000E+00   0.00000000E+00   0.00000000E+00   6.38641220E+00   1.10531520E-05   9.59131192E+02   1.94549732E-06  -1.94549732E-06   0.00000000E+00   0.00000000E+00   0.00000000E+00   1.52350634E+04
   1.83750000E+02   5.00000000E-01   5.00000000E-01  -4.43530033E+04   3.02036900E+03   0.00000000E+00   9.11427289E+03   1.71647669E+03   6.22442348E+03   7.19372818E+01   0.00000000E+00   0.00000000E+00   0.00000000E+00   0.00000000E+00   6.06470669E+00   1.10531524E-05   9.59673592E+02   1.94549732E-06  -1.94549732E-06   0.00000000E+00   0.00000000E+00   0.00000000E+00   1.52359516E+04
   2.01250000E+02   5.00000000E-01   5.00000000E-01  -4.43536262E+04   3.02036900E+03   0.00000000E+00   9.11404866E+03   1.71664127E+03   6.22487199E+03   7.19372818E+01   0.00000000E+00   0.00000000E+00   0.00000000E+00   0.00000000E+00   5.69467366E+00   1.10531526E-05   9.59888829E+02   1.94549732E-06  -1.94549732E-06   0.00000000E+00   0.00000000E+00   0.00000000E+00   1.52356896E+04
   2.18750000E+02   5.00000000E-01   5.00000000E-01  -4.43543735E+04   3.02036900E+03   0.00000000E+00   9.11398376E+03   1.71680073E+03   6.22535850E+03   7.19372818E+01   0.00000000E+00   0.00000000E+00   0.00000000E+00   0.00000000E+00   5.29609905E+00   1.10531527E-05   9.59872567E+02   1.94549732E-06  -1.94549732E-06   0.00000000E+00   0.00000000E+00   0.00000000E+00   1.52346091E+04
   2.36250000E+02   5.00000000E-01   5.00000000E-01  -4.43552848E+04   3.02036900E+03   0.00000000E+00   9.11404002E+03   1.71696012E+03   6.22587774E+03   7.19372818E+01   0.00000000E+00   0.00000000E+00   0.00000000E+00   0.00000000E+00   4.89226765E+00   1.10531527E-05   9.59717932E+02   1.94549732E-06  -1.94549732E-06   0.00000000E+00   0.00000000E+00   0.00000000E+00   1.52331169E+04
   2.53750000E+02   5.00000000E-01   5.00000000E-01  -4.43562721E+04   3.02036900E+03   0.00000000E+00   9.11415196E+03   1.71712399E+03   6.22642447E+03   7.19372818E+01   0.00000000E+00   0.00000000E+00   0.00000000E+00   0.00000000E+00   4.49011888E+00   1.10531526E-05   9.59462355E+02   1.94549732E-06  -1.94549732E-06   0.00000000E+00   0.00000000E+00   0.00000000E+00   1.52313255E+04
   2.71250000E+02   5.00000000E-01   5.00000000E-01  -4.43573112E+04   3.02036900E+03   0.00000000E+00   9.11429657E+03   1.71729421E+03   6.22699304E+03   7.19372818E+01   0.00000000E+00   0.00000000E+00   0.00000000E+00   0.00000000E+00   4.09639733E+00   1.10531524E-05   9.59128348E+02   1.94549732E-06  -1.94549732E-06   0.00000000E+00   0.00000000E+00   0.00000000E+00   1.52293240E+04
   2.88750000E+02   5.00000000E-01   5.00000000E-01  -4.43583988E+04   3.02036900E+03   0.00000000E+00   9.11446714E+03   1.71746896E+03   6.22757810E+03   7.19372818E+01   0.00000000E+00   0.00000000E+00   0.00000000E+00   0.00000000E+00   3.71752461E+00   1.10531522E-05   9.58734054E+02   1.94549732E-06  -1.94549732E-06   0.00000000E+00   0.00000000E+00   0.00000000E+00   1.52271924E+04
   3.06250000E+02   5.00000000E-01   5.00000000E-01  -4.43595350E+04   3.02036900E+03   0.00000000E+00   9.11466199E+03   1.71764358E+03   6.22817564E+03   7.19372818E+01   0.00000000E+00   0.00000000E+00   0.00000000E+00   0.00000000E+00   3.35881364E+00   1.10531518E-05   9.58294950E+02   1.94549732E-06  -1.94549732E-06   0.00000000E+00   0.00000000E+00   0.00000000E+00   1.52249964E+04
   3.23750000E+02   5.00000000E-01   5.00000000E-01  -4.43607205E+04   3.02036900E+03   0.00000000E+00   9.11488080E+03   1.71781237E+03   6.22878358E+03   7.19372818E+01   0.00000000E+00   0.00000000E+00   0.00000000E+00   0.00000000E+00   3.02406913E+00   1.10531515E-05   9.57824134E+02   1.94549732E-06  -1.94549732E-06   0.00000000E+00   0.00000000E+00   0.00000000E+00   1.52227877E+04
   3.41250000E+02   5.00000000E-01   5.00000000E-01  -4.43619558E+04   3.02036900E+03   0.00000000E+00   9.11512276E+03   1.71797030E+03   6.22940153E+03   7.19372818E+01   0.00000000E+00   0.00000000E+00   0.00000000E+00   0.00000000E+00   2.71546293E+00   1.10531510E-05   9.57332271E+02   1.94549732E-06  -1.94549732E-06   0.00000000E+00   0.00000000E+00   0.00000000E+00   1.52206046E+04
   3.58750000E+02   5.00000000E-01   5.00000000E-01  -4.43632358E+04   3.02036900E+03   0.00000000E+00   9.11538410E+03   1.71811412E+03   6.23003040E+03   7.19372818E+01   0.00000000E+00   0.00000000E+00   0.00000000E+00   0.00000000E+00   2.43347139E+00   1.10531505E-05   9.56826282E+02   1.94549732E-06  -1.94549732E-06   0.00000000E+00   0.00000000E+00   0.00000000E+00   1.52184659E+04
   3.76250000E+02   5.00000000E-01   5.00000000E-01  -4.43645564E+04   3.02036900E+03   0.00000000E+00   9.11566085E+03   1.71824240E+03   6.23067149E+03   7.19372818E+01   0.00000000E+00   0.00000000E+00   0.00000000E+00   0.00000000E+00   2.17749647E+00   1.10531500E-05   9.56310595E+02   1.94549732E-06  -1.94549732E-06   0.00000000E+00   0.00000000E+00   0.00000000E+00   1.52163805E+04
   3.93750000E+02   5.00000000E-01   5.00000000E-01  -4.43659103E+04   3.02036900E+03   0.00000000E+00   9.11594766E+03   1.71835535E+03   6.23132610E+03   7.19372818E+01   0.00000000E+00   0.00000000E+00   0.00000000E+00   0.00000000E+00   1.94613203E+00   1.10531495E-05   9.55787099E+02   1.94549732E-06  -1.94549732E-06   0.00000000E+00   0.00000000E+00   0.00000000E+00   1.52143464E+04
   4.11250000E+02   5.00000000E-01   5.00000000E-01  -4.43672900E+04   3.02036900E+03   0.00000000E+00   9.11623942E+03   1.71845434E+03   6.23199499E+03   7.19372818E+01   0.00000000E+00   0.00000000E+00   0.00000000E+00   0.00000000E+00   1.73758060E+00   1.10531489E-05   9.55256086E+02   1.94549732E-06  -1.94549732E-06   0.00000000E+00   0.00000000E+00   0.00000000E+00   1.52123564E+04
   4.28750000E+02   5.00000000E-01   5.00000000E-01  -4.43686893E+04   3.02036900E+03   0.00000000E+00   9.11653200E+03   1.71854156E+03   6.23267812E+03   7.19372818E+01   0.00000000E+00   0.00000000E+00   0.00000000E+00   0.00000000E+00   1.54993083E+00   1.10531484E-05   9.54717226E+02   1.94549732E-06  -1.94549732E-06   0.00000000E+00   0.00000000E+00   0.00000000E+00   1.52104021E+04
   4.46250000E+02   5.00000000E-01   5.00000000E-01  -4.43701013E+04   3.02036900E+03   0.00000000E+00   9.11682155E+03   1.71861971E+03   6.23337449E+03   7.19372818E+01   0.00000000E+00   0.00000000E+00   0.00000000E+00   0.00000000E+00   1.38124544E+00   1.10531478E-05   9.54169676E+02   1.94549732E-06  -1.94549732E-06   0.00000000E+00   0.00000000E+00   0.00000000E+00   1.52084741E+04
   4.63750000E+02   5.00000000E-01   5.00000000E-01  -4.43715192E+04   3.02036900E+03   0.00000000E+00   9.11710510E+03   1.71869184E+03   6.23408217E+03   7.19372818E+01   0.00000000E+00   0.00000000E+00   0.00000000E+00   0.00000000E+00   1.22967411E+00   1.10531472E-05   9.53612522E+02   1.94549732E-06  -1.94549732E-06   0.00000000E+00   0.00000000E+00   0.00000000E+00   1.52065638E+04
   4.81250000E+02   5.00000000E-01   5.00000000E-01  -4.43729376E+04   3.02036900E+03   0.00000000E+00   9.11738073E+03   1.71876113E+03   6.23479820E+03   7.19372818E+01   0.00000000E+00   0.00000000E+00   0.00000000E+00   0.00000000E+00   1.09351141E+00   1.10531466E-05   9.53045127E+02   1.94549732E-06  -1.94549732E-06   0.00000000E+00   0.00000000E+00   0.00000000E+00   1.52046648E+04
   4.98750000E+02   5.00000000E-01   5.00000000E-01  -4.43741986E+04   3.02036900E+03   0.00000000E+00   9.11757955E+03   1.71883076E+03   6.23552984E+03   7.19372818E+01   0.00000000E+00   0.00000000E+00   0.00000000E+00   0.00000000E+00   9.68568836E-01   1.10531460E-05   9.52430885E+02   1.94549732E-06  -1.94549732E-06   0.00000000E+00   0.00000000E+00   0.00000000E+00   1.52025725E+04
   5.16250000E+02   5.00000000E-01   5.00000000E-01  -4.43755510E+04   3.02036900E+03   0.00000000E+00   9.11781268E+03   1.71890470E+03   6.23626663E+03   7.19372818E+01   0.00000000E+00   0.00000000E+00   0.00000000E+00   0.00000000E+00   8.57474000E-01   1.10531454E-05   9.51806693E+02   1.94549732E-06  -1.94549732E-06   0.00000000E+00   0.00000000E+00   0.00000000E+00   1.52005356E+04
   5.33750000E+02   5.00000000E-01   5.00000000E-01  -4.43769291E+04   3.02036900E+03   0.00000000E+00   9.11805128E+03   1.71898529E+03   6.23700067E+03   7.19372818E+01   0.00000000E+00   0.00000000E+00   0.00000000E+00   0.00000000E+00   7.58335085E-01   1.10531448E-05   9.51177448E+02   1.94549732E-06  -1.94549732E-06   0.00000000E+00   0.00000000E+00   0.00000000E+00   1.51985397E+04
   5.51250000E+02   5.00000000E-01   5.00000000E-01  -4.43782931E+04   3.02036900E+03   0.00000000E+00   9.11828033E+03   1.71907406E+03   6.23772641E+03   7.19372818E+01   0.00000000E+00   0.00000000E+00   0.00000000E+00   0.00000000E+00   6.69625567E-01   1.10531442E-05   9.50543006E+02   1.94549732E-06  -1.94549732E-06   0.00000000E+00   0.00000000E+00   0.00000000E+00   1.51965651E+04
   5.68750000E+02   5.00000000E-01   5.00000000E-01  -4.43796308E+04   3.02036900E+03   0.00000000E+00   9.11849758E+03   1.71917149E+03   6.23843961E+03   7.19372818E+01   0.00000000E+00   0.00000000E+00   0.00000000E+00   0.00000000E+00   5.90280088E-01   1.10531437E-05   9.49904325E+02   1.94549732E-06  -1.94549732E-06   0.00000000E+00   0.00000000E+00   0.00000000E+00   1.51946081E+04
   5.86250000E+02   5.00000000E-01   5.00000000E-01  -4.43809362E+04   3.02036900E+03   0.00000000E+00   9.11870311E+03   1.71927680E+03   6.23913739E+03   7.19372818E+01   0.00000000E+00   0.00000000E+00   0.00000000E+00   0.00000000E+00   5.19433180E-01   1.10531431E-05   9.49263327E+02   1.94549732E-06  -1.94549732E-06   0.00000000E+00   0.00000000E+00   0.00000000E+00   1.51926699E+04
   6.03750000E+02   5.00000000E-01   5.00000000E-01  -4.43822043E+04   3.02036900E+03   0.00000000E+00   9.11889679E+03   1.71938812E+03   6.23981833E+03   7.19372818E+01   0.00000000E+00   0.00000000E+00   0.00000000E+00   0.00000000E+00   4.56332853E-01   1.10531425E-05   9.48622644E+02   1.94549732E-06  -1.94549732E-06   0.00000000E+00   0.00000000E+00   0.00000000E+00   1.51907533E+04
   6.21250000E+02   5.00000000E-01   5.00000000E-01  -4.43834304E+04   3.02036900E+03   0.00000000E+00   9.11907777E+03   1.71950283E+03   6.24048239E+03   7.19372818E+01   0.00000000E+00   0.00000000E+00   0.00000000E+00   0.00000000E+00   4.00296016E-01   1.10531420E-05   9.47985328E+02   1.94549732E-06  -1.94549732E-06   0.00000000E+00   0.00000000E+00   0.00000000E+00   1.51888618E+04
   6.38750000E+02   5.00000000E-01   5.00000000E-01  -4.43846099E+04   3.02036900E+03   0.00000000E+00   9.11924444E+03   1.71961802E+03   6.24113050E+03   7.19372818E+01   0.00000000E+00   0.00000000E+00   0.00000000E+00   0.00000000E+00   3.50680368E-01   1.10531415E-05   9.47354530E+02   1.94549732E-06  -1.94549732E-06   0.00000000E+00   0.00000000E+00   0.00000000E+00   1.51869987E+04
   6.56250000E+02   5.00000000E-01   5.00000000E-01  -4.43857381E+04   3.02036900E+03   0.00000000E+00   9.11939463E+03   1.71973095E+03   6.24176400E+03   7.19372818E+01   0.00000000E+00   0.00000000E+00   0.00000000E+00   0.00000000E+00   3.06869944E-01   1.10531410E-05   9.46733215E+02   1.94549732E-06  -1.94549732E-06   0.00000000E+00   0.00000000E+00   0.00000000E+00   1.51851666E+04
   6.73750000E+02   5.00000000E-01   5.00000000E-01  -4.43868100E+04   3.02036900E+03   0.00000000E+00   9.11952597E+03   1.71983936E+03   6.24238414E+03   7.19372818E+01   0.00000000E+00   0.00000000E+00   0.00000000E+00   0.00000000E+00   2.68273303E-01   1.10531404E-05   9.46123996E+02   1.94549732E-06  -1.94549732E-06   0.00000000E+00   0.00000000E+00   0.00000000E+00   1.51833676E+04
   6.91250000E+02   5.00000000E-01   5.00000000E-01  -4.43878207E+04   3.02036900E+03   0.00000000E+00   9.11963612E+03   1.71994163E+03   6.24299156E+03   7.19372818E+01   0.00000000E+00   0.00000000E+00   0.00000000E+00   0.00000000E+00   2.34326064E-01   1.10531400E-05   9.45528974E+02   1.94549732E-06  -1.94549732E-06   0.00000000E+00   0.00000000E+00   0.00000000E+00   1.51816028E+04
   7.08750000E+02   5.00000000E-01   5.00000000E-01  -4.43887653E+04   3.02036900E+03   0.00000000E+00   9.11972327E+03   1.72003686E+03   6.24358597E+03   7.19372818E+01   0.00000000E+00   0.00000000E+00   0.00000000E+00   0.00000000E+00   2.04501186E-01   1.10531395E-05   9.44949807E+02   1.95411388E-06  -1.94549732E-06   0.00000000E+00   0.00000000E+00   0.00000000E+00   1.51798730E+04
   7.26250000E+02   5.00000000E-01   5.00000000E-01  -4.43896392E+04   3.02036900E+03   0.00000000E+00   9.11978644E+03   1.72012474E+03   6.24416596E+03   7.19372818E+01   0.00000000E+00   0.00000000E+00   0.00000000E+00   0.00000000E+00   1.78314685E-01   1.10531390E-05   9.44387767E+02   1.98023242E-06  -1.94549732E-06   0.00000000E+00   0.00000000E+00   0.00000000E+00   1.51781792E+04
   7.43750000E+02   5.00000000E-01   5.00000000E-01  -4.43904379E+04   3.02036900E+03   0.00000000E+00   9.11982550E+03   1.72020556E+03   6.24472893E+03   7.19372818E+01   0.00000000E+00   0.00000000E+00   0.00000000E+00   0.00000000E+00   1.55328799E-01   1.10531386E-05   9.43843813E+02   2.02739955E-06  -1.94549732E-06   0.00000000E+00   0.00000000E+00   0.00000000E+00   1.51765222E+04
   7.61250000E+02   5.00000000E-01   5.00000000E-01  -4.43911576E+04   3.02036900E+03   0.00000000E+00   9.11984124E+03   1.72028003E+03   6.24527120E+03   7.19372818E+01   0.00000000E+00   0.00000000E+00   0.00000000E+00   0.00000000E+00   1.35152751E-01   1.10531382E-05   9.43318669E+02   2.10704917E-06  -1.94549732E-06   0.00000000E+00   0.00000000E+00   0.00000000E+00   1.51749035E+04
   7.78750000E+02   5.00000000E-01   5.00000000E-01  -4.43917944E+04   3.02036900E+03   0.00000000E+00   9.11983531E+03   1.72034916E+03   6.24578814E+03   7.19372818E+01   0.00000000E+00   0.00000000E+00   0.00000000E+00   0.00000000E+00   1.17441557E-01   1.10531378E-05   9.42812900E+02   2.23586686E-06  -1.94549732E-06   0.00000000E+00   0.00000000E+00   0.00000000E+00   1.51733248E+04
   7.96250000E+02   5.00000000E-01   5.00000000E-01  -4.43923450E+04   3.02036900E+03   0.00000000E+00   9.11981007E+03   1.72041413E+03   6.24627444E+03   7.19372818E+01   0.00000000E+00   0.00000000E+00   0.00000000E+00   0.00000000E+00   1.01893507E-01   1.10531374E-05   9.42326979E+02   2.43804788E-06  -1.94549732E-06   0.00000000E+00   0.00000000E+00   0.00000000E+00   1.51717884E+04
   8.13750000E+02   5.00000000E-01   5.00000000E-01  -4.43928061E+04   3.02036900E+03   0.00000000E+00   9.11976835E+03   1.72047609E+03   6.24672439E+03   7.19372818E+01   0.00000000E+00   0.00000000E+00   0.00000000E+00   0.00000000E+00   8.82465911E-02   1.10531370E-05   9.41861341E+02   2.74850632E-06  -1.94549732E-06   0.00000000E+00   0.00000000E+00   0.00000000E+00   1.51702965E+04
   8.31250000E+02   5.00000000E-01   5.00000000E-01  -4.43931744E+04   3.02036899E+03   0.00000000E+00   9.11971317E+03   1.72053603E+03   6.24713228E+03   7.19372818E+01   0.00000000E+00   0.00000000E+00   0.00000000E+00   0.00000000E+00   7.62741989E-02   1.10531366E-05   9.41416398E+02   3.21743676E-06  -1.94549732E-06   0.00000000E+00   0.00000000E+00   0.00000000E+00   1.51688515E+04
   8.48750000E+02   5.00000000E-01   5.00000000E-01  -4.43934464E+04   3.02036899E+03   0.00000000E+00   9.11964733E+03   1.72059454E+03   6.24749276E+03   7.19372818E+01   0.00000000E+00   0.00000000E+00   0.00000000E+00   0.00000000E+00   6.57805598E-02   1.10531363E-05   9.40992540E+02   3.91680212E-06  -1.94549732E-06   0.00000000E+00   0.00000000E+00   0.00000000E+00   1.51674549E+04
   8.66250000E+02   5.00000000E-01   5.00000000E-01  -4.43936178E+04   3.02036899E+03   0.00000000E+00   9.11957305E+03   1.72065174E+03   6.24780135E+03   7.19372818E+01   0.00000000E+00   0.00000000E+00   0.00000000E+00   0.00000000E+00   5.65963365E-02   1.10531359E-05   9.40590110E+02   4.94956825E-06  -1.94549732E-06   0.00000000E+00   0.00000000E+00   0.00000000E+00   1.51661073E+04
   8.83750000E+02   5.00000000E-01   5.00000000E-01  -4.43936407E+04   3.02036899E+03   0.00000000E+00   9.11947435E+03   1.72070191E+03   6.24805951E+03   7.19372818E+01   0.00000000E+00   0.00000000E+00   0.00000000E+00   0.00000000E+00   4.85238876E-02   1.10531356E-05   9.40201810E+02   6.46287948E-06  -1.94549732E-06   0.00000000E+00   0.00000000E+00   0.00000000E+00   1.51647571E+04
   9.01250000E+02   5.00000000E-01   5.00000000E-01  -4.43935929E+04   3.02036899E+03   0.00000000E+00   9.11938610E+03   1.72075050E+03   6.24826135E+03   7.19372818E+01   0.00000000E+00   0.00000000E+00   0.00000000E+00   0.00000000E+00   4.15430731E-02   1.10531353E-05   9.39836616E+02   8.66682608E-06  -1.94549732E-06   0.00000000E+00   0.00000000E+00   0.00000000E+00   1.51634756E+04
   9.18750000E+02   5.00000000E-01   5.00000000E-01  -4.43934469E+04   3.02036899E+03   0.00000000E+00   9.11929749E+03   1.72079633E+03   6.24840500E+03   7.19372818E+01   0.00000000E+00   0.00000000E+00   0.00000000E+00   0.00000000E+00   3.54980140E-02   1.10531350E-05   9.39494992E+02   1.18612815E-05  -1.94549732E-06   0.00000000E+00   0.00000000E+00   0.00000000E+00   1.51622512E+04
   9.36250000E+02   5.00000000E-01   5.00000000E-01  -4.43931825E+04   3.02036899E+03   0.00000000E+00   9.11919997E+03   1.72083680E+03   6.24849205E+03   7.19372818E+01   0.00000000E+00   0.00000000E+00   0.00000000E+00   0.00000000E+00   3.02634868E-02   1.10531347E-05   9.39175828E+02   1.64743199E-05  -1.94549732E-06   0.00000000E+00   0.00000000E+00   0.00000000E+00   1.51610680E+04
   9.53750000E+02   5.00000000E-01   5.00000000E-01  -4.43927959E+04   3.02036899E+03   0.00000000E+00   9.11909104E+03   1.72086981E+03   6.24852564E+03   7.19372818E+01   0.00000000E+00   0.00000000E+00   0.00000000E+00   0.00000000E+00   2.57450745E-02   1.10531344E-05   9.38878421E+02   2.31173066E-05  -1.94549732E-06   0.00000000E+00   0.00000000E+00   0.00000000E+00   1.51599184E+04
   9.71250000E+02   5.00000000E-01   5.00000000E-01  -4.43922882E+04   3.02036899E+03   0.00000000E+00   9.11896934E+03   1.72089361E+03   6.24850984E+03   7.19372818E+01   0.00000000E+00   0.00000000E+00   0.00000000E+00   0.00000000E+00   2.18597107E-02   1.10531342E-05   9.38602055E+02   3.26640570E-05  -1.94549732E-06   0.00000000E+00   0.00000000E+00   0.00000000E+00   1.51587974E+04
   9.88750000E+02   5.00000000E-01   5.00000000E-01  -4.43916628E+04   3.02036899E+03   0.00000000E+00   9.11883370E+03   1.72090689E+03   6.24844923E+03   7.19372818E+01   0.00000000E+00   0.00000000E+00   0.00000000E+00   0.00000000E+00   1.85310050E-02   1.10531339E-05   9.38345870E+02   4.63648240E-05  -1.94549732E-06   0.00000000E+00   0.00000000E+00   0.00000000E+00   1.51577003E+04
   1.00625000E+03   5.00000000E-01   5.00000000E-01  -4.43909246E+04   3.02036899E+03   0.00000000E+00   9.11868324E+03   1.72090885E+03   6.24834860E+03   7.19372818E+01   0.00000000E+00   0.00000000E+00   0.00000000E+00   0.00000000E+00   1.56885137E-02   1.10531337E-05   9.38108840E+02   6.60108039E-05  -1.94549732E-06   0.00000000E+00   0.00000000E+00   0.00000000E+00   1.51566232E+04
   1.02375000E+03   5.00000000E-01   5.00000000E-01  -4.43900805E+04   3.02036899E+03   0.00000000E+00   9.11851756E+03   1.72089920E+03   6.24821263E+03   7.19372818E+01   0.00000000E+00   0.00000000E+00   0.00000000E+00   0.00000000E+00   1.32679180E-02   1.10531335E-05   9.37889815E+02   9.41721142E-05  -1.94549732E-06   0.00000000E+00   0.00000000E+00   0.00000000E+00   1.51555631E+04
   1.04125000E+03   5.00000000E-01   5.00000000E-01  -4.43891384E+04   3.02036899E+03   0.00000000E+00   9.11833675E+03   1.72087812E+03   6.24804569E+03   7.19372818E+01   0.00000000E+00   0.00000000E+00   0.00000000E+00   0.00000000E+00   1.12109601E-02   1.10531333E-05   9.37687531E+02   1.34542908E-04  -1.94549732E-06   0.00000000E+00   0.00000000E+00   0.00000000E+00   1.51545176E+04
   1.05875000E+03   5.00000000E-01   5.00000000E-01  -4.43881076E+04   3.02036899E+03   0.00000000E+00   9.11814161E+03   1.72084619E+03   6.24785173E+03   7.19372818E+01   0.00000000E+00   0.00000000E+00   0.00000000E+00   0.00000000E+00   9.46597284E-03   1.10531331E-05   9.37500708E+02   1.92443148E-04  -1.94549732E-06   0.00000000E+00   0.00000000E+00   0.00000000E+00   1.51534854E+04
   1.07625000E+03   5.00000000E-01   5.00000000E-01  -4.43869984E+04   3.02036899E+03   0.00000000E+00   9.11793354E+03   1.72080430E+03   6.24763421E+03   7.19372818E+01   0.00000000E+00   0.00000000E+00   0.00000000E+00   0.00000000E+00   7.98752274E-03   1.10531329E-05   9.37328077E+02   2.75550101E-04  -1.94549732E-06   0.00000000E+00   0.00000000E+00   0.00000000E+00   1.51524662E+04
   1.09375000E+03   5.00000000E-01   5.00000000E-01  -4.43858212E+04   3.02036899E+03   0.00000000E+00   9.11771443E+03   1.72075354E+03   6.24739607E+03   7.19372818E+01   0.00000000E+00   0.00000000E+00   0.00000000E+00   0.00000000E+00   6.73605328E-03   1.10531327E-05   9.37168416E+02   3.94967661E-04  -1.94549732E-06   0.00000000E+00   0.00000000E+00   0.00000000E+00   1.51514604E+04
   1.11125000E+03   5.00000000E-01   5.00000000E-01  -4.43845869E+04   3.02036899E+03   0.00000000E+00   9.11748656E+03   1.72069513E+03   6.24713978E+03   7.19372818E+01   0.00000000E+00   0.00000000E+00   0.00000000E+00   0.00000000E+00   5.67742785E-03   1.10531325E-05   9.37020574E+02   5.66793974E-04  -1.94549732E-06   0.00000000E+00   0.00000000E+00   0.00000000E+00   1.51504689E+04
   1.12875000E+03   5.00000000E-01   5.00000000E-01  -4.43833059E+04   3.02036899E+03   0.00000000E+00   9.11725249E+03   1.72063030E+03   6.24686743E+03   7.19372818E+01   0.00000000E+00   0.00000000E+00   0.00000000E+00   0.00000000E+00   4.78242326E-03   1.10531324E-05   9.36883487E+02   8.14426262E-04  -1.94549732E-06   0.00000000E+00   0.00000000E+00   0.00000000E+00   1.51494931E+04
   1.14625000E+03   5.00000000E-01   5.00000000E-01  -4.43819886E+04   3.02036899E+03   0.00000000E+00   9.11701495E+03   1.72056029E+03   6.24658073E+03   7.19372818E+01   0.00000000E+00   0.00000000E+00   0.00000000E+00   0.00000000E+00   4.02616727E-03   1.10531322E-05   9.36756190E+02   1.17195966E-03  -1.94549732E-06   0.00000000E+00   0.00000000E+00   0.00000000E+00   1.51485347E+04
   1.16375000E+03   5.00000000E-01   5.00000000E-01  -4.43806450E+04   3.02036899E+03   0.00000000E+00   9.11677677E+03   1.72048629E+03   6.24628116E+03   7.19372818E+01   0.00000000E+00   0.00000000E+00   0.00000000E+00   0.00000000E+00   3.38754570E-03   1.10531321E-05   9.36637808E+02   1.68921463E-03  -1.94549732E-06   0.00000000E+00   0.00000000E+00   0.00000000E+00   1.51475956E+04
   1.18125000E+03   5.00000000E-01   5.00000000E-01  -4.43792845E+04   3.02036899E+03   0.00000000E+00   9.11654070E+03   1.72040943E+03   6.24596996E+03   7.19372818E+01   0.00000000E+00   0.00000000E+00   0.00000000E+00   0.00000000E+00   2.84864901E-03   1.10531320E-05   9.36527543E+02   2.43919647E-03  -1.94549732E-06   0.00000000E+00   0.00000000E+00   0.00000000E+00   1.51466779E+04
   1.19875000E+03   5.00000000E-01   5.00000000E-01  -4.43779157E+04   3.02036899E+03   0.00000000E+00   9.11630941E+03   1.72033078E+03   6.24564825E+03   7.19372818E+01   0.00000000E+00   0.00000000E+00   0.00000000E+00   0.00000000E+00   2.39429505E-03   1.10531319E-05   9.36424662E+02   3.52919832E-03  -1.94549732E-06   0.00000000E+00   0.00000000E+00   0.00000000E+00   1.51457832E+04
   1.21625000E+03   5.00000000E-01   5.00000000E-01  -4.43765466E+04   3.02036899E+03   0.00000000E+00   9.11608537E+03   1.72025135E+03   6.24531706E+03   7.19372818E+01   0.00000000E+00   0.00000000E+00   0.00000000E+00   0.00000000E+00   2.01161180E-03   1.10531318E-05   9.36328482E+02   5.11738025E-03  -1.94549732E-06   0.00000000E+00   0.00000000E+00   0.00000000E+00   1.51449133E+04
   1.23375000E+03   5.00000000E-01   5.00000000E-01  -4.43751847E+04   3.02036899E+03   0.00000000E+00   9.11587084E+03   1.72017216E+03   6.24497737E+03   7.19372818E+01   0.00000000E+00   0.00000000E+00   0.00000000E+00   0.00000000E+00   1.68966438E-03   1.10531316E-05   9.36238347E+02   7.43760523E-03  -1.94549732E-06   0.00000000E+00   0.00000000E+00   0.00000000E+00   1.51440696E+04
   1.25125000E+03   5.00000000E-01   5.00000000E-01  -4.43738368E+04   3.02036899E+03   0.00000000E+00   9.11566787E+03   1.72009426E+03   6.24463018E+03   7.19372818E+01   0.00000000E+00   0.00000000E+00   0.00000000E+00   0.00000000E+00   1.41915381E-03   1.10531315E-05   9.36153617E+02   1.08367645E-02  -1.94549732E-06   0.00000000E+00   0.00000000E+00   0.00000000E+00   1.51432531E+04
   1.26875000E+03   5.00000000E-01   5.00000000E-01  -4.43725086E+04   3.02036898E+03   0.00000000E+00   9.11547806E+03   1.72001873E+03   6.24427649E+03   7.19372818E+01   0.00000000E+00   0.00000000E+00   0.00000000E+00   0.00000000E+00   1.19212125E-03   1.10531315E-05   9.36073660E+02   1.58310561E-02  -1.94549732E-06   0.00000000E+00   0.00000000E+00   0.00000000E+00   1.51424645E+04
   1.28625000E+03   5.00000000E-01   5.00000000E-01  -4.43712055E+04   3.02036898E+03   0.00000000E+00   9.11530288E+03   1.71994690E+03   6.24391735E+03   7.19372818E+01   0.00000000E+00   0.00000000E+00   0.00000000E+00   0.00000000E+00   1.00181495E-03   1.10531314E-05   9.35997849E+02   2.31911129E-02  -1.94549732E-06   0.00000000E+00   0.00000000E+00   0.00000000E+00   1.51417042E+04
   1.30375000E+03   5.00000000E-01   5.00000000E-01  -4.43699326E+04   3.02036898E+03   0.00000000E+00   9.11514354E+03   1.71988037E+03   6.24355385E+03   7.19372818E+01   0.00000000E+00   0.00000000E+00   0.00000000E+00   0.00000000E+00   8.42475000E-04   1.10531313E-05   9.35925560E+02   3.40711747E-02  -1.94549732E-06   0.00000000E+00   0.00000000E+00   0.00000000E+00   1.51409723E+04