 TITLE = "Total Component Concentration in Minerals" 
VARIABLES = "X"          "Y"              "Z"            "H+"             "Al+++"          "CO2(aq)"        "Mg++"           "Ca++"           "Fe++"           "Fe+++"          "Ba++"           "Sr++"           "Cl-"            "K+"             "Na+"            "SO4--"          "O2(aq)"         "B(OH)3(aq)"     "HPO4--"         "NO3-"           "H4SiO4(aq)"    
 ZONE I=          10 , J=           1 , K=           1  F=POINT
   1.75000000E+02   5.00000000E-01   5.00000000E-01  -5.21738720E+04   2.06327568E+03   0.00000000E+00   1.95034715E+04   4.85197460E+03   2.20753455E+03   7.19352338E-06   0.00000000E+00   0.00000000E+00   0.00000000E+00   0.00000000E+00   1.54841061E+03   4.34516355E+03   0.00000000E+00   0.00000000E+00   0.00000000E+00   0.00000000E+00   1.91218600E+04
   5.25000000E+02   5.00000000E-01   5.00000000E-01  -5.21739194E+04   2.06327568E+03   0.00000000E+00   1.95035185E+04   4.85277137E+03   2.20752157E+03   7.19280338E-06   0.00000000E+00   0.00000000E+00   0.00000000E+00   0.00000000E+00   1.54839005E+03   4.34596031E+03   0.00000000E+00   0.00000000E+00   0.00000000E+00   0.00000000E+00   1.91218183E+04
   8.75000000E+02   5.00000000E-01   5.00000000E-01  -5.21740057E+04   2.06327568E+03   0.00000000E+00   1.95036019E+04   4.85338178E+03   2.20749837E+03   7.19116656E-06   0.00000000E+00   0.00000000E+00   0.00000000E+00   0.00000000E+00   1.54835598E+03   4.34657072E+03   0.00000000E+00   0.00000000E+00   0.00000000E+00   0.00000000E+00   1.91217533E+04
   1.22500000E+03   5.00000000E-01   5.00000000E-01  -5.21741001E+04   2.06327568E+03   0.00000000E+00   1.95037094E+04   4.85382614E+03   2.20745872E+03   7.18784624E-06   0.00000000E+00   0.00000000E+00   0.00000000E+00   0.00000000E+00   1.54831462E+03   4.34701508E+03   0.00000000E+00   0.00000000E+00   0.00000000E+00   0.00000000E+00   1.91216727E+04
   1.57500000E+03   5.00000000E-01   5.00000000E-01  -5.21741613E+04   2.06327568E+03   0.00000000E+00   1.95038312E+04   4.85413662E+03   2.20738953E+03   7.18115745E-06   0.00000000E+00   0.00000000E+00   0.00000000E+00   0.00000000E+00   1.54827057E+03   4.34732556E+03   0.00000000E+00   0.00000000E+00   0.00000000E+00   0.00000000E+00   1.91215774E+04
   1.92500000E+03   5.00000000E-01   5.00000000E-01  -5.21741889E+04   2.06327568E+03   0.00000000E+00   1.95039889E+04   4.85434712E+03   2.20727309E+03   7.16843154E-06   0.00000000E+00   0.00000000E+00   0.00000000E+00   0.00000000E+00   1.54821569E+03   4.34753607E+03   0.00000000E+00   0.00000000E+00   0.00000000E+00   0.00000000E+00   1.91214469E+04
   2.27500000E+03   5.00000000E-01   5.00000000E-01  -5.21742015E+04   2.06327568E+03   0.00000000E+00   1.95042100E+04   4.85448441E+03   2.20709750E+03   7.14641882E-06   0.00000000E+00   0.00000000E+00   0.00000000E+00   0.00000000E+00   1.54813738E+03   4.34767335E+03   0.00000000E+00   0.00000000E+00   0.00000000E+00   0.00000000E+00   1.91212544E+04
   2.62500000E+03   5.00000000E-01   5.00000000E-01  -5.21742142E+04   2.06327568E+03   0.00000000E+00   1.95044962E+04   4.85456843E+03   2.20687025E+03   7.11489065E-06   0.00000000E+00   0.00000000E+00   0.00000000E+00   0.00000000E+00   1.54803204E+03   4.34775738E+03   0.00000000E+00   0.00000000E+00   0.00000000E+00   0.00000000E+00   1.91209947E+04
   2.97500000E+03   5.00000000E-01   5.00000000E-01  -5.21742374E+04   2.06327568E+03   0.00000000E+00   1.95048185E+04   4.85461425E+03   2.20662097E+03   7.08330915E-06   0.00000000E+00   0.00000000E+00   0.00000000E+00   0.00000000E+00   1.54790936E+03   4.34780319E+03   0.00000000E+00   0.00000000E+00   0.00000000E+00   0.00000000E+00   1.91206945E+04
   3.32500000E+03   5.00000000E-01   5.00000000E-01  -5.21742775E+04   2.06327568E+03   0.00000000E+00   1.95051293E+04   4.85463331E+03   2.20639022E+03   7.07353857E-06   0.00000000E+00   0.00000000E+00   0.00000000E+00   0.00000000E+00   1.54778927E+03   4.34782225E+03   0.00000000E+00   0.00000000E+00   0.00000000E+00   0.00000000E+00   1.91204053E+04
