 TITLE = "Total Component Concentration in Minerals" 
VARIABLES = "X"          "Y"              "Z"            "H+"             "Al+++"          "CO2(aq)"        "Mg++"           "Ca++"           "Fe++"           "Fe+++"          "Ba++"           "Sr++"           "Cl-"            "F-"             "K+"             "HS-"            "Na+"            "SO4--"          "O2(aq)"         "B(OH)3(aq)"     "HPO4--"         "NO3-"           "H4SiO4(aq)"    
 ZONE I=         100 , J=           1 , K=           1  F=POINT
   1.75000000E+01   5.00000000E-01   5.00000000E-01  -4.35470149E+04   2.90249273E+03   0.00000000E+00   9.06118469E+03   1.70931537E+03   6.17294718E+03   7.19372702E+00   0.00000000E+00   0.00000000E+00   0.00000000E+00   0.00000000E+00   0.00000000E+00   1.01402563E-05   9.31061059E+02   2.43096400E-06  -1.76251094E-06   0.00000000E+00   0.00000000E+00   0.00000000E+00   1.51114600E+04
   5.25000000E+01   5.00000000E-01   5.00000000E-01  -4.35404105E+04   2.90248956E+03   0.00000000E+00   9.04753739E+03   1.70931494E+03   6.18037631E+03   7.19372708E+00   0.00000000E+00   0.00000000E+00   0.00000000E+00   0.00000000E+00   0.00000000E+00   1.01403973E-05   9.36903400E+02   2.43868074E-06  -1.76251094E-06   0.00000000E+00   0.00000000E+00   0.00000000E+00   1.51252964E+04
   8.75000000E+01   5.00000000E-01   5.00000000E-01  -4.35417948E+04   2.90248956E+03   0.00000000E+00   9.03735849E+03   1.70931341E+03   6.19003868E+03   7.19372707E+00   0.00000000E+00   0.00000000E+00   0.00000000E+00   0.00000000E+00   0.00000000E+00   1.01405053E-05   9.39323770E+02   2.44735770E-06  -1.76251094E-06   0.00000000E+00   0.00000000E+00   0.00000000E+00   1.51281885E+04
   1.22500000E+02   5.00000000E-01   5.00000000E-01  -4.35436959E+04   2.90248956E+03   0.00000000E+00   9.02756127E+03   1.70931266E+03   6.19991560E+03   7.19372707E+00   0.00000000E+00   0.00000000E+00   0.00000000E+00   0.00000000E+00   0.00000000E+00   1.01405749E-05   9.41066993E+02   2.45712358E-06  -1.76251094E-06   0.00000000E+00   0.00000000E+00   0.00000000E+00   1.51283931E+04
   1.57500000E+02   5.00000000E-01   5.00000000E-01  -4.35452616E+04   2.90248956E+03   0.00000000E+00   9.01869065E+03   1.70931271E+03   6.20881263E+03   7.19372707E+00   0.00000000E+00   0.00000000E+00   0.00000000E+00   0.00000000E+00   0.00000000E+00   1.01406114E-05   9.42579804E+02   2.46812022E-06  -1.76251094E-06   0.00000000E+00   0.00000000E+00   0.00000000E+00   1.51282431E+04
   1.92500000E+02   5.00000000E-01   5.00000000E-01  -4.35464876E+04   2.90248956E+03   0.00000000E+00   9.01117343E+03   1.70931243E+03   6.21630407E+03   7.19372707E+00   0.00000000E+00   0.00000000E+00   0.00000000E+00   0.00000000E+00   0.00000000E+00   1.01406226E-05   9.43857897E+02   2.48050713E-06  -1.76251094E-06   0.00000000E+00   0.00000000E+00   0.00000000E+00   1.51280833E+04
   2.27500000E+02   5.00000000E-01   5.00000000E-01  -4.35474938E+04   2.90248956E+03   0.00000000E+00   9.00509955E+03   1.70931153E+03   6.22236975E+03   7.19372707E+00   0.00000000E+00   0.00000000E+00   0.00000000E+00   0.00000000E+00   0.00000000E+00   1.01406159E-05   9.44882323E+02   2.49446606E-06  -1.76251094E-06   0.00000000E+00   0.00000000E+00   0.00000000E+00   1.51279319E+04
   2.62500000E+02   5.00000000E-01   5.00000000E-01  -4.35483790E+04   2.90248956E+03   0.00000000E+00   9.00035872E+03   1.70931117E+03   6.22716235E+03   7.19372707E+00   0.00000000E+00   0.00000000E+00   0.00000000E+00   0.00000000E+00   0.00000000E+00   1.01405970E-05   9.45664715E+02   2.51020596E-06  -1.76251094E-06   0.00000000E+00   0.00000000E+00   0.00000000E+00   1.51277728E+04
   2.97500000E+02   5.00000000E-01   5.00000000E-01  -4.35492088E+04   2.90248956E+03   0.00000000E+00   8.99676382E+03   1.70931128E+03   6.23088694E+03   7.19372707E+00   0.00000000E+00   0.00000000E+00   0.00000000E+00   0.00000000E+00   0.00000000E+00   1.01405703E-05   9.46234913E+02   2.52796890E-06  -1.76251094E-06   0.00000000E+00   0.00000000E+00   0.00000000E+00   1.51276001E+04
   3.32500000E+02   5.00000000E-01   5.00000000E-01  -4.35500210E+04   2.90248956E+03   0.00000000E+00   8.99411200E+03   1.70931136E+03   6.23374824E+03   7.19372706E+00   0.00000000E+00   0.00000000E+00   0.00000000E+00   0.00000000E+00   0.00000000E+00   1.01405389E-05   9.46627955E+02   2.54803708E-06  -1.76251094E-06   0.00000000E+00   0.00000000E+00   0.00000000E+00   1.51274119E+04
   3.67500000E+02   5.00000000E-01   5.00000000E-01  -4.35508339E+04   2.90248956E+03   0.00000000E+00   8.99221276E+03   1.70931180E+03   6.23592867E+03   7.19372706E+00   0.00000000E+00   0.00000000E+00   0.00000000E+00   0.00000000E+00   0.00000000E+00   1.01405052E-05   9.46877607E+02   2.57074102E-06  -1.76251094E-06   0.00000000E+00   0.00000000E+00   0.00000000E+00   1.51272063E+04
   4.02500000E+02   5.00000000E-01   5.00000000E-01  -4.35516540E+04   2.90248956E+03   0.00000000E+00   8.99090338E+03   1.70931265E+03   6.23757907E+03   7.19372706E+00   0.00000000E+00   0.00000000E+00   0.00000000E+00   0.00000000E+00   0.00000000E+00   1.01404707E-05   9.47013933E+02   2.59646983E-06  -1.76251094E-06   0.00000000E+00   0.00000000E+00   0.00000000E+00   1.51269851E+04
   4.37500000E+02   5.00000000E-01   5.00000000E-01  -4.35524774E+04   2.90248956E+03   0.00000000E+00   8.99004895E+03   1.70931377E+03   6.23881989E+03   7.19372706E+00   0.00000000E+00   0.00000000E+00   0.00000000E+00   0.00000000E+00   0.00000000E+00   1.01404364E-05   9.47062347E+02   2.62568405E-06  -1.76251094E-06   0.00000000E+00   0.00000000E+00   0.00000000E+00   1.51267500E+04
   4.72500000E+02   5.00000000E-01   5.00000000E-01  -4.35532933E+04   2.90248956E+03   0.00000000E+00   8.98953960E+03   1.70931510E+03   6.23974512E+03   7.19372706E+00   0.00000000E+00   0.00000000E+00   0.00000000E+00   0.00000000E+00   0.00000000E+00   1.01404032E-05   9.47043879E+02   2.65893165E-06  -1.76251094E-06   0.00000000E+00   0.00000000E+00   0.00000000E+00   1.51265017E+04
   5.07500000E+02   5.00000000E-01   5.00000000E-01  -4.35540860E+04   2.90248956E+03   0.00000000E+00   8.98928703E+03   1.70931660E+03   6.24042657E+03   7.19372706E+00   0.00000000E+00   0.00000000E+00   0.00000000E+00   0.00000000E+00   0.00000000E+00   1.01403715E-05   9.46975802E+02   2.69686827E-06  -1.76251094E-06   0.00000000E+00   0.00000000E+00   0.00000000E+00   1.51262412E+04
   5.42500000E+02   5.00000000E-01   5.00000000E-01  -4.35548365E+04   2.90248955E+03   0.00000000E+00   8.98922065E+03   1.70931823E+03   6.24091834E+03   7.19372705E+00   0.00000000E+00   0.00000000E+00   0.00000000E+00   0.00000000E+00   0.00000000E+00   1.01403416E-05   9.46872242E+02   2.74028298E-06  -1.76251094E-06   0.00000000E+00   0.00000000E+00   0.00000000E+00   1.51259691E+04
   5.77500000E+02   5.00000000E-01   5.00000000E-01  -4.35555242E+04   2.90248955E+03   0.00000000E+00   8.98928416E+03   1.70931995E+03   6.24126071E+03   7.19372704E+00   0.00000000E+00   0.00000000E+00   0.00000000E+00   0.00000000E+00   0.00000000E+00   1.01403137E-05   9.46744719E+02   2.79013135E-06  -1.76251094E-06   0.00000000E+00   0.00000000E+00   0.00000000E+00   1.51256857E+04
   6.12500000E+02   5.00000000E-01   5.00000000E-01  -4.35561286E+04   2.90248955E+03   0.00000000E+00   8.98943294E+03   1.70932174E+03   6.24148341E+03   7.19372704E+00   0.00000000E+00   0.00000000E+00   0.00000000E+00   0.00000000E+00   0.00000000E+00   1.01402877E-05   9.46602560E+02   2.84757798E-06  -1.76251094E-06   0.00000000E+00   0.00000000E+00   0.00000000E+00   1.51253914E+04
   6.47500000E+02   5.00000000E-01   5.00000000E-01  -4.35566307E+04   2.90248955E+03   0.00000000E+00   8.98963209E+03   1.70932358E+03   6.24160818E+03   7.19372702E+00   0.00000000E+00   0.00000000E+00   0.00000000E+00   0.00000000E+00   0.00000000E+00   1.01402638E-05   9.46453204E+02   2.91405198E-06  -1.76251094E-06   0.00000000E+00   0.00000000E+00   0.00000000E+00   1.51250863E+04
   6.82500000E+02   5.00000000E-01   5.00000000E-01  -4.35570148E+04   2.90248955E+03   0.00000000E+00   8.98985491E+03   1.70932546E+03   6.24165089E+03   7.19372700E+00   0.00000000E+00   0.00000000E+00   0.00000000E+00   0.00000000E+00   0.00000000E+00   1.01402419E-05   9.46302422E+02   2.99131953E-06  -1.76251094E-06   0.00000000E+00   0.00000000E+00   0.00000000E+00   1.51247709E+04
   7.17500000E+02   5.00000000E-01   5.00000000E-01  -4.35572691E+04   2.90248955E+03   0.00000000E+00   8.99008186E+03   1.70932740E+03   6.24162316E+03   7.19372698E+00   0.00000000E+00   0.00000000E+00   0.00000000E+00   0.00000000E+00   0.00000000E+00   1.01402219E-05   9.46154471E+02   3.08157978E-06  -1.76251094E-06   0.00000000E+00   0.00000000E+00   0.00000000E+00   1.51244456E+04
   7.52500000E+02   5.00000000E-01   5.00000000E-01  -4.35573873E+04   2.90248955E+03   0.00000000E+00   8.99029963E+03   1.70932938E+03   6.24153359E+03   7.19372694E+00   0.00000000E+00   0.00000000E+00   0.00000000E+00   0.00000000E+00   0.00000000E+00   1.01402038E-05   9.46012241E+02   3.18759262E-06  -1.76251094E-06   0.00000000E+00   0.00000000E+00   0.00000000E+00   1.51241112E+04
   7.87500000E+02   5.00000000E-01   5.00000000E-01  -4.35573681E+04   2.90248954E+03   0.00000000E+00   8.99050038E+03   1.70933142E+03   6.24138867E+03   7.19372688E+00   0.00000000E+00   0.00000000E+00   0.00000000E+00   0.00000000E+00   0.00000000E+00   1.01401873E-05   9.45877390E+02   3.31285035E-06  -1.76251094E-06   0.00000000E+00   0.00000000E+00   0.00000000E+00   1.51237687E+04
   8.22500000E+02   5.00000000E-01   5.00000000E-01  -4.35572163E+04   2.90248954E+03   0.00000000E+00   8.99068097E+03   1.70933351E+03   6.24119353E+03   7.19372680E+00   0.00000000E+00   0.00000000E+00   0.00000000E+00   0.00000000E+00   0.00000000E+00   1.01401724E-05   9.45750491E+02   3.46181071E-06  -1.76251094E-06   0.00000000E+00   0.00000000E+00   0.00000000E+00   1.51234195E+04
   8.57500000E+02   5.00000000E-01   5.00000000E-01  -4.35569412E+04   2.90248954E+03   0.00000000E+00   8.99084217E+03   1.70933560E+03   6.24095233E+03   7.19372669E+00   0.00000000E+00   0.00000000E+00   0.00000000E+00   0.00000000E+00   0.00000000E+00   1.01401590E-05   9.45631209E+02   3.64021596E-06  -1.76251094E-06   0.00000000E+00   0.00000000E+00   0.00000000E+00   1.51230652E+04
   8.92500000E+02   5.00000000E-01   5.00000000E-01  -4.35565566E+04   2.90248954E+03   0.00000000E+00   8.99098779E+03   1.70933769E+03   6.24066869E+03   7.19372653E+00   0.00000000E+00   0.00000000E+00   0.00000000E+00   0.00000000E+00   0.00000000E+00   1.01401470E-05   9.45518483E+02   3.85553456E-06  -1.76251094E-06   0.00000000E+00   0.00000000E+00   0.00000000E+00   1.51227078E+04
   9.27500000E+02   5.00000000E-01   5.00000000E-01  -4.35560792E+04   2.90248953E+03   0.00000000E+00   8.99112373E+03   1.70933974E+03   6.24034589E+03   7.19372632E+00   0.00000000E+00   0.00000000E+00   0.00000000E+00   0.00000000E+00   0.00000000E+00   1.01401363E-05   9.45410722E+02   4.11757891E-06  -1.76251094E-06   0.00000000E+00   0.00000000E+00   0.00000000E+00   1.51223490E+04
   9.62500000E+02   5.00000000E-01   5.00000000E-01  -4.35555278E+04   2.90248953E+03   0.00000000E+00   8.99125719E+03   1.70934181E+03   6.23998704E+03   7.19372604E+00   0.00000000E+00   0.00000000E+00   0.00000000E+00   0.00000000E+00   0.00000000E+00   1.01401267E-05   9.45306013E+02   4.43937903E-06  -1.76251094E-06   0.00000000E+00   0.00000000E+00   0.00000000E+00   1.51219906E+04
   9.97500000E+02   5.00000000E-01   5.00000000E-01  -4.35549219E+04   2.90248953E+03   0.00000000E+00   8.99139588E+03   1.70934397E+03   6.23959507E+03   7.19372569E+00   0.00000000E+00   0.00000000E+00   0.00000000E+00   0.00000000E+00   0.00000000E+00   1.01401181E-05   9.45202303E+02   4.83843281E-06  -1.76251094E-06   0.00000000E+00   0.00000000E+00   0.00000000E+00   1.51216342E+04
   1.03250000E+03   5.00000000E-01   5.00000000E-01  -4.35542805E+04   2.90248952E+03   0.00000000E+00   8.99154767E+03   1.70934626E+03   6.23917266E+03   7.19372526E+00   0.00000000E+00   0.00000000E+00   0.00000000E+00   0.00000000E+00   0.00000000E+00   1.01401105E-05   9.45097577E+02   5.33851752E-06  -1.76251094E-06   0.00000000E+00   0.00000000E+00   0.00000000E+00   1.51212815E+04
   1.06750000E+03   5.00000000E-01   5.00000000E-01  -4.35536215E+04   2.90248952E+03   0.00000000E+00   8.99172018E+03   1.70934857E+03   6.23872213E+03   7.19372475E+00   0.00000000E+00   0.00000000E+00   0.00000000E+00   0.00000000E+00   0.00000000E+00   1.01401037E-05   9.44989989E+02   5.97234880E-06  -1.76251094E-06   0.00000000E+00   0.00000000E+00   0.00000000E+00   1.51209343E+04
   1.10250000E+03   5.00000000E-01   5.00000000E-01  -4.35529606E+04   2.90248951E+03   0.00000000E+00   8.99192017E+03   1.70935070E+03   6.23824563E+03   7.19372416E+00   0.00000000E+00   0.00000000E+00   0.00000000E+00   0.00000000E+00   0.00000000E+00   1.01400977E-05   9.44877943E+02   6.78553591E-06  -1.76251094E-06   0.00000000E+00   0.00000000E+00   0.00000000E+00   1.51205940E+04
   1.13750000E+03   5.00000000E-01   5.00000000E-01  -4.35523115E+04   2.90248950E+03   0.00000000E+00   8.99215276E+03   1.70935259E+03   6.23774549E+03   7.19372351E+00   0.00000000E+00   0.00000000E+00   0.00000000E+00   0.00000000E+00   0.00000000E+00   1.01400923E-05   9.44760132E+02   7.84254739E-06  -1.76251094E-06   0.00000000E+00   0.00000000E+00   0.00000000E+00   1.51202614E+04
   1.17250000E+03   5.00000000E-01   5.00000000E-01  -4.35516854E+04   2.90248950E+03   0.00000000E+00   8.99242123E+03   1.70935449E+03   6.23722439E+03   7.19372280E+00   0.00000000E+00   0.00000000E+00   0.00000000E+00   0.00000000E+00   0.00000000E+00   1.01400876E-05   9.44635590E+02   9.23584155E-06  -1.76251094E-06   0.00000000E+00   0.00000000E+00   0.00000000E+00   1.51199365E+04
   1.20750000E+03   5.00000000E-01   5.00000000E-01  -4.35510918E+04   2.90248949E+03   0.00000000E+00   8.99272749E+03   1.70935677E+03   6.23668495E+03   7.19372207E+00   0.00000000E+00   0.00000000E+00   0.00000000E+00   0.00000000E+00   0.00000000E+00   1.01400834E-05   9.44503735E+02   1.11000591E-05  -1.76251094E-06   0.00000000E+00   0.00000000E+00   0.00000000E+00   1.51196191E+04
   1.24250000E+03   5.00000000E-01   5.00000000E-01  -4.35505374E+04   2.90248948E+03   0.00000000E+00   8.99307331E+03   1.70935931E+03   6.23612911E+03   7.19372134E+00   0.00000000E+00   0.00000000E+00   0.00000000E+00   0.00000000E+00   0.00000000E+00   1.01400797E-05   9.44364409E+02   1.36344507E-05  -1.76251094E-06   0.00000000E+00   0.00000000E+00   0.00000000E+00   1.51193103E+04
   1.27750000E+03   5.00000000E-01   5.00000000E-01  -4.35500270E+04   2.90248947E+03   0.00000000E+00   8.99346024E+03   1.70936139E+03   6.23555820E+03   7.19372063E+00   0.00000000E+00   0.00000000E+00   0.00000000E+00   0.00000000E+00   0.00000000E+00   1.01400764E-05   9.44217799E+02   1.71389194E-05  -1.76251094E-06   0.00000000E+00   0.00000000E+00   0.00000000E+00   1.51190120E+04
   1.31250000E+03   5.00000000E-01   5.00000000E-01  -4.35495632E+04   2.90248946E+03   0.00000000E+00   8.99388783E+03   1.70936252E+03   6.23497436E+03   7.19372001E+00   0.00000000E+00   0.00000000E+00   0.00000000E+00   0.00000000E+00   0.00000000E+00   1.01400735E-05   9.44064266E+02   2.20729444E-05  -1.76251094E-06   0.00000000E+00   0.00000000E+00   0.00000000E+00   1.51187246E+04
   1.34750000E+03   5.00000000E-01   5.00000000E-01  -4.35491477E+04   2.90248944E+03   0.00000000E+00   8.99435252E+03   1.70936317E+03   6.23438132E+03   7.19371954E+00   0.00000000E+00   0.00000000E+00   0.00000000E+00   0.00000000E+00   0.00000000E+00   1.01400710E-05   9.43904281E+02   2.91536512E-05  -1.76251094E-06   0.00000000E+00   0.00000000E+00   0.00000000E+00   1.51184459E+04
   1.38250000E+03   5.00000000E-01   5.00000000E-01  -4.35487819E+04   2.90248943E+03   0.00000000E+00   8.99484561E+03   1.70936587E+03   6.23378560E+03   7.19371928E+00   0.00000000E+00   0.00000000E+00   0.00000000E+00   0.00000000E+00   0.00000000E+00   1.01400687E-05   9.43738354E+02   3.95220429E-05  -1.76251094E-06   0.00000000E+00   0.00000000E+00   0.00000000E+00   1.51181703E+04
   1.41750000E+03   5.00000000E-01   5.00000000E-01  -4.35484654E+04   2.90248941E+03   0.00000000E+00   8.99535661E+03   1.70937297E+03   6.23319478E+03   7.19371916E+00   0.00000000E+00   0.00000000E+00   0.00000000E+00   0.00000000E+00   0.00000000E+00   1.01400667E-05   9.43567397E+02   5.50304916E-05  -1.76251094E-06   0.00000000E+00   0.00000000E+00   0.00000000E+00   1.51178936E+04
   1.45250000E+03   5.00000000E-01   5.00000000E-01  -4.35481956E+04   2.90248940E+03   0.00000000E+00   8.99589331E+03   1.70937833E+03   6.23260476E+03   7.19371896E+00   0.00000000E+00   0.00000000E+00   0.00000000E+00   0.00000000E+00   0.00000000E+00   1.01400650E-05   9.43393681E+02   7.87516037E-05  -1.76251094E-06   0.00000000E+00   0.00000000E+00   0.00000000E+00   1.51176343E+04
   1.48750000E+03   5.00000000E-01   5.00000000E-01  -4.35479700E+04   2.90248938E+03   0.00000000E+00   8.99645821E+03   1.70937992E+03   6.23201321E+03   7.19371876E+00   0.00000000E+00   0.00000000E+00   0.00000000E+00   0.00000000E+00   0.00000000E+00   1.01400634E-05   9.43218271E+02   1.15895343E-04  -1.76251094E-06   0.00000000E+00   0.00000000E+00   0.00000000E+00   1.51173984E+04
   1.52250000E+03   5.00000000E-01   5.00000000E-01  -4.35477886E+04   2.90248936E+03   0.00000000E+00   8.99702834E+03   1.70938583E+03   6.23143535E+03   7.19371901E+00   0.00000000E+00   0.00000000E+00   0.00000000E+00   0.00000000E+00   0.00000000E+00   1.01400621E-05   9.43040671E+02   1.75495577E-04  -1.76251094E-06   0.00000000E+00   0.00000000E+00   0.00000000E+00   1.51171634E+04
   1.55750000E+03   5.00000000E-01   5.00000000E-01  -4.35476519E+04   2.90248933E+03   0.00000000E+00   8.99758581E+03   1.70939897E+03   6.23088593E+03   7.19371942E+00   0.00000000E+00   0.00000000E+00   0.00000000E+00   0.00000000E+00   0.00000000E+00   1.01400609E-05   9.42861916E+02   2.73588620E-04  -1.76251094E-06   0.00000000E+00   0.00000000E+00   0.00000000E+00   1.51169217E+04
   1.59250000E+03   5.00000000E-01   5.00000000E-01  -4.35475627E+04   2.90248931E+03   0.00000000E+00   8.99814936E+03   1.70940820E+03   6.23035706E+03   7.19371935E+00   0.00000000E+00   0.00000000E+00   0.00000000E+00   0.00000000E+00   0.00000000E+00   1.01400598E-05   9.42685242E+02   4.39355214E-04  -1.76251094E-06   0.00000000E+00   0.00000000E+00   0.00000000E+00   1.51167086E+04
   1.62750000E+03   5.00000000E-01   5.00000000E-01  -4.35475179E+04   2.90248928E+03   0.00000000E+00   8.99871952E+03   1.70941093E+03   6.22984913E+03   7.19371895E+00   0.00000000E+00   0.00000000E+00   0.00000000E+00   0.00000000E+00   0.00000000E+00   1.01400588E-05   9.42511157E+02   7.27241285E-04  -1.76251094E-06   0.00000000E+00   0.00000000E+00   0.00000000E+00   1.51165296E+04
   1.66250000E+03   5.00000000E-01   5.00000000E-01  -4.35475114E+04   2.90248925E+03   0.00000000E+00   8.99927046E+03   1.70941087E+03   6.22938184E+03   7.19371797E+00   0.00000000E+00   0.00000000E+00   0.00000000E+00   0.00000000E+00   0.00000000E+00   1.01400580E-05   9.42338653E+02   1.24146211E-03  -1.76251094E-06   0.00000000E+00   0.00000000E+00   0.00000000E+00   1.51163635E+04
   1.69750000E+03   5.00000000E-01   5.00000000E-01  -4.35475488E+04   2.90248922E+03   0.00000000E+00   8.99979684E+03   1.70940981E+03   6.22896163E+03   7.19371667E+00   0.00000000E+00   0.00000000E+00   0.00000000E+00   0.00000000E+00   0.00000000E+00   1.01400573E-05   9.42167838E+02   2.18678341E-03  -1.76251094E-06   0.00000000E+00   0.00000000E+00   0.00000000E+00   1.51162183E+04
   1.73250000E+03   5.00000000E-01   5.00000000E-01  -4.35476386E+04   2.90248918E+03   0.00000000E+00   9.00030993E+03   1.70940930E+03   6.22858032E+03   7.19371647E+00   0.00000000E+00   0.00000000E+00   0.00000000E+00   0.00000000E+00   0.00000000E+00   1.01400566E-05   9.41998722E+02   3.97635220E-03  -1.76251094E-06   0.00000000E+00   0.00000000E+00   0.00000000E+00   1.51161193E+04
   1.76750000E+03   5.00000000E-01   5.00000000E-01  -4.35477747E+04   2.90248914E+03   0.00000000E+00   9.00079730E+03   1.70941131E+03   6.22824705E+03   7.19371748E+00   0.00000000E+00   0.00000000E+00   0.00000000E+00   0.00000000E+00   0.00000000E+00   1.01400561E-05   9.41829736E+02   7.46639751E-03  -1.76251094E-06   0.00000000E+00   0.00000000E+00   0.00000000E+00   1.51160659E+04
   1.80250000E+03   5.00000000E-01   5.00000000E-01  -4.35479494E+04   2.90248910E+03   0.00000000E+00   9.00123349E+03   1.70941837E+03   6.22798368E+03   7.19371854E+00   0.00000000E+00   0.00000000E+00   0.00000000E+00   0.00000000E+00   0.00000000E+00   1.01400555E-05   9.41658857E+02   1.44797757E-02  -1.76251094E-06   0.00000000E+00   0.00000000E+00   0.00000000E+00   1.51160465E+04
   1.83750000E+03   5.00000000E-01   5.00000000E-01  -4.35481602E+04   2.90248906E+03   0.00000000E+00   9.00159599E+03   1.70943653E+03   6.22781010E+03   7.19371901E+00   0.00000000E+00   0.00000000E+00   0.00000000E+00   0.00000000E+00   0.00000000E+00   1.01400551E-05   9.41484604E+02   2.90020493E-02  -1.76251094E-06   0.00000000E+00   0.00000000E+00   0.00000000E+00   1.51160531E+04
   1.87250000E+03   5.00000000E-01   5.00000000E-01  -4.35484081E+04   2.90248901E+03   0.00000000E+00   9.00187069E+03   1.70947602E+03   6.22773981E+03   7.19371915E+00   0.00000000E+00   0.00000000E+00   0.00000000E+00   0.00000000E+00   0.00000000E+00   1.01400547E-05   9.41306849E+02   5.99777960E-02  -1.76251094E-06   0.00000000E+00   0.00000000E+00   0.00000000E+00   1.51160850E+04
   1.90750000E+03   5.00000000E-01   5.00000000E-01  -4.35487015E+04   2.90248896E+03   0.00000000E+00   9.00206313E+03   1.70955256E+03   6.22777540E+03   7.19371934E+00   0.00000000E+00   0.00000000E+00   0.00000000E+00   0.00000000E+00   0.00000000E+00   1.01400544E-05   9.41127299E+02   1.27989754E-01  -1.76251094E-06   0.00000000E+00   0.00000000E+00   0.00000000E+00   1.51161605E+04
   1.94250000E+03   5.00000000E-01   5.00000000E-01  -4.35490469E+04   2.90248891E+03   0.00000000E+00   9.00218626E+03   1.70970969E+03   6.22791099E+03   7.19371954E+00   0.00000000E+00   0.00000000E+00   0.00000000E+00   0.00000000E+00   0.00000000E+00   1.01400541E-05   9.40948154E+02   2.81481032E-01  -1.76251094E-06   0.00000000E+00   0.00000000E+00   0.00000000E+00   1.51162991E+04
   1.97750000E+03   5.00000000E-01   5.00000000E-01  -4.35494387E+04   2.90248885E+03   0.00000000E+00   9.00224242E+03   1.71006394E+03   6.22813972E+03   7.19371980E+00   0.00000000E+00   0.00000000E+00   0.00000000E+00   0.00000000E+00   0.00000000E+00   1.01400538E-05   9.40771674E+02   6.36411660E-01  -1.76251094E-06   0.00000000E+00   0.00000000E+00   0.00000000E+00   1.51164969E+04
   2.01250000E+03   5.00000000E-01   5.00000000E-01  -4.35498625E+04   2.90248879E+03   0.00000000E+00   9.00221679E+03   1.71089621E+03   6.22846552E+03   7.19372013E+00   0.00000000E+00   0.00000000E+00   0.00000000E+00   0.00000000E+00   0.00000000E+00   1.01400535E-05   9.40601010E+02   1.47151120E+00  -1.76251094E-06   0.00000000E+00   0.00000000E+00   0.00000000E+00   1.51167264E+04
   2.04750000E+03   5.00000000E-01   5.00000000E-01  -4.35502984E+04   2.90248872E+03   0.00000000E+00   9.00208434E+03   1.71286039E+03   6.22889975E+03   7.19372035E+00   0.00000000E+00   0.00000000E+00   0.00000000E+00   0.00000000E+00   0.00000000E+00   1.01400533E-05   9.40440596E+02   3.43923592E+00  -1.76251094E-06   0.00000000E+00   0.00000000E+00   0.00000000E+00   1.51169544E+04
   2.08250000E+03   5.00000000E-01   5.00000000E-01  -4.35507110E+04   2.90248864E+03   0.00000000E+00   9.00181792E+03   1.71733722E+03   6.22944847E+03   7.19372038E+00   0.00000000E+00   0.00000000E+00   0.00000000E+00   0.00000000E+00   0.00000000E+00   1.01400531E-05   9.40295818E+02   7.91957015E+00  -1.76251094E-06   0.00000000E+00   0.00000000E+00   0.00000000E+00   1.51171593E+04
   2.11750000E+03   5.00000000E-01   5.00000000E-01  -4.35510320E+04   2.90248856E+03   0.00000000E+00   9.00138471E+03   1.72651247E+03   6.23010721E+03   7.19372024E+00   0.00000000E+00   0.00000000E+00   0.00000000E+00   0.00000000E+00   0.00000000E+00   1.01400530E-05   9.40172360E+02   1.70979704E+01  -1.76251094E-06   0.00000000E+00   0.00000000E+00   0.00000000E+00   1.51173272E+04
   2.15250000E+03   5.00000000E-01   5.00000000E-01  -4.35511792E+04   2.90248848E+03   0.00000000E+00   9.00075696E+03   1.74170070E+03   6.23085992E+03   7.19371995E+00   0.00000000E+00   0.00000000E+00   0.00000000E+00   0.00000000E+00   0.00000000E+00   1.01400528E-05   9.40075095E+02   3.22888137E+01  -1.76251094E-06   0.00000000E+00   0.00000000E+00   0.00000000E+00   1.51174534E+04
   2.18750000E+03   5.00000000E-01   5.00000000E-01  -4.35511418E+04   2.90248838E+03   0.00000000E+00   8.99994890E+03   1.76018514E+03   6.23168588E+03   7.19371952E+00   0.00000000E+00   0.00000000E+00   0.00000000E+00   0.00000000E+00   0.00000000E+00   1.01400527E-05   9.40006139E+02   5.07752552E+01  -1.76251094E-06   0.00000000E+00   0.00000000E+00   0.00000000E+00   1.51175607E+04
   2.22250000E+03   5.00000000E-01   5.00000000E-01  -4.35510126E+04   2.90248828E+03   0.00000000E+00   8.99901827E+03   1.77655925E+03   6.23257418E+03   7.19371896E+00   0.00000000E+00   0.00000000E+00   0.00000000E+00   0.00000000E+00   0.00000000E+00   1.01400525E-05   9.39964713E+02   6.71507197E+01  -1.76251094E-06   0.00000000E+00   0.00000000E+00   0.00000000E+00   1.51176916E+04
   2.25750000E+03   5.00000000E-01   5.00000000E-01  -4.35508916E+04   2.90248817E+03   0.00000000E+00   8.99801266E+03   1.78777252E+03   6.23352776E+03   7.19371827E+00   0.00000000E+00   0.00000000E+00   0.00000000E+00   0.00000000E+00   0.00000000E+00   1.01400524E-05   9.39949379E+02   7.83646507E+01  -1.76251094E-06   0.00000000E+00   0.00000000E+00   0.00000000E+00   1.51178683E+04
   2.29250000E+03   5.00000000E-01   5.00000000E-01  -4.35508386E+04   2.90248805E+03   0.00000000E+00   8.99695207E+03   1.79343235E+03   6.23455722E+03   7.19371745E+00   0.00000000E+00   0.00000000E+00   0.00000000E+00   0.00000000E+00   0.00000000E+00   1.01400523E-05   9.39958783E+02   8.40244023E+01  -1.76251094E-06   0.00000000E+00   0.00000000E+00   0.00000000E+00   1.51180873E+04
   2.32750000E+03   5.00000000E-01   5.00000000E-01  -4.35508829E+04   2.90248792E+03   0.00000000E+00   8.99583862E+03   1.79431448E+03   6.23567551E+03   7.19371651E+00   0.00000000E+00   0.00000000E+00   0.00000000E+00   0.00000000E+00   0.00000000E+00   1.01400522E-05   9.39992152E+02   8.49056725E+01  -1.76251094E-06   0.00000000E+00   0.00000000E+00   0.00000000E+00   1.51183346E+04
   2.36250000E+03   5.00000000E-01   5.00000000E-01  -4.35510117E+04   2.90248779E+03   0.00000000E+00   8.99465622E+03   1.79213743E+03   6.23689168E+03   7.19371543E+00   0.00000000E+00   0.00000000E+00   0.00000000E+00   0.00000000E+00   0.00000000E+00   1.01400522E-05   9.40050375E+02   8.27269305E+01  -1.76251094E-06   0.00000000E+00   0.00000000E+00   0.00000000E+00   1.51185912E+04
   2.39750000E+03   5.00000000E-01   5.00000000E-01  -4.35511860E+04   2.90248763E+03   0.00000000E+00   8.99338400E+03   1.78863482E+03   6.23820626E+03   7.19371421E+00   0.00000000E+00   0.00000000E+00   0.00000000E+00   0.00000000E+00   0.00000000E+00   1.01400521E-05   9.40135325E+02   7.92217590E+01  -1.76251094E-06   0.00000000E+00   0.00000000E+00   0.00000000E+00   1.51188430E+04
   2.43250000E+03   5.00000000E-01   5.00000000E-01  -4.35513787E+04   2.90248747E+03   0.00000000E+00   8.99201446E+03   1.78469257E+03   6.23961255E+03   7.19371284E+00   0.00000000E+00   0.00000000E+00   0.00000000E+00   0.00000000E+00   0.00000000E+00   1.01400520E-05   9.40248130E+02   7.52760570E+01  -1.76251094E-06   0.00000000E+00   0.00000000E+00   0.00000000E+00   1.51190882E+04
   2.46750000E+03   5.00000000E-01   5.00000000E-01  -4.35515895E+04   2.90248729E+03   0.00000000E+00   8.99055681E+03   1.78039905E+03   6.24110143E+03   7.19371131E+00   0.00000000E+00   0.00000000E+00   0.00000000E+00   0.00000000E+00   0.00000000E+00   1.01400519E-05   9.40388192E+02   7.09781352E+01  -1.76251094E-06   0.00000000E+00   0.00000000E+00   0.00000000E+00   1.51193338E+04
   2.50250000E+03   5.00000000E-01   5.00000000E-01  -4.35518217E+04   2.90248710E+03   0.00000000E+00   8.98902486E+03   1.77582473E+03   6.24266143E+03   7.19370959E+00   0.00000000E+00   0.00000000E+00   0.00000000E+00   0.00000000E+00   0.00000000E+00   1.01400519E-05   9.40554056E+02   6.63983891E+01  -1.76251094E-06   0.00000000E+00   0.00000000E+00   0.00000000E+00   1.51195847E+04
   2.53750000E+03   5.00000000E-01   5.00000000E-01  -4.35520591E+04   2.90248688E+03   0.00000000E+00   8.98742890E+03   1.77138533E+03   6.24427446E+03   7.19370767E+00   0.00000000E+00   0.00000000E+00   0.00000000E+00   0.00000000E+00   0.00000000E+00   1.01400518E-05   9.40744883E+02   6.19524493E+01  -1.76251094E-06   0.00000000E+00   0.00000000E+00   0.00000000E+00   1.51198374E+04
   2.57250000E+03   5.00000000E-01   5.00000000E-01  -4.35522743E+04   2.90248665E+03   0.00000000E+00   8.98578044E+03   1.76750239E+03   6.24591524E+03   7.19370552E+00   0.00000000E+00   0.00000000E+00   0.00000000E+00   0.00000000E+00   0.00000000E+00   1.01400518E-05   9.40960638E+02   5.80617567E+01  -1.76251094E-06   0.00000000E+00   0.00000000E+00   0.00000000E+00   1.51200850E+04
   2.60750000E+03   5.00000000E-01   5.00000000E-01  -4.35524479E+04   2.90248640E+03   0.00000000E+00   8.98409752E+03   1.76430361E+03   6.24755593E+03   7.19370312E+00   0.00000000E+00   0.00000000E+00   0.00000000E+00   0.00000000E+00   0.00000000E+00   1.01400518E-05   9.41201337E+02   5.48539341E+01  -1.76251094E-06   0.00000000E+00   0.00000000E+00   0.00000000E+00   1.51203246E+04