 TITLE = "Total Component Concentration in Minerals" 
VARIABLES = "X"          "Y"              "Z"            "H+"             "Al+++"          "CO2(aq)"        "Mg++"           "Ca++"           "Fe++"           "Fe+++"          "Ba++"           "Sr++"           "Li+"            "Rb+"            "Mn++"           "Zn++"           "Cu++"           "Cu+"            "Cl-"            "F-"             "K+"             "HS-"            "Na+"            "SO4--"          "O2(aq)"         "B(OH)3(aq)"     "HPO4--"         "NO3-"           "H4SiO4(aq)"     "Ti(OH)4(aq)"   
 ZONE I=         200 , J=           1 , K=           1  F=POINT
   8.75000000E+00   5.00000000E-01   5.00000000E-01  -4.46059722E+04   3.03735896E+03   0.00000000E+00   9.14037328E+03   1.72365535E+03   6.22187045E+03   7.34541571E+01   1.97683241E+00   2.16216063E+00   0.00000000E+00   0.00000000E+00   2.09071816E+01   6.95117004E+01   2.44618241E+00   7.03744214E+00   0.00000000E+00   8.14927676E+00   5.41610130E-06   3.51873213E+00   9.25527513E+02   6.58517740E+00  -1.94611258E-06   0.00000000E+00   0.00000000E+00   0.00000000E+00   1.51290813E+04   7.11043978E+00
   2.62500000E+01   5.00000000E-01   5.00000000E-01  -4.46281048E+04   3.03733253E+03   0.00000000E+00   9.14973681E+03   1.72387727E+03   6.22207811E+03   7.34541570E+01   1.94097910E+00   2.16216063E+00   0.00000000E+00   0.00000000E+00   2.09071816E+01   6.95117043E+01   2.44618241E+00   7.03729928E+00   0.00000000E+00   8.14927650E+00   1.07227719E-05   3.51866070E+00   9.28153183E+02   6.54932409E+00  -1.94611258E-06   0.00000000E+00   0.00000000E+00   0.00000000E+00   1.51477655E+04   7.11044014E+00
   4.37500000E+01   5.00000000E-01   5.00000000E-01  -4.46234339E+04   3.03733253E+03   0.00000000E+00   9.14562102E+03   1.72403310E+03   6.22228407E+03   7.34541570E+01   1.92671758E+00   2.16216063E+00   0.00000000E+00   0.00000000E+00   2.09071816E+01   6.95117044E+01   2.44618241E+00   7.03729928E+00   0.00000000E+00   8.14927626E+00   1.34891621E-05   3.51866070E+00   9.30990269E+02   6.53506257E+00  -1.94611258E-06   0.00000000E+00   0.00000000E+00   0.00000000E+00   1.51550602E+04   7.11044056E+00
   6.12500000E+01   5.00000000E-01   5.00000000E-01  -4.46182895E+04   3.03733253E+03   0.00000000E+00   9.14046853E+03   1.72416175E+03   6.22249824E+03   7.34541570E+01   1.92066475E+00   2.16216063E+00   0.00000000E+00   0.00000000E+00   2.09071816E+01   6.95117067E+01   2.44618241E+00   7.03729928E+00   0.00000000E+00   8.14927605E+00   1.53843544E-05   3.51866070E+00   9.35465262E+02   6.52900973E+00  -1.94611258E-06   0.00000000E+00   0.00000000E+00   0.00000000E+00   1.51674997E+04   7.11044109E+00
   7.87500000E+01   5.00000000E-01   5.00000000E-01  -4.46154610E+04   3.03733253E+03   0.00000000E+00   9.13596948E+03   1.72432723E+03   6.22273617E+03   7.34541570E+01   1.91791779E+00   2.16216063E+00   0.00000000E+00   0.00000000E+00   2.09071816E+01   6.95117110E+01   2.44618241E+00   7.03729928E+00   0.00000000E+00   8.14927585E+00   1.74538237E-05   3.51866070E+00   9.40828021E+02   6.52626278E+00  -1.94611258E-06   0.00000000E+00   0.00000000E+00   0.00000000E+00   1.51839142E+04   7.11044166E+00
   9.62500000E+01   5.00000000E-01   5.00000000E-01  -4.46139961E+04   3.03733253E+03   0.00000000E+00   9.13208522E+03   1.72453890E+03   6.22300230E+03   7.34541570E+01   1.91656656E+00   2.16216063E+00   0.00000000E+00   0.00000000E+00   2.09071816E+01   6.95117167E+01   2.44618241E+00   7.03729928E+00   0.00000000E+00   8.14927566E+00   1.96121471E-05   3.51866070E+00   9.46176010E+02   6.52491154E+00  -1.94611258E-06   0.00000000E+00   0.00000000E+00   0.00000000E+00   1.52009185E+04   7.11044221E+00
   1.13750000E+02   5.00000000E-01   5.00000000E-01  -4.46131485E+04   3.03733253E+03   0.00000000E+00   9.12879361E+03   1.72478295E+03   6.22329488E+03   7.34541570E+01   1.91582973E+00   2.16216063E+00   0.00000000E+00   0.00000000E+00   2.09071816E+01   6.95117234E+01   2.44618241E+00   7.03729928E+00   0.00000000E+00   8.14927549E+00   2.15165165E-05   3.51866070E+00   9.50838377E+02   6.52417471E+00  -1.94611258E-06   0.00000000E+00   0.00000000E+00   0.00000000E+00   1.52159630E+04   7.11044271E+00
   1.31250000E+02   5.00000000E-01   5.00000000E-01  -4.46127009E+04   3.03733253E+03   0.00000000E+00   9.12615236E+03   1.72504208E+03   6.22361061E+03   7.34541570E+01   1.91537399E+00   2.16216063E+00   0.00000000E+00   0.00000000E+00   2.09071816E+01   6.95117309E+01   2.44618241E+00   7.03729928E+00   0.00000000E+00   8.14927533E+00   2.29133165E-05   3.51866070E+00   9.54523567E+02   6.52371898E+00  -1.94611258E-06   0.00000000E+00   0.00000000E+00   0.00000000E+00   1.52279785E+04   7.11044316E+00
   1.48750000E+02   5.00000000E-01   5.00000000E-01  -4.46125919E+04   3.03733253E+03   0.00000000E+00   9.12414535E+03   1.72530301E+03   6.22394660E+03   7.34541570E+01   1.91505167E+00   2.16216062E+00   0.00000000E+00   0.00000000E+00   2.09071816E+01   6.95117391E+01   2.44618241E+00   7.03729928E+00   0.00000000E+00   8.14927519E+00   2.37075129E-05   3.51866070E+00   9.57234671E+02   6.52339666E+00  -1.94611258E-06   0.00000000E+00   0.00000000E+00   0.00000000E+00   1.52369372E+04   7.11044355E+00
   1.66250000E+02   5.00000000E-01   5.00000000E-01  -4.46127753E+04   3.03733253E+03   0.00000000E+00   9.12268714E+03   1.72555706E+03   6.22430050E+03   7.34541570E+01   1.91479504E+00   2.16216062E+00   0.00000000E+00   0.00000000E+00   2.09071816E+01   6.95117479E+01   2.44618241E+00   7.03729928E+00   0.00000000E+00   8.14927505E+00   2.39236281E-05   3.51866070E+00   9.59118591E+02   6.52314003E+00  -1.94611258E-06   0.00000000E+00   0.00000000E+00   0.00000000E+00   1.52432949E+04   7.11044387E+00
   1.83750000E+02   5.00000000E-01   5.00000000E-01  -4.46132039E+04   3.03733253E+03   0.00000000E+00   9.12167034E+03   1.72579863E+03   6.22467022E+03   7.34541570E+01   1.91457206E+00   2.16216062E+00   0.00000000E+00   0.00000000E+00   2.09071816E+01   6.95117571E+01   2.44618241E+00   7.03729928E+00   0.00000000E+00   8.14927493E+00   2.36490109E-05   3.51866070E+00   9.60358195E+02   6.52291705E+00  -1.94611258E-06   0.00000000E+00   0.00000000E+00   0.00000000E+00   1.52476272E+04   7.11044413E+00
   2.01250000E+02   5.00000000E-01   5.00000000E-01  -4.46138332E+04   3.03733253E+03   0.00000000E+00   9.12099537E+03   1.72602406E+03   6.22505376E+03   7.34541570E+01   1.91436715E+00   2.16216062E+00   0.00000000E+00   0.00000000E+00   2.09071816E+01   6.95117667E+01   2.44618241E+00   7.03729928E+00   0.00000000E+00   8.14927481E+00   2.29929747E-05   3.51866070E+00   9.61119497E+02   6.52271214E+00  -1.94611258E-06   0.00000000E+00   0.00000000E+00   0.00000000E+00   1.52504576E+04   7.11044431E+00
   2.18750000E+02   5.00000000E-01   5.00000000E-01  -4.46146251E+04   3.03733253E+03   0.00000000E+00   9.12058138E+03   1.72623100E+03   6.22544918E+03   7.34541570E+01   1.91417255E+00   2.16216062E+00   0.00000000E+00   0.00000000E+00   2.09071816E+01   6.95117766E+01   2.44618241E+00   7.03729928E+00   0.00000000E+00   8.14927471E+00   2.20635857E-05   3.51866069E+00   9.61534623E+02   6.52251754E+00  -1.94611258E-06   0.00000000E+00   0.00000000E+00   0.00000000E+00   1.52522020E+04   7.11044443E+00
   2.36250000E+02   5.00000000E-01   5.00000000E-01  -4.46155487E+04   3.03733253E+03   0.00000000E+00   9.12036688E+03   1.72641820E+03   6.22585466E+03   7.34541570E+01   1.91398435E+00   2.16216062E+00   0.00000000E+00   0.00000000E+00   2.09071816E+01   6.95117869E+01   2.44618241E+00   7.03729928E+00   0.00000000E+00   8.14927461E+00   2.09562391E-05   3.51866069E+00   9.61701811E+02   6.52232934E+00  -1.94611258E-06   0.00000000E+00   0.00000000E+00   0.00000000E+00   1.52531691E+04   7.11044448E+00
   2.53750000E+02   5.00000000E-01   5.00000000E-01  -4.46165794E+04   3.03733253E+03   0.00000000E+00   9.12030652E+03   1.72658532E+03   6.22626850E+03   7.34541570E+01   1.91380055E+00   2.16216062E+00   0.00000000E+00   0.00000000E+00   2.09071816E+01   6.95117974E+01   2.44618241E+00   7.03729928E+00   0.00000000E+00   8.14927452E+00   1.97491953E-05   3.51866069E+00   9.61691361E+02   6.52214553E+00  -1.94611258E-06   0.00000000E+00   0.00000000E+00   0.00000000E+00   1.52535794E+04   7.11044447E+00
   2.71250000E+02   5.00000000E-01   5.00000000E-01  -4.46176981E+04   3.03733253E+03   0.00000000E+00   9.12036711E+03   1.72673280E+03   6.22668922E+03   7.34541570E+01   1.91362014E+00   2.16216062E+00   0.00000000E+00   0.00000000E+00   2.09071816E+01   6.95118081E+01   2.44618241E+00   7.03729928E+00   0.00000000E+00   8.14927443E+00   1.85030410E-05   3.51866069E+00   9.61552458E+02   6.52196512E+00  -1.94611258E-06   0.00000000E+00   0.00000000E+00   0.00000000E+00   1.52535868E+04   7.11044439E+00
   2.88750000E+02   5.00000000E-01   5.00000000E-01  -4.46188892E+04   3.03733253E+03   0.00000000E+00   9.12052418E+03   1.72686166E+03   6.22711552E+03   7.34541570E+01   1.91344265E+00   2.16216062E+00   0.00000000E+00   0.00000000E+00   2.09071816E+01   6.95118191E+01   2.44618241E+00   7.03729928E+00   0.00000000E+00   8.14927435E+00   1.72622270E-05   3.51866069E+00   9.61319052E+02   6.52178763E+00  -1.94611258E-06   0.00000000E+00   0.00000000E+00   0.00000000E+00   1.52532975E+04   7.11044426E+00
   3.06250000E+02   5.00000000E-01   5.00000000E-01  -4.46201400E+04   3.03733253E+03   0.00000000E+00   9.12075938E+03   1.72697337E+03   6.22754633E+03   7.34541570E+01   1.91326786E+00   2.16216062E+00   0.00000000E+00   0.00000000E+00   2.09071816E+01   6.95118303E+01   2.44618241E+00   7.03729928E+00   0.00000000E+00   8.14927428E+00   1.60575460E-05   3.51866069E+00   9.61014385E+02   6.52161285E+00  -1.94611258E-06   0.00000000E+00   0.00000000E+00   0.00000000E+00   1.52527839E+04   7.11044407E+00
   3.23750000E+02   5.00000000E-01   5.00000000E-01  -4.46214398E+04   3.03733253E+03   0.00000000E+00   9.12105855E+03   1.72706968E+03   6.22798077E+03   7.34541570E+01   1.91309573E+00   2.16216062E+00   0.00000000E+00   0.00000000E+00   2.09071816E+01   6.95118417E+01   2.44618241E+00   7.03729927E+00   0.00000000E+00   8.14927421E+00   1.49088660E-05   3.51866069E+00   9.60654327E+02   6.52144072E+00  -1.94611258E-06   0.00000000E+00   0.00000000E+00   0.00000000E+00   1.52520951E+04   7.11044383E+00
   3.41250000E+02   5.00000000E-01   5.00000000E-01  -4.46227794E+04   3.03733253E+03   0.00000000E+00   9.12141044E+03   1.72715249E+03   6.22841812E+03   7.34541570E+01   1.91292628E+00   2.16216062E+00   0.00000000E+00   0.00000000E+00   2.09071816E+01   6.95118534E+01   2.44618241E+00   7.03729927E+00   0.00000000E+00   8.14927415E+00   1.38277343E-05   3.51866069E+00   9.60249783E+02   6.52127126E+00  -1.94611258E-06   0.00000000E+00   0.00000000E+00   0.00000000E+00   1.52512650E+04   7.11044354E+00
   3.58750000E+02   5.00000000E-01   5.00000000E-01  -4.46241508E+04   3.03733253E+03   0.00000000E+00   9.12180590E+03   1.72722368E+03   6.22885784E+03   7.34541570E+01   1.91275957E+00   2.16216062E+00   0.00000000E+00   0.00000000E+00   2.09071816E+01   6.95118652E+01   2.44618241E+00   7.03729927E+00   0.00000000E+00   8.14927409E+00   1.28196578E-05   3.51866069E+00   9.59808421E+02   6.52110455E+00  -1.94611258E-06   0.00000000E+00   0.00000000E+00   0.00000000E+00   1.52503170E+04   7.11044320E+00
   3.76250000E+02   5.00000000E-01   5.00000000E-01  -4.46255470E+04   3.03733253E+03   0.00000000E+00   9.12223723E+03   1.72728504E+03   6.22929951E+03   7.34541570E+01   1.91259568E+00   2.16216062E+00   0.00000000E+00   0.00000000E+00   2.09071816E+01   6.95118773E+01   2.44618241E+00   7.03729927E+00   0.00000000E+00   8.14927403E+00   1.18859783E-05   3.51866069E+00   9.59335902E+02   6.52094067E+00  -1.94611258E-06   0.00000000E+00   0.00000000E+00   0.00000000E+00   1.52492683E+04   7.11044281E+00
   3.93750000E+02   5.00000000E-01   5.00000000E-01  -4.46269619E+04   3.03733253E+03   0.00000000E+00   9.12269786E+03   1.72733817E+03   6.22974280E+03   7.34541570E+01   1.91243473E+00   2.16216062E+00   0.00000000E+00   0.00000000E+00   2.09071816E+01   6.95118896E+01   2.44618241E+00   7.03729927E+00   0.00000000E+00   8.14927398E+00   1.10253248E-05   3.51866069E+00   9.58836723E+02   6.52077971E+00  -1.94611258E-06   0.00000000E+00   0.00000000E+00   0.00000000E+00   1.52481324E+04   7.11044239E+00
   4.11250000E+02   5.00000000E-01   5.00000000E-01  -4.46283901E+04   3.03733253E+03   0.00000000E+00   9.12318193E+03   1.72738448E+03   6.23018748E+03   7.34541570E+01   1.91227680E+00   2.16216062E+00   0.00000000E+00   0.00000000E+00   2.09071816E+01   6.95119022E+01   2.44618241E+00   7.03729927E+00   0.00000000E+00   8.14927394E+00   1.02346680E-05   3.51866069E+00   9.58314717E+02   6.52062179E+00  -1.94611258E-06   0.00000000E+00   0.00000000E+00   0.00000000E+00   1.52469209E+04   7.11044194E+00
   4.28750000E+02   5.00000000E-01   5.00000000E-01  -4.46298261E+04   3.03733253E+03   0.00000000E+00   9.12368405E+03   1.72742520E+03   6.23063334E+03   7.34541570E+01   1.91212201E+00   2.16216062E+00   0.00000000E+00   0.00000000E+00   2.09071816E+01   6.95119150E+01   2.44618241E+00   7.03729927E+00   0.00000000E+00   8.14927389E+00   9.51002997E-06   3.51866069E+00   9.57773298E+02   6.52046699E+00  -1.94611258E-06   0.00000000E+00   0.00000000E+00   0.00000000E+00   1.52456438E+04   7.11044145E+00
   4.46250000E+02   5.00000000E-01   5.00000000E-01  -4.46312644E+04   3.03733253E+03   0.00000000E+00   9.12419908E+03   1.72746138E+03   6.23108017E+03   7.34541570E+01   1.91197044E+00   2.16216062E+00   0.00000000E+00   0.00000000E+00   2.09071816E+01   6.95119281E+01   2.44618241E+00   7.03729927E+00   0.00000000E+00   8.14927385E+00   8.84693357E-06   3.51866069E+00   9.57215527E+02   6.52031543E+00  -1.94611258E-06   0.00000000E+00   0.00000000E+00   0.00000000E+00   1.52443095E+04   7.11044093E+00
   4.63750000E+02   5.00000000E-01   5.00000000E-01  -4.46326991E+04   3.03733253E+03   0.00000000E+00   9.12472192E+03   1.72749396E+03   6.23152777E+03   7.34541570E+01   1.91182219E+00   2.16216063E+00   0.00000000E+00   0.00000000E+00   2.09071816E+01   6.95119414E+01   2.44618241E+00   7.03729927E+00   0.00000000E+00   8.14927382E+00   8.24067905E-06   3.51866069E+00   9.56644100E+02   6.52016718E+00  -1.94611258E-06   0.00000000E+00   0.00000000E+00   0.00000000E+00   1.52429253E+04   7.11044038E+00
   4.81250000E+02   5.00000000E-01   5.00000000E-01  -4.46341234E+04   3.03733253E+03   0.00000000E+00   9.12524756E+03   1.72752377E+03   6.23197587E+03   7.34541570E+01   1.91167736E+00   2.16216063E+00   0.00000000E+00   0.00000000E+00   2.09071816E+01   6.95119550E+01   2.44618241E+00   7.03729927E+00   0.00000000E+00   8.14927378E+00   7.68652709E-06   3.51866069E+00   9.56061351E+02   6.52002235E+00  -1.94611258E-06   0.00000000E+00   0.00000000E+00   0.00000000E+00   1.52414966E+04   7.11043981E+00
   4.98750000E+02   5.00000000E-01   5.00000000E-01  -4.46355306E+04   3.03733253E+03   0.00000000E+00   9.12577113E+03   1.72755151E+03   6.23242417E+03   7.34541570E+01   1.91153603E+00   2.16216063E+00   0.00000000E+00   0.00000000E+00   2.09071816E+01   6.95119690E+01   2.44618241E+00   7.03729927E+00   0.00000000E+00   8.14927375E+00   7.17983821E-06   3.51866069E+00   9.55469300E+02   6.51988102E+00  -1.94611258E-06   0.00000000E+00   0.00000000E+00   0.00000000E+00   1.52400278E+04   7.11043922E+00
   5.16250000E+02   5.00000000E-01   5.00000000E-01  -4.46369136E+04   3.03733253E+03   0.00000000E+00   9.12628794E+03   1.72757776E+03   6.23287233E+03   7.34541570E+01   1.91139828E+00   2.16216063E+00   0.00000000E+00   0.00000000E+00   2.09071816E+01   6.95119832E+01   2.44618241E+00   7.03729927E+00   0.00000000E+00   8.14927372E+00   6.71619052E-06   3.51866069E+00   9.54869765E+02   6.51974326E+00  -1.94611258E-06   0.00000000E+00   0.00000000E+00   0.00000000E+00   1.52385222E+04   7.11043862E+00
   5.33750000E+02   5.00000000E-01   5.00000000E-01  -4.46382653E+04   3.03733253E+03   0.00000000E+00   9.12679364E+03   1.72760292E+03   6.23331998E+03   7.34541570E+01   1.91126418E+00   2.16216063E+00   0.00000000E+00   0.00000000E+00   2.09071816E+01   6.95119978E+01   2.44618241E+00   7.03729927E+00   0.00000000E+00   8.14927370E+00   6.29147502E-06   3.51866069E+00   9.54264480E+02   6.51960917E+00  -1.94611258E-06   0.00000000E+00   0.00000000E+00   0.00000000E+00   1.52369831E+04   7.11043800E+00
   5.51250000E+02   5.00000000E-01   5.00000000E-01  -4.46395792E+04   3.03733253E+03   0.00000000E+00   9.12728420E+03   1.72762719E+03   6.23376674E+03   7.34541570E+01   1.91113382E+00   2.16216063E+00   0.00000000E+00   0.00000000E+00   2.09071816E+01   6.95120127E+01   2.44618241E+00   7.03729927E+00   0.00000000E+00   8.14927368E+00   5.90195853E-06   3.51866069E+00   9.53655186E+02   6.51947881E+00  -1.94611258E-06   0.00000000E+00   0.00000000E+00   0.00000000E+00   1.52354134E+04   7.11043736E+00
   5.68750000E+02   5.00000000E-01   5.00000000E-01  -4.46408489E+04   3.03733253E+03   0.00000000E+00   9.12775588E+03   1.72765064E+03   6.23421220E+03   7.34541570E+01   1.91100726E+00   2.16216063E+00   0.00000000E+00   0.00000000E+00   2.09071816E+01   6.95120279E+01   2.44618241E+00   7.03729927E+00   0.00000000E+00   8.14927365E+00   5.54430489E-06   3.51866069E+00   9.53043654E+02   6.51935225E+00  -1.94611258E-06   0.00000000E+00   0.00000000E+00   0.00000000E+00   1.52338164E+04   7.11043672E+00
   5.86250000E+02   5.00000000E-01   5.00000000E-01  -4.46420680E+04   3.03733253E+03   0.00000000E+00   9.12820511E+03   1.72767320E+03   6.23465596E+03   7.34541570E+01   1.91088456E+00   2.16216063E+00   0.00000000E+00   0.00000000E+00   2.09071816E+01   6.95120435E+01   2.44618241E+00   7.03729927E+00   0.00000000E+00   8.14927364E+00   5.21555523E-06   3.51866069E+00   9.52431636E+02   6.51922955E+00  -1.94611258E-06   0.00000000E+00   0.00000000E+00   0.00000000E+00   1.52321951E+04   7.11043606E+00
   6.03750000E+02   5.00000000E-01   5.00000000E-01  -4.46432301E+04   3.03733252E+03   0.00000000E+00   9.12862843E+03   1.72769475E+03   6.23509754E+03   7.34541570E+01   1.91076579E+00   2.16216063E+00   0.00000000E+00   0.00000000E+00   2.09071816E+01   6.95120594E+01   2.44618241E+00   7.03729927E+00   0.00000000E+00   8.14927362E+00   4.91307842E-06   3.51866069E+00   9.51820770E+02   6.51911078E+00  -1.94611258E-06   0.00000000E+00   0.00000000E+00   0.00000000E+00   1.52305521E+04   7.11043540E+00
   6.21250000E+02   5.00000000E-01   5.00000000E-01  -4.46443285E+04   3.03733252E+03   0.00000000E+00   9.12902241E+03   1.72771519E+03   6.23553643E+03   7.34541570E+01   1.91065100E+00   2.16216063E+00   0.00000000E+00   0.00000000E+00   2.09071816E+01   6.95120757E+01   2.44618241E+00   7.03729926E+00   0.00000000E+00   8.14927360E+00   4.63450976E-06   3.51866069E+00   9.51212483E+02   6.51899600E+00  -1.94611258E-06   0.00000000E+00   0.00000000E+00   0.00000000E+00   1.52288891E+04   7.11043474E+00
   6.38750000E+02   5.00000000E-01   5.00000000E-01  -4.46453561E+04   3.03733252E+03   0.00000000E+00   9.12938372E+03   1.72773441E+03   6.23597200E+03   7.34541570E+01   1.91054026E+00   2.16216063E+00   0.00000000E+00   0.00000000E+00   2.09071816E+01   6.95120924E+01   2.44618241E+00   7.03729926E+00   0.00000000E+00   8.14927359E+00   4.37769521E-06   3.51866069E+00   9.50607928E+02   6.51888526E+00  -1.94611258E-06   0.00000000E+00   0.00000000E+00   0.00000000E+00   1.52272070E+04   7.11043407E+00
   6.56250000E+02   5.00000000E-01   5.00000000E-01  -4.46463063E+04   3.03733252E+03   0.00000000E+00   9.12970921E+03   1.72775237E+03   6.23640356E+03   7.34541570E+01   1.91043360E+00   2.16216063E+00   0.00000000E+00   0.00000000E+00   2.09071816E+01   6.95121094E+01   2.44618241E+00   7.03729926E+00   0.00000000E+00   8.14927358E+00   4.14065282E-06   3.51866069E+00   9.50007981E+02   6.51877861E+00  -1.94611258E-06   0.00000000E+00   0.00000000E+00   0.00000000E+00   1.52255060E+04   7.11043340E+00
   6.73750000E+02   5.00000000E-01   5.00000000E-01  -4.46471722E+04   3.03733252E+03   0.00000000E+00   9.12999605E+03   1.72776904E+03   6.23683035E+03   7.34541570E+01   1.91033107E+00   2.16216063E+00   0.00000000E+00   0.00000000E+00   2.09071816E+01   6.95121269E+01   2.44618241E+00   7.03729926E+00   0.00000000E+00   8.14927357E+00   3.92155475E-06   3.51866069E+00   9.49413286E+02   6.51867609E+00  -1.94611258E-06   0.00000000E+00   0.00000000E+00   0.00000000E+00   1.52237852E+04   7.11043274E+00
   6.91250000E+02   5.00000000E-01   5.00000000E-01  -4.46479479E+04   3.03733252E+03   0.00000000E+00   9.13024183E+03   1.72778433E+03   6.23725158E+03   7.34541570E+01   1.91023272E+00   2.16216063E+00   0.00000000E+00   0.00000000E+00   2.09071816E+01   6.95121447E+01   2.44618241E+00   7.03729926E+00   0.00000000E+00   8.14927356E+00   3.71872682E-06   3.51866069E+00   9.48824348E+02   6.51857776E+00  -1.94611258E-06   0.00000000E+00   0.00000000E+00   0.00000000E+00   1.52220441E+04   7.11043207E+00
   7.08750000E+02   5.00000000E-01   5.00000000E-01  -4.46486280E+04   3.03733252E+03   0.00000000E+00   9.13044464E+03   1.72779807E+03   6.23766644E+03   7.34541570E+01   1.91013858E+00   2.16216063E+00   0.00000000E+00   0.00000000E+00   2.09071816E+01   6.95121629E+01   2.44618241E+00   7.03729926E+00   0.00000000E+00   8.14927356E+00   3.53065769E-06   3.51866069E+00   9.48241619E+02   6.51848364E+00  -1.94611258E-06   0.00000000E+00   0.00000000E+00   0.00000000E+00   1.52202818E+04   7.11043141E+00
   7.26250000E+02   5.00000000E-01   5.00000000E-01  -4.46492082E+04   3.03733252E+03   0.00000000E+00   9.13060303E+03   1.72780999E+03   6.23807423E+03   7.34541570E+01   1.91004869E+00   2.16216063E+00   0.00000000E+00   0.00000000E+00   2.09071816E+01   6.95121814E+01   2.44618241E+00   7.03729926E+00   0.00000000E+00   8.14927355E+00   3.35600854E-06   3.51866069E+00   9.47665559E+02   6.51839379E+00  -1.94611258E-06   0.00000000E+00   0.00000000E+00   0.00000000E+00   1.52184980E+04   7.11043075E+00
   7.43750000E+02   5.00000000E-01   5.00000000E-01  -4.46496848E+04   3.03733252E+03   0.00000000E+00   9.13071594E+03   1.72781970E+03   6.23847436E+03   7.34541570E+01   1.90996307E+00   2.16216063E+00   0.00000000E+00   0.00000000E+00   2.09071816E+01   6.95122004E+01   2.44618241E+00   7.03729926E+00   0.00000000E+00   8.14927355E+00   3.19361487E-06   3.51866069E+00   9.47096652E+02   6.51830822E+00  -1.94611258E-06   0.00000000E+00   0.00000000E+00   0.00000000E+00   1.52166925E+04   7.11043010E+00
   7.61250000E+02   5.00000000E-01   5.00000000E-01  -4.46500548E+04   3.03733252E+03   0.00000000E+00   9.13078255E+03   1.72782674E+03   6.23886635E+03   7.34541570E+01   1.90988175E+00   2.16216063E+00   0.00000000E+00   0.00000000E+00   2.09071816E+01   6.95122198E+01   2.44618241E+00   7.03729926E+00   0.00000000E+00   8.14927355E+00   3.04247630E-06   3.51866069E+00   9.46535362E+02   6.51822698E+00  -1.94611258E-06   0.00000000E+00   0.00000000E+00   0.00000000E+00   1.52148652E+04   7.11042945E+00
   7.78750000E+02   5.00000000E-01   5.00000000E-01  -4.46503158E+04   3.03733252E+03   0.00000000E+00   9.13080221E+03   1.72783066E+03   6.23924988E+03   7.34541570E+01   1.90980475E+00   2.16216063E+00   0.00000000E+00   0.00000000E+00   2.09071816E+01   6.95122397E+01   2.44618241E+00   7.03729926E+00   0.00000000E+00   8.14927355E+00   2.90173469E-06   3.51866069E+00   9.45982059E+02   6.51815010E+00  -1.94611258E-06   0.00000000E+00   0.00000000E+00   0.00000000E+00   1.52130161E+04   7.11042881E+00
   7.96250000E+02   5.00000000E-01   5.00000000E-01  -4.46504657E+04   3.03733252E+03   0.00000000E+00   9.13077441E+03   1.72783107E+03   6.23962478E+03   7.34541570E+01   1.90973208E+00   2.16216063E+00   0.00000000E+00   0.00000000E+00   2.09071816E+01   6.95122599E+01   2.44618241E+00   7.03729926E+00   0.00000000E+00   8.14927355E+00   2.77064508E-06   3.51866068E+00   9.45436953E+02   6.51807762E+00  -1.94611258E-06   0.00000000E+00   0.00000000E+00   0.00000000E+00   1.52111446E+04   7.11042818E+00
   8.13750000E+02   5.00000000E-01   5.00000000E-01  -4.46505032E+04   3.03733252E+03   0.00000000E+00   9.13069878E+03   1.72782768E+03   6.23999095E+03   7.34541570E+01   1.90966377E+00   2.16216063E+00   0.00000000E+00   0.00000000E+00   2.09071816E+01   6.95122806E+01   2.44618241E+00   7.03729926E+00   0.00000000E+00   8.14927356E+00   2.64854570E-06   3.51866068E+00   9.44900048E+02   6.51800958E+00  -1.94611258E-06   0.00000000E+00   0.00000000E+00   0.00000000E+00   1.52092499E+04   7.11042756E+00
   8.31250000E+02   5.00000000E-01   5.00000000E-01  -4.46504276E+04   3.03733252E+03   0.00000000E+00   9.13057532E+03   1.72782035E+03   6.24034837E+03   7.34541570E+01   1.90959981E+00   2.16216063E+00   0.00000000E+00   0.00000000E+00   2.09071816E+01   6.95123017E+01   2.44618241E+00   7.03729926E+00   0.00000000E+00   8.14927356E+00   2.53483218E-06   3.51866068E+00   9.44371165E+02   6.51794606E+00  -1.94611258E-06   0.00000000E+00   0.00000000E+00   0.00000000E+00   1.52073311E+04   7.11042695E+00
   8.48750000E+02   5.00000000E-01   5.00000000E-01  -4.46502397E+04   3.03733252E+03   0.00000000E+00   9.13040453E+03   1.72780905E+03   6.24069706E+03   7.34541570E+01   1.90954021E+00   2.16216063E+00   0.00000000E+00   0.00000000E+00   2.09071816E+01   6.95123233E+01   2.44618241E+00   7.03729926E+00   0.00000000E+00   8.14927357E+00   2.42893874E-06   3.51866068E+00   9.43850008E+02   6.51788713E+00  -1.94611258E-06   0.00000000E+00   0.00000000E+00   0.00000000E+00   1.52053874E+04   7.11042634E+00
   8.66250000E+02   5.00000000E-01   5.00000000E-01  -4.46499416E+04   3.03733252E+03   0.00000000E+00   9.13018760E+03   1.72779388E+03   6.24103698E+03   7.34541570E+01   1.90948496E+00   2.16216063E+00   0.00000000E+00   0.00000000E+00   2.09071816E+01   6.95123454E+01   2.44618241E+00   7.03729926E+00   0.00000000E+00   8.14927357E+00   2.33032670E-06   3.51866068E+00   9.43336275E+02   6.51783295E+00  -1.94611258E-06   0.00000000E+00   0.00000000E+00   0.00000000E+00   1.52034190E+04   7.11042575E+00
   8.83750000E+02   5.00000000E-01   5.00000000E-01  -4.46495373E+04   3.03733252E+03   0.00000000E+00   9.12992651E+03   1.72777499E+03   6.24136803E+03   7.34541570E+01   1.90943406E+00   2.16216063E+00   0.00000000E+00   0.00000000E+00   2.09071816E+01   6.95123680E+01   2.44618241E+00   7.03729925E+00   0.00000000E+00   8.14927358E+00   2.23847882E-06   3.51866068E+00   9.42829765E+02   6.51778373E+00  -1.94611258E-06   0.00000000E+00   0.00000000E+00   0.00000000E+00   1.52014271E+04   7.11042517E+00
   9.01250000E+02   5.00000000E-01   5.00000000E-01  -4.46490323E+04   3.03733252E+03   0.00000000E+00   9.12962409E+03   1.72775261E+03   6.24168996E+03   7.34541570E+01   1.90938751E+00   2.16216063E+00   0.00000000E+00   0.00000000E+00   2.09071816E+01   6.95123911E+01   2.44618241E+00   7.03729925E+00   0.00000000E+00   8.14927359E+00   2.15289760E-06   3.51866068E+00   9.42330487E+02   6.51773985E+00  -1.94611258E-06   0.00000000E+00   0.00000000E+00   0.00000000E+00   1.51994144E+04   7.11042461E+00
   9.18750000E+02   5.00000000E-01   5.00000000E-01  -4.46484335E+04   3.03733252E+03   0.00000000E+00   9.12928387E+03   1.72772694E+03   6.24200232E+03   7.34541570E+01   1.90934528E+00   2.16216064E+00   0.00000000E+00   0.00000000E+00   2.09071816E+01   6.95124147E+01   2.44618241E+00   7.03729925E+00   0.00000000E+00   8.14927360E+00   2.07310592E-06   3.51866068E+00   9.41838717E+02   6.51770192E+00  -1.94611258E-06   0.00000000E+00   0.00000000E+00   0.00000000E+00   1.51973854E+04   7.11042405E+00
   9.36250000E+02   5.00000000E-01   5.00000000E-01  -4.46477490E+04   3.03733252E+03   0.00000000E+00   9.12891005E+03   1.72769822E+03   6.24230440E+03   7.34541570E+01   1.90930737E+00   2.16216064E+00   0.00000000E+00   0.00000000E+00   2.09071816E+01   6.95124389E+01   2.44618241E+00   7.03729925E+00   0.00000000E+00   8.14927362E+00   1.99864877E-06   3.51866068E+00   9.41355028E+02   6.51767096E+00  -1.94611258E-06   0.00000000E+00   0.00000000E+00   0.00000000E+00   1.51953460E+04   7.11042351E+00
   9.53750000E+02   5.00000000E-01   5.00000000E-01  -4.46469871E+04   3.03733252E+03   0.00000000E+00   9.12850721E+03   1.72766666E+03   6.24259524E+03   7.34541570E+01   1.90927375E+00   2.16216064E+00   0.00000000E+00   0.00000000E+00   2.09071816E+01   6.95124636E+01   2.44618241E+00   7.03729925E+00   0.00000000E+00   8.14927363E+00   1.92909546E-06   3.51866068E+00   9.40880279E+02   6.51764869E+00  -1.94611258E-06   0.00000000E+00   0.00000000E+00   0.00000000E+00   1.51933034E+04   7.11042298E+00
   9.71250000E+02   5.00000000E-01   5.00000000E-01  -4.46461568E+04   3.03733252E+03   0.00000000E+00   9.12808024E+03   1.72763246E+03   6.24287359E+03   7.34541570E+01   1.90924441E+00   2.16216064E+00   0.00000000E+00   0.00000000E+00   2.09071816E+01   6.95124888E+01   2.44618241E+00   7.03729925E+00   0.00000000E+00   8.14927365E+00   1.86404201E-06   3.51866068E+00   9.40415572E+02   6.51763802E+00  -1.94611258E-06   0.00000000E+00   0.00000000E+00   0.00000000E+00   1.51912657E+04   7.11042246E+00
   9.88750000E+02   5.00000000E-01   5.00000000E-01  -4.46452664E+04   3.03733252E+03   0.00000000E+00   9.12763407E+03   1.72759579E+03   6.24313796E+03   7.34541570E+01   1.90921932E+00   2.16216064E+00   0.00000000E+00   0.00000000E+00   2.09071816E+01   6.95125146E+01   2.44618241E+00   7.03729925E+00   0.00000000E+00   8.14927366E+00   1.80311334E-06   3.51866068E+00   9.39962189E+02   6.51764391E+00  -1.94611258E-06   0.00000000E+00   0.00000000E+00   0.00000000E+00   1.51892417E+04   7.11042196E+00