 TITLE = "Total Component Concentration in Minerals" 
VARIABLES = "X"          "Y"              "Z"            "H+"             "Al+++"          "CO2(aq)"        "Mg++"           "Ca++"           "Fe++"           "Fe+++"          "Ba++"           "Sr++"           "Li+"            "Rb+"            "Mn++"           "Zn++"           "Cu++"           "Cu+"            "Cl-"            "F-"             "K+"             "HS-"            "Na+"            "SO4--"          "O2(aq)"         "B(OH)3(aq)"     "HPO4--"         "NO3-"           "H4SiO4(aq)"     "Ti(OH)4(aq)"   
 ZONE I=         200 , J=           1 , K=           1  F=POINT
   8.75000000E+00   5.00000000E-01   5.00000000E-01  -4.46100786E+04   3.03736160E+03   0.00000000E+00   9.16192914E+03   1.70964875E+03   6.21808983E+03   7.34541571E+01   1.98261481E+00   2.16216047E+00   0.00000000E+00   0.00000000E+00   2.05023621E+01   6.94894068E+01   2.44618226E+00   7.03745656E+00   0.00000000E+00   8.14927493E+00   5.70245161E-06   3.51873927E+00   9.22942859E+02   6.59095948E+00  -1.93243669E-06   0.00000000E+00   0.00000000E+00   0.00000000E+00   1.51115047E+04   7.11043935E+00
   2.62500000E+01   5.00000000E-01   5.00000000E-01  -4.46335829E+04   3.03733253E+03   0.00000000E+00   9.17177910E+03   1.70986897E+03   6.21829854E+03   7.34541570E+01   1.94311441E+00   2.16216047E+00   0.00000000E+00   0.00000000E+00   2.05023621E+01   6.94894095E+01   2.44618226E+00   7.03729942E+00   0.00000000E+00   8.14927464E+00   1.09996799E-05   3.51866070E+00   9.25976713E+02   6.55145908E+00  -1.93243669E-06   0.00000000E+00   0.00000000E+00   0.00000000E+00   1.51321468E+04   7.11043969E+00
   4.37500000E+01   5.00000000E-01   5.00000000E-01  -4.46269734E+04   3.03733253E+03   0.00000000E+00   9.16642364E+03   1.71002364E+03   6.21850677E+03   7.34541570E+01   1.92742889E+00   2.16216047E+00   0.00000000E+00   0.00000000E+00   2.05023621E+01   6.94894096E+01   2.44618226E+00   7.03729942E+00   0.00000000E+00   8.14927438E+00   1.38063712E-05   3.51866070E+00   9.29352287E+02   6.53577356E+00  -1.93243669E-06   0.00000000E+00   0.00000000E+00   0.00000000E+00   1.51403436E+04   7.11044018E+00
   6.12500000E+01   5.00000000E-01   5.00000000E-01  -4.46210313E+04   3.03733253E+03   0.00000000E+00   9.16046517E+03   1.71015132E+03   6.21872400E+03   7.34541570E+01   1.92077601E+00   2.16216047E+00   0.00000000E+00   0.00000000E+00   2.05023621E+01   6.94894122E+01   2.44618226E+00   7.03729942E+00   0.00000000E+00   8.14927414E+00   1.57438522E-05   3.51866070E+00   9.34637342E+02   6.52912067E+00  -1.93243669E-06   0.00000000E+00   0.00000000E+00   0.00000000E+00   1.51550872E+04   7.11044078E+00
   7.87500000E+01   5.00000000E-01   5.00000000E-01  -4.46178953E+04   3.03733253E+03   0.00000000E+00   9.15538172E+03   1.71031557E+03   6.21896539E+03   7.34541570E+01   1.91775751E+00   2.16216047E+00   0.00000000E+00   0.00000000E+00   2.05023621E+01   6.94894169E+01   2.44618226E+00   7.03729942E+00   0.00000000E+00   8.14927392E+00   1.78465898E-05   3.51866070E+00   9.40856909E+02   6.52610217E+00  -1.93243669E-06   0.00000000E+00   0.00000000E+00   0.00000000E+00   1.51741780E+04   7.11044141E+00
   9.62500000E+01   5.00000000E-01   5.00000000E-01  -4.46162410E+04   3.03733253E+03   0.00000000E+00   9.15103807E+03   1.71052565E+03   6.21923542E+03   7.34541570E+01   1.91627292E+00   2.16216047E+00   0.00000000E+00   0.00000000E+00   2.05023621E+01   6.94894230E+01   2.44618226E+00   7.03729942E+00   0.00000000E+00   8.14927372E+00   2.00274555E-05   3.51866070E+00   9.46929680E+02   6.52461758E+00  -1.93243669E-06   0.00000000E+00   0.00000000E+00   0.00000000E+00   1.51934770E+04   7.11044202E+00
   1.13750000E+02   5.00000000E-01   5.00000000E-01  -4.46152562E+04   3.03733253E+03   0.00000000E+00   9.14741751E+03   1.71076788E+03   6.21953246E+03   7.34541570E+01   1.91546351E+00   2.16216047E+00   0.00000000E+00   0.00000000E+00   2.05023621E+01   6.94894303E+01   2.44618226E+00   7.03729942E+00   0.00000000E+00   8.14927353E+00   2.19435749E-05   3.51866070E+00   9.52107427E+02   6.52380818E+00  -1.93243669E-06   0.00000000E+00   0.00000000E+00   0.00000000E+00   1.52101507E+04   7.11044258E+00
   1.31250000E+02   5.00000000E-01   5.00000000E-01  -4.46147318E+04   3.03733253E+03   0.00000000E+00   9.14457540E+03   1.71102507E+03   6.21985337E+03   7.34541570E+01   1.91496302E+00   2.16216047E+00   0.00000000E+00   0.00000000E+00   2.05023621E+01   6.94894384E+01   2.44618226E+00   7.03729942E+00   0.00000000E+00   8.14927336E+00   2.33418029E-05   3.51866070E+00   9.56111045E+02   6.52330768E+00  -1.93243669E-06   0.00000000E+00   0.00000000E+00   0.00000000E+00   1.52231748E+04   7.11044308E+00
   1.48750000E+02   5.00000000E-01   5.00000000E-01  -4.46146034E+04   3.03733253E+03   0.00000000E+00   9.14246955E+03   1.71128405E+03   6.22019531E+03   7.34541570E+01   1.91460916E+00   2.16216047E+00   0.00000000E+00   0.00000000E+00   2.05023621E+01   6.94894472E+01   2.44618226E+00   7.03729942E+00   0.00000000E+00   8.14927320E+00   2.41286562E-05   3.51866070E+00   9.58992533E+02   6.52295382E+00  -1.93243669E-06   0.00000000E+00   0.00000000E+00   0.00000000E+00   1.52326809E+04   7.11044351E+00
   1.66250000E+02   5.00000000E-01   5.00000000E-01  -4.46148135E+04   3.03733253E+03   0.00000000E+00   9.14098385E+03   1.71153621E+03   6.22055595E+03   7.34541570E+01   1.91432751E+00   2.16216047E+00   0.00000000E+00   0.00000000E+00   2.05023621E+01   6.94894565E+01   2.44618226E+00   7.03729942E+00   0.00000000E+00   8.14927305E+00   2.43307409E-05   3.51866070E+00   9.60948410E+02   6.52267218E+00  -1.93243669E-06   0.00000000E+00   0.00000000E+00   0.00000000E+00   1.52392827E+04   7.11044386E+00
   1.83750000E+02   5.00000000E-01   5.00000000E-01  -4.46153029E+04   3.03733253E+03   0.00000000E+00   9.13998602E+03   1.71177598E+03   6.22093323E+03   7.34541570E+01   1.91408287E+00   2.16216047E+00   0.00000000E+00   0.00000000E+00   2.05023621E+01   6.94894664E+01   2.44618226E+00   7.03729941E+00   0.00000000E+00   8.14927291E+00   2.40374106E-05   3.51866070E+00   9.62199358E+02   6.52242753E+00  -1.93243669E-06   0.00000000E+00   0.00000000E+00   0.00000000E+00   1.52436750E+04   7.11044415E+00
   2.01250000E+02   5.00000000E-01   5.00000000E-01  -4.46160177E+04   3.03733253E+03   0.00000000E+00   9.13935910E+03   1.71199972E+03   6.22132514E+03   7.34541570E+01   1.91385810E+00   2.16216047E+00   0.00000000E+00   0.00000000E+00   2.05023621E+01   6.94894767E+01   2.44618226E+00   7.03729941E+00   0.00000000E+00   8.14927278E+00   2.33596612E-05   3.51866070E+00   9.62936700E+02   6.52220276E+00  -1.93243669E-06   0.00000000E+00   0.00000000E+00   0.00000000E+00   1.52464601E+04   7.11044436E+00
   2.18750000E+02   5.00000000E-01   5.00000000E-01  -4.46169130E+04   3.03733253E+03   0.00000000E+00   9.13901091E+03   1.71220511E+03   6.22172975E+03   7.34541570E+01   1.91364468E+00   2.16216047E+00   0.00000000E+00   0.00000000E+00   2.05023621E+01   6.94894874E+01   2.44618226E+00   7.03729941E+00   0.00000000E+00   8.14927267E+00   2.24068944E-05   3.51866069E+00   9.63308302E+02   6.52198934E+00  -1.93243669E-06   0.00000000E+00   0.00000000E+00   0.00000000E+00   1.52481027E+04   7.11044449E+00
   2.36250000E+02   5.00000000E-01   5.00000000E-01  -4.46179530E+04   3.03733253E+03   0.00000000E+00   9.13887291E+03   1.71239091E+03   6.22214520E+03   7.34541570E+01   1.91343830E+00   2.16216047E+00   0.00000000E+00   0.00000000E+00   2.05023621E+01   6.94894984E+01   2.44618226E+00   7.03729941E+00   0.00000000E+00   8.14927256E+00   2.12755365E-05   3.51866069E+00   9.63421736E+02   6.52178296E+00  -1.93243669E-06   0.00000000E+00   0.00000000E+00   0.00000000E+00   1.52489400E+04   7.11044456E+00
   2.53750000E+02   5.00000000E-01   5.00000000E-01  -4.46191098E+04   3.03733253E+03   0.00000000E+00   9.13889541E+03   1.71255679E+03   6.22256980E+03   7.34541570E+01   1.91323677E+00   2.16216047E+00   0.00000000E+00   0.00000000E+00   2.05023621E+01   6.94895097E+01   2.44618226E+00   7.03729941E+00   0.00000000E+00   8.14927246E+00   2.00446228E-05   3.51866069E+00   9.63352619E+02   6.52158143E+00  -1.93243669E-06   0.00000000E+00   0.00000000E+00   0.00000000E+00   1.52492085E+04   7.11044455E+00
   2.71250000E+02   5.00000000E-01   5.00000000E-01  -4.46203618E+04   3.03733253E+03   0.00000000E+00   9.13904259E+03   1.71270317E+03   6.22300203E+03   7.34541570E+01   1.91303899E+00   2.16216047E+00   0.00000000E+00   0.00000000E+00   2.05023621E+01   6.94895212E+01   2.44618226E+00   7.03729941E+00   0.00000000E+00   8.14927236E+00   1.87753021E-05   3.51866069E+00   9.63153037E+02   6.52138365E+00  -1.93243669E-06   0.00000000E+00   0.00000000E+00   0.00000000E+00   1.52490706E+04   7.11044448E+00
   2.88750000E+02   5.00000000E-01   5.00000000E-01  -4.46216917E+04   3.03733253E+03   0.00000000E+00   9.13928839E+03   1.71283106E+03   6.22344059E+03   7.34541570E+01   1.91284442E+00   2.16216047E+00   0.00000000E+00   0.00000000E+00   2.05023621E+01   6.94895330E+01   2.44618226E+00   7.03729941E+00   0.00000000E+00   8.14927228E+00   1.75124116E-05   3.51866069E+00   9.62858422E+02   6.52118908E+00  -1.93243669E-06   0.00000000E+00   0.00000000E+00   0.00000000E+00   1.52486365E+04   7.11044434E+00
   3.06250000E+02   5.00000000E-01   5.00000000E-01  -4.46230855E+04   3.03733253E+03   0.00000000E+00   9.13961346E+03   1.71294193E+03   6.22388439E+03   7.34541570E+01   1.91265284E+00   2.16216047E+00   0.00000000E+00   0.00000000E+00   2.05023621E+01   6.94895450E+01   2.44618226E+00   7.03729941E+00   0.00000000E+00   8.14927219E+00   1.62869875E-05   3.51866069E+00   9.62492691E+02   6.52099750E+00  -1.93243669E-06   0.00000000E+00   0.00000000E+00   0.00000000E+00   1.52479803E+04   7.11044414E+00
   3.23750000E+02   5.00000000E-01   5.00000000E-01  -4.46245313E+04   3.03733253E+03   0.00000000E+00   9.14000299E+03   1.71303753E+03   6.22433253E+03   7.34541570E+01   1.91246418E+00   2.16216047E+00   0.00000000E+00   0.00000000E+00   2.05023621E+01   6.94895572E+01   2.44618226E+00   7.03729941E+00   0.00000000E+00   8.14927212E+00   1.51190294E-05   3.51866069E+00   9.62071947E+02   6.52080884E+00  -1.93243669E-06   0.00000000E+00   0.00000000E+00   0.00000000E+00   1.52471514E+04   7.11044388E+00
   3.41250000E+02   5.00000000E-01   5.00000000E-01  -4.46260190E+04   3.03733253E+03   0.00000000E+00   9.14044531E+03   1.71311972E+03   6.22478429E+03   7.34541570E+01   1.91227847E+00   2.16216047E+00   0.00000000E+00   0.00000000E+00   2.05023621E+01   6.94895696E+01   2.44618226E+00   7.03729941E+00   0.00000000E+00   8.14927205E+00   1.40201312E-05   3.51866069E+00   9.61607100E+02   6.52062314E+00  -1.93243669E-06   0.00000000E+00   0.00000000E+00   0.00000000E+00   1.52461831E+04   7.11044356E+00
   3.58750000E+02   5.00000000E-01   5.00000000E-01  -4.46275399E+04   3.03733253E+03   0.00000000E+00   9.14093090E+03   1.71319038E+03   6.22523913E+03   7.34541570E+01   1.91209579E+00   2.16216047E+00   0.00000000E+00   0.00000000E+00   2.05023621E+01   6.94895823E+01   2.44618226E+00   7.03729941E+00   0.00000000E+00   8.14927199E+00   1.29957848E-05   3.51866069E+00   9.61105727E+02   6.52044045E+00  -1.93243669E-06   0.00000000E+00   0.00000000E+00   0.00000000E+00   1.52450982E+04   7.11044320E+00
   3.76250000E+02   5.00000000E-01   5.00000000E-01  -4.46290861E+04   3.03733253E+03   0.00000000E+00   9.14145182E+03   1.71325128E+03   6.22569660E+03   7.34541570E+01   1.91191622E+00   2.16216047E+00   0.00000000E+00   0.00000000E+00   2.05023621E+01   6.94895952E+01   2.44618226E+00   7.03729941E+00   0.00000000E+00   8.14927193E+00   1.20472753E-05   3.51866069E+00   9.60573383E+02   6.52026089E+00  -1.93243669E-06   0.00000000E+00   0.00000000E+00   0.00000000E+00   1.52439133E+04   7.11044278E+00
   3.93750000E+02   5.00000000E-01   5.00000000E-01  -4.46306511E+04   3.03733253E+03   0.00000000E+00   9.14200120E+03   1.71330401E+03   6.22615641E+03   7.34541570E+01   1.91173989E+00   2.16216047E+00   0.00000000E+00   0.00000000E+00   2.05023621E+01   6.94896083E+01   2.44618226E+00   7.03729941E+00   0.00000000E+00   8.14927187E+00   1.11731495E-05   3.51866069E+00   9.60014470E+02   6.52008455E+00  -1.93243669E-06   0.00000000E+00   0.00000000E+00   0.00000000E+00   1.52426413E+04   7.11044233E+00
   4.11250000E+02   5.00000000E-01   5.00000000E-01  -4.46322286E+04   3.03733253E+03   0.00000000E+00   9.14257292E+03   1.71334998E+03   6.22661830E+03   7.34541570E+01   1.91156689E+00   2.16216047E+00   0.00000000E+00   0.00000000E+00   2.05023621E+01   6.94896217E+01   2.44618226E+00   7.03729941E+00   0.00000000E+00   8.14927182E+00   1.03702816E-05   3.51866069E+00   9.59432767E+02   6.51991155E+00  -1.93243669E-06   0.00000000E+00   0.00000000E+00   0.00000000E+00   1.52412933E+04   7.11044183E+00
   4.28750000E+02   5.00000000E-01   5.00000000E-01  -4.46338126E+04   3.03733253E+03   0.00000000E+00   9.14316129E+03   1.71339040E+03   6.22708206E+03   7.34541570E+01   1.91139733E+00   2.16216047E+00   0.00000000E+00   0.00000000E+00   2.05023621E+01   6.94896354E+01   2.44618226E+00   7.03729941E+00   0.00000000E+00   8.14927177E+00   9.63459197E-06   3.51866069E+00   9.58831662E+02   6.51974200E+00  -1.93243669E-06   0.00000000E+00   0.00000000E+00   0.00000000E+00   1.52398788E+04   7.11044130E+00
   4.46250000E+02   5.00000000E-01   5.00000000E-01  -4.46353969E+04   3.03733253E+03   0.00000000E+00   9.14376081E+03   1.71342631E+03   6.22754749E+03   7.34541570E+01   1.91123133E+00   2.16216047E+00   0.00000000E+00   0.00000000E+00   2.05023621E+01   6.94896494E+01   2.44618226E+00   7.03729941E+00   0.00000000E+00   8.14927173E+00   8.96150166E-06   3.51866069E+00   9.58214209E+02   6.51957600E+00  -1.93243669E-06   0.00000000E+00   0.00000000E+00   0.00000000E+00   1.52384061E+04   7.11044074E+00
   4.63750000E+02   5.00000000E-01   5.00000000E-01  -4.46369747E+04   3.03733253E+03   0.00000000E+00   9.14436604E+03   1.71345865E+03   6.22801438E+03   7.34541570E+01   1.91106899E+00   2.16216047E+00   0.00000000E+00   0.00000000E+00   2.05023621E+01   6.94896636E+01   2.44618226E+00   7.03729941E+00   0.00000000E+00   8.14927169E+00   8.34621243E-06   3.51866069E+00   9.57583106E+02   6.51941366E+00  -1.93243669E-06   0.00000000E+00   0.00000000E+00   0.00000000E+00   1.52368819E+04   7.11044014E+00
   4.81250000E+02   5.00000000E-01   5.00000000E-01  -4.46385387E+04   3.03733253E+03   0.00000000E+00   9.14497157E+03   1.71348823E+03   6.22848246E+03   7.34541570E+01   1.91091041E+00   2.16216047E+00   0.00000000E+00   0.00000000E+00   2.05023621E+01   6.94896782E+01   2.44618226E+00   7.03729941E+00   0.00000000E+00   8.14927165E+00   7.78389155E-06   3.51866069E+00   9.56940686E+02   6.51925508E+00  -1.93243669E-06   0.00000000E+00   0.00000000E+00   0.00000000E+00   1.52353115E+04   7.11043952E+00
   4.98750000E+02   5.00000000E-01   5.00000000E-01  -4.46400811E+04   3.03733253E+03   0.00000000E+00   9.14557208E+03   1.71351577E+03   6.22895143E+03   7.34541570E+01   1.91075568E+00   2.16216047E+00   0.00000000E+00   0.00000000E+00   2.05023621E+01   6.94896931E+01   2.44618226E+00   7.03729940E+00   0.00000000E+00   8.14927162E+00   7.26981230E-06   3.51866069E+00   9.56288971E+02   6.51910035E+00  -1.93243669E-06   0.00000000E+00   0.00000000E+00   0.00000000E+00   1.52336986E+04   7.11043888E+00
   5.16250000E+02   5.00000000E-01   5.00000000E-01  -4.46415939E+04   3.03733253E+03   0.00000000E+00   9.14616251E+03   1.71354182E+03   6.22942096E+03   7.34541570E+01   1.91060490E+00   2.16216047E+00   0.00000000E+00   0.00000000E+00   2.05023621E+01   6.94897083E+01   2.44618226E+00   7.03729940E+00   0.00000000E+00   8.14927159E+00   6.79947220E-06   3.51866069E+00   9.55629787E+02   6.51894956E+00  -1.93243669E-06   0.00000000E+00   0.00000000E+00   0.00000000E+00   1.52320466E+04   7.11043822E+00
   5.33750000E+02   5.00000000E-01   5.00000000E-01  -4.46430696E+04   3.03733253E+03   0.00000000E+00   9.14673810E+03   1.71356679E+03   6.22989067E+03   7.34541570E+01   1.91045813E+00   2.16216047E+00   0.00000000E+00   0.00000000E+00   2.05023621E+01   6.94897238E+01   2.44618226E+00   7.03729940E+00   0.00000000E+00   8.14927156E+00   6.36868886E-06   3.51866069E+00   9.54964892E+02   6.51880280E+00  -1.93243669E-06   0.00000000E+00   0.00000000E+00   0.00000000E+00   1.52303580E+04   7.11043754E+00
   5.51250000E+02   5.00000000E-01   5.00000000E-01  -4.46445007E+04   3.03733253E+03   0.00000000E+00   9.14729446E+03   1.71359088E+03   6.23036017E+03   7.34541570E+01   1.91031548E+00   2.16216047E+00   0.00000000E+00   0.00000000E+00   2.05023621E+01   6.94897397E+01   2.44618226E+00   7.03729940E+00   0.00000000E+00   8.14927153E+00   5.97366298E-06   3.51866069E+00   9.54296066E+02   6.51866015E+00  -1.93243669E-06   0.00000000E+00   0.00000000E+00   0.00000000E+00   1.52286360E+04   7.11043685E+00
   5.68750000E+02   5.00000000E-01   5.00000000E-01  -4.46458802E+04   3.03733252E+03   0.00000000E+00   9.14782749E+03   1.71361416E+03   6.23082906E+03   7.34541570E+01   1.91017701E+00   2.16216047E+00   0.00000000E+00   0.00000000E+00   2.05023621E+01   6.94897560E+01   2.44618226E+00   7.03729940E+00   0.00000000E+00   8.14927151E+00   5.61099959E-06   3.51866069E+00   9.53625135E+02   6.51852167E+00  -1.93243669E-06   0.00000000E+00   0.00000000E+00   0.00000000E+00   1.52268835E+04   7.11043614E+00
   5.86250000E+02   5.00000000E-01   5.00000000E-01  -4.46472011E+04   3.03733252E+03   0.00000000E+00   9.14833329E+03   1.71363655E+03   6.23129690E+03   7.34541570E+01   1.91004278E+00   2.16216047E+00   0.00000000E+00   0.00000000E+00   2.05023621E+01   6.94897726E+01   2.44618226E+00   7.03729940E+00   0.00000000E+00   8.14927149E+00   5.27768788E-06   3.51866069E+00   9.52953910E+02   6.51838745E+00  -1.93243669E-06   0.00000000E+00   0.00000000E+00   0.00000000E+00   1.52251035E+04   7.11043543E+00
   6.03750000E+02   5.00000000E-01   5.00000000E-01  -4.46484562E+04   3.03733252E+03   0.00000000E+00   9.14880802E+03   1.71365794E+03   6.23176323E+03   7.34541570E+01   1.90991288E+00   2.16216047E+00   0.00000000E+00   0.00000000E+00   2.05023621E+01   6.94897897E+01   2.44618226E+00   7.03729940E+00   0.00000000E+00   8.14927147E+00   4.97105105E-06   3.51866069E+00   9.52284079E+02   6.51825756E+00  -1.93243669E-06   0.00000000E+00   0.00000000E+00   0.00000000E+00   1.52232983E+04   7.11043471E+00
   6.21250000E+02   5.00000000E-01   5.00000000E-01  -4.46496381E+04   3.03733252E+03   0.00000000E+00   9.14924793E+03   1.71367822E+03   6.23222748E+03   7.34541570E+01   1.90978737E+00   2.16216047E+00   0.00000000E+00   0.00000000E+00   2.05023621E+01   6.94898071E+01   2.44618226E+00   7.03729940E+00   0.00000000E+00   8.14927146E+00   4.68868419E-06   3.51866069E+00   9.51617100E+02   6.51813204E+00  -1.93243669E-06   0.00000000E+00   0.00000000E+00   0.00000000E+00   1.52214697E+04   7.11043398E+00
   6.38750000E+02   5.00000000E-01   5.00000000E-01  -4.46507393E+04   3.03733252E+03   0.00000000E+00   9.14964933E+03   1.71369731E+03   6.23268905E+03   7.34541570E+01   1.90966629E+00   2.16216047E+00   0.00000000E+00   0.00000000E+00   2.05023621E+01   6.94898248E+01   2.44618226E+00   7.03729940E+00   0.00000000E+00   8.14927144E+00   4.42839769E-06   3.51866069E+00   9.50954132E+02   6.51801097E+00  -1.93243669E-06   0.00000000E+00   0.00000000E+00   0.00000000E+00   1.52196182E+04   7.11043325E+00
   6.56250000E+02   5.00000000E-01   5.00000000E-01  -4.46517521E+04   3.03733252E+03   0.00000000E+00   9.15000877E+03   1.71371514E+03   6.23314722E+03   7.34541570E+01   1.90954971E+00   2.16216047E+00   0.00000000E+00   0.00000000E+00   2.05023621E+01   6.94898430E+01   2.44618226E+00   7.03729940E+00   0.00000000E+00   8.14927143E+00   4.18817786E-06   3.51866069E+00   9.50296031E+02   6.51789439E+00  -1.93243669E-06   0.00000000E+00   0.00000000E+00   0.00000000E+00   1.52177435E+04   7.11043252E+00
   6.73750000E+02   5.00000000E-01   5.00000000E-01  -4.46526694E+04   3.03733252E+03   0.00000000E+00   9.15032314E+03   1.71373169E+03   6.23360122E+03   7.34541570E+01   1.90943767E+00   2.16216048E+00   0.00000000E+00   0.00000000E+00   2.05023621E+01   6.94898616E+01   2.44618226E+00   7.03729940E+00   0.00000000E+00   8.14927142E+00   3.96616843E-06   3.51866069E+00   9.49643408E+02   6.51778237E+00  -1.93243669E-06   0.00000000E+00   0.00000000E+00   0.00000000E+00   1.52158445E+04   7.11043179E+00
   6.91250000E+02   5.00000000E-01   5.00000000E-01  -4.46534845E+04   3.03733252E+03   0.00000000E+00   9.15058986E+03   1.71374686E+03   6.23405024E+03   7.34541570E+01   1.90933023E+00   2.16216048E+00   0.00000000E+00   0.00000000E+00   2.05023621E+01   6.94898807E+01   2.44618226E+00   7.03729940E+00   0.00000000E+00   8.14927141E+00   3.76066960E-06   3.51866069E+00   9.48996726E+02   6.51767493E+00  -1.93243669E-06   0.00000000E+00   0.00000000E+00   0.00000000E+00   1.52139202E+04   7.11043106E+00
   7.08750000E+02   5.00000000E-01   5.00000000E-01  -4.46541921E+04   3.03733252E+03   0.00000000E+00   9.15080687E+03   1.71376051E+03   6.23449348E+03   7.34541570E+01   1.90922741E+00   2.16216048E+00   0.00000000E+00   0.00000000E+00   2.05023621E+01   6.94899001E+01   2.44618226E+00   7.03729940E+00   0.00000000E+00   8.14927141E+00   3.57014713E-06   3.51866069E+00   9.48356401E+02   6.51757213E+00  -1.93243669E-06   0.00000000E+00   0.00000000E+00   0.00000000E+00   1.52119697E+04   7.11043034E+00
   7.26250000E+02   5.00000000E-01   5.00000000E-01  -4.46547874E+04   3.03733252E+03   0.00000000E+00   9.15097270E+03   1.71377234E+03   6.23493024E+03   7.34541570E+01   1.90912926E+00   2.16216048E+00   0.00000000E+00   0.00000000E+00   2.05023621E+01   6.94899200E+01   2.44618226E+00   7.03729940E+00   0.00000000E+00   8.14927140E+00   3.39324178E-06   3.51866069E+00   9.47722866E+02   6.51747401E+00  -1.93243669E-06   0.00000000E+00   0.00000000E+00   0.00000000E+00   1.52099923E+04   7.11042962E+00
   7.43750000E+02   5.00000000E-01   5.00000000E-01  -4.46552669E+04   3.03733252E+03   0.00000000E+00   9.15108627E+03   1.71378198E+03   6.23535990E+03   7.34541570E+01   1.90903580E+00   2.16216048E+00   0.00000000E+00   0.00000000E+00   2.05023621E+01   6.94899403E+01   2.44618226E+00   7.03729940E+00   0.00000000E+00   8.14927140E+00   3.22877119E-06   3.51866069E+00   9.47096583E+02   6.51738060E+00  -1.93243669E-06   0.00000000E+00   0.00000000E+00   0.00000000E+00   1.52079878E+04   7.11042890E+00
   7.61250000E+02   5.00000000E-01   5.00000000E-01  -4.46556276E+04   3.03733252E+03   0.00000000E+00   9.15114684E+03   1.71378897E+03   6.23578198E+03   7.34541570E+01   1.90894707E+00   2.16216048E+00   0.00000000E+00   0.00000000E+00   2.05023621E+01   6.94899610E+01   2.44618226E+00   7.03729940E+00   0.00000000E+00   8.14927140E+00   3.07571955E-06   3.51866069E+00   9.46477994E+02   6.51729193E+00  -1.93243669E-06   0.00000000E+00   0.00000000E+00   0.00000000E+00   1.52059563E+04   7.11042819E+00
   7.78750000E+02   5.00000000E-01   5.00000000E-01  -4.46558672E+04   3.03733252E+03   0.00000000E+00   9.15115381E+03   1.71379287E+03   6.23619617E+03   7.34541570E+01   1.90886308E+00   2.16216048E+00   0.00000000E+00   0.00000000E+00   2.05023621E+01   6.94899822E+01   2.44618226E+00   7.03729939E+00   0.00000000E+00   8.14927140E+00   2.93321554E-06   3.51866069E+00   9.45867436E+02   6.51720805E+00  -1.93243669E-06   0.00000000E+00   0.00000000E+00   0.00000000E+00   1.52038974E+04   7.11042749E+00
   7.96250000E+02   5.00000000E-01   5.00000000E-01  -4.46559838E+04   3.03733252E+03   0.00000000E+00   9.15110672E+03   1.71379328E+03   6.23660229E+03   7.34541570E+01   1.90878386E+00   2.16216048E+00   0.00000000E+00   0.00000000E+00   2.05023621E+01   6.94900039E+01   2.44618226E+00   7.03729939E+00   0.00000000E+00   8.14927140E+00   2.80050311E-06   3.51866068E+00   9.45265058E+02   6.51712900E+00  -1.93243669E-06   0.00000000E+00   0.00000000E+00   0.00000000E+00   1.52018105E+04   7.11042680E+00
   8.13750000E+02   5.00000000E-01   5.00000000E-01  -4.46559759E+04   3.03733252E+03   0.00000000E+00   9.15100530E+03   1.71378992E+03   6.23700025E+03   7.34541570E+01   1.90870941E+00   2.16216048E+00   0.00000000E+00   0.00000000E+00   2.05023621E+01   6.94900260E+01   2.44618226E+00   7.03729939E+00   0.00000000E+00   8.14927140E+00   2.67691111E-06   3.51866068E+00   9.44670779E+02   6.51705483E+00  -1.93243669E-06   0.00000000E+00   0.00000000E+00   0.00000000E+00   1.51996945E+04   7.11042612E+00
   8.31250000E+02   5.00000000E-01   5.00000000E-01  -4.46558433E+04   3.03733252E+03   0.00000000E+00   9.15084966E+03   1.71378265E+03   6.23739008E+03   7.34541570E+01   1.90863974E+00   2.16216048E+00   0.00000000E+00   0.00000000E+00   2.05023621E+01   6.94900486E+01   2.44618226E+00   7.03729939E+00   0.00000000E+00   8.14927141E+00   2.56182713E-06   3.51866068E+00   9.44084299E+02   6.51698560E+00  -1.93243669E-06   0.00000000E+00   0.00000000E+00   0.00000000E+00   1.51975483E+04   7.11042545E+00
   8.48750000E+02   5.00000000E-01   5.00000000E-01  -4.46555869E+04   3.03733252E+03   0.00000000E+00   9.15064045E+03   1.71377144E+03   6.23777183E+03   7.34541570E+01   1.90857486E+00   2.16216048E+00   0.00000000E+00   0.00000000E+00   2.05023621E+01   6.94900718E+01   2.44618226E+00   7.03729939E+00   0.00000000E+00   8.14927142E+00   2.45467837E-06   3.51866068E+00   9.43505190E+02   6.51692144E+00  -1.93243669E-06   0.00000000E+00   0.00000000E+00   0.00000000E+00   1.51953707E+04   7.11042479E+00
   8.66250000E+02   5.00000000E-01   5.00000000E-01  -4.46552094E+04   3.03733252E+03   0.00000000E+00   9.15037910E+03   1.71375639E+03   6.23814555E+03   7.34541570E+01   1.90851475E+00   2.16216048E+00   0.00000000E+00   0.00000000E+00   2.05023621E+01   6.94900954E+01   2.44618226E+00   7.03729939E+00   0.00000000E+00   8.14927142E+00   2.35491974E-06   3.51866068E+00   9.42933003E+02   6.51686253E+00  -1.93243669E-06   0.00000000E+00   0.00000000E+00   0.00000000E+00   1.51931615E+04   7.11042414E+00
   8.83750000E+02   5.00000000E-01   5.00000000E-01  -4.46547153E+04   3.03733252E+03   0.00000000E+00   9.15006791E+03   1.71373766E+03   6.23851120E+03   7.34541570E+01   1.90845943E+00   2.16216048E+00   0.00000000E+00   0.00000000E+00   2.05023621E+01   6.94901197E+01   2.44618226E+00   7.03729939E+00   0.00000000E+00   8.14927143E+00   2.26202799E-06   3.51866068E+00   9.42367407E+02   6.51680917E+00  -1.93243669E-06   0.00000000E+00   0.00000000E+00   0.00000000E+00   1.51909218E+04   7.11042350E+00
   9.01250000E+02   5.00000000E-01   5.00000000E-01  -4.46541111E+04   3.03733252E+03   0.00000000E+00   9.14971008E+03   1.71371545E+03   6.23886865E+03   7.34541570E+01   1.90840886E+00   2.16216048E+00   0.00000000E+00   0.00000000E+00   2.05023621E+01   6.94901445E+01   2.44618226E+00   7.03729939E+00   0.00000000E+00   8.14927144E+00   2.17549980E-06   3.51866068E+00   9.41808296E+02   6.51676189E+00  -1.93243669E-06   0.00000000E+00   0.00000000E+00   0.00000000E+00   1.51886544E+04   7.11042288E+00
   9.18750000E+02   5.00000000E-01   5.00000000E-01  -4.46534046E+04   3.03733252E+03   0.00000000E+00   9.14930960E+03   1.71369000E+03   6.23921753E+03   7.34541570E+01   1.90836304E+00   2.16216048E+00   0.00000000E+00   0.00000000E+00   2.05023621E+01   6.94901699E+01   2.44618226E+00   7.03729939E+00   0.00000000E+00   8.14927146E+00   2.09485227E-06   3.51866068E+00   9.41255865E+02   6.51672163E+00  -1.93243669E-06   0.00000000E+00   0.00000000E+00   0.00000000E+00   1.51863638E+04   7.11042227E+00
   9.36250000E+02   5.00000000E-01   5.00000000E-01  -4.46526049E+04   3.03733252E+03   0.00000000E+00   9.14887111E+03   1.71366151E+03   6.23955726E+03   7.34541570E+01   1.90832195E+00   2.16216048E+00   0.00000000E+00   0.00000000E+00   2.05023621E+01   6.94901959E+01   2.44618226E+00   7.03729939E+00   0.00000000E+00   8.14927147E+00   2.01962467E-06   3.51866068E+00   9.40710641E+02   6.51669004E+00  -1.93243669E-06   0.00000000E+00   0.00000000E+00   0.00000000E+00   1.51840562E+04   7.11042168E+00
   9.53750000E+02   5.00000000E-01   5.00000000E-01  -4.46517218E+04   3.03733252E+03   0.00000000E+00   9.14839972E+03   1.71363021E+03   6.23988697E+03   7.34541570E+01   1.90828558E+00   2.16216048E+00   0.00000000E+00   0.00000000E+00   2.05023621E+01   6.94902226E+01   2.44618226E+00   7.03729939E+00   0.00000000E+00   8.14927149E+00   1.94938067E-06   3.51866068E+00   9.40173470E+02   6.51667002E+00  -1.93243669E-06   0.00000000E+00   0.00000000E+00   0.00000000E+00   1.51817392E+04   7.11042110E+00
   9.71250000E+02   5.00000000E-01   5.00000000E-01  -4.46507651E+04   3.03733252E+03   0.00000000E+00   9.14790077E+03   1.71359630E+03   6.24020551E+03   7.34541570E+01   1.90825389E+00   2.16216048E+00   0.00000000E+00   0.00000000E+00   2.05023621E+01   6.94902498E+01   2.44618226E+00   7.03729939E+00   0.00000000E+00   8.14927150E+00   1.88371070E-06   3.51866068E+00   9.39645479E+02   6.51666681E+00  -1.93243669E-06   0.00000000E+00   0.00000000E+00   0.00000000E+00   1.51794216E+04   7.11042053E+00
   9.88750000E+02   5.00000000E-01   5.00000000E-01  -4.46497446E+04   3.03733252E+03   0.00000000E+00   9.14737968E+03   1.71355996E+03   6.24051146E+03   7.34541570E+01   1.90822687E+00   2.16216049E+00   0.00000000E+00   0.00000000E+00   2.05023621E+01   6.94902777E+01   2.44618226E+00   7.03729939E+00   0.00000000E+00   8.14927152E+00   1.82223428E-06   3.51866068E+00   9.39128004E+02   6.51668988E+00  -1.93243669E-06   0.00000000E+00   0.00000000E+00   0.00000000E+00   1.51771128E+04   7.11041998E+00