 TITLE = "Total Component Concentration in Minerals" 
VARIABLES = "X"          "Y"              "Z"            "H+"             "Al+++"          "CO2(aq)"        "Mg++"           "Ca++"           "Fe++"           "Fe+++"          "Ba++"           "Sr++"           "Cl-"            "F-"             "K+"             "HS-"            "Na+"            "SO4--"          "O2(aq)"         "B(OH)3(aq)"     "HPO4--"         "NO3-"           "H4SiO4(aq)"    
 ZONE I=         100 , J=           1 , K=           1  F=POINT
   1.75000000E+01   5.00000000E-01   5.00000000E-01  -5.15856557E+04   4.76125757E+03   0.00000000E+00   1.50897935E+04   3.00559050E+03   1.20463563E+03   7.19372705E+00   0.00000000E+00   0.00000000E+00   0.00000000E+00   0.00000000E+00   0.00000000E+00   0.00000000E+00   1.31437184E+03   1.31705466E+03   0.00000000E+00   0.00000000E+00   0.00000000E+00   0.00000000E+00   1.99271805E+04
   5.25000000E+01   5.00000000E-01   5.00000000E-01  -5.15774215E+04   4.76125334E+03   0.00000000E+00   1.50825462E+04   3.13224596E+03   1.20463602E+03   7.19372709E+00   0.00000000E+00   0.00000000E+00   0.00000000E+00   0.00000000E+00   0.00000000E+00   0.00000000E+00   1.32064343E+03   1.44370973E+03   0.00000000E+00   0.00000000E+00   0.00000000E+00   0.00000000E+00   1.99524141E+04
   8.75000000E+01   5.00000000E-01   5.00000000E-01  -5.15754073E+04   4.76125334E+03   0.00000000E+00   1.50799718E+04   3.26616888E+03   1.20463663E+03   7.19372707E+00   0.00000000E+00   0.00000000E+00   0.00000000E+00   0.00000000E+00   0.00000000E+00   0.00000000E+00   1.32377590E+03   1.57763217E+03   0.00000000E+00   0.00000000E+00   0.00000000E+00   0.00000000E+00   1.99661945E+04
   1.22500000E+02   5.00000000E-01   5.00000000E-01  -5.15750210E+04   4.76125334E+03   0.00000000E+00   1.50791671E+04   3.39782570E+03   1.20463745E+03   7.19372707E+00   0.00000000E+00   0.00000000E+00   0.00000000E+00   0.00000000E+00   0.00000000E+00   0.00000000E+00   1.32499648E+03   1.70928858E+03   0.00000000E+00   0.00000000E+00   0.00000000E+00   0.00000000E+00   1.99718079E+04
   1.57500000E+02   5.00000000E-01   5.00000000E-01  -5.15750569E+04   4.76125334E+03   0.00000000E+00   1.50789667E+04   3.51996700E+03   1.20463847E+03   7.19372707E+00   0.00000000E+00   0.00000000E+00   0.00000000E+00   0.00000000E+00   0.00000000E+00   0.00000000E+00   1.32543040E+03   1.83142958E+03   0.00000000E+00   0.00000000E+00   0.00000000E+00   0.00000000E+00   1.99738975E+04
   1.92500000E+02   5.00000000E-01   5.00000000E-01  -5.15752380E+04   4.76125334E+03   0.00000000E+00   1.50789936E+04   3.62797848E+03   1.20463968E+03   7.19372707E+00   0.00000000E+00   0.00000000E+00   0.00000000E+00   0.00000000E+00   0.00000000E+00   0.00000000E+00   1.32555500E+03   1.93944084E+03   0.00000000E+00   0.00000000E+00   0.00000000E+00   0.00000000E+00   1.99745881E+04
   2.27500000E+02   5.00000000E-01   5.00000000E-01  -5.15754817E+04   4.76125334E+03   0.00000000E+00   1.50791133E+04   3.71973209E+03   1.20464106E+03   7.19372707E+00   0.00000000E+00   0.00000000E+00   0.00000000E+00   0.00000000E+00   0.00000000E+00   0.00000000E+00   1.32555629E+03   2.03119433E+03   0.00000000E+00   0.00000000E+00   0.00000000E+00   0.00000000E+00   1.99747265E+04
   2.62500000E+02   5.00000000E-01   5.00000000E-01  -5.15757594E+04   4.76125334E+03   0.00000000E+00   1.50792754E+04   3.79507388E+03   1.20464262E+03   7.19372707E+00   0.00000000E+00   0.00000000E+00   0.00000000E+00   0.00000000E+00   0.00000000E+00   0.00000000E+00   1.32550645E+03   2.10653604E+03   0.00000000E+00   0.00000000E+00   0.00000000E+00   0.00000000E+00   1.99746441E+04
   2.97500000E+02   5.00000000E-01   5.00000000E-01  -5.15760608E+04   4.76125334E+03   0.00000000E+00   1.50794606E+04   3.85517565E+03   1.20464435E+03   7.19372707E+00   0.00000000E+00   0.00000000E+00   0.00000000E+00   0.00000000E+00   0.00000000E+00   0.00000000E+00   1.32543388E+03   2.16663780E+03   0.00000000E+00   0.00000000E+00   0.00000000E+00   0.00000000E+00   1.99744723E+04
   3.32500000E+02   5.00000000E-01   5.00000000E-01  -5.15763819E+04   4.76125334E+03   0.00000000E+00   1.50796613E+04   3.90176971E+03   1.20464624E+03   7.19372707E+00   0.00000000E+00   0.00000000E+00   0.00000000E+00   0.00000000E+00   0.00000000E+00   0.00000000E+00   1.32534997E+03   2.21323188E+03   0.00000000E+00   0.00000000E+00   0.00000000E+00   0.00000000E+00   1.99742640E+04
   3.67500000E+02   5.00000000E-01   5.00000000E-01  -5.15767213E+04   4.76125334E+03   0.00000000E+00   1.50798742E+04   3.93697053E+03   1.20464830E+03   7.19372707E+00   0.00000000E+00   0.00000000E+00   0.00000000E+00   0.00000000E+00   0.00000000E+00   0.00000000E+00   1.32525939E+03   2.24843273E+03   0.00000000E+00   0.00000000E+00   0.00000000E+00   0.00000000E+00   1.99740412E+04
   4.02500000E+02   5.00000000E-01   5.00000000E-01  -5.15770784E+04   4.76125334E+03   0.00000000E+00   1.50800983E+04   3.96313184E+03   1.20465051E+03   7.19372707E+00   0.00000000E+00   0.00000000E+00   0.00000000E+00   0.00000000E+00   0.00000000E+00   0.00000000E+00   1.32516408E+03   2.27459409E+03   0.00000000E+00   0.00000000E+00   0.00000000E+00   0.00000000E+00   1.99738126E+04
   4.37500000E+02   5.00000000E-01   5.00000000E-01  -5.15774529E+04   4.76125334E+03   0.00000000E+00   1.50803328E+04   3.98222393E+03   1.20465288E+03   7.19372707E+00   0.00000000E+00   0.00000000E+00   0.00000000E+00   0.00000000E+00   0.00000000E+00   0.00000000E+00   1.32506491E+03   2.29368625E+03   0.00000000E+00   0.00000000E+00   0.00000000E+00   0.00000000E+00   1.99735820E+04
   4.72500000E+02   5.00000000E-01   5.00000000E-01  -5.15778440E+04   4.76125334E+03   0.00000000E+00   1.50805772E+04   3.99584927E+03   1.20465541E+03   7.19372706E+00   0.00000000E+00   0.00000000E+00   0.00000000E+00   0.00000000E+00   0.00000000E+00   0.00000000E+00   1.32496232E+03   2.30731164E+03   0.00000000E+00   0.00000000E+00   0.00000000E+00   0.00000000E+00   1.99733507E+04
   5.07500000E+02   5.00000000E-01   5.00000000E-01  -5.15782508E+04   4.76125334E+03   0.00000000E+00   1.50808308E+04   4.00528553E+03   1.20465809E+03   7.19372706E+00   0.00000000E+00   0.00000000E+00   0.00000000E+00   0.00000000E+00   0.00000000E+00   0.00000000E+00   1.32485662E+03   2.31674795E+03   0.00000000E+00   0.00000000E+00   0.00000000E+00   0.00000000E+00   1.99731193E+04
   5.42500000E+02   5.00000000E-01   5.00000000E-01  -5.15786718E+04   4.76125334E+03   0.00000000E+00   1.50810928E+04   4.01153595E+03   1.20466093E+03   7.19372706E+00   0.00000000E+00   0.00000000E+00   0.00000000E+00   0.00000000E+00   0.00000000E+00   0.00000000E+00   1.32474808E+03   2.32299839E+03   0.00000000E+00   0.00000000E+00   0.00000000E+00   0.00000000E+00   1.99728877E+04
   5.77500000E+02   5.00000000E-01   5.00000000E-01  -5.15791053E+04   4.76125334E+03   0.00000000E+00   1.50813621E+04   4.01537866E+03   1.20466392E+03   7.19372706E+00   0.00000000E+00   0.00000000E+00   0.00000000E+00   0.00000000E+00   0.00000000E+00   0.00000000E+00   1.32463701E+03   2.32684110E+03   0.00000000E+00   0.00000000E+00   0.00000000E+00   0.00000000E+00   1.99726558E+04
   6.12500000E+02   5.00000000E-01   5.00000000E-01  -5.15795491E+04   4.76125334E+03   0.00000000E+00   1.50816374E+04   4.01741131E+03   1.20466706E+03   7.19372706E+00   0.00000000E+00   0.00000000E+00   0.00000000E+00   0.00000000E+00   0.00000000E+00   0.00000000E+00   1.32452375E+03   2.32887372E+03   0.00000000E+00   0.00000000E+00   0.00000000E+00   0.00000000E+00   1.99724234E+04
   6.47500000E+02   5.00000000E-01   5.00000000E-01  -5.15800005E+04   4.76125334E+03   0.00000000E+00   1.50819173E+04   4.01808923E+03   1.20467037E+03   7.19372706E+00   0.00000000E+00   0.00000000E+00   0.00000000E+00   0.00000000E+00   0.00000000E+00   0.00000000E+00   1.32440872E+03   2.32955158E+03   0.00000000E+00   0.00000000E+00   0.00000000E+00   0.00000000E+00   1.99721902E+04
   6.82500000E+02   5.00000000E-01   5.00000000E-01  -5.15804563E+04   4.76125334E+03   0.00000000E+00   1.50821998E+04   4.01775720E+03   1.20467383E+03   7.19372706E+00   0.00000000E+00   0.00000000E+00   0.00000000E+00   0.00000000E+00   0.00000000E+00   0.00000000E+00   1.32429235E+03   2.32921947E+03   0.00000000E+00   0.00000000E+00   0.00000000E+00   0.00000000E+00   1.99719559E+04
   7.17500000E+02   5.00000000E-01   5.00000000E-01  -5.15809129E+04   4.76125334E+03   0.00000000E+00   1.50824830E+04   4.01667502E+03   1.20467745E+03   7.19372706E+00   0.00000000E+00   0.00000000E+00   0.00000000E+00   0.00000000E+00   0.00000000E+00   0.00000000E+00   1.32417514E+03   2.32813720E+03   0.00000000E+00   0.00000000E+00   0.00000000E+00   0.00000000E+00   1.99717202E+04
   7.52500000E+02   5.00000000E-01   5.00000000E-01  -5.15813666E+04   4.76125334E+03   0.00000000E+00   1.50827647E+04   4.01503783E+03   1.20468122E+03   7.19372705E+00   0.00000000E+00   0.00000000E+00   0.00000000E+00   0.00000000E+00   0.00000000E+00   0.00000000E+00   1.32405764E+03   2.32649991E+03   0.00000000E+00   0.00000000E+00   0.00000000E+00   0.00000000E+00   1.99714827E+04
   7.87500000E+02   5.00000000E-01   5.00000000E-01  -5.15818129E+04   4.76125334E+03   0.00000000E+00   1.50830424E+04   4.01299194E+03   1.20468516E+03   7.19372705E+00   0.00000000E+00   0.00000000E+00   0.00000000E+00   0.00000000E+00   0.00000000E+00   0.00000000E+00   1.32394042E+03   2.32445391E+03   0.00000000E+00   0.00000000E+00   0.00000000E+00   0.00000000E+00   1.99712431E+04
   8.22500000E+02   5.00000000E-01   5.00000000E-01  -5.15822473E+04   4.76125334E+03   0.00000000E+00   1.50833136E+04   4.01064707E+03   1.20468927E+03   7.19372705E+00   0.00000000E+00   0.00000000E+00   0.00000000E+00   0.00000000E+00   0.00000000E+00   0.00000000E+00   1.32382406E+03   2.32210893E+03   0.00000000E+00   0.00000000E+00   0.00000000E+00   0.00000000E+00   1.99710010E+04
   8.57500000E+02   5.00000000E-01   5.00000000E-01  -5.15826653E+04   4.76125334E+03   0.00000000E+00   1.50835756E+04   4.00808563E+03   1.20469353E+03   7.19372704E+00   0.00000000E+00   0.00000000E+00   0.00000000E+00   0.00000000E+00   0.00000000E+00   0.00000000E+00   1.32370919E+03   2.31954737E+03   0.00000000E+00   0.00000000E+00   0.00000000E+00   0.00000000E+00   1.99707561E+04
   8.92500000E+02   5.00000000E-01   5.00000000E-01  -5.15830618E+04   4.76125334E+03   0.00000000E+00   1.50838258E+04   4.00536975E+03   1.20469796E+03   7.19372703E+00   0.00000000E+00   0.00000000E+00   0.00000000E+00   0.00000000E+00   0.00000000E+00   0.00000000E+00   1.32359641E+03   2.31683136E+03   0.00000000E+00   0.00000000E+00   0.00000000E+00   0.00000000E+00   1.99705080E+04
   9.27500000E+02   5.00000000E-01   5.00000000E-01  -5.15834323E+04   4.76125334E+03   0.00000000E+00   1.50840613E+04   4.00254645E+03   1.20470254E+03   7.19372702E+00   0.00000000E+00   0.00000000E+00   0.00000000E+00   0.00000000E+00   0.00000000E+00   0.00000000E+00   1.32348634E+03   2.31400794E+03   0.00000000E+00   0.00000000E+00   0.00000000E+00   0.00000000E+00   1.99702564E+04
   9.62500000E+02   5.00000000E-01   5.00000000E-01  -5.15837720E+04   4.76125334E+03   0.00000000E+00   1.50842797E+04   3.99965160E+03   1.20470729E+03   7.19372701E+00   0.00000000E+00   0.00000000E+00   0.00000000E+00   0.00000000E+00   0.00000000E+00   0.00000000E+00   1.32337956E+03   2.31111295E+03   0.00000000E+00   0.00000000E+00   0.00000000E+00   0.00000000E+00   1.99700009E+04
   9.97500000E+02   5.00000000E-01   5.00000000E-01  -5.15840765E+04   4.76125334E+03   0.00000000E+00   1.50844784E+04   3.99671270E+03   1.20471219E+03   7.19372699E+00   0.00000000E+00   0.00000000E+00   0.00000000E+00   0.00000000E+00   0.00000000E+00   0.00000000E+00   1.32327661E+03   2.30817391E+03   0.00000000E+00   0.00000000E+00   0.00000000E+00   0.00000000E+00   1.99697413E+04
   1.03250000E+03   5.00000000E-01   5.00000000E-01  -5.15843419E+04   4.76125334E+03   0.00000000E+00   1.50846552E+04   3.99375099E+03   1.20471724E+03   7.19372696E+00   0.00000000E+00   0.00000000E+00   0.00000000E+00   0.00000000E+00   0.00000000E+00   0.00000000E+00   1.32317800E+03   2.30521206E+03   0.00000000E+00   0.00000000E+00   0.00000000E+00   0.00000000E+00   1.99694775E+04
   1.06750000E+03   5.00000000E-01   5.00000000E-01  -5.15845645E+04   4.76125334E+03   0.00000000E+00   1.50848081E+04   3.99078297E+03   1.20472244E+03   7.19372693E+00   0.00000000E+00   0.00000000E+00   0.00000000E+00   0.00000000E+00   0.00000000E+00   0.00000000E+00   1.32308417E+03   2.30224389E+03   0.00000000E+00   0.00000000E+00   0.00000000E+00   0.00000000E+00   1.99692093E+04
   1.10250000E+03   5.00000000E-01   5.00000000E-01  -5.15847415E+04   4.76125334E+03   0.00000000E+00   1.50849354E+04   3.98782150E+03   1.20472778E+03   7.19372689E+00   0.00000000E+00   0.00000000E+00   0.00000000E+00   0.00000000E+00   0.00000000E+00   0.00000000E+00   1.32299550E+03   2.29928227E+03   0.00000000E+00   0.00000000E+00   0.00000000E+00   0.00000000E+00   1.99689366E+04
   1.13750000E+03   5.00000000E-01   5.00000000E-01  -5.15848705E+04   4.76125334E+03   0.00000000E+00   1.50850359E+04   3.98487661E+03   1.20473326E+03   7.19372683E+00   0.00000000E+00   0.00000000E+00   0.00000000E+00   0.00000000E+00   0.00000000E+00   0.00000000E+00   1.32291230E+03   2.29633724E+03   0.00000000E+00   0.00000000E+00   0.00000000E+00   0.00000000E+00   1.99686597E+04
   1.17250000E+03   5.00000000E-01   5.00000000E-01  -5.15849500E+04   4.76125334E+03   0.00000000E+00   1.50851086E+04   3.98195612E+03   1.20473886E+03   7.19372676E+00   0.00000000E+00   0.00000000E+00   0.00000000E+00   0.00000000E+00   0.00000000E+00   0.00000000E+00   1.32283479E+03   2.29341659E+03   0.00000000E+00   0.00000000E+00   0.00000000E+00   0.00000000E+00   1.99683787E+04
   1.20750000E+03   5.00000000E-01   5.00000000E-01  -5.15849793E+04   4.76125334E+03   0.00000000E+00   1.50851532E+04   3.97906601E+03   1.20474457E+03   7.19372667E+00   0.00000000E+00   0.00000000E+00   0.00000000E+00   0.00000000E+00   0.00000000E+00   0.00000000E+00   1.32276311E+03   2.29052633E+03   0.00000000E+00   0.00000000E+00   0.00000000E+00   0.00000000E+00   1.99680938E+04
   1.24250000E+03   5.00000000E-01   5.00000000E-01  -5.15849584E+04   4.76125334E+03   0.00000000E+00   1.50851697E+04   3.97621084E+03   1.20475040E+03   7.19372654E+00   0.00000000E+00   0.00000000E+00   0.00000000E+00   0.00000000E+00   0.00000000E+00   0.00000000E+00   1.32269733E+03   2.28767101E+03   0.00000000E+00   0.00000000E+00   0.00000000E+00   0.00000000E+00   1.99678056E+04
   1.27750000E+03   5.00000000E-01   5.00000000E-01  -5.15848881E+04   4.76125334E+03   0.00000000E+00   1.50851584E+04   3.97339394E+03   1.20475632E+03   7.19372638E+00   0.00000000E+00   0.00000000E+00   0.00000000E+00   0.00000000E+00   0.00000000E+00   0.00000000E+00   1.32263741E+03   2.28485396E+03   0.00000000E+00   0.00000000E+00   0.00000000E+00   0.00000000E+00   1.99675146E+04
   1.31250000E+03   5.00000000E-01   5.00000000E-01  -5.15847702E+04   4.76125334E+03   0.00000000E+00   1.50851204E+04   3.97061765E+03   1.20476233E+03   7.19372618E+00   0.00000000E+00   0.00000000E+00   0.00000000E+00   0.00000000E+00   0.00000000E+00   0.00000000E+00   1.32258325E+03   2.28207751E+03   0.00000000E+00   0.00000000E+00   0.00000000E+00   0.00000000E+00   1.99672215E+04
   1.34750000E+03   5.00000000E-01   5.00000000E-01  -5.15846069E+04   4.76125334E+03   0.00000000E+00   1.50850568E+04   3.96788344E+03   1.20476841E+03   7.19372591E+00   0.00000000E+00   0.00000000E+00   0.00000000E+00   0.00000000E+00   0.00000000E+00   0.00000000E+00   1.32253467E+03   2.27934315E+03   0.00000000E+00   0.00000000E+00   0.00000000E+00   0.00000000E+00   1.99669269E+04
   1.38250000E+03   5.00000000E-01   5.00000000E-01  -5.15844013E+04   4.76125334E+03   0.00000000E+00   1.50849694E+04   3.96519207E+03   1.20477456E+03   7.19372557E+00   0.00000000E+00   0.00000000E+00   0.00000000E+00   0.00000000E+00   0.00000000E+00   0.00000000E+00   1.32249141E+03   2.27665164E+03   0.00000000E+00   0.00000000E+00   0.00000000E+00   0.00000000E+00   1.99666315E+04
   1.41750000E+03   5.00000000E-01   5.00000000E-01  -5.15841569E+04   4.76125334E+03   0.00000000E+00   1.50848599E+04   3.96254373E+03   1.20478076E+03   7.19372514E+00   0.00000000E+00   0.00000000E+00   0.00000000E+00   0.00000000E+00   0.00000000E+00   0.00000000E+00   1.32245319E+03   2.27400315E+03   0.00000000E+00   0.00000000E+00   0.00000000E+00   0.00000000E+00   1.99663364E+04
   1.45250000E+03   5.00000000E-01   5.00000000E-01  -5.15838778E+04   4.76125334E+03   0.00000000E+00   1.50847308E+04   3.95993804E+03   1.20478699E+03   7.19372459E+00   0.00000000E+00   0.00000000E+00   0.00000000E+00   0.00000000E+00   0.00000000E+00   0.00000000E+00   1.32241966E+03   2.27139733E+03   0.00000000E+00   0.00000000E+00   0.00000000E+00   0.00000000E+00   1.99660423E+04
   1.48750000E+03   5.00000000E-01   5.00000000E-01  -5.15835681E+04   4.76125334E+03   0.00000000E+00   1.50845841E+04   3.95737426E+03   1.20479326E+03   7.19372389E+00   0.00000000E+00   0.00000000E+00   0.00000000E+00   0.00000000E+00   0.00000000E+00   0.00000000E+00   1.32239043E+03   2.26883340E+03   0.00000000E+00   0.00000000E+00   0.00000000E+00   0.00000000E+00   1.99657500E+04
   1.52250000E+03   5.00000000E-01   5.00000000E-01  -5.15832325E+04   4.76125334E+03   0.00000000E+00   1.50844226E+04   3.95485125E+03   1.20479954E+03   7.19372301E+00   0.00000000E+00   0.00000000E+00   0.00000000E+00   0.00000000E+00   0.00000000E+00   0.00000000E+00   1.32236511E+03   2.26631026E+03   0.00000000E+00   0.00000000E+00   0.00000000E+00   0.00000000E+00   1.99654605E+04
   1.55750000E+03   5.00000000E-01   5.00000000E-01  -5.15828754E+04   4.76125334E+03   0.00000000E+00   1.50842485E+04   3.95236762E+03   1.20480583E+03   7.19372190E+00   0.00000000E+00   0.00000000E+00   0.00000000E+00   0.00000000E+00   0.00000000E+00   0.00000000E+00   1.32234329E+03   2.26382649E+03   0.00000000E+00   0.00000000E+00   0.00000000E+00   0.00000000E+00   1.99651744E+04
   1.59250000E+03   5.00000000E-01   5.00000000E-01  -5.15825015E+04   4.76125334E+03   0.00000000E+00   1.50840645E+04   3.94992174E+03   1.20481212E+03   7.19372050E+00   0.00000000E+00   0.00000000E+00   0.00000000E+00   0.00000000E+00   0.00000000E+00   0.00000000E+00   1.32232458E+03   2.26138049E+03   0.00000000E+00   0.00000000E+00   0.00000000E+00   0.00000000E+00   1.99648926E+04
   1.62750000E+03   5.00000000E-01   5.00000000E-01  -5.15821151E+04   4.76125333E+03   0.00000000E+00   1.50838729E+04   3.94751183E+03   1.20481839E+03   7.19371875E+00   0.00000000E+00   0.00000000E+00   0.00000000E+00   0.00000000E+00   0.00000000E+00   0.00000000E+00   1.32230857E+03   2.25897045E+03   0.00000000E+00   0.00000000E+00   0.00000000E+00   0.00000000E+00   1.99646156E+04
   1.66250000E+03   5.00000000E-01   5.00000000E-01  -5.15817205E+04   4.76125333E+03   0.00000000E+00   1.50836761E+04   3.94513601E+03   1.20482465E+03   7.19371657E+00   0.00000000E+00   0.00000000E+00   0.00000000E+00   0.00000000E+00   0.00000000E+00   0.00000000E+00   1.32229491E+03   2.25659451E+03   0.00000000E+00   0.00000000E+00   0.00000000E+00   0.00000000E+00   1.99643442E+04
   1.69750000E+03   5.00000000E-01   5.00000000E-01  -5.15813214E+04   4.76125333E+03   0.00000000E+00   1.50834760E+04   3.94279234E+03   1.20483089E+03   7.19371393E+00   0.00000000E+00   0.00000000E+00   0.00000000E+00   0.00000000E+00   0.00000000E+00   0.00000000E+00   1.32228325E+03   2.25425073E+03   0.00000000E+00   0.00000000E+00   0.00000000E+00   0.00000000E+00   1.99640788E+04
   1.73250000E+03   5.00000000E-01   5.00000000E-01  -5.15809216E+04   4.76125333E+03   0.00000000E+00   1.50832747E+04   3.94047890E+03   1.20483709E+03   7.19371078E+00   0.00000000E+00   0.00000000E+00   0.00000000E+00   0.00000000E+00   0.00000000E+00   0.00000000E+00   1.32227330E+03   2.25193717E+03   0.00000000E+00   0.00000000E+00   0.00000000E+00   0.00000000E+00   1.99638199E+04
   1.76750000E+03   5.00000000E-01   5.00000000E-01  -5.15805241E+04   4.76125333E+03   0.00000000E+00   1.50830740E+04   3.93819381E+03   1.20484327E+03   7.19370708E+00   0.00000000E+00   0.00000000E+00   0.00000000E+00   0.00000000E+00   0.00000000E+00   0.00000000E+00   1.32226480E+03   2.24965197E+03   0.00000000E+00   0.00000000E+00   0.00000000E+00   0.00000000E+00   1.99635681E+04
   1.80250000E+03   5.00000000E-01   5.00000000E-01  -5.15801317E+04   4.76125333E+03   0.00000000E+00   1.50828752E+04   3.93593528E+03   1.20484941E+03   7.19370276E+00   0.00000000E+00   0.00000000E+00   0.00000000E+00   0.00000000E+00   0.00000000E+00   0.00000000E+00   1.32225752E+03   2.24739333E+03   0.00000000E+00   0.00000000E+00   0.00000000E+00   0.00000000E+00   1.99633235E+04
   1.83750000E+03   5.00000000E-01   5.00000000E-01  -5.15797470E+04   4.76125333E+03   0.00000000E+00   1.50826797E+04   3.93370171E+03   1.20485552E+03   7.19369771E+00   0.00000000E+00   0.00000000E+00   0.00000000E+00   0.00000000E+00   0.00000000E+00   0.00000000E+00   1.32225129E+03   2.24515965E+03   0.00000000E+00   0.00000000E+00   0.00000000E+00   0.00000000E+00   1.99630865E+04
   1.87250000E+03   5.00000000E-01   5.00000000E-01  -5.15793719E+04   4.76125333E+03   0.00000000E+00   1.50824886E+04   3.93149167E+03   1.20486161E+03   7.19369177E+00   0.00000000E+00   0.00000000E+00   0.00000000E+00   0.00000000E+00   0.00000000E+00   0.00000000E+00   1.32224598E+03   2.24294949E+03   0.00000000E+00   0.00000000E+00   0.00000000E+00   0.00000000E+00   1.99628574E+04
   1.90750000E+03   5.00000000E-01   5.00000000E-01  -5.15790080E+04   4.76125333E+03   0.00000000E+00   1.50823028E+04   3.92930397E+03   1.20486767E+03   7.19368475E+00   0.00000000E+00   0.00000000E+00   0.00000000E+00   0.00000000E+00   0.00000000E+00   0.00000000E+00   1.32224151E+03   2.24076169E+03   0.00000000E+00   0.00000000E+00   0.00000000E+00   0.00000000E+00   1.99626364E+04
   1.94250000E+03   5.00000000E-01   5.00000000E-01  -5.15786567E+04   4.76125333E+03   0.00000000E+00   1.50821228E+04   3.92713773E+03   1.20487372E+03   7.19367651E+00   0.00000000E+00   0.00000000E+00   0.00000000E+00   0.00000000E+00   0.00000000E+00   0.00000000E+00   1.32223782E+03   2.23859533E+03   0.00000000E+00   0.00000000E+00   0.00000000E+00   0.00000000E+00   1.99624238E+04
   1.97750000E+03   5.00000000E-01   5.00000000E-01  -5.15783190E+04   4.76125332E+03   0.00000000E+00   1.50819492E+04   3.92499237E+03   1.20487978E+03   7.19366708E+00   0.00000000E+00   0.00000000E+00   0.00000000E+00   0.00000000E+00   0.00000000E+00   0.00000000E+00   1.32223493E+03   2.23644986E+03   0.00000000E+00   0.00000000E+00   0.00000000E+00   0.00000000E+00   1.99622196E+04
   2.01250000E+03   5.00000000E-01   5.00000000E-01  -5.15779954E+04   4.76125332E+03   0.00000000E+00   1.50817824E+04   3.92286768E+03   1.20488585E+03   7.19365666E+00   0.00000000E+00   0.00000000E+00   0.00000000E+00   0.00000000E+00   0.00000000E+00   0.00000000E+00   1.32223285E+03   2.23432506E+03   0.00000000E+00   0.00000000E+00   0.00000000E+00   0.00000000E+00   1.99620242E+04
   2.04750000E+03   5.00000000E-01   5.00000000E-01  -5.15776866E+04   4.76125332E+03   0.00000000E+00   1.50816223E+04   3.92076384E+03   1.20489197E+03   7.19364561E+00   0.00000000E+00   0.00000000E+00   0.00000000E+00   0.00000000E+00   0.00000000E+00   0.00000000E+00   1.32223165E+03   2.23222110E+03   0.00000000E+00   0.00000000E+00   0.00000000E+00   0.00000000E+00   1.99618378E+04
   2.08250000E+03   5.00000000E-01   5.00000000E-01  -5.15773927E+04   4.76125332E+03   0.00000000E+00   1.50814692E+04   3.91868140E+03   1.20489816E+03   7.19363430E+00   0.00000000E+00   0.00000000E+00   0.00000000E+00   0.00000000E+00   0.00000000E+00   0.00000000E+00   1.32223144E+03   2.23013854E+03   0.00000000E+00   0.00000000E+00   0.00000000E+00   0.00000000E+00   1.99616606E+04
   2.11750000E+03   5.00000000E-01   5.00000000E-01  -5.15771138E+04   4.76125332E+03   0.00000000E+00   1.50813228E+04   3.91662135E+03   1.20490445E+03   7.19362304E+00   0.00000000E+00   0.00000000E+00   0.00000000E+00   0.00000000E+00   0.00000000E+00   0.00000000E+00   1.32223235E+03   2.22807835E+03   0.00000000E+00   0.00000000E+00   0.00000000E+00   0.00000000E+00   1.99614929E+04
   2.15250000E+03   5.00000000E-01   5.00000000E-01  -5.15768496E+04   4.76125332E+03   0.00000000E+00   1.50811831E+04   3.91458505E+03   1.20491088E+03   7.19361203E+00   0.00000000E+00   0.00000000E+00   0.00000000E+00   0.00000000E+00   0.00000000E+00   0.00000000E+00   1.32223453E+03   2.22604192E+03   0.00000000E+00   0.00000000E+00   0.00000000E+00   0.00000000E+00   1.99613348E+04
   2.18750000E+03   5.00000000E-01   5.00000000E-01  -5.15766001E+04   4.76125331E+03   0.00000000E+00   1.50810498E+04   3.91257428E+03   1.20491750E+03   7.19360142E+00   0.00000000E+00   0.00000000E+00   0.00000000E+00   0.00000000E+00   0.00000000E+00   0.00000000E+00   1.32223819E+03   2.22403100E+03   0.00000000E+00   0.00000000E+00   0.00000000E+00   0.00000000E+00   1.99611868E+04
   2.22250000E+03   5.00000000E-01   5.00000000E-01  -5.15763648E+04   4.76125331E+03   0.00000000E+00   1.50809225E+04   3.91059116E+03   1.20492436E+03   7.19359129E+00   0.00000000E+00   0.00000000E+00   0.00000000E+00   0.00000000E+00   0.00000000E+00   0.00000000E+00   1.32224353E+03   2.22204773E+03   0.00000000E+00   0.00000000E+00   0.00000000E+00   0.00000000E+00   1.99610491E+04
   2.25750000E+03   5.00000000E-01   5.00000000E-01  -5.15761433E+04   4.76125331E+03   0.00000000E+00   1.50808008E+04   3.90863813E+03   1.20493153E+03   7.19358158E+00   0.00000000E+00   0.00000000E+00   0.00000000E+00   0.00000000E+00   0.00000000E+00   0.00000000E+00   1.32225079E+03   2.22009455E+03   0.00000000E+00   0.00000000E+00   0.00000000E+00   0.00000000E+00   1.99609223E+04
   2.29250000E+03   5.00000000E-01   5.00000000E-01  -5.15759351E+04   4.76125331E+03   0.00000000E+00   1.50806843E+04   3.90671791E+03   1.20493908E+03   7.19357190E+00   0.00000000E+00   0.00000000E+00   0.00000000E+00   0.00000000E+00   0.00000000E+00   0.00000000E+00   1.32226026E+03   2.21817417E+03   0.00000000E+00   0.00000000E+00   0.00000000E+00   0.00000000E+00   1.99608068E+04
   2.32750000E+03   5.00000000E-01   5.00000000E-01  -5.15757395E+04   4.76125330E+03   0.00000000E+00   1.50805723E+04   3.90483339E+03   1.20494710E+03   7.19356171E+00   0.00000000E+00   0.00000000E+00   0.00000000E+00   0.00000000E+00   0.00000000E+00   0.00000000E+00   1.32227222E+03   2.21628949E+03   0.00000000E+00   0.00000000E+00   0.00000000E+00   0.00000000E+00   1.99607032E+04
   2.36250000E+03   5.00000000E-01   5.00000000E-01  -5.15755560E+04   4.76125330E+03   0.00000000E+00   1.50804645E+04   3.90298761E+03   1.20495569E+03   7.19355048E+00   0.00000000E+00   0.00000000E+00   0.00000000E+00   0.00000000E+00   0.00000000E+00   0.00000000E+00   1.32228702E+03   2.21444355E+03   0.00000000E+00   0.00000000E+00   0.00000000E+00   0.00000000E+00   1.99606120E+04
   2.39750000E+03   5.00000000E-01   5.00000000E-01  -5.15753839E+04   4.76125330E+03   0.00000000E+00   1.50803600E+04   3.90118366E+03   1.20496498E+03   7.19353807E+00   0.00000000E+00   0.00000000E+00   0.00000000E+00   0.00000000E+00   0.00000000E+00   0.00000000E+00   1.32230502E+03   2.21263943E+03   0.00000000E+00   0.00000000E+00   0.00000000E+00   0.00000000E+00   1.99605342E+04
   2.43250000E+03   5.00000000E-01   5.00000000E-01  -5.15752226E+04   4.76125329E+03   0.00000000E+00   1.50802583E+04   3.89942457E+03   1.20497512E+03   7.19352491E+00   0.00000000E+00   0.00000000E+00   0.00000000E+00   0.00000000E+00   0.00000000E+00   0.00000000E+00   1.32232664E+03   2.21088019E+03   0.00000000E+00   0.00000000E+00   0.00000000E+00   0.00000000E+00   1.99604705E+04
   2.46750000E+03   5.00000000E-01   5.00000000E-01  -5.15750713E+04   4.76125329E+03   0.00000000E+00   1.50801585E+04   3.89771330E+03   1.20498629E+03   7.19351203E+00   0.00000000E+00   0.00000000E+00   0.00000000E+00   0.00000000E+00   0.00000000E+00   0.00000000E+00   1.32235232E+03   2.20916875E+03   0.00000000E+00   0.00000000E+00   0.00000000E+00   0.00000000E+00   1.99604220E+04
   2.50250000E+03   5.00000000E-01   5.00000000E-01  -5.15749294E+04   4.76125329E+03   0.00000000E+00   1.50800598E+04   3.89605258E+03   1.20499869E+03   7.19350080E+00   0.00000000E+00   0.00000000E+00   0.00000000E+00   0.00000000E+00   0.00000000E+00   0.00000000E+00   1.32238258E+03   2.20750784E+03   0.00000000E+00   0.00000000E+00   0.00000000E+00   0.00000000E+00   1.99603898E+04
   2.53750000E+03   5.00000000E-01   5.00000000E-01  -5.15747960E+04   4.76125328E+03   0.00000000E+00   1.50799613E+04   3.89444490E+03   1.20501258E+03   7.19349269E+00   0.00000000E+00   0.00000000E+00   0.00000000E+00   0.00000000E+00   0.00000000E+00   0.00000000E+00   1.32241800E+03   2.20589995E+03   0.00000000E+00   0.00000000E+00   0.00000000E+00   0.00000000E+00   1.99603753E+04
   2.57250000E+03   5.00000000E-01   5.00000000E-01  -5.15746704E+04   4.76125328E+03   0.00000000E+00   1.50798619E+04   3.89289243E+03   1.20502830E+03   7.19348890E+00   0.00000000E+00   0.00000000E+00   0.00000000E+00   0.00000000E+00   0.00000000E+00   0.00000000E+00   1.32245924E+03   2.20434723E+03   0.00000000E+00   0.00000000E+00   0.00000000E+00   0.00000000E+00   1.99603802E+04
   2.60750000E+03   5.00000000E-01   5.00000000E-01  -5.15745519E+04   4.76125327E+03   0.00000000E+00   1.50797605E+04   3.89139697E+03   1.20504624E+03   7.19349015E+00   0.00000000E+00   0.00000000E+00   0.00000000E+00   0.00000000E+00   0.00000000E+00   0.00000000E+00   1.32250706E+03   2.20285148E+03   0.00000000E+00   0.00000000E+00   0.00000000E+00   0.00000000E+00   1.99604064E+04