 TITLE = "Total Component Concentration in Minerals" 
VARIABLES = "X"          "Y"              "Z"            "H+"             "Al+++"          "CO2(aq)"        "Mg++"           "Ca++"           "Fe++"           "Fe+++"          "Ba++"           "Sr++"           "Cl-"            "K+"             "Na+"            "SO4--"          "O2(aq)"         "B(OH)3(aq)"     "HPO4--"         "NO3-"           "H4SiO4(aq)"    
 ZONE I=          10 , J=           1 , K=           1  F=POINT
   1.75000000E+02   5.00000000E-01   5.00000000E-01  -5.21738852E+04   2.06327568E+03   0.00000000E+00   1.95030373E+04   4.85249000E+03   2.20748261E+03   7.19368551E-06   0.00000000E+00   0.00000000E+00   0.00000000E+00   0.00000000E+00   1.54892406E+03   4.34544290E+03   0.00000000E+00   0.00000000E+00   0.00000000E+00   0.00000000E+00   1.91232154E+04
   5.25000000E+02   5.00000000E-01   5.00000000E-01  -5.21739479E+04   2.06327568E+03   0.00000000E+00   1.95031382E+04   4.85298757E+03   2.20743324E+03   7.19328033E-06   0.00000000E+00   0.00000000E+00   0.00000000E+00   0.00000000E+00   1.54888373E+03   4.34594047E+03   0.00000000E+00   0.00000000E+00   0.00000000E+00   0.00000000E+00   1.91231302E+04
   8.75000000E+02   5.00000000E-01   5.00000000E-01  -5.21740414E+04   2.06327568E+03   0.00000000E+00   1.95032826E+04   4.85347939E+03   2.20736426E+03   7.19230052E-06   0.00000000E+00   0.00000000E+00   0.00000000E+00   0.00000000E+00   1.54882637E+03   4.34643229E+03   0.00000000E+00   0.00000000E+00   0.00000000E+00   0.00000000E+00   1.91230103E+04
   1.22500000E+03   5.00000000E-01   5.00000000E-01  -5.21741255E+04   2.06327568E+03   0.00000000E+00   1.95034530E+04   4.85388920E+03   2.20726878E+03   7.19010093E-06   0.00000000E+00   0.00000000E+00   0.00000000E+00   0.00000000E+00   1.54876058E+03   4.34684211E+03   0.00000000E+00   0.00000000E+00   0.00000000E+00   0.00000000E+00   1.91228669E+04
   1.57500000E+03   5.00000000E-01   5.00000000E-01  -5.21741734E+04   2.06327568E+03   0.00000000E+00   1.95036385E+04   4.85418907E+03   2.20714182E+03   7.18508593E-06   0.00000000E+00   0.00000000E+00   0.00000000E+00   0.00000000E+00   1.54869150E+03   4.34714197E+03   0.00000000E+00   0.00000000E+00   0.00000000E+00   0.00000000E+00   1.91227062E+04
   1.92500000E+03   5.00000000E-01   5.00000000E-01  -5.21741950E+04   2.06327568E+03   0.00000000E+00   1.95038248E+04   4.85439175E+03   2.20699945E+03   7.17401258E-06   0.00000000E+00   0.00000000E+00   0.00000000E+00   0.00000000E+00   1.54862532E+03   4.34734465E+03   0.00000000E+00   0.00000000E+00   0.00000000E+00   0.00000000E+00   1.91225463E+04
   2.27500000E+03   5.00000000E-01   5.00000000E-01  -5.21742087E+04   2.06327568E+03   0.00000000E+00   1.95039711E+04   4.85452102E+03   2.20688429E+03   7.14861381E-06   0.00000000E+00   0.00000000E+00   0.00000000E+00   0.00000000E+00   1.54857678E+03   4.34747393E+03   0.00000000E+00   0.00000000E+00   0.00000000E+00   0.00000000E+00   1.91224283E+04
   2.62500000E+03   5.00000000E-01   5.00000000E-01  -5.21742322E+04   2.06327568E+03   0.00000000E+00   1.95040553E+04   4.85459672E+03   2.20682421E+03   7.08894370E-06   0.00000000E+00   0.00000000E+00   0.00000000E+00   0.00000000E+00   1.54855180E+03   4.34754962E+03   0.00000000E+00   0.00000000E+00   0.00000000E+00   0.00000000E+00   1.91223717E+04
   2.97500000E+03   5.00000000E-01   5.00000000E-01  -5.21742892E+04   2.06327568E+03   0.00000000E+00   1.95041142E+04   4.85463380E+03   2.20680293E+03   6.96972176E-06   0.00000000E+00   0.00000000E+00   0.00000000E+00   0.00000000E+00   1.54853378E+03   4.34758671E+03   0.00000000E+00   0.00000000E+00   0.00000000E+00   0.00000000E+00   1.91223409E+04
   3.32500000E+03   5.00000000E-01   5.00000000E-01  -5.21744051E+04   2.06327568E+03   0.00000000E+00   1.95042113E+04   4.85464384E+03   2.20679667E+03   6.80054639E-06   0.00000000E+00   0.00000000E+00   0.00000000E+00   1.51686297E-02   1.54845267E+03   4.34759674E+03   0.00000000E+00   0.00000000E+00   0.00000000E+00   0.00000000E+00   1.91221975E+04
