 TITLE = "Total Component Concentration in Minerals" 
VARIABLES = "X"          "Y"              "Z"            "H+"             "Al+++"          "CO2(aq)"        "Mg++"           "Ca++"           "Fe++"           "Fe+++"          "Ba++"           "Sr++"           "Cl-"            "K+"             "Na+"            "SO4--"          "O2(aq)"         "B(OH)3(aq)"     "HPO4--"         "NO3-"           "H4SiO4(aq)"    
 ZONE I=          10 , J=           1 , K=           1  F=POINT
   1.75000000E+02   5.00000000E-01   5.00000000E-01  -5.21739080E+04   2.06327568E+03   0.00000000E+00   1.95028764E+04   4.85377334E+03   2.20747537E+03   7.19363056E-06   0.00000000E+00   0.00000000E+00   0.00000000E+00   0.00000000E+00   1.54911306E+03   4.34664115E+03   0.00000000E+00   0.00000000E+00   0.00000000E+00   0.00000000E+00   1.91237215E+04
   5.25000000E+02   5.00000000E-01   5.00000000E-01  -5.21739891E+04   2.06327568E+03   0.00000000E+00   1.95029280E+04   4.85381671E+03   2.20747457E+03   7.19332902E-06   0.00000000E+00   0.00000000E+00   0.00000000E+00   0.00000000E+00   1.54909241E+03   4.34668451E+03   0.00000000E+00   0.00000000E+00   0.00000000E+00   0.00000000E+00   1.91236901E+04
   8.75000000E+02   5.00000000E-01   5.00000000E-01  -5.21740856E+04   2.06327568E+03   0.00000000E+00   1.95029919E+04   4.85388493E+03   2.20747467E+03   7.19279524E-06   0.00000000E+00   0.00000000E+00   0.00000000E+00   3.12141250E-03   1.54905792E+03   4.34675274E+03   0.00000000E+00   0.00000000E+00   0.00000000E+00   0.00000000E+00   1.91236343E+04
   1.22500000E+03   5.00000000E-01   5.00000000E-01  -5.21741541E+04   2.06327568E+03   0.00000000E+00   1.95030398E+04   4.85398447E+03   2.20747539E+03   7.19176641E-06   0.00000000E+00   0.00000000E+00   0.00000000E+00   9.11449618E-03   1.54902313E+03   4.34685228E+03   0.00000000E+00   0.00000000E+00   0.00000000E+00   0.00000000E+00   1.91235765E+04
   1.57500000E+03   5.00000000E-01   5.00000000E-01  -5.21741894E+04   2.06327568E+03   0.00000000E+00   1.95030676E+04   4.85411645E+03   2.20747655E+03   7.18970669E-06   0.00000000E+00   0.00000000E+00   0.00000000E+00   1.74454307E-02   1.54899211E+03   4.34698425E+03   0.00000000E+00   0.00000000E+00   0.00000000E+00   0.00000000E+00   1.91235245E+04
   1.92500000E+03   5.00000000E-01   5.00000000E-01  -5.21742068E+04   2.06327568E+03   0.00000000E+00   1.95030852E+04   4.85426999E+03   2.20747711E+03   7.18443232E-06   0.00000000E+00   0.00000000E+00   0.00000000E+00   2.75095791E-02   1.54896321E+03   4.34713780E+03   0.00000000E+00   0.00000000E+00   0.00000000E+00   0.00000000E+00   1.91234768E+04
   2.27500000E+03   5.00000000E-01   5.00000000E-01  -5.21742252E+04   2.06327568E+03   0.00000000E+00   1.95031025E+04   4.85441986E+03   2.20747663E+03   7.16785897E-06   0.00000000E+00   0.00000000E+00   0.00000000E+00   3.66201764E-02   1.54893894E+03   4.34728767E+03   0.00000000E+00   0.00000000E+00   0.00000000E+00   0.00000000E+00   1.91234390E+04
   2.62500000E+03   5.00000000E-01   5.00000000E-01  -5.21742633E+04   2.06327567E+03   0.00000000E+00   1.95031298E+04   4.85453679E+03   2.20747556E+03   7.10842363E-06   0.00000000E+00   0.00000000E+00   0.00000000E+00   4.15480765E-02   1.54891959E+03   4.34740460E+03   0.00000000E+00   0.00000000E+00   0.00000000E+00   0.00000000E+00   1.91234117E+04
   2.97500000E+03   5.00000000E-01   5.00000000E-01  -5.21743444E+04   2.06327565E+03   0.00000000E+00   1.95031787E+04   4.85460546E+03   2.20747470E+03   6.89978869E-06   0.00000000E+00   0.00000000E+00   0.00000000E+00   4.09663026E-02   1.54890537E+03   4.34747327E+03   0.00000000E+00   0.00000000E+00   0.00000000E+00   0.00000000E+00   1.91233966E+04
   3.32500000E+03   5.00000000E-01   5.00000000E-01  -5.21744888E+04   2.06327560E+03   0.00000000E+00   1.95032599E+04   4.85463112E+03   2.20747425E+03   6.33265247E-06   0.00000000E+00   0.00000000E+00   0.00000000E+00   3.43240348E-02   1.54889492E+03   4.34749893E+03   0.00000000E+00   0.00000000E+00   0.00000000E+00   0.00000000E+00   1.91233941E+04
