 TITLE = "Total Component Concentration in Minerals" 
VARIABLES = "X"          "Y"              "Z"            "H+"             "Al+++"          "CO2(aq)"        "Mg++"           "Ca++"           "Fe++"           "Fe+++"          "Ba++"           "Sr++"           "Cl-"            "F-"             "K+"             "HS-"            "Na+"            "SO4--"          "O2(aq)"         "B(OH)3(aq)"     "HPO4--"         "NO3-"           "H4SiO4(aq)"    
 ZONE I=         100 , J=           1 , K=           1  F=POINT
   1.75000000E+01   5.00000000E-01   5.00000000E-01  -4.35709090E+04   2.90250330E+03   0.00000000E+00   9.69015258E+03   1.30117200E+03   5.94396690E+03   7.19372666E+00   0.00000000E+00   0.00000000E+00   0.00000000E+00   0.00000000E+00   0.00000000E+00   6.22029161E-06   9.71234923E+02   1.93184694E-06  -1.00306764E-06   0.00000000E+00   0.00000000E+00   0.00000000E+00   1.47298708E+04
   5.25000000E+01   5.00000000E-01   5.00000000E-01  -4.35369387E+04   2.90248956E+03   0.00000000E+00   9.52690159E+03   1.30508357E+03   6.05174267E+03   7.19372717E+00   0.00000000E+00   0.00000000E+00   0.00000000E+00   0.00000000E+00   0.00000000E+00   6.22055928E-06   1.04043318E+03   1.94736714E-06  -1.00306764E-06   0.00000000E+00   0.00000000E+00   0.00000000E+00   1.49032027E+04
   8.75000000E+01   5.00000000E-01   5.00000000E-01  -4.35495797E+04   2.90248956E+03   0.00000000E+00   9.44019641E+03   1.30840635E+03   6.12244312E+03   7.19372711E+00   0.00000000E+00   0.00000000E+00   0.00000000E+00   0.00000000E+00   0.00000000E+00   6.22068324E-06   1.07843804E+03   1.96476808E-06  -1.00306764E-06   0.00000000E+00   0.00000000E+00   0.00000000E+00   1.50088614E+04
   1.22500000E+02   5.00000000E-01   5.00000000E-01  -4.35556864E+04   2.90248956E+03   0.00000000E+00   9.39876731E+03   1.30916651E+03   6.15749969E+03   7.19372709E+00   0.00000000E+00   0.00000000E+00   0.00000000E+00   0.00000000E+00   0.00000000E+00   6.22073467E-06   1.09576954E+03   1.98440743E-06  -1.00306764E-06   0.00000000E+00   0.00000000E+00   0.00000000E+00   1.50554314E+04
   1.57500000E+02   5.00000000E-01   5.00000000E-01  -4.35591256E+04   2.90248956E+03   0.00000000E+00   9.37998781E+03   1.30833154E+03   6.17549796E+03   7.19372709E+00   0.00000000E+00   0.00000000E+00   0.00000000E+00   0.00000000E+00   0.00000000E+00   6.22074924E-06   1.10244119E+03   2.00668758E-06  -1.00306764E-06   0.00000000E+00   0.00000000E+00   0.00000000E+00   1.50711035E+04
   1.92500000E+02   5.00000000E-01   5.00000000E-01  -4.35617086E+04   2.90248956E+03   0.00000000E+00   9.37095381E+03   1.30690455E+03   6.18619043E+03   7.19372709E+00   0.00000000E+00   0.00000000E+00   0.00000000E+00   0.00000000E+00   0.00000000E+00   6.22074262E-06   1.10456121E+03   2.03206005E-06  -1.00306764E-06   0.00000000E+00   0.00000000E+00   0.00000000E+00   1.50739781E+04
   2.27500000E+02   5.00000000E-01   5.00000000E-01  -4.35640183E+04   2.90248956E+03   0.00000000E+00   9.36578990E+03   1.30543791E+03   6.19401220E+03   7.19372708E+00   0.00000000E+00   0.00000000E+00   0.00000000E+00   0.00000000E+00   0.00000000E+00   6.22072255E-06   1.10448844E+03   2.06104491E-06  -1.00306764E-06   0.00000000E+00   0.00000000E+00   0.00000000E+00   1.50724803E+04
   2.62500000E+02   5.00000000E-01   5.00000000E-01  -4.35660652E+04   2.90248956E+03   0.00000000E+00   9.36163629E+03   1.30468464E+03   6.20149255E+03   7.19372708E+00   0.00000000E+00   0.00000000E+00   0.00000000E+00   0.00000000E+00   0.00000000E+00   6.22069342E-06   1.10138841E+03   2.09423410E-06  -1.00306764E-06   0.00000000E+00   0.00000000E+00   0.00000000E+00   1.50719423E+04
   2.97500000E+02   5.00000000E-01   5.00000000E-01  -4.35679548E+04   2.90248956E+03   0.00000000E+00   9.35825876E+03   1.30481743E+03   6.20926811E+03   7.19372707E+00   0.00000000E+00   0.00000000E+00   0.00000000E+00   0.00000000E+00   0.00000000E+00   6.22065775E-06   1.09421633E+03   2.13232613E-06  -1.00306764E-06   0.00000000E+00   0.00000000E+00   0.00000000E+00   1.50729133E+04
   3.32500000E+02   5.00000000E-01   5.00000000E-01  -4.35701717E+04   2.90248955E+03   0.00000000E+00   9.35658319E+03   1.30520776E+03   6.21610761E+03   7.19372707E+00   0.00000000E+00   0.00000000E+00   0.00000000E+00   0.00000000E+00   0.00000000E+00   6.22061709E-06   1.08532473E+03   2.17618368E-06  -1.00306764E-06   0.00000000E+00   0.00000000E+00   0.00000000E+00   1.50729619E+04
   3.67500000E+02   5.00000000E-01   5.00000000E-01  -4.35726103E+04   2.90248955E+03   0.00000000E+00   9.35594849E+03   1.30566693E+03   6.22204287E+03   7.19372707E+00   0.00000000E+00   0.00000000E+00   0.00000000E+00   0.00000000E+00   0.00000000E+00   6.22057311E-06   1.07624384E+03   2.22686193E-06  -1.00306764E-06   0.00000000E+00   0.00000000E+00   0.00000000E+00   1.50724160E+04
   4.02500000E+02   5.00000000E-01   5.00000000E-01  -4.35751660E+04   2.90248955E+03   0.00000000E+00   9.35574948E+03   1.30615609E+03   6.22741285E+03   7.19372707E+00   0.00000000E+00   0.00000000E+00   0.00000000E+00   0.00000000E+00   0.00000000E+00   6.22052723E-06   1.06747935E+03   2.28565497E-06  -1.00306764E-06   0.00000000E+00   0.00000000E+00   0.00000000E+00   1.50717928E+04
   4.37500000E+02   5.00000000E-01   5.00000000E-01  -4.35777887E+04   2.90248955E+03   0.00000000E+00   9.35569928E+03   1.30665732E+03   6.23241856E+03   7.19372707E+00   0.00000000E+00   0.00000000E+00   0.00000000E+00   0.00000000E+00   0.00000000E+00   6.22048052E-06   1.05918859E+03   2.35416192E-06  -1.00306764E-06   0.00000000E+00   0.00000000E+00   0.00000000E+00   1.50713061E+04
   4.72500000E+02   5.00000000E-01   5.00000000E-01  -4.35804318E+04   2.90248955E+03   0.00000000E+00   9.35567121E+03   1.30715609E+03   6.23715756E+03   7.19372707E+00   0.00000000E+00   0.00000000E+00   0.00000000E+00   0.00000000E+00   0.00000000E+00   6.22043383E-06   1.05141231E+03   2.43437589E-06  -1.00306764E-06   0.00000000E+00   0.00000000E+00   0.00000000E+00   1.50710038E+04
   5.07500000E+02   5.00000000E-01   5.00000000E-01  -4.35830429E+04   2.90248954E+03   0.00000000E+00   9.35560030E+03   1.30763975E+03   6.24168092E+03   7.19372707E+00   0.00000000E+00   0.00000000E+00   0.00000000E+00   0.00000000E+00   0.00000000E+00   6.22038782E-06   1.04415120E+03   2.52880384E-06  -1.00306764E-06   0.00000000E+00   0.00000000E+00   0.00000000E+00   1.50708725E+04
   5.42500000E+02   5.00000000E-01   5.00000000E-01  -4.35855625E+04   2.90248954E+03   0.00000000E+00   9.35543656E+03   1.30809772E+03   6.24602568E+03   7.19372707E+00   0.00000000E+00   0.00000000E+00   0.00000000E+00   0.00000000E+00   0.00000000E+00   6.22034301E-06   1.03739282E+03   2.64062993E-06  -1.00306764E-06   0.00000000E+00   0.00000000E+00   0.00000000E+00   1.50708882E+04
   5.77500000E+02   5.00000000E-01   5.00000000E-01  -4.35879292E+04   2.90248954E+03   0.00000000E+00   9.35513571E+03   1.30852160E+03   6.25022258E+03   7.19372707E+00   0.00000000E+00   0.00000000E+00   0.00000000E+00   0.00000000E+00   0.00000000E+00   6.22029981E-06   1.03111964E+03   2.77394006E-06  -1.00306764E-06   0.00000000E+00   0.00000000E+00   0.00000000E+00   1.50710290E+04
   6.12500000E+02   5.00000000E-01   5.00000000E-01  -4.35900812E+04   2.90248953E+03   0.00000000E+00   9.35466674E+03   1.30890509E+03   6.25428867E+03   7.19372707E+00   0.00000000E+00   0.00000000E+00   0.00000000E+00   0.00000000E+00   0.00000000E+00   6.22025853E-06   1.02531048E+03   2.93403433E-06  -1.00306764E-06   0.00000000E+00   0.00000000E+00   0.00000000E+00   1.50712696E+04
   6.47500000E+02   5.00000000E-01   5.00000000E-01  -4.35919576E+04   2.90248953E+03   0.00000000E+00   9.35401647E+03   1.30924409E+03   6.25822290E+03   7.19372707E+00   0.00000000E+00   0.00000000E+00   0.00000000E+00   0.00000000E+00   0.00000000E+00   6.22021935E-06   1.01994088E+03   3.12786684E-06  -1.00306764E-06   0.00000000E+00   0.00000000E+00   0.00000000E+00   1.50715779E+04
   6.82500000E+02   5.00000000E-01   5.00000000E-01  -4.35935025E+04   2.90248952E+03   0.00000000E+00   9.35317928E+03   1.30953657E+03   6.26201759E+03   7.19372707E+00   0.00000000E+00   0.00000000E+00   0.00000000E+00   0.00000000E+00   0.00000000E+00   6.22018242E-06   1.01498589E+03   3.36467361E-06  -1.00306764E-06   0.00000000E+00   0.00000000E+00   0.00000000E+00   1.50719257E+04
   7.17500000E+02   5.00000000E-01   5.00000000E-01  -4.35946657E+04   2.90248952E+03   0.00000000E+00   9.35213652E+03   1.30978212E+03   6.26567707E+03   7.19372707E+00   0.00000000E+00   0.00000000E+00   0.00000000E+00   0.00000000E+00   0.00000000E+00   6.22014782E-06   1.01042460E+03   3.65688240E-06  -1.00306764E-06   0.00000000E+00   0.00000000E+00   0.00000000E+00   1.50723058E+04
   7.52500000E+02   5.00000000E-01   5.00000000E-01  -4.35954085E+04   2.90248951E+03   0.00000000E+00   9.35086406E+03   1.30998172E+03   6.26921412E+03   7.19372707E+00   0.00000000E+00   0.00000000E+00   0.00000000E+00   0.00000000E+00   0.00000000E+00   6.22011558E-06   1.00623899E+03   4.02145021E-06  -1.00306764E-06   0.00000000E+00   0.00000000E+00   0.00000000E+00   1.50727256E+04
   7.87500000E+02   5.00000000E-01   5.00000000E-01  -4.35957038E+04   2.90248950E+03   0.00000000E+00   9.34933826E+03   1.31013726E+03   6.27264488E+03   7.19372707E+00   0.00000000E+00   0.00000000E+00   0.00000000E+00   0.00000000E+00   0.00000000E+00   6.22008568E-06   1.00241331E+03   4.48186111E-06  -1.00306764E-06   0.00000000E+00   0.00000000E+00   0.00000000E+00   1.50731998E+04
   8.22500000E+02   5.00000000E-01   5.00000000E-01  -4.35955374E+04   2.90248949E+03   0.00000000E+00   9.34753840E+03   1.31025132E+03   6.27598724E+03   7.19372707E+00   0.00000000E+00   0.00000000E+00   0.00000000E+00   0.00000000E+00   0.00000000E+00   6.22005806E-06   9.98933864E+02   5.07116208E-06  -1.00306764E-06   0.00000000E+00   0.00000000E+00   0.00000000E+00   1.50737479E+04
   8.57500000E+02   5.00000000E-01   5.00000000E-01  -4.35949072E+04   2.90248948E+03   0.00000000E+00   9.34544481E+03   1.31032678E+03   6.27926227E+03   7.19372706E+00   0.00000000E+00   0.00000000E+00   0.00000000E+00   0.00000000E+00   0.00000000E+00   6.22003266E-06   9.95789877E+02   5.83666136E-06  -1.00306764E-06   0.00000000E+00   0.00000000E+00   0.00000000E+00   1.50743937E+04
   8.92500000E+02   5.00000000E-01   5.00000000E-01  -4.35938216E+04   2.90248946E+03   0.00000000E+00   9.34304018E+03   1.31036664E+03   6.28249232E+03   7.19372706E+00   0.00000000E+00   0.00000000E+00   0.00000000E+00   0.00000000E+00   0.00000000E+00   6.22000935E-06   9.92973807E+02   6.84734226E-06  -1.00306764E-06   0.00000000E+00   0.00000000E+00   0.00000000E+00   1.50751636E+04
   9.27500000E+02   5.00000000E-01   5.00000000E-01  -4.35922959E+04   2.90248945E+03   0.00000000E+00   9.34030759E+03   1.31037375E+03   6.28570056E+03   7.19372705E+00   0.00000000E+00   0.00000000E+00   0.00000000E+00   0.00000000E+00   0.00000000E+00   6.21998804E-06   9.90482609E+02   8.20580897E-06  -1.00306764E-06   0.00000000E+00   0.00000000E+00   0.00000000E+00   1.50760865E+04
   9.62500000E+02   5.00000000E-01   5.00000000E-01  -4.35903469E+04   2.90248943E+03   0.00000000E+00   9.33722796E+03   1.31035069E+03   6.28891046E+03   7.19372704E+00   0.00000000E+00   0.00000000E+00   0.00000000E+00   0.00000000E+00   0.00000000E+00   6.21996859E-06   9.88319204E+02   1.00679694E-05  -1.00306764E-06   0.00000000E+00   0.00000000E+00   0.00000000E+00   1.50771944E+04
   9.97500000E+02   5.00000000E-01   5.00000000E-01  -4.35879860E+04   2.90248940E+03   0.00000000E+00   9.33377802E+03   1.31029982E+03   6.29214324E+03   7.19372702E+00   0.00000000E+00   0.00000000E+00   0.00000000E+00   0.00000000E+00   0.00000000E+00   6.21995087E-06   9.86494455E+02   1.26762515E-05  -1.00306764E-06   0.00000000E+00   0.00000000E+00   0.00000000E+00   1.50785239E+04
   1.03250000E+03   5.00000000E-01   5.00000000E-01  -4.35852092E+04   2.90248937E+03   0.00000000E+00   9.32992881E+03   1.31022342E+03   6.29541235E+03   7.19372700E+00   0.00000000E+00   0.00000000E+00   0.00000000E+00   0.00000000E+00   0.00000000E+00   6.21993474E-06   9.85030821E+02   1.64171116E-05  -1.00306764E-06   0.00000000E+00   0.00000000E+00   0.00000000E+00   1.50801163E+04
   1.06750000E+03   5.00000000E-01   5.00000000E-01  -4.35819757E+04   2.90248933E+03   0.00000000E+00   9.32563036E+03   1.31012345E+03   6.29872379E+03   7.19372697E+00   0.00000000E+00   0.00000000E+00   0.00000000E+00   0.00000000E+00   0.00000000E+00   6.21992005E-06   9.83971359E+02   2.19233865E-05  -1.00306764E-06   0.00000000E+00   0.00000000E+00   0.00000000E+00   1.50820277E+04
   1.10250000E+03   5.00000000E-01   5.00000000E-01  -4.35781705E+04   2.90248927E+03   0.00000000E+00   9.32079100E+03   1.31000120E+03   6.30207019E+03   7.19372694E+00   0.00000000E+00   0.00000000E+00   0.00000000E+00   0.00000000E+00   0.00000000E+00   6.21990665E-06   9.83396774E+02   3.02619145E-05  -1.00306764E-06   0.00000000E+00   0.00000000E+00   0.00000000E+00   1.50843420E+04
   1.13750000E+03   5.00000000E-01   5.00000000E-01  -4.36121211E+04   2.90248870E+03   0.00000000E+00   9.45003456E+03   1.29973298E+03   6.18084071E+03   7.19372695E+00   0.00000000E+00   0.00000000E+00   0.00000000E+00   0.00000000E+00   0.00000000E+00   6.21989254E-06   1.02185743E+03   4.31996851E-05  -1.00306764E-06   0.00000000E+00   0.00000000E+00   0.00000000E+00   1.64750868E+04
   1.17250000E+03   5.00000000E-01   5.00000000E-01  -4.35528449E+04   2.90248932E+03   0.00000000E+00   9.40285491E+03   1.29973249E+03   6.23367723E+03   7.19372686E+00   0.00000000E+00   0.00000000E+00   0.00000000E+00   0.00000000E+00   0.00000000E+00   6.21988803E-06   9.51266616E+02   6.41394515E-05  -1.00306764E-06   0.00000000E+00   0.00000000E+00   0.00000000E+00   1.49514795E+04
   1.20750000E+03   5.00000000E-01   5.00000000E-01  -4.35509186E+04   2.90248885E+03   0.00000000E+00   9.34659960E+03   1.29974604E+03   6.28369351E+03   7.19372682E+00   0.00000000E+00   0.00000000E+00   0.00000000E+00   0.00000000E+00   0.00000000E+00   6.21987969E-06   9.61792754E+02   9.94089885E-05  -1.00306764E-06   0.00000000E+00   0.00000000E+00   0.00000000E+00   1.50023388E+04
   1.24250000E+03   5.00000000E-01   5.00000000E-01  -4.35359844E+04   2.90248803E+03   0.00000000E+00   9.30398132E+03   1.29980093E+03   6.31258500E+03   7.19372678E+00   0.00000000E+00   0.00000000E+00   0.00000000E+00   0.00000000E+00   0.00000000E+00   6.21986872E-06   9.74204932E+02   1.61237511E-04  -1.00306764E-06   0.00000000E+00   0.00000000E+00   0.00000000E+00   1.50391643E+04
   1.27750000E+03   5.00000000E-01   5.00000000E-01  -4.35051622E+04   2.90248326E+03   0.00000000E+00   9.26895420E+03   1.30038319E+03   6.31841520E+03   7.19372674E+00   0.00000000E+00   0.00000000E+00   0.00000000E+00   0.00000000E+00   0.00000000E+00   6.21985553E-06   1.00062665E+03   2.74298175E-04  -1.00306764E-06   0.00000000E+00   0.00000000E+00   0.00000000E+00   1.50696736E+04
   1.31250000E+03   5.00000000E-01   5.00000000E-01  -4.34883623E+04   2.90244995E+03   0.00000000E+00   9.23899253E+03   1.30830464E+03   6.31625212E+03   7.19372670E+00   0.00000000E+00   0.00000000E+00   0.00000000E+00   0.00000000E+00   0.00000000E+00   6.21984312E-06   1.03233362E+03   4.90105471E-04  -1.00306764E-06   0.00000000E+00   0.00000000E+00   0.00000000E+00   1.50790081E+04
   1.34750000E+03   5.00000000E-01   5.00000000E-01  -4.34850032E+04   2.90241928E+03   0.00000000E+00   9.21660213E+03   1.32683499E+03   6.31706493E+03   7.19372665E+00   0.00000000E+00   0.00000000E+00   0.00000000E+00   0.00000000E+00   0.00000000E+00   6.21983374E-06   1.03516195E+03   9.19627981E-04  -1.00306764E-06   0.00000000E+00   0.00000000E+00   0.00000000E+00   1.50773724E+04
   1.38250000E+03   5.00000000E-01   5.00000000E-01  -4.34955249E+04   2.90240628E+03   0.00000000E+00   9.26655846E+03   1.34839477E+03   6.24686553E+03   7.19372660E+00   0.00000000E+00   0.00000000E+00   0.00000000E+00   0.00000000E+00   0.00000000E+00   6.21982596E-06   1.04309103E+03   1.81074785E-03  -1.00306764E-06   0.00000000E+00   0.00000000E+00   0.00000000E+00   1.55538404E+04
   1.41750000E+03   5.00000000E-01   5.00000000E-01  -4.34859915E+04   2.90240248E+03   0.00000000E+00   9.23549496E+03   1.36806432E+03   6.26665849E+03   7.19372655E+00   0.00000000E+00   0.00000000E+00   0.00000000E+00   0.00000000E+00   0.00000000E+00   6.21982150E-06   1.01677486E+03   3.77440121E-03  -1.00306764E-06   0.00000000E+00   0.00000000E+00   0.00000000E+00   1.51203323E+04
   1.45250000E+03   5.00000000E-01   5.00000000E-01  -4.34871278E+04   2.90240092E+03   0.00000000E+00   9.19986063E+03   1.38656153E+03   6.28588859E+03   7.19372651E+00   0.00000000E+00   0.00000000E+00   0.00000000E+00   0.00000000E+00   0.00000000E+00   6.21981734E-06   1.01373907E+03   8.36513582E-03  -1.00306764E-06   0.00000000E+00   0.00000000E+00   0.00000000E+00   1.51139669E+04
   1.48750000E+03   5.00000000E-01   5.00000000E-01  -4.34880845E+04   2.90240004E+03   0.00000000E+00   9.16888285E+03   1.40447000E+03   6.30077493E+03   7.19372649E+00   0.00000000E+00   0.00000000E+00   0.00000000E+00   0.00000000E+00   0.00000000E+00   6.21981351E-06   1.01108723E+03   1.97924350E-02  -1.00306764E-06   0.00000000E+00   0.00000000E+00   0.00000000E+00   1.51156111E+04
   1.52250000E+03   5.00000000E-01   5.00000000E-01  -4.34895009E+04   2.90239953E+03   0.00000000E+00   9.14737359E+03   1.42206063E+03   6.30678709E+03   7.19372648E+00   0.00000000E+00   0.00000000E+00   0.00000000E+00   0.00000000E+00   0.00000000E+00   6.21981006E-06   1.00837890E+03   5.01873261E-02  -1.00306764E-06   0.00000000E+00   0.00000000E+00   0.00000000E+00   1.51306420E+04
   1.55750000E+03   5.00000000E-01   5.00000000E-01  -4.34907307E+04   2.90239960E+03   0.00000000E+00   9.13153195E+03   1.43937769E+03   6.30763384E+03   7.19372649E+00   0.00000000E+00   0.00000000E+00   0.00000000E+00   0.00000000E+00   0.00000000E+00   6.21980710E-06   1.00513764E+03   1.36952154E-01  -1.00306764E-06   0.00000000E+00   0.00000000E+00   0.00000000E+00   1.51417488E+04
   1.59250000E+03   5.00000000E-01   5.00000000E-01  -4.34919331E+04   2.90239999E+03   0.00000000E+00   9.11795838E+03   1.45655860E+03   6.30654716E+03   7.19372652E+00   0.00000000E+00   0.00000000E+00   0.00000000E+00   0.00000000E+00   0.00000000E+00   6.21980461E-06   1.00183150E+03   4.03929072E-01  -1.00306764E-06   0.00000000E+00   0.00000000E+00   0.00000000E+00   1.51496428E+04
   1.62750000E+03   5.00000000E-01   5.00000000E-01  -4.34932064E+04   2.90240062E+03   0.00000000E+00   9.10457814E+03   1.47413046E+03   6.30542142E+03   7.19372655E+00   0.00000000E+00   0.00000000E+00   0.00000000E+00   0.00000000E+00   0.00000000E+00   6.21980253E-06   9.98748400E+02   1.29254815E+00  -1.00306764E-06   0.00000000E+00   0.00000000E+00   0.00000000E+00   1.51551466E+04
   1.66250000E+03   5.00000000E-01   5.00000000E-01  -4.34938963E+04   2.90240133E+03   0.00000000E+00   9.09012135E+03   1.49383790E+03   6.30493821E+03   7.19372660E+00   0.00000000E+00   0.00000000E+00   0.00000000E+00   0.00000000E+00   0.00000000E+00   6.21980077E-06   9.96296488E+02   4.49014818E+00  -1.00306764E-06   0.00000000E+00   0.00000000E+00   0.00000000E+00   1.51573734E+04
   1.69750000E+03   5.00000000E-01   5.00000000E-01  -4.34925769E+04   2.90240127E+03   0.00000000E+00   9.07349747E+03   1.52270672E+03   6.30489744E+03   7.19372665E+00   0.00000000E+00   0.00000000E+00   0.00000000E+00   0.00000000E+00   0.00000000E+00   6.21979921E-06   9.94990909E+02   1.67011364E+01  -1.00306764E-06   0.00000000E+00   0.00000000E+00   0.00000000E+00   1.51564136E+04
   1.73250000E+03   5.00000000E-01   5.00000000E-01  -4.34882122E+04   2.90240116E+03   0.00000000E+00   9.05559521E+03   1.58505285E+03   6.30477383E+03   7.19372670E+00   0.00000000E+00   0.00000000E+00   0.00000000E+00   0.00000000E+00   0.00000000E+00   6.21979777E-06   9.92639469E+02   6.20278459E+01  -1.00306764E-06   0.00000000E+00   0.00000000E+00   0.00000000E+00   1.51454973E+04
   1.76750000E+03   5.00000000E-01   5.00000000E-01  -4.34880187E+04   2.90239900E+03   0.00000000E+00   9.03797910E+03   1.73117257E+03   6.30451982E+03   7.19372675E+00   0.00000000E+00   0.00000000E+00   0.00000000E+00   0.00000000E+00   0.00000000E+00   6.21979652E-06   9.89807044E+02   1.88954725E+02  -1.00306764E-06   0.00000000E+00   0.00000000E+00   0.00000000E+00   1.51419326E+04
   1.80250000E+03   5.00000000E-01   5.00000000E-01  -4.34900619E+04   2.90239486E+03   0.00000000E+00   9.02254328E+03   1.94755699E+03   6.30132962E+03   7.19372679E+00   0.00000000E+00   0.00000000E+00   0.00000000E+00   0.00000000E+00   0.00000000E+00   6.21979547E-06   9.87354451E+02   3.84459031E+02  -1.00306764E-06   0.00000000E+00   0.00000000E+00   0.00000000E+00   1.51503178E+04
   1.83750000E+03   5.00000000E-01   5.00000000E-01  -4.34889368E+04   2.90239058E+03   0.00000000E+00   9.00910597E+03   2.11933652E+03   6.29463185E+03   7.19372683E+00   0.00000000E+00   0.00000000E+00   0.00000000E+00   0.00000000E+00   0.00000000E+00   6.21979455E-06   9.84770332E+02   5.35367576E+02  -1.00306764E-06   0.00000000E+00   0.00000000E+00   0.00000000E+00   1.51672002E+04
   1.87250000E+03   5.00000000E-01   5.00000000E-01  -4.34857855E+04   2.90238424E+03   0.00000000E+00   8.99728427E+03   2.19613168E+03   6.28674972E+03   7.19372686E+00   0.00000000E+00   0.00000000E+00   0.00000000E+00   0.00000000E+00   0.00000000E+00   6.21979376E-06   9.78823231E+02   5.91051493E+02  -1.00306764E-06   0.00000000E+00   0.00000000E+00   0.00000000E+00   1.51796871E+04
   1.90750000E+03   5.00000000E-01   5.00000000E-01  -4.34875306E+04   2.90237090E+03   0.00000000E+00   8.98747969E+03   2.21100229E+03   6.27880956E+03   7.19372688E+00   0.00000000E+00   0.00000000E+00   0.00000000E+00   0.00000000E+00   0.00000000E+00   6.21979312E-06   9.69581959E+02   5.82664164E+02  -1.00306764E-06   0.00000000E+00   0.00000000E+00   0.00000000E+00   1.51889755E+04
   1.94250000E+03   5.00000000E-01   5.00000000E-01  -4.34899379E+04   2.90235437E+03   0.00000000E+00   8.97925908E+03   2.20135546E+03   6.27205219E+03   7.19372690E+00   0.00000000E+00   0.00000000E+00   0.00000000E+00   0.00000000E+00   0.00000000E+00   6.21979258E-06   9.53425708E+02   5.48732759E+02  -1.00306764E-06   0.00000000E+00   0.00000000E+00   0.00000000E+00   1.51838488E+04
   1.97750000E+03   5.00000000E-01   5.00000000E-01  -4.34950083E+04   2.90233763E+03   0.00000000E+00   8.97357639E+03   2.18664116E+03   6.26513877E+03   7.19372692E+00   0.00000000E+00   0.00000000E+00   0.00000000E+00   0.00000000E+00   0.00000000E+00   6.21979213E-06   9.34128754E+02   5.09213557E+02  -1.00306764E-06   0.00000000E+00   0.00000000E+00   0.00000000E+00   1.51733525E+04
   2.01250000E+03   5.00000000E-01   5.00000000E-01  -4.35099156E+04   2.90232151E+03   0.00000000E+00   8.97054401E+03   2.17313070E+03   6.26061992E+03   7.19372693E+00   0.00000000E+00   0.00000000E+00   0.00000000E+00   0.00000000E+00   0.00000000E+00   6.21979185E-06   9.15466296E+02   4.71342812E+02  -1.00306764E-06   0.00000000E+00   0.00000000E+00   0.00000000E+00   1.51667938E+04
   2.04750000E+03   5.00000000E-01   5.00000000E-01  -4.35295590E+04   2.90230976E+03   0.00000000E+00   8.96969783E+03   2.15828368E+03   6.26009566E+03   7.19372694E+00   0.00000000E+00   0.00000000E+00   0.00000000E+00   0.00000000E+00   0.00000000E+00   6.21979170E-06   8.98909684E+02   4.37007713E+02  -1.00306764E-06   0.00000000E+00   0.00000000E+00   0.00000000E+00   1.51589867E+04
   2.08250000E+03   5.00000000E-01   5.00000000E-01  -4.35405233E+04   2.90230366E+03   0.00000000E+00   8.96922338E+03   2.13940075E+03   6.26015632E+03   7.19372695E+00   0.00000000E+00   0.00000000E+00   0.00000000E+00   0.00000000E+00   0.00000000E+00   6.21979160E-06   8.86862869E+02   4.06196284E+02  -1.00306764E-06   0.00000000E+00   0.00000000E+00   0.00000000E+00   1.51483603E+04
   2.11750000E+03   5.00000000E-01   5.00000000E-01  -4.35472663E+04   2.90229829E+03   0.00000000E+00   8.96876597E+03   2.11928851E+03   6.26025787E+03   7.19372695E+00   0.00000000E+00   0.00000000E+00   0.00000000E+00   0.00000000E+00   0.00000000E+00   6.21979151E-06   8.78881558E+02   3.78358003E+02  -1.00306764E-06   0.00000000E+00   0.00000000E+00   0.00000000E+00   1.51408366E+04
   2.15250000E+03   5.00000000E-01   5.00000000E-01  -4.35521953E+04   2.90229223E+03   0.00000000E+00   8.96829297E+03   2.09939679E+03   6.26037991E+03   7.19372696E+00   0.00000000E+00   0.00000000E+00   0.00000000E+00   0.00000000E+00   0.00000000E+00   6.21979144E-06   8.73432747E+02   3.52917330E+02  -1.00306764E-06   0.00000000E+00   0.00000000E+00   0.00000000E+00   1.51362557E+04
   2.18750000E+03   5.00000000E-01   5.00000000E-01  -4.35560901E+04   2.90228520E+03   0.00000000E+00   8.96779502E+03   2.08019109E+03   6.26052496E+03   7.19372696E+00   0.00000000E+00   0.00000000E+00   0.00000000E+00   0.00000000E+00   0.00000000E+00   6.21979138E-06   8.69489027E+02   3.29428938E+02  -1.00306764E-06   0.00000000E+00   0.00000000E+00   0.00000000E+00   1.51334841E+04
   2.22250000E+03   5.00000000E-01   5.00000000E-01  -4.35592985E+04   2.90227710E+03   0.00000000E+00   8.96727302E+03   2.06184116E+03   6.26069133E+03   7.19372696E+00   0.00000000E+00   0.00000000E+00   0.00000000E+00   0.00000000E+00   0.00000000E+00   6.21979132E-06   8.66466497E+02   3.07595749E+02  -1.00306764E-06   0.00000000E+00   0.00000000E+00   0.00000000E+00   1.51317611E+04
   2.25750000E+03   5.00000000E-01   5.00000000E-01  -4.35620008E+04   2.90226794E+03   0.00000000E+00   8.96673800E+03   2.04436472E+03   6.26086554E+03   7.19372696E+00   0.00000000E+00   0.00000000E+00   0.00000000E+00   0.00000000E+00   0.00000000E+00   6.21979127E-06   8.64040381E+02   2.87180553E+02  -1.00306764E-06   0.00000000E+00   0.00000000E+00   0.00000000E+00   1.51306534E+04
   2.29250000E+03   5.00000000E-01   5.00000000E-01  -4.35642831E+04   2.90225778E+03   0.00000000E+00   8.96620321E+03   2.02770851E+03   6.26102991E+03   7.19372695E+00   0.00000000E+00   0.00000000E+00   0.00000000E+00   0.00000000E+00   0.00000000E+00   6.21979122E-06   8.62032259E+02   2.67993440E+02  -1.00306764E-06   0.00000000E+00   0.00000000E+00   0.00000000E+00   1.51299143E+04
   2.32750000E+03   5.00000000E-01   5.00000000E-01  -4.35661981E+04   2.90224663E+03   0.00000000E+00   8.96567574E+03   2.01189015E+03   6.26117402E+03   7.19372694E+00   0.00000000E+00   0.00000000E+00   0.00000000E+00   0.00000000E+00   0.00000000E+00   6.21979117E-06   8.60338745E+02   2.49970795E+02  -1.00306764E-06   0.00000000E+00   0.00000000E+00   0.00000000E+00   1.51294052E+04
   2.36250000E+03   5.00000000E-01   5.00000000E-01  -4.35677932E+04   2.90223446E+03   0.00000000E+00   8.96515669E+03   1.99696434E+03   6.26129460E+03   7.19372692E+00   0.00000000E+00   0.00000000E+00   0.00000000E+00   0.00000000E+00   0.00000000E+00   6.21979113E-06   8.58892497E+02   2.33107574E+02  -1.00306764E-06   0.00000000E+00   0.00000000E+00   0.00000000E+00   1.51290511E+04
   2.39750000E+03   5.00000000E-01   5.00000000E-01  -4.35691103E+04   2.90222119E+03   0.00000000E+00   8.96464480E+03   1.98284660E+03   6.26138956E+03   7.19372689E+00   0.00000000E+00   0.00000000E+00   0.00000000E+00   0.00000000E+00   0.00000000E+00   6.21979109E-06   8.57644799E+02   2.17270559E+02  -1.00306764E-06   0.00000000E+00   0.00000000E+00   0.00000000E+00   1.51288093E+04
   2.43250000E+03   5.00000000E-01   5.00000000E-01  -4.35701843E+04   2.90220666E+03   0.00000000E+00   8.96413851E+03   1.96936476E+03   6.26145568E+03   7.19372686E+00   0.00000000E+00   0.00000000E+00   0.00000000E+00   0.00000000E+00   0.00000000E+00   6.21979105E-06   8.56557178E+02   2.02245995E+02  -1.00306764E-06   0.00000000E+00   0.00000000E+00   0.00000000E+00   1.51286522E+04
   2.46750000E+03   5.00000000E-01   5.00000000E-01  -4.35710458E+04   2.90219067E+03   0.00000000E+00   8.96363646E+03   1.95644375E+03   6.26148944E+03   7.19372682E+00   0.00000000E+00   0.00000000E+00   0.00000000E+00   0.00000000E+00   0.00000000E+00   6.21979101E-06   8.55597209E+02   1.87921959E+02  -1.00306764E-06   0.00000000E+00   0.00000000E+00   0.00000000E+00   1.51285603E+04
   2.50250000E+03   5.00000000E-01   5.00000000E-01  -4.35717262E+04   2.90217297E+03   0.00000000E+00   8.96313716E+03   1.94407633E+03   6.26148777E+03   7.19372676E+00   0.00000000E+00   0.00000000E+00   0.00000000E+00   0.00000000E+00   0.00000000E+00   6.21979097E-06   8.54736721E+02   1.74256566E+02  -1.00306764E-06   0.00000000E+00   0.00000000E+00   0.00000000E+00   1.51285225E+04
   2.53750000E+03   5.00000000E-01   5.00000000E-01  -4.35722590E+04   2.90215331E+03   0.00000000E+00   8.96263894E+03   1.93227123E+03   6.26144966E+03   7.19372667E+00   0.00000000E+00   0.00000000E+00   0.00000000E+00   0.00000000E+00   0.00000000E+00   6.21979094E-06   8.53951336E+02   1.61226528E+02  -1.00306764E-06   0.00000000E+00   0.00000000E+00   0.00000000E+00   1.51285347E+04
   2.57250000E+03   5.00000000E-01   5.00000000E-01  -4.35726666E+04   2.90213146E+03   0.00000000E+00   8.96214090E+03   1.92108618E+03   6.26138089E+03   7.19372657E+00   0.00000000E+00   0.00000000E+00   0.00000000E+00   0.00000000E+00   0.00000000E+00   6.21979090E-06   8.53221758E+02   1.48873350E+02  -1.00306764E-06   0.00000000E+00   0.00000000E+00   0.00000000E+00   1.51285758E+04
   2.60750000E+03   5.00000000E-01   5.00000000E-01  -4.35729518E+04   2.90210725E+03   0.00000000E+00   8.96164261E+03   1.91057338E+03   6.26129393E+03   7.19372642E+00   0.00000000E+00   0.00000000E+00   0.00000000E+00   0.00000000E+00   0.00000000E+00   6.21979087E-06   8.52534651E+02   1.37252817E+02  -1.00306764E-06   0.00000000E+00   0.00000000E+00   0.00000000E+00   1.51286009E+04