 TITLE = "Total Component Concentration in Minerals" 
VARIABLES = "X"          "Y"              "Z"            "H+"             "Al+++"          "CO2(aq)"        "Mg++"           "Ca++"           "Fe++"           "Fe+++"          "Ba++"           "Sr++"           "Cl-"            "F-"             "K+"             "HS-"            "Na+"            "SO4--"          "O2(aq)"         "B(OH)3(aq)"     "HPO4--"         "NO3-"           "H4SiO4(aq)"    
 ZONE I=         100 , J=           1 , K=           1  F=POINT
   1.75000000E+01   5.00000000E-01   5.00000000E-01  -4.35490593E+04   2.90249379E+03   0.00000000E+00   9.10488933E+03   1.69935153E+03   6.14433593E+03   7.19372700E+00   0.00000000E+00   0.00000000E+00   0.00000000E+00   0.00000000E+00   0.00000000E+00   9.65310425E-06   9.22843197E+02   2.11841049E-06  -1.66567494E-06   0.00000000E+00   0.00000000E+00   0.00000000E+00   1.51045155E+04
   5.25000000E+01   5.00000000E-01   5.00000000E-01  -4.35402657E+04   2.90248956E+03   0.00000000E+00   9.08683062E+03   1.69935111E+03   6.15415608E+03   7.19372709E+00   0.00000000E+00   0.00000000E+00   0.00000000E+00   0.00000000E+00   0.00000000E+00   9.65328326E-06   9.30540216E+02   2.12536887E-06  -1.66567494E-06   0.00000000E+00   0.00000000E+00   0.00000000E+00   1.51226473E+04
   8.75000000E+01   5.00000000E-01   5.00000000E-01  -4.35420767E+04   2.90248956E+03   0.00000000E+00   9.07327185E+03   1.69934959E+03   6.16700458E+03   7.19372707E+00   0.00000000E+00   0.00000000E+00   0.00000000E+00   0.00000000E+00   0.00000000E+00   9.65342062E-06   9.33774842E+02   2.13323235E-06  -1.66567494E-06   0.00000000E+00   0.00000000E+00   0.00000000E+00   1.51265360E+04
   1.22500000E+02   5.00000000E-01   5.00000000E-01  -4.35445972E+04   2.90248956E+03   0.00000000E+00   9.06014399E+03   1.69934884E+03   6.18022212E+03   7.19372707E+00   0.00000000E+00   0.00000000E+00   0.00000000E+00   0.00000000E+00   0.00000000E+00   9.65350950E-06   9.36117440E+02   2.14213101E-06  -1.66567494E-06   0.00000000E+00   0.00000000E+00   0.00000000E+00   1.51268298E+04
   1.57500000E+02   5.00000000E-01   5.00000000E-01  -4.35466779E+04   2.90248956E+03   0.00000000E+00   9.04818339E+03   1.69934889E+03   6.19220005E+03   7.19372707E+00   0.00000000E+00   0.00000000E+00   0.00000000E+00   0.00000000E+00   0.00000000E+00   9.65355632E-06   9.38163378E+02   2.15221099E-06  -1.66567494E-06   0.00000000E+00   0.00000000E+00   0.00000000E+00   1.51266427E+04
   1.92500000E+02   5.00000000E-01   5.00000000E-01  -4.35483037E+04   2.90248956E+03   0.00000000E+00   9.03798192E+03   1.69934861E+03   6.20234396E+03   7.19372707E+00   0.00000000E+00   0.00000000E+00   0.00000000E+00   0.00000000E+00   0.00000000E+00   9.65357114E-06   9.39904846E+02   2.16363962E-06  -1.66567494E-06   0.00000000E+00   0.00000000E+00   0.00000000E+00   1.51264419E+04
   2.27500000E+02   5.00000000E-01   5.00000000E-01  -4.35496324E+04   2.90248956E+03   0.00000000E+00   9.02968347E+03   1.69934772E+03   6.21060374E+03   7.19372707E+00   0.00000000E+00   0.00000000E+00   0.00000000E+00   0.00000000E+00   0.00000000E+00   9.65356316E-06   9.41312662E+02   2.17661103E-06  -1.66567494E-06   0.00000000E+00   0.00000000E+00   0.00000000E+00   1.51262540E+04
   2.62500000E+02   5.00000000E-01   5.00000000E-01  -4.35507955E+04   2.90248956E+03   0.00000000E+00   9.02315964E+03   1.69934736E+03   6.21716633E+03   7.19372707E+00   0.00000000E+00   0.00000000E+00   0.00000000E+00   0.00000000E+00   0.00000000E+00   9.65353968E-06   9.42398998E+02   2.19135248E-06  -1.66567494E-06   0.00000000E+00   0.00000000E+00   0.00000000E+00   1.51260576E+04
   2.97500000E+02   5.00000000E-01   5.00000000E-01  -4.35518805E+04   2.90248956E+03   0.00000000E+00   9.01817136E+03   1.69934746E+03   6.22229578E+03   7.19372707E+00   0.00000000E+00   0.00000000E+00   0.00000000E+00   0.00000000E+00   0.00000000E+00   9.65350620E-06   9.43201400E+02   2.20813228E-06  -1.66567494E-06   0.00000000E+00   0.00000000E+00   0.00000000E+00   1.51258437E+04
   3.32500000E+02   5.00000000E-01   5.00000000E-01  -4.35529380E+04   2.90248956E+03   0.00000000E+00   9.01445333E+03   1.69934754E+03   6.22626048E+03   7.19372706E+00   0.00000000E+00   0.00000000E+00   0.00000000E+00   0.00000000E+00   0.00000000E+00   9.65346673E-06   9.43765463E+02   2.22726932E-06  -1.66567494E-06   0.00000000E+00   0.00000000E+00   0.00000000E+00   1.51256090E+04
   3.67500000E+02   5.00000000E-01   5.00000000E-01  -4.35539933E+04   2.90248956E+03   0.00000000E+00   9.01175392E+03   1.69934799E+03   6.22930192E+03   7.19372706E+00   0.00000000E+00   0.00000000E+00   0.00000000E+00   0.00000000E+00   0.00000000E+00   9.65342414E-06   9.44135821E+02   2.24914487E-06  -1.66567494E-06   0.00000000E+00   0.00000000E+00   0.00000000E+00   1.51253514E+04
   4.02500000E+02   5.00000000E-01   5.00000000E-01  -4.35550550E+04   2.90248956E+03   0.00000000E+00   9.00985591E+03   1.69934883E+03   6.23162158E+03   7.19372706E+00   0.00000000E+00   0.00000000E+00   0.00000000E+00   0.00000000E+00   0.00000000E+00   9.65338046E-06   9.44352526E+02   2.27421764E-06  -1.66567494E-06   0.00000000E+00   0.00000000E+00   0.00000000E+00   1.51250730E+04
   4.37500000E+02   5.00000000E-01   5.00000000E-01  -4.35561183E+04   2.90248956E+03   0.00000000E+00   9.00857807E+03   1.69934994E+03   6.23338139E+03   7.19372706E+00   0.00000000E+00   0.00000000E+00   0.00000000E+00   0.00000000E+00   0.00000000E+00   9.65333708E-06   9.44449669E+02   2.30304310E-06  -1.66567494E-06   0.00000000E+00   0.00000000E+00   0.00000000E+00   1.51247756E+04
   4.72500000E+02   5.00000000E-01   5.00000000E-01  -4.35571690E+04   2.90248956E+03   0.00000000E+00   9.00777223E+03   1.69935126E+03   6.23470832E+03   7.19372706E+00   0.00000000E+00   0.00000000E+00   0.00000000E+00   0.00000000E+00   0.00000000E+00   9.65329495E-06   9.44455595E+02   2.33629834E-06  -1.66567494E-06   0.00000000E+00   0.00000000E+00   0.00000000E+00   1.51244605E+04
   5.07500000E+02   5.00000000E-01   5.00000000E-01  -4.35581865E+04   2.90248955E+03   0.00000000E+00   9.00731892E+03   1.69935276E+03   6.23569982E+03   7.19372705E+00   0.00000000E+00   0.00000000E+00   0.00000000E+00   0.00000000E+00   0.00000000E+00   9.65325467E-06   9.44393654E+02   2.37481444E-06  -1.66567494E-06   0.00000000E+00   0.00000000E+00   0.00000000E+00   1.51241290E+04
   5.42500000E+02   5.00000000E-01   5.00000000E-01  -4.35591457E+04   2.90248955E+03   0.00000000E+00   9.00712241E+03   1.69935438E+03   6.23642963E+03   7.19372705E+00   0.00000000E+00   0.00000000E+00   0.00000000E+00   0.00000000E+00   0.00000000E+00   9.65321663E-06   9.44282979E+02   2.41961905E-06  -1.66567494E-06   0.00000000E+00   0.00000000E+00   0.00000000E+00   1.51237818E+04
   5.77500000E+02   5.00000000E-01   5.00000000E-01  -4.35600194E+04   2.90248955E+03   0.00000000E+00   9.00710625E+03   1.69935609E+03   6.23695286E+03   7.19372704E+00   0.00000000E+00   0.00000000E+00   0.00000000E+00   0.00000000E+00   0.00000000E+00   9.65318103E-06   9.44139184E+02   2.47199273E-06  -1.66567494E-06   0.00000000E+00   0.00000000E+00   0.00000000E+00   1.51234196E+04
   6.12500000E+02   5.00000000E-01   5.00000000E-01  -4.35607808E+04   2.90248955E+03   0.00000000E+00   9.00720980E+03   1.69935787E+03   6.23731036E+03   7.19372703E+00   0.00000000E+00   0.00000000E+00   0.00000000E+00   0.00000000E+00   0.00000000E+00   9.65314798E-06   9.43974924E+02   2.53354425E-06  -1.66567494E-06   0.00000000E+00   0.00000000E+00   0.00000000E+00   1.51230427E+04
   6.47500000E+02   5.00000000E-01   5.00000000E-01  -4.35614049E+04   2.90248955E+03   0.00000000E+00   9.00738555E+03   1.69935970E+03   6.23753216E+03   7.19372702E+00   0.00000000E+00   0.00000000E+00   0.00000000E+00   0.00000000E+00   0.00000000E+00   9.65311747E-06   9.43800297E+02   2.60631217E-06  -1.66567494E-06   0.00000000E+00   0.00000000E+00   0.00000000E+00   1.51226518E+04
   6.82500000E+02   5.00000000E-01   5.00000000E-01  -4.35618711E+04   2.90248955E+03   0.00000000E+00   9.00759718E+03   1.69936158E+03   6.23764034E+03   7.19372700E+00   0.00000000E+00   0.00000000E+00   0.00000000E+00   0.00000000E+00   0.00000000E+00   9.65308947E-06   9.43623146E+02   2.69290323E-06  -1.66567494E-06   0.00000000E+00   0.00000000E+00   0.00000000E+00   1.51222472E+04
   7.17500000E+02   5.00000000E-01   5.00000000E-01  -4.35621643E+04   2.90248955E+03   0.00000000E+00   9.00781796E+03   1.69936350E+03   6.23765115E+03   7.19372698E+00   0.00000000E+00   0.00000000E+00   0.00000000E+00   0.00000000E+00   0.00000000E+00   9.65306388E-06   9.43449278E+02   2.79668284E-06  -1.66567494E-06   0.00000000E+00   0.00000000E+00   0.00000000E+00   1.51218299E+04
   7.52500000E+02   5.00000000E-01   5.00000000E-01  -4.35622761E+04   2.90248954E+03   0.00000000E+00   9.00802961E+03   1.69936548E+03   6.23757676E+03   7.19372694E+00   0.00000000E+00   0.00000000E+00   0.00000000E+00   0.00000000E+00   0.00000000E+00   9.65304059E-06   9.43282653E+02   2.92204015E-06  -1.66567494E-06   0.00000000E+00   0.00000000E+00   0.00000000E+00   1.51214009E+04
   7.87500000E+02   5.00000000E-01   5.00000000E-01  -4.35622057E+04   2.90248954E+03   0.00000000E+00   9.00822122E+03   1.69936751E+03   6.23742646E+03   7.19372688E+00   0.00000000E+00   0.00000000E+00   0.00000000E+00   0.00000000E+00   0.00000000E+00   9.65301947E-06   9.43125572E+02   3.07476129E-06  -1.66567494E-06   0.00000000E+00   0.00000000E+00   0.00000000E+00   1.51209618E+04
   8.22500000E+02   5.00000000E-01   5.00000000E-01  -4.35619595E+04   2.90248954E+03   0.00000000E+00   9.00838817E+03   1.69936958E+03   6.23720765E+03   7.19372680E+00   0.00000000E+00   0.00000000E+00   0.00000000E+00   0.00000000E+00   0.00000000E+00   9.65300038E-06   9.42978878E+02   3.26256105E-06  -1.66567494E-06   0.00000000E+00   0.00000000E+00   0.00000000E+00   1.51205145E+04
   8.57500000E+02   5.00000000E-01   5.00000000E-01  -4.35615504E+04   2.90248953E+03   0.00000000E+00   9.00853110E+03   1.69937167E+03   6.23692645E+03   7.19372669E+00   0.00000000E+00   0.00000000E+00   0.00000000E+00   0.00000000E+00   0.00000000E+00   9.65298317E-06   9.42842184E+02   3.49585032E-06  -1.66567494E-06   0.00000000E+00   0.00000000E+00   0.00000000E+00   1.51200613E+04
   8.92500000E+02   5.00000000E-01   5.00000000E-01  -4.35609971E+04   2.90248953E+03   0.00000000E+00   9.00865472E+03   1.69937374E+03   6.23658815E+03   7.19372653E+00   0.00000000E+00   0.00000000E+00   0.00000000E+00   0.00000000E+00   0.00000000E+00   9.65296770E-06   9.42714123E+02   3.78885845E-06  -1.66567494E-06   0.00000000E+00   0.00000000E+00   0.00000000E+00   1.51196047E+04
   9.27500000E+02   5.00000000E-01   5.00000000E-01  -4.35603223E+04   2.90248953E+03   0.00000000E+00   9.00876662E+03   1.69937579E+03   6.23619758E+03   7.19372632E+00   0.00000000E+00   0.00000000E+00   0.00000000E+00   0.00000000E+00   0.00000000E+00   9.65295383E-06   9.42592611E+02   4.16129829E-06  -1.66567494E-06   0.00000000E+00   0.00000000E+00   0.00000000E+00   1.51191471E+04
   9.62500000E+02   5.00000000E-01   5.00000000E-01  -4.35595513E+04   2.90248952E+03   0.00000000E+00   9.00887613E+03   1.69937785E+03   6.23575925E+03   7.19372604E+00   0.00000000E+00   0.00000000E+00   0.00000000E+00   0.00000000E+00   0.00000000E+00   9.65294142E-06   9.42475122E+02   4.64087329E-06  -1.66567494E-06   0.00000000E+00   0.00000000E+00   0.00000000E+00   1.51186910E+04
   9.97500000E+02   5.00000000E-01   5.00000000E-01  -4.35587101E+04   2.90248952E+03   0.00000000E+00   9.00899333E+03   1.69938000E+03   6.23527740E+03   7.19372569E+00   0.00000000E+00   0.00000000E+00   0.00000000E+00   0.00000000E+00   0.00000000E+00   9.65293034E-06   9.42358936E+02   5.26711228E-06  -1.66567494E-06   0.00000000E+00   0.00000000E+00   0.00000000E+00   1.51182386E+04
   1.03250000E+03   5.00000000E-01   5.00000000E-01  -4.35578243E+04   2.90248951E+03   0.00000000E+00   9.00912843E+03   1.69938229E+03   6.23475592E+03   7.19372526E+00   0.00000000E+00   0.00000000E+00   0.00000000E+00   0.00000000E+00   0.00000000E+00   9.65292046E-06   9.42241374E+02   6.09733351E-06  -1.66567494E-06   0.00000000E+00   0.00000000E+00   0.00000000E+00   1.51177920E+04
   1.06750000E+03   5.00000000E-01   5.00000000E-01  -4.35569178E+04   2.90248950E+03   0.00000000E+00   9.00929123E+03   1.69938459E+03   6.23419824E+03   7.19372475E+00   0.00000000E+00   0.00000000E+00   0.00000000E+00   0.00000000E+00   0.00000000E+00   9.65291166E-06   9.42119977E+02   7.21608445E-06  -1.66567494E-06   0.00000000E+00   0.00000000E+00   0.00000000E+00   1.51173535E+04
   1.10250000E+03   5.00000000E-01   5.00000000E-01  -4.35560115E+04   2.90248949E+03   0.00000000E+00   9.00949033E+03   1.69938671E+03   6.23360758E+03   7.19372417E+00   0.00000000E+00   0.00000000E+00   0.00000000E+00   0.00000000E+00   0.00000000E+00   9.65290385E-06   9.41992617E+02   8.75036010E-06  -1.66567494E-06   0.00000000E+00   0.00000000E+00   0.00000000E+00   1.51169249E+04
   1.13750000E+03   5.00000000E-01   5.00000000E-01  -4.35551236E+04   2.90248949E+03   0.00000000E+00   9.00973229E+03   1.69938860E+03   6.23298731E+03   7.19372351E+00   0.00000000E+00   0.00000000E+00   0.00000000E+00   0.00000000E+00   0.00000000E+00   9.65289691E-06   9.41857567E+02   1.08946170E-05  -1.66567494E-06   0.00000000E+00   0.00000000E+00   0.00000000E+00   1.51165072E+04
   1.17250000E+03   5.00000000E-01   5.00000000E-01  -4.35542690E+04   2.90248948E+03   0.00000000E+00   9.01002135E+03   1.69939051E+03   6.23234106E+03   7.19372280E+00   0.00000000E+00   0.00000000E+00   0.00000000E+00   0.00000000E+00   0.00000000E+00   9.65289076E-06   9.41713557E+02   1.39527368E-05  -1.66567494E-06   0.00000000E+00   0.00000000E+00   0.00000000E+00   1.51161005E+04
   1.20750000E+03   5.00000000E-01   5.00000000E-01  -4.35534597E+04   2.90248946E+03   0.00000000E+00   9.01035991E+03   1.69939279E+03   6.23167248E+03   7.19372207E+00   0.00000000E+00   0.00000000E+00   0.00000000E+00   0.00000000E+00   0.00000000E+00   9.65288530E-06   9.41559820E+02   1.84099597E-05  -1.66567494E-06   0.00000000E+00   0.00000000E+00   0.00000000E+00   1.51157049E+04
   1.24250000E+03   5.00000000E-01   5.00000000E-01  -4.35527048E+04   2.90248945E+03   0.00000000E+00   9.01074981E+03   1.69939533E+03   6.23098448E+03   7.19372134E+00   0.00000000E+00   0.00000000E+00   0.00000000E+00   0.00000000E+00   0.00000000E+00   9.65288047E-06   9.41396133E+02   2.50590403E-05  -1.66567494E-06   0.00000000E+00   0.00000000E+00   0.00000000E+00   1.51153218E+04
   1.27750000E+03   5.00000000E-01   5.00000000E-01  -4.35520103E+04   2.90248944E+03   0.00000000E+00   9.01119220E+03   1.69939743E+03   6.23027947E+03   7.19372063E+00   0.00000000E+00   0.00000000E+00   0.00000000E+00   0.00000000E+00   0.00000000E+00   9.65287620E-06   9.41222712E+02   3.52268536E-05  -1.66567494E-06   0.00000000E+00   0.00000000E+00   0.00000000E+00   1.51149530E+04
   1.31250000E+03   5.00000000E-01   5.00000000E-01  -4.35513796E+04   2.90248942E+03   0.00000000E+00   9.01168581E+03   1.69939859E+03   6.22956074E+03   7.19372001E+00   0.00000000E+00   0.00000000E+00   0.00000000E+00   0.00000000E+00   0.00000000E+00   9.65287241E-06   9.41040005E+02   5.11917459E-05  -1.66567494E-06   0.00000000E+00   0.00000000E+00   0.00000000E+00   1.51145990E+04
   1.34750000E+03   5.00000000E-01   5.00000000E-01  -4.35508149E+04   2.90248941E+03   0.00000000E+00   9.01222590E+03   1.69939929E+03   6.22883336E+03   7.19371954E+00   0.00000000E+00   0.00000000E+00   0.00000000E+00   0.00000000E+00   0.00000000E+00   9.65286907E-06   9.40848578E+02   7.69726268E-05  -1.66567494E-06   0.00000000E+00   0.00000000E+00   0.00000000E+00   1.51142583E+04
   1.38250000E+03   5.00000000E-01   5.00000000E-01  -4.35503173E+04   2.90248939E+03   0.00000000E+00   9.01280213E+03   1.69940204E+03   6.22810550E+03   7.19371928E+00   0.00000000E+00   0.00000000E+00   0.00000000E+00   0.00000000E+00   0.00000000E+00   9.65286611E-06   9.40648922E+02   1.19862311E-04  -1.66567494E-06   0.00000000E+00   0.00000000E+00   0.00000000E+00   1.51139259E+04
   1.41750000E+03   5.00000000E-01   5.00000000E-01  -4.35498864E+04   2.90248937E+03   0.00000000E+00   9.01340193E+03   1.69940920E+03   6.22738687E+03   7.19371916E+00   0.00000000E+00   0.00000000E+00   0.00000000E+00   0.00000000E+00   0.00000000E+00   9.65286349E-06   9.40441604E+02   1.93494659E-04  -1.66567494E-06   0.00000000E+00   0.00000000E+00   0.00000000E+00   1.51135994E+04
   1.45250000E+03   5.00000000E-01   5.00000000E-01  -4.35495191E+04   2.90248934E+03   0.00000000E+00   9.01403037E+03   1.69941468E+03   6.22667634E+03   7.19371896E+00   0.00000000E+00   0.00000000E+00   0.00000000E+00   0.00000000E+00   0.00000000E+00   9.65286118E-06   9.40227769E+02   3.24173901E-04  -1.66567494E-06   0.00000000E+00   0.00000000E+00   0.00000000E+00   1.51133017E+04
   1.48750000E+03   5.00000000E-01   5.00000000E-01  -4.35492117E+04   2.90248932E+03   0.00000000E+00   9.01468589E+03   1.69941653E+03   6.22597669E+03   7.19371876E+00   0.00000000E+00   0.00000000E+00   0.00000000E+00   0.00000000E+00   0.00000000E+00   9.65285913E-06   9.40005521E+02   5.64346034E-04  -1.66567494E-06   0.00000000E+00   0.00000000E+00   0.00000000E+00   1.51130480E+04
   1.52250000E+03   5.00000000E-01   5.00000000E-01  -4.35489632E+04   2.90248929E+03   0.00000000E+00   9.01533923E+03   1.69942287E+03   6.22531202E+03   7.19371901E+00   0.00000000E+00   0.00000000E+00   0.00000000E+00   0.00000000E+00   0.00000000E+00   9.65285733E-06   9.39768005E+02   1.02221176E-03  -1.66567494E-06   0.00000000E+00   0.00000000E+00   0.00000000E+00   1.51128342E+04
   1.55750000E+03   5.00000000E-01   5.00000000E-01  -4.35487726E+04   2.90248926E+03   0.00000000E+00   9.01596309E+03   1.69943682E+03   6.22471148E+03   7.19371942E+00   0.00000000E+00   0.00000000E+00   0.00000000E+00   0.00000000E+00   0.00000000E+00   9.65285573E-06   9.39504731E+02   1.92911211E-03  -1.66567494E-06   0.00000000E+00   0.00000000E+00   0.00000000E+00   1.51126845E+04
   1.59250000E+03   5.00000000E-01   5.00000000E-01  -4.35486404E+04   2.90248923E+03   0.00000000E+00   9.01656294E+03   1.69944780E+03   6.22418800E+03   7.19371935E+00   0.00000000E+00   0.00000000E+00   0.00000000E+00   0.00000000E+00   0.00000000E+00   9.65285433E-06   9.39201659E+02   3.79851291E-03  -1.66567494E-06   0.00000000E+00   0.00000000E+00   0.00000000E+00   1.51126781E+04
   1.62750000E+03   5.00000000E-01   5.00000000E-01  -4.35485625E+04   2.90248920E+03   0.00000000E+00   9.01712517E+03   1.69945435E+03   6.22376422E+03   7.19371895E+00   0.00000000E+00   0.00000000E+00   0.00000000E+00   0.00000000E+00   0.00000000E+00   9.65285309E-06   9.38841866E+02   7.81490016E-03  -1.66567494E-06   0.00000000E+00   0.00000000E+00   0.00000000E+00   1.51128476E+04
   1.66250000E+03   5.00000000E-01   5.00000000E-01  -4.35485335E+04   2.90248916E+03   0.00000000E+00   9.01761716E+03   1.69946289E+03   6.22346994E+03   7.19371797E+00   0.00000000E+00   0.00000000E+00   0.00000000E+00   0.00000000E+00   0.00000000E+00   9.65285201E-06   9.38418476E+02   1.68213836E-02  -1.66567494E-06   0.00000000E+00   0.00000000E+00   0.00000000E+00   1.51131394E+04
   1.69750000E+03   5.00000000E-01   5.00000000E-01  -4.35485609E+04   2.90248913E+03   0.00000000E+00   9.01803880E+03   1.69948212E+03   6.22330237E+03   7.19371667E+00   0.00000000E+00   0.00000000E+00   0.00000000E+00   0.00000000E+00   0.00000000E+00   9.65285105E-06   9.37941603E+02   3.79253336E-02  -1.66567494E-06   0.00000000E+00   0.00000000E+00   0.00000000E+00   1.51134826E+04
   1.73250000E+03   5.00000000E-01   5.00000000E-01  -4.35486544E+04   2.90248909E+03   0.00000000E+00   9.01841501E+03   1.69953168E+03   6.22323071E+03   7.19371647E+00   0.00000000E+00   0.00000000E+00   0.00000000E+00   0.00000000E+00   0.00000000E+00   9.65285021E-06   9.37430517E+02   8.96386710E-02  -1.66567494E-06   0.00000000E+00   0.00000000E+00   0.00000000E+00   1.51138286E+04
   1.76750000E+03   5.00000000E-01   5.00000000E-01  -4.35488083E+04   2.90248905E+03   0.00000000E+00   9.01874971E+03   1.69966285E+03   6.22323699E+03   7.19371748E+00   0.00000000E+00   0.00000000E+00   0.00000000E+00   0.00000000E+00   0.00000000E+00   9.65284946E-06   9.36905207E+02   2.22162171E-01  -1.66567494E-06   0.00000000E+00   0.00000000E+00   0.00000000E+00   1.51141284E+04
   1.80250000E+03   5.00000000E-01   5.00000000E-01  -4.35490132E+04   2.90248900E+03   0.00000000E+00   9.01903105E+03   1.70001759E+03   6.22331905E+03   7.19371854E+00   0.00000000E+00   0.00000000E+00   0.00000000E+00   0.00000000E+00   0.00000000E+00   9.65284879E-06   9.36383048E+02   5.76714171E-01  -1.66567494E-06   0.00000000E+00   0.00000000E+00   0.00000000E+00   1.51143495E+04
   1.83750000E+03   5.00000000E-01   5.00000000E-01  -4.35492620E+04   2.90248895E+03   0.00000000E+00   9.01924322E+03   1.70100507E+03   6.22348025E+03   7.19371901E+00   0.00000000E+00   0.00000000E+00   0.00000000E+00   0.00000000E+00   0.00000000E+00   9.65284820E-06   9.35877702E+02   1.56041150E+00  -1.66567494E-06   0.00000000E+00   0.00000000E+00   0.00000000E+00   1.51144843E+04
   1.87250000E+03   5.00000000E-01   5.00000000E-01  -4.35495421E+04   2.90248890E+03   0.00000000E+00   9.01936722E+03   1.70378549E+03   6.22372713E+03   7.19371915E+00   0.00000000E+00   0.00000000E+00   0.00000000E+00   0.00000000E+00   0.00000000E+00   9.65284767E-06   9.35399028E+02   4.33220630E+00  -1.66567494E-06   0.00000000E+00   0.00000000E+00   0.00000000E+00   1.51145457E+04
   1.90750000E+03   5.00000000E-01   5.00000000E-01  -4.35498232E+04   2.90248883E+03   0.00000000E+00   9.01938335E+03   1.71127359E+03   6.22406598E+03   7.19371934E+00   0.00000000E+00   0.00000000E+00   0.00000000E+00   0.00000000E+00   0.00000000E+00   9.65284720E-06   9.34953043E+02   1.18116494E+01  -1.66567494E-06   0.00000000E+00   0.00000000E+00   0.00000000E+00   1.51145757E+04
   1.94250000E+03   5.00000000E-01   5.00000000E-01  -4.35500307E+04   2.90248877E+03   0.00000000E+00   9.01925688E+03   1.72824220E+03   6.22449743E+03   7.19371954E+00   0.00000000E+00   0.00000000E+00   0.00000000E+00   0.00000000E+00   0.00000000E+00   9.65284678E-06   9.34543113E+02   2.87764635E+01  -1.66567494E-06   0.00000000E+00   0.00000000E+00   0.00000000E+00   1.51146012E+04
   1.97750000E+03   5.00000000E-01   5.00000000E-01  -4.35500850E+04   2.90248869E+03   0.00000000E+00   9.01895804E+03   1.75548113E+03   6.22501001E+03   7.19371980E+00   0.00000000E+00   0.00000000E+00   0.00000000E+00   0.00000000E+00   0.00000000E+00   9.65284641E-06   9.34171254E+02   5.60159210E+01  -1.66567494E-06   0.00000000E+00   0.00000000E+00   0.00000000E+00   1.51146226E+04
   2.01250000E+03   5.00000000E-01   5.00000000E-01  -4.35500152E+04   2.90248861E+03   0.00000000E+00   9.01851226E+03   1.78425528E+03   6.22559041E+03   7.19372013E+00   0.00000000E+00   0.00000000E+00   0.00000000E+00   0.00000000E+00   0.00000000E+00   9.65284607E-06   9.33837886E+02   8.47927997E+01  -1.66567494E-06   0.00000000E+00   0.00000000E+00   0.00000000E+00   1.51146545E+04
   2.04750000E+03   5.00000000E-01   5.00000000E-01  -4.35499224E+04   2.90248853E+03   0.00000000E+00   9.01797058E+03   1.80572906E+03   6.22623700E+03   7.19372035E+00   0.00000000E+00   0.00000000E+00   0.00000000E+00   0.00000000E+00   0.00000000E+00   9.65284577E-06   9.33542534E+02   1.06270067E+02  -1.66567494E-06   0.00000000E+00   0.00000000E+00   0.00000000E+00   1.51147160E+04
   2.08250000E+03   5.00000000E-01   5.00000000E-01  -4.35498737E+04   2.90248843E+03   0.00000000E+00   9.01735743E+03   1.81797293E+03   6.22695831E+03   7.19372037E+00   0.00000000E+00   0.00000000E+00   0.00000000E+00   0.00000000E+00   0.00000000E+00   9.65284550E-06   9.33284884E+02   1.18517470E+02  -1.66567494E-06   0.00000000E+00   0.00000000E+00   0.00000000E+00   1.51148118E+04
   2.11750000E+03   5.00000000E-01   5.00000000E-01  -4.35498919E+04   2.90248833E+03   0.00000000E+00   9.01666874E+03   1.82268316E+03   6.22776935E+03   7.19372023E+00   0.00000000E+00   0.00000000E+00   0.00000000E+00   0.00000000E+00   0.00000000E+00   9.65284525E-06   9.33065039E+02   1.23230909E+02  -1.66567494E-06   0.00000000E+00   0.00000000E+00   0.00000000E+00   1.51149367E+04
   2.15250000E+03   5.00000000E-01   5.00000000E-01  -4.35499711E+04   2.90248823E+03   0.00000000E+00   9.01588245E+03   1.82241280E+03   6.22868883E+03   7.19371994E+00   0.00000000E+00   0.00000000E+00   0.00000000E+00   0.00000000E+00   0.00000000E+00   9.65284503E-06   9.32883627E+02   1.22963240E+02  -1.66567494E-06   0.00000000E+00   0.00000000E+00   0.00000000E+00   1.51150827E+04
   2.18750000E+03   5.00000000E-01   5.00000000E-01  -4.35500858E+04   2.90248811E+03   0.00000000E+00   9.01496722E+03   1.81969551E+03   6.22973458E+03   7.19371952E+00   0.00000000E+00   0.00000000E+00   0.00000000E+00   0.00000000E+00   0.00000000E+00   9.65284483E-06   9.32741660E+02   1.20247985E+02  -1.66567494E-06   0.00000000E+00   0.00000000E+00   0.00000000E+00   1.51152416E+04
   2.22250000E+03   5.00000000E-01   5.00000000E-01  -4.35502131E+04   2.90248798E+03   0.00000000E+00   9.01389770E+03   1.81601339E+03   6.23092015E+03   7.19371896E+00   0.00000000E+00   0.00000000E+00   0.00000000E+00   0.00000000E+00   0.00000000E+00   9.65284465E-06   9.32639925E+02   1.16567180E+02  -1.66567494E-06   0.00000000E+00   0.00000000E+00   0.00000000E+00   1.51154089E+04
   2.25750000E+03   5.00000000E-01   5.00000000E-01  -4.35503421E+04   2.90248784E+03   0.00000000E+00   9.01265855E+03   1.81193642E+03   6.23225517E+03   7.19371827E+00   0.00000000E+00   0.00000000E+00   0.00000000E+00   0.00000000E+00   0.00000000E+00   9.65284449E-06   9.32578607E+02   1.12490739E+02  -1.66567494E-06   0.00000000E+00   0.00000000E+00   0.00000000E+00   1.51155870E+04
   2.29250000E+03   5.00000000E-01   5.00000000E-01  -4.35504880E+04   2.90248768E+03   0.00000000E+00   9.01125078E+03   1.80707792E+03   6.23374678E+03   7.19371746E+00   0.00000000E+00   0.00000000E+00   0.00000000E+00   0.00000000E+00   0.00000000E+00   9.65284435E-06   9.32556746E+02   1.07631957E+02  -1.66567494E-06   0.00000000E+00   0.00000000E+00   0.00000000E+00   1.51157816E+04
   2.32750000E+03   5.00000000E-01   5.00000000E-01  -4.35506760E+04   2.90248752E+03   0.00000000E+00   9.00968270E+03   1.80103341E+03   6.23539981E+03   7.19371651E+00   0.00000000E+00   0.00000000E+00   0.00000000E+00   0.00000000E+00   0.00000000E+00   9.65284422E-06   9.32573033E+02   1.01586301E+02  -1.66567494E-06   0.00000000E+00   0.00000000E+00   0.00000000E+00   1.51159936E+04
   2.36250000E+03   5.00000000E-01   5.00000000E-01  -4.35509002E+04   2.90248734E+03   0.00000000E+00   9.00795290E+03   1.79440937E+03   6.23721281E+03   7.19371543E+00   0.00000000E+00   0.00000000E+00   0.00000000E+00   0.00000000E+00   0.00000000E+00   9.65284410E-06   9.32627261E+02   9.49601982E+01  -1.66567494E-06   0.00000000E+00   0.00000000E+00   0.00000000E+00   1.51162168E+04
   2.39750000E+03   5.00000000E-01   5.00000000E-01  -4.35511333E+04   2.90248714E+03   0.00000000E+00   9.00605873E+03   1.78806834E+03   6.23917446E+03   7.19371421E+00   0.00000000E+00   0.00000000E+00   0.00000000E+00   0.00000000E+00   0.00000000E+00   9.65284399E-06   9.32719954E+02   8.86161485E+01  -1.66567494E-06   0.00000000E+00   0.00000000E+00   0.00000000E+00   1.51164454E+04
   2.43250000E+03   5.00000000E-01   5.00000000E-01  -4.35513602E+04   2.90248693E+03   0.00000000E+00   9.00401213E+03   1.78227040E+03   6.24126530E+03   7.19371284E+00   0.00000000E+00   0.00000000E+00   0.00000000E+00   0.00000000E+00   0.00000000E+00   9.65284390E-06   9.32850958E+02   8.28141892E+01  -1.66567494E-06   0.00000000E+00   0.00000000E+00   0.00000000E+00   1.51166807E+04
   2.46750000E+03   5.00000000E-01   5.00000000E-01  -4.35515903E+04   2.90248669E+03   0.00000000E+00   9.00184121E+03   1.77669923E+03   6.24346274E+03   7.19371131E+00   0.00000000E+00   0.00000000E+00   0.00000000E+00   0.00000000E+00   0.00000000E+00   9.65284381E-06   9.33018617E+02   7.72379374E+01  -1.66567494E-06   0.00000000E+00   0.00000000E+00   0.00000000E+00   1.51169293E+04
   2.50250000E+03   5.00000000E-01   5.00000000E-01  -4.35518329E+04   2.90248644E+03   0.00000000E+00   8.99957692E+03   1.77120038E+03   6.24574144E+03   7.19370959E+00   0.00000000E+00   0.00000000E+00   0.00000000E+00   0.00000000E+00   0.00000000E+00   9.65284373E-06   9.33220661E+02   7.17328377E+01  -1.66567494E-06   0.00000000E+00   0.00000000E+00   0.00000000E+00   1.51171945E+04
   2.53750000E+03   5.00000000E-01   5.00000000E-01  -4.35520744E+04   2.90248617E+03   0.00000000E+00   8.99724484E+03   1.76607485E+03   6.24806965E+03   7.19370767E+00   0.00000000E+00   0.00000000E+00   0.00000000E+00   0.00000000E+00   0.00000000E+00   9.65284365E-06   9.33455675E+02   6.65997928E+01  -1.66567494E-06   0.00000000E+00   0.00000000E+00   0.00000000E+00   1.51174701E+04
   2.57250000E+03   5.00000000E-01   5.00000000E-01  -4.35522888E+04   2.90248587E+03   0.00000000E+00   8.99487005E+03   1.76167383E+03   6.25040938E+03   7.19370552E+00   0.00000000E+00   0.00000000E+00   0.00000000E+00   0.00000000E+00   0.00000000E+00   9.65284359E-06   9.33723301E+02   6.21898692E+01  -1.66567494E-06   0.00000000E+00   0.00000000E+00   0.00000000E+00   1.51177470E+04
   2.60750000E+03   5.00000000E-01   5.00000000E-01  -4.35524584E+04   2.90248554E+03   0.00000000E+00   8.99248204E+03   1.75806997E+03   6.25272217E+03   7.19370312E+00   0.00000000E+00   0.00000000E+00   0.00000000E+00   0.00000000E+00   0.00000000E+00   9.65284352E-06   9.34023468E+02   5.85755912E+01  -1.66567494E-06   0.00000000E+00   0.00000000E+00   0.00000000E+00   1.51180199E+04