 TITLE = "Total Component Concentration in Minerals" 
VARIABLES = "X"          "Y"              "Z"            "H+"             "Al+++"          "CO2(aq)"        "Mg++"           "Ca++"           "Fe++"           "Fe+++"          "Ba++"           "Sr++"           "Cl-"            "F-"             "K+"             "HS-"            "Na+"            "SO4--"          "O2(aq)"         "B(OH)3(aq)"     "HPO4--"         "NO3-"           "H4SiO4(aq)"    
 ZONE I=         100 , J=           1 , K=           1  F=POINT
   1.75000000E+01   5.00000000E-01   5.00000000E-01  -4.35713870E+04   2.90250171E+03   0.00000000E+00   9.62110084E+03   1.33832412E+03   5.96995519E+03   7.19372679E+00   0.00000000E+00   0.00000000E+00   0.00000000E+00   0.00000000E+00   0.00000000E+00   6.69111760E-06   9.83540406E+02   2.11638389E-06  -1.09160032E-06   0.00000000E+00   0.00000000E+00   0.00000000E+00   1.47965279E+04
   5.25000000E+01   5.00000000E-01   5.00000000E-01  -4.35356424E+04   2.90248956E+03   0.00000000E+00   9.47734696E+03   1.34055049E+03   6.06377069E+03   7.19372712E+00   0.00000000E+00   0.00000000E+00   0.00000000E+00   0.00000000E+00   0.00000000E+00   6.69138908E-06   1.04325622E+03   2.13190917E-06  -1.09160032E-06   0.00000000E+00   0.00000000E+00   0.00000000E+00   1.49419148E+04
   8.75000000E+01   5.00000000E-01   5.00000000E-01  -4.35479765E+04   2.90248956E+03   0.00000000E+00   9.40175639E+03   1.34254245E+03   6.12742255E+03   7.19372710E+00   0.00000000E+00   0.00000000E+00   0.00000000E+00   0.00000000E+00   0.00000000E+00   6.69152022E-06   1.07548387E+03   2.14930476E-06  -1.09160032E-06   0.00000000E+00   0.00000000E+00   0.00000000E+00   1.50300593E+04
   1.22500000E+02   5.00000000E-01   5.00000000E-01  -4.35538868E+04   2.90248956E+03   0.00000000E+00   9.36475365E+03   1.34269542E+03   6.15975837E+03   7.19372709E+00   0.00000000E+00   0.00000000E+00   0.00000000E+00   0.00000000E+00   0.00000000E+00   6.69157853E-06   1.09042207E+03   2.16890967E-06  -1.09160032E-06   0.00000000E+00   0.00000000E+00   0.00000000E+00   1.50692630E+04
   1.57500000E+02   5.00000000E-01   5.00000000E-01  -4.35571760E+04   2.90248956E+03   0.00000000E+00   9.34743740E+03   1.34169535E+03   6.17688064E+03   7.19372709E+00   0.00000000E+00   0.00000000E+00   0.00000000E+00   0.00000000E+00   0.00000000E+00   6.69159891E-06   1.09609932E+03   2.19110626E-06  -1.09160032E-06   0.00000000E+00   0.00000000E+00   0.00000000E+00   1.50825511E+04
   1.92500000E+02   5.00000000E-01   5.00000000E-01  -4.35594707E+04   2.90248956E+03   0.00000000E+00   9.33843178E+03   1.34067197E+03   6.18787871E+03   7.19372708E+00   0.00000000E+00   0.00000000E+00   0.00000000E+00   0.00000000E+00   0.00000000E+00   6.69159708E-06   1.09645595E+03   2.21631056E-06  -1.09160032E-06   0.00000000E+00   0.00000000E+00   0.00000000E+00   1.50863685E+04
   2.27500000E+02   5.00000000E-01   5.00000000E-01  -4.35611939E+04   2.90248956E+03   0.00000000E+00   9.33270789E+03   1.34043539E+03   6.19727594E+03   7.19372708E+00   0.00000000E+00   0.00000000E+00   0.00000000E+00   0.00000000E+00   0.00000000E+00   6.69158093E-06   1.09130560E+03   2.24498406E-06  -1.09160032E-06   0.00000000E+00   0.00000000E+00   0.00000000E+00   1.50884789E+04
   2.62500000E+02   5.00000000E-01   5.00000000E-01  -4.35629803E+04   2.90248956E+03   0.00000000E+00   9.32961414E+03   1.34056084E+03   6.20523353E+03   7.19372707E+00   0.00000000E+00   0.00000000E+00   0.00000000E+00   0.00000000E+00   0.00000000E+00   6.69155435E-06   1.08311349E+03   2.27768474E-06  -1.09160032E-06   0.00000000E+00   0.00000000E+00   0.00000000E+00   1.50887411E+04
   2.97500000E+02   5.00000000E-01   5.00000000E-01  -4.35649652E+04   2.90248956E+03   0.00000000E+00   9.32815076E+03   1.34078248E+03   6.21185322E+03   7.19372707E+00   0.00000000E+00   0.00000000E+00   0.00000000E+00   0.00000000E+00   0.00000000E+00   6.69152025E-06   1.07434247E+03   2.31508500E-06  -1.09160032E-06   0.00000000E+00   0.00000000E+00   0.00000000E+00   1.50878698E+04
   3.32500000E+02   5.00000000E-01   5.00000000E-01  -4.35670664E+04   2.90248955E+03   0.00000000E+00   9.32735358E+03   1.34105468E+03   6.21769440E+03   7.19372707E+00   0.00000000E+00   0.00000000E+00   0.00000000E+00   0.00000000E+00   0.00000000E+00   6.69148096E-06   1.06581130E+03   2.35799168E-06  -1.09160032E-06   0.00000000E+00   0.00000000E+00   0.00000000E+00   1.50867862E+04
   3.67500000E+02   5.00000000E-01   5.00000000E-01  -4.35692630E+04   2.90248955E+03   0.00000000E+00   9.32677448E+03   1.34136269E+03   6.22309443E+03   7.19372707E+00   0.00000000E+00   0.00000000E+00   0.00000000E+00   0.00000000E+00   0.00000000E+00   6.69143820E-06   1.05775001E+03   2.40737824E-06  -1.09160032E-06   0.00000000E+00   0.00000000E+00   0.00000000E+00   1.50858897E+04
   4.02500000E+02   5.00000000E-01   5.00000000E-01  -4.35715353E+04   2.90248955E+03   0.00000000E+00   9.32623858E+03   1.34169500E+03   6.22820553E+03   7.19372707E+00   0.00000000E+00   0.00000000E+00   0.00000000E+00   0.00000000E+00   0.00000000E+00   6.69139329E-06   1.05020728E+03   2.46442770E-06  -1.09160032E-06   0.00000000E+00   0.00000000E+00   0.00000000E+00   1.50852915E+04
   4.37500000E+02   5.00000000E-01   5.00000000E-01  -4.35738519E+04   2.90248955E+03   0.00000000E+00   9.32568433E+03   1.34204022E+03   6.23308910E+03   7.19372707E+00   0.00000000E+00   0.00000000E+00   0.00000000E+00   0.00000000E+00   0.00000000E+00   6.69134728E-06   1.04317479E+03   2.53058908E-06  -1.09160032E-06   0.00000000E+00   0.00000000E+00   0.00000000E+00   1.50849826E+04
   4.72500000E+02   5.00000000E-01   5.00000000E-01  -4.35761737E+04   2.90248955E+03   0.00000000E+00   9.32508902E+03   1.34238729E+03   6.23777152E+03   7.19372707E+00   0.00000000E+00   0.00000000E+00   0.00000000E+00   0.00000000E+00   0.00000000E+00   6.69130105E-06   1.03662826E+03   2.60765203E-06  -1.09160032E-06   0.00000000E+00   0.00000000E+00   0.00000000E+00   1.50849142E+04
   5.07500000E+02   5.00000000E-01   5.00000000E-01  -4.35784549E+04   2.90248954E+03   0.00000000E+00   9.32443544E+03   1.34272610E+03   6.24227001E+03   7.19372707E+00   0.00000000E+00   0.00000000E+00   0.00000000E+00   0.00000000E+00   0.00000000E+00   6.69125528E-06   1.03054199E+03   2.69784626E-06  -1.09160032E-06   0.00000000E+00   0.00000000E+00   0.00000000E+00   1.50850349E+04
   5.42500000E+02   5.00000000E-01   5.00000000E-01  -4.35806431E+04   2.90248954E+03   0.00000000E+00   9.32369676E+03   1.34304775E+03   6.24660548E+03   7.19372707E+00   0.00000000E+00   0.00000000E+00   0.00000000E+00   0.00000000E+00   0.00000000E+00   6.69121056E-06   1.02489335E+03   2.80397536E-06  -1.09160032E-06   0.00000000E+00   0.00000000E+00   0.00000000E+00   1.50853063E+04
   5.77500000E+02   5.00000000E-01   5.00000000E-01  -4.35826847E+04   2.90248954E+03   0.00000000E+00   9.32284096E+03   1.34334476E+03   6.25080082E+03   7.19372707E+00   0.00000000E+00   0.00000000E+00   0.00000000E+00   0.00000000E+00   0.00000000E+00   6.69116731E-06   1.01966186E+03   2.92959877E-06  -1.09160032E-06   0.00000000E+00   0.00000000E+00   0.00000000E+00   1.50857008E+04
   6.12500000E+02   5.00000000E-01   5.00000000E-01  -4.35845265E+04   2.90248953E+03   0.00000000E+00   9.32184450E+03   1.34361122E+03   6.25486918E+03   7.19372707E+00   0.00000000E+00   0.00000000E+00   0.00000000E+00   0.00000000E+00   0.00000000E+00   6.69112587E-06   1.01482690E+03   3.07928158E-06  -1.09160032E-06   0.00000000E+00   0.00000000E+00   0.00000000E+00   1.50861908E+04
   6.47500000E+02   5.00000000E-01   5.00000000E-01  -4.35861158E+04   2.90248953E+03   0.00000000E+00   9.32069930E+03   1.34384297E+03   6.25880763E+03   7.19372707E+00   0.00000000E+00   0.00000000E+00   0.00000000E+00   0.00000000E+00   0.00000000E+00   6.69108648E-06   1.01036623E+03   3.25894158E-06  -1.09160032E-06   0.00000000E+00   0.00000000E+00   0.00000000E+00   1.50867427E+04
   6.82500000E+02   5.00000000E-01   5.00000000E-01  -4.35874053E+04   2.90248952E+03   0.00000000E+00   9.31940360E+03   1.34403763E+03   6.26260759E+03   7.19372707E+00   0.00000000E+00   0.00000000E+00   0.00000000E+00   0.00000000E+00   0.00000000E+00   6.69104928E-06   1.00625795E+03   3.47633757E-06  -1.09160032E-06   0.00000000E+00   0.00000000E+00   0.00000000E+00   1.50873268E+04
   7.17500000E+02   5.00000000E-01   5.00000000E-01  -4.35883525E+04   2.90248952E+03   0.00000000E+00   9.31794175E+03   1.34419431E+03   6.26627310E+03   7.19372707E+00   0.00000000E+00   0.00000000E+00   0.00000000E+00   0.00000000E+00   0.00000000E+00   6.69101439E-06   1.00248450E+03   3.74176644E-06  -1.09160032E-06   0.00000000E+00   0.00000000E+00   0.00000000E+00   1.50879345E+04
   7.52500000E+02   5.00000000E-01   5.00000000E-01  -4.35889254E+04   2.90248951E+03   0.00000000E+00   9.31629189E+03   1.34431341E+03   6.26981687E+03   7.19372707E+00   0.00000000E+00   0.00000000E+00   0.00000000E+00   0.00000000E+00   0.00000000E+00   6.69098183E-06   9.99031305E+02   4.06907151E-06  -1.09160032E-06   0.00000000E+00   0.00000000E+00   0.00000000E+00   1.50885716E+04
   7.87500000E+02   5.00000000E-01   5.00000000E-01  -4.35891020E+04   2.90248950E+03   0.00000000E+00   9.31443185E+03   1.34439621E+03   6.27325511E+03   7.19372707E+00   0.00000000E+00   0.00000000E+00   0.00000000E+00   0.00000000E+00   0.00000000E+00   6.69095161E-06   9.95885988E+02   4.47712291E-06  -1.09160032E-06   0.00000000E+00   0.00000000E+00   0.00000000E+00   1.50892517E+04
   8.22500000E+02   5.00000000E-01   5.00000000E-01  -4.35888718E+04   2.90248949E+03   0.00000000E+00   9.31234160E+03   1.34444461E+03   6.27660582E+03   7.19372707E+00   0.00000000E+00   0.00000000E+00   0.00000000E+00   0.00000000E+00   0.00000000E+00   6.69092368E-06   9.93038170E+02   4.99202606E-06  -1.09160032E-06   0.00000000E+00   0.00000000E+00   0.00000000E+00   1.50899926E+04
   8.57500000E+02   5.00000000E-01   5.00000000E-01  -4.35882341E+04   2.90248948E+03   0.00000000E+00   9.31000123E+03   1.34446082E+03   6.27989012E+03   7.19372706E+00   0.00000000E+00   0.00000000E+00   0.00000000E+00   0.00000000E+00   0.00000000E+00   6.69089797E-06   9.90480203E+02   5.65047283E-06  -1.09160032E-06   0.00000000E+00   0.00000000E+00   0.00000000E+00   1.50908170E+04
   8.92500000E+02   5.00000000E-01   5.00000000E-01  -4.35871970E+04   2.90248946E+03   0.00000000E+00   9.30739238E+03   1.34444718E+03   6.28313038E+03   7.19372706E+00   0.00000000E+00   0.00000000E+00   0.00000000E+00   0.00000000E+00   0.00000000E+00   6.69087437E-06   9.88207508E+02   6.50491914E-06  -1.09160032E-06   0.00000000E+00   0.00000000E+00   0.00000000E+00   1.50917501E+04
   9.27500000E+02   5.00000000E-01   5.00000000E-01  -4.35857731E+04   2.90248945E+03   0.00000000E+00   9.30449627E+03   1.34440587E+03   6.28634973E+03   7.19372705E+00   0.00000000E+00   0.00000000E+00   0.00000000E+00   0.00000000E+00   0.00000000E+00   6.69085278E-06   9.86219810E+02   7.63174078E-06  -1.09160032E-06   0.00000000E+00   0.00000000E+00   0.00000000E+00   1.50928194E+04
   9.62500000E+02   5.00000000E-01   5.00000000E-01  -4.35839751E+04   2.90248943E+03   0.00000000E+00   9.30129125E+03   1.34433879E+03   6.28957147E+03   7.19372704E+00   0.00000000E+00   0.00000000E+00   0.00000000E+00   0.00000000E+00   0.00000000E+00   6.69083307E-06   9.84522589E+02   9.14434902E-06  -1.09160032E-06   0.00000000E+00   0.00000000E+00   0.00000000E+00   1.50940560E+04
   9.97500000E+02   5.00000000E-01   5.00000000E-01  -4.35818090E+04   2.90248940E+03   0.00000000E+00   9.29775100E+03   1.34424768E+03   6.29281661E+03   7.19372702E+00   0.00000000E+00   0.00000000E+00   0.00000000E+00   0.00000000E+00   0.00000000E+00   6.69081510E-06   9.83129054E+02   1.12147534E-05  -1.09160032E-06   0.00000000E+00   0.00000000E+00   0.00000000E+00   1.50954948E+04
   1.03250000E+03   5.00000000E-01   5.00000000E-01  -4.35792641E+04   2.90248937E+03   0.00000000E+00   9.29384315E+03   1.34413417E+03   6.29609824E+03   7.19372700E+00   0.00000000E+00   0.00000000E+00   0.00000000E+00   0.00000000E+00   0.00000000E+00   6.69079874E-06   9.82063778E+02   1.41098594E-05  -1.09160032E-06   0.00000000E+00   0.00000000E+00   0.00000000E+00   1.50971759E+04
   1.06750000E+03   5.00000000E-01   5.00000000E-01  -4.35762925E+04   2.90248933E+03   0.00000000E+00   9.28951424E+03   1.34399964E+03   6.29942195E+03   7.19372697E+00   0.00000000E+00   0.00000000E+00   0.00000000E+00   0.00000000E+00   0.00000000E+00   6.69078384E-06   9.81371666E+02   1.82541409E-05  -1.09160032E-06   0.00000000E+00   0.00000000E+00   0.00000000E+00   1.50991536E+04
   1.10250000E+03   5.00000000E-01   5.00000000E-01  -4.35727717E+04   2.90248927E+03   0.00000000E+00   9.28466911E+03   1.34384493E+03   6.30277985E+03   7.19372694E+00   0.00000000E+00   0.00000000E+00   0.00000000E+00   0.00000000E+00   0.00000000E+00   6.69077024E-06   9.81134948E+02   2.43408336E-05  -1.09160032E-06   0.00000000E+00   0.00000000E+00   0.00000000E+00   1.51015097E+04
   1.13750000E+03   5.00000000E-01   5.00000000E-01  -4.35947519E+04   2.90248884E+03   0.00000000E+00   9.37145686E+03   1.33789669E+03   6.22041856E+03   7.19372692E+00   0.00000000E+00   0.00000000E+00   0.00000000E+00   0.00000000E+00   0.00000000E+00   6.69075661E-06   1.00616006E+03   3.34773104E-05  -1.09160032E-06   0.00000000E+00   0.00000000E+00   0.00000000E+00   1.60219158E+04
   1.17250000E+03   5.00000000E-01   5.00000000E-01  -4.35529059E+04   2.90248923E+03   0.00000000E+00   9.33508175E+03   1.33789690E+03   6.25871235E+03   7.19372686E+00   0.00000000E+00   0.00000000E+00   0.00000000E+00   0.00000000E+00   0.00000000E+00   6.69075022E-06   9.60475129E+02   4.77219342E-05  -1.09160032E-06   0.00000000E+00   0.00000000E+00   0.00000000E+00   1.50198162E+04
   1.20750000E+03   5.00000000E-01   5.00000000E-01  -4.35488449E+04   2.90248883E+03   0.00000000E+00   9.29463327E+03   1.33791163E+03   6.29301200E+03   7.19372682E+00   0.00000000E+00   0.00000000E+00   0.00000000E+00   0.00000000E+00   0.00000000E+00   6.69074101E-06   9.68683584E+02   7.07271159E-05  -1.09160032E-06   0.00000000E+00   0.00000000E+00   0.00000000E+00   1.50559061E+04
   1.24250000E+03   5.00000000E-01   5.00000000E-01  -4.35332377E+04   2.90248802E+03   0.00000000E+00   9.26274578E+03   1.33797045E+03   6.31159374E+03   7.19372678E+00   0.00000000E+00   0.00000000E+00   0.00000000E+00   0.00000000E+00   0.00000000E+00   6.69072970E-06   9.79572752E+02   1.09230861E-04  -1.09160032E-06   0.00000000E+00   0.00000000E+00   0.00000000E+00   1.50828302E+04
   1.27750000E+03   5.00000000E-01   5.00000000E-01  -4.35022356E+04   2.90248326E+03   0.00000000E+00   9.23282744E+03   1.33860008E+03   6.31258602E+03   7.19372674E+00   0.00000000E+00   0.00000000E+00   0.00000000E+00   0.00000000E+00   0.00000000E+00   6.69071632E-06   1.00517789E+03   1.76144424E-04  -1.09160032E-06   0.00000000E+00   0.00000000E+00   0.00000000E+00   1.51082531E+04
   1.31250000E+03   5.00000000E-01   5.00000000E-01  -4.34854627E+04   2.90244995E+03   0.00000000E+00   9.20395137E+03   1.34719616E+03   6.30898130E+03   7.19372670E+00   0.00000000E+00   0.00000000E+00   0.00000000E+00   0.00000000E+00   0.00000000E+00   6.69070380E-06   1.03627461E+03   2.96842321E-04  -1.09160032E-06   0.00000000E+00   0.00000000E+00   0.00000000E+00   1.51141744E+04
   1.34750000E+03   5.00000000E-01   5.00000000E-01  -4.34822411E+04   2.90241928E+03   0.00000000E+00   9.18065794E+03   1.36694462E+03   6.30988434E+03   7.19372665E+00   0.00000000E+00   0.00000000E+00   0.00000000E+00   0.00000000E+00   0.00000000E+00   6.69069444E-06   1.03842931E+03   5.22365960E-04  -1.09160032E-06   0.00000000E+00   0.00000000E+00   0.00000000E+00   1.51097526E+04
   1.38250000E+03   5.00000000E-01   5.00000000E-01  -4.34883588E+04   2.90240665E+03   0.00000000E+00   9.19331078E+03   1.38967682E+03   6.27772822E+03   7.19372660E+00   0.00000000E+00   0.00000000E+00   0.00000000E+00   0.00000000E+00   0.00000000E+00   6.69068698E-06   1.03812793E+03   9.60485633E-04  -1.09160032E-06   0.00000000E+00   0.00000000E+00   0.00000000E+00   1.53163045E+04
   1.41750000E+03   5.00000000E-01   5.00000000E-01  -4.34845794E+04   2.90240253E+03   0.00000000E+00   9.16644939E+03   1.41040297E+03   6.28917622E+03   7.19372655E+00   0.00000000E+00   0.00000000E+00   0.00000000E+00   0.00000000E+00   0.00000000E+00   6.69068186E-06   1.02373717E+03   1.85626945E-03  -1.09160032E-06   0.00000000E+00   0.00000000E+00   0.00000000E+00   1.51247934E+04
   1.45250000E+03   5.00000000E-01   5.00000000E-01  -4.34858748E+04   2.90240091E+03   0.00000000E+00   9.14163926E+03   1.42989844E+03   6.29692304E+03   7.19372651E+00   0.00000000E+00   0.00000000E+00   0.00000000E+00   0.00000000E+00   0.00000000E+00   6.69067727E-06   1.02017702E+03   3.78324112E-03  -1.09160032E-06   0.00000000E+00   0.00000000E+00   0.00000000E+00   1.51310664E+04
   1.48750000E+03   5.00000000E-01   5.00000000E-01  -4.34869117E+04   2.90239998E+03   0.00000000E+00   9.12269380E+03   1.44877640E+03   6.29928917E+03   7.19372649E+00   0.00000000E+00   0.00000000E+00   0.00000000E+00   0.00000000E+00   0.00000000E+00   6.69067327E-06   1.01662821E+03   8.15677861E-03  -1.09160032E-06   0.00000000E+00   0.00000000E+00   0.00000000E+00   1.51430485E+04
   1.52250000E+03   5.00000000E-01   5.00000000E-01  -4.34880857E+04   2.90239952E+03   0.00000000E+00   9.10723044E+03   1.46731280E+03   6.29886760E+03   7.19372648E+00   0.00000000E+00   0.00000000E+00   0.00000000E+00   0.00000000E+00   0.00000000E+00   6.69066990E-06   1.01252165E+03   1.86660389E-02  -1.09160032E-06   0.00000000E+00   0.00000000E+00   0.00000000E+00   1.51507196E+04
   1.55750000E+03   5.00000000E-01   5.00000000E-01  -4.34892853E+04   2.90239963E+03   0.00000000E+00   9.09319048E+03   1.48552492E+03   6.29750018E+03   7.19372649E+00   0.00000000E+00   0.00000000E+00   0.00000000E+00   0.00000000E+00   0.00000000E+00   6.69066709E-06   1.00816509E+03   4.55010011E-02  -1.09160032E-06   0.00000000E+00   0.00000000E+00   0.00000000E+00   1.51552712E+04
   1.59250000E+03   5.00000000E-01   5.00000000E-01  -4.34905470E+04   2.90240006E+03   0.00000000E+00   9.07916961E+03   1.50345605E+03   6.29651725E+03   7.19372652E+00   0.00000000E+00   0.00000000E+00   0.00000000E+00   0.00000000E+00   0.00000000E+00   6.69066477E-06   1.00371700E+03   1.18591777E-01  -1.09160032E-06   0.00000000E+00   0.00000000E+00   0.00000000E+00   1.51560095E+04
   1.62750000E+03   5.00000000E-01   5.00000000E-01  -4.34919013E+04   2.90240077E+03   0.00000000E+00   9.06398503E+03   1.52128998E+03   6.29703059E+03   7.19372655E+00   0.00000000E+00   0.00000000E+00   0.00000000E+00   0.00000000E+00   0.00000000E+00   6.69066282E-06   9.99170093E+02   3.31720142E-01  -1.09160032E-06   0.00000000E+00   0.00000000E+00   0.00000000E+00   1.51511756E+04
   1.66250000E+03   5.00000000E-01   5.00000000E-01  -4.34927545E+04   2.90240164E+03   0.00000000E+00   9.04775252E+03   1.53940055E+03   6.29811292E+03   7.19372660E+00   0.00000000E+00   0.00000000E+00   0.00000000E+00   0.00000000E+00   0.00000000E+00   6.69066114E-06   9.95434134E+02   9.98831965E-01  -1.09160032E-06   0.00000000E+00   0.00000000E+00   0.00000000E+00   1.51446619E+04
   1.69750000E+03   5.00000000E-01   5.00000000E-01  -4.34917854E+04   2.90240169E+03   0.00000000E+00   9.03189869E+03   1.55924928E+03   6.29660368E+03   7.19372665E+00   0.00000000E+00   0.00000000E+00   0.00000000E+00   0.00000000E+00   0.00000000E+00   6.69065962E-06   9.93971097E+02   3.23759126E+00  -1.09160032E-06   0.00000000E+00   0.00000000E+00   0.00000000E+00   1.51463844E+04
   1.73250000E+03   5.00000000E-01   5.00000000E-01  -4.34877353E+04   2.90240163E+03   0.00000000E+00   9.01724680E+03   1.58518664E+03   6.29244931E+03   7.19372670E+00   0.00000000E+00   0.00000000E+00   0.00000000E+00   0.00000000E+00   0.00000000E+00   6.69065823E-06   9.91541872E+02   1.11790459E+01  -1.09160032E-06   0.00000000E+00   0.00000000E+00   0.00000000E+00   1.51491139E+04
   1.76750000E+03   5.00000000E-01   5.00000000E-01  -4.34879762E+04   2.90239945E+03   0.00000000E+00   9.00463009E+03   1.63340544E+03   6.28729696E+03   7.19372675E+00   0.00000000E+00   0.00000000E+00   0.00000000E+00   0.00000000E+00   0.00000000E+00   6.69065712E-06   9.86817257E+02   3.91427827E+01  -1.09160032E-06   0.00000000E+00   0.00000000E+00   0.00000000E+00   1.51627266E+04
   1.80250000E+03   5.00000000E-01   5.00000000E-01  -4.34907248E+04   2.90239545E+03   0.00000000E+00   8.99412437E+03   1.73640589E+03   6.28095599E+03   7.19372679E+00   0.00000000E+00   0.00000000E+00   0.00000000E+00   0.00000000E+00   0.00000000E+00   6.69065622E-06   9.79240017E+02   1.20127638E+02  -1.09160032E-06   0.00000000E+00   0.00000000E+00   0.00000000E+00   1.51740353E+04
   1.83750000E+03   5.00000000E-01   5.00000000E-01  -4.34904229E+04   2.90239193E+03   0.00000000E+00   8.98467398E+03   1.90227223E+03   6.27376815E+03   7.19372683E+00   0.00000000E+00   0.00000000E+00   0.00000000E+00   0.00000000E+00   0.00000000E+00   6.69065543E-06   9.68451602E+02   2.64107218E+02  -1.09160032E-06   0.00000000E+00   0.00000000E+00   0.00000000E+00   1.51766198E+04
   1.87250000E+03   5.00000000E-01   5.00000000E-01  -4.34887391E+04   2.90238811E+03   0.00000000E+00   8.97706272E+03   2.06003592E+03   6.26702762E+03   7.19372686E+00   0.00000000E+00   0.00000000E+00   0.00000000E+00   0.00000000E+00   0.00000000E+00   6.69065474E-06   9.52597575E+02   4.00428273E+02  -1.09160032E-06   0.00000000E+00   0.00000000E+00   0.00000000E+00   1.51676128E+04
   1.90750000E+03   5.00000000E-01   5.00000000E-01  -4.34971816E+04   2.90237831E+03   0.00000000E+00   8.97267144E+03   2.15454245E+03   6.26154506E+03   7.19372688E+00   0.00000000E+00   0.00000000E+00   0.00000000E+00   0.00000000E+00   0.00000000E+00   6.69065424E-06   9.36069377E+02   4.72560899E+02  -1.09160032E-06   0.00000000E+00   0.00000000E+00   0.00000000E+00   1.51617869E+04
   1.94250000E+03   5.00000000E-01   5.00000000E-01  -4.35165095E+04   2.90236463E+03   0.00000000E+00   8.97108653E+03   2.19288456E+03   6.25995906E+03   7.19372690E+00   0.00000000E+00   0.00000000E+00   0.00000000E+00   0.00000000E+00   0.00000000E+00   6.69065399E-06   9.19600324E+02   4.89813113E+02  -1.09160032E-06   0.00000000E+00   0.00000000E+00   0.00000000E+00   1.51569701E+04
   1.97750000E+03   5.00000000E-01   5.00000000E-01  -4.35314424E+04   2.90235442E+03   0.00000000E+00   8.97052234E+03   2.19611939E+03   6.25989271E+03   7.19372692E+00   0.00000000E+00   0.00000000E+00   0.00000000E+00   0.00000000E+00   0.00000000E+00   6.69065383E-06   9.05911357E+02   4.78091140E+02  -1.09160032E-06   0.00000000E+00   0.00000000E+00   0.00000000E+00   1.51480836E+04
   2.01250000E+03   5.00000000E-01   5.00000000E-01  -4.35397340E+04   2.90234787E+03   0.00000000E+00   8.97007425E+03   2.18174503E+03   6.25995538E+03   7.19372693E+00   0.00000000E+00   0.00000000E+00   0.00000000E+00   0.00000000E+00   0.00000000E+00   6.69065372E-06   8.96537615E+02   4.54488849E+02  -1.09160032E-06   0.00000000E+00   0.00000000E+00   0.00000000E+00   1.51396372E+04
   2.04750000E+03   5.00000000E-01   5.00000000E-01  -4.35452999E+04   2.90234196E+03   0.00000000E+00   8.96964195E+03   2.16084573E+03   6.26004233E+03   7.19372694E+00   0.00000000E+00   0.00000000E+00   0.00000000E+00   0.00000000E+00   0.00000000E+00   6.69065362E-06   8.90312252E+02   4.27339707E+02  -1.09160032E-06   0.00000000E+00   0.00000000E+00   0.00000000E+00   1.51342380E+04
   2.08250000E+03   5.00000000E-01   5.00000000E-01  -4.35495458E+04   2.90233585E+03   0.00000000E+00   8.96920646E+03   2.13828546E+03   6.26014103E+03   7.19372695E+00   0.00000000E+00   0.00000000E+00   0.00000000E+00   0.00000000E+00   0.00000000E+00   6.69065355E-06   8.85974412E+02   4.00141645E+02  -1.09160032E-06   0.00000000E+00   0.00000000E+00   0.00000000E+00   1.51310619E+04
   2.11750000E+03   5.00000000E-01   5.00000000E-01  -4.35529890E+04   2.90232929E+03   0.00000000E+00   8.96875798E+03   2.11597217E+03   6.26025069E+03   7.19372695E+00   0.00000000E+00   0.00000000E+00   0.00000000E+00   0.00000000E+00   0.00000000E+00   6.69065348E-06   8.82777830E+02   3.74159799E+02  -1.09160032E-06   0.00000000E+00   0.00000000E+00   0.00000000E+00   1.51292380E+04
   2.15250000E+03   5.00000000E-01   5.00000000E-01  -4.35558797E+04   2.90232214E+03   0.00000000E+00   8.96828839E+03   2.09456889E+03   6.26037587E+03   7.19372696E+00   0.00000000E+00   0.00000000E+00   0.00000000E+00   0.00000000E+00   0.00000000E+00   6.69065341E-06   8.80300410E+02   3.49717311E+02  -1.09160032E-06   0.00000000E+00   0.00000000E+00   0.00000000E+00   1.51282191E+04
   2.18750000E+03   5.00000000E-01   5.00000000E-01  -4.35583630E+04   2.90231432E+03   0.00000000E+00   8.96779208E+03   2.07426515E+03   6.26052248E+03   7.19372696E+00   0.00000000E+00   0.00000000E+00   0.00000000E+00   0.00000000E+00   0.00000000E+00   6.69065336E-06   8.78289075E+02   3.26804831E+02  -1.09160032E-06   0.00000000E+00   0.00000000E+00   0.00000000E+00   1.51276667E+04
   2.22250000E+03   5.00000000E-01   5.00000000E-01  -4.35605338E+04   2.90230579E+03   0.00000000E+00   8.96727098E+03   2.05509994E+03   6.26068971E+03   7.19372696E+00   0.00000000E+00   0.00000000E+00   0.00000000E+00   0.00000000E+00   0.00000000E+00   6.69065330E-06   8.76585734E+02   3.05335854E+02  -1.09160032E-06   0.00000000E+00   0.00000000E+00   0.00000000E+00   1.51273732E+04
   2.25750000E+03   5.00000000E-01   5.00000000E-01  -4.35624429E+04   2.90229657E+03   0.00000000E+00   8.96673649E+03   2.03701095E+03   6.26086444E+03   7.19372696E+00   0.00000000E+00   0.00000000E+00   0.00000000E+00   0.00000000E+00   0.00000000E+00   6.69065326E-06   8.75098979E+02   2.85175349E+02  -1.09160032E-06   0.00000000E+00   0.00000000E+00   0.00000000E+00   1.51272197E+04
   2.29250000E+03   5.00000000E-01   5.00000000E-01  -4.35641014E+04   2.90228667E+03   0.00000000E+00   8.96620204E+03   2.01989048E+03   6.26102914E+03   7.19372695E+00   0.00000000E+00   0.00000000E+00   0.00000000E+00   0.00000000E+00   0.00000000E+00   6.69065321E-06   8.73783626E+02   2.66183373E+02  -1.09160032E-06   0.00000000E+00   0.00000000E+00   0.00000000E+00   1.51271383E+04
   2.32750000E+03   5.00000000E-01   5.00000000E-01  -4.35655152E+04   2.90227611E+03   0.00000000E+00   8.96567480E+03   2.00371736E+03   6.26117348E+03   7.19372694E+00   0.00000000E+00   0.00000000E+00   0.00000000E+00   0.00000000E+00   0.00000000E+00   6.69065317E-06   8.72615985E+02   2.48320798E+02  -1.09160032E-06   0.00000000E+00   0.00000000E+00   0.00000000E+00   1.51270953E+04
   2.36250000E+03   5.00000000E-01   5.00000000E-01  -4.35667014E+04   2.90226482E+03   0.00000000E+00   8.96515590E+03   1.98851845E+03   6.26129421E+03   7.19372692E+00   0.00000000E+00   0.00000000E+00   0.00000000E+00   0.00000000E+00   0.00000000E+00   6.69065313E-06   8.71578474E+02   2.31594918E+02  -1.09160032E-06   0.00000000E+00   0.00000000E+00   0.00000000E+00   1.51270795E+04
   2.39750000E+03   5.00000000E-01   5.00000000E-01  -4.35676812E+04   2.90225270E+03   0.00000000E+00   8.96464412E+03   1.97418973E+03   6.26138928E+03   7.19372689E+00   0.00000000E+00   0.00000000E+00   0.00000000E+00   0.00000000E+00   0.00000000E+00   6.69065309E-06   8.70654668E+02   2.15879477E+02  -1.09160032E-06   0.00000000E+00   0.00000000E+00   0.00000000E+00   1.51270888E+04
   2.43250000E+03   5.00000000E-01   5.00000000E-01  -4.35684749E+04   2.90223960E+03   0.00000000E+00   8.96413792E+03   1.96054498E+03   6.26145548E+03   7.19372686E+00   0.00000000E+00   0.00000000E+00   0.00000000E+00   0.00000000E+00   0.00000000E+00   6.69065305E-06   8.69827754E+02   2.00964837E+02  -1.09160032E-06   0.00000000E+00   0.00000000E+00   0.00000000E+00   1.51271219E+04
   2.46750000E+03   5.00000000E-01   5.00000000E-01  -4.35691025E+04   2.90222531E+03   0.00000000E+00   8.96363594E+03   1.94749851E+03   6.26148929E+03   7.19372682E+00   0.00000000E+00   0.00000000E+00   0.00000000E+00   0.00000000E+00   0.00000000E+00   6.69065301E-06   8.69080279E+02   1.86741201E+02  -1.09160032E-06   0.00000000E+00   0.00000000E+00   0.00000000E+00   1.51271770E+04
   2.50250000E+03   5.00000000E-01   5.00000000E-01  -4.35695876E+04   2.90220955E+03   0.00000000E+00   8.96313668E+03   1.93503507E+03   6.26148767E+03   7.19372676E+00   0.00000000E+00   0.00000000E+00   0.00000000E+00   0.00000000E+00   0.00000000E+00   6.69065298E-06   8.68394688E+02   1.73167894E+02  -1.09160032E-06   0.00000000E+00   0.00000000E+00   0.00000000E+00   1.51272551E+04
   2.53750000E+03   5.00000000E-01   5.00000000E-01  -4.35699577E+04   2.90219209E+03   0.00000000E+00   8.96263850E+03   1.92315740E+03   6.26144959E+03   7.19372667E+00   0.00000000E+00   0.00000000E+00   0.00000000E+00   0.00000000E+00   0.00000000E+00   6.69065294E-06   8.67754313E+02   1.60222510E+02  -1.09160032E-06   0.00000000E+00   0.00000000E+00   0.00000000E+00   1.51273606E+04
   2.57250000E+03   5.00000000E-01   5.00000000E-01  -4.35702305E+04   2.90217271E+03   0.00000000E+00   8.96214050E+03   1.91191854E+03   6.26138084E+03   7.19372657E+00   0.00000000E+00   0.00000000E+00   0.00000000E+00   0.00000000E+00   0.00000000E+00   6.69065291E-06   8.67145616E+02   1.47947080E+02  -1.09160032E-06   0.00000000E+00   0.00000000E+00   0.00000000E+00   1.51274784E+04
   2.60750000E+03   5.00000000E-01   5.00000000E-01  -4.35704052E+04   2.90215124E+03   0.00000000E+00   8.96164223E+03   1.90136705E+03   6.26129390E+03   7.19372642E+00   0.00000000E+00   0.00000000E+00   0.00000000E+00   0.00000000E+00   0.00000000E+00   6.69065288E-06   8.66559682E+02   1.36397853E+02  -1.09160032E-06   0.00000000E+00   0.00000000E+00   0.00000000E+00   1.51275681E+04