 TITLE = "Total Component Concentration in Minerals" 
VARIABLES = "X"          "Y"              "Z"            "H+"             "Al+++"          "CO2(aq)"        "Mg++"           "Ca++"           "Fe++"           "Fe+++"          "Ba++"           "Sr++"           "Cl-"            "F-"             "K+"             "Na+"            "SO4--"          "O2(aq)"         "B(OH)3(aq)"     "HPO4--"         "NO3-"           "H4SiO4(aq)"    
 ZONE I=         100 , J=           1 , K=           1  F=POINT
   1.75000000E+01   5.00000000E-01   5.00000000E-01  -5.33109477E+04   2.29399858E+03   0.00000000E+00   1.96923426E+04   6.09089348E+02   2.16999436E+03   7.19372709E+00   0.00000000E+00   0.00000000E+00   0.00000000E+00   0.00000000E+00   1.80726503E+01   1.44644562E+03   0.00000000E+00   0.00000000E+00   0.00000000E+00   0.00000000E+00   0.00000000E+00   1.92236442E+04
   5.25000000E+01   5.00000000E-01   5.00000000E-01  -5.31688807E+04   2.29394578E+03   0.00000000E+00   1.96076234E+04   6.09089366E+02   2.16999646E+03   7.19372700E+00   0.00000000E+00   0.00000000E+00   0.00000000E+00   0.00000000E+00   2.13846643E+01   1.47065897E+03   0.00000000E+00   0.00000000E+00   0.00000000E+00   0.00000000E+00   0.00000000E+00   1.92561342E+04
   8.75000000E+01   5.00000000E-01   5.00000000E-01  -5.31577768E+04   2.29394578E+03   0.00000000E+00   1.95966760E+04   6.09089380E+02   2.16999940E+03   7.19372700E+00   0.00000000E+00   0.00000000E+00   0.00000000E+00   0.00000000E+00   2.04143880E+01   1.48241432E+03   0.00000000E+00   0.00000000E+00   0.00000000E+00   0.00000000E+00   0.00000000E+00   1.92904532E+04
   1.22500000E+02   5.00000000E-01   5.00000000E-01  -5.31550347E+04   2.29394578E+03   0.00000000E+00   1.95925873E+04   6.09089394E+02   2.17000303E+03   7.19372700E+00   0.00000000E+00   0.00000000E+00   0.00000000E+00   0.00000000E+00   1.94875529E+01   1.48876917E+03   0.00000000E+00   0.00000000E+00   0.00000000E+00   0.00000000E+00   0.00000000E+00   1.93080001E+04
   1.57500000E+02   5.00000000E-01   5.00000000E-01  -5.31552433E+04   2.29394577E+03   0.00000000E+00   1.95912470E+04   6.09089409E+02   2.17000723E+03   7.19372701E+00   0.00000000E+00   0.00000000E+00   0.00000000E+00   0.00000000E+00   1.88775354E+01   1.49226000E+03   0.00000000E+00   0.00000000E+00   0.00000000E+00   0.00000000E+00   0.00000000E+00   1.93179974E+04
   1.92500000E+02   5.00000000E-01   5.00000000E-01  -5.31568976E+04   2.29394577E+03   0.00000000E+00   1.95913297E+04   6.09089426E+02   2.17001188E+03   7.19372702E+00   0.00000000E+00   0.00000000E+00   0.00000000E+00   0.00000000E+00   1.85259825E+01   1.49409099E+03   0.00000000E+00   0.00000000E+00   0.00000000E+00   0.00000000E+00   0.00000000E+00   1.93240397E+04
   2.27500000E+02   5.00000000E-01   5.00000000E-01  -5.31594093E+04   2.29394577E+03   0.00000000E+00   1.95922616E+04   6.09089444E+02   2.17001688E+03   7.19372703E+00   0.00000000E+00   0.00000000E+00   0.00000000E+00   0.00000000E+00   1.83568410E+01   1.49489823E+03   0.00000000E+00   0.00000000E+00   0.00000000E+00   0.00000000E+00   0.00000000E+00   1.93278043E+04
   2.62500000E+02   5.00000000E-01   5.00000000E-01  -5.31625052E+04   2.29394577E+03   0.00000000E+00   1.95937535E+04   6.09089463E+02   2.17002210E+03   7.19372704E+00   0.00000000E+00   0.00000000E+00   0.00000000E+00   0.00000000E+00   1.83129880E+01   1.49504355E+03   0.00000000E+00   0.00000000E+00   0.00000000E+00   0.00000000E+00   0.00000000E+00   1.93301757E+04
   2.97500000E+02   5.00000000E-01   5.00000000E-01  -5.31660441E+04   2.29394577E+03   0.00000000E+00   1.95956463E+04   6.09089485E+02   2.17002744E+03   7.19372706E+00   0.00000000E+00   0.00000000E+00   0.00000000E+00   0.00000000E+00   1.83551825E+01   1.49474395E+03   0.00000000E+00   0.00000000E+00   0.00000000E+00   0.00000000E+00   0.00000000E+00   1.93316605E+04
   3.32500000E+02   5.00000000E-01   5.00000000E-01  -5.31701223E+04   2.29394576E+03   0.00000000E+00   1.95979456E+04   1.20237149E+03   2.17003294E+03   7.19372705E+00   0.00000000E+00   0.00000000E+00   0.00000000E+00   0.00000000E+00   1.84591115E+01   1.49410857E+03   5.93281983E+02   0.00000000E+00   0.00000000E+00   0.00000000E+00   0.00000000E+00   1.93325899E+04
   3.67500000E+02   5.00000000E-01   5.00000000E-01  -5.31754929E+04   2.29394576E+03   0.00000000E+00   1.96010519E+04   4.90131790E+03   2.17003933E+03   7.19372697E+00   0.00000000E+00   0.00000000E+00   0.00000000E+00   0.00000000E+00   1.86185805E+01   1.49309444E+03   4.29222838E+03   0.00000000E+00   0.00000000E+00   0.00000000E+00   0.00000000E+00   1.93332433E+04
   4.02500000E+02   5.00000000E-01   5.00000000E-01  -5.31807170E+04   2.29394576E+03   0.00000000E+00   1.96041552E+04   6.29028497E+03   2.17004624E+03   7.19372696E+00   0.00000000E+00   0.00000000E+00   0.00000000E+00   0.00000000E+00   1.88146154E+01   1.49190206E+03   5.68119544E+03   0.00000000E+00   0.00000000E+00   0.00000000E+00   0.00000000E+00   1.93333390E+04
   4.37500000E+02   5.00000000E-01   5.00000000E-01  -5.31859660E+04   2.29394576E+03   0.00000000E+00   1.96073114E+04   6.54819497E+03   2.17005345E+03   7.19372694E+00   0.00000000E+00   0.00000000E+00   0.00000000E+00   0.00000000E+00   1.90278558E+01   1.49061099E+03   5.93910544E+03   0.00000000E+00   0.00000000E+00   0.00000000E+00   0.00000000E+00   1.93331745E+04
   4.72500000E+02   5.00000000E-01   5.00000000E-01  -5.31913982E+04   2.29394575E+03   0.00000000E+00   1.96105903E+04   6.58374450E+03   2.17006090E+03   7.19372693E+00   0.00000000E+00   0.00000000E+00   0.00000000E+00   0.00000000E+00   1.92495088E+01   1.48924876E+03   5.97465496E+03   0.00000000E+00   0.00000000E+00   0.00000000E+00   0.00000000E+00   1.93329034E+04
   5.07500000E+02   5.00000000E-01   5.00000000E-01  -5.31970243E+04   2.29394575E+03   0.00000000E+00   1.96139910E+04   6.57514686E+03   2.17006854E+03   7.19372691E+00   0.00000000E+00   0.00000000E+00   0.00000000E+00   0.00000000E+00   1.94751502E+01   1.48783243E+03   5.96605732E+03   0.00000000E+00   0.00000000E+00   0.00000000E+00   0.00000000E+00   1.93325695E+04
   5.42500000E+02   5.00000000E-01   5.00000000E-01  -5.32028206E+04   2.29394574E+03   0.00000000E+00   1.96174967E+04   6.55579075E+03   2.17007635E+03   7.19372690E+00   0.00000000E+00   0.00000000E+00   0.00000000E+00   0.00000000E+00   1.97017651E+01   1.48637521E+03   5.94670120E+03   0.00000000E+00   0.00000000E+00   0.00000000E+00   0.00000000E+00   1.93321885E+04
   5.77500000E+02   5.00000000E-01   5.00000000E-01  -5.32087531E+04   2.29394574E+03   0.00000000E+00   1.96210858E+04   6.53245247E+03   2.17008429E+03   7.19372689E+00   0.00000000E+00   0.00000000E+00   0.00000000E+00   0.00000000E+00   1.99269979E+01   1.48488832E+03   5.92336292E+03   0.00000000E+00   0.00000000E+00   0.00000000E+00   0.00000000E+00   1.93317658E+04
   6.12500000E+02   5.00000000E-01   5.00000000E-01  -5.32147815E+04   2.29394573E+03   0.00000000E+00   1.96247342E+04   6.50668213E+03   2.17009233E+03   7.19372688E+00   0.00000000E+00   0.00000000E+00   0.00000000E+00   0.00000000E+00   2.01489209E+01   1.48338190E+03   5.89759257E+03   0.00000000E+00   0.00000000E+00   0.00000000E+00   0.00000000E+00   1.93313014E+04
   6.47500000E+02   5.00000000E-01   5.00000000E-01  -5.32208601E+04   2.29394573E+03   0.00000000E+00   1.96284151E+04   6.47901274E+03   2.17010046E+03   7.19372687E+00   0.00000000E+00   0.00000000E+00   0.00000000E+00   0.00000000E+00   2.03659401E+01   1.48186546E+03   5.86992318E+03   0.00000000E+00   0.00000000E+00   0.00000000E+00   0.00000000E+00   1.93307918E+04
   6.82500000E+02   5.00000000E-01   5.00000000E-01  -5.32269383E+04   2.29394572E+03   0.00000000E+00   1.96320993E+04   6.44976932E+03   2.17010864E+03   7.19372686E+00   0.00000000E+00   0.00000000E+00   0.00000000E+00   0.00000000E+00   2.05767036E+01   1.48034832E+03   5.84067975E+03   0.00000000E+00   0.00000000E+00   0.00000000E+00   0.00000000E+00   1.93302312E+04
   7.17500000E+02   5.00000000E-01   5.00000000E-01  -5.32329609E+04   2.29394571E+03   0.00000000E+00   1.96357549E+04   6.41922097E+03   2.17011684E+03   7.19372684E+00   0.00000000E+00   0.00000000E+00   0.00000000E+00   0.00000000E+00   2.07800364E+01   1.47883984E+03   5.81013140E+03   0.00000000E+00   0.00000000E+00   0.00000000E+00   0.00000000E+00   1.93296122E+04
   7.52500000E+02   5.00000000E-01   5.00000000E-01  -5.32388737E+04   2.29394570E+03   0.00000000E+00   1.96393645E+04   6.38760906E+03   2.17012504E+03   7.19372682E+00   0.00000000E+00   0.00000000E+00   0.00000000E+00   0.00000000E+00   2.09613018E+01   1.47733580E+03   5.77851949E+03   0.00000000E+00   0.00000000E+00   0.00000000E+00   0.00000000E+00   1.93288851E+04
   7.87500000E+02   5.00000000E-01   5.00000000E-01  -5.32446216E+04   2.29394569E+03   0.00000000E+00   1.96429006E+04   6.35515310E+03   2.17013320E+03   7.19372681E+00   0.00000000E+00   0.00000000E+00   0.00000000E+00   0.00000000E+00   2.11152753E+01   1.47584131E+03   5.74606353E+03   0.00000000E+00   0.00000000E+00   0.00000000E+00   0.00000000E+00   1.93280357E+04
   8.22500000E+02   5.00000000E-01   5.00000000E-01  -5.32501330E+04   2.29394568E+03   0.00000000E+00   1.96462953E+04   6.32205257E+03   2.17014127E+03   7.19372679E+00   0.00000000E+00   0.00000000E+00   0.00000000E+00   0.00000000E+00   2.12682697E+01   1.47439411E+03   5.71296299E+03   0.00000000E+00   0.00000000E+00   0.00000000E+00   0.00000000E+00   1.93271445E+04
   8.57500000E+02   5.00000000E-01   5.00000000E-01  -5.32553222E+04   2.29394567E+03   0.00000000E+00   1.96495135E+04   6.28848718E+03   2.17014923E+03   7.19372677E+00   0.00000000E+00   0.00000000E+00   0.00000000E+00   0.00000000E+00   2.14102244E+01   1.47298919E+03   5.67939760E+03   0.00000000E+00   0.00000000E+00   0.00000000E+00   0.00000000E+00   1.93261490E+04
   8.92500000E+02   5.00000000E-01   5.00000000E-01  -5.32601310E+04   2.29394566E+03   0.00000000E+00   1.96525223E+04   6.25461891E+03   2.17015704E+03   7.19372677E+00   0.00000000E+00   0.00000000E+00   0.00000000E+00   0.00000000E+00   2.15413593E+01   1.47163370E+03   5.64552932E+03   0.00000000E+00   0.00000000E+00   0.00000000E+00   0.00000000E+00   1.93250428E+04
   9.27500000E+02   5.00000000E-01   5.00000000E-01  -5.32644930E+04   2.29394565E+03   0.00000000E+00   1.96552848E+04   6.22059267E+03   2.17016466E+03   7.19372677E+00   0.00000000E+00   0.00000000E+00   0.00000000E+00   0.00000000E+00   2.16622583E+01   1.47033448E+03   5.61150308E+03   0.00000000E+00   0.00000000E+00   0.00000000E+00   0.00000000E+00   1.93238157E+04
   9.62500000E+02   5.00000000E-01   5.00000000E-01  -5.32683440E+04   2.29394563E+03   0.00000000E+00   1.96577656E+04   6.18653753E+03   2.17017203E+03   7.19372676E+00   0.00000000E+00   0.00000000E+00   0.00000000E+00   0.00000000E+00   2.17737340E+01   1.46909784E+03   5.57744795E+03   0.00000000E+00   0.00000000E+00   0.00000000E+00   0.00000000E+00   1.93224584E+04
   9.97500000E+02   5.00000000E-01   5.00000000E-01  -5.32716241E+04   2.29394561E+03   0.00000000E+00   1.96599312E+04   6.15256782E+03   2.17017912E+03   7.19372676E+00   0.00000000E+00   0.00000000E+00   0.00000000E+00   0.00000000E+00   2.18767889E+01   1.46792943E+03   5.54347823E+03   0.00000000E+00   0.00000000E+00   0.00000000E+00   0.00000000E+00   1.93209632E+04
   1.03250000E+03   5.00000000E-01   5.00000000E-01  -5.32742792E+04   2.29394560E+03   0.00000000E+00   1.96617518E+04   6.11878426E+03   2.17018589E+03   7.19372676E+00   0.00000000E+00   0.00000000E+00   0.00000000E+00   0.00000000E+00   2.19725663E+01   1.46683413E+03   5.50969467E+03   0.00000000E+00   0.00000000E+00   0.00000000E+00   0.00000000E+00   1.93193240E+04
   1.06750000E+03   5.00000000E-01   5.00000000E-01  -5.32762628E+04   2.29394558E+03   0.00000000E+00   1.96632014E+04   6.08527504E+03   2.17019228E+03   7.19372676E+00   0.00000000E+00   0.00000000E+00   0.00000000E+00   0.00000000E+00   2.20622913E+01   1.46581599E+03   5.47618545E+03   0.00000000E+00   0.00000000E+00   0.00000000E+00   0.00000000E+00   1.93175370E+04
   1.10250000E+03   5.00000000E-01   5.00000000E-01  -5.32775374E+04   2.29394556E+03   0.00000000E+00   1.96642593E+04   6.05211691E+03   2.17019825E+03   7.19372675E+00   0.00000000E+00   0.00000000E+00   0.00000000E+00   0.00000000E+00   2.21472074E+01   1.46487808E+03   5.44302732E+03   0.00000000E+00   0.00000000E+00   0.00000000E+00   0.00000000E+00   1.93156005E+04
   1.13750000E+03   5.00000000E-01   5.00000000E-01  -5.32780764E+04   2.29394553E+03   0.00000000E+00   1.96649104E+04   6.01937613E+03   2.17020376E+03   7.19372673E+00   0.00000000E+00   0.00000000E+00   0.00000000E+00   0.00000000E+00   2.22285095E+01   1.46402250E+03   5.41028654E+03   0.00000000E+00   0.00000000E+00   0.00000000E+00   0.00000000E+00   1.93135153E+04
   1.17250000E+03   5.00000000E-01   5.00000000E-01  -5.32778648E+04   2.29394551E+03   0.00000000E+00   1.96651464E+04   5.98710946E+03   2.17020877E+03   7.19372672E+00   0.00000000E+00   0.00000000E+00   0.00000000E+00   0.00000000E+00   2.23072805E+01   1.46325032E+03   5.37801987E+03   0.00000000E+00   0.00000000E+00   0.00000000E+00   0.00000000E+00   1.93112851E+04
   1.20750000E+03   5.00000000E-01   5.00000000E-01  -5.32769007E+04   2.29394548E+03   0.00000000E+00   1.96649657E+04   5.95536504E+03   2.17021324E+03   7.19372671E+00   0.00000000E+00   0.00000000E+00   0.00000000E+00   0.00000000E+00   2.23844340E+01   1.46256152E+03   5.34627545E+03   0.00000000E+00   0.00000000E+00   0.00000000E+00   0.00000000E+00   1.93089160E+04
   1.24250000E+03   5.00000000E-01   5.00000000E-01  -5.32751955E+04   2.29394545E+03   0.00000000E+00   1.96643744E+04   5.92418320E+03   2.17021715E+03   7.19372669E+00   0.00000000E+00   0.00000000E+00   0.00000000E+00   0.00000000E+00   2.24606686E+01   1.46195505E+03   5.31509361E+03   0.00000000E+00   0.00000000E+00   0.00000000E+00   0.00000000E+00   1.93064171E+04
   1.27750000E+03   5.00000000E-01   5.00000000E-01  -5.32727740E+04   2.29394542E+03   0.00000000E+00   1.96633856E+04   5.89359728E+03   2.17022048E+03   7.19372667E+00   0.00000000E+00   0.00000000E+00   0.00000000E+00   0.00000000E+00   2.25364347E+01   1.46142880E+03   5.28450769E+03   0.00000000E+00   0.00000000E+00   0.00000000E+00   0.00000000E+00   1.93038003E+04
   1.31250000E+03   5.00000000E-01   5.00000000E-01  -5.32696741E+04   2.29394539E+03   0.00000000E+00   1.96620198E+04   5.86363431E+03   2.17022319E+03   7.19372665E+00   0.00000000E+00   0.00000000E+00   0.00000000E+00   0.00000000E+00   2.26119190E+01   1.46097968E+03   5.25454471E+03   0.00000000E+00   0.00000000E+00   0.00000000E+00   0.00000000E+00   1.93010796E+04
   1.34750000E+03   5.00000000E-01   5.00000000E-01  -5.32659460E+04   2.29394535E+03   0.00000000E+00   1.96603041E+04   5.83431566E+03   2.17022529E+03   7.19372661E+00   0.00000000E+00   0.00000000E+00   0.00000000E+00   0.00000000E+00   2.26870456E+01   1.46060370E+03   5.22522606E+03   0.00000000E+00   0.00000000E+00   0.00000000E+00   0.00000000E+00   1.92982716E+04
   1.38250000E+03   5.00000000E-01   5.00000000E-01  -5.32616506E+04   2.29394531E+03   0.00000000E+00   1.96582716E+04   5.80565767E+03   2.17022676E+03   7.19372656E+00   0.00000000E+00   0.00000000E+00   0.00000000E+00   0.00000000E+00   2.27614927E+01   1.46029603E+03   5.19656808E+03   0.00000000E+00   0.00000000E+00   0.00000000E+00   0.00000000E+00   1.92953946E+04
   1.41750000E+03   5.00000000E-01   5.00000000E-01  -5.32568575E+04   2.29394527E+03   0.00000000E+00   1.96559601E+04   5.77767222E+03   2.17022762E+03   7.19372650E+00   0.00000000E+00   0.00000000E+00   0.00000000E+00   0.00000000E+00   2.28347234E+01   1.46005116E+03   5.16858263E+03   0.00000000E+00   0.00000000E+00   0.00000000E+00   0.00000000E+00   1.92924680E+04
   1.45250000E+03   5.00000000E-01   5.00000000E-01  -5.32516434E+04   2.29394523E+03   0.00000000E+00   1.96534113E+04   5.75036716E+03   2.17022786E+03   7.19372643E+00   0.00000000E+00   0.00000000E+00   0.00000000E+00   0.00000000E+00   2.29060273E+01   1.45986299E+03   5.14127757E+03   0.00000000E+00   0.00000000E+00   0.00000000E+00   0.00000000E+00   1.92895122E+04
   1.48750000E+03   5.00000000E-01   5.00000000E-01  -5.32460889E+04   2.29394518E+03   0.00000000E+00   1.96506692E+04   5.72374687E+03   2.17022751E+03   7.19372633E+00   0.00000000E+00   0.00000000E+00   0.00000000E+00   0.00000000E+00   2.29745687E+01   1.45972501E+03   5.11465728E+03   0.00000000E+00   0.00000000E+00   0.00000000E+00   0.00000000E+00   1.92865477E+04
   1.52250000E+03   5.00000000E-01   5.00000000E-01  -5.32402767E+04   2.29394512E+03   0.00000000E+00   1.96477790E+04   5.69781260E+03   2.17022658E+03   7.19372621E+00   0.00000000E+00   0.00000000E+00   0.00000000E+00   0.00000000E+00   2.30394385E+01   1.45963046E+03   5.08872301E+03   0.00000000E+00   0.00000000E+00   0.00000000E+00   0.00000000E+00   1.92835946E+04
   1.55750000E+03   5.00000000E-01   5.00000000E-01  -5.32342889E+04   2.29394507E+03   0.00000000E+00   1.96447855E+04   5.67256290E+03   2.17022510E+03   7.19372605E+00   0.00000000E+00   0.00000000E+00   0.00000000E+00   0.00000000E+00   2.30997032E+01   1.45957241E+03   5.06347332E+03   0.00000000E+00   0.00000000E+00   0.00000000E+00   0.00000000E+00   1.92806719E+04
   1.59250000E+03   5.00000000E-01   5.00000000E-01  -5.32282049E+04   2.29394501E+03   0.00000000E+00   1.96417324E+04   5.64799398E+03   2.17022309E+03   7.19372584E+00   0.00000000E+00   0.00000000E+00   0.00000000E+00   0.00000000E+00   2.31544499E+01   1.45954401E+03   5.03890440E+03   0.00000000E+00   0.00000000E+00   0.00000000E+00   0.00000000E+00   1.92777972E+04
   1.62750000E+03   5.00000000E-01   5.00000000E-01  -5.32220992E+04   2.29394494E+03   0.00000000E+00   1.96386607E+04   5.62410001E+03   2.17022059E+03   7.19372557E+00   0.00000000E+00   0.00000000E+00   0.00000000E+00   0.00000000E+00   2.32028238E+01   1.45953855E+03   5.01501043E+03   0.00000000E+00   0.00000000E+00   0.00000000E+00   0.00000000E+00   1.92749862E+04
   1.66250000E+03   5.00000000E-01   5.00000000E-01  -5.32160404E+04   2.29394487E+03   0.00000000E+00   1.96356083E+04   5.60087343E+03   2.17021763E+03   7.19372522E+00   0.00000000E+00   0.00000000E+00   0.00000000E+00   0.00000000E+00   2.32440553E+01   1.45954961E+03   4.99178385E+03   0.00000000E+00   0.00000000E+00   0.00000000E+00   0.00000000E+00   1.92722523E+04
   1.69750000E+03   5.00000000E-01   5.00000000E-01  -5.32100897E+04   2.29394479E+03   0.00000000E+00   1.96326090E+04   5.57830522E+03   2.17021424E+03   7.19372477E+00   0.00000000E+00   0.00000000E+00   0.00000000E+00   0.00000000E+00   2.32774794E+01   1.45957113E+03   4.96921564E+03   0.00000000E+00   0.00000000E+00   0.00000000E+00   0.00000000E+00   1.92696068E+04
   1.73250000E+03   5.00000000E-01   5.00000000E-01  -5.32043006E+04   2.29394471E+03   0.00000000E+00   1.96296926E+04   5.55638514E+03   2.17021046E+03   7.19372420E+00   0.00000000E+00   0.00000000E+00   0.00000000E+00   0.00000000E+00   2.33025442E+01   1.45959755E+03   4.94729556E+03   0.00000000E+00   0.00000000E+00   0.00000000E+00   0.00000000E+00   1.92670585E+04
   1.76750000E+03   5.00000000E-01   5.00000000E-01  -5.31987183E+04   2.29394462E+03   0.00000000E+00   1.96268845E+04   5.53510196E+03   2.17020633E+03   7.19372346E+00   0.00000000E+00   0.00000000E+00   0.00000000E+00   0.00000000E+00   2.33188122E+01   1.45962378E+03   4.92601239E+03   0.00000000E+00   0.00000000E+00   0.00000000E+00   0.00000000E+00   1.92646139E+04
   1.80250000E+03   5.00000000E-01   5.00000000E-01  -5.31933801E+04   2.29394452E+03   0.00000000E+00   1.96242056E+04   5.51444369E+03   2.17020187E+03   7.19372253E+00   0.00000000E+00   0.00000000E+00   0.00000000E+00   0.00000000E+00   2.33259553E+01   1.45964531E+03   4.90535412E+03   0.00000000E+00   0.00000000E+00   0.00000000E+00   0.00000000E+00   1.92622773E+04
   1.83750000E+03   5.00000000E-01   5.00000000E-01  -5.31883155E+04   2.29394441E+03   0.00000000E+00   1.96216729E+04   5.49439768E+03   2.17019713E+03   7.19372136E+00   0.00000000E+00   0.00000000E+00   0.00000000E+00   0.00000000E+00   2.33237443E+01   1.45965816E+03   4.88530812E+03   0.00000000E+00   0.00000000E+00   0.00000000E+00   0.00000000E+00   1.92600512E+04
   1.87250000E+03   5.00000000E-01   5.00000000E-01  -5.31835473E+04   2.29394430E+03   0.00000000E+00   1.96192995E+04   5.47495088E+03   2.17019213E+03   7.19371991E+00   0.00000000E+00   0.00000000E+00   0.00000000E+00   0.00000000E+00   2.33120363E+01   1.45965894E+03   4.86586133E+03   0.00000000E+00   0.00000000E+00   0.00000000E+00   0.00000000E+00   1.92579364E+04
   1.90750000E+03   5.00000000E-01   5.00000000E-01  -5.31790918E+04   2.29394417E+03   0.00000000E+00   1.96170949E+04   5.45608991E+03   2.17018691E+03   7.19371812E+00   0.00000000E+00   0.00000000E+00   0.00000000E+00   0.00000000E+00   2.32907601E+01   1.45964476E+03   4.84700036E+03   0.00000000E+00   0.00000000E+00   0.00000000E+00   0.00000000E+00   1.92559323E+04
   1.94250000E+03   5.00000000E-01   5.00000000E-01  -5.31749601E+04   2.29394404E+03   0.00000000E+00   1.96150658E+04   5.43780120E+03   2.17018150E+03   7.19371592E+00   0.00000000E+00   0.00000000E+00   0.00000000E+00   0.00000000E+00   2.32599015E+01   1.45961327E+03   4.82871165E+03   0.00000000E+00   0.00000000E+00   0.00000000E+00   0.00000000E+00   1.92540371E+04
   1.97750000E+03   5.00000000E-01   5.00000000E-01  -5.31711585E+04   2.29394390E+03   0.00000000E+00   1.96132163E+04   5.42007110E+03   2.17017593E+03   7.19371327E+00   0.00000000E+00   0.00000000E+00   0.00000000E+00   0.00000000E+00   2.32194898E+01   1.45956257E+03   4.81098156E+03   0.00000000E+00   0.00000000E+00   0.00000000E+00   0.00000000E+00   1.92522485E+04
   2.01250000E+03   5.00000000E-01   5.00000000E-01  -5.31676898E+04   2.29394374E+03   0.00000000E+00   1.96115486E+04   5.40288598E+03   2.17017023E+03   7.19371008E+00   0.00000000E+00   0.00000000E+00   0.00000000E+00   0.00000000E+00   2.31695849E+01   1.45949121E+03   4.79379646E+03   0.00000000E+00   0.00000000E+00   0.00000000E+00   0.00000000E+00   1.92505635E+04
   2.04750000E+03   5.00000000E-01   5.00000000E-01  -5.31645538E+04   2.29394357E+03   0.00000000E+00   1.96100629E+04   5.38623230E+03   2.17016443E+03   7.19370627E+00   0.00000000E+00   0.00000000E+00   0.00000000E+00   0.00000000E+00   2.31102675E+01   1.45939811E+03   4.77714278E+03   0.00000000E+00   0.00000000E+00   0.00000000E+00   0.00000000E+00   1.92489789E+04
   2.08250000E+03   5.00000000E-01   5.00000000E-01  -5.31617483E+04   2.29394339E+03   0.00000000E+00   1.96087584E+04   5.37009664E+03   2.17015855E+03   7.19370176E+00   0.00000000E+00   0.00000000E+00   0.00000000E+00   0.00000000E+00   2.30416299E+01   1.45928250E+03   4.76100714E+03   0.00000000E+00   0.00000000E+00   0.00000000E+00   0.00000000E+00   1.92474915E+04
   2.11750000E+03   5.00000000E-01   5.00000000E-01  -5.31592694E+04   2.29394319E+03   0.00000000E+00   1.96076334E+04   5.35446579E+03   2.17015263E+03   7.19369645E+00   0.00000000E+00   0.00000000E+00   0.00000000E+00   0.00000000E+00   2.29637693E+01   1.45914394E+03   4.74537630E+03   0.00000000E+00   0.00000000E+00   0.00000000E+00   0.00000000E+00   1.92460981E+04
   2.15250000E+03   5.00000000E-01   5.00000000E-01  -5.31571129E+04   2.29394298E+03   0.00000000E+00   1.96066857E+04   5.33932676E+03   2.17014668E+03   7.19369024E+00   0.00000000E+00   0.00000000E+00   0.00000000E+00   0.00000000E+00   2.28768804E+01   1.45898221E+03   4.73023728E+03   0.00000000E+00   0.00000000E+00   0.00000000E+00   0.00000000E+00   1.92447972E+04
   2.18750000E+03   5.00000000E-01   5.00000000E-01  -5.31552728E+04   2.29394275E+03   0.00000000E+00   1.96059124E+04   5.32466684E+03   2.17014072E+03   7.19368304E+00   0.00000000E+00   0.00000000E+00   0.00000000E+00   0.00000000E+00   2.27810321E+01   1.45879727E+03   4.71557738E+03   0.00000000E+00   0.00000000E+00   0.00000000E+00   0.00000000E+00   1.92435857E+04
   2.22250000E+03   5.00000000E-01   5.00000000E-01  -5.31537439E+04   2.29394251E+03   0.00000000E+00   1.96053107E+04   5.31047359E+03   2.17013479E+03   7.19367475E+00   0.00000000E+00   0.00000000E+00   0.00000000E+00   0.00000000E+00   2.26762460E+01   1.45858927E+03   4.70138416E+03   0.00000000E+00   0.00000000E+00   0.00000000E+00   0.00000000E+00   1.92424609E+04
   2.25750000E+03   5.00000000E-01   5.00000000E-01  -5.31525217E+04   2.29394225E+03   0.00000000E+00   1.96048781E+04   5.29673487E+03   2.17012890E+03   7.19366528E+00   0.00000000E+00   0.00000000E+00   0.00000000E+00   0.00000000E+00   2.25625890E+01   1.45835848E+03   4.68764546E+03   0.00000000E+00   0.00000000E+00   0.00000000E+00   0.00000000E+00   1.92414214E+04
   2.29250000E+03   5.00000000E-01   5.00000000E-01  -5.31516018E+04   2.29394196E+03   0.00000000E+00   1.96046123E+04   5.28343883E+03   2.17012306E+03   7.19365456E+00   0.00000000E+00   0.00000000E+00   0.00000000E+00   0.00000000E+00   2.24401239E+01   1.45810528E+03   4.67434944E+03   0.00000000E+00   0.00000000E+00   0.00000000E+00   0.00000000E+00   1.92404663E+04
   2.32750000E+03   5.00000000E-01   5.00000000E-01  -5.31509808E+04   2.29394166E+03   0.00000000E+00   1.96045113E+04   5.27057391E+03   2.17011730E+03   7.19364255E+00   0.00000000E+00   0.00000000E+00   0.00000000E+00   0.00000000E+00   2.23089167E+01   1.45783013E+03   4.66148455E+03   0.00000000E+00   0.00000000E+00   0.00000000E+00   0.00000000E+00   1.92395954E+04
   2.36250000E+03   5.00000000E-01   5.00000000E-01  -5.31506564E+04   2.29394134E+03   0.00000000E+00   1.96045735E+04   5.25812887E+03   2.17011163E+03   7.19362923E+00   0.00000000E+00   0.00000000E+00   0.00000000E+00   0.00000000E+00   2.21690407E+01   1.45753350E+03   4.64903953E+03   0.00000000E+00   0.00000000E+00   0.00000000E+00   0.00000000E+00   1.92388094E+04
   2.39750000E+03   5.00000000E-01   5.00000000E-01  -5.31506271E+04   2.29394099E+03   0.00000000E+00   1.96047980E+04   5.24609273E+03   2.17010607E+03   7.19361468E+00   0.00000000E+00   0.00000000E+00   0.00000000E+00   0.00000000E+00   2.20205611E+01   1.45721593E+03   4.63700343E+03   0.00000000E+00   0.00000000E+00   0.00000000E+00   0.00000000E+00   1.92381095E+04
   2.43250000E+03   5.00000000E-01   5.00000000E-01  -5.31508927E+04   2.29394062E+03   0.00000000E+00   1.96051844E+04   5.23445482E+03   2.17010062E+03   7.19359902E+00   0.00000000E+00   0.00000000E+00   0.00000000E+00   0.00000000E+00   2.18635153E+01   1.45687793E+03   4.62536555E+03   0.00000000E+00   0.00000000E+00   0.00000000E+00   0.00000000E+00   1.92374972E+04
   2.46750000E+03   5.00000000E-01   5.00000000E-01  -5.31514543E+04   2.29394022E+03   0.00000000E+00   1.96057329E+04   5.22320471E+03   2.17009531E+03   7.19358249E+00   0.00000000E+00   0.00000000E+00   0.00000000E+00   0.00000000E+00   2.16979503E+01   1.45652003E+03   4.61411548E+03   0.00000000E+00   0.00000000E+00   0.00000000E+00   0.00000000E+00   1.92369751E+04
   2.50250000E+03   5.00000000E-01   5.00000000E-01  -5.31523142E+04   2.29393980E+03   0.00000000E+00   1.96064444E+04   5.21233224E+03   2.17009014E+03   7.19356537E+00   0.00000000E+00   0.00000000E+00   0.00000000E+00   0.00000000E+00   2.15239144E+01   1.45614272E+03   4.60324304E+03   0.00000000E+00   0.00000000E+00   0.00000000E+00   0.00000000E+00   1.92365462E+04
   2.53750000E+03   5.00000000E-01   5.00000000E-01  -5.31534762E+04   2.29393934E+03   0.00000000E+00   1.96073205E+04   5.20182745E+03   2.17008512E+03   7.19354807E+00   0.00000000E+00   0.00000000E+00   0.00000000E+00   0.00000000E+00   2.13414551E+01   1.45574648E+03   4.59273829E+03   0.00000000E+00   0.00000000E+00   0.00000000E+00   0.00000000E+00   1.92362142E+04
   2.57250000E+03   5.00000000E-01   5.00000000E-01  -5.31549448E+04   2.29393886E+03   0.00000000E+00   1.96083633E+04   5.19168065E+03   2.17008025E+03   7.19353109E+00   0.00000000E+00   0.00000000E+00   0.00000000E+00   0.00000000E+00   2.11506205E+01   1.45533174E+03   4.58259152E+03   0.00000000E+00   0.00000000E+00   0.00000000E+00   0.00000000E+00   1.92359832E+04
   2.60750000E+03   5.00000000E-01   5.00000000E-01  -5.31567263E+04   2.29393834E+03   0.00000000E+00   1.96095756E+04   5.18188230E+03   2.17007554E+03   7.19351499E+00   0.00000000E+00   0.00000000E+00   0.00000000E+00   0.00000000E+00   2.09514578E+01   1.45489892E+03   4.57279321E+03   0.00000000E+00   0.00000000E+00   0.00000000E+00   0.00000000E+00   1.92358580E+04
   2.64250000E+03   5.00000000E-01   5.00000000E-01  -5.31588278E+04   2.29393779E+03   0.00000000E+00   1.96109607E+04   5.17242309E+03   2.17007101E+03   7.19350041E+00   0.00000000E+00   0.00000000E+00   0.00000000E+00   0.00000000E+00   2.07440179E+01   1.45444837E+03   4.56333403E+03   0.00000000E+00   0.00000000E+00   0.00000000E+00   0.00000000E+00   1.92358437E+04
   2.67750000E+03   5.00000000E-01   5.00000000E-01  -5.31612574E+04   2.29393720E+03   0.00000000E+00   1.96125226E+04   5.16329384E+03   2.17006664E+03   7.19348801E+00   0.00000000E+00   0.00000000E+00   0.00000000E+00   0.00000000E+00   2.05283822E+01   1.45398040E+03   4.55420480E+03   0.00000000E+00   0.00000000E+00   0.00000000E+00   0.00000000E+00   1.92359464E+04
   2.71250000E+03   5.00000000E-01   5.00000000E-01  -5.31640240E+04   2.29393657E+03   0.00000000E+00   1.96142655E+04   5.15448557E+03   2.17006244E+03   7.19347842E+00   0.00000000E+00   0.00000000E+00   0.00000000E+00   0.00000000E+00   2.03045886E+01   1.45349529E+03   4.54539656E+03   0.00000000E+00   0.00000000E+00   0.00000000E+00   0.00000000E+00   1.92361716E+04