 TITLE = "Total Component Concentration in Minerals" 
VARIABLES = "X"          "Y"              "Z"            "H+"             "Al+++"          "CO2(aq)"        "Mg++"           "Ca++"           "Fe++"           "Fe+++"          "Ba++"           "Sr++"           "Li+"            "Rb+"            "Mn++"           "Zn++"           "Cu++"           "Cu+"            "Cl-"            "F-"             "K+"             "HS-"            "Na+"            "SO4--"          "O2(aq)"         "B(OH)3(aq)"     "HPO4--"         "NO3-"           "H4SiO4(aq)"     "Ti(OH)4(aq)"   
 ZONE I=         200 , J=           1 , K=           1  F=POINT
   8.75000000E+00   5.00000000E-01   5.00000000E-01  -4.46031051E+04   3.03735684E+03   0.00000000E+00   9.12320628E+03   1.73495650E+03   6.22489644E+03   7.34541571E+01   1.97221188E+00   2.16216075E+00   0.00000000E+00   0.00000000E+00   2.12369033E+01   6.95295402E+01   2.44618254E+00   7.03743060E+00   0.00000000E+00   8.14927823E+00   5.12793280E-06   3.51872641E+00   9.27651334E+02   6.58055712E+00  -1.95712436E-06   0.00000000E+00   0.00000000E+00   0.00000000E+00   1.51436219E+04   7.11044010E+00
   2.62500000E+01   5.00000000E-01   5.00000000E-01  -4.46236170E+04   3.03733253E+03   0.00000000E+00   9.13192926E+03   1.73517984E+03   6.22510344E+03   7.34541570E+01   1.93926872E+00   2.16216075E+00   0.00000000E+00   0.00000000E+00   2.12369033E+01   6.95295452E+01   2.44618254E+00   7.03729917E+00   0.00000000E+00   8.14927799E+00   1.04631335E-05   3.51866070E+00   9.29929539E+02   6.54761397E+00  -1.95712436E-06   0.00000000E+00   0.00000000E+00   0.00000000E+00   1.51604373E+04   7.11044048E+00
   4.37500000E+01   5.00000000E-01   5.00000000E-01  -4.46205512E+04   3.03733253E+03   0.00000000E+00   9.12882347E+03   1.73533661E+03   6.22530753E+03   7.34541570E+01   1.92614696E+00   2.16216075E+00   0.00000000E+00   0.00000000E+00   2.12369033E+01   6.95295454E+01   2.44618254E+00   7.03729917E+00   0.00000000E+00   8.14927777E+00   1.32010853E-05   3.51866070E+00   9.32353674E+02   6.53449220E+00  -1.95712436E-06   0.00000000E+00   0.00000000E+00   0.00000000E+00   1.51670933E+04   7.11044085E+00
   6.12500000E+01   5.00000000E-01   5.00000000E-01  -4.46160943E+04   3.03733253E+03   0.00000000E+00   9.12433310E+03   1.73546603E+03   6.22551905E+03   7.34541570E+01   1.92057495E+00   2.16216075E+00   0.00000000E+00   0.00000000E+00   2.12369033E+01   6.95295474E+01   2.44618254E+00   7.03729917E+00   0.00000000E+00   8.14927757E+00   1.50588638E-05   3.51866070E+00   9.36195621E+02   6.52892020E+00  -1.95712436E-06   0.00000000E+00   0.00000000E+00   0.00000000E+00   1.51777609E+04   7.11044133E+00
   7.87500000E+01   5.00000000E-01   5.00000000E-01  -4.46135181E+04   3.03733253E+03   0.00000000E+00   9.12030308E+03   1.73563251E+03   6.22575397E+03   7.34541570E+01   1.91804566E+00   2.16216075E+00   0.00000000E+00   0.00000000E+00   2.12369033E+01   6.95295514E+01   2.44618254E+00   7.03729917E+00   0.00000000E+00   8.14927739E+00   1.70970217E-05   3.51866070E+00   9.40876661E+02   6.52639091E+00  -1.95712436E-06   0.00000000E+00   0.00000000E+00   0.00000000E+00   1.51920495E+04   7.11044185E+00
   9.62500000E+01   5.00000000E-01   5.00000000E-01  -4.46121966E+04   3.03733253E+03   0.00000000E+00   9.11678763E+03   1.73584545E+03   6.22601675E+03   7.34541570E+01   1.91680132E+00   2.16216075E+00   0.00000000E+00   0.00000000E+00   2.12369033E+01   6.95295567E+01   2.44618254E+00   7.03729917E+00   0.00000000E+00   8.14927722E+00   1.92340628E-05   3.51866070E+00   9.45634557E+02   6.52514657E+00  -1.95712436E-06   0.00000000E+00   0.00000000E+00   0.00000000E+00   1.52071808E+04   7.11044235E+00
   1.13750000E+02   5.00000000E-01   5.00000000E-01  -4.46114546E+04   3.03733253E+03   0.00000000E+00   9.11376613E+03   1.73609097E+03   6.22630549E+03   7.34541570E+01   1.91612266E+00   2.16216075E+00   0.00000000E+00   0.00000000E+00   2.12369033E+01   6.95295631E+01   2.44618254E+00   7.03729917E+00   0.00000000E+00   8.14927706E+00   2.11275482E-05   3.51866070E+00   9.49867006E+02   6.52446790E+00  -1.95712436E-06   0.00000000E+00   0.00000000E+00   0.00000000E+00   1.52208622E+04   7.11044282E+00
   1.31250000E+02   5.00000000E-01   5.00000000E-01  -4.46110692E+04   3.03733253E+03   0.00000000E+00   9.11129506E+03   1.73635166E+03   6.22661680E+03   7.34541570E+01   1.91570278E+00   2.16216075E+00   0.00000000E+00   0.00000000E+00   2.12369033E+01   6.95295701E+01   2.44618254E+00   7.03729917E+00   0.00000000E+00   8.14927692E+00   2.25232149E-05   3.51866070E+00   9.53279797E+02   6.52404802E+00  -1.95712436E-06   0.00000000E+00   0.00000000E+00   0.00000000E+00   1.52320132E+04   7.11044323E+00
   1.48750000E+02   5.00000000E-01   5.00000000E-01  -4.46109787E+04   3.03733253E+03   0.00000000E+00   9.10937600E+03   1.73661416E+03   6.22694771E+03   7.34541570E+01   1.91540572E+00   2.16216075E+00   0.00000000E+00   0.00000000E+00   2.12369033E+01   6.95295778E+01   2.44618254E+00   7.03729917E+00   0.00000000E+00   8.14927678E+00   2.33244020E-05   3.51866070E+00   9.55840583E+02   6.52375096E+00  -1.95712436E-06   0.00000000E+00   0.00000000E+00   0.00000000E+00   1.52404896E+04   7.11044358E+00
   1.66250000E+02   5.00000000E-01   5.00000000E-01  -4.46111446E+04   3.03733253E+03   0.00000000E+00   9.10794683E+03   1.73686974E+03   6.22729585E+03   7.34541570E+01   1.91516912E+00   2.16216075E+00   0.00000000E+00   0.00000000E+00   2.12369033E+01   6.95295860E+01   2.44618254E+00   7.03729917E+00   0.00000000E+00   8.14927666E+00   2.35535949E-05   3.51866070E+00   9.57657323E+02   6.52351436E+00  -1.95712436E-06   0.00000000E+00   0.00000000E+00   0.00000000E+00   1.52466222E+04   7.11044387E+00
   1.83750000E+02   5.00000000E-01   5.00000000E-01  -4.46115282E+04   3.03733253E+03   0.00000000E+00   9.10691998E+03   1.73711277E+03   6.22765910E+03   7.34541570E+01   1.91496348E+00   2.16216075E+00   0.00000000E+00   0.00000000E+00   2.12369033E+01   6.95295947E+01   2.44618254E+00   7.03729917E+00   0.00000000E+00   8.14927654E+00   2.32962432E-05   3.51866070E+00   9.58882006E+02   6.52330872E+00  -1.95712436E-06   0.00000000E+00   0.00000000E+00   0.00000000E+00   1.52508891E+04   7.11044410E+00
   2.01250000E+02   5.00000000E-01   5.00000000E-01  -4.46120922E+04   3.03733253E+03   0.00000000E+00   9.10621015E+03   1.73733955E+03   6.22803548E+03   7.34541570E+01   1.91477447E+00   2.16216075E+00   0.00000000E+00   0.00000000E+00   2.12369033E+01   6.95296037E+01   2.44618254E+00   7.03729917E+00   0.00000000E+00   8.14927644E+00   2.26601021E-05   3.51866070E+00   9.59659422E+02   6.52311971E+00  -1.95712436E-06   0.00000000E+00   0.00000000E+00   0.00000000E+00   1.52537473E+04   7.11044427E+00
   2.18750000E+02   5.00000000E-01   5.00000000E-01  -4.46128041E+04   3.03733253E+03   0.00000000E+00   9.10574594E+03   1.73754773E+03   6.22842304E+03   7.34541570E+01   1.91459493E+00   2.16216075E+00   0.00000000E+00   0.00000000E+00   2.12369033E+01   6.95296130E+01   2.44618254E+00   7.03729917E+00   0.00000000E+00   8.14927634E+00   2.17520253E-05   3.51866069E+00   9.60108206E+02   6.52294018E+00  -1.95712436E-06   0.00000000E+00   0.00000000E+00   0.00000000E+00   1.52555707E+04   7.11044437E+00
   2.36250000E+02   5.00000000E-01   5.00000000E-01  -4.46136368E+04   3.03733253E+03   0.00000000E+00   9.10547190E+03   1.73773606E+03   6.22881995E+03   7.34541570E+01   1.91442128E+00   2.16216075E+00   0.00000000E+00   0.00000000E+00   2.12369033E+01   6.95296227E+01   2.44618254E+00   7.03729917E+00   0.00000000E+00   8.14927625E+00   2.06664881E-05   3.51866069E+00   9.60318442E+02   6.52276652E+00  -1.95712436E-06   0.00000000E+00   0.00000000E+00   0.00000000E+00   1.52566430E+04   7.11044442E+00
   2.53750000E+02   5.00000000E-01   5.00000000E-01  -4.46145685E+04   3.03733253E+03   0.00000000E+00   9.10534641E+03   1.73790420E+03   6.22922456E+03   7.34541570E+01   1.91425166E+00   2.16216075E+00   0.00000000E+00   0.00000000E+00   2.12369033E+01   6.95296326E+01   2.44618254E+00   7.03729917E+00   0.00000000E+00   8.14927616E+00   1.94810681E-05   3.51866069E+00   9.60355694E+02   6.52259690E+00  -1.95712436E-06   0.00000000E+00   0.00000000E+00   0.00000000E+00   1.52571703E+04   7.11044440E+00
   2.71250000E+02   5.00000000E-01   5.00000000E-01  -4.46155821E+04   3.03733253E+03   0.00000000E+00   9.10533859E+03   1.73805256E+03   6.22963538E+03   7.34541570E+01   1.91408517E+00   2.16216075E+00   0.00000000E+00   0.00000000E+00   2.12369033E+01   6.95296427E+01   2.44618254E+00   7.03729917E+00   0.00000000E+00   8.14927608E+00   1.82558621E-05   3.51866069E+00   9.60266512E+02   6.52243041E+00  -1.95712436E-06   0.00000000E+00   0.00000000E+00   0.00000000E+00   1.52572988E+04   7.11044432E+00
   2.88750000E+02   5.00000000E-01   5.00000000E-01  -4.46166634E+04   3.03733253E+03   0.00000000E+00   9.10542537E+03   1.73818219E+03   6.23005114E+03   7.34541570E+01   1.91392134E+00   2.16216075E+00   0.00000000E+00   0.00000000E+00   2.12369033E+01   6.95296531E+01   2.44618254E+00   7.03729917E+00   0.00000000E+00   8.14927601E+00   1.70349872E-05   3.51866069E+00   9.60083459E+02   6.52226659E+00  -1.95712436E-06   0.00000000E+00   0.00000000E+00   0.00000000E+00   1.52571307E+04   7.11044420E+00
   3.06250000E+02   5.00000000E-01   5.00000000E-01  -4.46178009E+04   3.03733253E+03   0.00000000E+00   9.10558929E+03   1.73829457E+03   6.23047076E+03   7.34541570E+01   1.91376001E+00   2.16216075E+00   0.00000000E+00   0.00000000E+00   2.12369033E+01   6.95296637E+01   2.44618254E+00   7.03729917E+00   0.00000000E+00   8.14927594E+00   1.58490276E-05   3.51866069E+00   9.59829118E+02   6.52210525E+00  -1.95712436E-06   0.00000000E+00   0.00000000E+00   0.00000000E+00   1.52567369E+04   7.11044401E+00
   3.23750000E+02   5.00000000E-01   5.00000000E-01  -4.46189849E+04   3.03733253E+03   0.00000000E+00   9.10581674E+03   1.73839147E+03   6.23089339E+03   7.34541570E+01   1.91360111E+00   2.16216075E+00   0.00000000E+00   0.00000000E+00   2.12369033E+01   6.95296744E+01   2.44618254E+00   7.03729917E+00   0.00000000E+00   8.14927588E+00   1.47177401E-05   3.51866069E+00   9.59519109E+02   6.52194635E+00  -1.95712436E-06   0.00000000E+00   0.00000000E+00   0.00000000E+00   1.52561660E+04   7.11044379E+00
   3.41250000E+02   5.00000000E-01   5.00000000E-01  -4.46202068E+04   3.03733253E+03   0.00000000E+00   9.10609688E+03   1.73847477E+03   6.23131832E+03   7.34541570E+01   1.91344466E+00   2.16216075E+00   0.00000000E+00   0.00000000E+00   2.12369033E+01   6.95296854E+01   2.44618254E+00   7.03729916E+00   0.00000000E+00   8.14927582E+00   1.36526351E-05   3.51866069E+00   9.59164298E+02   6.52178991E+00  -1.95712436E-06   0.00000000E+00   0.00000000E+00   0.00000000E+00   1.52554521E+04   7.11044351E+00
   3.58750000E+02   5.00000000E-01   5.00000000E-01  -4.46214595E+04   3.03733253E+03   0.00000000E+00   9.10642083E+03   1.73854639E+03   6.23174499E+03   7.34541570E+01   1.91329074E+00   2.16216075E+00   0.00000000E+00   0.00000000E+00   2.12369033E+01   6.95296966E+01   2.44618254E+00   7.03729916E+00   0.00000000E+00   8.14927577E+00   1.26592358E-05   3.51866069E+00   9.58772414E+02   6.52163598E+00  -1.95712436E-06   0.00000000E+00   0.00000000E+00   0.00000000E+00   1.52546191E+04   7.11044319E+00
   3.76250000E+02   5.00000000E-01   5.00000000E-01  -4.46227364E+04   3.03733253E+03   0.00000000E+00   9.10678114E+03   1.73860812E+03   6.23217300E+03   7.34541570E+01   1.91313941E+00   2.16216075E+00   0.00000000E+00   0.00000000E+00   2.12369033E+01   6.95297080E+01   2.44618254E+00   7.03729916E+00   0.00000000E+00   8.14927572E+00   1.17389363E-05   3.51866069E+00   9.58349209E+02   6.52148465E+00  -1.95712436E-06   0.00000000E+00   0.00000000E+00   0.00000000E+00   1.52536848E+04   7.11044283E+00
   3.93750000E+02   5.00000000E-01   5.00000000E-01  -4.46240320E+04   3.03733253E+03   0.00000000E+00   9.10717145E+03   1.73866157E+03   6.23260202E+03   7.34541570E+01   1.91299077E+00   2.16216075E+00   0.00000000E+00   0.00000000E+00   2.12369033E+01   6.95297196E+01   2.44618254E+00   7.03729916E+00   0.00000000E+00   8.14927567E+00   1.08904407E-05   3.51866069E+00   9.57899254E+02   6.52133602E+00  -1.95712436E-06   0.00000000E+00   0.00000000E+00   0.00000000E+00   1.52526633E+04   7.11044244E+00
   4.11250000E+02   5.00000000E-01   5.00000000E-01  -4.46253413E+04   3.03733253E+03   0.00000000E+00   9.10758612E+03   1.73870816E+03   6.23303181E+03   7.34541570E+01   1.91284492E+00   2.16216075E+00   0.00000000E+00   0.00000000E+00   2.12369033E+01   6.95297314E+01   2.44618254E+00   7.03729916E+00   0.00000000E+00   8.14927563E+00   1.01108064E-05   3.51866069E+00   9.57426434E+02   6.52119016E+00  -1.95712436E-06   0.00000000E+00   0.00000000E+00   0.00000000E+00   1.52515665E+04   7.11044201E+00
   4.28750000E+02   5.00000000E-01   5.00000000E-01  -4.46266595E+04   3.03733253E+03   0.00000000E+00   9.10802000E+03   1.73874912E+03   6.23346217E+03   7.34541570E+01   1.91270194E+00   2.16216075E+00   0.00000000E+00   0.00000000E+00   2.12369033E+01   6.95297435E+01   2.44618254E+00   7.03729916E+00   0.00000000E+00   8.14927559E+00   9.39614741E-06   3.51866069E+00   9.56934190E+02   6.52104718E+00  -1.95712436E-06   0.00000000E+00   0.00000000E+00   0.00000000E+00   1.52504046E+04   7.11044156E+00
   4.46250000E+02   5.00000000E-01   5.00000000E-01  -4.46279815E+04   3.03733253E+03   0.00000000E+00   9.10846820E+03   1.73878552E+03   6.23389289E+03   7.34541570E+01   1.91256193E+00   2.16216075E+00   0.00000000E+00   0.00000000E+00   2.12369033E+01   6.95297559E+01   2.44618254E+00   7.03729916E+00   0.00000000E+00   8.14927555E+00   8.74207794E-06   3.51866069E+00   9.56425595E+02   6.52090717E+00  -1.95712436E-06   0.00000000E+00   0.00000000E+00   0.00000000E+00   1.52491865E+04   7.11044108E+00
   4.63750000E+02   5.00000000E-01   5.00000000E-01  -4.46293021E+04   3.03733253E+03   0.00000000E+00   9.10892592E+03   1.73881830E+03   6.23432376E+03   7.34541570E+01   1.91242497E+00   2.16216075E+00   0.00000000E+00   0.00000000E+00   2.12369033E+01   6.95297685E+01   2.44618254E+00   7.03729916E+00   0.00000000E+00   8.14927552E+00   8.14398678E-06   3.51866069E+00   9.55903349E+02   6.52077021E+00  -1.95712436E-06   0.00000000E+00   0.00000000E+00   0.00000000E+00   1.52479197E+04   7.11044057E+00
   4.81250000E+02   5.00000000E-01   5.00000000E-01  -4.46306151E+04   3.03733253E+03   0.00000000E+00   9.10938849E+03   1.73884828E+03   6.23475451E+03   7.34541570E+01   1.91229115E+00   2.16216075E+00   0.00000000E+00   0.00000000E+00   2.12369033E+01   6.95297813E+01   2.44618254E+00   7.03729916E+00   0.00000000E+00   8.14927549E+00   7.59721845E-06   3.51866069E+00   9.55369790E+02   6.52063639E+00  -1.95712436E-06   0.00000000E+00   0.00000000E+00   0.00000000E+00   1.52466099E+04   7.11044004E+00
   4.98750000E+02   5.00000000E-01   5.00000000E-01  -4.46319145E+04   3.03733253E+03   0.00000000E+00   9.10985133E+03   1.73887619E+03   6.23518485E+03   7.34541570E+01   1.91216054E+00   2.16216075E+00   0.00000000E+00   0.00000000E+00   2.12369033E+01   6.95297945E+01   2.44618254E+00   7.03729916E+00   0.00000000E+00   8.14927546E+00   7.09721186E-06   3.51866069E+00   9.54826946E+02   6.52050579E+00  -1.95712436E-06   0.00000000E+00   0.00000000E+00   0.00000000E+00   1.52452618E+04   7.11043950E+00
   5.16250000E+02   5.00000000E-01   5.00000000E-01  -4.46331937E+04   3.03733253E+03   0.00000000E+00   9.11031010E+03   1.73890260E+03   6.23561443E+03   7.34541570E+01   1.91203323E+00   2.16216075E+00   0.00000000E+00   0.00000000E+00   2.12369033E+01   6.95298080E+01   2.44618254E+00   7.03729916E+00   0.00000000E+00   8.14927543E+00   6.63961739E-06   3.51866069E+00   9.54276631E+02   6.52037848E+00  -1.95712436E-06   0.00000000E+00   0.00000000E+00   0.00000000E+00   1.52438791E+04   7.11043893E+00
   5.33750000E+02   5.00000000E-01   5.00000000E-01  -4.46344465E+04   3.03733253E+03   0.00000000E+00   9.11076075E+03   1.73892790E+03   6.23604288E+03   7.34541570E+01   1.91190928E+00   2.16216075E+00   0.00000000E+00   0.00000000E+00   2.12369033E+01   6.95298217E+01   2.44618254E+00   7.03729916E+00   0.00000000E+00   8.14927541E+00   6.22039203E-06   3.51866069E+00   9.53720567E+02   6.52025453E+00  -1.95712436E-06   0.00000000E+00   0.00000000E+00   0.00000000E+00   1.52424652E+04   7.11043836E+00
   5.51250000E+02   5.00000000E-01   5.00000000E-01  -4.46356667E+04   3.03733253E+03   0.00000000E+00   9.11119955E+03   1.73895232E+03   6.23646982E+03   7.34541570E+01   1.91178877E+00   2.16216075E+00   0.00000000E+00   0.00000000E+00   2.12369033E+01   6.95298358E+01   2.44618254E+00   7.03729916E+00   0.00000000E+00   8.14927539E+00   5.83586199E-06   3.51866069E+00   9.53160465E+02   6.52013401E+00  -1.95712436E-06   0.00000000E+00   0.00000000E+00   0.00000000E+00   1.52410232E+04   7.11043777E+00
   5.68750000E+02   5.00000000E-01   5.00000000E-01  -4.46368485E+04   3.03733253E+03   0.00000000E+00   9.11162302E+03   1.73897591E+03   6.23689485E+03   7.34541570E+01   1.91167174E+00   2.16216075E+00   0.00000000E+00   0.00000000E+00   2.12369033E+01   6.95298501E+01   2.44618254E+00   7.03729916E+00   0.00000000E+00   8.14927537E+00   5.48274408E-06   3.51866069E+00   9.52598053E+02   6.52001699E+00  -1.95712436E-06   0.00000000E+00   0.00000000E+00   0.00000000E+00   1.52395565E+04   7.11043717E+00
   5.86250000E+02   5.00000000E-01   5.00000000E-01  -4.46379861E+04   3.03733253E+03   0.00000000E+00   9.11202788E+03   1.73899860E+03   6.23731757E+03   7.34541570E+01   1.91155828E+00   2.16216075E+00   0.00000000E+00   0.00000000E+00   2.12369033E+01   6.95298649E+01   2.44618254E+00   7.03729916E+00   0.00000000E+00   8.14927535E+00   5.15812618E-06   3.51866069E+00   9.52035034E+02   6.51990353E+00  -1.95712436E-06   0.00000000E+00   0.00000000E+00   0.00000000E+00   1.52380682E+04   7.11043657E+00
   6.03750000E+02   5.00000000E-01   5.00000000E-01  -4.46390735E+04   3.03733253E+03   0.00000000E+00   9.11241094E+03   1.73902029E+03   6.23773752E+03   7.34541570E+01   1.91144842E+00   2.16216075E+00   0.00000000E+00   0.00000000E+00   2.12369033E+01   6.95298799E+01   2.44618254E+00   7.03729916E+00   0.00000000E+00   8.14927534E+00   4.85941832E-06   3.51866069E+00   9.51473007E+02   6.51979368E+00  -1.95712436E-06   0.00000000E+00   0.00000000E+00   0.00000000E+00   1.52365609E+04   7.11043596E+00
   6.21250000E+02   5.00000000E-01   5.00000000E-01  -4.46401045E+04   3.03733252E+03   0.00000000E+00   9.11276904E+03   1.73904084E+03   6.23815418E+03   7.34541570E+01   1.91134224E+00   2.16216075E+00   0.00000000E+00   0.00000000E+00   2.12369033E+01   6.95298953E+01   2.44618254E+00   7.03729916E+00   0.00000000E+00   8.14927532E+00   4.58429200E-06   3.51866069E+00   9.50913372E+02   6.51968750E+00  -1.95712436E-06   0.00000000E+00   0.00000000E+00   0.00000000E+00   1.52350366E+04   7.11043534E+00
   6.38750000E+02   5.00000000E-01   5.00000000E-01  -4.46410729E+04   3.03733252E+03   0.00000000E+00   9.11309914E+03   1.73906017E+03   6.23856696E+03   7.34541570E+01   1.91123977E+00   2.16216075E+00   0.00000000E+00   0.00000000E+00   2.12369033E+01   6.95299110E+01   2.44618254E+00   7.03729915E+00   0.00000000E+00   8.14927531E+00   4.33062520E-06   3.51866069E+00   9.50357280E+02   6.51958503E+00  -1.95712436E-06   0.00000000E+00   0.00000000E+00   0.00000000E+00   1.52334963E+04   7.11043473E+00
   6.56250000E+02   5.00000000E-01   5.00000000E-01  -4.46419722E+04   3.03733252E+03   0.00000000E+00   9.11339834E+03   1.73907825E+03   6.23897516E+03   7.34541570E+01   1.91114106E+00   2.16216075E+00   0.00000000E+00   0.00000000E+00   2.12369033E+01   6.95299271E+01   2.44618254E+00   7.03729915E+00   0.00000000E+00   8.14927530E+00   4.09646450E-06   3.51866069E+00   9.49805620E+02   6.51948634E+00  -1.95712436E-06   0.00000000E+00   0.00000000E+00   0.00000000E+00   1.52319405E+04   7.11043411E+00
   6.73750000E+02   5.00000000E-01   5.00000000E-01  -4.46427963E+04   3.03733252E+03   0.00000000E+00   9.11366403E+03   1.73909501E+03   6.23937804E+03   7.34541570E+01   1.91104615E+00   2.16216075E+00   0.00000000E+00   0.00000000E+00   2.12369033E+01   6.95299435E+01   2.44618254E+00   7.03729915E+00   0.00000000E+00   8.14927529E+00   3.88000761E-06   3.51866069E+00   9.49259072E+02   6.51939145E+00  -1.95712436E-06   0.00000000E+00   0.00000000E+00   0.00000000E+00   1.52303688E+04   7.11043349E+00
   6.91250000E+02   5.00000000E-01   5.00000000E-01  -4.46435396E+04   3.03733252E+03   0.00000000E+00   9.11389396E+03   1.73911039E+03   6.23977478E+03   7.34541570E+01   1.91095509E+00   2.16216075E+00   0.00000000E+00   0.00000000E+00   2.12369033E+01   6.95299603E+01   2.44618254E+00   7.03729915E+00   0.00000000E+00   8.14927528E+00   3.67960333E-06   3.51866069E+00   9.48718174E+02   6.51930040E+00  -1.95712436E-06   0.00000000E+00   0.00000000E+00   0.00000000E+00   1.52287808E+04   7.11043288E+00
   7.08750000E+02   5.00000000E-01   5.00000000E-01  -4.46441969E+04   3.03733252E+03   0.00000000E+00   9.11408632E+03   1.73912421E+03   6.24016461E+03   7.34541570E+01   1.91086791E+00   2.16216075E+00   0.00000000E+00   0.00000000E+00   2.12369033E+01   6.95299775E+01   2.44618254E+00   7.03729915E+00   0.00000000E+00   8.14927528E+00   3.49376090E-06   3.51866069E+00   9.48183412E+02   6.51921325E+00  -1.95712436E-06   0.00000000E+00   0.00000000E+00   0.00000000E+00   1.52271758E+04   7.11043226E+00
   7.26250000E+02   5.00000000E-01   5.00000000E-01  -4.46447639E+04   3.03733252E+03   0.00000000E+00   9.11423971E+03   1.73913620E+03   6.24054681E+03   7.34541570E+01   1.91078464E+00   2.16216075E+00   0.00000000E+00   0.00000000E+00   2.12369033E+01   6.95299950E+01   2.44618254E+00   7.03729915E+00   0.00000000E+00   8.14927528E+00   3.32115978E-06   3.51866069E+00   9.47655274E+02   6.51913002E+00  -1.95712436E-06   0.00000000E+00   0.00000000E+00   0.00000000E+00   1.52255537E+04   7.11043166E+00
   7.43750000E+02   5.00000000E-01   5.00000000E-01  -4.46452371E+04   3.03733252E+03   0.00000000E+00   9.11435305E+03   1.73914596E+03   6.24092079E+03   7.34541570E+01   1.91070530E+00   2.16216075E+00   0.00000000E+00   0.00000000E+00   2.12369033E+01   6.95300129E+01   2.44618254E+00   7.03729915E+00   0.00000000E+00   8.14927527E+00   3.16065152E-06   3.51866069E+00   9.47134260E+02   6.51905074E+00  -1.95712436E-06   0.00000000E+00   0.00000000E+00   0.00000000E+00   1.52239143E+04   7.11043105E+00
   7.61250000E+02   5.00000000E-01   5.00000000E-01  -4.46456134E+04   3.03733252E+03   0.00000000E+00   9.11442551E+03   1.73915303E+03   6.24128608E+03   7.34541570E+01   1.91062992E+00   2.16216075E+00   0.00000000E+00   0.00000000E+00   2.12369033E+01   6.95300311E+01   2.44618254E+00   7.03729915E+00   0.00000000E+00   8.14927527E+00   3.01124960E-06   3.51866069E+00   9.46620853E+02   6.51897545E+00  -1.95712436E-06   0.00000000E+00   0.00000000E+00   0.00000000E+00   1.52222578E+04   7.11043045E+00
   7.78750000E+02   5.00000000E-01   5.00000000E-01  -4.46458902E+04   3.03733252E+03   0.00000000E+00   9.11445640E+03   1.73915697E+03   6.24164237E+03   7.34541570E+01   1.91055852E+00   2.16216075E+00   0.00000000E+00   0.00000000E+00   2.12369033E+01   6.95300498E+01   2.44618254E+00   7.03729915E+00   0.00000000E+00   8.14927527E+00   2.87210763E-06   3.51866069E+00   9.46115454E+02   6.51890418E+00  -1.95712436E-06   0.00000000E+00   0.00000000E+00   0.00000000E+00   1.52205839E+04   7.11042986E+00
   7.96250000E+02   5.00000000E-01   5.00000000E-01  -4.46460656E+04   3.03733252E+03   0.00000000E+00   9.11444514E+03   1.73915737E+03   6.24198946E+03   7.34541570E+01   1.91049112E+00   2.16216075E+00   0.00000000E+00   0.00000000E+00   2.12369033E+01   6.95300688E+01   2.44618254E+00   7.03729915E+00   0.00000000E+00   8.14927527E+00   2.74249054E-06   3.51866068E+00   9.45618318E+02   6.51883697E+00  -1.95712436E-06   0.00000000E+00   0.00000000E+00   0.00000000E+00   1.52188923E+04   7.11042928E+00
   8.13750000E+02   5.00000000E-01   5.00000000E-01  -4.46461380E+04   3.03733252E+03   0.00000000E+00   9.11439134E+03   1.73915396E+03   6.24232724E+03   7.34541570E+01   1.91042772E+00   2.16216075E+00   0.00000000E+00   0.00000000E+00   2.12369033E+01   6.95300883E+01   2.44618254E+00   7.03729915E+00   0.00000000E+00   8.14927528E+00   2.62174485E-06   3.51866068E+00   9.45129527E+02   6.51877386E+00  -1.95712436E-06   0.00000000E+00   0.00000000E+00   0.00000000E+00   1.52171825E+04   7.11042871E+00
   8.31250000E+02   5.00000000E-01   5.00000000E-01  -4.46461067E+04   3.03733252E+03   0.00000000E+00   9.11429492E+03   1.73914657E+03   6.24265566E+03   7.34541570E+01   1.91036834E+00   2.16216075E+00   0.00000000E+00   0.00000000E+00   2.12369033E+01   6.95301082E+01   2.44618254E+00   7.03729915E+00   0.00000000E+00   8.14927528E+00   2.50927318E-06   3.51866068E+00   9.44649000E+02   6.51871490E+00  -1.95712436E-06   0.00000000E+00   0.00000000E+00   0.00000000E+00   1.52154537E+04   7.11042814E+00
   8.48750000E+02   5.00000000E-01   5.00000000E-01  -4.46459723E+04   3.03733252E+03   0.00000000E+00   9.11415628E+03   1.73913519E+03   6.24297467E+03   7.34541570E+01   1.91031298E+00   2.16216076E+00   0.00000000E+00   0.00000000E+00   2.12369033E+01   6.95301284E+01   2.44618254E+00   7.03729915E+00   0.00000000E+00   8.14927529E+00   2.40451583E-06   3.51866068E+00   9.44176557E+02   6.51866017E+00  -1.95712436E-06   0.00000000E+00   0.00000000E+00   0.00000000E+00   1.52137056E+04   7.11042759E+00
   8.66250000E+02   5.00000000E-01   5.00000000E-01  -4.46457366E+04   3.03733252E+03   0.00000000E+00   9.11397645E+03   1.73911992E+03   6.24328418E+03   7.34541570E+01   1.91026163E+00   2.16216076E+00   0.00000000E+00   0.00000000E+00   2.12369033E+01   6.95301492E+01   2.44618254E+00   7.03729915E+00   0.00000000E+00   8.14927529E+00   2.30693957E-06   3.51866068E+00   9.43712018E+02   6.51860978E+00  -1.95712436E-06   0.00000000E+00   0.00000000E+00   0.00000000E+00   1.52119386E+04   7.11042704E+00
   8.83750000E+02   5.00000000E-01   5.00000000E-01  -4.46454030E+04   3.03733252E+03   0.00000000E+00   9.11375720E+03   1.73910090E+03   6.24358400E+03   7.34541570E+01   1.91021429E+00   2.16216076E+00   0.00000000E+00   0.00000000E+00   2.12369033E+01   6.95301703E+01   2.44618254E+00   7.03729915E+00   0.00000000E+00   8.14927530E+00   2.21603229E-06   3.51866068E+00   9.43255297E+02   6.51856391E+00  -1.95712436E-06   0.00000000E+00   0.00000000E+00   0.00000000E+00   1.52101540E+04   7.11042651E+00
   9.01250000E+02   5.00000000E-01   5.00000000E-01  -4.46449764E+04   3.03733252E+03   0.00000000E+00   9.11350105E+03   1.73907836E+03   6.24387376E+03   7.34541570E+01   1.91017095E+00   2.16216076E+00   0.00000000E+00   0.00000000E+00   2.12369033E+01   6.95301920E+01   2.44618254E+00   7.03729915E+00   0.00000000E+00   8.14927531E+00   2.13130144E-06   3.51866068E+00   9.42806498E+02   6.51852281E+00  -1.95712436E-06   0.00000000E+00   0.00000000E+00   0.00000000E+00   1.52083548E+04   7.11042598E+00
   9.18750000E+02   5.00000000E-01   5.00000000E-01  -4.46444629E+04   3.03733252E+03   0.00000000E+00   9.11321123E+03   1.73905252E+03   6.24415292E+03   7.34541570E+01   1.91013161E+00   2.16216076E+00   0.00000000E+00   0.00000000E+00   2.12369033E+01   6.95302141E+01   2.44618254E+00   7.03729914E+00   0.00000000E+00   8.14927532E+00   2.05227483E-06   3.51866068E+00   9.42365967E+02   6.51848693E+00  -1.95712436E-06   0.00000000E+00   0.00000000E+00   0.00000000E+00   1.52065452E+04   7.11042547E+00
   9.36250000E+02   5.00000000E-01   5.00000000E-01  -4.46438696E+04   3.03733252E+03   0.00000000E+00   9.11289155E+03   1.73902359E+03   6.24442067E+03   7.34541570E+01   1.91009624E+00   2.16216076E+00   0.00000000E+00   0.00000000E+00   2.12369033E+01   6.95302367E+01   2.44618254E+00   7.03729914E+00   0.00000000E+00   8.14927533E+00   1.97850239E-06   3.51866068E+00   9.41934312E+02   6.51845692E+00  -1.95712436E-06   0.00000000E+00   0.00000000E+00   0.00000000E+00   1.52047308E+04   7.11042497E+00
   9.53750000E+02   5.00000000E-01   5.00000000E-01  -4.46432040E+04   3.03733252E+03   0.00000000E+00   9.11254623E+03   1.73899181E+03   6.24467593E+03   7.34541570E+01   1.91006484E+00   2.16216076E+00   0.00000000E+00   0.00000000E+00   2.12369033E+01   6.95302597E+01   2.44618254E+00   7.03729914E+00   0.00000000E+00   8.14927534E+00   1.90955842E-06   3.51866068E+00   9.41512396E+02   6.51843390E+00  -1.95712436E-06   0.00000000E+00   0.00000000E+00   0.00000000E+00   1.52029186E+04   7.11042448E+00
   9.71250000E+02   5.00000000E-01   5.00000000E-01  -4.46424740E+04   3.03733252E+03   0.00000000E+00   9.11217976E+03   1.73895736E+03   6.24491736E+03   7.34541570E+01   1.91003738E+00   2.16216076E+00   0.00000000E+00   0.00000000E+00   2.12369033E+01   6.95302833E+01   2.44618254E+00   7.03729914E+00   0.00000000E+00   8.14927536E+00   1.84504387E-06   3.51866068E+00   9.41101288E+02   6.51841961E+00  -1.95712436E-06   0.00000000E+00   0.00000000E+00   0.00000000E+00   1.52011162E+04   7.11042401E+00
   9.88750000E+02   5.00000000E-01   5.00000000E-01  -4.46416869E+04   3.03733252E+03   0.00000000E+00   9.11179671E+03   1.73892041E+03   6.24514337E+03   7.34541570E+01   1.91001385E+00   2.16216076E+00   0.00000000E+00   0.00000000E+00   2.12369033E+01   6.95303072E+01   2.44618254E+00   7.03729914E+00   0.00000000E+00   8.14927537E+00   1.78458859E-06   3.51866068E+00   9.40702210E+02   6.51841695E+00  -1.95712436E-06   0.00000000E+00   0.00000000E+00   0.00000000E+00   1.51993316E+04   7.11042354E+00