 TITLE = "Total Component Concentration in Minerals" 
VARIABLES = "X"          "Y"              "Z"            "H+"             "Al+++"          "CO2(aq)"        "Mg++"           "Ca++"           "Fe++"           "Fe+++"          "Ba++"           "Sr++"           "Cl-"            "F-"             "K+"             "HS-"            "Na+"            "SO4--"          "O2(aq)"         "B(OH)3(aq)"     "HPO4--"         "NO3-"           "H4SiO4(aq)"    
 ZONE I=         200 , J=           1 , K=           1  F=POINT
   8.75000000E+00   5.00000000E-01   5.00000000E-01  -4.43451483E+04   3.02039649E+03   0.00000000E+00   9.14238232E+03   1.70913344E+03   6.22036313E+03   7.19372819E+01   0.00000000E+00   0.00000000E+00   0.00000000E+00   0.00000000E+00   7.39960602E-01   1.10259310E-05   9.23649259E+02   1.94001705E-06  -1.94001705E-06   0.00000000E+00   0.00000000E+00   0.00000000E+00   1.50916778E+04
   2.62500000E+01   5.00000000E-01   5.00000000E-01  -4.43798231E+04   3.02036900E+03   0.00000000E+00   9.15719104E+03   1.70936818E+03   6.22054138E+03   7.19372818E+01   0.00000000E+00   0.00000000E+00   0.00000000E+00   0.00000000E+00   3.16625993E+00   1.10259348E-05   9.25536825E+02   1.94001705E-06  -1.94001705E-06   0.00000000E+00   0.00000000E+00   0.00000000E+00   1.51215374E+04
   4.37500000E+01   5.00000000E-01   5.00000000E-01  -4.43731638E+04   3.02036900E+03   0.00000000E+00   9.15093872E+03   1.70947823E+03   6.22068775E+03   7.19372818E+01   0.00000000E+00   0.00000000E+00   0.00000000E+00   0.00000000E+00   3.76499831E+00   1.10259364E-05   9.30270541E+02   1.94001705E-06  -1.94001705E-06   0.00000000E+00   0.00000000E+00   0.00000000E+00   1.51361285E+04
   6.12500000E+01   5.00000000E-01   5.00000000E-01  -4.43637323E+04   3.02036900E+03   0.00000000E+00   9.14228587E+03   1.70956599E+03   6.22084757E+03   7.19372818E+01   0.00000000E+00   0.00000000E+00   0.00000000E+00   0.00000000E+00   4.58892955E+00   1.10259378E-05   9.36825717E+02   1.94001705E-06  -1.94001705E-06   0.00000000E+00   0.00000000E+00   0.00000000E+00   1.51561833E+04
   7.87500000E+01   5.00000000E-01   5.00000000E-01  -4.43588016E+04   3.02036900E+03   0.00000000E+00   9.13565004E+03   1.70971347E+03   6.22103609E+03   7.19372818E+01   0.00000000E+00   0.00000000E+00   0.00000000E+00   0.00000000E+00   5.59748315E+00   1.10259389E-05   9.43486115E+02   1.94001705E-06  -1.94001705E-06   0.00000000E+00   0.00000000E+00   0.00000000E+00   1.51792421E+04
   9.62500000E+01   5.00000000E-01   5.00000000E-01  -4.43562357E+04   3.02036900E+03   0.00000000E+00   9.13068135E+03   1.70989860E+03   6.22125847E+03   7.19372818E+01   0.00000000E+00   0.00000000E+00   0.00000000E+00   0.00000000E+00   6.42334312E+00   1.10259399E-05   9.49216713E+02   1.94001705E-06  -1.94001705E-06   0.00000000E+00   0.00000000E+00   0.00000000E+00   1.51997202E+04
   1.13750000E+02   5.00000000E-01   5.00000000E-01  -4.43546998E+04   3.02036900E+03   0.00000000E+00   9.12703296E+03   1.71009865E+03   6.22151554E+03   7.19372818E+01   0.00000000E+00   0.00000000E+00   0.00000000E+00   0.00000000E+00   6.91410741E+00   1.10259407E-05   9.53572603E+02   1.94001705E-06  -1.94001705E-06   0.00000000E+00   0.00000000E+00   0.00000000E+00   1.52150383E+04
   1.31250000E+02   5.00000000E-01   5.00000000E-01  -4.43537964E+04   3.02036900E+03   0.00000000E+00   9.12450633E+03   1.71030009E+03   6.22180873E+03   7.19372818E+01   0.00000000E+00   0.00000000E+00   0.00000000E+00   0.00000000E+00   7.08129974E+00   1.10259414E-05   9.56565998E+02   1.94001705E-06  -1.94001705E-06   0.00000000E+00   0.00000000E+00   0.00000000E+00   1.52250844E+04
   1.48750000E+02   5.00000000E-01   5.00000000E-01  -4.43533680E+04   3.02036900E+03   0.00000000E+00   9.12287127E+03   1.71049592E+03   6.22214097E+03   7.19372818E+01   0.00000000E+00   0.00000000E+00   0.00000000E+00   0.00000000E+00   6.99589717E+00   1.10259420E-05   9.58436960E+02   1.94001705E-06  -1.94001705E-06   0.00000000E+00   0.00000000E+00   0.00000000E+00   1.52308031E+04
   1.66250000E+02   5.00000000E-01   5.00000000E-01  -4.43533694E+04   3.02036900E+03   0.00000000E+00   9.12190731E+03   1.71068227E+03   6.22251431E+03   7.19372818E+01   0.00000000E+00   0.00000000E+00   0.00000000E+00   0.00000000E+00   6.74457950E+00   1.10259425E-05   9.59498200E+02   1.94001705E-06  -1.94001705E-06   0.00000000E+00   0.00000000E+00   0.00000000E+00   1.52334828E+04
   1.83750000E+02   5.00000000E-01   5.00000000E-01  -4.43537819E+04   3.02036900E+03   0.00000000E+00   9.12142247E+03   1.71085672E+03   6.22292758E+03   7.19372818E+01   0.00000000E+00   0.00000000E+00   0.00000000E+00   0.00000000E+00   6.40448133E+00   1.10259428E-05   9.60045000E+02   1.94001705E-06  -1.94001705E-06   0.00000000E+00   0.00000000E+00   0.00000000E+00   1.52343374E+04
   2.01250000E+02   5.00000000E-01   5.00000000E-01  -4.43544443E+04   3.02036900E+03   0.00000000E+00   9.12122530E+03   1.71102081E+03   6.22337967E+03   7.19372818E+01   0.00000000E+00   0.00000000E+00   0.00000000E+00   0.00000000E+00   6.01476422E+00   1.10259431E-05   9.60259199E+02   1.94001705E-06  -1.94001705E-06   0.00000000E+00   0.00000000E+00   0.00000000E+00   1.52340232E+04
   2.18750000E+02   5.00000000E-01   5.00000000E-01  -4.43552352E+04   3.02036900E+03   0.00000000E+00   9.12119084E+03   1.71117979E+03   6.22387018E+03   7.19372818E+01   0.00000000E+00   0.00000000E+00   0.00000000E+00   0.00000000E+00   5.59581300E+00   1.10259432E-05   9.60238896E+02   1.94001705E-06  -1.94001705E-06   0.00000000E+00   0.00000000E+00   0.00000000E+00   1.52328799E+04
   2.36250000E+02   5.00000000E-01   5.00000000E-01  -4.43561946E+04   3.02036900E+03   0.00000000E+00   9.12128003E+03   1.71133870E+03   6.22439381E+03   7.19372818E+01   0.00000000E+00   0.00000000E+00   0.00000000E+00   0.00000000E+00   5.17157284E+00   1.10259432E-05   9.60079161E+02   1.94001705E-06  -1.94001705E-06   0.00000000E+00   0.00000000E+00   0.00000000E+00   1.52313232E+04
   2.53750000E+02   5.00000000E-01   5.00000000E-01  -4.43572318E+04   3.02036900E+03   0.00000000E+00   9.12142565E+03   1.71150209E+03   6.22494532E+03   7.19372818E+01   0.00000000E+00   0.00000000E+00   0.00000000E+00   0.00000000E+00   4.74915458E+00   1.10259431E-05   9.59817692E+02   1.94001705E-06  -1.94001705E-06   0.00000000E+00   0.00000000E+00   0.00000000E+00   1.52294658E+04
   2.71250000E+02   5.00000000E-01   5.00000000E-01  -4.43583220E+04   3.02036900E+03   0.00000000E+00   9.12160439E+03   1.71167179E+03   6.22551911E+03   7.19372818E+01   0.00000000E+00   0.00000000E+00   0.00000000E+00   0.00000000E+00   4.33552799E+00   1.10259429E-05   9.59477065E+02   1.94001705E-06  -1.94001705E-06   0.00000000E+00   0.00000000E+00   0.00000000E+00   1.52273975E+04
   2.88750000E+02   5.00000000E-01   5.00000000E-01  -4.43594623E+04   3.02036900E+03   0.00000000E+00   9.12180946E+03   1.71184602E+03   6.22610981E+03   7.19372818E+01   0.00000000E+00   0.00000000E+00   0.00000000E+00   0.00000000E+00   3.93733501E+00   1.10259426E-05   9.59075520E+02   1.94001705E-06  -1.94001705E-06   0.00000000E+00   0.00000000E+00   0.00000000E+00   1.52251994E+04
   3.06250000E+02   5.00000000E-01   5.00000000E-01  -4.43606530E+04   3.02036900E+03   0.00000000E+00   9.12203916E+03   1.71202012E+03   6.22671343E+03   7.19372818E+01   0.00000000E+00   0.00000000E+00   0.00000000E+00   0.00000000E+00   3.56007544E+00   1.10259423E-05   9.58628652E+02   1.94001705E-06  -1.94001705E-06   0.00000000E+00   0.00000000E+00   0.00000000E+00   1.52229384E+04
   3.23750000E+02   5.00000000E-01   5.00000000E-01  -4.43618948E+04   3.02036900E+03   0.00000000E+00   9.12229305E+03   1.71218840E+03   6.22732787E+03   7.19372818E+01   0.00000000E+00   0.00000000E+00   0.00000000E+00   0.00000000E+00   3.20770022E+00   1.10259419E-05   9.58149666E+02   1.94001705E-06  -1.94001705E-06   0.00000000E+00   0.00000000E+00   0.00000000E+00   1.52206672E+04
   3.41250000E+02   5.00000000E-01   5.00000000E-01  -4.43631882E+04   3.02036900E+03   0.00000000E+00   9.12257020E+03   1.71234586E+03   6.22795274E+03   7.19372818E+01   0.00000000E+00   0.00000000E+00   0.00000000E+00   0.00000000E+00   2.88248467E+00   1.10259414E-05   9.57649290E+02   1.94001705E-06  -1.94001705E-06   0.00000000E+00   0.00000000E+00   0.00000000E+00   1.52184243E+04
   3.58750000E+02   5.00000000E-01   5.00000000E-01  -4.43645277E+04   3.02036900E+03   0.00000000E+00   9.12286662E+03   1.71248925E+03   6.22858890E+03   7.19372818E+01   0.00000000E+00   0.00000000E+00   0.00000000E+00   0.00000000E+00   2.58496259E+00   1.10259410E-05   9.57134400E+02   1.94001705E-06  -1.94001705E-06   0.00000000E+00   0.00000000E+00   0.00000000E+00   1.52162286E+04
   3.76250000E+02   5.00000000E-01   5.00000000E-01  -4.43659087E+04   3.02036900E+03   0.00000000E+00   9.12317814E+03   1.71261715E+03   6.22923769E+03   7.19372818E+01   0.00000000E+00   0.00000000E+00   0.00000000E+00   0.00000000E+00   2.31456256E+00   1.10259404E-05   9.56609330E+02   1.94001705E-06  -1.94001705E-06   0.00000000E+00   0.00000000E+00   0.00000000E+00   1.52140886E+04
   3.93750000E+02   5.00000000E-01   5.00000000E-01  -4.43673232E+04   3.02036900E+03   0.00000000E+00   9.12349922E+03   1.71272975E+03   6.22990036E+03   7.19372818E+01   0.00000000E+00   0.00000000E+00   0.00000000E+00   0.00000000E+00   2.06987604E+00   1.10259399E-05   9.56075814E+02   1.94001705E-06  -1.94001705E-06   0.00000000E+00   0.00000000E+00   0.00000000E+00   1.52120015E+04
   4.11250000E+02   5.00000000E-01   5.00000000E-01  -4.43687632E+04   3.02036900E+03   0.00000000E+00   9.12382455E+03   1.71282845E+03   6.23057767E+03   7.19372818E+01   0.00000000E+00   0.00000000E+00   0.00000000E+00   0.00000000E+00   1.84908305E+00   1.10259393E-05   9.55533981E+02   1.94001705E-06  -1.94001705E-06   0.00000000E+00   0.00000000E+00   0.00000000E+00   1.52099591E+04
   4.28750000E+02   5.00000000E-01   5.00000000E-01  -4.43702222E+04   3.02036900E+03   0.00000000E+00   9.12414989E+03   1.71291541E+03   6.23126959E+03   7.19372818E+01   0.00000000E+00   0.00000000E+00   0.00000000E+00   0.00000000E+00   1.65023537E+00   1.10259387E-05   9.54983353E+02   1.94001705E-06  -1.94001705E-06   0.00000000E+00   0.00000000E+00   0.00000000E+00   1.52079523E+04
   4.46250000E+02   5.00000000E-01   5.00000000E-01  -4.43716925E+04   3.02036900E+03   0.00000000E+00   9.12447122E+03   1.71299333E+03   6.23197513E+03   7.19372818E+01   0.00000000E+00   0.00000000E+00   0.00000000E+00   0.00000000E+00   1.47134612E+00   1.10259381E-05   9.54422964E+02   1.94001705E-06  -1.94001705E-06   0.00000000E+00   0.00000000E+00   0.00000000E+00   1.52059708E+04
   4.63750000E+02   5.00000000E-01   5.00000000E-01  -4.43731671E+04   3.02036900E+03   0.00000000E+00   9.12478540E+03   1.71306524E+03   6.23269236E+03   7.19372818E+01   0.00000000E+00   0.00000000E+00   0.00000000E+00   0.00000000E+00   1.31050746E+00   1.10259375E-05   9.53851796E+02   1.94001705E-06  -1.94001705E-06   0.00000000E+00   0.00000000E+00   0.00000000E+00   1.52040053E+04
   4.81250000E+02   5.00000000E-01   5.00000000E-01  -4.43746401E+04   3.02036900E+03   0.00000000E+00   9.12509041E+03   1.71313433E+03   6.23341837E+03   7.19372818E+01   0.00000000E+00   0.00000000E+00   0.00000000E+00   0.00000000E+00   1.16595179E+00   1.10259369E-05   9.53269146E+02   1.94001705E-06  -1.94001705E-06   0.00000000E+00   0.00000000E+00   0.00000000E+00   1.52020489E+04
   4.98750000E+02   5.00000000E-01   5.00000000E-01  -4.43759463E+04   3.02036900E+03   0.00000000E+00   9.12531436E+03   1.71320375E+03   6.23416058E+03   7.19372818E+01   0.00000000E+00   0.00000000E+00   0.00000000E+00   0.00000000E+00   1.03335329E+00   1.10259363E-05   9.52636762E+02   1.94001705E-06  -1.94001705E-06   0.00000000E+00   0.00000000E+00   0.00000000E+00   1.51998878E+04
   5.16250000E+02   5.00000000E-01   5.00000000E-01  -4.43773473E+04   3.02036900E+03   0.00000000E+00   9.12557382E+03   1.71327747E+03   6.23490846E+03   7.19372818E+01   0.00000000E+00   0.00000000E+00   0.00000000E+00   0.00000000E+00   9.15429456E-01   1.10259357E-05   9.51993513E+02   1.94001705E-06  -1.94001705E-06   0.00000000E+00   0.00000000E+00   0.00000000E+00   1.51977829E+04
   5.33750000E+02   5.00000000E-01   5.00000000E-01  -4.43787721E+04   3.02036900E+03   0.00000000E+00   9.12583754E+03   1.71335781E+03   6.23565410E+03   7.19372818E+01   0.00000000E+00   0.00000000E+00   0.00000000E+00   0.00000000E+00   8.10166336E-01   1.10259351E-05   9.51344249E+02   1.94001705E-06  -1.94001705E-06   0.00000000E+00   0.00000000E+00   0.00000000E+00   1.51957173E+04
   5.51250000E+02   5.00000000E-01   5.00000000E-01  -4.43801793E+04   3.02036900E+03   0.00000000E+00   9.12608958E+03   1.71344632E+03   6.23639200E+03   7.19372818E+01   0.00000000E+00   0.00000000E+00   0.00000000E+00   0.00000000E+00   7.15955336E-01   1.10259345E-05   9.50688684E+02   1.94001705E-06  -1.94001705E-06   0.00000000E+00   0.00000000E+00   0.00000000E+00   1.51936695E+04
   5.68750000E+02   5.00000000E-01   5.00000000E-01  -4.43815565E+04   3.02036900E+03   0.00000000E+00   9.12632767E+03   1.71354346E+03   6.23711798E+03   7.19372818E+01   0.00000000E+00   0.00000000E+00   0.00000000E+00   0.00000000E+00   6.31672107E-01   1.10259339E-05   9.50027782E+02   1.94001705E-06  -1.94001705E-06   0.00000000E+00   0.00000000E+00   0.00000000E+00   1.51916355E+04
   5.86250000E+02   5.00000000E-01   5.00000000E-01  -4.43828978E+04   3.02036900E+03   0.00000000E+00   9.12655190E+03   1.71364846E+03   6.23782918E+03   7.19372818E+01   0.00000000E+00   0.00000000E+00   0.00000000E+00   0.00000000E+00   5.56399095E-01   1.10259333E-05   9.49363560E+02   1.94001705E-06  -1.94001705E-06   0.00000000E+00   0.00000000E+00   0.00000000E+00   1.51896170E+04
   6.03750000E+02   5.00000000E-01   5.00000000E-01  -4.43841986E+04   3.02036900E+03   0.00000000E+00   9.12676215E+03   1.71375945E+03   6.23852422E+03   7.19372818E+01   0.00000000E+00   0.00000000E+00   0.00000000E+00   0.00000000E+00   4.89336459E-01   1.10259328E-05   9.48698795E+02   1.94001705E-06  -1.94001705E-06   0.00000000E+00   0.00000000E+00   0.00000000E+00   1.51876170E+04
   6.21250000E+02   5.00000000E-01   5.00000000E-01  -4.43854542E+04   3.02036900E+03   0.00000000E+00   9.12695756E+03   1.71387381E+03   6.23920307E+03   7.19372818E+01   0.00000000E+00   0.00000000E+00   0.00000000E+00   0.00000000E+00   4.29756795E-01   1.10259322E-05   9.48036700E+02   1.94001705E-06  -1.94001705E-06   0.00000000E+00   0.00000000E+00   0.00000000E+00   1.51856395E+04
   6.38750000E+02   5.00000000E-01   5.00000000E-01  -4.43866600E+04   3.02036900E+03   0.00000000E+00   9.12713647E+03   1.71398866E+03   6.23986666E+03   7.19372818E+01   0.00000000E+00   0.00000000E+00   0.00000000E+00   0.00000000E+00   3.76976579E-01   1.10259317E-05   9.47380594E+02   1.94001705E-06  -1.94001705E-06   0.00000000E+00   0.00000000E+00   0.00000000E+00   1.51836882E+04
   6.56250000E+02   5.00000000E-01   5.00000000E-01  -4.43878112E+04   3.02036900E+03   0.00000000E+00   9.12729661E+03   1.71410125E+03   6.24051635E+03   7.19372818E+01   0.00000000E+00   0.00000000E+00   0.00000000E+00   0.00000000E+00   3.30341435E-01   1.10259311E-05   9.46733594E+02   1.94001705E-06  -1.94001705E-06   0.00000000E+00   0.00000000E+00   0.00000000E+00   1.51817660E+04
   6.73750000E+02   5.00000000E-01   5.00000000E-01  -4.43889029E+04   3.02036900E+03   0.00000000E+00   9.12743552E+03   1.71420934E+03   6.24115337E+03   7.19372818E+01   0.00000000E+00   0.00000000E+00   0.00000000E+00   0.00000000E+00   2.89224288E-01   1.10259306E-05   9.46098432E+02   1.94001705E-06  -1.94001705E-06   0.00000000E+00   0.00000000E+00   0.00000000E+00   1.51798754E+04
   6.91250000E+02   5.00000000E-01   5.00000000E-01  -4.43899299E+04   3.02036900E+03   0.00000000E+00   9.12755069E+03   1.71431132E+03   6.24177836E+03   7.19372818E+01   0.00000000E+00   0.00000000E+00   0.00000000E+00   0.00000000E+00   2.53027874E-01   1.10259301E-05   9.45477295E+02   1.94001705E-06  -1.94001705E-06   0.00000000E+00   0.00000000E+00   0.00000000E+00   1.51780175E+04
   7.08750000E+02   5.00000000E-01   5.00000000E-01  -4.43908869E+04   3.02036900E+03   0.00000000E+00   9.12764021E+03   1.71440626E+03   6.24239101E+03   7.19372818E+01   0.00000000E+00   0.00000000E+00   0.00000000E+00   0.00000000E+00   2.21195236E-01   1.10259296E-05   9.44871896E+02   1.94762490E-06  -1.94001705E-06   0.00000000E+00   0.00000000E+00   0.00000000E+00   1.51761931E+04
   7.26250000E+02   5.00000000E-01   5.00000000E-01  -4.43917691E+04   3.02036900E+03   0.00000000E+00   9.12770297E+03   1.71449388E+03   6.24298992E+03   7.19372818E+01   0.00000000E+00   0.00000000E+00   0.00000000E+00   0.00000000E+00   1.93215395E-01   1.10259292E-05   9.44283534E+02   1.97108943E-06  -1.94001705E-06   0.00000000E+00   0.00000000E+00   0.00000000E+00   1.51744029E+04
   7.43750000E+02   5.00000000E-01   5.00000000E-01  -4.43925721E+04   3.02036900E+03   0.00000000E+00   9.12773877E+03   1.71457447E+03   6.24357248E+03   7.19372818E+01   0.00000000E+00   0.00000000E+00   0.00000000E+00   0.00000000E+00   1.68626412E-01   1.10259287E-05   9.43713175E+02   2.01428732E-06  -1.94001705E-06   0.00000000E+00   0.00000000E+00   0.00000000E+00   1.51726478E+04
   7.61250000E+02   5.00000000E-01   5.00000000E-01  -4.43932915E+04   3.02036900E+03   0.00000000E+00   9.12774832E+03   1.71464873E+03   6.24413502E+03   7.19372818E+01   0.00000000E+00   0.00000000E+00   0.00000000E+00   0.00000000E+00   1.47016011E-01   1.10259283E-05   9.43161538E+02   2.08860630E-06  -1.94001705E-06   0.00000000E+00   0.00000000E+00   0.00000000E+00   1.51709291E+04
   7.78750000E+02   5.00000000E-01   5.00000000E-01  -4.43939237E+04   3.02036900E+03   0.00000000E+00   9.12773326E+03   1.71471766E+03   6.24467294E+03   7.19372818E+01   0.00000000E+00   0.00000000E+00   0.00000000E+00   0.00000000E+00   1.28020200E-01   1.10259278E-05   9.42629174E+02   2.21105675E-06  -1.94001705E-06   0.00000000E+00   0.00000000E+00   0.00000000E+00   1.51692484E+04
   7.96250000E+02   5.00000000E-01   5.00000000E-01  -4.43944653E+04   3.02036900E+03   0.00000000E+00   9.12769595E+03   1.71478245E+03   6.24518092E+03   7.19372818E+01   0.00000000E+00   0.00000000E+00   0.00000000E+00   0.00000000E+00   1.11320554E-01   1.10259274E-05   9.42116544E+02   2.40688789E-06  -1.94001705E-06   0.00000000E+00   0.00000000E+00   0.00000000E+00   1.51676077E+04
   8.13750000E+02   5.00000000E-01   5.00000000E-01  -4.43949132E+04   3.02036899E+03   0.00000000E+00   9.12763928E+03   1.71484424E+03   6.24565329E+03   7.19372818E+01   0.00000000E+00   0.00000000E+00   0.00000000E+00   0.00000000E+00   9.66404389E-02   1.10259270E-05   9.41624074E+02   2.71340187E-06  -1.94001705E-06   0.00000000E+00   0.00000000E+00   0.00000000E+00   1.51660094E+04
   8.31250000E+02   5.00000000E-01   5.00000000E-01  -4.43952642E+04   3.02036899E+03   0.00000000E+00   9.12756638E+03   1.71490401E+03   6.24608432E+03   7.19372818E+01   0.00000000E+00   0.00000000E+00   0.00000000E+00   0.00000000E+00   8.37404845E-02   1.10259267E-05   9.41152182E+02   3.18551709E-06  -1.94001705E-06   0.00000000E+00   0.00000000E+00   0.00000000E+00   1.51644557E+04
   8.48750000E+02   5.00000000E-01   5.00000000E-01  -4.43955150E+04   3.02036899E+03   0.00000000E+00   9.12748017E+03   1.71496237E+03   6.24646870E+03   7.19372818E+01   0.00000000E+00   0.00000000E+00   0.00000000E+00   0.00000000E+00   7.24138132E-02   1.10259263E-05   9.40701275E+02   3.90389063E-06  -1.94001705E-06   0.00000000E+00   0.00000000E+00   0.00000000E+00   1.51629485E+04
   8.66250000E+02   5.00000000E-01   5.00000000E-01  -4.43956618E+04   3.02036899E+03   0.00000000E+00   9.12738305E+03   1.71501943E+03   6.24680191E+03   7.19372818E+01   0.00000000E+00   0.00000000E+00   0.00000000E+00   0.00000000E+00   6.24814342E-02   1.10259260E-05   9.40271735E+02   4.98679156E-06  -1.94001705E-06   0.00000000E+00   0.00000000E+00   0.00000000E+00   1.51614886E+04
   8.83750000E+02   5.00000000E-01   5.00000000E-01  -4.43956540E+04   3.02036899E+03   0.00000000E+00   9.12725769E+03   1.71506949E+03   6.24708563E+03   7.19372818E+01   0.00000000E+00   0.00000000E+00   0.00000000E+00   0.00000000E+00   5.37346610E-02   1.10259256E-05   9.39855799E+02   6.60750115E-06  -1.94001705E-06   0.00000000E+00   0.00000000E+00   0.00000000E+00   1.51600216E+04
   9.01250000E+02   5.00000000E-01   5.00000000E-01  -4.43955767E+04   3.02036899E+03   0.00000000E+00   9.12714252E+03   1.71511798E+03   6.24731369E+03   7.19372818E+01   0.00000000E+00   0.00000000E+00   0.00000000E+00   0.00000000E+00   4.61537845E-02   1.10259253E-05   9.39463373E+02   9.01980255E-06  -1.94001705E-06   0.00000000E+00   0.00000000E+00   0.00000000E+00   1.51586251E+04
   9.18750000E+02   5.00000000E-01   5.00000000E-01  -4.43953999E+04   3.02036899E+03   0.00000000E+00   9.12702555E+03   1.71516372E+03   6.24748407E+03   7.19372818E+01   0.00000000E+00   0.00000000E+00   0.00000000E+00   0.00000000E+00   3.95720869E-02   1.10259250E-05   9.39094857E+02   1.25954605E-05  -1.94001705E-06   0.00000000E+00   0.00000000E+00   0.00000000E+00   1.51572862E+04
   9.36250000E+02   5.00000000E-01   5.00000000E-01  -4.43951023E+04   3.02036899E+03   0.00000000E+00   9.12689783E+03   1.71520414E+03   6.24759830E+03   7.19372818E+01   0.00000000E+00   0.00000000E+00   0.00000000E+00   0.00000000E+00   3.38568928E-02   1.10259247E-05   9.38749076E+02   1.78794314E-05  -1.94001705E-06   0.00000000E+00   0.00000000E+00   0.00000000E+00   1.51559883E+04
   9.53750000E+02   5.00000000E-01   5.00000000E-01  -4.43946806E+04   3.02036899E+03   0.00000000E+00   9.12675719E+03   1.71523713E+03   6.24765944E+03   7.19372818E+01   0.00000000E+00   0.00000000E+00   0.00000000E+00   0.00000000E+00   2.89088009E-02   1.10259244E-05   9.38425398E+02   2.56713804E-05  -1.94001705E-06   0.00000000E+00   0.00000000E+00   0.00000000E+00   1.51547245E+04
   9.71250000E+02   5.00000000E-01   5.00000000E-01  -4.43941366E+04   3.02036899E+03   0.00000000E+00   9.12660266E+03   1.71526096E+03   6.24767140E+03   7.19372818E+01   0.00000000E+00   0.00000000E+00   0.00000000E+00   0.00000000E+00   2.46403309E-02   1.10259242E-05   9.38123210E+02   3.71463546E-05  -1.94001705E-06   0.00000000E+00   0.00000000E+00   0.00000000E+00   1.51534903E+04
   9.88750000E+02   5.00000000E-01   5.00000000E-01  -4.43934739E+04   3.02036899E+03   0.00000000E+00   9.12643332E+03   1.71527432E+03   6.24763861E+03   7.19372818E+01   0.00000000E+00   0.00000000E+00   0.00000000E+00   0.00000000E+00   2.09709128E-02   1.10259239E-05   9.37841740E+02   5.40339127E-05  -1.94001705E-06   0.00000000E+00   0.00000000E+00   0.00000000E+00   1.51522815E+04
   1.00625000E+03   5.00000000E-01   5.00000000E-01  -4.43926976E+04   3.02036899E+03   0.00000000E+00   9.12624848E+03   1.71527642E+03   6.24756566E+03   7.19372818E+01   0.00000000E+00   0.00000000E+00   0.00000000E+00   0.00000000E+00   1.78261390E-02   1.10259237E-05   9.37580031E+02   7.88847908E-05  -1.94001705E-06   0.00000000E+00   0.00000000E+00   0.00000000E+00   1.51510945E+04
   1.02375000E+03   5.00000000E-01   5.00000000E-01  -4.43918146E+04   3.02036899E+03   0.00000000E+00   9.12604789E+03   1.71526697E+03   6.24745707E+03   7.19372818E+01   0.00000000E+00   0.00000000E+00   0.00000000E+00   0.00000000E+00   1.51379639E-02   1.10259234E-05   9.37336970E+02   1.15469081E-04  -1.94001705E-06   0.00000000E+00   0.00000000E+00   0.00000000E+00   1.51499265E+04
   1.04125000E+03   5.00000000E-01   5.00000000E-01  -4.43908325E+04   3.02036899E+03   0.00000000E+00   9.12583174E+03   1.71524617E+03   6.24731706E+03   7.19372818E+01   0.00000000E+00   0.00000000E+00   0.00000000E+00   0.00000000E+00   1.28446276E-02   1.10259232E-05   9.37111305E+02   1.69372646E-04  -1.94001705E-06   0.00000000E+00   0.00000000E+00   0.00000000E+00   1.51487752E+04
   1.05875000E+03   5.00000000E-01   5.00000000E-01  -4.43897609E+04   3.02036899E+03   0.00000000E+00   9.12560093E+03   1.71521460E+03   6.24714944E+03   7.19372818E+01   0.00000000E+00   0.00000000E+00   0.00000000E+00   0.00000000E+00   1.08912370E-02   1.10259230E-05   9.36901745E+02   2.48893373E-04  -1.94001705E-06   0.00000000E+00   0.00000000E+00   0.00000000E+00   1.51476393E+04
   1.07625000E+03   5.00000000E-01   5.00000000E-01  -4.43886097E+04   3.02036899E+03   0.00000000E+00   9.12535700E+03   1.71517316E+03   6.24695756E+03   7.19372818E+01   0.00000000E+00   0.00000000E+00   0.00000000E+00   0.00000000E+00   9.22938394E-03   1.10259228E-05   9.36707000E+02   3.66392529E-04  -1.94001705E-06   0.00000000E+00   0.00000000E+00   0.00000000E+00   1.51465185E+04
   1.09375000E+03   5.00000000E-01   5.00000000E-01  -4.43873897E+04   3.02036899E+03   0.00000000E+00   9.12510194E+03   1.71512295E+03   6.24674427E+03   7.19372818E+01   0.00000000E+00   0.00000000E+00   0.00000000E+00   0.00000000E+00   7.81678139E-03   1.10259227E-05   9.36525818E+02   5.40339374E-04  -1.94001705E-06   0.00000000E+00   0.00000000E+00   0.00000000E+00   1.51454129E+04
   1.11125000E+03   5.00000000E-01   5.00000000E-01  -4.43861116E+04   3.02036899E+03   0.00000000E+00   9.12483819E+03   1.71506520E+03   6.24651199E+03   7.19372818E+01   0.00000000E+00   0.00000000E+00   0.00000000E+00   0.00000000E+00   6.61680035E-03   1.10259225E-05   9.36357016E+02   7.98415658E-04  -1.94001705E-06   0.00000000E+00   0.00000000E+00   0.00000000E+00   1.51443236E+04
   1.12875000E+03   5.00000000E-01   5.00000000E-01  -4.43847863E+04   3.02036899E+03   0.00000000E+00   9.12456847E+03   1.71500119E+03   6.24626273E+03   7.19372818E+01   0.00000000E+00   0.00000000E+00   0.00000000E+00   0.00000000E+00   5.59795824E-03   1.10259223E-05   9.36199508E+02   1.18224659E-03  -1.94001705E-06   0.00000000E+00   0.00000000E+00   0.00000000E+00   1.51432520E+04
   1.14625000E+03   5.00000000E-01   5.00000000E-01  -4.43834244E+04   3.02036899E+03   0.00000000E+00   9.12429572E+03   1.71493217E+03   6.24599816E+03   7.19372818E+01   0.00000000E+00   0.00000000E+00   0.00000000E+00   0.00000000E+00   4.73334689E-03   1.10259222E-05   9.36052320E+02   1.75463721E-03  -1.94001705E-06   0.00000000E+00   0.00000000E+00   0.00000000E+00   1.51421999E+04
   1.16375000E+03   5.00000000E-01   5.00000000E-01  -4.43820362E+04   3.02036899E+03   0.00000000E+00   9.12402297E+03   1.71485940E+03   6.24571967E+03   7.19372818E+01   0.00000000E+00   0.00000000E+00   0.00000000E+00   0.00000000E+00   4.00002455E-03   1.10259220E-05   9.35914582E+02   2.61068277E-03  -1.94001705E-06   0.00000000E+00   0.00000000E+00   0.00000000E+00   1.51411695E+04
   1.18125000E+03   5.00000000E-01   5.00000000E-01  -4.43806314E+04   3.02036899E+03   0.00000000E+00   9.12375325E+03   1.71478410E+03   6.24542841E+03   7.19372818E+01   0.00000000E+00   0.00000000E+00   0.00000000E+00   0.00000000E+00   3.37844728E-03   1.10259219E-05   9.35785523E+02   3.89489292E-03  -1.94001705E-06   0.00000000E+00   0.00000000E+00   0.00000000E+00   1.51401630E+04
   1.19875000E+03   5.00000000E-01   5.00000000E-01  -4.43792190E+04   3.02036899E+03   0.00000000E+00   9.12348946E+03   1.71470744E+03   6.24512538E+03   7.19372818E+01   0.00000000E+00   0.00000000E+00   0.00000000E+00   0.00000000E+00   2.85197937E-03   1.10259218E-05   9.35664454E+02   5.82768718E-03  -1.94001705E-06   0.00000000E+00   0.00000000E+00   0.00000000E+00   1.51391825E+04
   1.21625000E+03   5.00000000E-01   5.00000000E-01  -4.43778073E+04   3.02036899E+03   0.00000000E+00   9.12323433E+03   1.71463065E+03   6.24481145E+03   7.19372818E+01   0.00000000E+00   0.00000000E+00   0.00000000E+00   0.00000000E+00   2.40646292E-03   1.10259217E-05   9.35550748E+02   8.74655176E-03  -1.94001705E-06   0.00000000E+00   0.00000000E+00   0.00000000E+00   1.51382301E+04
   1.23375000E+03   5.00000000E-01   5.00000000E-01  -4.43764040E+04   3.02036899E+03   0.00000000E+00   9.12299038E+03   1.71455504E+03   6.24448742E+03   7.19372818E+01   0.00000000E+00   0.00000000E+00   0.00000000E+00   0.00000000E+00   2.02982882E-03   1.10259216E-05   9.35443817E+02   1.31702227E-02  -1.94001705E-06   0.00000000E+00   0.00000000E+00   0.00000000E+00   1.51373076E+04
   1.25125000E+03   5.00000000E-01   5.00000000E-01  -4.43750160E+04   3.02036899E+03   0.00000000E+00   9.12275991E+03   1.71448212E+03   6.24415409E+03   7.19372818E+01   0.00000000E+00   0.00000000E+00   0.00000000E+00   0.00000000E+00   1.71178165E-03   1.10259215E-05   9.35343094E+02   1.98991720E-02  -1.94001705E-06   0.00000000E+00   0.00000000E+00   0.00000000E+00   1.51364166E+04
   1.26875000E+03   5.00000000E-01   5.00000000E-01  -4.43736492E+04   3.02036898E+03   0.00000000E+00   9.12254469E+03   1.71441371E+03   6.24381223E+03   7.19372818E+01   0.00000000E+00   0.00000000E+00   0.00000000E+00   0.00000000E+00   1.44348066E-03   1.10259214E-05   9.35248019E+02   3.01735456E-02  -1.94001705E-06   0.00000000E+00   0.00000000E+00   0.00000000E+00   1.51355579E+04
   1.28625000E+03   5.00000000E-01   5.00000000E-01  -4.43723090E+04   3.02036898E+03   0.00000000E+00   9.12234640E+03   1.71435228E+03   6.24346271E+03   7.19372818E+01   0.00000000E+00   0.00000000E+00   0.00000000E+00   0.00000000E+00   1.21740655E-03   1.10259213E-05   9.35158026E+02   4.59223426E-02  -1.94001705E-06   0.00000000E+00   0.00000000E+00   0.00000000E+00   1.51347322E+04
   1.30375000E+03   5.00000000E-01   5.00000000E-01  -4.43710003E+04   3.02036898E+03   0.00000000E+00   9.12216637E+03   1.71430133E+03   6.24310641E+03   7.19372818E+01   0.00000000E+00   0.00000000E+00   0.00000000E+00   0.00000000E+00   1.02712445E-03   1.10259212E-05   9.35072544E+02   7.01579748E-02  -1.94001705E-06   0.00000000E+00   0.00000000E+00   0.00000000E+00   1.51339400E+04