 TITLE = "Total Component Concentration in Minerals" 
VARIABLES = "X"          "Y"              "Z"            "H+"             "Al+++"          "CO2(aq)"        "Mg++"           "Ca++"           "Fe++"           "Fe+++"          "Ba++"           "Sr++"           "Cl-"            "F-"             "K+"             "Na+"            "SO4--"          "O2(aq)"         "B(OH)3(aq)"     "HPO4--"         "NO3-"           "H4SiO4(aq)"    
 ZONE I=         100 , J=           1 , K=           1  F=POINT
   1.75000000E+01   5.00000000E-01   5.00000000E-01  -5.31162757E+04   2.29394684E+03   0.00000000E+00   1.95066087E+04   4.09329384E+03   2.20679299E+03   7.19372704E+00   0.00000000E+00   0.00000000E+00   0.00000000E+00   0.00000000E+00   4.59821576E-01   1.54719130E+03   3.47409408E+03   0.00000000E+00   0.00000000E+00   0.00000000E+00   0.00000000E+00   1.93646237E+04
   5.25000000E+01   5.00000000E-01   5.00000000E-01  -5.31134515E+04   2.29394578E+03   0.00000000E+00   1.95049083E+04   4.75039864E+03   2.20679303E+03   7.19372705E+00   0.00000000E+00   0.00000000E+00   0.00000000E+00   0.00000000E+00   5.18870030E-01   1.54771173E+03   4.13119878E+03   0.00000000E+00   0.00000000E+00   0.00000000E+00   0.00000000E+00   1.93653807E+04
   8.75000000E+01   5.00000000E-01   5.00000000E-01  -5.31132574E+04   2.29394578E+03   0.00000000E+00   1.95047022E+04   4.93544731E+03   2.20679308E+03   7.19372704E+00   0.00000000E+00   0.00000000E+00   0.00000000E+00   0.00000000E+00   4.94921333E-01   1.54795362E+03   4.31624741E+03   0.00000000E+00   0.00000000E+00   0.00000000E+00   0.00000000E+00   1.93660784E+04
   1.22500000E+02   5.00000000E-01   5.00000000E-01  -5.31132151E+04   2.29394578E+03   0.00000000E+00   1.95046282E+04   4.98144277E+03   2.20679314E+03   7.19372704E+00   0.00000000E+00   0.00000000E+00   0.00000000E+00   0.00000000E+00   4.75314086E-01   1.54807879E+03   4.36224286E+03   0.00000000E+00   0.00000000E+00   0.00000000E+00   0.00000000E+00   1.93664212E+04
   1.57500000E+02   5.00000000E-01   5.00000000E-01  -5.31132277E+04   2.29394578E+03   0.00000000E+00   1.95046079E+04   4.99274445E+03   2.20679322E+03   7.19372703E+00   0.00000000E+00   0.00000000E+00   0.00000000E+00   0.00000000E+00   4.63352817E-01   1.54814379E+03   4.37354453E+03   0.00000000E+00   0.00000000E+00   0.00000000E+00   0.00000000E+00   1.93666087E+04
   1.92500000E+02   5.00000000E-01   5.00000000E-01  -5.31132686E+04   2.29394578E+03   0.00000000E+00   1.95046159E+04   4.99575658E+03   2.20679331E+03   7.19372702E+00   0.00000000E+00   0.00000000E+00   0.00000000E+00   0.00000000E+00   4.57010734E-01   1.54817475E+03   4.37655663E+03   0.00000000E+00   0.00000000E+00   0.00000000E+00   0.00000000E+00   1.93667165E+04
   2.27500000E+02   5.00000000E-01   5.00000000E-01  -5.31133268E+04   2.29394578E+03   0.00000000E+00   1.95046410E+04   4.99675746E+03   2.20679341E+03   7.19372701E+00   0.00000000E+00   0.00000000E+00   0.00000000E+00   0.00000000E+00   4.54422473E-01   1.54818516E+03   4.37755751E+03   0.00000000E+00   0.00000000E+00   0.00000000E+00   0.00000000E+00   1.93667795E+04
   2.62500000E+02   5.00000000E-01   5.00000000E-01  -5.31133972E+04   2.29394578E+03   0.00000000E+00   1.95046774E+04   4.99721052E+03   2.20679353E+03   7.19372701E+00   0.00000000E+00   0.00000000E+00   0.00000000E+00   0.00000000E+00   4.54305197E-01   1.54818258E+03   4.37801055E+03   0.00000000E+00   0.00000000E+00   0.00000000E+00   0.00000000E+00   1.93668158E+04
   2.97500000E+02   5.00000000E-01   5.00000000E-01  -5.31134772E+04   2.29394578E+03   0.00000000E+00   1.95047221E+04   4.99745564E+03   2.20679365E+03   7.19372700E+00   0.00000000E+00   0.00000000E+00   0.00000000E+00   0.00000000E+00   4.55818991E-01   1.54817143E+03   4.37825565E+03   0.00000000E+00   0.00000000E+00   0.00000000E+00   0.00000000E+00   1.93668356E+04
   3.32500000E+02   5.00000000E-01   5.00000000E-01  -5.31135652E+04   2.29394578E+03   0.00000000E+00   1.95047731E+04   4.99757526E+03   2.20679377E+03   7.19372699E+00   0.00000000E+00   0.00000000E+00   0.00000000E+00   0.00000000E+00   4.58415327E-01   1.54815444E+03   4.37837526E+03   0.00000000E+00   0.00000000E+00   0.00000000E+00   0.00000000E+00   1.93668448E+04
   3.67500000E+02   5.00000000E-01   5.00000000E-01  -5.31136601E+04   2.29394578E+03   0.00000000E+00   1.95048294E+04   4.99759395E+03   2.20679391E+03   7.19372698E+00   0.00000000E+00   0.00000000E+00   0.00000000E+00   0.00000000E+00   4.61731949E-01   1.54813335E+03   4.37839393E+03   0.00000000E+00   0.00000000E+00   0.00000000E+00   0.00000000E+00   1.93668471E+04
   4.02500000E+02   5.00000000E-01   5.00000000E-01  -5.31137613E+04   2.29394578E+03   0.00000000E+00   1.95048899E+04   4.99752339E+03   2.20679404E+03   7.19372697E+00   0.00000000E+00   0.00000000E+00   0.00000000E+00   0.00000000E+00   4.65525307E-01   1.54810928E+03   4.37832336E+03   0.00000000E+00   0.00000000E+00   0.00000000E+00   0.00000000E+00   1.93668451E+04
   4.37500000E+02   5.00000000E-01   5.00000000E-01  -5.31138681E+04   2.29394578E+03   0.00000000E+00   1.95049543E+04   4.99737241E+03   2.20679419E+03   7.19372695E+00   0.00000000E+00   0.00000000E+00   0.00000000E+00   0.00000000E+00   4.69632150E-01   1.54808300E+03   4.37817236E+03   0.00000000E+00   0.00000000E+00   0.00000000E+00   0.00000000E+00   1.93668400E+04
   4.72500000E+02   5.00000000E-01   5.00000000E-01  -5.31139800E+04   2.29394578E+03   0.00000000E+00   1.95050219E+04   4.99714898E+03   2.20679434E+03   7.19372694E+00   0.00000000E+00   0.00000000E+00   0.00000000E+00   0.00000000E+00   4.73941561E-01   1.54805504E+03   4.37794892E+03   0.00000000E+00   0.00000000E+00   0.00000000E+00   0.00000000E+00   1.93668330E+04
   5.07500000E+02   5.00000000E-01   5.00000000E-01  -5.31140963E+04   2.29394578E+03   0.00000000E+00   1.95050922E+04   4.99686072E+03   2.20679449E+03   7.19372693E+00   0.00000000E+00   0.00000000E+00   0.00000000E+00   0.00000000E+00   4.78352646E-01   1.54802581E+03   4.37766065E+03   0.00000000E+00   0.00000000E+00   0.00000000E+00   0.00000000E+00   1.93668245E+04
   5.42500000E+02   5.00000000E-01   5.00000000E-01  -5.31142163E+04   2.29394578E+03   0.00000000E+00   1.95051650E+04   4.99651484E+03   2.20679464E+03   7.19372692E+00   0.00000000E+00   0.00000000E+00   0.00000000E+00   0.00000000E+00   4.82797883E-01   1.54799563E+03   4.37731476E+03   0.00000000E+00   0.00000000E+00   0.00000000E+00   0.00000000E+00   1.93668149E+04
   5.77500000E+02   5.00000000E-01   5.00000000E-01  -5.31143394E+04   2.29394578E+03   0.00000000E+00   1.95052396E+04   4.99611820E+03   2.20679479E+03   7.19372691E+00   0.00000000E+00   0.00000000E+00   0.00000000E+00   0.00000000E+00   4.87224632E-01   1.54796475E+03   4.37691810E+03   0.00000000E+00   0.00000000E+00   0.00000000E+00   0.00000000E+00   1.93668043E+04
   6.12500000E+02   5.00000000E-01   5.00000000E-01  -5.31144647E+04   2.29394578E+03   0.00000000E+00   1.95053156E+04   4.99567723E+03   2.20679495E+03   7.19372690E+00   0.00000000E+00   0.00000000E+00   0.00000000E+00   0.00000000E+00   4.91590797E-01   1.54793342E+03   4.37647712E+03   0.00000000E+00   0.00000000E+00   0.00000000E+00   0.00000000E+00   1.93667928E+04
   6.47500000E+02   5.00000000E-01   5.00000000E-01  -5.31145914E+04   2.29394578E+03   0.00000000E+00   1.95053925E+04   4.99519795E+03   2.20679511E+03   7.19372689E+00   0.00000000E+00   0.00000000E+00   0.00000000E+00   0.00000000E+00   4.95733195E-01   1.54790172E+03   4.37599783E+03   0.00000000E+00   0.00000000E+00   0.00000000E+00   0.00000000E+00   1.93667801E+04
   6.82500000E+02   5.00000000E-01   5.00000000E-01  -5.31147184E+04   2.29394578E+03   0.00000000E+00   1.95054699E+04   4.99468594E+03   2.20679527E+03   7.19372688E+00   0.00000000E+00   0.00000000E+00   0.00000000E+00   0.00000000E+00   4.99466955E-01   1.54786977E+03   4.37548581E+03   0.00000000E+00   0.00000000E+00   0.00000000E+00   0.00000000E+00   1.93667657E+04
   7.17500000E+02   5.00000000E-01   5.00000000E-01  -5.31148446E+04   2.29394578E+03   0.00000000E+00   1.95055470E+04   4.99414639E+03   2.20679542E+03   7.19372687E+00   0.00000000E+00   0.00000000E+00   0.00000000E+00   0.00000000E+00   5.02999169E-01   1.54783799E+03   4.37494625E+03   0.00000000E+00   0.00000000E+00   0.00000000E+00   0.00000000E+00   1.93667502E+04
   7.52500000E+02   5.00000000E-01   5.00000000E-01  -5.31149686E+04   2.29394578E+03   0.00000000E+00   1.95056229E+04   4.99358402E+03   2.20679558E+03   7.19372686E+00   0.00000000E+00   0.00000000E+00   0.00000000E+00   0.00000000E+00   5.06316183E-01   1.54780655E+03   4.37438387E+03   0.00000000E+00   0.00000000E+00   0.00000000E+00   0.00000000E+00   1.93667336E+04
   7.87500000E+02   5.00000000E-01   5.00000000E-01  -5.31150892E+04   2.29394578E+03   0.00000000E+00   1.95056969E+04   4.99300318E+03   2.20679573E+03   7.19372685E+00   0.00000000E+00   0.00000000E+00   0.00000000E+00   0.00000000E+00   5.09407792E-01   1.54777561E+03   4.37380303E+03   0.00000000E+00   0.00000000E+00   0.00000000E+00   0.00000000E+00   1.93667154E+04
   8.22500000E+02   5.00000000E-01   5.00000000E-01  -5.31152049E+04   2.29394578E+03   0.00000000E+00   1.95057684E+04   4.99240781E+03   2.20679589E+03   7.19372684E+00   0.00000000E+00   0.00000000E+00   0.00000000E+00   0.00000000E+00   5.12269025E-01   1.54774536E+03   4.37320765E+03   0.00000000E+00   0.00000000E+00   0.00000000E+00   0.00000000E+00   1.93666955E+04
   8.57500000E+02   5.00000000E-01   5.00000000E-01  -5.31153145E+04   2.29394578E+03   0.00000000E+00   1.95058364E+04   4.99180149E+03   2.20679604E+03   7.19372682E+00   0.00000000E+00   0.00000000E+00   0.00000000E+00   0.00000000E+00   5.14900372E-01   1.54771593E+03   4.37260132E+03   0.00000000E+00   0.00000000E+00   0.00000000E+00   0.00000000E+00   1.93666736E+04
   8.92500000E+02   5.00000000E-01   5.00000000E-01  -5.31154164E+04   2.29394578E+03   0.00000000E+00   1.95059002E+04   4.99118744E+03   2.20679618E+03   7.19372683E+00   0.00000000E+00   0.00000000E+00   0.00000000E+00   0.00000000E+00   5.17307664E-01   1.54768750E+03   4.37198727E+03   0.00000000E+00   0.00000000E+00   0.00000000E+00   0.00000000E+00   1.93666496E+04
   9.27500000E+02   5.00000000E-01   5.00000000E-01  -5.31155094E+04   2.29394578E+03   0.00000000E+00   1.95059591E+04   4.99056854E+03   2.20679632E+03   7.19372683E+00   0.00000000E+00   0.00000000E+00   0.00000000E+00   0.00000000E+00   5.19501723E-01   1.54766021E+03   4.37136836E+03   0.00000000E+00   0.00000000E+00   0.00000000E+00   0.00000000E+00   1.93666233E+04
   9.62500000E+02   5.00000000E-01   5.00000000E-01  -5.31155921E+04   2.29394578E+03   0.00000000E+00   1.95060123E+04   4.98994737E+03   2.20679646E+03   7.19372683E+00   0.00000000E+00   0.00000000E+00   0.00000000E+00   0.00000000E+00   5.21497844E-01   1.54763419E+03   4.37074719E+03   0.00000000E+00   0.00000000E+00   0.00000000E+00   0.00000000E+00   1.93665944E+04
   9.97500000E+02   5.00000000E-01   5.00000000E-01  -5.31156633E+04   2.29394578E+03   0.00000000E+00   1.95060592E+04   4.98932623E+03   2.20679659E+03   7.19372684E+00   0.00000000E+00   0.00000000E+00   0.00000000E+00   0.00000000E+00   5.23314898E-01   1.54760955E+03   4.37012605E+03   0.00000000E+00   0.00000000E+00   0.00000000E+00   0.00000000E+00   1.93665628E+04
   1.03250000E+03   5.00000000E-01   5.00000000E-01  -5.31157219E+04   2.29394578E+03   0.00000000E+00   1.95060991E+04   4.98870714E+03   2.20679671E+03   7.19372685E+00   0.00000000E+00   0.00000000E+00   0.00000000E+00   0.00000000E+00   5.24974665E-01   1.54758641E+03   4.36950695E+03   0.00000000E+00   0.00000000E+00   0.00000000E+00   0.00000000E+00   1.93665284E+04
   1.06750000E+03   5.00000000E-01   5.00000000E-01  -5.31157670E+04   2.29394577E+03   0.00000000E+00   1.95061316E+04   4.98809186E+03   2.20679683E+03   7.19372686E+00   0.00000000E+00   0.00000000E+00   0.00000000E+00   0.00000000E+00   5.26500111E-01   1.54756485E+03   4.36889168E+03   0.00000000E+00   0.00000000E+00   0.00000000E+00   0.00000000E+00   1.93664912E+04
   1.10250000E+03   5.00000000E-01   5.00000000E-01  -5.31157978E+04   2.29394577E+03   0.00000000E+00   1.95061561E+04   4.98748197E+03   2.20679693E+03   7.19372687E+00   0.00000000E+00   0.00000000E+00   0.00000000E+00   0.00000000E+00   5.27914869E-01   1.54754493E+03   4.36828178E+03   0.00000000E+00   0.00000000E+00   0.00000000E+00   0.00000000E+00   1.93664510E+04
   1.13750000E+03   5.00000000E-01   5.00000000E-01  -5.31158139E+04   2.29394577E+03   0.00000000E+00   1.95061725E+04   4.98687880E+03   2.20679703E+03   7.19372687E+00   0.00000000E+00   0.00000000E+00   0.00000000E+00   0.00000000E+00   5.29241156E-01   1.54752670E+03   4.36767861E+03   0.00000000E+00   0.00000000E+00   0.00000000E+00   0.00000000E+00   1.93664080E+04
   1.17250000E+03   5.00000000E-01   5.00000000E-01  -5.31158148E+04   2.29394577E+03   0.00000000E+00   1.95061805E+04   4.98628351E+03   2.20679712E+03   7.19372688E+00   0.00000000E+00   0.00000000E+00   0.00000000E+00   0.00000000E+00   5.30499325E-01   1.54751017E+03   4.36708332E+03   0.00000000E+00   0.00000000E+00   0.00000000E+00   0.00000000E+00   1.93663621E+04
   1.20750000E+03   5.00000000E-01   5.00000000E-01  -5.31158006E+04   2.29394577E+03   0.00000000E+00   1.95061801E+04   4.98569709E+03   2.20679720E+03   7.19372689E+00   0.00000000E+00   0.00000000E+00   0.00000000E+00   0.00000000E+00   5.31705987E-01   1.54749535E+03   4.36649691E+03   0.00000000E+00   0.00000000E+00   0.00000000E+00   0.00000000E+00   1.93663135E+04
   1.24250000E+03   5.00000000E-01   5.00000000E-01  -5.31157716E+04   2.29394577E+03   0.00000000E+00   1.95061716E+04   4.98512038E+03   2.20679726E+03   7.19372690E+00   0.00000000E+00   0.00000000E+00   0.00000000E+00   0.00000000E+00   5.32874060E-01   1.54748222E+03   4.36592020E+03   0.00000000E+00   0.00000000E+00   0.00000000E+00   0.00000000E+00   1.93662625E+04
   1.27750000E+03   5.00000000E-01   5.00000000E-01  -5.31157283E+04   2.29394577E+03   0.00000000E+00   1.95061550E+04   4.98455408E+03   2.20679732E+03   7.19372691E+00   0.00000000E+00   0.00000000E+00   0.00000000E+00   0.00000000E+00   5.34010645E-01   1.54747073E+03   4.36535389E+03   0.00000000E+00   0.00000000E+00   0.00000000E+00   0.00000000E+00   1.93662091E+04
   1.31250000E+03   5.00000000E-01   5.00000000E-01  -5.31156714E+04   2.29394577E+03   0.00000000E+00   1.95061310E+04   4.98399875E+03   2.20679736E+03   7.19372692E+00   0.00000000E+00   0.00000000E+00   0.00000000E+00   0.00000000E+00   5.35118114E-01   1.54746081E+03   4.36479856E+03   0.00000000E+00   0.00000000E+00   0.00000000E+00   0.00000000E+00   1.93661537E+04
   1.34750000E+03   5.00000000E-01   5.00000000E-01  -5.31156021E+04   2.29394577E+03   0.00000000E+00   1.95060999E+04   4.98345485E+03   2.20679739E+03   7.19372692E+00   0.00000000E+00   0.00000000E+00   0.00000000E+00   0.00000000E+00   5.36193853E-01   1.54745237E+03   4.36425467E+03   0.00000000E+00   0.00000000E+00   0.00000000E+00   0.00000000E+00   1.93660967E+04
   1.38250000E+03   5.00000000E-01   5.00000000E-01  -5.31155215E+04   2.29394577E+03   0.00000000E+00   1.95060626E+04   4.98292275E+03   2.20679741E+03   7.19372692E+00   0.00000000E+00   0.00000000E+00   0.00000000E+00   0.00000000E+00   5.37230952E-01   1.54744532E+03   4.36372257E+03   0.00000000E+00   0.00000000E+00   0.00000000E+00   0.00000000E+00   1.93660382E+04
   1.41750000E+03   5.00000000E-01   5.00000000E-01  -5.31154310E+04   2.29394577E+03   0.00000000E+00   1.95060198E+04   4.98240272E+03   2.20679742E+03   7.19372692E+00   0.00000000E+00   0.00000000E+00   0.00000000E+00   0.00000000E+00   5.38218660E-01   1.54743955E+03   4.36320254E+03   0.00000000E+00   0.00000000E+00   0.00000000E+00   0.00000000E+00   1.93659788E+04
   1.45250000E+03   5.00000000E-01   5.00000000E-01  -5.31153322E+04   2.29394577E+03   0.00000000E+00   1.95059722E+04   4.98189494E+03   2.20679742E+03   7.19372690E+00   0.00000000E+00   0.00000000E+00   0.00000000E+00   0.00000000E+00   5.39143262E-01   1.54743491E+03   4.36269477E+03   0.00000000E+00   0.00000000E+00   0.00000000E+00   0.00000000E+00   1.93659187E+04
   1.48750000E+03   5.00000000E-01   5.00000000E-01  -5.31152267E+04   2.29394577E+03   0.00000000E+00   1.95059209E+04   4.98139954E+03   2.20679741E+03   7.19372688E+00   0.00000000E+00   0.00000000E+00   0.00000000E+00   0.00000000E+00   5.39988581E-01   1.54743128E+03   4.36219938E+03   0.00000000E+00   0.00000000E+00   0.00000000E+00   0.00000000E+00   1.93658585E+04
   1.52250000E+03   5.00000000E-01   5.00000000E-01  -5.31151161E+04   2.29394577E+03   0.00000000E+00   1.95058667E+04   4.98091658E+03   2.20679738E+03   7.19372684E+00   0.00000000E+00   0.00000000E+00   0.00000000E+00   0.00000000E+00   5.40737630E-01   1.54742851E+03   4.36171642E+03   0.00000000E+00   0.00000000E+00   0.00000000E+00   0.00000000E+00   1.93657984E+04
   1.55750000E+03   5.00000000E-01   5.00000000E-01  -5.31150021E+04   2.29394576E+03   0.00000000E+00   1.95058104E+04   4.98044606E+03   2.20679735E+03   7.19372677E+00   0.00000000E+00   0.00000000E+00   0.00000000E+00   0.00000000E+00   5.41373025E-01   1.54742647E+03   4.36124590E+03   0.00000000E+00   0.00000000E+00   0.00000000E+00   0.00000000E+00   1.93657388E+04
   1.59250000E+03   5.00000000E-01   5.00000000E-01  -5.31148862E+04   2.29394576E+03   0.00000000E+00   1.95057530E+04   4.97998793E+03   2.20679730E+03   7.19372667E+00   0.00000000E+00   0.00000000E+00   0.00000000E+00   0.00000000E+00   5.41878087E-01   1.54742501E+03   4.36078778E+03   0.00000000E+00   0.00000000E+00   0.00000000E+00   0.00000000E+00   1.93656800E+04
   1.62750000E+03   5.00000000E-01   5.00000000E-01  -5.31147699E+04   2.29394576E+03   0.00000000E+00   1.95056952E+04   4.97954212E+03   2.20679725E+03   7.19372653E+00   0.00000000E+00   0.00000000E+00   0.00000000E+00   0.00000000E+00   5.42237549E-01   1.54742399E+03   4.36034197E+03   0.00000000E+00   0.00000000E+00   0.00000000E+00   0.00000000E+00   1.93656223E+04
   1.66250000E+03   5.00000000E-01   5.00000000E-01  -5.31146545E+04   2.29394576E+03   0.00000000E+00   1.95056378E+04   4.97910850E+03   2.20679719E+03   7.19372632E+00   0.00000000E+00   0.00000000E+00   0.00000000E+00   0.00000000E+00   5.42437714E-01   1.54742328E+03   4.35990836E+03   0.00000000E+00   0.00000000E+00   0.00000000E+00   0.00000000E+00   1.93655660E+04
   1.69750000E+03   5.00000000E-01   5.00000000E-01  -5.31145412E+04   2.29394576E+03   0.00000000E+00   1.95055815E+04   4.97868692E+03   2.20679712E+03   7.19372603E+00   0.00000000E+00   0.00000000E+00   0.00000000E+00   0.00000000E+00   5.42467008E-01   1.54742275E+03   4.35948679E+03   0.00000000E+00   0.00000000E+00   0.00000000E+00   0.00000000E+00   1.93655113E+04
   1.73250000E+03   5.00000000E-01   5.00000000E-01  -5.31144310E+04   2.29394576E+03   0.00000000E+00   1.95055268E+04   4.97827721E+03   2.20679705E+03   7.19372565E+00   0.00000000E+00   0.00000000E+00   0.00000000E+00   0.00000000E+00   5.42316000E-01   1.54742231E+03   4.35907708E+03   0.00000000E+00   0.00000000E+00   0.00000000E+00   0.00000000E+00   1.93654582E+04
   1.76750000E+03   5.00000000E-01   5.00000000E-01  -5.31143247E+04   2.29394575E+03   0.00000000E+00   1.95054742E+04   4.97787917E+03   2.20679697E+03   7.19372512E+00   0.00000000E+00   0.00000000E+00   0.00000000E+00   0.00000000E+00   5.41977321E-01   1.54742183E+03   4.35867905E+03   0.00000000E+00   0.00000000E+00   0.00000000E+00   0.00000000E+00   1.93654070E+04
   1.80250000E+03   5.00000000E-01   5.00000000E-01  -5.31142232E+04   2.29394575E+03   0.00000000E+00   1.95054241E+04   4.97749260E+03   2.20679688E+03   7.19372444E+00   0.00000000E+00   0.00000000E+00   0.00000000E+00   0.00000000E+00   5.41445591E-01   1.54742124E+03   4.35829249E+03   0.00000000E+00   0.00000000E+00   0.00000000E+00   0.00000000E+00   1.93653577E+04
   1.83750000E+03   5.00000000E-01   5.00000000E-01  -5.31141269E+04   2.29394575E+03   0.00000000E+00   1.95053768E+04   4.97711726E+03   2.20679679E+03   7.19372355E+00   0.00000000E+00   0.00000000E+00   0.00000000E+00   0.00000000E+00   5.40717190E-01   1.54742044E+03   4.35791716E+03   0.00000000E+00   0.00000000E+00   0.00000000E+00   0.00000000E+00   1.93653103E+04
   1.87250000E+03   5.00000000E-01   5.00000000E-01  -5.31140362E+04   2.29394575E+03   0.00000000E+00   1.95053326E+04   4.97675292E+03   2.20679669E+03   7.19372241E+00   0.00000000E+00   0.00000000E+00   0.00000000E+00   0.00000000E+00   5.39790047E-01   1.54741939E+03   4.35755283E+03   0.00000000E+00   0.00000000E+00   0.00000000E+00   0.00000000E+00   1.93652649E+04
   1.90750000E+03   5.00000000E-01   5.00000000E-01  -5.31139516E+04   2.29394574E+03   0.00000000E+00   1.95052916E+04   4.97639935E+03   2.20679659E+03   7.19372098E+00   0.00000000E+00   0.00000000E+00   0.00000000E+00   0.00000000E+00   5.38663314E-01   1.54741801E+03   4.35719927E+03   0.00000000E+00   0.00000000E+00   0.00000000E+00   0.00000000E+00   1.93652215E+04
   1.94250000E+03   5.00000000E-01   5.00000000E-01  -5.31138731E+04   2.29394574E+03   0.00000000E+00   1.95052540E+04   4.97605629E+03   2.20679649E+03   7.19371920E+00   0.00000000E+00   0.00000000E+00   0.00000000E+00   0.00000000E+00   5.37336993E-01   1.54741626E+03   4.35685623E+03   0.00000000E+00   0.00000000E+00   0.00000000E+00   0.00000000E+00   1.93651799E+04
   1.97750000E+03   5.00000000E-01   5.00000000E-01  -5.31138009E+04   2.29394574E+03   0.00000000E+00   1.95052199E+04   4.97572350E+03   2.20679639E+03   7.19371702E+00   0.00000000E+00   0.00000000E+00   0.00000000E+00   0.00000000E+00   5.35811980E-01   1.54741411E+03   4.35652345E+03   0.00000000E+00   0.00000000E+00   0.00000000E+00   0.00000000E+00   1.93651402E+04
   2.01250000E+03   5.00000000E-01   5.00000000E-01  -5.31137350E+04   2.29394574E+03   0.00000000E+00   1.95051892E+04   4.97540073E+03   2.20679628E+03   7.19371436E+00   0.00000000E+00   0.00000000E+00   0.00000000E+00   0.00000000E+00   5.34089412E-01   1.54741153E+03   4.35620070E+03   0.00000000E+00   0.00000000E+00   0.00000000E+00   0.00000000E+00   1.93651023E+04
   2.04750000E+03   5.00000000E-01   5.00000000E-01  -5.31136755E+04   2.29394573E+03   0.00000000E+00   1.95051621E+04   4.97508774E+03   2.20679618E+03   7.19371116E+00   0.00000000E+00   0.00000000E+00   0.00000000E+00   0.00000000E+00   5.32170906E-01   1.54740850E+03   4.35588772E+03   0.00000000E+00   0.00000000E+00   0.00000000E+00   0.00000000E+00   1.93650662E+04
   2.08250000E+03   5.00000000E-01   5.00000000E-01  -5.31136223E+04   2.29394573E+03   0.00000000E+00   1.95051384E+04   4.97478427E+03   2.20679607E+03   7.19370734E+00   0.00000000E+00   0.00000000E+00   0.00000000E+00   0.00000000E+00   5.30058217E-01   1.54740500E+03   4.35558427E+03   0.00000000E+00   0.00000000E+00   0.00000000E+00   0.00000000E+00   1.93650318E+04
   2.11750000E+03   5.00000000E-01   5.00000000E-01  -5.31135753E+04   2.29394572E+03   0.00000000E+00   1.95051182E+04   4.97449009E+03   2.20679596E+03   7.19370281E+00   0.00000000E+00   0.00000000E+00   0.00000000E+00   0.00000000E+00   5.27753051E-01   1.54740103E+03   4.35529011E+03   0.00000000E+00   0.00000000E+00   0.00000000E+00   0.00000000E+00   1.93649991E+04
   2.15250000E+03   5.00000000E-01   5.00000000E-01  -5.31135349E+04   2.29394572E+03   0.00000000E+00   1.95051016E+04   4.97420495E+03   2.20679585E+03   7.19369749E+00   0.00000000E+00   0.00000000E+00   0.00000000E+00   0.00000000E+00   5.25354447E-01   1.54739658E+03   4.35500499E+03   0.00000000E+00   0.00000000E+00   0.00000000E+00   0.00000000E+00   1.93649692E+04
   2.18750000E+03   5.00000000E-01   5.00000000E-01  -5.31135004E+04   2.29394571E+03   0.00000000E+00   1.95050882E+04   4.97392862E+03   2.20679575E+03   7.19369130E+00   0.00000000E+00   0.00000000E+00   0.00000000E+00   0.00000000E+00   5.22839125E-01   1.54739163E+03   4.35472869E+03   0.00000000E+00   0.00000000E+00   0.00000000E+00   0.00000000E+00   1.93649416E+04
   2.22250000E+03   5.00000000E-01   5.00000000E-01  -5.31134714E+04   2.29394571E+03   0.00000000E+00   1.95050779E+04   4.97366088E+03   2.20679564E+03   7.19368416E+00   0.00000000E+00   0.00000000E+00   0.00000000E+00   0.00000000E+00   5.20142005E-01   1.54738619E+03   4.35446098E+03   0.00000000E+00   0.00000000E+00   0.00000000E+00   0.00000000E+00   1.93649155E+04
   2.25750000E+03   5.00000000E-01   5.00000000E-01  -5.31134483E+04   2.29394570E+03   0.00000000E+00   1.95050709E+04   4.97340152E+03   2.20679554E+03   7.19367600E+00   0.00000000E+00   0.00000000E+00   0.00000000E+00   0.00000000E+00   5.17249798E-01   1.54738025E+03   4.35420164E+03   0.00000000E+00   0.00000000E+00   0.00000000E+00   0.00000000E+00   1.93648908E+04
   2.29250000E+03   5.00000000E-01   5.00000000E-01  -5.31134310E+04   2.29394570E+03   0.00000000E+00   1.95050672E+04   4.97315030E+03   2.20679543E+03   7.19366676E+00   0.00000000E+00   0.00000000E+00   0.00000000E+00   0.00000000E+00   5.14152090E-01   1.54737383E+03   4.35395045E+03   0.00000000E+00   0.00000000E+00   0.00000000E+00   0.00000000E+00   1.93648674E+04
   2.32750000E+03   5.00000000E-01   5.00000000E-01  -5.31134194E+04   2.29394569E+03   0.00000000E+00   1.95050666E+04   4.97290701E+03   2.20679533E+03   7.19365642E+00   0.00000000E+00   0.00000000E+00   0.00000000E+00   0.00000000E+00   5.10848293E-01   1.54736696E+03   4.35370720E+03   0.00000000E+00   0.00000000E+00   0.00000000E+00   0.00000000E+00   1.93648454E+04
   2.36250000E+03   5.00000000E-01   5.00000000E-01  -5.31134136E+04   2.29394568E+03   0.00000000E+00   1.95050693E+04   4.97267146E+03   2.20679524E+03   7.19364501E+00   0.00000000E+00   0.00000000E+00   0.00000000E+00   0.00000000E+00   5.07351255E-01   1.54735963E+03   4.35347168E+03   0.00000000E+00   0.00000000E+00   0.00000000E+00   0.00000000E+00   1.93648250E+04
   2.39750000E+03   5.00000000E-01   5.00000000E-01  -5.31134135E+04   2.29394568E+03   0.00000000E+00   1.95050751E+04   4.97244343E+03   2.20679514E+03   7.19363261E+00   0.00000000E+00   0.00000000E+00   0.00000000E+00   0.00000000E+00   5.03671063E-01   1.54735187E+03   4.35324368E+03   0.00000000E+00   0.00000000E+00   0.00000000E+00   0.00000000E+00   1.93648063E+04
   2.43250000E+03   5.00000000E-01   5.00000000E-01  -5.31134191E+04   2.29394567E+03   0.00000000E+00   1.95050841E+04   4.97222273E+03   2.20679505E+03   7.19361940E+00   0.00000000E+00   0.00000000E+00   0.00000000E+00   0.00000000E+00   4.99794146E-01   1.54734369E+03   4.35302303E+03   0.00000000E+00   0.00000000E+00   0.00000000E+00   0.00000000E+00   1.93647890E+04
   2.46750000E+03   5.00000000E-01   5.00000000E-01  -5.31134305E+04   2.29394566E+03   0.00000000E+00   1.95050963E+04   4.97200918E+03   2.20679496E+03   7.19360562E+00   0.00000000E+00   0.00000000E+00   0.00000000E+00   0.00000000E+00   4.95719667E-01   1.54733510E+03   4.35280952E+03   0.00000000E+00   0.00000000E+00   0.00000000E+00   0.00000000E+00   1.93647733E+04
   2.50250000E+03   5.00000000E-01   5.00000000E-01  -5.31134477E+04   2.29394565E+03   0.00000000E+00   1.95051117E+04   4.97180259E+03   2.20679488E+03   7.19359163E+00   0.00000000E+00   0.00000000E+00   0.00000000E+00   0.00000000E+00   4.91450512E-01   1.54732611E+03   4.35260297E+03   0.00000000E+00   0.00000000E+00   0.00000000E+00   0.00000000E+00   1.93647592E+04
   2.53750000E+03   5.00000000E-01   5.00000000E-01  -5.31134709E+04   2.29394564E+03   0.00000000E+00   1.95051304E+04   4.97160278E+03   2.20679479E+03   7.19357786E+00   0.00000000E+00   0.00000000E+00   0.00000000E+00   0.00000000E+00   4.86989305E-01   1.54731675E+03   4.35240319E+03   0.00000000E+00   0.00000000E+00   0.00000000E+00   0.00000000E+00   1.93647468E+04
   2.57250000E+03   5.00000000E-01   5.00000000E-01  -5.31135001E+04   2.29394563E+03   0.00000000E+00   1.95051523E+04   4.97140956E+03   2.20679471E+03   7.19356486E+00   0.00000000E+00   0.00000000E+00   0.00000000E+00   0.00000000E+00   4.82339559E-01   1.54730702E+03   4.35221001E+03   0.00000000E+00   0.00000000E+00   0.00000000E+00   0.00000000E+00   1.93647363E+04
   2.60750000E+03   5.00000000E-01   5.00000000E-01  -5.31135356E+04   2.29394562E+03   0.00000000E+00   1.95051777E+04   4.97122277E+03   2.20679463E+03   7.19355326E+00   0.00000000E+00   0.00000000E+00   0.00000000E+00   0.00000000E+00   4.77502925E-01   1.54729693E+03   4.35202325E+03   0.00000000E+00   0.00000000E+00   0.00000000E+00   0.00000000E+00   1.93647278E+04
   2.64250000E+03   5.00000000E-01   5.00000000E-01  -5.31135775E+04   2.29394561E+03   0.00000000E+00   1.95052065E+04   4.97104223E+03   2.20679456E+03   7.19354375E+00   0.00000000E+00   0.00000000E+00   0.00000000E+00   0.00000000E+00   4.72482727E-01   1.54728648E+03   4.35184274E+03   0.00000000E+00   0.00000000E+00   0.00000000E+00   0.00000000E+00   1.93647213E+04
   2.67750000E+03   5.00000000E-01   5.00000000E-01  -5.31136262E+04   2.29394559E+03   0.00000000E+00   1.95052390E+04   4.97086776E+03   2.20679448E+03   7.19353705E+00   0.00000000E+00   0.00000000E+00   0.00000000E+00   0.00000000E+00   4.67309821E-01   1.54727570E+03   4.35166830E+03   0.00000000E+00   0.00000000E+00   0.00000000E+00   0.00000000E+00   1.93647174E+04
   2.71250000E+03   5.00000000E-01   5.00000000E-01  -5.31136815E+04   2.29394558E+03   0.00000000E+00   1.95052750E+04   4.97069922E+03   2.20679441E+03   7.19353386E+00   0.00000000E+00   0.00000000E+00   0.00000000E+00   0.00000000E+00   4.61967870E-01   1.54726458E+03   4.35149978E+03   0.00000000E+00   0.00000000E+00   0.00000000E+00   0.00000000E+00   1.93647159E+04