 TITLE = "Total Component Concentration in Minerals" 
VARIABLES = "X"          "Y"              "Z"            "H+"             "Al+++"          "CO2(aq)"        "Mg++"           "Ca++"           "Fe++"           "Fe+++"          "Ba++"           "Sr++"           "Cl-"            "F-"             "K+"             "HS-"            "Na+"            "SO4--"          "O2(aq)"         "B(OH)3(aq)"     "HPO4--"         "NO3-"           "H4SiO4(aq)"    
 ZONE I=         100 , J=           1 , K=           1  F=POINT
   1.75000000E+01   5.00000000E-01   5.00000000E-01  -4.35438848E+04   2.90249115E+03   0.00000000E+00   8.99519190E+03   1.72437329E+03   6.21619701E+03   7.19372705E+00   0.00000000E+00   0.00000000E+00   0.00000000E+00   0.00000000E+00   0.00000000E+00   1.09191813E-05   9.43305772E+02   3.12151121E-06  -1.91854493E-06   0.00000000E+00   0.00000000E+00   0.00000000E+00   1.51221212E+04
   5.25000000E+01   5.00000000E-01   5.00000000E-01  -4.35406640E+04   2.90248956E+03   0.00000000E+00   8.98835226E+03   1.72437286E+03   6.21994941E+03   7.19372707E+00   0.00000000E+00   0.00000000E+00   0.00000000E+00   0.00000000E+00   0.00000000E+00   1.09192560E-05   9.46265088E+02   3.12843407E-06  -1.91854493E-06   0.00000000E+00   0.00000000E+00   0.00000000E+00   1.51292272E+04
   8.75000000E+01   5.00000000E-01   5.00000000E-01  -4.35413846E+04   2.90248956E+03   0.00000000E+00   8.98334516E+03   1.72437132E+03   6.22472453E+03   7.19372707E+00   0.00000000E+00   0.00000000E+00   0.00000000E+00   0.00000000E+00   0.00000000E+00   1.09193123E-05   9.47452698E+02   3.13614023E-06  -1.91854493E-06   0.00000000E+00   0.00000000E+00   0.00000000E+00   1.51306487E+04
   1.22500000E+02   5.00000000E-01   5.00000000E-01  -4.35423441E+04   2.90248956E+03   0.00000000E+00   8.97863217E+03   1.72437056E+03   6.22950171E+03   7.19372707E+00   0.00000000E+00   0.00000000E+00   0.00000000E+00   0.00000000E+00   0.00000000E+00   1.09193476E-05   9.48285353E+02   3.14472088E-06  -1.91854493E-06   0.00000000E+00   0.00000000E+00   0.00000000E+00   1.51307340E+04
   1.57500000E+02   5.00000000E-01   5.00000000E-01  -4.35431334E+04   2.90248956E+03   0.00000000E+00   8.97445966E+03   1.72437061E+03   6.23371707E+03   7.19372707E+00   0.00000000E+00   0.00000000E+00   0.00000000E+00   0.00000000E+00   0.00000000E+00   1.09193652E-05   9.48988919E+02   3.15427240E-06  -1.91854493E-06   0.00000000E+00   0.00000000E+00   0.00000000E+00   1.51306433E+04
   1.92500000E+02   5.00000000E-01   5.00000000E-01  -4.35437587E+04   2.90248956E+03   0.00000000E+00   8.97100580E+03   1.72437032E+03   6.23719498E+03   7.19372707E+00   0.00000000E+00   0.00000000E+00   0.00000000E+00   0.00000000E+00   0.00000000E+00   1.09193694E-05   9.49566649E+02   3.16489918E-06  -1.91854493E-06   0.00000000E+00   0.00000000E+00   0.00000000E+00   1.51305458E+04
   2.27500000E+02   5.00000000E-01   5.00000000E-01  -4.35442812E+04   2.90248956E+03   0.00000000E+00   8.96828529E+03   1.72436942E+03   6.23995375E+03   7.19372707E+00   0.00000000E+00   0.00000000E+00   0.00000000E+00   0.00000000E+00   0.00000000E+00   1.09193642E-05   9.50014479E+02   3.17671590E-06  -1.91854493E-06   0.00000000E+00   0.00000000E+00   0.00000000E+00   1.51304500E+04
   2.62500000E+02   5.00000000E-01   5.00000000E-01  -4.35447499E+04   2.90248956E+03   0.00000000E+00   8.96622184E+03   1.72436905E+03   6.24208810E+03   7.19372707E+00   0.00000000E+00   0.00000000E+00   0.00000000E+00   0.00000000E+00   0.00000000E+00   1.09193529E-05   9.50342076E+02   3.18984942E-06  -1.91854493E-06   0.00000000E+00   0.00000000E+00   0.00000000E+00   1.51303476E+04
   2.97500000E+02   5.00000000E-01   5.00000000E-01  -4.35451973E+04   2.90248956E+03   0.00000000E+00   8.96471171E+03   1.72436916E+03   6.24370952E+03   7.19372707E+00   0.00000000E+00   0.00000000E+00   0.00000000E+00   0.00000000E+00   0.00000000E+00   1.09193377E-05   9.50566693E+02   3.20444121E-06  -1.91854493E-06   0.00000000E+00   0.00000000E+00   0.00000000E+00   1.51302376E+04
   3.32500000E+02   5.00000000E-01   5.00000000E-01  -4.35456417E+04   2.90248956E+03   0.00000000E+00   8.96364972E+03   1.72436924E+03   6.24492356E+03   7.19372707E+00   0.00000000E+00   0.00000000E+00   0.00000000E+00   0.00000000E+00   0.00000000E+00   1.09193202E-05   9.50706791E+02   3.22064988E-06  -1.91854493E-06   0.00000000E+00   0.00000000E+00   0.00000000E+00   1.51301201E+04
   3.67500000E+02   5.00000000E-01   5.00000000E-01  -4.35460913E+04   2.90248956E+03   0.00000000E+00   8.96293960E+03   1.72436969E+03   6.24582176E+03   7.19372707E+00   0.00000000E+00   0.00000000E+00   0.00000000E+00   0.00000000E+00   0.00000000E+00   1.09193018E-05   9.50779359E+02   3.23865354E-06  -1.91854493E-06   0.00000000E+00   0.00000000E+00   0.00000000E+00   1.51299936E+04
   4.02500000E+02   5.00000000E-01   5.00000000E-01  -4.35465491E+04   2.90248956E+03   0.00000000E+00   8.96250188E+03   1.72437054E+03   6.24647761E+03   7.19372706E+00   0.00000000E+00   0.00000000E+00   0.00000000E+00   0.00000000E+00   0.00000000E+00   1.09192831E-05   9.50799196E+02   3.25865293E-06  -1.91854493E-06   0.00000000E+00   0.00000000E+00   0.00000000E+00   1.51298594E+04
   4.37500000E+02   5.00000000E-01   5.00000000E-01  -4.35470129E+04   2.90248956E+03   0.00000000E+00   8.96227198E+03   1.72437167E+03   6.24694862E+03   7.19372706E+00   0.00000000E+00   0.00000000E+00   0.00000000E+00   0.00000000E+00   0.00000000E+00   1.09192647E-05   9.50778552E+02   3.28087497E-06  -1.91854493E-06   0.00000000E+00   0.00000000E+00   0.00000000E+00   1.51297185E+04
   4.72500000E+02   5.00000000E-01   5.00000000E-01  -4.35474768E+04   2.90248956E+03   0.00000000E+00   8.96219780E+03   1.72437301E+03   6.24727897E+03   7.19372706E+00   0.00000000E+00   0.00000000E+00   0.00000000E+00   0.00000000E+00   0.00000000E+00   1.09192471E-05   9.50727412E+02   3.30557694E-06  -1.91854493E-06   0.00000000E+00   0.00000000E+00   0.00000000E+00   1.51295713E+04
   5.07500000E+02   5.00000000E-01   5.00000000E-01  -4.35479326E+04   2.90248956E+03   0.00000000E+00   8.96223797E+03   1.72437452E+03   6.24750192E+03   7.19372706E+00   0.00000000E+00   0.00000000E+00   0.00000000E+00   0.00000000E+00   0.00000000E+00   1.09192304E-05   9.50653913E+02   3.33305144E-06  -1.91854493E-06   0.00000000E+00   0.00000000E+00   0.00000000E+00   1.51294181E+04
   5.42500000E+02   5.00000000E-01   5.00000000E-01  -4.35483703E+04   2.90248956E+03   0.00000000E+00   8.96235958E+03   1.72437617E+03   6.24764214E+03   7.19372705E+00   0.00000000E+00   0.00000000E+00   0.00000000E+00   0.00000000E+00   0.00000000E+00   1.09192147E-05   9.50564681E+02   3.36363227E-06  -1.91854493E-06   0.00000000E+00   0.00000000E+00   0.00000000E+00   1.51292592E+04
   5.77500000E+02   5.00000000E-01   5.00000000E-01  -4.35487792E+04   2.90248956E+03   0.00000000E+00   8.96253648E+03   1.72437790E+03   6.24771773E+03   7.19372705E+00   0.00000000E+00   0.00000000E+00   0.00000000E+00   0.00000000E+00   0.00000000E+00   1.09192002E-05   9.50465110E+02   3.39770157E-06  -1.91854493E-06   0.00000000E+00   0.00000000E+00   0.00000000E+00   1.51290947E+04
   6.12500000E+02   5.00000000E-01   5.00000000E-01  -4.35491484E+04   2.90248956E+03   0.00000000E+00   8.96274798E+03   1.72437971E+03   6.24774184E+03   7.19372704E+00   0.00000000E+00   0.00000000E+00   0.00000000E+00   0.00000000E+00   0.00000000E+00   1.09191868E-05   9.50359565E+02   3.43569831E-06  -1.91854493E-06   0.00000000E+00   0.00000000E+00   0.00000000E+00   1.51289246E+04
   6.47500000E+02   5.00000000E-01   5.00000000E-01  -4.35494681E+04   2.90248956E+03   0.00000000E+00   8.96297793E+03   1.72438156E+03   6.24772387E+03   7.19372702E+00   0.00000000E+00   0.00000000E+00   0.00000000E+00   0.00000000E+00   0.00000000E+00   1.09191745E-05   9.50251527E+02   3.47812869E-06  -1.91854493E-06   0.00000000E+00   0.00000000E+00   0.00000000E+00   1.51287488E+04
   6.82500000E+02   5.00000000E-01   5.00000000E-01  -4.35497295E+04   2.90248955E+03   0.00000000E+00   8.96321400E+03   1.72438346E+03   6.24767052E+03   7.19372700E+00   0.00000000E+00   0.00000000E+00   0.00000000E+00   0.00000000E+00   0.00000000E+00   1.09191633E-05   9.50143685E+02   3.52557859E-06  -1.91854493E-06   0.00000000E+00   0.00000000E+00   0.00000000E+00   1.51285673E+04
   7.17500000E+02   5.00000000E-01   5.00000000E-01  -4.35499262E+04   2.90248955E+03   0.00000000E+00   8.96344726E+03   1.72438541E+03   6.24758652E+03   7.19372698E+00   0.00000000E+00   0.00000000E+00   0.00000000E+00   0.00000000E+00   0.00000000E+00   1.09191532E-05   9.50038006E+02   3.57872889E-06  -1.91854493E-06   0.00000000E+00   0.00000000E+00   0.00000000E+00   1.51283803E+04
   7.52500000E+02   5.00000000E-01   5.00000000E-01  -4.35500544E+04   2.90248955E+03   0.00000000E+00   8.96367174E+03   1.72438741E+03   6.24747523E+03   7.19372694E+00   0.00000000E+00   0.00000000E+00   0.00000000E+00   0.00000000E+00   0.00000000E+00   1.09191440E-05   9.49935804E+02   3.63837417E-06  -1.91854493E-06   0.00000000E+00   0.00000000E+00   0.00000000E+00   1.51281877E+04
   7.87500000E+02   5.00000000E-01   5.00000000E-01  -4.35501128E+04   2.90248955E+03   0.00000000E+00   8.96388410E+03   1.72438946E+03   6.24733904E+03   7.19372688E+00   0.00000000E+00   0.00000000E+00   0.00000000E+00   0.00000000E+00   0.00000000E+00   1.09191358E-05   9.49837795E+02   3.70544568E-06  -1.91854493E-06   0.00000000E+00   0.00000000E+00   0.00000000E+00   1.51279901E+04
   8.22500000E+02   5.00000000E-01   5.00000000E-01  -4.35501032E+04   2.90248955E+03   0.00000000E+00   8.96408331E+03   1.72439156E+03   6.24717971E+03   7.19372680E+00   0.00000000E+00   0.00000000E+00   0.00000000E+00   0.00000000E+00   0.00000000E+00   1.09191284E-05   9.49744178E+02   3.78103981E-06  -1.91854493E-06   0.00000000E+00   0.00000000E+00   0.00000000E+00   1.51277880E+04
   8.57500000E+02   5.00000000E-01   5.00000000E-01  -4.35500296E+04   2.90248955E+03   0.00000000E+00   8.96427024E+03   1.72439368E+03   6.24699860E+03   7.19372668E+00   0.00000000E+00   0.00000000E+00   0.00000000E+00   0.00000000E+00   0.00000000E+00   1.09191218E-05   9.49654714E+02   3.86645335E-06  -1.91854493E-06   0.00000000E+00   0.00000000E+00   0.00000000E+00   1.51275820E+04
   8.92500000E+02   5.00000000E-01   5.00000000E-01  -4.35498983E+04   2.90248955E+03   0.00000000E+00   8.96444722E+03   1.72439577E+03   6.24679686E+03   7.19372653E+00   0.00000000E+00   0.00000000E+00   0.00000000E+00   0.00000000E+00   0.00000000E+00   1.09191159E-05   9.49568817E+02   3.96322749E-06  -1.91854493E-06   0.00000000E+00   0.00000000E+00   0.00000000E+00   1.51273730E+04
   9.27500000E+02   5.00000000E-01   5.00000000E-01  -4.35497174E+04   2.90248955E+03   0.00000000E+00   8.96461759E+03   1.72439784E+03   6.24657555E+03   7.19372632E+00   0.00000000E+00   0.00000000E+00   0.00000000E+00   0.00000000E+00   0.00000000E+00   1.09191107E-05   9.49485653E+02   4.07320293E-06  -1.91854493E-06   0.00000000E+00   0.00000000E+00   0.00000000E+00   1.51271620E+04
   9.62500000E+02   5.00000000E-01   5.00000000E-01  -4.35494958E+04   2.90248954E+03   0.00000000E+00   8.96478524E+03   1.72439992E+03   6.24633572E+03   7.19372604E+00   0.00000000E+00   0.00000000E+00   0.00000000E+00   0.00000000E+00   0.00000000E+00   1.09191060E-05   9.49404233E+02   4.19858919E-06  -1.91854493E-06   0.00000000E+00   0.00000000E+00   0.00000000E+00   1.51269498E+04
   9.97500000E+02   5.00000000E-01   5.00000000E-01  -4.35492429E+04   2.90248954E+03   0.00000000E+00   8.96495426E+03   1.72440209E+03   6.24607843E+03   7.19372569E+00   0.00000000E+00   0.00000000E+00   0.00000000E+00   0.00000000E+00   0.00000000E+00   1.09191019E-05   9.49323509E+02   4.34205239E-06  -1.91854493E-06   0.00000000E+00   0.00000000E+00   0.00000000E+00   1.51267371E+04
   1.03250000E+03   5.00000000E-01   5.00000000E-01  -4.35489682E+04   2.90248954E+03   0.00000000E+00   8.96512893E+03   1.72440440E+03   6.24580464E+03   7.19372526E+00   0.00000000E+00   0.00000000E+00   0.00000000E+00   0.00000000E+00   0.00000000E+00   1.09190983E-05   9.49242463E+02   4.50682707E-06  -1.91854493E-06   0.00000000E+00   0.00000000E+00   0.00000000E+00   1.51265248E+04
   1.06750000E+03   5.00000000E-01   5.00000000E-01  -4.35486805E+04   2.90248954E+03   0.00000000E+00   8.96531356E+03   1.72440671E+03   6.24551502E+03   7.19372475E+00   0.00000000E+00   0.00000000E+00   0.00000000E+00   0.00000000E+00   0.00000000E+00   1.09190951E-05   9.49160166E+02   4.69685986E-06  -1.91854493E-06   0.00000000E+00   0.00000000E+00   0.00000000E+00   1.51263142E+04
   1.10250000E+03   5.00000000E-01   5.00000000E-01  -4.35483878E+04   2.90248953E+03   0.00000000E+00   8.96551206E+03   1.72440884E+03   6.24521021E+03   7.19372416E+00   0.00000000E+00   0.00000000E+00   0.00000000E+00   0.00000000E+00   0.00000000E+00   1.09190922E-05   9.49075808E+02   4.91699449E-06  -1.91854493E-06   0.00000000E+00   0.00000000E+00   0.00000000E+00   1.51261061E+04
   1.13750000E+03   5.00000000E-01   5.00000000E-01  -4.35480969E+04   2.90248953E+03   0.00000000E+00   8.96572737E+03   1.72441074E+03   6.24489110E+03   7.19372351E+00   0.00000000E+00   0.00000000E+00   0.00000000E+00   0.00000000E+00   0.00000000E+00   1.09190897E-05   9.48988710E+02   5.17321086E-06  -1.91854493E-06   0.00000000E+00   0.00000000E+00   0.00000000E+00   1.51259009E+04
   1.17250000E+03   5.00000000E-01   5.00000000E-01  -4.35478137E+04   2.90248953E+03   0.00000000E+00   8.96596126E+03   1.72441264E+03   6.24455891E+03   7.19372280E+00   0.00000000E+00   0.00000000E+00   0.00000000E+00   0.00000000E+00   0.00000000E+00   1.09190875E-05   9.48898353E+02   5.47293580E-06  -1.91854493E-06   0.00000000E+00   0.00000000E+00   0.00000000E+00   1.51256982E+04
   1.20750000E+03   5.00000000E-01   5.00000000E-01  -4.35475433E+04   2.90248952E+03   0.00000000E+00   8.96621482E+03   1.72441491E+03   6.24421488E+03   7.19372207E+00   0.00000000E+00   0.00000000E+00   0.00000000E+00   0.00000000E+00   0.00000000E+00   1.09190856E-05   9.48804414E+02   5.82545059E-06  -1.91854493E-06   0.00000000E+00   0.00000000E+00   0.00000000E+00   1.51254978E+04
   1.24250000E+03   5.00000000E-01   5.00000000E-01  -4.35472897E+04   2.90248952E+03   0.00000000E+00   8.96648967E+03   1.72441744E+03   6.24385950E+03   7.19372133E+00   0.00000000E+00   0.00000000E+00   0.00000000E+00   0.00000000E+00   0.00000000E+00   1.09190839E-05   9.48706813E+02   6.24243251E-06  -1.91854493E-06   0.00000000E+00   0.00000000E+00   0.00000000E+00   1.51253006E+04
   1.27750000E+03   5.00000000E-01   5.00000000E-01  -4.35470554E+04   2.90248951E+03   0.00000000E+00   8.96678784E+03   1.72441951E+03   6.24349269E+03   7.19372063E+00   0.00000000E+00   0.00000000E+00   0.00000000E+00   0.00000000E+00   0.00000000E+00   1.09190824E-05   9.48605650E+02   6.73867814E-06  -1.91854493E-06   0.00000000E+00   0.00000000E+00   0.00000000E+00   1.51251082E+04
   1.31250000E+03   5.00000000E-01   5.00000000E-01  -4.35468418E+04   2.90248951E+03   0.00000000E+00   8.96710994E+03   1.72442061E+03   6.24311500E+03   7.19372001E+00   0.00000000E+00   0.00000000E+00   0.00000000E+00   0.00000000E+00   0.00000000E+00   1.09190811E-05   9.48501060E+02   7.33306786E-06  -1.91854493E-06   0.00000000E+00   0.00000000E+00   0.00000000E+00   1.51249208E+04
   1.34750000E+03   5.00000000E-01   5.00000000E-01  -4.35466502E+04   2.90248950E+03   0.00000000E+00   8.96745406E+03   1.72442121E+03   6.24272841E+03   7.19371954E+00   0.00000000E+00   0.00000000E+00   0.00000000E+00   0.00000000E+00   0.00000000E+00   1.09190800E-05   9.48393184E+02   8.04985618E-06  -1.91854493E-06   0.00000000E+00   0.00000000E+00   0.00000000E+00   1.51247365E+04
   1.38250000E+03   5.00000000E-01   5.00000000E-01  -4.35464816E+04   2.90248949E+03   0.00000000E+00   8.96781363E+03   1.72442387E+03   6.24233744E+03   7.19371928E+00   0.00000000E+00   0.00000000E+00   0.00000000E+00   0.00000000E+00   0.00000000E+00   1.09190790E-05   9.48282110E+02   8.92039524E-06  -1.91854493E-06   0.00000000E+00   0.00000000E+00   0.00000000E+00   1.51245496E+04
   1.41750000E+03   5.00000000E-01   5.00000000E-01  -4.35463362E+04   2.90248948E+03   0.00000000E+00   8.96818065E+03   1.72443095E+03   6.24194759E+03   7.19371916E+00   0.00000000E+00   0.00000000E+00   0.00000000E+00   0.00000000E+00   0.00000000E+00   1.09190781E-05   9.48168228E+02   9.98549714E-06  -1.91854493E-06   0.00000000E+00   0.00000000E+00   0.00000000E+00   1.51243560E+04
   1.45250000E+03   5.00000000E-01   5.00000000E-01  -4.35462118E+04   2.90248948E+03   0.00000000E+00   8.96856531E+03   1.72443626E+03   6.24155299E+03   7.19371896E+00   0.00000000E+00   0.00000000E+00   0.00000000E+00   0.00000000E+00   0.00000000E+00   1.09190773E-05   9.48053121E+02   1.12988718E-05  -1.91854493E-06   0.00000000E+00   0.00000000E+00   0.00000000E+00   1.51241731E+04
   1.48750000E+03   5.00000000E-01   5.00000000E-01  -4.35461065E+04   2.90248947E+03   0.00000000E+00   8.96897320E+03   1.72443774E+03   6.24114892E+03   7.19371876E+00   0.00000000E+00   0.00000000E+00   0.00000000E+00   0.00000000E+00   0.00000000E+00   1.09190767E-05   9.47937272E+02   1.29317112E-05  -1.91854493E-06   0.00000000E+00   0.00000000E+00   0.00000000E+00   1.51240067E+04
   1.52250000E+03   5.00000000E-01   5.00000000E-01  -4.35460213E+04   2.90248946E+03   0.00000000E+00   8.96938520E+03   1.72444353E+03   6.24074729E+03   7.19371901E+00   0.00000000E+00   0.00000000E+00   0.00000000E+00   0.00000000E+00   0.00000000E+00   1.09190761E-05   9.47819757E+02   1.49787822E-05  -1.91854493E-06   0.00000000E+00   0.00000000E+00   0.00000000E+00   1.51238352E+04
   1.55750000E+03   5.00000000E-01   5.00000000E-01  -4.35459574E+04   2.90248945E+03   0.00000000E+00   8.96978713E+03   1.72445656E+03   6.24035977E+03   7.19371942E+00   0.00000000E+00   0.00000000E+00   0.00000000E+00   0.00000000E+00   0.00000000E+00   1.09190756E-05   9.47701050E+02   1.75673037E-05  -1.91854493E-06   0.00000000E+00   0.00000000E+00   0.00000000E+00   1.51236505E+04
   1.59250000E+03   5.00000000E-01   5.00000000E-01  -4.35459182E+04   2.90248943E+03   0.00000000E+00   8.97020105E+03   1.72446555E+03   6.23997594E+03   7.19371934E+00   0.00000000E+00   0.00000000E+00   0.00000000E+00   0.00000000E+00   0.00000000E+00   1.09190751E-05   9.47583740E+02   2.08702372E-05  -1.91854493E-06   0.00000000E+00   0.00000000E+00   0.00000000E+00   1.51234850E+04
   1.62750000E+03   5.00000000E-01   5.00000000E-01  -4.35459016E+04   2.90248942E+03   0.00000000E+00   8.97063189E+03   1.72446784E+03   6.23959233E+03   7.19371894E+00   0.00000000E+00   0.00000000E+00   0.00000000E+00   0.00000000E+00   0.00000000E+00   1.09190747E-05   9.47468174E+02   2.51244322E-05  -1.91854493E-06   0.00000000E+00   0.00000000E+00   0.00000000E+00   1.51233432E+04
   1.66250000E+03   5.00000000E-01   5.00000000E-01  -4.35459023E+04   2.90248940E+03   0.00000000E+00   8.97105889E+03   1.72446704E+03   6.23922380E+03   7.19371797E+00   0.00000000E+00   0.00000000E+00   0.00000000E+00   0.00000000E+00   0.00000000E+00   1.09190744E-05   9.47353558E+02   3.06564668E-05  -1.91854493E-06   0.00000000E+00   0.00000000E+00   0.00000000E+00   1.51232026E+04
   1.69750000E+03   5.00000000E-01   5.00000000E-01  -4.35459265E+04   2.90248939E+03   0.00000000E+00   8.97148182E+03   1.72446477E+03   6.23887180E+03   7.19371667E+00   0.00000000E+00   0.00000000E+00   0.00000000E+00   0.00000000E+00   0.00000000E+00   1.09190741E-05   9.47240462E+02   3.79203987E-05  -1.91854493E-06   0.00000000E+00   0.00000000E+00   0.00000000E+00   1.51230675E+04
   1.73250000E+03   5.00000000E-01   5.00000000E-01  -4.35459834E+04   2.90248937E+03   0.00000000E+00   8.97191753E+03   1.72446215E+03   6.23852248E+03   7.19371647E+00   0.00000000E+00   0.00000000E+00   0.00000000E+00   0.00000000E+00   0.00000000E+00   1.09190738E-05   9.47129900E+02   4.75525825E-05  -1.91854493E-06   0.00000000E+00   0.00000000E+00   0.00000000E+00   1.51229580E+04
   1.76750000E+03   5.00000000E-01   5.00000000E-01  -4.35460679E+04   2.90248935E+03   0.00000000E+00   8.97235995E+03   1.72446030E+03   6.23817817E+03   7.19371748E+00   0.00000000E+00   0.00000000E+00   0.00000000E+00   0.00000000E+00   0.00000000E+00   1.09190736E-05   9.47021975E+02   6.04520459E-05  -1.91854493E-06   0.00000000E+00   0.00000000E+00   0.00000000E+00   1.51228679E+04
   1.80250000E+03   5.00000000E-01   5.00000000E-01  -4.35461732E+04   2.90248933E+03   0.00000000E+00   8.97279046E+03   1.72445994E+03   6.23785337E+03   7.19371854E+00   0.00000000E+00   0.00000000E+00   0.00000000E+00   0.00000000E+00   0.00000000E+00   1.09190734E-05   9.46916644E+02   7.78990148E-05  -1.91854493E-06   0.00000000E+00   0.00000000E+00   0.00000000E+00   1.51227804E+04
   1.83750000E+03   5.00000000E-01   5.00000000E-01  -4.35462976E+04   2.90248931E+03   0.00000000E+00   8.97319339E+03   1.72446314E+03   6.23756074E+03   7.19371901E+00   0.00000000E+00   0.00000000E+00   0.00000000E+00   0.00000000E+00   0.00000000E+00   1.09190732E-05   9.46814147E+02   1.01729504E-04  -1.91854493E-06   0.00000000E+00   0.00000000E+00   0.00000000E+00   1.51226849E+04
   1.87250000E+03   5.00000000E-01   5.00000000E-01  -4.35464431E+04   2.90248929E+03   0.00000000E+00   8.97356105E+03   1.72447118E+03   6.23730736E+03   7.19371914E+00   0.00000000E+00   0.00000000E+00   0.00000000E+00   0.00000000E+00   0.00000000E+00   1.09190730E-05   9.46715204E+02   1.34595185E-04  -1.91854493E-06   0.00000000E+00   0.00000000E+00   0.00000000E+00   1.51225812E+04
   1.90750000E+03   5.00000000E-01   5.00000000E-01  -4.35466194E+04   2.90248926E+03   0.00000000E+00   8.97390498E+03   1.72447916E+03   6.23709054E+03   7.19371934E+00   0.00000000E+00   0.00000000E+00   0.00000000E+00   0.00000000E+00   0.00000000E+00   1.09190729E-05   9.46621486E+02   1.80356291E-04  -1.91854493E-06   0.00000000E+00   0.00000000E+00   0.00000000E+00   1.51224896E+04
   1.94250000E+03   5.00000000E-01   5.00000000E-01  -4.35468345E+04   2.90248923E+03   0.00000000E+00   8.97424399E+03   1.72448211E+03   6.23689977E+03   7.19371954E+00   0.00000000E+00   0.00000000E+00   0.00000000E+00   0.00000000E+00   0.00000000E+00   1.09190728E-05   9.46534427E+02   2.44671938E-04  -1.91854493E-06   0.00000000E+00   0.00000000E+00   0.00000000E+00   1.51224335E+04
   1.97750000E+03   5.00000000E-01   5.00000000E-01  -4.35470858E+04   2.90248920E+03   0.00000000E+00   8.97458602E+03   1.72448061E+03   6.23672506E+03   7.19371980E+00   0.00000000E+00   0.00000000E+00   0.00000000E+00   0.00000000E+00   0.00000000E+00   1.09190727E-05   9.46454360E+02   3.35885718E-04  -1.91854493E-06   0.00000000E+00   0.00000000E+00   0.00000000E+00   1.51224195E+04
   2.01250000E+03   5.00000000E-01   5.00000000E-01  -4.35473650E+04   2.90248916E+03   0.00000000E+00   8.97492180E+03   1.72447683E+03   6.23656948E+03   7.19372013E+00   0.00000000E+00   0.00000000E+00   0.00000000E+00   0.00000000E+00   0.00000000E+00   1.09190726E-05   9.46381037E+02   4.66367352E-04  -1.91854493E-06   0.00000000E+00   0.00000000E+00   0.00000000E+00   1.51224361E+04
   2.04750000E+03   5.00000000E-01   5.00000000E-01  -4.35476670E+04   2.90248913E+03   0.00000000E+00   8.97523429E+03   1.72447225E+03   6.23644617E+03   7.19372035E+00   0.00000000E+00   0.00000000E+00   0.00000000E+00   0.00000000E+00   0.00000000E+00   1.09190725E-05   9.46314377E+02   6.54547497E-04  -1.91854493E-06   0.00000000E+00   0.00000000E+00   0.00000000E+00   1.51224662E+04
   2.08250000E+03   5.00000000E-01   5.00000000E-01  -4.35479920E+04   2.90248909E+03   0.00000000E+00   8.97551159E+03   1.72446761E+03   6.23636611E+03   7.19372038E+00   0.00000000E+00   0.00000000E+00   0.00000000E+00   0.00000000E+00   0.00000000E+00   1.09190724E-05   9.46254877E+02   9.27998504E-04  -1.91854493E-06   0.00000000E+00   0.00000000E+00   0.00000000E+00   1.51225021E+04
   2.11750000E+03   5.00000000E-01   5.00000000E-01  -4.35483411E+04   2.90248905E+03   0.00000000E+00   8.97574689E+03   1.72446329E+03   6.23633582E+03   7.19372024E+00   0.00000000E+00   0.00000000E+00   0.00000000E+00   0.00000000E+00   0.00000000E+00   1.09190724E-05   9.46203397E+02   1.32810057E-03  -1.91854493E-06   0.00000000E+00   0.00000000E+00   0.00000000E+00   1.51225426E+04
   2.15250000E+03   5.00000000E-01   5.00000000E-01  -4.35487136E+04   2.90248900E+03   0.00000000E+00   8.97593493E+03   1.72445954E+03   6.23635972E+03   7.19371995E+00   0.00000000E+00   0.00000000E+00   0.00000000E+00   0.00000000E+00   0.00000000E+00   1.09190723E-05   9.46160920E+02   1.91710138E-03  -1.91854493E-06   0.00000000E+00   0.00000000E+00   0.00000000E+00   1.51225881E+04
   2.18750000E+03   5.00000000E-01   5.00000000E-01  -4.35491081E+04   2.90248895E+03   0.00000000E+00   8.97607039E+03   1.72445657E+03   6.23644164E+03   7.19371952E+00   0.00000000E+00   0.00000000E+00   0.00000000E+00   0.00000000E+00   0.00000000E+00   1.09190722E-05   9.46128477E+02   2.78876573E-03  -1.91854493E-06   0.00000000E+00   0.00000000E+00   0.00000000E+00   1.51226392E+04
   2.22250000E+03   5.00000000E-01   5.00000000E-01  -4.35495220E+04   2.90248890E+03   0.00000000E+00   8.97614771E+03   1.72445458E+03   6.23658531E+03   7.19371896E+00   0.00000000E+00   0.00000000E+00   0.00000000E+00   0.00000000E+00   0.00000000E+00   1.09190722E-05   9.46107118E+02   4.08437180E-03  -1.91854493E-06   0.00000000E+00   0.00000000E+00   0.00000000E+00   1.51226958E+04
   2.25750000E+03   5.00000000E-01   5.00000000E-01  -4.35499522E+04   2.90248884E+03   0.00000000E+00   8.97616113E+03   1.72445383E+03   6.23679438E+03   7.19371827E+00   0.00000000E+00   0.00000000E+00   0.00000000E+00   0.00000000E+00   0.00000000E+00   1.09190722E-05   9.46097905E+02   6.01659954E-03  -1.91854493E-06   0.00000000E+00   0.00000000E+00   0.00000000E+00   1.51227577E+04
   2.29250000E+03   5.00000000E-01   5.00000000E-01  -4.35503953E+04   2.90248878E+03   0.00000000E+00   8.97610500E+03   1.72445466E+03   6.23707221E+03   7.19371746E+00   0.00000000E+00   0.00000000E+00   0.00000000E+00   0.00000000E+00   0.00000000E+00   1.09190721E-05   9.46101879E+02   8.90493895E-03  -1.91854493E-06   0.00000000E+00   0.00000000E+00   0.00000000E+00   1.51228245E+04
   2.32750000E+03   5.00000000E-01   5.00000000E-01  -4.35508473E+04   2.90248871E+03   0.00000000E+00   8.97597406E+03   1.72445758E+03   6.23742161E+03   7.19371651E+00   0.00000000E+00   0.00000000E+00   0.00000000E+00   0.00000000E+00   0.00000000E+00   1.09190721E-05   9.46120027E+02   1.32276815E-02  -1.91854493E-06   0.00000000E+00   0.00000000E+00   0.00000000E+00   1.51228957E+04
   2.36250000E+03   5.00000000E-01   5.00000000E-01  -4.35513043E+04   2.90248864E+03   0.00000000E+00   8.97576386E+03   1.72446330E+03   6.23784454E+03   7.19371543E+00   0.00000000E+00   0.00000000E+00   0.00000000E+00   0.00000000E+00   0.00000000E+00   1.09190721E-05   9.46153227E+02   1.96973772E-02  -1.91854493E-06   0.00000000E+00   0.00000000E+00   0.00000000E+00   1.51229712E+04
   2.39750000E+03   5.00000000E-01   5.00000000E-01  -4.35517620E+04   2.90248856E+03   0.00000000E+00   8.97547122E+03   1.72447288E+03   6.23834175E+03   7.19371421E+00   0.00000000E+00   0.00000000E+00   0.00000000E+00   0.00000000E+00   0.00000000E+00   1.09190721E-05   9.46202183E+02   2.93687940E-02  -1.91854493E-06   0.00000000E+00   0.00000000E+00   0.00000000E+00   1.51230507E+04
   2.43250000E+03   5.00000000E-01   5.00000000E-01  -4.35522163E+04   2.90248848E+03   0.00000000E+00   8.97509460E+03   1.72448791E+03   6.23891246E+03   7.19371284E+00   0.00000000E+00   0.00000000E+00   0.00000000E+00   0.00000000E+00   0.00000000E+00   1.09190720E-05   9.46267358E+02   4.37906852E-02  -1.91854493E-06   0.00000000E+00   0.00000000E+00   0.00000000E+00   1.51231344E+04
   2.46750000E+03   5.00000000E-01   5.00000000E-01  -4.35526633E+04   2.90248838E+03   0.00000000E+00   8.97463458E+03   1.72451065E+03   6.23955406E+03   7.19371131E+00   0.00000000E+00   0.00000000E+00   0.00000000E+00   0.00000000E+00   0.00000000E+00   1.09190720E-05   9.46348900E+02   6.52145284E-02  -1.91854493E-06   0.00000000E+00   0.00000000E+00   0.00000000E+00   1.51232228E+04
   2.50250000E+03   5.00000000E-01   5.00000000E-01  -4.35530994E+04   2.90248828E+03   0.00000000E+00   8.97409407E+03   1.72454437E+03   6.24026188E+03   7.19370959E+00   0.00000000E+00   0.00000000E+00   0.00000000E+00   0.00000000E+00   0.00000000E+00   1.09190720E-05   9.46446592E+02   9.68737615E-02  -1.91854493E-06   0.00000000E+00   0.00000000E+00   0.00000000E+00   1.51233166E+04
   2.53750000E+03   5.00000000E-01   5.00000000E-01  -4.35535213E+04   2.90248817E+03   0.00000000E+00   8.97347840E+03   1.72459371E+03   6.24102915E+03   7.19370767E+00   0.00000000E+00   0.00000000E+00   0.00000000E+00   0.00000000E+00   0.00000000E+00   1.09190720E-05   9.46559814E+02   1.43343966E-01  -1.91854493E-06   0.00000000E+00   0.00000000E+00   0.00000000E+00   1.51234165E+04
   2.57250000E+03   5.00000000E-01   5.00000000E-01  -4.35539257E+04   2.90248805E+03   0.00000000E+00   8.97279516E+03   1.72466509E+03   6.24184716E+03   7.19370552E+00   0.00000000E+00   0.00000000E+00   0.00000000E+00   0.00000000E+00   0.00000000E+00   1.09190720E-05   9.46687545E+02   2.10984677E-01  -1.91854493E-06   0.00000000E+00   0.00000000E+00   0.00000000E+00   1.51235234E+04
   2.60750000E+03   5.00000000E-01   5.00000000E-01  -4.35543095E+04   2.90248792E+03   0.00000000E+00   8.97205378E+03   1.72476723E+03   6.24270557E+03   7.19370312E+00   0.00000000E+00   0.00000000E+00   0.00000000E+00   0.00000000E+00   0.00000000E+00   1.09190720E-05   9.46828405E+02   3.08442097E-01  -1.91854493E-06   0.00000000E+00   0.00000000E+00   0.00000000E+00   1.51236378E+04