 TITLE = "Total Component Concentration in Minerals" 
VARIABLES = "X"          "Y"              "Z"            "H+"             "Al+++"          "CO2(aq)"        "Mg++"           "Ca++"           "Fe++"           "Fe+++"          "Ba++"           "Sr++"           "Cl-"            "F-"             "K+"             "Na+"            "SO4--"          "O2(aq)"         "B(OH)3(aq)"     "HPO4--"         "NO3-"           "H4SiO4(aq)"    
 ZONE I=         100 , J=           1 , K=           1  F=POINT
   1.75000000E+01   5.00000000E-01   5.00000000E-01  -5.31127565E+04   2.29394588E+03   0.00000000E+00   1.95031147E+04   4.87626227E+03   2.20747404E+03   7.19372703E+00   0.00000000E+00   0.00000000E+00   0.00000000E+00   0.00000000E+00   4.58216579E-02   1.54898823E+03   4.25669921E+03   0.00000000E+00   0.00000000E+00   0.00000000E+00   0.00000000E+00   1.93672681E+04
   5.25000000E+01   5.00000000E-01   5.00000000E-01  -5.31124767E+04   2.29394578E+03   0.00000000E+00   1.95029466E+04   4.94380617E+03   2.20747405E+03   7.19372705E+00   0.00000000E+00   0.00000000E+00   0.00000000E+00   0.00000000E+00   5.17302268E-02   1.54903908E+03   4.32424310E+03   0.00000000E+00   0.00000000E+00   0.00000000E+00   0.00000000E+00   1.93673405E+04
   8.75000000E+01   5.00000000E-01   5.00000000E-01  -5.31124590E+04   2.29394578E+03   0.00000000E+00   1.95029273E+04   4.96134322E+03   2.20747405E+03   7.19372704E+00   0.00000000E+00   0.00000000E+00   0.00000000E+00   0.00000000E+00   4.94208023E-02   1.54906215E+03   4.34178015E+03   0.00000000E+00   0.00000000E+00   0.00000000E+00   0.00000000E+00   1.93674074E+04
   1.22500000E+02   5.00000000E-01   5.00000000E-01  -5.31124565E+04   2.29394578E+03   0.00000000E+00   1.95029212E+04   4.96566418E+03   2.20747406E+03   7.19372704E+00   0.00000000E+00   0.00000000E+00   0.00000000E+00   0.00000000E+00   4.75407333E-02   1.54907367E+03   4.34610110E+03   0.00000000E+00   0.00000000E+00   0.00000000E+00   0.00000000E+00   1.93674393E+04
   1.57500000E+02   5.00000000E-01   5.00000000E-01  -5.31124595E+04   2.29394578E+03   0.00000000E+00   1.95029205E+04   4.96677703E+03   2.20747406E+03   7.19372703E+00   0.00000000E+00   0.00000000E+00   0.00000000E+00   0.00000000E+00   4.64010381E-02   1.54907928E+03   4.34721396E+03   0.00000000E+00   0.00000000E+00   0.00000000E+00   0.00000000E+00   1.93674559E+04
   1.92500000E+02   5.00000000E-01   5.00000000E-01  -5.31124654E+04   2.29394578E+03   0.00000000E+00   1.95029226E+04   4.96712855E+03   2.20747407E+03   7.19372702E+00   0.00000000E+00   0.00000000E+00   0.00000000E+00   0.00000000E+00   4.57951297E-02   1.54908159E+03   4.34756547E+03   0.00000000E+00   0.00000000E+00   0.00000000E+00   0.00000000E+00   1.93674648E+04
   2.27500000E+02   5.00000000E-01   5.00000000E-01  -5.31124730E+04   2.29394578E+03   0.00000000E+00   1.95029264E+04   4.96729610E+03   2.20747408E+03   7.19372701E+00   0.00000000E+00   0.00000000E+00   0.00000000E+00   0.00000000E+00   4.55370854E-02   1.54908192E+03   4.34773302E+03   0.00000000E+00   0.00000000E+00   0.00000000E+00   0.00000000E+00   1.93674694E+04
   2.62500000E+02   5.00000000E-01   5.00000000E-01  -5.31124820E+04   2.29394578E+03   0.00000000E+00   1.95029313E+04   4.96741345E+03   2.20747409E+03   7.19372701E+00   0.00000000E+00   0.00000000E+00   0.00000000E+00   0.00000000E+00   4.55007941E-02   1.54908102E+03   4.34785037E+03   0.00000000E+00   0.00000000E+00   0.00000000E+00   0.00000000E+00   1.93674714E+04
   2.97500000E+02   5.00000000E-01   5.00000000E-01  -5.31124921E+04   2.29394578E+03   0.00000000E+00   1.95029371E+04   4.96751134E+03   2.20747410E+03   7.19372700E+00   0.00000000E+00   0.00000000E+00   0.00000000E+00   0.00000000E+00   4.56044661E-02   1.54907932E+03   4.34794825E+03   0.00000000E+00   0.00000000E+00   0.00000000E+00   0.00000000E+00   1.93674719E+04
   3.32500000E+02   5.00000000E-01   5.00000000E-01  -5.31125031E+04   2.29394578E+03   0.00000000E+00   1.95029437E+04   4.96759706E+03   2.20747411E+03   7.19372699E+00   0.00000000E+00   0.00000000E+00   0.00000000E+00   0.00000000E+00   4.57950799E-02   1.54907707E+03   4.34803397E+03   0.00000000E+00   0.00000000E+00   0.00000000E+00   0.00000000E+00   1.93674715E+04
   3.67500000E+02   5.00000000E-01   5.00000000E-01  -5.31125149E+04   2.29394578E+03   0.00000000E+00   1.95029508E+04   4.96767267E+03   2.20747412E+03   7.19372698E+00   0.00000000E+00   0.00000000E+00   0.00000000E+00   0.00000000E+00   4.60382074E-02   1.54907444E+03   4.34810958E+03   0.00000000E+00   0.00000000E+00   0.00000000E+00   0.00000000E+00   1.93674704E+04
   4.02500000E+02   5.00000000E-01   5.00000000E-01  -5.31125275E+04   2.29394578E+03   0.00000000E+00   1.95029584E+04   4.96773909E+03   2.20747413E+03   7.19372697E+00   0.00000000E+00   0.00000000E+00   0.00000000E+00   0.00000000E+00   4.63114598E-02   1.54907153E+03   4.34817600E+03   0.00000000E+00   0.00000000E+00   0.00000000E+00   0.00000000E+00   1.93674689E+04
   4.37500000E+02   5.00000000E-01   5.00000000E-01  -5.31125408E+04   2.29394578E+03   0.00000000E+00   1.95029664E+04   4.96779701E+03   2.20747414E+03   7.19372695E+00   0.00000000E+00   0.00000000E+00   0.00000000E+00   0.00000000E+00   4.66045384E-02   1.54906841E+03   4.34823392E+03   0.00000000E+00   0.00000000E+00   0.00000000E+00   0.00000000E+00   1.93674672E+04
   4.72500000E+02   5.00000000E-01   5.00000000E-01  -5.31125548E+04   2.29394578E+03   0.00000000E+00   1.95029749E+04   4.96784703E+03   2.20747415E+03   7.19372694E+00   0.00000000E+00   0.00000000E+00   0.00000000E+00   0.00000000E+00   4.69154630E-02   1.54906513E+03   4.34828394E+03   0.00000000E+00   0.00000000E+00   0.00000000E+00   0.00000000E+00   1.93674654E+04
   5.07500000E+02   5.00000000E-01   5.00000000E-01  -5.31125694E+04   2.29394578E+03   0.00000000E+00   1.95029837E+04   4.96788977E+03   2.20747416E+03   7.19372693E+00   0.00000000E+00   0.00000000E+00   0.00000000E+00   0.00000000E+00   4.72234915E-02   1.54906172E+03   4.34832668E+03   0.00000000E+00   0.00000000E+00   0.00000000E+00   0.00000000E+00   1.93674634E+04
   5.42500000E+02   5.00000000E-01   5.00000000E-01  -5.31125846E+04   2.29394578E+03   0.00000000E+00   1.95029929E+04   4.96792581E+03   2.20747416E+03   7.19372692E+00   0.00000000E+00   0.00000000E+00   0.00000000E+00   0.00000000E+00   4.75220486E-02   1.54905821E+03   4.34836272E+03   0.00000000E+00   0.00000000E+00   0.00000000E+00   0.00000000E+00   1.93674614E+04
   5.77500000E+02   5.00000000E-01   5.00000000E-01  -5.31126002E+04   2.29394578E+03   0.00000000E+00   1.95030024E+04   4.96795571E+03   2.20747417E+03   7.19372691E+00   0.00000000E+00   0.00000000E+00   0.00000000E+00   0.00000000E+00   4.78062252E-02   1.54905464E+03   4.34839262E+03   0.00000000E+00   0.00000000E+00   0.00000000E+00   0.00000000E+00   1.93674592E+04
   6.12500000E+02   5.00000000E-01   5.00000000E-01  -5.31126162E+04   2.29394578E+03   0.00000000E+00   1.95030120E+04   4.96798000E+03   2.20747418E+03   7.19372690E+00   0.00000000E+00   0.00000000E+00   0.00000000E+00   0.00000000E+00   4.80721056E-02   1.54905102E+03   4.34841691E+03   0.00000000E+00   0.00000000E+00   0.00000000E+00   0.00000000E+00   1.93674570E+04
   6.47500000E+02   5.00000000E-01   5.00000000E-01  -5.31126326E+04   2.29394578E+03   0.00000000E+00   1.95030219E+04   4.96799920E+03   2.20747419E+03   7.19372689E+00   0.00000000E+00   0.00000000E+00   0.00000000E+00   0.00000000E+00   4.82783030E-02   1.54904734E+03   4.34843610E+03   0.00000000E+00   0.00000000E+00   0.00000000E+00   0.00000000E+00   1.93674546E+04
   6.82500000E+02   5.00000000E-01   5.00000000E-01  -5.31126492E+04   2.29394578E+03   0.00000000E+00   1.95030320E+04   4.96801378E+03   2.20747420E+03   7.19372688E+00   0.00000000E+00   0.00000000E+00   0.00000000E+00   0.00000000E+00   4.84551661E-02   1.54904365E+03   4.34845069E+03   0.00000000E+00   0.00000000E+00   0.00000000E+00   0.00000000E+00   1.93674522E+04
   7.17500000E+02   5.00000000E-01   5.00000000E-01  -5.31126658E+04   2.29394578E+03   0.00000000E+00   1.95030421E+04   4.96802420E+03   2.20747420E+03   7.19372687E+00   0.00000000E+00   0.00000000E+00   0.00000000E+00   0.00000000E+00   4.86013240E-02   1.54903998E+03   4.34846110E+03   0.00000000E+00   0.00000000E+00   0.00000000E+00   0.00000000E+00   1.93674497E+04
   7.52500000E+02   5.00000000E-01   5.00000000E-01  -5.31126825E+04   2.29394578E+03   0.00000000E+00   1.95030521E+04   4.96803088E+03   2.20747421E+03   7.19372686E+00   0.00000000E+00   0.00000000E+00   0.00000000E+00   0.00000000E+00   4.87157034E-02   1.54903633E+03   4.34846778E+03   0.00000000E+00   0.00000000E+00   0.00000000E+00   0.00000000E+00   1.93674470E+04
   7.87500000E+02   5.00000000E-01   5.00000000E-01  -5.31126989E+04   2.29394578E+03   0.00000000E+00   1.95030621E+04   4.96803420E+03   2.20747422E+03   7.19372685E+00   0.00000000E+00   0.00000000E+00   0.00000000E+00   0.00000000E+00   4.87978765E-02   1.54903274E+03   4.34847110E+03   0.00000000E+00   0.00000000E+00   0.00000000E+00   0.00000000E+00   1.93674442E+04
   8.22500000E+02   5.00000000E-01   5.00000000E-01  -5.31127151E+04   2.29394578E+03   0.00000000E+00   1.95030719E+04   4.96803453E+03   2.20747422E+03   7.19372684E+00   0.00000000E+00   0.00000000E+00   0.00000000E+00   0.00000000E+00   4.88479815E-02   1.54902920E+03   4.34847143E+03   0.00000000E+00   0.00000000E+00   0.00000000E+00   0.00000000E+00   1.93674413E+04
   8.57500000E+02   5.00000000E-01   5.00000000E-01  -5.31127308E+04   2.29394578E+03   0.00000000E+00   1.95030815E+04   4.96803220E+03   2.20747422E+03   7.19372683E+00   0.00000000E+00   0.00000000E+00   0.00000000E+00   0.00000000E+00   4.88668255E-02   1.54902574E+03   4.34846910E+03   0.00000000E+00   0.00000000E+00   0.00000000E+00   0.00000000E+00   1.93674382E+04
   8.92500000E+02   5.00000000E-01   5.00000000E-01  -5.31127459E+04   2.29394578E+03   0.00000000E+00   1.95030907E+04   4.96802753E+03   2.20747423E+03   7.19372683E+00   0.00000000E+00   0.00000000E+00   0.00000000E+00   0.00000000E+00   4.88558223E-02   1.54902237E+03   4.34846443E+03   0.00000000E+00   0.00000000E+00   0.00000000E+00   0.00000000E+00   1.93674349E+04
   9.27500000E+02   5.00000000E-01   5.00000000E-01  -5.31127602E+04   2.29394578E+03   0.00000000E+00   1.95030996E+04   4.96802078E+03   2.20747423E+03   7.19372683E+00   0.00000000E+00   0.00000000E+00   0.00000000E+00   0.00000000E+00   4.88169120E-02   1.54901911E+03   4.34845768E+03   0.00000000E+00   0.00000000E+00   0.00000000E+00   0.00000000E+00   1.93674314E+04
   9.62500000E+02   5.00000000E-01   5.00000000E-01  -5.31127737E+04   2.29394578E+03   0.00000000E+00   1.95031079E+04   4.96801223E+03   2.20747423E+03   7.19372683E+00   0.00000000E+00   0.00000000E+00   0.00000000E+00   0.00000000E+00   4.87525220E-02   1.54901597E+03   4.34844913E+03   0.00000000E+00   0.00000000E+00   0.00000000E+00   0.00000000E+00   1.93674276E+04
   9.97500000E+02   5.00000000E-01   5.00000000E-01  -5.31127863E+04   2.29394578E+03   0.00000000E+00   1.95031157E+04   4.96800209E+03   2.20747424E+03   7.19372684E+00   0.00000000E+00   0.00000000E+00   0.00000000E+00   0.00000000E+00   4.86653748E-02   1.54901295E+03   4.34843899E+03   0.00000000E+00   0.00000000E+00   0.00000000E+00   0.00000000E+00   1.93674236E+04
   1.03250000E+03   5.00000000E-01   5.00000000E-01  -5.31127976E+04   2.29394578E+03   0.00000000E+00   1.95031229E+04   4.96799059E+03   2.20747424E+03   7.19372686E+00   0.00000000E+00   0.00000000E+00   0.00000000E+00   0.00000000E+00   4.85587142E-02   1.54901007E+03   4.34842749E+03   0.00000000E+00   0.00000000E+00   0.00000000E+00   0.00000000E+00   1.93674193E+04
   1.06750000E+03   5.00000000E-01   5.00000000E-01  -5.31128078E+04   2.29394578E+03   0.00000000E+00   1.95031294E+04   4.96797791E+03   2.20747424E+03   7.19372686E+00   0.00000000E+00   0.00000000E+00   0.00000000E+00   0.00000000E+00   4.84356274E-02   1.54900734E+03   4.34841482E+03   0.00000000E+00   0.00000000E+00   0.00000000E+00   0.00000000E+00   1.93674147E+04
   1.10250000E+03   5.00000000E-01   5.00000000E-01  -5.31128167E+04   2.29394578E+03   0.00000000E+00   1.95031352E+04   4.96796423E+03   2.20747424E+03   7.19372687E+00   0.00000000E+00   0.00000000E+00   0.00000000E+00   0.00000000E+00   4.82996671E-02   1.54900476E+03   4.34840114E+03   0.00000000E+00   0.00000000E+00   0.00000000E+00   0.00000000E+00   1.93674098E+04
   1.13750000E+03   5.00000000E-01   5.00000000E-01  -5.31128242E+04   2.29394578E+03   0.00000000E+00   1.95031403E+04   4.96794971E+03   2.20747424E+03   7.19372687E+00   0.00000000E+00   0.00000000E+00   0.00000000E+00   0.00000000E+00   4.81539141E-02   1.54900233E+03   4.34838661E+03   0.00000000E+00   0.00000000E+00   0.00000000E+00   0.00000000E+00   1.93674047E+04
   1.17250000E+03   5.00000000E-01   5.00000000E-01  -5.31128303E+04   2.29394578E+03   0.00000000E+00   1.95031446E+04   4.96793448E+03   2.20747424E+03   7.19372688E+00   0.00000000E+00   0.00000000E+00   0.00000000E+00   0.00000000E+00   4.80016381E-02   1.54900006E+03   4.34837138E+03   0.00000000E+00   0.00000000E+00   0.00000000E+00   0.00000000E+00   1.93673992E+04
   1.20750000E+03   5.00000000E-01   5.00000000E-01  -5.31128351E+04   2.29394578E+03   0.00000000E+00   1.95031480E+04   4.96791867E+03   2.20747423E+03   7.19372690E+00   0.00000000E+00   0.00000000E+00   0.00000000E+00   0.00000000E+00   4.78453735E-02   1.54899794E+03   4.34835557E+03   0.00000000E+00   0.00000000E+00   0.00000000E+00   0.00000000E+00   1.93673935E+04
   1.24250000E+03   5.00000000E-01   5.00000000E-01  -5.31128384E+04   2.29394578E+03   0.00000000E+00   1.95031508E+04   4.96790239E+03   2.20747423E+03   7.19372690E+00   0.00000000E+00   0.00000000E+00   0.00000000E+00   0.00000000E+00   4.76877312E-02   1.54899597E+03   4.34833929E+03   0.00000000E+00   0.00000000E+00   0.00000000E+00   0.00000000E+00   1.93673875E+04
   1.27750000E+03   5.00000000E-01   5.00000000E-01  -5.31128403E+04   2.29394578E+03   0.00000000E+00   1.95031527E+04   4.96788574E+03   2.20747423E+03   7.19372691E+00   0.00000000E+00   0.00000000E+00   0.00000000E+00   0.00000000E+00   4.75297762E-02   1.54899414E+03   4.34832264E+03   0.00000000E+00   0.00000000E+00   0.00000000E+00   0.00000000E+00   1.93673812E+04
   1.31250000E+03   5.00000000E-01   5.00000000E-01  -5.31128409E+04   2.29394578E+03   0.00000000E+00   1.95031540E+04   4.96786881E+03   2.20747423E+03   7.19372692E+00   0.00000000E+00   0.00000000E+00   0.00000000E+00   0.00000000E+00   4.73723268E-02   1.54899245E+03   4.34830571E+03   0.00000000E+00   0.00000000E+00   0.00000000E+00   0.00000000E+00   1.93673747E+04
   1.34750000E+03   5.00000000E-01   5.00000000E-01  -5.31128403E+04   2.29394578E+03   0.00000000E+00   1.95031545E+04   4.96785167E+03   2.20747422E+03   7.19372693E+00   0.00000000E+00   0.00000000E+00   0.00000000E+00   0.00000000E+00   4.72156163E-02   1.54899090E+03   4.34828857E+03   0.00000000E+00   0.00000000E+00   0.00000000E+00   0.00000000E+00   1.93673680E+04
   1.38250000E+03   5.00000000E-01   5.00000000E-01  -5.31128386E+04   2.29394578E+03   0.00000000E+00   1.95031545E+04   4.96783440E+03   2.20747422E+03   7.19372693E+00   0.00000000E+00   0.00000000E+00   0.00000000E+00   0.00000000E+00   4.70596265E-02   1.54898946E+03   4.34827130E+03   0.00000000E+00   0.00000000E+00   0.00000000E+00   0.00000000E+00   1.93673611E+04
   1.41750000E+03   5.00000000E-01   5.00000000E-01  -5.31128359E+04   2.29394578E+03   0.00000000E+00   1.95031539E+04   4.96781705E+03   2.20747422E+03   7.19372692E+00   0.00000000E+00   0.00000000E+00   0.00000000E+00   0.00000000E+00   4.69039536E-02   1.54898814E+03   4.34825396E+03   0.00000000E+00   0.00000000E+00   0.00000000E+00   0.00000000E+00   1.93673540E+04
   1.45250000E+03   5.00000000E-01   5.00000000E-01  -5.31128323E+04   2.29394578E+03   0.00000000E+00   1.95031528E+04   4.96779968E+03   2.20747421E+03   7.19372691E+00   0.00000000E+00   0.00000000E+00   0.00000000E+00   0.00000000E+00   4.67479210E-02   1.54898691E+03   4.34823659E+03   0.00000000E+00   0.00000000E+00   0.00000000E+00   0.00000000E+00   1.93673468E+04
   1.48750000E+03   5.00000000E-01   5.00000000E-01  -5.31128280E+04   2.29394578E+03   0.00000000E+00   1.95031512E+04   4.96778234E+03   2.20747421E+03   7.19372689E+00   0.00000000E+00   0.00000000E+00   0.00000000E+00   0.00000000E+00   4.65902182E-02   1.54898577E+03   4.34821925E+03   0.00000000E+00   0.00000000E+00   0.00000000E+00   0.00000000E+00   1.93673395E+04
   1.52250000E+03   5.00000000E-01   5.00000000E-01  -5.31128230E+04   2.29394578E+03   0.00000000E+00   1.95031494E+04   4.96776506E+03   2.20747420E+03   7.19372685E+00   0.00000000E+00   0.00000000E+00   0.00000000E+00   0.00000000E+00   4.64296735E-02   1.54898470E+03   4.34820196E+03   0.00000000E+00   0.00000000E+00   0.00000000E+00   0.00000000E+00   1.93673322E+04
   1.55750000E+03   5.00000000E-01   5.00000000E-01  -5.31128176E+04   2.29394578E+03   0.00000000E+00   1.95031473E+04   4.96774787E+03   2.20747420E+03   7.19372678E+00   0.00000000E+00   0.00000000E+00   0.00000000E+00   0.00000000E+00   4.62648232E-02   1.54898369E+03   4.34818478E+03   0.00000000E+00   0.00000000E+00   0.00000000E+00   0.00000000E+00   1.93673247E+04
   1.59250000E+03   5.00000000E-01   5.00000000E-01  -5.31128119E+04   2.29394578E+03   0.00000000E+00   1.95031450E+04   4.96773081E+03   2.20747419E+03   7.19372668E+00   0.00000000E+00   0.00000000E+00   0.00000000E+00   0.00000000E+00   4.60942796E-02   1.54898273E+03   4.34816772E+03   0.00000000E+00   0.00000000E+00   0.00000000E+00   0.00000000E+00   1.93673173E+04
   1.62750000E+03   5.00000000E-01   5.00000000E-01  -5.31128060E+04   2.29394578E+03   0.00000000E+00   1.95031426E+04   4.96771390E+03   2.20747419E+03   7.19372654E+00   0.00000000E+00   0.00000000E+00   0.00000000E+00   0.00000000E+00   4.59168482E-02   1.54898181E+03   4.34815081E+03   0.00000000E+00   0.00000000E+00   0.00000000E+00   0.00000000E+00   1.93673098E+04
   1.66250000E+03   5.00000000E-01   5.00000000E-01  -5.31128000E+04   2.29394578E+03   0.00000000E+00   1.95031401E+04   4.96769716E+03   2.20747419E+03   7.19372634E+00   0.00000000E+00   0.00000000E+00   0.00000000E+00   0.00000000E+00   4.57312543E-02   1.54898092E+03   4.34813407E+03   0.00000000E+00   0.00000000E+00   0.00000000E+00   0.00000000E+00   1.93673023E+04
   1.69750000E+03   5.00000000E-01   5.00000000E-01  -5.31127940E+04   2.29394578E+03   0.00000000E+00   1.95031377E+04   4.96768061E+03   2.20747418E+03   7.19372605E+00   0.00000000E+00   0.00000000E+00   0.00000000E+00   0.00000000E+00   4.55364411E-02   1.54898004E+03   4.34811752E+03   0.00000000E+00   0.00000000E+00   0.00000000E+00   0.00000000E+00   1.93672949E+04
   1.73250000E+03   5.00000000E-01   5.00000000E-01  -5.31127881E+04   2.29394578E+03   0.00000000E+00   1.95031353E+04   4.96766426E+03   2.20747418E+03   7.19372567E+00   0.00000000E+00   0.00000000E+00   0.00000000E+00   0.00000000E+00   4.53314824E-02   1.54897918E+03   4.34810117E+03   0.00000000E+00   0.00000000E+00   0.00000000E+00   0.00000000E+00   1.93672875E+04
   1.76750000E+03   5.00000000E-01   5.00000000E-01  -5.31127824E+04   2.29394578E+03   0.00000000E+00   1.95031330E+04   4.96764812E+03   2.20747418E+03   7.19372515E+00   0.00000000E+00   0.00000000E+00   0.00000000E+00   0.00000000E+00   4.51155308E-02   1.54897831E+03   4.34808504E+03   0.00000000E+00   0.00000000E+00   0.00000000E+00   0.00000000E+00   1.93672802E+04
   1.80250000E+03   5.00000000E-01   5.00000000E-01  -5.31127769E+04   2.29394578E+03   0.00000000E+00   1.95031308E+04   4.96763220E+03   2.20747417E+03   7.19372447E+00   0.00000000E+00   0.00000000E+00   0.00000000E+00   0.00000000E+00   4.48878728E-02   1.54897743E+03   4.34806912E+03   0.00000000E+00   0.00000000E+00   0.00000000E+00   0.00000000E+00   1.93672729E+04
   1.83750000E+03   5.00000000E-01   5.00000000E-01  -5.31127716E+04   2.29394578E+03   0.00000000E+00   1.95031287E+04   4.96761652E+03   2.20747417E+03   7.19372358E+00   0.00000000E+00   0.00000000E+00   0.00000000E+00   0.00000000E+00   4.46479067E-02   1.54897655E+03   4.34805344E+03   0.00000000E+00   0.00000000E+00   0.00000000E+00   0.00000000E+00   1.93672657E+04
   1.87250000E+03   5.00000000E-01   5.00000000E-01  -5.31127667E+04   2.29394578E+03   0.00000000E+00   1.95031268E+04   4.96760106E+03   2.20747417E+03   7.19372245E+00   0.00000000E+00   0.00000000E+00   0.00000000E+00   0.00000000E+00   4.43951712E-02   1.54897564E+03   4.34803799E+03   0.00000000E+00   0.00000000E+00   0.00000000E+00   0.00000000E+00   1.93672586E+04
   1.90750000E+03   5.00000000E-01   5.00000000E-01  -5.31127621E+04   2.29394578E+03   0.00000000E+00   1.95031251E+04   4.96758585E+03   2.20747417E+03   7.19372103E+00   0.00000000E+00   0.00000000E+00   0.00000000E+00   0.00000000E+00   4.41292786E-02   1.54897472E+03   4.34802278E+03   0.00000000E+00   0.00000000E+00   0.00000000E+00   0.00000000E+00   1.93672515E+04
   1.94250000E+03   5.00000000E-01   5.00000000E-01  -5.31127578E+04   2.29394577E+03   0.00000000E+00   1.95031236E+04   4.96757087E+03   2.20747417E+03   7.19371925E+00   0.00000000E+00   0.00000000E+00   0.00000000E+00   0.00000000E+00   4.38497949E-02   1.54897377E+03   4.34800781E+03   0.00000000E+00   0.00000000E+00   0.00000000E+00   0.00000000E+00   1.93672446E+04
   1.97750000E+03   5.00000000E-01   5.00000000E-01  -5.31127539E+04   2.29394577E+03   0.00000000E+00   1.95031223E+04   4.96755614E+03   2.20747417E+03   7.19371708E+00   0.00000000E+00   0.00000000E+00   0.00000000E+00   0.00000000E+00   4.35565156E-02   1.54897280E+03   4.34799308E+03   0.00000000E+00   0.00000000E+00   0.00000000E+00   0.00000000E+00   1.93672377E+04
   2.01250000E+03   5.00000000E-01   5.00000000E-01  -5.31127503E+04   2.29394577E+03   0.00000000E+00   1.95031212E+04   4.96754165E+03   2.20747417E+03   7.19371443E+00   0.00000000E+00   0.00000000E+00   0.00000000E+00   0.00000000E+00   4.32490183E-02   1.54897180E+03   4.34797860E+03   0.00000000E+00   0.00000000E+00   0.00000000E+00   0.00000000E+00   1.93672309E+04
   2.04750000E+03   5.00000000E-01   5.00000000E-01  -5.31127471E+04   2.29394577E+03   0.00000000E+00   1.95031203E+04   4.96752741E+03   2.20747417E+03   7.19371124E+00   0.00000000E+00   0.00000000E+00   0.00000000E+00   0.00000000E+00   4.29270746E-02   1.54897077E+03   4.34796436E+03   0.00000000E+00   0.00000000E+00   0.00000000E+00   0.00000000E+00   1.93672241E+04
   2.08250000E+03   5.00000000E-01   5.00000000E-01  -5.31127443E+04   2.29394577E+03   0.00000000E+00   1.95031196E+04   4.96751341E+03   2.20747417E+03   7.19370743E+00   0.00000000E+00   0.00000000E+00   0.00000000E+00   0.00000000E+00   4.25904380E-02   1.54896971E+03   4.34795037E+03   0.00000000E+00   0.00000000E+00   0.00000000E+00   0.00000000E+00   1.93672175E+04
   2.11750000E+03   5.00000000E-01   5.00000000E-01  -5.31127418E+04   2.29394577E+03   0.00000000E+00   1.95031191E+04   4.96749965E+03   2.20747417E+03   7.19370292E+00   0.00000000E+00   0.00000000E+00   0.00000000E+00   0.00000000E+00   4.22387617E-02   1.54896862E+03   4.34793663E+03   0.00000000E+00   0.00000000E+00   0.00000000E+00   0.00000000E+00   1.93672109E+04
   2.15250000E+03   5.00000000E-01   5.00000000E-01  -5.31127403E+04   2.29394577E+03   0.00000000E+00   1.95031190E+04   4.96748613E+03   2.20747417E+03   7.19369761E+00   0.00000000E+00   0.00000000E+00   0.00000000E+00   0.00000000E+00   4.19690555E-02   1.54896750E+03   4.34792311E+03   0.00000000E+00   0.00000000E+00   0.00000000E+00   0.00000000E+00   1.93672058E+04
   2.18750000E+03   5.00000000E-01   5.00000000E-01  -5.31127389E+04   2.29394577E+03   0.00000000E+00   1.95031191E+04   4.96747284E+03   2.20747418E+03   7.19369144E+00   0.00000000E+00   0.00000000E+00   0.00000000E+00   0.00000000E+00   4.17560798E-02   1.54896633E+03   4.34790984E+03   0.00000000E+00   0.00000000E+00   0.00000000E+00   0.00000000E+00   1.93672014E+04
   2.22250000E+03   5.00000000E-01   5.00000000E-01  -5.31127376E+04   2.29394577E+03   0.00000000E+00   1.95031191E+04   4.96745981E+03   2.20747418E+03   7.19368431E+00   0.00000000E+00   0.00000000E+00   0.00000000E+00   0.00000000E+00   4.15328903E-02   1.54896510E+03   4.34789682E+03   0.00000000E+00   0.00000000E+00   0.00000000E+00   0.00000000E+00   1.93671970E+04
   2.25750000E+03   5.00000000E-01   5.00000000E-01  -5.31127367E+04   2.29394577E+03   0.00000000E+00   1.95031195E+04   4.96744701E+03   2.20747418E+03   7.19367617E+00   0.00000000E+00   0.00000000E+00   0.00000000E+00   0.00000000E+00   4.12844396E-02   1.54896382E+03   4.34788404E+03   0.00000000E+00   0.00000000E+00   0.00000000E+00   0.00000000E+00   1.93671927E+04
   2.29250000E+03   5.00000000E-01   5.00000000E-01  -5.31127361E+04   2.29394577E+03   0.00000000E+00   1.95031200E+04   4.96743445E+03   2.20747419E+03   7.19366695E+00   0.00000000E+00   0.00000000E+00   0.00000000E+00   0.00000000E+00   4.09986571E-02   1.54896249E+03   4.34787150E+03   0.00000000E+00   0.00000000E+00   0.00000000E+00   0.00000000E+00   1.93671883E+04
   2.32750000E+03   5.00000000E-01   5.00000000E-01  -5.31127359E+04   2.29394577E+03   0.00000000E+00   1.95031208E+04   4.96742213E+03   2.20747420E+03   7.19365665E+00   0.00000000E+00   0.00000000E+00   0.00000000E+00   0.00000000E+00   4.06733963E-02   1.54896111E+03   4.34785920E+03   0.00000000E+00   0.00000000E+00   0.00000000E+00   0.00000000E+00   1.93671838E+04
   2.36250000E+03   5.00000000E-01   5.00000000E-01  -5.31127363E+04   2.29394577E+03   0.00000000E+00   1.95031219E+04   4.96741004E+03   2.20747420E+03   7.19364527E+00   0.00000000E+00   0.00000000E+00   0.00000000E+00   0.00000000E+00   4.03200278E-02   1.54895970E+03   4.34784714E+03   0.00000000E+00   0.00000000E+00   0.00000000E+00   0.00000000E+00   1.93671796E+04
   2.39750000E+03   5.00000000E-01   5.00000000E-01  -5.31127372E+04   2.29394577E+03   0.00000000E+00   1.95031233E+04   4.96739818E+03   2.20747421E+03   7.19363290E+00   0.00000000E+00   0.00000000E+00   0.00000000E+00   0.00000000E+00   3.99472302E-02   1.54895825E+03   4.34783531E+03   0.00000000E+00   0.00000000E+00   0.00000000E+00   0.00000000E+00   1.93671755E+04
   2.43250000E+03   5.00000000E-01   5.00000000E-01  -5.31127385E+04   2.29394577E+03   0.00000000E+00   1.95031250E+04   4.96738656E+03   2.20747422E+03   7.19361973E+00   0.00000000E+00   0.00000000E+00   0.00000000E+00   0.00000000E+00   3.95400676E-02   1.54895676E+03   4.34782371E+03   0.00000000E+00   0.00000000E+00   0.00000000E+00   0.00000000E+00   1.93671715E+04
   2.46750000E+03   5.00000000E-01   5.00000000E-01  -5.31127404E+04   2.29394576E+03   0.00000000E+00   1.95031269E+04   4.96737517E+03   2.20747423E+03   7.19360599E+00   0.00000000E+00   0.00000000E+00   0.00000000E+00   0.00000000E+00   3.90963713E-02   1.54895525E+03   4.34781234E+03   0.00000000E+00   0.00000000E+00   0.00000000E+00   0.00000000E+00   1.93671675E+04
   2.50250000E+03   5.00000000E-01   5.00000000E-01  -5.31127428E+04   2.29394576E+03   0.00000000E+00   1.95031292E+04   4.96736400E+03   2.20747423E+03   7.19359205E+00   0.00000000E+00   0.00000000E+00   0.00000000E+00   0.00000000E+00   3.86177074E-02   1.54895371E+03   4.34780121E+03   0.00000000E+00   0.00000000E+00   0.00000000E+00   0.00000000E+00   1.93671636E+04
   2.53750000E+03   5.00000000E-01   5.00000000E-01  -5.31127458E+04   2.29394576E+03   0.00000000E+00   1.95031318E+04   4.96735306E+03   2.20747424E+03   7.19357834E+00   0.00000000E+00   0.00000000E+00   0.00000000E+00   0.00000000E+00   3.81053800E-02   1.54895216E+03   4.34779030E+03   0.00000000E+00   0.00000000E+00   0.00000000E+00   0.00000000E+00   1.93671598E+04
   2.57250000E+03   5.00000000E-01   5.00000000E-01  -5.31127495E+04   2.29394576E+03   0.00000000E+00   1.95031347E+04   4.96734235E+03   2.20747425E+03   7.19356540E+00   0.00000000E+00   0.00000000E+00   0.00000000E+00   0.00000000E+00   3.75615627E-02   1.54895058E+03   4.34777961E+03   0.00000000E+00   0.00000000E+00   0.00000000E+00   0.00000000E+00   1.93671561E+04
   2.60750000E+03   5.00000000E-01   5.00000000E-01  -5.31127539E+04   2.29394576E+03   0.00000000E+00   1.95031380E+04   4.96733185E+03   2.20747426E+03   7.19355387E+00   0.00000000E+00   0.00000000E+00   0.00000000E+00   0.00000000E+00   3.69865419E-02   1.54894900E+03   4.34776914E+03   0.00000000E+00   0.00000000E+00   0.00000000E+00   0.00000000E+00   1.93671526E+04
   2.64250000E+03   5.00000000E-01   5.00000000E-01  -5.31127591E+04   2.29394576E+03   0.00000000E+00   1.95031418E+04   4.96732157E+03   2.20747426E+03   7.19354444E+00   0.00000000E+00   0.00000000E+00   0.00000000E+00   0.00000000E+00   3.63822291E-02   1.54894740E+03   4.34775888E+03   0.00000000E+00   0.00000000E+00   0.00000000E+00   0.00000000E+00   1.93671493E+04
   2.67750000E+03   5.00000000E-01   5.00000000E-01  -5.31127653E+04   2.29394575E+03   0.00000000E+00   1.95031460E+04   4.96731150E+03   2.20747427E+03   7.19353783E+00   0.00000000E+00   0.00000000E+00   0.00000000E+00   0.00000000E+00   3.57780167E-02   1.54894579E+03   4.34774882E+03   0.00000000E+00   0.00000000E+00   0.00000000E+00   0.00000000E+00   1.93671466E+04
   2.71250000E+03   5.00000000E-01   5.00000000E-01  -5.31127723E+04   2.29394575E+03   0.00000000E+00   1.95031506E+04   4.96730164E+03   2.20747427E+03   7.19353475E+00   0.00000000E+00   0.00000000E+00   0.00000000E+00   0.00000000E+00   3.51560373E-02   1.54894417E+03   4.34773896E+03   0.00000000E+00   0.00000000E+00   0.00000000E+00   0.00000000E+00   1.93671442E+04