 TITLE = "Total Component Concentration in Minerals" 
VARIABLES = "X"          "Y"              "Z"            "H+"             "Al+++"          "CO2(aq)"        "Mg++"           "Ca++"           "Fe++"           "Fe+++"          "Ba++"           "Sr++"           "Li+"            "Rb+"            "Mn++"           "Zn++"           "Cu++"           "Cu+"            "Cl-"            "F-"             "K+"             "HS-"            "Na+"            "SO4--"          "O2(aq)"         "B(OH)3(aq)"     "HPO4--"         "NO3-"           "H4SiO4(aq)"     "Ti(OH)4(aq)"   
 ZONE I=         200 , J=           1 , K=           1  F=POINT
   8.75000000E+00   5.00000000E-01   5.00000000E-01  -4.46044900E+04   3.03735790E+03   0.00000000E+00   9.13177897E+03   1.72929622E+03   6.22338331E+03   7.34541571E+01   1.97452160E+00   2.16216069E+00   0.00000000E+00   0.00000000E+00   2.10714466E+01   6.95206198E+01   2.44618248E+00   7.03743637E+00   0.00000000E+00   8.14927749E+00   5.27953300E-06   3.51872927E+00   9.26583263E+02   6.58286672E+00  -1.95161130E-06   0.00000000E+00   0.00000000E+00   0.00000000E+00   1.51362987E+04   7.11043994E+00
   2.62500000E+01   5.00000000E-01   5.00000000E-01  -4.46258728E+04   3.03733253E+03   0.00000000E+00   9.14085136E+03   1.72951885E+03   6.22359062E+03   7.34541570E+01   1.94012412E+00   2.16216069E+00   0.00000000E+00   0.00000000E+00   2.10714466E+01   6.95206242E+01   2.44618248E+00   7.03729923E+00   0.00000000E+00   8.14927725E+00   1.05975809E-05   3.51866070E+00   9.29037610E+02   6.54846924E+00  -1.95161130E-06   0.00000000E+00   0.00000000E+00   0.00000000E+00   1.51540834E+04   7.11044031E+00
   4.37500000E+01   5.00000000E-01   5.00000000E-01  -4.46219986E+04   3.03733253E+03   0.00000000E+00   9.13723865E+03   1.72967515E+03   6.22379565E+03   7.34541570E+01   1.92643242E+00   2.16216069E+00   0.00000000E+00   0.00000000E+00   2.10714466E+01   6.95206244E+01   2.44618248E+00   7.03729923E+00   0.00000000E+00   8.14927702E+00   1.33491201E-05   3.51866070E+00   9.31666131E+02   6.53477754E+00  -1.95161130E-06   0.00000000E+00   0.00000000E+00   0.00000000E+00   1.51610493E+04   7.11044071E+00
   6.12500000E+01   5.00000000E-01   5.00000000E-01  -4.46171921E+04   3.03733253E+03   0.00000000E+00   9.13241517E+03   1.72980418E+03   6.22400851E+03   7.34541570E+01   1.92061993E+00   2.16216069E+00   0.00000000E+00   0.00000000E+00   2.10714466E+01   6.95206265E+01   2.44618248E+00   7.03729923E+00   0.00000000E+00   8.14927681E+00   1.52259533E-05   3.51866070E+00   9.35822805E+02   6.52896504E+00  -1.95161130E-06   0.00000000E+00   0.00000000E+00   0.00000000E+00   1.51725943E+04   7.11044121E+00
   7.87500000E+01   5.00000000E-01   5.00000000E-01  -4.46144887E+04   3.03733253E+03   0.00000000E+00   9.12815040E+03   1.72997016E+03   6.22424496E+03   7.34541570E+01   1.91798176E+00   2.16216069E+00   0.00000000E+00   0.00000000E+00   2.10714466E+01   6.95206307E+01   2.44618248E+00   7.03729923E+00   0.00000000E+00   8.14927662E+00   1.72802959E-05   3.51866070E+00   9.40844080E+02   6.52632688E+00  -1.95161130E-06   0.00000000E+00   0.00000000E+00   0.00000000E+00   1.51879434E+04   7.11044175E+00
   9.62500000E+01   5.00000000E-01   5.00000000E-01  -4.46130963E+04   3.03733253E+03   0.00000000E+00   9.12445045E+03   1.73018246E+03   6.22450945E+03   7.34541570E+01   1.91668395E+00   2.16216069E+00   0.00000000E+00   0.00000000E+00   2.10714466E+01   6.95206362E+01   2.44618248E+00   7.03729923E+00   0.00000000E+00   8.14927644E+00   1.94283525E-05   3.51866070E+00   9.45897942E+02   6.52502907E+00  -1.95161130E-06   0.00000000E+00   0.00000000E+00   0.00000000E+00   1.52040145E+04   7.11044228E+00
   1.13750000E+02   5.00000000E-01   5.00000000E-01  -4.46123020E+04   3.03733253E+03   0.00000000E+00   9.12129321E+03   1.73042725E+03   6.22480013E+03   7.34541570E+01   1.91597620E+00   2.16216069E+00   0.00000000E+00   0.00000000E+00   2.10714466E+01   6.95206427E+01   2.44618248E+00   7.03729923E+00   0.00000000E+00   8.14927628E+00   2.13274500E-05   3.51866070E+00   9.50347147E+02   6.52432131E+00  -1.95161130E-06   0.00000000E+00   0.00000000E+00   0.00000000E+00   1.52183835E+04   7.11044277E+00
   1.31250000E+02   5.00000000E-01   5.00000000E-01  -4.46118854E+04   3.03733253E+03   0.00000000E+00   9.11873605E+03   1.73068716E+03   6.22511369E+03   7.34541570E+01   1.91553838E+00   2.16216069E+00   0.00000000E+00   0.00000000E+00   2.10714466E+01   6.95206500E+01   2.44618248E+00   7.03729923E+00   0.00000000E+00   8.14927612E+00   2.27236798E-05   3.51866070E+00   9.53898013E+02   6.52388350E+00  -1.95161130E-06   0.00000000E+00   0.00000000E+00   0.00000000E+00   1.52299729E+04   7.11044320E+00
   1.48750000E+02   5.00000000E-01   5.00000000E-01  -4.46117853E+04   3.03733253E+03   0.00000000E+00   9.11677205E+03   1.73094887E+03   6.22544717E+03   7.34541570E+01   1.91522869E+00   2.16216069E+00   0.00000000E+00   0.00000000E+00   2.10714466E+01   6.95206580E+01   2.44618248E+00   7.03729923E+00   0.00000000E+00   8.14927599E+00   2.35212400E-05   3.51866070E+00   9.56535480E+02   6.52357380E+00  -1.95161130E-06   0.00000000E+00   0.00000000E+00   0.00000000E+00   1.52386953E+04   7.11044357E+00
   1.66250000E+02   5.00000000E-01   5.00000000E-01  -4.46119595E+04   3.03733253E+03   0.00000000E+00   9.11532759E+03   1.73120369E+03   6.22579823E+03   7.34541570E+01   1.91498207E+00   2.16216069E+00   0.00000000E+00   0.00000000E+00   2.10714466E+01   6.95206664E+01   2.44618248E+00   7.03729923E+00   0.00000000E+00   8.14927586E+00   2.37436782E-05   3.51866070E+00   9.58386873E+02   6.52332719E+00  -1.95161130E-06   0.00000000E+00   0.00000000E+00   0.00000000E+00   1.52449437E+04   7.11044387E+00
   1.83750000E+02   5.00000000E-01   5.00000000E-01  -4.46123652E+04   3.03733253E+03   0.00000000E+00   9.11430518E+03   1.73144599E+03   6.22616476E+03   7.34541570E+01   1.91476777E+00   2.16216069E+00   0.00000000E+00   0.00000000E+00   2.10714466E+01   6.95206753E+01   2.44618248E+00   7.03729922E+00   0.00000000E+00   8.14927574E+00   2.34774280E-05   3.51866070E+00   9.59619674E+02   6.52311288E+00  -1.95161130E-06   0.00000000E+00   0.00000000E+00   0.00000000E+00   1.52492453E+04   7.11044411E+00
   2.01250000E+02   5.00000000E-01   5.00000000E-01  -4.46129615E+04   3.03733253E+03   0.00000000E+00   9.11361237E+03   1.73167209E+03   6.22654477E+03   7.34541570E+01   1.91457080E+00   2.16216069E+00   0.00000000E+00   0.00000000E+00   2.10714466E+01   6.95206847E+01   2.44618248E+00   7.03729922E+00   0.00000000E+00   8.14927563E+00   2.28310484E-05   3.51866070E+00   9.60389384E+02   6.52291592E+00  -1.95161130E-06   0.00000000E+00   0.00000000E+00   0.00000000E+00   1.52520906E+04   7.11044429E+00
   2.18750000E+02   5.00000000E-01   5.00000000E-01  -4.46137131E+04   3.03733253E+03   0.00000000E+00   9.11317299E+03   1.73187965E+03   6.22693632E+03   7.34541570E+01   1.91438374E+00   2.16216069E+00   0.00000000E+00   0.00000000E+00   2.10714466E+01   6.95206943E+01   2.44618248E+00   7.03729922E+00   0.00000000E+00   8.14927552E+00   2.19120158E-05   3.51866069E+00   9.60821481E+02   6.52272885E+00  -1.95161130E-06   0.00000000E+00   0.00000000E+00   0.00000000E+00   1.52538748E+04   7.11044440E+00
   2.36250000E+02   5.00000000E-01   5.00000000E-01  -4.46145910E+04   3.03733253E+03   0.00000000E+00   9.11292851E+03   1.73206741E+03   6.22733758E+03   7.34541570E+01   1.91420281E+00   2.16216069E+00   0.00000000E+00   0.00000000E+00   2.10714466E+01   6.95207043E+01   2.44618248E+00   7.03729922E+00   0.00000000E+00   8.14927543E+00   2.08152762E-05   3.51866069E+00   9.61010199E+02   6.52254792E+00  -1.95161130E-06   0.00000000E+00   0.00000000E+00   0.00000000E+00   1.52548943E+04   7.11044445E+00
   2.53750000E+02   5.00000000E-01   5.00000000E-01  -4.46155720E+04   3.03733253E+03   0.00000000E+00   9.11283544E+03   1.73223504E+03   6.22774688E+03   7.34541570E+01   1.91402609E+00   2.16216069E+00   0.00000000E+00   0.00000000E+00   2.10714466E+01   6.95207145E+01   2.44618248E+00   7.03729922E+00   0.00000000E+00   8.14927534E+00   1.96187556E-05   3.51866069E+00   9.61023523E+02   6.52237121E+00  -1.95161130E-06   0.00000000E+00   0.00000000E+00   0.00000000E+00   1.52553627E+04   7.11044443E+00
   2.71250000E+02   5.00000000E-01   5.00000000E-01  -4.46166379E+04   3.03733253E+03   0.00000000E+00   9.11286171E+03   1.73238296E+03   6.22816272E+03   7.34541570E+01   1.91385264E+00   2.16216069E+00   0.00000000E+00   0.00000000E+00   2.10714466E+01   6.95207249E+01   2.44618248E+00   7.03729922E+00   0.00000000E+00   8.14927526E+00   1.83828001E-05   3.51866069E+00   9.60909357E+02   6.52219776E+00  -1.95161130E-06   0.00000000E+00   0.00000000E+00   0.00000000E+00   1.52554302E+04   7.11044436E+00
   2.88750000E+02   5.00000000E-01   5.00000000E-01  -4.46177739E+04   3.03733253E+03   0.00000000E+00   9.11298355E+03   1.73251220E+03   6.22858384E+03   7.34541570E+01   1.91368198E+00   2.16216069E+00   0.00000000E+00   0.00000000E+00   2.10714466E+01   6.95207356E+01   2.44618248E+00   7.03729922E+00   0.00000000E+00   8.14927518E+00   1.71516964E-05   3.51866069E+00   9.60700979E+02   6.52202710E+00  -1.95161130E-06   0.00000000E+00   0.00000000E+00   0.00000000E+00   1.52552009E+04   7.11044423E+00
   3.06250000E+02   5.00000000E-01   5.00000000E-01  -4.46189680E+04   3.03733253E+03   0.00000000E+00   9.11318302E+03   1.73262425E+03   6.22900915E+03   7.34541570E+01   1.91351392E+00   2.16216069E+00   0.00000000E+00   0.00000000E+00   2.10714466E+01   6.95207465E+01   2.44618248E+00   7.03729922E+00   0.00000000E+00   8.14927511E+00   1.59561343E-05   3.51866069E+00   9.60421315E+02   6.52185904E+00  -1.95161130E-06   0.00000000E+00   0.00000000E+00   0.00000000E+00   1.52547465E+04   7.11044404E+00
   3.23750000E+02   5.00000000E-01   5.00000000E-01  -4.46202097E+04   3.03733253E+03   0.00000000E+00   9.11344624E+03   1.73272085E+03   6.22943777E+03   7.34541570E+01   1.91334841E+00   2.16216069E+00   0.00000000E+00   0.00000000E+00   2.10714466E+01   6.95207576E+01   2.44618248E+00   7.03729922E+00   0.00000000E+00   8.14927505E+00   1.48159267E-05   3.51866069E+00   9.60086118E+02   6.52169352E+00  -1.95161130E-06   0.00000000E+00   0.00000000E+00   0.00000000E+00   1.52541161E+04   7.11044381E+00
   3.41250000E+02   5.00000000E-01   5.00000000E-01  -4.46214903E+04   3.03733253E+03   0.00000000E+00   9.11376217E+03   1.73280391E+03   6.22986901E+03   7.34541570E+01   1.91318546E+00   2.16216069E+00   0.00000000E+00   0.00000000E+00   2.10714466E+01   6.95207689E+01   2.44618248E+00   7.03729922E+00   0.00000000E+00   8.14927498E+00   1.37426024E-05   3.51866069E+00   9.59706278E+02   6.52153057E+00  -1.95161130E-06   0.00000000E+00   0.00000000E+00   0.00000000E+00   1.52533435E+04   7.11044352E+00
   3.58750000E+02   5.00000000E-01   5.00000000E-01  -4.46228022E+04   3.03733253E+03   0.00000000E+00   9.11412179E+03   1.73287532E+03   6.23030232E+03   7.34541570E+01   1.91302514E+00   2.16216069E+00   0.00000000E+00   0.00000000E+00   2.10714466E+01   6.95207804E+01   2.44618248E+00   7.03729922E+00   0.00000000E+00   8.14927493E+00   1.27416760E-05   3.51866069E+00   9.59289493E+02   6.52137025E+00  -1.95161130E-06   0.00000000E+00   0.00000000E+00   0.00000000E+00   1.52524523E+04   7.11044319E+00
   3.76250000E+02   5.00000000E-01   5.00000000E-01  -4.46241387E+04   3.03733253E+03   0.00000000E+00   9.11451752E+03   1.73293686E+03   6.23073727E+03   7.34541570E+01   1.91286753E+00   2.16216069E+00   0.00000000E+00   0.00000000E+00   2.10714466E+01   6.95207921E+01   2.44618248E+00   7.03729922E+00   0.00000000E+00   8.14927488E+00   1.18145144E-05   3.51866069E+00   9.58841472E+02   6.52121264E+00  -1.95161130E-06   0.00000000E+00   0.00000000E+00   0.00000000E+00   1.52514602E+04   7.11044282E+00
   3.93750000E+02   5.00000000E-01   5.00000000E-01  -4.46254938E+04   3.03733253E+03   0.00000000E+00   9.11494289E+03   1.73299015E+03   6.23117354E+03   7.34541570E+01   1.91271273E+00   2.16216069E+00   0.00000000E+00   0.00000000E+00   2.10714466E+01   6.95208041E+01   2.44618248E+00   7.03729922E+00   0.00000000E+00   8.14927483E+00   1.09597834E-05   3.51866069E+00   9.58366747E+02   6.52105785E+00  -1.95161130E-06   0.00000000E+00   0.00000000E+00   0.00000000E+00   1.52503809E+04   7.11044242E+00
   4.11250000E+02   5.00000000E-01   5.00000000E-01  -4.46268624E+04   3.03733253E+03   0.00000000E+00   9.11539215E+03   1.73303660E+03   6.23161091E+03   7.34541570E+01   1.91256084E+00   2.16216069E+00   0.00000000E+00   0.00000000E+00   2.10714466E+01   6.95208163E+01   2.44618248E+00   7.03729922E+00   0.00000000E+00   8.14927478E+00   1.01744957E-05   3.51866069E+00   9.57869178E+02   6.52090596E+00  -1.95161130E-06   0.00000000E+00   0.00000000E+00   0.00000000E+00   1.52492261E+04   7.11044198E+00
   4.28750000E+02   5.00000000E-01   5.00000000E-01  -4.46282394E+04   3.03733253E+03   0.00000000E+00   9.11586005E+03   1.73307744E+03   6.23204914E+03   7.34541570E+01   1.91241195E+00   2.16216069E+00   0.00000000E+00   0.00000000E+00   2.10714466E+01   6.95208288E+01   2.44618248E+00   7.03729922E+00   0.00000000E+00   8.14927474E+00   9.45471815E-06   3.51866069E+00   9.57352191E+02   6.52075707E+00  -1.95161130E-06   0.00000000E+00   0.00000000E+00   0.00000000E+00   1.52480060E+04   7.11044150E+00
   4.46250000E+02   5.00000000E-01   5.00000000E-01  -4.46296195E+04   3.03733253E+03   0.00000000E+00   9.11634155E+03   1.73311373E+03   6.23248806E+03   7.34541570E+01   1.91226616E+00   2.16216069E+00   0.00000000E+00   0.00000000E+00   2.10714466E+01   6.95208415E+01   2.44618248E+00   7.03729922E+00   0.00000000E+00   8.14927470E+00   8.79601823E-06   3.51866069E+00   9.56818852E+02   6.52061128E+00  -1.95161130E-06   0.00000000E+00   0.00000000E+00   0.00000000E+00   1.52467292E+04   7.11044100E+00
   4.63750000E+02   5.00000000E-01   5.00000000E-01  -4.46309970E+04   3.03733253E+03   0.00000000E+00   9.11683172E+03   1.73314641E+03   6.23292744E+03   7.34541570E+01   1.91212356E+00   2.16216069E+00   0.00000000E+00   0.00000000E+00   2.10714466E+01   6.95208545E+01   2.44618248E+00   7.03729922E+00   0.00000000E+00   8.14927467E+00   8.19373933E-06   3.51866069E+00   9.56271859E+02   6.52046867E+00  -1.95161130E-06   0.00000000E+00   0.00000000E+00   0.00000000E+00   1.52454031E+04   7.11044048E+00
   4.81250000E+02   5.00000000E-01   5.00000000E-01  -4.46323657E+04   3.03733253E+03   0.00000000E+00   9.11732571E+03   1.73317630E+03   6.23336702E+03   7.34541570E+01   1.91198423E+00   2.16216069E+00   0.00000000E+00   0.00000000E+00   2.10714466E+01   6.95208677E+01   2.44618248E+00   7.03729921E+00   0.00000000E+00   8.14927464E+00   7.64318300E-06   3.51866069E+00   9.55713547E+02   6.52032935E+00  -1.95161130E-06   0.00000000E+00   0.00000000E+00   0.00000000E+00   1.52440332E+04   7.11043993E+00
   4.98750000E+02   5.00000000E-01   5.00000000E-01  -4.46337189E+04   3.03733253E+03   0.00000000E+00   9.11781879E+03   1.73320413E+03   6.23380650E+03   7.34541570E+01   1.91184826E+00   2.16216069E+00   0.00000000E+00   0.00000000E+00   2.10714466E+01   6.95208813E+01   2.44618248E+00   7.03729921E+00   0.00000000E+00   8.14927461E+00   7.13974800E-06   3.51866069E+00   9.55145940E+02   6.52019338E+00  -1.95161130E-06   0.00000000E+00   0.00000000E+00   0.00000000E+00   1.52426241E+04   7.11043936E+00
   5.16250000E+02   5.00000000E-01   5.00000000E-01  -4.46350499E+04   3.03733253E+03   0.00000000E+00   9.11830646E+03   1.73323046E+03   6.23424554E+03   7.34541570E+01   1.91171573E+00   2.16216069E+00   0.00000000E+00   0.00000000E+00   2.10714466E+01   6.95208951E+01   2.44618248E+00   7.03729921E+00   0.00000000E+00   8.14927458E+00   6.67904767E-06   3.51866069E+00   9.54570853E+02   6.52006084E+00  -1.95161130E-06   0.00000000E+00   0.00000000E+00   0.00000000E+00   1.52411794E+04   7.11043878E+00
   5.33750000E+02   5.00000000E-01   5.00000000E-01  -4.46363521E+04   3.03733253E+03   0.00000000E+00   9.11878451E+03   1.73325569E+03   6.23468376E+03   7.34541570E+01   1.91158670E+00   2.16216069E+00   0.00000000E+00   0.00000000E+00   2.10714466E+01   6.95209093E+01   2.44618248E+00   7.03729921E+00   0.00000000E+00   8.14927455E+00   6.25700520E-06   3.51866069E+00   9.53990013E+02   6.51993182E+00  -1.95161130E-06   0.00000000E+00   0.00000000E+00   0.00000000E+00   1.52397022E+04   7.11043818E+00
   5.51250000E+02   5.00000000E-01   5.00000000E-01  -4.46376191E+04   3.03733253E+03   0.00000000E+00   9.11924906E+03   1.73328003E+03   6.23512080E+03   7.34541570E+01   1.91146126E+00   2.16216069E+00   0.00000000E+00   0.00000000E+00   2.10714466E+01   6.95209238E+01   2.44618248E+00   7.03729921E+00   0.00000000E+00   8.14927453E+00   5.86991635E-06   3.51866069E+00   9.53405147E+02   6.51980638E+00  -1.95161130E-06   0.00000000E+00   0.00000000E+00   0.00000000E+00   1.52381958E+04   7.11043757E+00
   5.68750000E+02   5.00000000E-01   5.00000000E-01  -4.46388448E+04   3.03733253E+03   0.00000000E+00   9.11969651E+03   1.73330355E+03   6.23555624E+03   7.34541570E+01   1.91133947E+00   2.16216069E+00   0.00000000E+00   0.00000000E+00   2.10714466E+01   6.95209386E+01   2.44618248E+00   7.03729921E+00   0.00000000E+00   8.14927451E+00   5.51447078E-06   3.51866069E+00   9.52818003E+02   6.51968459E+00  -1.95161130E-06   0.00000000E+00   0.00000000E+00   0.00000000E+00   1.52366633E+04   7.11043694E+00
   5.86250000E+02   5.00000000E-01   5.00000000E-01  -4.46400231E+04   3.03733253E+03   0.00000000E+00   9.12012343E+03   1.73332618E+03   6.23598968E+03   7.34541570E+01   1.91122139E+00   2.16216069E+00   0.00000000E+00   0.00000000E+00   2.10714466E+01   6.95209537E+01   2.44618248E+00   7.03729921E+00   0.00000000E+00   8.14927449E+00   5.18773241E-06   3.51866069E+00   9.52230310E+02   6.51956651E+00  -1.95161130E-06   0.00000000E+00   0.00000000E+00   0.00000000E+00   1.52351078E+04   7.11043632E+00
   6.03750000E+02   5.00000000E-01   5.00000000E-01  -4.46411478E+04   3.03733253E+03   0.00000000E+00   9.12052649E+03   1.73334780E+03   6.23642066E+03   7.34541570E+01   1.91110707E+00   2.16216069E+00   0.00000000E+00   0.00000000E+00   2.10714466E+01   6.95209692E+01   2.44618248E+00   7.03729921E+00   0.00000000E+00   8.14927448E+00   4.88709016E-06   3.51866069E+00   9.51643685E+02   6.51945220E+00  -1.95161130E-06   0.00000000E+00   0.00000000E+00   0.00000000E+00   1.52335319E+04   7.11043568E+00
   6.21250000E+02   5.00000000E-01   5.00000000E-01  -4.46422125E+04   3.03733252E+03   0.00000000E+00   9.12090240E+03   1.73336829E+03   6.23684865E+03   7.34541570E+01   1.91099659E+00   2.16216069E+00   0.00000000E+00   0.00000000E+00   2.10714466E+01   6.95209850E+01   2.44618248E+00   7.03729921E+00   0.00000000E+00   8.14927446E+00   4.61019696E-06   3.51866069E+00   9.51059543E+02   6.51934171E+00  -1.95161130E-06   0.00000000E+00   0.00000000E+00   0.00000000E+00   1.52319376E+04   7.11043504E+00
   6.38750000E+02   5.00000000E-01   5.00000000E-01  -4.46432105E+04   3.03733252E+03   0.00000000E+00   9.12124798E+03   1.73338757E+03   6.23727305E+03   7.34541570E+01   1.91088998E+00   2.16216069E+00   0.00000000E+00   0.00000000E+00   2.10714466E+01   6.95210012E+01   2.44618248E+00   7.03729921E+00   0.00000000E+00   8.14927445E+00   4.35491440E-06   3.51866069E+00   9.50479035E+02   6.51923511E+00  -1.95161130E-06   0.00000000E+00   0.00000000E+00   0.00000000E+00   1.52303257E+04   7.11043440E+00
   6.56250000E+02   5.00000000E-01   5.00000000E-01  -4.46441353E+04   3.03733252E+03   0.00000000E+00   9.12156020E+03   1.73340559E+03   6.23769317E+03   7.34541570E+01   1.91078729E+00   2.16216069E+00   0.00000000E+00   0.00000000E+00   2.10714466E+01   6.95210178E+01   2.44618248E+00   7.03729921E+00   0.00000000E+00   8.14927444E+00   4.11927442E-06   3.51866069E+00   9.49903044E+02   6.51913243E+00  -1.95161130E-06   0.00000000E+00   0.00000000E+00   0.00000000E+00   1.52286966E+04   7.11043376E+00
   6.73750000E+02   5.00000000E-01   5.00000000E-01  -4.46449804E+04   3.03733252E+03   0.00000000E+00   9.12183634E+03   1.73342230E+03   6.23810825E+03   7.34541570E+01   1.91068857E+00   2.16216069E+00   0.00000000E+00   0.00000000E+00   2.10714466E+01   6.95210347E+01   2.44618248E+00   7.03729921E+00   0.00000000E+00   8.14927443E+00   3.90146166E-06   3.51866069E+00   9.49332231E+02   6.51903373E+00  -1.95161130E-06   0.00000000E+00   0.00000000E+00   0.00000000E+00   1.52270497E+04   7.11043311E+00
   6.91250000E+02   5.00000000E-01   5.00000000E-01  -4.46457399E+04   3.03733252E+03   0.00000000E+00   9.12207406E+03   1.73343764E+03   6.23851749E+03   7.34541570E+01   1.91059387E+00   2.16216069E+00   0.00000000E+00   0.00000000E+00   2.10714466E+01   6.95210520E+01   2.44618248E+00   7.03729921E+00   0.00000000E+00   8.14927442E+00   3.69981312E-06   3.51866069E+00   9.48767118E+02   6.51893904E+00  -1.95161130E-06   0.00000000E+00   0.00000000E+00   0.00000000E+00   1.52253844E+04   7.11043247E+00
   7.08750000E+02   5.00000000E-01   5.00000000E-01  -4.46464087E+04   3.03733252E+03   0.00000000E+00   9.12227152E+03   1.73345142E+03   6.23892010E+03   7.34541570E+01   1.91050320E+00   2.16216069E+00   0.00000000E+00   0.00000000E+00   2.10714466E+01   6.95210697E+01   2.44618248E+00   7.03729921E+00   0.00000000E+00   8.14927442E+00   3.51282752E-06   3.51866069E+00   9.48208173E+02   6.51884840E+00  -1.95161130E-06   0.00000000E+00   0.00000000E+00   0.00000000E+00   1.52237000E+04   7.11043184E+00
   7.26250000E+02   5.00000000E-01   5.00000000E-01  -4.46469824E+04   3.03733252E+03   0.00000000E+00   9.12242727E+03   1.73346337E+03   6.23931538E+03   7.34541570E+01   1.91041662E+00   2.16216069E+00   0.00000000E+00   0.00000000E+00   2.10714466E+01   6.95210878E+01   2.44618248E+00   7.03729921E+00   0.00000000E+00   8.14927441E+00   3.33917495E-06   3.51866069E+00   9.47655869E+02   6.51876186E+00  -1.95161130E-06   0.00000000E+00   0.00000000E+00   0.00000000E+00   1.52219963E+04   7.11043120E+00
   7.43750000E+02   5.00000000E-01   5.00000000E-01  -4.46474574E+04   3.03733252E+03   0.00000000E+00   9.12254025E+03   1.73347310E+03   6.23970272E+03   7.34541570E+01   1.91033414E+00   2.16216069E+00   0.00000000E+00   0.00000000E+00   2.10714466E+01   6.95211062E+01   2.44618248E+00   7.03729921E+00   0.00000000E+00   8.14927441E+00   3.17769873E-06   3.51866069E+00   9.47110699E+02   6.51867943E+00  -1.95161130E-06   0.00000000E+00   0.00000000E+00   0.00000000E+00   1.52202731E+04   7.11043057E+00
   7.61250000E+02   5.00000000E-01   5.00000000E-01  -4.46478306E+04   3.03733252E+03   0.00000000E+00   9.12260965E+03   1.73348017E+03   6.24008166E+03   7.34541570E+01   1.91025579E+00   2.16216069E+00   0.00000000E+00   0.00000000E+00   2.10714466E+01   6.95211251E+01   2.44618248E+00   7.03729920E+00   0.00000000E+00   8.14927441E+00   3.02740525E-06   3.51866069E+00   9.46573135E+02   6.51860117E+00  -1.95161130E-06   0.00000000E+00   0.00000000E+00   0.00000000E+00   1.52185304E+04   7.11042995E+00
   7.78750000E+02   5.00000000E-01   5.00000000E-01  -4.46480997E+04   3.03733252E+03   0.00000000E+00   9.12263478E+03   1.73348410E+03   6.24045189E+03   7.34541570E+01   1.91018159E+00   2.16216069E+00   0.00000000E+00   0.00000000E+00   2.10714466E+01   6.95211443E+01   2.44618248E+00   7.03729920E+00   0.00000000E+00   8.14927441E+00   2.88744211E-06   3.51866069E+00   9.46043564E+02   6.51852709E+00  -1.95161130E-06   0.00000000E+00   0.00000000E+00   0.00000000E+00   1.52167681E+04   7.11042934E+00
   7.96250000E+02   5.00000000E-01   5.00000000E-01  -4.46482624E+04   3.03733252E+03   0.00000000E+00   9.12261509E+03   1.73348450E+03   6.24081321E+03   7.34541570E+01   1.91011155E+00   2.16216069E+00   0.00000000E+00   0.00000000E+00   2.10714466E+01   6.95211640E+01   2.44618248E+00   7.03729920E+00   0.00000000E+00   8.14927441E+00   2.75706919E-06   3.51866068E+00   9.45522216E+02   6.51845724E+00  -1.95161130E-06   0.00000000E+00   0.00000000E+00   0.00000000E+00   1.52149858E+04   7.11042873E+00
   8.13750000E+02   5.00000000E-01   5.00000000E-01  -4.46483175E+04   3.03733252E+03   0.00000000E+00   9.12255022E+03   1.73348110E+03   6.24116553E+03   7.34541570E+01   1.91004570E+00   2.16216069E+00   0.00000000E+00   0.00000000E+00   2.10714466E+01   6.95211840E+01   2.44618248E+00   7.03729920E+00   0.00000000E+00   8.14927442E+00   2.63562876E-06   3.51866068E+00   9.45009136E+02   6.51839167E+00  -1.95161130E-06   0.00000000E+00   0.00000000E+00   0.00000000E+00   1.52131827E+04   7.11042813E+00
   8.31250000E+02   5.00000000E-01   5.00000000E-01  -4.46482642E+04   3.03733252E+03   0.00000000E+00   9.12244010E+03   1.73347374E+03   6.24150881E+03   7.34541570E+01   1.90998402E+00   2.16216069E+00   0.00000000E+00   0.00000000E+00   2.10714466E+01   6.95212045E+01   2.44618248E+00   7.03729920E+00   0.00000000E+00   8.14927442E+00   2.52251988E-06   3.51866068E+00   9.44504192E+02   6.51833043E+00  -1.95161130E-06   0.00000000E+00   0.00000000E+00   0.00000000E+00   1.52113580E+04   7.11042754E+00
   8.48750000E+02   5.00000000E-01   5.00000000E-01  -4.46481031E+04   3.03733252E+03   0.00000000E+00   9.12228520E+03   1.73346240E+03   6.24184303E+03   7.34541570E+01   1.90992654E+00   2.16216069E+00   0.00000000E+00   0.00000000E+00   2.10714466E+01   6.95212255E+01   2.44618248E+00   7.03729920E+00   0.00000000E+00   8.14927443E+00   2.41717979E-06   3.51866068E+00   9.44007147E+02   6.51827360E+00  -1.95161130E-06   0.00000000E+00   0.00000000E+00   0.00000000E+00   1.52095112E+04   7.11042697E+00
   8.66250000E+02   5.00000000E-01   5.00000000E-01  -4.46478364E+04   3.03733252E+03   0.00000000E+00   9.12208662E+03   1.73344718E+03   6.24216813E+03   7.34541570E+01   1.90987324E+00   2.16216069E+00   0.00000000E+00   0.00000000E+00   2.10714466E+01   6.95212469E+01   2.44618248E+00   7.03729920E+00   0.00000000E+00   8.14927443E+00   2.31907249E-06   3.51866068E+00   9.43517757E+02   6.51822131E+00  -1.95161130E-06   0.00000000E+00   0.00000000E+00   0.00000000E+00   1.52076426E+04   7.11042640E+00
   8.83750000E+02   5.00000000E-01   5.00000000E-01  -4.46474676E+04   3.03733252E+03   0.00000000E+00   9.12184622E+03   1.73342823E+03   6.24248398E+03   7.34541570E+01   1.90982412E+00   2.16216070E+00   0.00000000E+00   0.00000000E+00   2.10714466E+01   6.95212688E+01   2.44618248E+00   7.03729920E+00   0.00000000E+00   8.14927444E+00   2.22768327E-06   3.51866068E+00   9.43035879E+02   6.51817376E+00  -1.95161130E-06   0.00000000E+00   0.00000000E+00   0.00000000E+00   1.52057533E+04   7.11042584E+00
   9.01250000E+02   5.00000000E-01   5.00000000E-01  -4.46470019E+04   3.03733252E+03   0.00000000E+00   9.12156669E+03   1.73340577E+03   6.24279026E+03   7.34541570E+01   1.90977917E+00   2.16216070E+00   0.00000000E+00   0.00000000E+00   2.10714466E+01   6.95212912E+01   2.44618248E+00   7.03729920E+00   0.00000000E+00   8.14927445E+00   2.14251709E-06   3.51866068E+00   9.42561568E+02   6.51813127E+00  -1.95161130E-06   0.00000000E+00   0.00000000E+00   0.00000000E+00   1.52038464E+04   7.11042529E+00
   9.18750000E+02   5.00000000E-01   5.00000000E-01  -4.46464458E+04   3.03733252E+03   0.00000000E+00   9.12125140E+03   1.73338001E+03   6.24308648E+03   7.34541570E+01   1.90973839E+00   2.16216070E+00   0.00000000E+00   0.00000000E+00   2.10714466E+01   6.95213141E+01   2.44618248E+00   7.03729920E+00   0.00000000E+00   8.14927446E+00   2.06309925E-06   3.51866068E+00   9.42095136E+02   6.51809434E+00  -1.95161130E-06   0.00000000E+00   0.00000000E+00   0.00000000E+00   1.52019260E+04   7.11042476E+00
   9.36250000E+02   5.00000000E-01   5.00000000E-01  -4.46458070E+04   3.03733252E+03   0.00000000E+00   9.12090435E+03   1.73335119E+03   6.24337189E+03   7.34541570E+01   1.90970174E+00   2.16216070E+00   0.00000000E+00   0.00000000E+00   2.10714466E+01   6.95213375E+01   2.44618248E+00   7.03729920E+00   0.00000000E+00   8.14927447E+00   1.98897718E-06   3.51866068E+00   9.41637173E+02   6.51806382E+00  -1.95161130E-06   0.00000000E+00   0.00000000E+00   0.00000000E+00   1.51999981E+04   7.11042424E+00
   9.53750000E+02   5.00000000E-01   5.00000000E-01  -4.46450934E+04   3.03733252E+03   0.00000000E+00   9.12052995E+03   1.73331953E+03   6.24364546E+03   7.34541570E+01   1.90966923E+00   2.16216070E+00   0.00000000E+00   0.00000000E+00   2.10714466E+01   6.95213614E+01   2.44618248E+00   7.03729920E+00   0.00000000E+00   8.14927449E+00   1.91972263E-06   3.51866068E+00   9.41188540E+02   6.51804108E+00  -1.95161130E-06   0.00000000E+00   0.00000000E+00   0.00000000E+00   1.51980695E+04   7.11042373E+00
   9.71250000E+02   5.00000000E-01   5.00000000E-01  -4.46443133E+04   3.03733252E+03   0.00000000E+00   9.12013287E+03   1.73328520E+03   6.24390591E+03   7.34541570E+01   1.90964083E+00   2.16216070E+00   0.00000000E+00   0.00000000E+00   2.10714466E+01   6.95213858E+01   2.44618248E+00   7.03729920E+00   0.00000000E+00   8.14927450E+00   1.85493404E-06   3.51866068E+00   9.40750326E+02   6.51802840E+00  -1.95161130E-06   0.00000000E+00   0.00000000E+00   0.00000000E+00   1.51961482E+04   7.11042324E+00
   9.88750000E+02   5.00000000E-01   5.00000000E-01  -4.46434747E+04   3.03733252E+03   0.00000000E+00   9.11971788E+03   1.73324840E+03   6.24415169E+03   7.34541570E+01   1.90961653E+00   2.16216070E+00   0.00000000E+00   0.00000000E+00   2.10714466E+01   6.95214107E+01   2.44618248E+00   7.03729920E+00   0.00000000E+00   8.14927452E+00   1.79423872E-06   3.51866068E+00   9.40323785E+02   6.51802959E+00  -1.95161130E-06   0.00000000E+00   0.00000000E+00   0.00000000E+00   1.51942428E+04   7.11042275E+00