 TITLE = "Total Component Concentration in Minerals" 
VARIABLES = "X"          "Y"              "Z"            "H+"             "Al+++"          "CO2(aq)"        "Mg++"           "Ca++"           "Fe++"           "Fe+++"          "Ba++"           "Sr++"           "Cl-"            "F-"             "K+"             "Na+"            "SO4--"          "O2(aq)"         "B(OH)3(aq)"     "HPO4--"         "NO3-"           "H4SiO4(aq)"    
 ZONE I=         100 , J=           1 , K=           1  F=POINT
   1.75000000E+01   5.00000000E-01   5.00000000E-01  -5.31260685E+04   2.29394948E+03   0.00000000E+00   1.95162947E+04   2.12785011E+03   2.20490216E+03   7.19372704E+00   0.00000000E+00   0.00000000E+00   0.00000000E+00   0.00000000E+00   1.58610021E+00   1.54218338E+03   1.50961233E+03   0.00000000E+00   0.00000000E+00   0.00000000E+00   0.00000000E+00   1.93572873E+04
   5.25000000E+01   5.00000000E-01   5.00000000E-01  -5.31161453E+04   2.29394578E+03   0.00000000E+00   1.95103229E+04   4.06783846E+03   2.20490228E+03   7.19372705E+00   0.00000000E+00   0.00000000E+00   0.00000000E+00   0.00000000E+00   1.79488264E+00   1.54400524E+03   3.44960032E+03   0.00000000E+00   0.00000000E+00   0.00000000E+00   0.00000000E+00   1.93599291E+04
   8.75000000E+01   5.00000000E-01   5.00000000E-01  -5.31154708E+04   2.29394578E+03   0.00000000E+00   1.95096034E+04   4.81484239E+03   2.20490246E+03   7.19372704E+00   0.00000000E+00   0.00000000E+00   0.00000000E+00   0.00000000E+00   1.71121725E+00   1.54485291E+03   4.19660415E+03   0.00000000E+00   0.00000000E+00   0.00000000E+00   0.00000000E+00   1.93623803E+04
   1.22500000E+02   5.00000000E-01   5.00000000E-01  -5.31153224E+04   2.29394578E+03   0.00000000E+00   1.95093433E+04   5.01354861E+03   2.20490269E+03   7.19372704E+00   0.00000000E+00   0.00000000E+00   0.00000000E+00   0.00000000E+00   1.64249836E+00   1.54529275E+03   4.39531031E+03   0.00000000E+00   0.00000000E+00   0.00000000E+00   0.00000000E+00   1.93635866E+04
   1.57500000E+02   5.00000000E-01   5.00000000E-01  -5.31153631E+04   2.29394578E+03   0.00000000E+00   1.95092695E+04   5.06220632E+03   2.20490297E+03   7.19372703E+00   0.00000000E+00   0.00000000E+00   0.00000000E+00   0.00000000E+00   1.60048376E+00   1.54552253E+03   4.44396798E+03   0.00000000E+00   0.00000000E+00   0.00000000E+00   0.00000000E+00   1.93642484E+04
   1.92500000E+02   5.00000000E-01   5.00000000E-01  -5.31155013E+04   2.29394578E+03   0.00000000E+00   1.95092940E+04   5.07469247E+03   2.20490329E+03   7.19372702E+00   0.00000000E+00   0.00000000E+00   0.00000000E+00   0.00000000E+00   1.57814199E+00   1.54563329E+03   4.45645408E+03   0.00000000E+00   0.00000000E+00   0.00000000E+00   0.00000000E+00   1.93646316E+04
   2.27500000E+02   5.00000000E-01   5.00000000E-01  -5.31156998E+04   2.29394578E+03   0.00000000E+00   1.95093780E+04   5.07847868E+03   2.20490365E+03   7.19372701E+00   0.00000000E+00   0.00000000E+00   0.00000000E+00   0.00000000E+00   1.56898502E+00   1.54567213E+03   4.46024024E+03   0.00000000E+00   0.00000000E+00   0.00000000E+00   0.00000000E+00   1.93648579E+04
   2.62500000E+02   5.00000000E-01   5.00000000E-01  -5.31159408E+04   2.29394578E+03   0.00000000E+00   1.95095017E+04   5.07996854E+03   2.20490405E+03   7.19372701E+00   0.00000000E+00   0.00000000E+00   0.00000000E+00   0.00000000E+00   1.56854227E+00   1.54566533E+03   4.46173006E+03   0.00000000E+00   0.00000000E+00   0.00000000E+00   0.00000000E+00   1.93649903E+04
   2.97500000E+02   5.00000000E-01   5.00000000E-01  -5.31162149E+04   2.29394578E+03   0.00000000E+00   1.95096540E+04   5.08064518E+03   2.20490447E+03   7.19372700E+00   0.00000000E+00   0.00000000E+00   0.00000000E+00   0.00000000E+00   1.57388015E+00   1.54562841E+03   4.46240665E+03   0.00000000E+00   0.00000000E+00   0.00000000E+00   0.00000000E+00   1.93650645E+04
   3.32500000E+02   5.00000000E-01   5.00000000E-01  -5.31165165E+04   2.29394578E+03   0.00000000E+00   1.95098285E+04   5.08086366E+03   2.20490493E+03   7.19372699E+00   0.00000000E+00   0.00000000E+00   0.00000000E+00   0.00000000E+00   1.58307825E+00   1.54557092E+03   4.46262509E+03   0.00000000E+00   0.00000000E+00   0.00000000E+00   0.00000000E+00   1.93651014E+04
   3.67500000E+02   5.00000000E-01   5.00000000E-01  -5.31168420E+04   2.29394578E+03   0.00000000E+00   1.95100209E+04   5.08072503E+03   2.20490540E+03   7.19372698E+00   0.00000000E+00   0.00000000E+00   0.00000000E+00   0.00000000E+00   1.59486419E+00   1.54549891E+03   4.46248641E+03   0.00000000E+00   0.00000000E+00   0.00000000E+00   0.00000000E+00   1.93651143E+04
   4.02500000E+02   5.00000000E-01   5.00000000E-01  -5.31171890E+04   2.29394578E+03   0.00000000E+00   1.95102283E+04   5.08027398E+03   2.20490590E+03   7.19372697E+00   0.00000000E+00   0.00000000E+00   0.00000000E+00   0.00000000E+00   1.60837878E+00   1.54541638E+03   4.46203531E+03   0.00000000E+00   0.00000000E+00   0.00000000E+00   0.00000000E+00   1.93651113E+04
   4.37500000E+02   5.00000000E-01   5.00000000E-01  -5.31175552E+04   2.29394578E+03   0.00000000E+00   1.95104487E+04   5.07954253E+03   2.20490641E+03   7.19372695E+00   0.00000000E+00   0.00000000E+00   0.00000000E+00   0.00000000E+00   1.62303194E+00   1.54532604E+03   4.46130382E+03   0.00000000E+00   0.00000000E+00   0.00000000E+00   0.00000000E+00   1.93650977E+04
   4.72500000E+02   5.00000000E-01   5.00000000E-01  -5.31179387E+04   2.29394578E+03   0.00000000E+00   1.95106803E+04   5.07855930E+03   2.20490694E+03   7.19372694E+00   0.00000000E+00   0.00000000E+00   0.00000000E+00   0.00000000E+00   1.63840810E+00   1.54522980E+03   4.46032054E+03   0.00000000E+00   0.00000000E+00   0.00000000E+00   0.00000000E+00   1.93650768E+04
   5.07500000E+02   5.00000000E-01   5.00000000E-01  -5.31183372E+04   2.29394578E+03   0.00000000E+00   1.95109214E+04   5.07735133E+03   2.20490749E+03   7.19372693E+00   0.00000000E+00   0.00000000E+00   0.00000000E+00   0.00000000E+00   1.65418184E+00   1.54512909E+03   4.45911253E+03   0.00000000E+00   0.00000000E+00   0.00000000E+00   0.00000000E+00   1.93650506E+04
   5.42500000E+02   5.00000000E-01   5.00000000E-01  -5.31187485E+04   2.29394578E+03   0.00000000E+00   1.95111706E+04   5.07594431E+03   2.20490804E+03   7.19372692E+00   0.00000000E+00   0.00000000E+00   0.00000000E+00   0.00000000E+00   1.67011468E+00   1.54502502E+03   4.45770547E+03   0.00000000E+00   0.00000000E+00   0.00000000E+00   0.00000000E+00   1.93650204E+04
   5.77500000E+02   5.00000000E-01   5.00000000E-01  -5.31191699E+04   2.29394578E+03   0.00000000E+00   1.95114260E+04   5.07436256E+03   2.20490860E+03   7.19372691E+00   0.00000000E+00   0.00000000E+00   0.00000000E+00   0.00000000E+00   1.68602005E+00   1.54491852E+03   4.45612368E+03   0.00000000E+00   0.00000000E+00   0.00000000E+00   0.00000000E+00   1.93649867E+04
   6.12500000E+02   5.00000000E-01   5.00000000E-01  -5.31195985E+04   2.29394578E+03   0.00000000E+00   1.95116859E+04   5.07262890E+03   2.20490917E+03   7.19372690E+00   0.00000000E+00   0.00000000E+00   0.00000000E+00   0.00000000E+00   1.70174866E+00   1.54481040E+03   4.45438999E+03   0.00000000E+00   0.00000000E+00   0.00000000E+00   0.00000000E+00   1.93649498E+04
   6.47500000E+02   5.00000000E-01   5.00000000E-01  -5.31200311E+04   2.29394578E+03   0.00000000E+00   1.95119484E+04   5.07076466E+03   2.20490974E+03   7.19372689E+00   0.00000000E+00   0.00000000E+00   0.00000000E+00   0.00000000E+00   1.71710940E+00   1.54470133E+03   4.45252571E+03   0.00000000E+00   0.00000000E+00   0.00000000E+00   0.00000000E+00   1.93649094E+04
   6.82500000E+02   5.00000000E-01   5.00000000E-01  -5.31204646E+04   2.29394577E+03   0.00000000E+00   1.95122130E+04   5.06878962E+03   2.20491032E+03   7.19372688E+00   0.00000000E+00   0.00000000E+00   0.00000000E+00   0.00000000E+00   1.73059374E+00   1.54459087E+03   4.45055063E+03   0.00000000E+00   0.00000000E+00   0.00000000E+00   0.00000000E+00   1.93648615E+04
   7.17500000E+02   5.00000000E-01   5.00000000E-01  -5.31208950E+04   2.29394577E+03   0.00000000E+00   1.95124760E+04   5.06672203E+03   2.20491089E+03   7.19372686E+00   0.00000000E+00   0.00000000E+00   0.00000000E+00   0.00000000E+00   1.74353148E+00   1.54448116E+03   4.44848302E+03   0.00000000E+00   0.00000000E+00   0.00000000E+00   0.00000000E+00   1.93648106E+04
   7.52500000E+02   5.00000000E-01   5.00000000E-01  -5.31213172E+04   2.29394577E+03   0.00000000E+00   1.95127346E+04   5.06457866E+03   2.20491146E+03   7.19372685E+00   0.00000000E+00   0.00000000E+00   0.00000000E+00   0.00000000E+00   1.75574599E+00   1.54437266E+03   4.44633962E+03   0.00000000E+00   0.00000000E+00   0.00000000E+00   0.00000000E+00   1.93647552E+04
   7.87500000E+02   5.00000000E-01   5.00000000E-01  -5.31217267E+04   2.29394577E+03   0.00000000E+00   1.95129864E+04   5.06237481E+03   2.20491203E+03   7.19372685E+00   0.00000000E+00   0.00000000E+00   0.00000000E+00   0.00000000E+00   1.76719881E+00   1.54426595E+03   4.44413574E+03   0.00000000E+00   0.00000000E+00   0.00000000E+00   0.00000000E+00   1.93646944E+04
   8.22500000E+02   5.00000000E-01   5.00000000E-01  -5.31221189E+04   2.29394577E+03   0.00000000E+00   1.95132288E+04   5.06012437E+03   2.20491260E+03   7.19372683E+00   0.00000000E+00   0.00000000E+00   0.00000000E+00   0.00000000E+00   1.77787076E+00   1.54416162E+03   4.44188528E+03   0.00000000E+00   0.00000000E+00   0.00000000E+00   0.00000000E+00   1.93646276E+04
   8.57500000E+02   5.00000000E-01   5.00000000E-01  -5.31224890E+04   2.29394577E+03   0.00000000E+00   1.95134590E+04   5.05783992E+03   2.20491315E+03   7.19372682E+00   0.00000000E+00   0.00000000E+00   0.00000000E+00   0.00000000E+00   1.78776148E+00   1.54406023E+03   4.43960082E+03   0.00000000E+00   0.00000000E+00   0.00000000E+00   0.00000000E+00   1.93645539E+04
   8.92500000E+02   5.00000000E-01   5.00000000E-01  -5.31228320E+04   2.29394577E+03   0.00000000E+00   1.95136743E+04   5.05553278E+03   2.20491369E+03   7.19372683E+00   0.00000000E+00   0.00000000E+00   0.00000000E+00   0.00000000E+00   1.79688917E+00   1.54396233E+03   4.43729366E+03   0.00000000E+00   0.00000000E+00   0.00000000E+00   0.00000000E+00   1.93644727E+04
   9.27500000E+02   5.00000000E-01   5.00000000E-01  -5.31231433E+04   2.29394577E+03   0.00000000E+00   1.95138722E+04   5.05321308E+03   2.20491422E+03   7.19372683E+00   0.00000000E+00   0.00000000E+00   0.00000000E+00   0.00000000E+00   1.80528945E+00   1.54386842E+03   4.43497394E+03   0.00000000E+00   0.00000000E+00   0.00000000E+00   0.00000000E+00   1.93643831E+04
   9.62500000E+02   5.00000000E-01   5.00000000E-01  -5.31234182E+04   2.29394577E+03   0.00000000E+00   1.95140500E+04   5.05088984E+03   2.20491472E+03   7.19372683E+00   0.00000000E+00   0.00000000E+00   0.00000000E+00   0.00000000E+00   1.81301354E+00   1.54377898E+03   4.43265070E+03   0.00000000E+00   0.00000000E+00   0.00000000E+00   0.00000000E+00   1.93642846E+04
   9.97500000E+02   5.00000000E-01   5.00000000E-01  -5.31236525E+04   2.29394577E+03   0.00000000E+00   1.95142054E+04   5.04857107E+03   2.20491521E+03   7.19372684E+00   0.00000000E+00   0.00000000E+00   0.00000000E+00   0.00000000E+00   1.82012541E+00   1.54369442E+03   4.43033192E+03   0.00000000E+00   0.00000000E+00   0.00000000E+00   0.00000000E+00   1.93641766E+04
   1.03250000E+03   5.00000000E-01   5.00000000E-01  -5.31238425E+04   2.29394577E+03   0.00000000E+00   1.95143362E+04   5.04626384E+03   2.20491568E+03   7.19372685E+00   0.00000000E+00   0.00000000E+00   0.00000000E+00   0.00000000E+00   1.82669859E+00   1.54361511E+03   4.42802467E+03   0.00000000E+00   0.00000000E+00   0.00000000E+00   0.00000000E+00   1.93640588E+04
   1.06750000E+03   5.00000000E-01   5.00000000E-01  -5.31239847E+04   2.29394576E+03   0.00000000E+00   1.95144407E+04   5.04397431E+03   2.20491611E+03   7.19372686E+00   0.00000000E+00   0.00000000E+00   0.00000000E+00   0.00000000E+00   1.83281160E+00   1.54354135E+03   4.42573514E+03   0.00000000E+00   0.00000000E+00   0.00000000E+00   0.00000000E+00   1.93639310E+04
   1.10250000E+03   5.00000000E-01   5.00000000E-01  -5.31240766E+04   2.29394576E+03   0.00000000E+00   1.95145174E+04   5.04170787E+03   2.20491652E+03   7.19372686E+00   0.00000000E+00   0.00000000E+00   0.00000000E+00   0.00000000E+00   1.83854420E+00   1.54347338E+03   4.42346870E+03   0.00000000E+00   0.00000000E+00   0.00000000E+00   0.00000000E+00   1.93637929E+04
   1.13750000E+03   5.00000000E-01   5.00000000E-01  -5.31241165E+04   2.29394576E+03   0.00000000E+00   1.95145653E+04   5.03946919E+03   2.20491690E+03   7.19372687E+00   0.00000000E+00   0.00000000E+00   0.00000000E+00   0.00000000E+00   1.84397214E+00   1.54341134E+03   4.42123002E+03   0.00000000E+00   0.00000000E+00   0.00000000E+00   0.00000000E+00   1.93636447E+04
   1.17250000E+03   5.00000000E-01   5.00000000E-01  -5.31241033E+04   2.29394576E+03   0.00000000E+00   1.95145838E+04   5.03726226E+03   2.20491724E+03   7.19372687E+00   0.00000000E+00   0.00000000E+00   0.00000000E+00   0.00000000E+00   1.84916364E+00   1.54335531E+03   4.41902308E+03   0.00000000E+00   0.00000000E+00   0.00000000E+00   0.00000000E+00   1.93634867E+04
   1.20750000E+03   5.00000000E-01   5.00000000E-01  -5.31240370E+04   2.29394576E+03   0.00000000E+00   1.95145728E+04   5.03509046E+03   2.20491754E+03   7.19372688E+00   0.00000000E+00   0.00000000E+00   0.00000000E+00   0.00000000E+00   1.85417480E+00   1.54330530E+03   4.41685128E+03   0.00000000E+00   0.00000000E+00   0.00000000E+00   0.00000000E+00   1.93633192E+04
   1.24250000E+03   5.00000000E-01   5.00000000E-01  -5.31239186E+04   2.29394576E+03   0.00000000E+00   1.95145330E+04   5.03295664E+03   2.20491780E+03   7.19372689E+00   0.00000000E+00   0.00000000E+00   0.00000000E+00   0.00000000E+00   1.85904757E+00   1.54326122E+03   4.41471747E+03   0.00000000E+00   0.00000000E+00   0.00000000E+00   0.00000000E+00   1.93631430E+04
   1.27750000E+03   5.00000000E-01   5.00000000E-01  -5.31237499E+04   2.29394575E+03   0.00000000E+00   1.95144652E+04   5.03086317E+03   2.20491802E+03   7.19372690E+00   0.00000000E+00   0.00000000E+00   0.00000000E+00   0.00000000E+00   1.86380618E+00   1.54322293E+03   4.41262399E+03   0.00000000E+00   0.00000000E+00   0.00000000E+00   0.00000000E+00   1.93629588E+04
   1.31250000E+03   5.00000000E-01   5.00000000E-01  -5.31235338E+04   2.29394575E+03   0.00000000E+00   1.95143710E+04   5.02881195E+03   2.20491820E+03   7.19372691E+00   0.00000000E+00   0.00000000E+00   0.00000000E+00   0.00000000E+00   1.86845762E+00   1.54319018E+03   4.41057278E+03   0.00000000E+00   0.00000000E+00   0.00000000E+00   0.00000000E+00   1.93627677E+04
   1.34750000E+03   5.00000000E-01   5.00000000E-01  -5.31232738E+04   2.29394575E+03   0.00000000E+00   1.95142523E+04   5.02680451E+03   2.20491834E+03   7.19372691E+00   0.00000000E+00   0.00000000E+00   0.00000000E+00   0.00000000E+00   1.87299161E+00   1.54316269E+03   4.40856535E+03   0.00000000E+00   0.00000000E+00   0.00000000E+00   0.00000000E+00   1.93625706E+04
   1.38250000E+03   5.00000000E-01   5.00000000E-01  -5.31229744E+04   2.29394574E+03   0.00000000E+00   1.95141117E+04   5.02484202E+03   2.20491843E+03   7.19372691E+00   0.00000000E+00   0.00000000E+00   0.00000000E+00   0.00000000E+00   1.87738229E+00   1.54314009E+03   4.40660287E+03   0.00000000E+00   0.00000000E+00   0.00000000E+00   0.00000000E+00   1.93623690E+04
   1.41750000E+03   5.00000000E-01   5.00000000E-01  -5.31226405E+04   2.29394574E+03   0.00000000E+00   1.95139516E+04   5.02292534E+03   2.20491849E+03   7.19372690E+00   0.00000000E+00   0.00000000E+00   0.00000000E+00   0.00000000E+00   1.88159024E+00   1.54312198E+03   4.40468620E+03   0.00000000E+00   0.00000000E+00   0.00000000E+00   0.00000000E+00   1.93621641E+04
   1.45250000E+03   5.00000000E-01   5.00000000E-01  -5.31222776E+04   2.29394574E+03   0.00000000E+00   1.95137752E+04   5.02105505E+03   2.20491850E+03   7.19372688E+00   0.00000000E+00   0.00000000E+00   0.00000000E+00   0.00000000E+00   1.88556556E+00   1.54310792E+03   4.40281591E+03   0.00000000E+00   0.00000000E+00   0.00000000E+00   0.00000000E+00   1.93619572E+04
   1.48750000E+03   5.00000000E-01   5.00000000E-01  -5.31218914E+04   2.29394574E+03   0.00000000E+00   1.95135856E+04   5.01923146E+03   2.20491846E+03   7.19372685E+00   0.00000000E+00   0.00000000E+00   0.00000000E+00   0.00000000E+00   1.88925068E+00   1.54309741E+03   4.40099233E+03   0.00000000E+00   0.00000000E+00   0.00000000E+00   0.00000000E+00   1.93617498E+04
   1.52250000E+03   5.00000000E-01   5.00000000E-01  -5.31214877E+04   2.29394573E+03   0.00000000E+00   1.95133859E+04   5.01745469E+03   2.20491839E+03   7.19372681E+00   0.00000000E+00   0.00000000E+00   0.00000000E+00   0.00000000E+00   1.89258455E+00   1.54308997E+03   4.39921558E+03   0.00000000E+00   0.00000000E+00   0.00000000E+00   0.00000000E+00   1.93615432E+04
   1.55750000E+03   5.00000000E-01   5.00000000E-01  -5.31210722E+04   2.29394573E+03   0.00000000E+00   1.95131792E+04   5.01572468E+03   2.20491829E+03   7.19372674E+00   0.00000000E+00   0.00000000E+00   0.00000000E+00   0.00000000E+00   1.89550533E+00   1.54308510E+03   4.39748558E+03   0.00000000E+00   0.00000000E+00   0.00000000E+00   0.00000000E+00   1.93613387E+04
   1.59250000E+03   5.00000000E-01   5.00000000E-01  -5.31206504E+04   2.29394572E+03   0.00000000E+00   1.95129687E+04   5.01404116E+03   2.20491814E+03   7.19372663E+00   0.00000000E+00   0.00000000E+00   0.00000000E+00   0.00000000E+00   1.89795360E+00   1.54308228E+03   4.39580208E+03   0.00000000E+00   0.00000000E+00   0.00000000E+00   0.00000000E+00   1.93611373E+04
   1.62750000E+03   5.00000000E-01   5.00000000E-01  -5.31202276E+04   2.29394572E+03   0.00000000E+00   1.95127571E+04   5.01240375E+03   2.20491796E+03   7.19372648E+00   0.00000000E+00   0.00000000E+00   0.00000000E+00   0.00000000E+00   1.89987470E+00   1.54308104E+03   4.39416469E+03   0.00000000E+00   0.00000000E+00   0.00000000E+00   0.00000000E+00   1.93609402E+04
   1.66250000E+03   5.00000000E-01   5.00000000E-01  -5.31198083E+04   2.29394571E+03   0.00000000E+00   1.95125471E+04   5.01081195E+03   2.20491775E+03   7.19372627E+00   0.00000000E+00   0.00000000E+00   0.00000000E+00   0.00000000E+00   1.90122008E+00   1.54308091E+03   4.39257291E+03   0.00000000E+00   0.00000000E+00   0.00000000E+00   0.00000000E+00   1.93607482E+04
   1.69750000E+03   5.00000000E-01   5.00000000E-01  -5.31193969E+04   2.29394571E+03   0.00000000E+00   1.95123411E+04   5.00926515E+03   2.20491752E+03   7.19372598E+00   0.00000000E+00   0.00000000E+00   0.00000000E+00   0.00000000E+00   1.90194863E+00   1.54308144E+03   4.39102612E+03   0.00000000E+00   0.00000000E+00   0.00000000E+00   0.00000000E+00   1.93605620E+04
   1.73250000E+03   5.00000000E-01   5.00000000E-01  -5.31189970E+04   2.29394570E+03   0.00000000E+00   1.95121410E+04   5.00776263E+03   2.20491725E+03   7.19372558E+00   0.00000000E+00   0.00000000E+00   0.00000000E+00   0.00000000E+00   1.90202696E+00   1.54308225E+03   4.38952363E+03   0.00000000E+00   0.00000000E+00   0.00000000E+00   0.00000000E+00   1.93603822E+04
   1.76750000E+03   5.00000000E-01   5.00000000E-01  -5.31186116E+04   2.29394569E+03   0.00000000E+00   1.95119485E+04   5.00630365E+03   2.20491696E+03   7.19372505E+00   0.00000000E+00   0.00000000E+00   0.00000000E+00   0.00000000E+00   1.90142927E+00   1.54308297E+03   4.38806467E+03   0.00000000E+00   0.00000000E+00   0.00000000E+00   0.00000000E+00   1.93602092E+04
   1.80250000E+03   5.00000000E-01   5.00000000E-01  -5.31182433E+04   2.29394569E+03   0.00000000E+00   1.95117652E+04   5.00488737E+03   2.20491665E+03   7.19372435E+00   0.00000000E+00   0.00000000E+00   0.00000000E+00   0.00000000E+00   1.90013690E+00   1.54308327E+03   4.38664841E+03   0.00000000E+00   0.00000000E+00   0.00000000E+00   0.00000000E+00   1.93600433E+04
   1.83750000E+03   5.00000000E-01   5.00000000E-01  -5.31178940E+04   2.29394568E+03   0.00000000E+00   1.95115922E+04   5.00351292E+03   2.20491632E+03   7.19372345E+00   0.00000000E+00   0.00000000E+00   0.00000000E+00   0.00000000E+00   1.89813760E+00   1.54308288E+03   4.38527399E+03   0.00000000E+00   0.00000000E+00   0.00000000E+00   0.00000000E+00   1.93598845E+04
   1.87250000E+03   5.00000000E-01   5.00000000E-01  -5.31175653E+04   2.29394567E+03   0.00000000E+00   1.95114302E+04   5.00217940E+03   2.20491597E+03   7.19372229E+00   0.00000000E+00   0.00000000E+00   0.00000000E+00   0.00000000E+00   1.89542459E+00   1.54308154E+03   4.38394051E+03   0.00000000E+00   0.00000000E+00   0.00000000E+00   0.00000000E+00   1.93597330E+04
   1.90750000E+03   5.00000000E-01   5.00000000E-01  -5.31172583E+04   2.29394566E+03   0.00000000E+00   1.95112801E+04   5.00088590E+03   2.20491561E+03   7.19372085E+00   0.00000000E+00   0.00000000E+00   0.00000000E+00   0.00000000E+00   1.89199552E+00   1.54307906E+03   4.38264704E+03   0.00000000E+00   0.00000000E+00   0.00000000E+00   0.00000000E+00   1.93595886E+04
   1.94250000E+03   5.00000000E-01   5.00000000E-01  -5.31169736E+04   2.29394565E+03   0.00000000E+00   1.95111421E+04   4.99963148E+03   2.20491523E+03   7.19371905E+00   0.00000000E+00   0.00000000E+00   0.00000000E+00   0.00000000E+00   1.88785146E+00   1.54307528E+03   4.38139265E+03   0.00000000E+00   0.00000000E+00   0.00000000E+00   0.00000000E+00   1.93594513E+04
   1.97750000E+03   5.00000000E-01   5.00000000E-01  -5.31167117E+04   2.29394564E+03   0.00000000E+00   1.95110167E+04   4.99841520E+03   2.20491484E+03   7.19371685E+00   0.00000000E+00   0.00000000E+00   0.00000000E+00   0.00000000E+00   1.88299620E+00   1.54307006E+03   4.38017640E+03   0.00000000E+00   0.00000000E+00   0.00000000E+00   0.00000000E+00   1.93593209E+04
   2.01250000E+03   5.00000000E-01   5.00000000E-01  -5.31164728E+04   2.29394563E+03   0.00000000E+00   1.95109038E+04   4.99723611E+03   2.20491445E+03   7.19371417E+00   0.00000000E+00   0.00000000E+00   0.00000000E+00   0.00000000E+00   1.87743510E+00   1.54306330E+03   4.37899735E+03   0.00000000E+00   0.00000000E+00   0.00000000E+00   0.00000000E+00   1.93591972E+04
   2.04750000E+03   5.00000000E-01   5.00000000E-01  -5.31162567E+04   2.29394562E+03   0.00000000E+00   1.95108036E+04   4.99609328E+03   2.20491405E+03   7.19371094E+00   0.00000000E+00   0.00000000E+00   0.00000000E+00   0.00000000E+00   1.87117483E+00   1.54305493E+03   4.37785456E+03   0.00000000E+00   0.00000000E+00   0.00000000E+00   0.00000000E+00   1.93590800E+04
   2.08250000E+03   5.00000000E-01   5.00000000E-01  -5.31160634E+04   2.29394560E+03   0.00000000E+00   1.95107159E+04   4.99498578E+03   2.20491364E+03   7.19370708E+00   0.00000000E+00   0.00000000E+00   0.00000000E+00   0.00000000E+00   1.86422263E+00   1.54304490E+03   4.37674710E+03   0.00000000E+00   0.00000000E+00   0.00000000E+00   0.00000000E+00   1.93589690E+04
   2.11750000E+03   5.00000000E-01   5.00000000E-01  -5.31158926E+04   2.29394559E+03   0.00000000E+00   1.95106406E+04   4.99391270E+03   2.20491323E+03   7.19370252E+00   0.00000000E+00   0.00000000E+00   0.00000000E+00   0.00000000E+00   1.85658587E+00   1.54303319E+03   4.37567407E+03   0.00000000E+00   0.00000000E+00   0.00000000E+00   0.00000000E+00   1.93588640E+04
   2.15250000E+03   5.00000000E-01   5.00000000E-01  -5.31157443E+04   2.29394557E+03   0.00000000E+00   1.95105778E+04   4.99287313E+03   2.20491282E+03   7.19369716E+00   0.00000000E+00   0.00000000E+00   0.00000000E+00   0.00000000E+00   1.84836921E+00   1.54301978E+03   4.37463455E+03   0.00000000E+00   0.00000000E+00   0.00000000E+00   0.00000000E+00   1.93587662E+04
   2.18750000E+03   5.00000000E-01   5.00000000E-01  -5.31156176E+04   2.29394556E+03   0.00000000E+00   1.95105269E+04   4.99186621E+03   2.20491241E+03   7.19369093E+00   0.00000000E+00   0.00000000E+00   0.00000000E+00   0.00000000E+00   1.83955480E+00   1.54300465E+03   4.37362767E+03   0.00000000E+00   0.00000000E+00   0.00000000E+00   0.00000000E+00   1.93586749E+04
   2.22250000E+03   5.00000000E-01   5.00000000E-01  -5.31155119E+04   2.29394554E+03   0.00000000E+00   1.95104877E+04   4.99089108E+03   2.20491200E+03   7.19368373E+00   0.00000000E+00   0.00000000E+00   0.00000000E+00   0.00000000E+00   1.83008277E+00   1.54298782E+03   4.37265259E+03   0.00000000E+00   0.00000000E+00   0.00000000E+00   0.00000000E+00   1.93585889E+04
   2.25750000E+03   5.00000000E-01   5.00000000E-01  -5.31154272E+04   2.29394552E+03   0.00000000E+00   1.95104602E+04   4.98994689E+03   2.20491160E+03   7.19367551E+00   0.00000000E+00   0.00000000E+00   0.00000000E+00   0.00000000E+00   1.81994475E+00   1.54296930E+03   4.37170846E+03   0.00000000E+00   0.00000000E+00   0.00000000E+00   0.00000000E+00   1.93585085E+04
   2.29250000E+03   5.00000000E-01   5.00000000E-01  -5.31153633E+04   2.29394550E+03   0.00000000E+00   1.95104442E+04   4.98903284E+03   2.20491120E+03   7.19366621E+00   0.00000000E+00   0.00000000E+00   0.00000000E+00   0.00000000E+00   1.80913497E+00   1.54294913E+03   4.37079446E+03   0.00000000E+00   0.00000000E+00   0.00000000E+00   0.00000000E+00   1.93584333E+04
   2.32750000E+03   5.00000000E-01   5.00000000E-01  -5.31153198E+04   2.29394548E+03   0.00000000E+00   1.95104396E+04   4.98814812E+03   2.20491080E+03   7.19365579E+00   0.00000000E+00   0.00000000E+00   0.00000000E+00   0.00000000E+00   1.79765724E+00   1.54292736E+03   4.36990980E+03   0.00000000E+00   0.00000000E+00   0.00000000E+00   0.00000000E+00   1.93583635E+04
   2.36250000E+03   5.00000000E-01   5.00000000E-01  -5.31152968E+04   2.29394545E+03   0.00000000E+00   1.95104463E+04   4.98729196E+03   2.20491041E+03   7.19364430E+00   0.00000000E+00   0.00000000E+00   0.00000000E+00   0.00000000E+00   1.78552860E+00   1.54290402E+03   4.36905370E+03   0.00000000E+00   0.00000000E+00   0.00000000E+00   0.00000000E+00   1.93582992E+04
   2.39750000E+03   5.00000000E-01   5.00000000E-01  -5.31152941E+04   2.29394543E+03   0.00000000E+00   1.95104643E+04   4.98646360E+03   2.20491003E+03   7.19363180E+00   0.00000000E+00   0.00000000E+00   0.00000000E+00   0.00000000E+00   1.77276316E+00   1.54287915E+03   4.36822540E+03   0.00000000E+00   0.00000000E+00   0.00000000E+00   0.00000000E+00   1.93582406E+04
   2.43250000E+03   5.00000000E-01   5.00000000E-01  -5.31153115E+04   2.29394540E+03   0.00000000E+00   1.95104934E+04   4.98566231E+03   2.20490966E+03   7.19361848E+00   0.00000000E+00   0.00000000E+00   0.00000000E+00   0.00000000E+00   1.75935128E+00   1.54285281E+03   4.36742417E+03   0.00000000E+00   0.00000000E+00   0.00000000E+00   0.00000000E+00   1.93581876E+04
   2.46750000E+03   5.00000000E-01   5.00000000E-01  -5.31153493E+04   2.29394537E+03   0.00000000E+00   1.95105337E+04   4.98488737E+03   2.20490930E+03   7.19360458E+00   0.00000000E+00   0.00000000E+00   0.00000000E+00   0.00000000E+00   1.74529596E+00   1.54282503E+03   4.36664930E+03   0.00000000E+00   0.00000000E+00   0.00000000E+00   0.00000000E+00   1.93581405E+04
   2.50250000E+03   5.00000000E-01   5.00000000E-01  -5.31154076E+04   2.29394534E+03   0.00000000E+00   1.95105852E+04   4.98413809E+03   2.20490895E+03   7.19359045E+00   0.00000000E+00   0.00000000E+00   0.00000000E+00   0.00000000E+00   1.73060394E+00   1.54279585E+03   4.36590009E+03   0.00000000E+00   0.00000000E+00   0.00000000E+00   0.00000000E+00   1.93580994E+04
   2.53750000E+03   5.00000000E-01   5.00000000E-01  -5.31154867E+04   2.29394531E+03   0.00000000E+00   1.95106482E+04   4.98341379E+03   2.20490861E+03   7.19357652E+00   0.00000000E+00   0.00000000E+00   0.00000000E+00   0.00000000E+00   1.71528173E+00   1.54276530E+03   4.36517585E+03   0.00000000E+00   0.00000000E+00   0.00000000E+00   0.00000000E+00   1.93580646E+04
   2.57250000E+03   5.00000000E-01   5.00000000E-01  -5.31155868E+04   2.29394527E+03   0.00000000E+00   1.95107226E+04   4.98271380E+03   2.20490828E+03   7.19356334E+00   0.00000000E+00   0.00000000E+00   0.00000000E+00   0.00000000E+00   1.69933679E+00   1.54273344E+03   4.36447593E+03   0.00000000E+00   0.00000000E+00   0.00000000E+00   0.00000000E+00   1.93580364E+04
   2.60750000E+03   5.00000000E-01   5.00000000E-01  -5.31157086E+04   2.29394523E+03   0.00000000E+00   1.95108088E+04   4.98203747E+03   2.20490796E+03   7.19355154E+00   0.00000000E+00   0.00000000E+00   0.00000000E+00   0.00000000E+00   1.68277483E+00   1.54270028E+03   4.36379965E+03   0.00000000E+00   0.00000000E+00   0.00000000E+00   0.00000000E+00   1.93580152E+04
   2.64250000E+03   5.00000000E-01   5.00000000E-01  -5.31158524E+04   2.29394519E+03   0.00000000E+00   1.95109070E+04   4.98138416E+03   2.20490765E+03   7.19354180E+00   0.00000000E+00   0.00000000E+00   0.00000000E+00   0.00000000E+00   1.66560338E+00   1.54266586E+03   4.36314640E+03   0.00000000E+00   0.00000000E+00   0.00000000E+00   0.00000000E+00   1.93580013E+04
   2.67750000E+03   5.00000000E-01   5.00000000E-01  -5.31160190E+04   2.29394515E+03   0.00000000E+00   1.95110174E+04   4.98075324E+03   2.20490735E+03   7.19353485E+00   0.00000000E+00   0.00000000E+00   0.00000000E+00   0.00000000E+00   1.64785769E+00   1.54263020E+03   4.36251553E+03   0.00000000E+00   0.00000000E+00   0.00000000E+00   0.00000000E+00   1.93579957E+04
   2.71250000E+03   5.00000000E-01   5.00000000E-01  -5.31162088E+04   2.29394510E+03   0.00000000E+00   1.95111403E+04   4.98014411E+03   2.20490706E+03   7.19353138E+00   0.00000000E+00   0.00000000E+00   0.00000000E+00   0.00000000E+00   1.62952602E+00   1.54259332E+03   4.36190644E+03   0.00000000E+00   0.00000000E+00   0.00000000E+00   0.00000000E+00   1.93579982E+04