 TITLE = "Total Component Concentration in Minerals" 
VARIABLES = "X"          "Y"              "Z"            "H+"             "Al+++"          "CO2(aq)"        "Mg++"           "Ca++"           "Fe++"           "Fe+++"          "Cl-"            "K+"             "Na+"            "SO4--"          "O2(aq)"         "B(OH)3(aq)"     "HPO4--"         "NO3-"           "H4SiO4(aq)"    
 ZONE I=          35 , J=           1 , K=           1  F=POINT
   5.00000000E+01   5.00000000E-01   5.00000000E-01  -5.50558151E+04   2.72530810E+03   0.00000000E+00   2.11578165E+04   4.85402253E+03   1.00039297E+03   0.00000000E+00   0.00000000E+00   0.00000000E+00   1.54918877E+03   4.34688102E+03   0.00000000E+00   0.00000000E+00   0.00000000E+00   0.00000000E+00   1.95133745E+04
   1.50000000E+02   5.00000000E-01   5.00000000E-01  -5.50558154E+04   2.72530810E+03   0.00000000E+00   2.11578167E+04   4.85402253E+03   1.00039297E+03   0.00000000E+00   0.00000000E+00   0.00000000E+00   1.54918877E+03   4.34688102E+03   0.00000000E+00   0.00000000E+00   0.00000000E+00   0.00000000E+00   1.95133745E+04
   2.50000000E+02   5.00000000E-01   5.00000000E-01  -5.50558155E+04   2.72530810E+03   0.00000000E+00   2.11578168E+04   4.85402253E+03   1.00039297E+03   0.00000000E+00   0.00000000E+00   0.00000000E+00   1.54918877E+03   4.34688103E+03   0.00000000E+00   0.00000000E+00   0.00000000E+00   0.00000000E+00   1.95133745E+04
   3.50000000E+02   5.00000000E-01   5.00000000E-01  -5.50558156E+04   2.72530810E+03   0.00000000E+00   2.11578168E+04   4.85402254E+03   1.00039297E+03   0.00000000E+00   0.00000000E+00   0.00000000E+00   1.54918877E+03   4.34688103E+03   0.00000000E+00   0.00000000E+00   0.00000000E+00   0.00000000E+00   1.95133745E+04
   4.50000000E+02   5.00000000E-01   5.00000000E-01  -5.50558156E+04   2.72530810E+03   0.00000000E+00   2.11578168E+04   4.85402254E+03   1.00039297E+03   0.00000000E+00   0.00000000E+00   0.00000000E+00   1.54918877E+03   4.34688103E+03   0.00000000E+00   0.00000000E+00   0.00000000E+00   0.00000000E+00   1.95133745E+04
   5.50000000E+02   5.00000000E-01   5.00000000E-01  -5.50558155E+04   2.72530810E+03   0.00000000E+00   2.11578167E+04   4.85402255E+03   1.00039297E+03   0.00000000E+00   0.00000000E+00   0.00000000E+00   1.54918877E+03   4.34688104E+03   0.00000000E+00   0.00000000E+00   0.00000000E+00   0.00000000E+00   1.95133745E+04
   6.50000000E+02   5.00000000E-01   5.00000000E-01  -5.50558155E+04   2.72530810E+03   0.00000000E+00   2.11578167E+04   4.85402255E+03   1.00039297E+03   0.00000000E+00   0.00000000E+00   0.00000000E+00   1.54918877E+03   4.34688104E+03   0.00000000E+00   0.00000000E+00   0.00000000E+00   0.00000000E+00   1.95133744E+04
   7.50000000E+02   5.00000000E-01   5.00000000E-01  -5.50558154E+04   2.72530810E+03   0.00000000E+00   2.11578167E+04   4.85402256E+03   1.00039297E+03   0.00000000E+00   0.00000000E+00   0.00000000E+00   1.54918877E+03   4.34688105E+03   0.00000000E+00   0.00000000E+00   0.00000000E+00   0.00000000E+00   1.95133744E+04
   8.50000000E+02   5.00000000E-01   5.00000000E-01  -5.50558153E+04   2.72530810E+03   0.00000000E+00   2.11578166E+04   4.85402257E+03   1.00039297E+03   0.00000000E+00   0.00000000E+00   0.00000000E+00   1.54918877E+03   4.34688106E+03   0.00000000E+00   0.00000000E+00   0.00000000E+00   0.00000000E+00   1.95133744E+04
   9.50000000E+02   5.00000000E-01   5.00000000E-01  -5.50558152E+04   2.72530810E+03   0.00000000E+00   2.11578166E+04   4.85402257E+03   1.00039297E+03   0.00000000E+00   0.00000000E+00   0.00000000E+00   1.54918877E+03   4.34688107E+03   0.00000000E+00   0.00000000E+00   0.00000000E+00   0.00000000E+00   1.95133744E+04
   1.05000000E+03   5.00000000E-01   5.00000000E-01  -5.50558151E+04   2.72530810E+03   0.00000000E+00   2.11578165E+04   4.85402258E+03   1.00039297E+03   0.00000000E+00   0.00000000E+00   0.00000000E+00   1.54918877E+03   4.34688108E+03   0.00000000E+00   0.00000000E+00   0.00000000E+00   0.00000000E+00   1.95133743E+04
   1.15000000E+03   5.00000000E-01   5.00000000E-01  -5.50558150E+04   2.72530810E+03   0.00000000E+00   2.11578165E+04   4.85402260E+03   1.00039297E+03   0.00000000E+00   0.00000000E+00   0.00000000E+00   1.54918877E+03   4.34688109E+03   0.00000000E+00   0.00000000E+00   0.00000000E+00   0.00000000E+00   1.95133743E+04
   1.25000000E+03   5.00000000E-01   5.00000000E-01  -5.50558149E+04   2.72530810E+03   0.00000000E+00   2.11578164E+04   4.85402261E+03   1.00039297E+03   0.00000000E+00   0.00000000E+00   0.00000000E+00   1.54918877E+03   4.34688110E+03   0.00000000E+00   0.00000000E+00   0.00000000E+00   0.00000000E+00   1.95133743E+04
   1.35000000E+03   5.00000000E-01   5.00000000E-01  -5.50558148E+04   2.72530810E+03   0.00000000E+00   2.11578164E+04   4.85402262E+03   1.00039297E+03   0.00000000E+00   0.00000000E+00   0.00000000E+00   1.54918877E+03   4.34688112E+03   0.00000000E+00   0.00000000E+00   0.00000000E+00   0.00000000E+00   1.95133743E+04
   1.45000000E+03   5.00000000E-01   5.00000000E-01  -5.50558147E+04   2.72530810E+03   0.00000000E+00   2.11578163E+04   4.85402264E+03   1.00039297E+03   0.00000000E+00   0.00000000E+00   0.00000000E+00   1.54918877E+03   4.34688113E+03   0.00000000E+00   0.00000000E+00   0.00000000E+00   0.00000000E+00   1.95133742E+04
   1.55000000E+03   5.00000000E-01   5.00000000E-01  -5.50558146E+04   2.72530810E+03   0.00000000E+00   2.11578163E+04   4.85402266E+03   1.00039297E+03   0.00000000E+00   0.00000000E+00   0.00000000E+00   1.54918877E+03   4.34688115E+03   0.00000000E+00   0.00000000E+00   0.00000000E+00   0.00000000E+00   1.95133742E+04
   1.65000000E+03   5.00000000E-01   5.00000000E-01  -5.50558144E+04   2.72530810E+03   0.00000000E+00   2.11578162E+04   4.85402268E+03   1.00039297E+03   0.00000000E+00   0.00000000E+00   0.00000000E+00   1.54918877E+03   4.34688118E+03   0.00000000E+00   0.00000000E+00   0.00000000E+00   0.00000000E+00   1.95133742E+04
   1.75000000E+03   5.00000000E-01   5.00000000E-01  -5.50558143E+04   2.72530810E+03   0.00000000E+00   2.11578161E+04   4.85402271E+03   1.00039297E+03   0.00000000E+00   0.00000000E+00   0.00000000E+00   1.54918877E+03   4.34688120E+03   0.00000000E+00   0.00000000E+00   0.00000000E+00   0.00000000E+00   1.95133741E+04
   1.85000000E+03   5.00000000E-01   5.00000000E-01  -5.50558142E+04   2.72530810E+03   0.00000000E+00   2.11578161E+04   4.85402274E+03   1.00039297E+03   0.00000000E+00   0.00000000E+00   0.00000000E+00   1.54918877E+03   4.34688123E+03   0.00000000E+00   0.00000000E+00   0.00000000E+00   0.00000000E+00   1.95133741E+04
   1.95000000E+03   5.00000000E-01   5.00000000E-01  -5.50558140E+04   2.72530810E+03   0.00000000E+00   2.11578160E+04   4.85402277E+03   1.00039297E+03   0.00000000E+00   0.00000000E+00   0.00000000E+00   1.54918877E+03   4.34688126E+03   0.00000000E+00   0.00000000E+00   0.00000000E+00   0.00000000E+00   1.95133741E+04
   2.05000000E+03   5.00000000E-01   5.00000000E-01  -5.50558139E+04   2.72530810E+03   0.00000000E+00   2.11578159E+04   4.85402281E+03   1.00039297E+03   0.00000000E+00   0.00000000E+00   0.00000000E+00   1.54918877E+03   4.34688130E+03   0.00000000E+00   0.00000000E+00   0.00000000E+00   0.00000000E+00   1.95133740E+04
   2.15000000E+03   5.00000000E-01   5.00000000E-01  -5.50558138E+04   2.72530810E+03   0.00000000E+00   2.11578159E+04   4.85402285E+03   1.00039297E+03   0.00000000E+00   0.00000000E+00   0.00000000E+00   1.54918877E+03   4.34688135E+03   0.00000000E+00   0.00000000E+00   0.00000000E+00   0.00000000E+00   1.95133740E+04
   2.25000000E+03   5.00000000E-01   5.00000000E-01  -5.50558136E+04   2.72530810E+03   0.00000000E+00   2.11578158E+04   4.85402290E+03   1.00039297E+03   0.00000000E+00   0.00000000E+00   0.00000000E+00   1.54918877E+03   4.34688139E+03   0.00000000E+00   0.00000000E+00   0.00000000E+00   0.00000000E+00   1.95133740E+04
   2.35000000E+03   5.00000000E-01   5.00000000E-01  -5.50558135E+04   2.72530810E+03   0.00000000E+00   2.11578157E+04   4.85402296E+03   1.00039297E+03   0.00000000E+00   0.00000000E+00   0.00000000E+00   1.54918877E+03   4.34688145E+03   0.00000000E+00   0.00000000E+00   0.00000000E+00   0.00000000E+00   1.95133739E+04
   2.45000000E+03   5.00000000E-01   5.00000000E-01  -5.50558133E+04   2.72530810E+03   0.00000000E+00   2.11578156E+04   4.85402302E+03   1.00039297E+03   0.00000000E+00   0.00000000E+00   0.00000000E+00   1.54918877E+03   4.34688151E+03   0.00000000E+00   0.00000000E+00   0.00000000E+00   0.00000000E+00   1.95133739E+04
   2.55000000E+03   5.00000000E-01   5.00000000E-01  -5.50558132E+04   2.72530810E+03   0.00000000E+00   2.11578156E+04   4.85402309E+03   1.00039297E+03   0.00000000E+00   0.00000000E+00   0.00000000E+00   1.54918877E+03   4.34688158E+03   0.00000000E+00   0.00000000E+00   0.00000000E+00   0.00000000E+00   1.95133739E+04
   2.65000000E+03   5.00000000E-01   5.00000000E-01  -5.50558130E+04   2.72530810E+03   0.00000000E+00   2.11578155E+04   4.85402316E+03   1.00039297E+03   0.00000000E+00   0.00000000E+00   0.00000000E+00   1.54918877E+03   4.34688166E+03   0.00000000E+00   0.00000000E+00   0.00000000E+00   0.00000000E+00   1.95133738E+04
   2.75000000E+03   5.00000000E-01   5.00000000E-01  -5.50558128E+04   2.72530810E+03   0.00000000E+00   2.11578154E+04   4.85402325E+03   1.00039297E+03   0.00000000E+00   0.00000000E+00   0.00000000E+00   1.54918877E+03   4.34688174E+03   0.00000000E+00   0.00000000E+00   0.00000000E+00   0.00000000E+00   1.95133738E+04
   2.85000000E+03   5.00000000E-01   5.00000000E-01  -5.50558127E+04   2.72530810E+03   0.00000000E+00   2.11578153E+04   4.85402334E+03   1.00039297E+03   0.00000000E+00   0.00000000E+00   0.00000000E+00   1.54918877E+03   4.34688183E+03   0.00000000E+00   0.00000000E+00   0.00000000E+00   0.00000000E+00   1.95133737E+04
   2.95000000E+03   5.00000000E-01   5.00000000E-01  -5.50558125E+04   2.72530810E+03   0.00000000E+00   2.11578152E+04   4.85402344E+03   1.00039297E+03   0.00000000E+00   0.00000000E+00   0.00000000E+00   1.54918877E+03   4.34688193E+03   0.00000000E+00   0.00000000E+00   0.00000000E+00   0.00000000E+00   1.95133737E+04
   3.05000000E+03   5.00000000E-01   5.00000000E-01  -5.50558123E+04   2.72530810E+03   0.00000000E+00   2.11578151E+04   4.85402355E+03   1.00039297E+03   0.00000000E+00   0.00000000E+00   0.00000000E+00   1.54918877E+03   4.34688205E+03   0.00000000E+00   0.00000000E+00   0.00000000E+00   0.00000000E+00   1.95133736E+04
   3.15000000E+03   5.00000000E-01   5.00000000E-01  -5.50558121E+04   2.72530810E+03   0.00000000E+00   2.11578151E+04   4.85402367E+03   1.00039297E+03   0.00000000E+00   0.00000000E+00   0.00000000E+00   1.54918877E+03   4.34688217E+03   0.00000000E+00   0.00000000E+00   0.00000000E+00   0.00000000E+00   1.95133736E+04
   3.25000000E+03   5.00000000E-01   5.00000000E-01  -5.50558119E+04   2.72530810E+03   0.00000000E+00   2.11578150E+04   4.85402380E+03   1.00039297E+03   0.00000000E+00   0.00000000E+00   0.00000000E+00   1.54918877E+03   4.34688229E+03   0.00000000E+00   0.00000000E+00   0.00000000E+00   0.00000000E+00   1.95133736E+04
   3.35000000E+03   5.00000000E-01   5.00000000E-01  -5.50558117E+04   2.72530810E+03   0.00000000E+00   2.11578149E+04   4.85402394E+03   1.00039297E+03   0.00000000E+00   0.00000000E+00   0.00000000E+00   1.54918877E+03   4.34688243E+03   0.00000000E+00   0.00000000E+00   0.00000000E+00   0.00000000E+00   1.95133735E+04
   3.45000000E+03   5.00000000E-01   5.00000000E-01  -5.50558115E+04   2.72530809E+03   0.00000000E+00   2.11578148E+04   4.85402408E+03   1.00039297E+03   0.00000000E+00   0.00000000E+00   0.00000000E+00   1.54918877E+03   4.34688257E+03   0.00000000E+00   0.00000000E+00   0.00000000E+00   0.00000000E+00   1.95133735E+04
