 TITLE = "Total Component Concentration in Minerals" 
VARIABLES = "X"          "Y"              "Z"            "H+"             "Al+++"          "CO2(aq)"        "Mg++"           "Ca++"           "Fe++"           "Fe+++"          "Ba++"           "Sr++"           "Cl-"            "K+"             "Na+"            "SO4--"          "O2(aq)"         "B(OH)3(aq)"     "HPO4--"         "NO3-"           "H4SiO4(aq)"    
 ZONE I=          10 , J=           1 , K=           1  F=POINT
   1.75000000E+02   5.00000000E-01   5.00000000E-01  -5.21738643E+04   2.06327568E+03   0.00000000E+00   1.95041446E+04   4.85179627E+03   2.20754401E+03   7.19355182E-06   0.00000000E+00   0.00000000E+00   0.00000000E+00   0.00000000E+00   1.54769693E+03   4.34531474E+03   0.00000000E+00   0.00000000E+00   0.00000000E+00   0.00000000E+00   1.91200199E+04
   5.25000000E+02   5.00000000E-01   5.00000000E-01  -5.21739002E+04   2.06327568E+03   0.00000000E+00   1.95041796E+04   4.85264418E+03   2.20754000E+03   7.19291408E-06   0.00000000E+00   0.00000000E+00   0.00000000E+00   0.00000000E+00   1.54767093E+03   4.34616265E+03   0.00000000E+00   0.00000000E+00   0.00000000E+00   0.00000000E+00   1.91199488E+04
   8.75000000E+02   5.00000000E-01   5.00000000E-01  -5.21739735E+04   2.06327568E+03   0.00000000E+00   1.95042403E+04   4.85326426E+03   2.20753205E+03   7.19155612E-06   0.00000000E+00   0.00000000E+00   0.00000000E+00   0.00000000E+00   1.54763862E+03   4.34678273E+03   0.00000000E+00   0.00000000E+00   0.00000000E+00   0.00000000E+00   1.91198758E+04
   1.22500000E+03   5.00000000E-01   5.00000000E-01  -5.21740691E+04   2.06327568E+03   0.00000000E+00   1.95043195E+04   4.85371926E+03   2.20751822E+03   7.18907871E-06   0.00000000E+00   0.00000000E+00   0.00000000E+00   0.00000000E+00   1.54760359E+03   4.34723774E+03   0.00000000E+00   0.00000000E+00   0.00000000E+00   0.00000000E+00   1.91198049E+04
   1.57500000E+03   5.00000000E-01   5.00000000E-01  -5.21741429E+04   2.06327568E+03   0.00000000E+00   1.95043964E+04   4.85404156E+03   2.20749297E+03   7.18450104E-06   0.00000000E+00   0.00000000E+00   0.00000000E+00   0.00000000E+00   1.54757396E+03   4.34756003E+03   0.00000000E+00   0.00000000E+00   0.00000000E+00   0.00000000E+00   1.91197443E+04
   1.92500000E+03   5.00000000E-01   5.00000000E-01  -5.21741796E+04   2.06327568E+03   0.00000000E+00   1.95044747E+04   4.85426471E+03   2.20744581E+03   7.17626387E-06   0.00000000E+00   0.00000000E+00   0.00000000E+00   0.00000000E+00   1.54754846E+03   4.34778318E+03   0.00000000E+00   0.00000000E+00   0.00000000E+00   0.00000000E+00   1.91196866E+04
   2.27500000E+03   5.00000000E-01   5.00000000E-01  -5.21741943E+04   2.06327568E+03   0.00000000E+00   1.95045838E+04   4.85441465E+03   2.20736141E+03   7.16251519E-06   0.00000000E+00   0.00000000E+00   0.00000000E+00   0.00000000E+00   1.54751366E+03   4.34793312E+03   0.00000000E+00   0.00000000E+00   0.00000000E+00   0.00000000E+00   1.91196016E+04
   2.62500000E+03   5.00000000E-01   5.00000000E-01  -5.21742029E+04   2.06327568E+03   0.00000000E+00   1.95047516E+04   4.85451045E+03   2.20722698E+03   7.14371019E-06   0.00000000E+00   0.00000000E+00   0.00000000E+00   0.00000000E+00   1.54745562E+03   4.34802892E+03   0.00000000E+00   0.00000000E+00   0.00000000E+00   0.00000000E+00   1.91194587E+04
   2.97500000E+03   5.00000000E-01   5.00000000E-01  -5.21742152E+04   2.06327568E+03   0.00000000E+00   1.95049780E+04   4.85456633E+03   2.20704838E+03   7.12661602E-06   0.00000000E+00   0.00000000E+00   0.00000000E+00   0.00000000E+00   1.54737231E+03   4.34808480E+03   0.00000000E+00   0.00000000E+00   0.00000000E+00   0.00000000E+00   1.91192551E+04
   3.32500000E+03   5.00000000E-01   5.00000000E-01  -5.21742358E+04   2.06327568E+03   0.00000000E+00   1.95052243E+04   4.85459301E+03   2.20685845E+03   7.12453789E-06   0.00000000E+00   0.00000000E+00   0.00000000E+00   0.00000000E+00   1.54728024E+03   4.34811148E+03   0.00000000E+00   0.00000000E+00   0.00000000E+00   0.00000000E+00   1.91190330E+04
