 TITLE = "Total Component Concentration in Minerals" 
VARIABLES = "X"          "Y"              "Z"            "H+"             "Al+++"          "CO2(aq)"        "Mg++"           "Ca++"           "Fe++"           "Fe+++"          "Ba++"           "Sr++"           "Cl-"            "F-"             "K+"             "HS-"            "Na+"            "SO4--"          "O2(aq)"         "B(OH)3(aq)"     "HPO4--"         "NO3-"           "H4SiO4(aq)"    
 ZONE I=         200 , J=           1 , K=           1  F=POINT
   8.75000000E+00   5.00000000E-01   5.00000000E-01  -4.43406454E+04   3.02039332E+03   0.00000000E+00   9.11713399E+03   1.72604218E+03   6.22490179E+03   7.19372819E+01   0.00000000E+00   0.00000000E+00   0.00000000E+00   0.00000000E+00   3.32031617E-01   1.11077725E-05   9.27165628E+02   1.95650562E-06  -1.95650562E-06   0.00000000E+00   0.00000000E+00   0.00000000E+00   1.51128254E+04
   2.62500000E+01   5.00000000E-01   5.00000000E-01  -4.43721244E+04   3.02036900E+03   0.00000000E+00   9.13071284E+03   1.72627915E+03   6.22508045E+03   7.19372818E+01   0.00000000E+00   0.00000000E+00   0.00000000E+00   0.00000000E+00   2.44873541E+00   1.11077762E-05   9.28611955E+02   1.95650562E-06  -1.95650562E-06   0.00000000E+00   0.00000000E+00   0.00000000E+00   1.51387849E+04
   4.37500000E+01   5.00000000E-01   5.00000000E-01  -4.43686602E+04   3.02036900E+03   0.00000000E+00   9.12649383E+03   1.72639020E+03   6.22522480E+03   7.19372818E+01   0.00000000E+00   0.00000000E+00   0.00000000E+00   0.00000000E+00   3.04376603E+00   1.11077777E-05   9.32479928E+02   1.95650562E-06  -1.95650562E-06   0.00000000E+00   0.00000000E+00   0.00000000E+00   1.51519472E+04
   6.12500000E+01   5.00000000E-01   5.00000000E-01  -4.43605496E+04   3.02036900E+03   0.00000000E+00   9.11906340E+03   1.72647875E+03   6.22538144E+03   7.19372818E+01   0.00000000E+00   0.00000000E+00   0.00000000E+00   0.00000000E+00   3.72878948E+00   1.11077789E-05   9.38054783E+02   1.95650562E-06  -1.95650562E-06   0.00000000E+00   0.00000000E+00   0.00000000E+00   1.51689154E+04
   7.87500000E+01   5.00000000E-01   5.00000000E-01  -4.43560878E+04   3.02036900E+03   0.00000000E+00   9.11317934E+03   1.72662756E+03   6.22556615E+03   7.19372818E+01   0.00000000E+00   0.00000000E+00   0.00000000E+00   0.00000000E+00   4.58393389E+00   1.11077799E-05   9.43838981E+02   1.95650562E-06  -1.95650562E-06   0.00000000E+00   0.00000000E+00   0.00000000E+00   1.51888022E+04
   9.62500000E+01   5.00000000E-01   5.00000000E-01  -4.43537883E+04   3.02036900E+03   0.00000000E+00   9.10872310E+03   1.72681436E+03   6.22578402E+03   7.19372818E+01   0.00000000E+00   0.00000000E+00   0.00000000E+00   0.00000000E+00   5.30977353E+00   1.11077808E-05   9.48916715E+02   1.95650562E-06  -1.95650562E-06   0.00000000E+00   0.00000000E+00   0.00000000E+00   1.52069280E+04
   1.13750000E+02   5.00000000E-01   5.00000000E-01  -4.43524229E+04   3.02036900E+03   0.00000000E+00   9.10539224E+03   1.72701623E+03   6.22603570E+03   7.19372818E+01   0.00000000E+00   0.00000000E+00   0.00000000E+00   0.00000000E+00   5.76001888E+00   1.11077815E-05   9.52855770E+02   1.95650562E-06  -1.95650562E-06   0.00000000E+00   0.00000000E+00   0.00000000E+00   1.52208227E+04
   1.31250000E+02   5.00000000E-01   5.00000000E-01  -4.43516007E+04   3.02036900E+03   0.00000000E+00   9.10302621E+03   1.72721948E+03   6.22632248E+03   7.19372818E+01   0.00000000E+00   0.00000000E+00   0.00000000E+00   0.00000000E+00   5.93075935E+00   1.11077822E-05   9.55614786E+02   1.95650562E-06  -1.95650562E-06   0.00000000E+00   0.00000000E+00   0.00000000E+00   1.52301504E+04
   1.48750000E+02   5.00000000E-01   5.00000000E-01  -4.43511805E+04   3.02036900E+03   0.00000000E+00   9.10144294E+03   1.72741708E+03   6.22664716E+03   7.19372818E+01   0.00000000E+00   0.00000000E+00   0.00000000E+00   0.00000000E+00   5.87699094E+00   1.11077827E-05   9.57370332E+02   1.95650562E-06  -1.95650562E-06   0.00000000E+00   0.00000000E+00   0.00000000E+00   1.52356019E+04
   1.66250000E+02   5.00000000E-01   5.00000000E-01  -4.43511331E+04   3.02036900E+03   0.00000000E+00   9.10046147E+03   1.72760511E+03   6.22701176E+03   7.19372818E+01   0.00000000E+00   0.00000000E+00   0.00000000E+00   0.00000000E+00   5.67311247E+00   1.11077831E-05   9.58384458E+02   1.95650562E-06  -1.95650562E-06   0.00000000E+00   0.00000000E+00   0.00000000E+00   1.52382657E+04
   1.83750000E+02   5.00000000E-01   5.00000000E-01  -4.43514526E+04   3.02036900E+03   0.00000000E+00   9.09991749E+03   1.72778114E+03   6.22741510E+03   7.19372818E+01   0.00000000E+00   0.00000000E+00   0.00000000E+00   0.00000000E+00   5.38801111E+00   1.11077834E-05   9.58918259E+02   1.95650562E-06  -1.95650562E-06   0.00000000E+00   0.00000000E+00   0.00000000E+00   1.52392221E+04
   2.01250000E+02   5.00000000E-01   5.00000000E-01  -4.43519979E+04   3.02036900E+03   0.00000000E+00   9.09963990E+03   1.72794671E+03   6.22785608E+03   7.19372818E+01   0.00000000E+00   0.00000000E+00   0.00000000E+00   0.00000000E+00   5.05719981E+00   1.11077837E-05   9.59136500E+02   1.95650562E-06  -1.95650562E-06   0.00000000E+00   0.00000000E+00   0.00000000E+00   1.52390680E+04
   2.18750000E+02   5.00000000E-01   5.00000000E-01  -4.43526597E+04   3.02036900E+03   0.00000000E+00   9.09951460E+03   1.72810714E+03   6.22833422E+03   7.19372818E+01   0.00000000E+00   0.00000000E+00   0.00000000E+00   0.00000000E+00   4.69923051E+00   1.11077837E-05   9.59129759E+02   1.95650562E-06  -1.95650562E-06   0.00000000E+00   0.00000000E+00   0.00000000E+00   1.52381182E+04
   2.36250000E+02   5.00000000E-01   5.00000000E-01  -4.43534761E+04   3.02036900E+03   0.00000000E+00   9.09950536E+03   1.72826749E+03   6.22884424E+03   7.19372818E+01   0.00000000E+00   0.00000000E+00   0.00000000E+00   0.00000000E+00   4.33602688E+00   1.11077837E-05   9.58987048E+02   1.95650562E-06  -1.95650562E-06   0.00000000E+00   0.00000000E+00   0.00000000E+00   1.52367607E+04
   2.53750000E+02   5.00000000E-01   5.00000000E-01  -4.43543651E+04   3.02036900E+03   0.00000000E+00   9.09955024E+03   1.72843235E+03   6.22938087E+03   7.19372818E+01   0.00000000E+00   0.00000000E+00   0.00000000E+00   0.00000000E+00   3.97418802E+00   1.11077836E-05   9.58745190E+02   1.95650562E-06  -1.95650562E-06   0.00000000E+00   0.00000000E+00   0.00000000E+00   1.52351077E+04
   2.71250000E+02   5.00000000E-01   5.00000000E-01  -4.43553033E+04   3.02036900E+03   0.00000000E+00   9.09962695E+03   1.72860358E+03   6.22993845E+03   7.19372818E+01   0.00000000E+00   0.00000000E+00   0.00000000E+00   0.00000000E+00   3.62001393E+00   1.11077835E-05   9.58426528E+02   1.95650562E-06  -1.95650562E-06   0.00000000E+00   0.00000000E+00   0.00000000E+00   1.52332468E+04
   2.88750000E+02   5.00000000E-01   5.00000000E-01  -4.43562870E+04   3.02036900E+03   0.00000000E+00   9.09972888E+03   1.72877939E+03   6.23051157E+03   7.19372818E+01   0.00000000E+00   0.00000000E+00   0.00000000E+00   0.00000000E+00   3.27949083E+00   1.11077832E-05   9.58048964E+02   1.95650562E-06  -1.95650562E-06   0.00000000E+00   0.00000000E+00   0.00000000E+00   1.52312553E+04
   3.06250000E+02   5.00000000E-01   5.00000000E-01  -4.43573156E+04   3.02036900E+03   0.00000000E+00   9.09985447E+03   1.72895506E+03   6.23109624E+03   7.19372818E+01   0.00000000E+00   0.00000000E+00   0.00000000E+00   0.00000000E+00   2.95756382E+00   1.11077829E-05   9.57627683E+02   1.95650562E-06  -1.95650562E-06   0.00000000E+00   0.00000000E+00   0.00000000E+00   1.52291967E+04
   3.23750000E+02   5.00000000E-01   5.00000000E-01  -4.43583897E+04   3.02036900E+03   0.00000000E+00   9.10000358E+03   1.72912486E+03   6.23169038E+03   7.19372818E+01   0.00000000E+00   0.00000000E+00   0.00000000E+00   0.00000000E+00   2.65775283E+00   1.11077825E-05   9.57175514E+02   1.95650562E-06  -1.95650562E-06   0.00000000E+00   0.00000000E+00   0.00000000E+00   1.52271206E+04
   3.41250000E+02   5.00000000E-01   5.00000000E-01  -4.43595099E+04   3.02036900E+03   0.00000000E+00   9.10017566E+03   1.72928375E+03   6.23229363E+03   7.19372818E+01   0.00000000E+00   0.00000000E+00   0.00000000E+00   0.00000000E+00   2.38203196E+00   1.11077821E-05   9.56702946E+02   1.95650562E-06  -1.95650562E-06   0.00000000E+00   0.00000000E+00   0.00000000E+00   1.52250642E+04
   3.58750000E+02   5.00000000E-01   5.00000000E-01  -4.43606721E+04   3.02036900E+03   0.00000000E+00   9.10036742E+03   1.72942843E+03   6.23290691E+03   7.19372818E+01   0.00000000E+00   0.00000000E+00   0.00000000E+00   0.00000000E+00   2.13077342E+00   1.11077817E-05   9.56216948E+02   1.95650562E-06  -1.95650562E-06   0.00000000E+00   0.00000000E+00   0.00000000E+00   1.52230464E+04
   3.76250000E+02   5.00000000E-01   5.00000000E-01  -4.43618729E+04   3.02036900E+03   0.00000000E+00   9.10057525E+03   1.72955748E+03   6.23353159E+03   7.19372818E+01   0.00000000E+00   0.00000000E+00   0.00000000E+00   0.00000000E+00   1.90333633E+00   1.11077812E-05   9.55722117E+02   1.95650562E-06  -1.95650562E-06   0.00000000E+00   0.00000000E+00   0.00000000E+00   1.52210769E+04
   3.93750000E+02   5.00000000E-01   5.00000000E-01  -4.43631064E+04   3.02036900E+03   0.00000000E+00   9.10079424E+03   1.72967110E+03   6.23416895E+03   7.19372818E+01   0.00000000E+00   0.00000000E+00   0.00000000E+00   0.00000000E+00   1.69832858E+00   1.11077807E-05   9.55220637E+02   1.95650562E-06  -1.95650562E-06   0.00000000E+00   0.00000000E+00   0.00000000E+00   1.52191554E+04
   4.11250000E+02   5.00000000E-01   5.00000000E-01  -4.43643661E+04   3.02036900E+03   0.00000000E+00   9.10101962E+03   1.72977069E+03   6.23481978E+03   7.19372818E+01   0.00000000E+00   0.00000000E+00   0.00000000E+00   0.00000000E+00   1.51400456E+00   1.11077802E-05   9.54713141E+02   1.95650562E-06  -1.95650562E-06   0.00000000E+00   0.00000000E+00   0.00000000E+00   1.52172763E+04
   4.28750000E+02   5.00000000E-01   5.00000000E-01  -4.43656470E+04   3.02036900E+03   0.00000000E+00   9.10124757E+03   1.72985843E+03   6.23548401E+03   7.19372818E+01   0.00000000E+00   0.00000000E+00   0.00000000E+00   0.00000000E+00   1.34853089E+00   1.11077796E-05   9.54199601E+02   1.95650562E-06  -1.95650562E-06   0.00000000E+00   0.00000000E+00   0.00000000E+00   1.52154331E+04
   4.46250000E+02   5.00000000E-01   5.00000000E-01  -4.43669429E+04   3.02036900E+03   0.00000000E+00   9.10147455E+03   1.72993706E+03   6.23616065E+03   7.19372818E+01   0.00000000E+00   0.00000000E+00   0.00000000E+00   0.00000000E+00   1.20007119E+00   1.11077791E-05   9.53679460E+02   1.95650562E-06  -1.95650562E-06   0.00000000E+00   0.00000000E+00   0.00000000E+00   1.52136179E+04
   4.63750000E+02   5.00000000E-01   5.00000000E-01  -4.43682482E+04   3.02036900E+03   0.00000000E+00   9.10169790E+03   1.73000962E+03   6.23684771E+03   7.19372818E+01   0.00000000E+00   0.00000000E+00   0.00000000E+00   0.00000000E+00   1.06688993E+00   1.11077785E-05   9.53152032E+02   1.95650562E-06  -1.95650562E-06   0.00000000E+00   0.00000000E+00   0.00000000E+00   1.52118238E+04
   4.81250000E+02   5.00000000E-01   5.00000000E-01  -4.43695581E+04   3.02036900E+03   0.00000000E+00   9.10191600E+03   1.73007933E+03   6.23754220E+03   7.19372818E+01   0.00000000E+00   0.00000000E+00   0.00000000E+00   0.00000000E+00   9.47404090E-01   1.11077779E-05   9.52616843E+02   1.95650562E-06  -1.95650562E-06   0.00000000E+00   0.00000000E+00   0.00000000E+00   1.52100458E+04
   4.98750000E+02   5.00000000E-01   5.00000000E-01  -4.43707304E+04   3.02036900E+03   0.00000000E+00   9.10206620E+03   1.73014937E+03   6.23825094E+03   7.19372818E+01   0.00000000E+00   0.00000000E+00   0.00000000E+00   0.00000000E+00   8.37710083E-01   1.11077774E-05   9.52040799E+02   1.95650562E-06  -1.95650562E-06   0.00000000E+00   0.00000000E+00   0.00000000E+00   1.52080989E+04
   5.16250000E+02   5.00000000E-01   5.00000000E-01  -4.43719872E+04   3.02036900E+03   0.00000000E+00   9.10224831E+03   1.73022375E+03   6.23896364E+03   7.19372818E+01   0.00000000E+00   0.00000000E+00   0.00000000E+00   0.00000000E+00   7.40232318E-01   1.11077768E-05   9.51456756E+02   1.95650562E-06  -1.95650562E-06   0.00000000E+00   0.00000000E+00   0.00000000E+00   1.52062059E+04
   5.33750000E+02   5.00000000E-01   5.00000000E-01  -4.43732731E+04   3.02036900E+03   0.00000000E+00   9.10243840E+03   1.73030482E+03   6.23967240E+03   7.19372818E+01   0.00000000E+00   0.00000000E+00   0.00000000E+00   0.00000000E+00   6.53320755E-01   1.11077763E-05   9.50869675E+02   1.95650562E-06  -1.95650562E-06   0.00000000E+00   0.00000000E+00   0.00000000E+00   1.52043579E+04
   5.51250000E+02   5.00000000E-01   5.00000000E-01  -4.43745521E+04   3.02036900E+03   0.00000000E+00   9.10262329E+03   1.73039413E+03   6.24037155E+03   7.19372818E+01   0.00000000E+00   0.00000000E+00   0.00000000E+00   0.00000000E+00   5.75611935E-01   1.11077757E-05   9.50279730E+02   1.95650562E-06  -1.95650562E-06   0.00000000E+00   0.00000000E+00   0.00000000E+00   1.52025386E+04
   5.68750000E+02   5.00000000E-01   5.00000000E-01  -4.43758124E+04   3.02036900E+03   0.00000000E+00   9.10280090E+03   1.73049214E+03   6.24105673E+03   7.19372818E+01   0.00000000E+00   0.00000000E+00   0.00000000E+00   0.00000000E+00   5.06155708E-01   1.11077752E-05   9.49687882E+02   1.95650562E-06  -1.95650562E-06   0.00000000E+00   0.00000000E+00   0.00000000E+00   1.52007449E+04
   5.86250000E+02   5.00000000E-01   5.00000000E-01  -4.43770475E+04   3.02036900E+03   0.00000000E+00   9.10297126E+03   1.73059808E+03   6.24172496E+03   7.19372818E+01   0.00000000E+00   0.00000000E+00   0.00000000E+00   0.00000000E+00   4.44187480E-01   1.11077746E-05   9.49095885E+02   1.95650562E-06  -1.95650562E-06   0.00000000E+00   0.00000000E+00   0.00000000E+00   1.51989777E+04
   6.03750000E+02   5.00000000E-01   5.00000000E-01  -4.43782521E+04   3.02036900E+03   0.00000000E+00   9.10313423E+03   1.73071007E+03   6.24237476E+03   7.19372818E+01   0.00000000E+00   0.00000000E+00   0.00000000E+00   0.00000000E+00   3.89047813E-01   1.11077741E-05   9.48506094E+02   1.95650562E-06  -1.95650562E-06   0.00000000E+00   0.00000000E+00   0.00000000E+00   1.51972389E+04
   6.21250000E+02   5.00000000E-01   5.00000000E-01  -4.43794211E+04   3.02036900E+03   0.00000000E+00   9.10328897E+03   1.73082546E+03   6.24300601E+03   7.19372818E+01   0.00000000E+00   0.00000000E+00   0.00000000E+00   0.00000000E+00   3.40139502E-01   1.11077736E-05   9.47921227E+02   1.95650562E-06  -1.95650562E-06   0.00000000E+00   0.00000000E+00   0.00000000E+00   1.51955312E+04
   6.38750000E+02   5.00000000E-01   5.00000000E-01  -4.43805496E+04   3.02036900E+03   0.00000000E+00   9.10343397E+03   1.73094133E+03   6.24361959E+03   7.19372818E+01   0.00000000E+00   0.00000000E+00   0.00000000E+00   0.00000000E+00   2.96900478E-01   1.11077731E-05   9.47344089E+02   1.95650562E-06  -1.95650562E-06   0.00000000E+00   0.00000000E+00   0.00000000E+00   1.51938567E+04
   6.56250000E+02   5.00000000E-01   5.00000000E-01  -4.43816330E+04   3.02036900E+03   0.00000000E+00   9.10356723E+03   1.73105493E+03   6.24421687E+03   7.19372818E+01   0.00000000E+00   0.00000000E+00   0.00000000E+00   0.00000000E+00   2.58789911E-01   1.11077726E-05   9.46777334E+02   1.95650562E-06  -1.95650562E-06   0.00000000E+00   0.00000000E+00   0.00000000E+00   1.51922175E+04
   6.73750000E+02   5.00000000E-01   5.00000000E-01  -4.43826667E+04   3.02036900E+03   0.00000000E+00   9.10368662E+03   1.73116398E+03   6.24479906E+03   7.19372818E+01   0.00000000E+00   0.00000000E+00   0.00000000E+00   0.00000000E+00   2.25286421E-01   1.11077721E-05   9.46223311E+02   1.95650562E-06  -1.95650562E-06   0.00000000E+00   0.00000000E+00   0.00000000E+00   1.51906150E+04
   6.91250000E+02   5.00000000E-01   5.00000000E-01  -4.43836461E+04   3.02036900E+03   0.00000000E+00   9.10379007E+03   1.73126686E+03   6.24536680E+03   7.19372818E+01   0.00000000E+00   0.00000000E+00   0.00000000E+00   0.00000000E+00   1.95890587E-01   1.11077716E-05   9.45683940E+02   1.95650562E-06  -1.95650562E-06   0.00000000E+00   0.00000000E+00   0.00000000E+00   1.51890502E+04
   7.08750000E+02   5.00000000E-01   5.00000000E-01  -4.43845667E+04   3.02036900E+03   0.00000000E+00   9.10387606E+03   1.73136263E+03   6.24591981E+03   7.19372818E+01   0.00000000E+00   0.00000000E+00   0.00000000E+00   0.00000000E+00   1.70134677E-01   1.11077712E-05   9.45160761E+02   1.96755601E-06  -1.95650562E-06   0.00000000E+00   0.00000000E+00   0.00000000E+00   1.51875238E+04
   7.26250000E+02   5.00000000E-01   5.00000000E-01  -4.43854244E+04   3.02036900E+03   0.00000000E+00   9.10394383E+03   1.73145103E+03   6.24645665E+03   7.19372818E+01   0.00000000E+00   0.00000000E+00   0.00000000E+00   0.00000000E+00   1.47588365E-01   1.11077708E-05   9.44654980E+02   1.99988564E-06  -1.95650562E-06   0.00000000E+00   0.00000000E+00   0.00000000E+00   1.51860369E+04
   7.43750000E+02   5.00000000E-01   5.00000000E-01  -4.43862152E+04   3.02036900E+03   0.00000000E+00   9.10399349E+03   1.73153231E+03   6.24697471E+03   7.19372818E+01   0.00000000E+00   0.00000000E+00   0.00000000E+00   0.00000000E+00   1.27862023E-01   1.11077703E-05   9.44167536E+02   2.05600745E-06  -1.95650562E-06   0.00000000E+00   0.00000000E+00   0.00000000E+00   1.51845909E+04
   7.61250000E+02   5.00000000E-01   5.00000000E-01  -4.43869354E+04   3.02036900E+03   0.00000000E+00   9.10402595E+03   1.73160719E+03   6.24747025E+03   7.19372818E+01   0.00000000E+00   0.00000000E+00   0.00000000E+00   0.00000000E+00   1.10607734E-01   1.11077699E-05   9.43699162E+02   2.14722047E-06  -1.95650562E-06   0.00000000E+00   0.00000000E+00   0.00000000E+00   1.51831873E+04
   7.78750000E+02   5.00000000E-01   5.00000000E-01  -4.43875813E+04   3.02036900E+03   0.00000000E+00   9.10404295E+03   1.73167670E+03   6.24793863E+03   7.19372818E+01   0.00000000E+00   0.00000000E+00   0.00000000E+00   0.00000000E+00   9.55184282E-02   1.11077695E-05   9.43250447E+02   2.28921921E-06  -1.95650562E-06   0.00000000E+00   0.00000000E+00   0.00000000E+00   1.51818282E+04
   7.96250000E+02   5.00000000E-01   5.00000000E-01  -4.43881496E+04   3.02036900E+03   0.00000000E+00   9.10404683E+03   1.73174201E+03   6.24837445E+03   7.19372818E+01   0.00000000E+00   0.00000000E+00   0.00000000E+00   0.00000000E+00   8.23257223E-02   1.11077692E-05   9.42821890E+02   2.50366439E-06  -1.95650562E-06   0.00000000E+00   0.00000000E+00   0.00000000E+00   1.51805160E+04
   8.13750000E+02   5.00000000E-01   5.00000000E-01  -4.43886368E+04   3.02036900E+03   0.00000000E+00   9.10404037E+03   1.73180428E+03   6.24877198E+03   7.19372818E+01   0.00000000E+00   0.00000000E+00   0.00000000E+00   0.00000000E+00   7.07967525E-02   1.11077688E-05   9.42413935E+02   2.82029662E-06  -1.95650562E-06   0.00000000E+00   0.00000000E+00   0.00000000E+00   1.51792532E+04
   8.31250000E+02   5.00000000E-01   5.00000000E-01  -4.43890391E+04   3.02036900E+03   0.00000000E+00   9.10402639E+03   1.73186450E+03   6.24912542E+03   7.19372818E+01   0.00000000E+00   0.00000000E+00   0.00000000E+00   0.00000000E+00   6.07302987E-02   1.11077685E-05   9.42026979E+02   3.27977903E-06  -1.95650562E-06   0.00000000E+00   0.00000000E+00   0.00000000E+00   1.51780418E+04
   8.48750000E+02   5.00000000E-01   5.00000000E-01  -4.43893524E+04   3.02036899E+03   0.00000000E+00   9.10400743E+03   1.73192327E+03   6.24942943E+03   7.19372818E+01   0.00000000E+00   0.00000000E+00   0.00000000E+00   0.00000000E+00   5.19526503E-02   1.11077681E-05   9.41661360E+02   3.93751950E-06  -1.95650562E-06   0.00000000E+00   0.00000000E+00   0.00000000E+00   1.51768830E+04
   8.66250000E+02   5.00000000E-01   5.00000000E-01  -4.43895715E+04   3.02036899E+03   0.00000000E+00   9.10398534E+03   1.73198069E+03   6.24967949E+03   7.19372818E+01   0.00000000E+00   0.00000000E+00   0.00000000E+00   0.00000000E+00   4.43135935E-02   1.11077678E-05   9.41317325E+02   4.86881042E-06  -1.95650562E-06   0.00000000E+00   0.00000000E+00   0.00000000E+00   1.51757769E+04
   8.83750000E+02   5.00000000E-01   5.00000000E-01  -4.43896542E+04   3.02036899E+03   0.00000000E+00   9.10394699E+03   1.73203101E+03   6.24987666E+03   7.19372818E+01   0.00000000E+00   0.00000000E+00   0.00000000E+00   0.00000000E+00   3.76384967E-02   1.11077675E-05   9.40988491E+02   6.17575726E-06  -1.95650562E-06   0.00000000E+00   0.00000000E+00   0.00000000E+00   1.51746776E+04
   9.01250000E+02   5.00000000E-01   5.00000000E-01  -4.43896633E+04   3.02036899E+03   0.00000000E+00   9.10391994E+03   1.73207970E+03   6.25001566E+03   7.19372818E+01   0.00000000E+00   0.00000000E+00   0.00000000E+00   0.00000000E+00   3.19040453E-02   1.11077672E-05   9.40681963E+02   7.99656962E-06  -1.95650562E-06   0.00000000E+00   0.00000000E+00   0.00000000E+00   1.51736431E+04
   9.18750000E+02   5.00000000E-01   5.00000000E-01  -4.43895761E+04   3.02036899E+03   0.00000000E+00   9.10389548E+03   1.73212556E+03   6.25009498E+03   7.19372818E+01   0.00000000E+00   0.00000000E+00   0.00000000E+00   0.00000000E+00   2.69762432E-02   1.11077669E-05   9.40398235E+02   1.05180897E-05  -1.95650562E-06   0.00000000E+00   0.00000000E+00   0.00000000E+00   1.51726642E+04
   9.36250000E+02   5.00000000E-01   5.00000000E-01  -4.43893742E+04   3.02036899E+03   0.00000000E+00   9.10386581E+03   1.73216598E+03   6.25011641E+03   7.19372818E+01   0.00000000E+00   0.00000000E+00   0.00000000E+00   0.00000000E+00   2.27450514E-02   1.11077667E-05   9.40136264E+02   1.39926727E-05  -1.95650562E-06   0.00000000E+00   0.00000000E+00   0.00000000E+00   1.51717259E+04
   9.53750000E+02   5.00000000E-01   5.00000000E-01  -4.43890528E+04   3.02036899E+03   0.00000000E+00   9.10382768E+03   1.73219881E+03   6.25008341E+03   7.19372818E+01   0.00000000E+00   0.00000000E+00   0.00000000E+00   0.00000000E+00   1.91259271E-02   1.11077664E-05   9.39895146E+02   1.87609442E-05  -1.95650562E-06   0.00000000E+00   0.00000000E+00   0.00000000E+00   1.51708194E+04
   9.71250000E+02   5.00000000E-01   5.00000000E-01  -4.43886120E+04   3.02036899E+03   0.00000000E+00   9.10377887E+03   1.73222228E+03   6.25000050E+03   7.19372818E+01   0.00000000E+00   0.00000000E+00   0.00000000E+00   0.00000000E+00   1.60444334E-02   1.11077662E-05   9.39673901E+02   2.52825123E-05  -1.95650562E-06   0.00000000E+00   0.00000000E+00   0.00000000E+00   1.51699381E+04
   9.88750000E+02   5.00000000E-01   5.00000000E-01  -4.43880544E+04   3.02036899E+03   0.00000000E+00   9.10371754E+03   1.73223506E+03   6.24987279E+03   7.19372818E+01   0.00000000E+00   0.00000000E+00   0.00000000E+00   0.00000000E+00   1.34323650E-02   1.11077659E-05   9.39471423E+02   3.41774568E-05  -1.95650562E-06   0.00000000E+00   0.00000000E+00   0.00000000E+00   1.51690761E+04
   1.00625000E+03   5.00000000E-01   5.00000000E-01  -4.43873848E+04   3.02036899E+03   0.00000000E+00   9.10364221E+03   1.73223631E+03   6.24970565E+03   7.19372818E+01   0.00000000E+00   0.00000000E+00   0.00000000E+00   0.00000000E+00   1.12270952E-02   1.11077657E-05   9.39286484E+02   4.62824396E-05  -1.95650562E-06   0.00000000E+00   0.00000000E+00   0.00000000E+00   1.51682284E+04
   1.02375000E+03   5.00000000E-01   5.00000000E-01  -4.43866101E+04   3.02036899E+03   0.00000000E+00   9.10355204E+03   1.73222570E+03   6.24950436E+03   7.19372818E+01   0.00000000E+00   0.00000000E+00   0.00000000E+00   0.00000000E+00   9.37171292E-03   1.11077655E-05   9.39117785E+02   6.27266785E-05  -1.95650562E-06   0.00000000E+00   0.00000000E+00   0.00000000E+00   1.51673914E+04
   1.04125000E+03   5.00000000E-01   5.00000000E-01  -4.43857385E+04   3.02036899E+03   0.00000000E+00   9.10344673E+03   1.73220340E+03   6.24927390E+03   7.19372818E+01   0.00000000E+00   0.00000000E+00   0.00000000E+00   0.00000000E+00   7.81498207E-03   1.11077653E-05   9.38963980E+02   8.50349492E-05  -1.95650562E-06   0.00000000E+00   0.00000000E+00   0.00000000E+00   1.51665622E+04
   1.05875000E+03   5.00000000E-01   5.00000000E-01  -4.43847797E+04   3.02036899E+03   0.00000000E+00   9.10332671E+03   1.73216995E+03   6.24901876E+03   7.19372818E+01   0.00000000E+00   0.00000000E+00   0.00000000E+00   0.00000000E+00   6.51173961E-03   1.11077651E-05   9.38823745E+02   1.15267420E-04  -1.95650562E-06   0.00000000E+00   0.00000000E+00   0.00000000E+00   1.51657395E+04
   1.07625000E+03   5.00000000E-01   5.00000000E-01  -4.43837439E+04   3.02036899E+03   0.00000000E+00   9.10319299E+03   1.73212621E+03   6.24874290E+03   7.19372818E+01   0.00000000E+00   0.00000000E+00   0.00000000E+00   0.00000000E+00   5.42258014E-03   1.11077649E-05   9.38695799E+02   1.56209769E-04  -1.95650562E-06   0.00000000E+00   0.00000000E+00   0.00000000E+00   1.51649226E+04
   1.09375000E+03   5.00000000E-01   5.00000000E-01  -4.43826418E+04   3.02036899E+03   0.00000000E+00   9.10304706E+03   1.73207322E+03   6.24844972E+03   7.19372818E+01   0.00000000E+00   0.00000000E+00   0.00000000E+00   0.00000000E+00   4.51350224E-03   1.11077648E-05   9.38578929E+02   2.11632044E-04  -1.95650562E-06   0.00000000E+00   0.00000000E+00   0.00000000E+00   1.51641118E+04
   1.11125000E+03   5.00000000E-01   5.00000000E-01  -4.43814841E+04   3.02036899E+03   0.00000000E+00   9.10289078E+03   1.73201215E+03   6.24814210E+03   7.19372818E+01   0.00000000E+00   0.00000000E+00   0.00000000E+00   0.00000000E+00   3.75545505E-03   1.11077646E-05   9.38471998E+02   2.86641707E-04  -1.95650562E-06   0.00000000E+00   0.00000000E+00   0.00000000E+00   1.51633078E+04
   1.12875000E+03   5.00000000E-01   5.00000000E-01  -4.43802809E+04   3.02036899E+03   0.00000000E+00   9.10272622E+03   1.73194420E+03   6.24782250E+03   7.19372818E+01   0.00000000E+00   0.00000000E+00   0.00000000E+00   0.00000000E+00   3.12383410E-03   1.11077645E-05   9.38373948E+02   3.88165896E-04  -1.95650562E-06   0.00000000E+00   0.00000000E+00   0.00000000E+00   1.51625119E+04
   1.14625000E+03   5.00000000E-01   5.00000000E-01  -4.43790425E+04   3.02036899E+03   0.00000000E+00   9.10255563E+03   1.73187053E+03   6.24749299E+03   7.19372818E+01   0.00000000E+00   0.00000000E+00   0.00000000E+00   0.00000000E+00   2.59793337E-03   1.11077644E-05   9.38283799E+02   5.25611364E-04  -1.95650562E-06   0.00000000E+00   0.00000000E+00   0.00000000E+00   1.51617253E+04
   1.16375000E+03   5.00000000E-01   5.00000000E-01  -4.43777781E+04   3.02036899E+03   0.00000000E+00   9.10238129E+03   1.73179227E+03   6.24715539E+03   7.19372818E+01   0.00000000E+00   0.00000000E+00   0.00000000E+00   0.00000000E+00   2.16038279E-03   1.11077642E-05   9.38200638E+02   7.11769136E-04  -1.95650562E-06   0.00000000E+00   0.00000000E+00   0.00000000E+00   1.51609496E+04
   1.18125000E+03   5.00000000E-01   5.00000000E-01  -4.43764967E+04   3.02036899E+03   0.00000000E+00   9.10220543E+03   1.73171048E+03   6.24681130E+03   7.19372818E+01   0.00000000E+00   0.00000000E+00   0.00000000E+00   0.00000000E+00   1.79662816E-03   1.11077641E-05   9.38123613E+02   9.64056914E-04  -1.95650562E-06   0.00000000E+00   0.00000000E+00   0.00000000E+00   1.51601861E+04
   1.19875000E+03   5.00000000E-01   5.00000000E-01  -4.43752066E+04   3.02036899E+03   0.00000000E+00   9.10203022E+03   1.73162612E+03   6.24646218E+03   7.19372818E+01   0.00000000E+00   0.00000000E+00   0.00000000E+00   0.00000000E+00   1.49448329E-03   1.11077640E-05   9.38051916E+02   1.30622851E-03  -1.95650562E-06   0.00000000E+00   0.00000000E+00   0.00000000E+00   1.51594360E+04
   1.21625000E+03   5.00000000E-01   5.00000000E-01  -4.43739156E+04   3.02036899E+03   0.00000000E+00   9.10185771E+03   1.73154009E+03   6.24610938E+03   7.19372818E+01   0.00000000E+00   0.00000000E+00   0.00000000E+00   0.00000000E+00   1.24374443E-03   1.11077639E-05   9.37984783E+02   1.77073041E-03  -1.95650562E-06   0.00000000E+00   0.00000000E+00   0.00000000E+00   1.51587006E+04
   1.23375000E+03   5.00000000E-01   5.00000000E-01  -4.43726308E+04   3.02036899E+03   0.00000000E+00   9.10168980E+03   1.73145324E+03   6.24575413E+03   7.19372818E+01   0.00000000E+00   0.00000000E+00   0.00000000E+00   0.00000000E+00   1.03585558E-03   1.11077638E-05   9.37921487E+02   2.40195673E-03  -1.95650562E-06   0.00000000E+00   0.00000000E+00   0.00000000E+00   1.51579808E+04
   1.25125000E+03   5.00000000E-01   5.00000000E-01  -4.43713591E+04   3.02036899E+03   0.00000000E+00   9.10152833E+03   1.73136637E+03   6.24539762E+03   7.19372818E+01   0.00000000E+00   0.00000000E+00   0.00000000E+00   0.00000000E+00   8.63639648E-04   1.11077637E-05   9.37861335E+02   3.26075395E-03  -1.95650562E-06   0.00000000E+00   0.00000000E+00   0.00000000E+00   1.51572775E+04
   1.26875000E+03   5.00000000E-01   5.00000000E-01  -4.43701061E+04   3.02036899E+03   0.00000000E+00   9.10137481E+03   1.73128019E+03   6.24504091E+03   7.19372818E+01   0.00000000E+00   0.00000000E+00   0.00000000E+00   0.00000000E+00   7.21050723E-04   1.11077636E-05   9.37803676E+02   4.43066821E-03  -1.95650562E-06   0.00000000E+00   0.00000000E+00   0.00000000E+00   1.51565913E+04
   1.28625000E+03   5.00000000E-01   5.00000000E-01  -4.43688775E+04   3.02036898E+03   0.00000000E+00   9.10123075E+03   1.73119543E+03   6.24468497E+03   7.19372818E+01   0.00000000E+00   0.00000000E+00   0.00000000E+00   0.00000000E+00   6.03040180E-04   1.11077636E-05   9.37747895E+02   6.02662608E-03  -1.95650562E-06   0.00000000E+00   0.00000000E+00   0.00000000E+00   1.51559229E+04
   1.30375000E+03   5.00000000E-01   5.00000000E-01  -4.43676783E+04   3.02036898E+03   0.00000000E+00   9.10109750E+03   1.73111281E+03   6.24433068E+03   7.19372818E+01   0.00000000E+00   0.00000000E+00   0.00000000E+00   0.00000000E+00   5.05380163E-04   1.11077635E-05   9.37693424E+02   8.20702188E-03  -1.95650562E-06   0.00000000E+00   0.00000000E+00   0.00000000E+00   1.51552725E+04