 TITLE = "Total Component Concentration in Minerals" 
VARIABLES = "X"          "Y"              "Z"            "H+"             "Al+++"          "CO2(aq)"        "Mg++"           "Ca++"           "Fe++"           "Fe+++"          "Ba++"           "Sr++"           "Cl-"            "F-"             "K+"             "HS-"            "Na+"            "SO4--"          "O2(aq)"         "B(OH)3(aq)"     "HPO4--"         "NO3-"           "H4SiO4(aq)"    
 ZONE I=         100 , J=           1 , K=           1  F=POINT
   1.75000000E+01   5.00000000E-01   5.00000000E-01  -5.15790586E+04   4.76125546E+03   0.00000000E+00   1.50545066E+04   3.43094040E+03   1.20589576E+03   7.19372706E+00   0.00000000E+00   0.00000000E+00   0.00000000E+00   0.00000000E+00   0.00000000E+00   0.00000000E+00   1.32523409E+03   1.71710426E+03   0.00000000E+00   0.00000000E+00   0.00000000E+00   0.00000000E+00   1.99541041E+04
   5.25000000E+01   5.00000000E-01   5.00000000E-01  -5.15749277E+04   4.76125334E+03   0.00000000E+00   1.50508628E+04   3.50790788E+03   1.20589596E+03   7.19372708E+00   0.00000000E+00   0.00000000E+00   0.00000000E+00   0.00000000E+00   0.00000000E+00   0.00000000E+00   1.32839614E+03   1.79407152E+03   0.00000000E+00   0.00000000E+00   0.00000000E+00   0.00000000E+00   1.99668284E+04
   8.75000000E+01   5.00000000E-01   5.00000000E-01  -5.15739277E+04   4.76125334E+03   0.00000000E+00   1.50495788E+04   3.58516052E+03   1.20589626E+03   7.19372707E+00   0.00000000E+00   0.00000000E+00   0.00000000E+00   0.00000000E+00   0.00000000E+00   0.00000000E+00   1.32996315E+03   1.87132391E+03   0.00000000E+00   0.00000000E+00   0.00000000E+00   0.00000000E+00   1.99737256E+04
   1.22500000E+02   5.00000000E-01   5.00000000E-01  -5.15737389E+04   4.76125334E+03   0.00000000E+00   1.50491802E+04   3.65741375E+03   1.20589667E+03   7.19372707E+00   0.00000000E+00   0.00000000E+00   0.00000000E+00   0.00000000E+00   0.00000000E+00   0.00000000E+00   1.33057036E+03   1.94357693E+03   0.00000000E+00   0.00000000E+00   0.00000000E+00   0.00000000E+00   1.99765199E+04
   1.57500000E+02   5.00000000E-01   5.00000000E-01  -5.15737598E+04   4.76125334E+03   0.00000000E+00   1.50490828E+04   3.72158022E+03   1.20589718E+03   7.19372707E+00   0.00000000E+00   0.00000000E+00   0.00000000E+00   0.00000000E+00   0.00000000E+00   0.00000000E+00   1.33078461E+03   2.00774324E+03   0.00000000E+00   0.00000000E+00   0.00000000E+00   0.00000000E+00   1.99775534E+04
   1.92500000E+02   5.00000000E-01   5.00000000E-01  -5.15738525E+04   4.76125334E+03   0.00000000E+00   1.50490983E+04   3.77632100E+03   1.20589778E+03   7.19372707E+00   0.00000000E+00   0.00000000E+00   0.00000000E+00   0.00000000E+00   0.00000000E+00   0.00000000E+00   1.33084493E+03   2.06248392E+03   0.00000000E+00   0.00000000E+00   0.00000000E+00   0.00000000E+00   1.99778905E+04
   2.27500000E+02   5.00000000E-01   5.00000000E-01  -5.15739763E+04   4.76125334E+03   0.00000000E+00   1.50491599E+04   3.82153934E+03   1.20589847E+03   7.19372707E+00   0.00000000E+00   0.00000000E+00   0.00000000E+00   0.00000000E+00   0.00000000E+00   0.00000000E+00   1.33084409E+03   2.10770219E+03   0.00000000E+00   0.00000000E+00   0.00000000E+00   0.00000000E+00   1.99779538E+04
   2.62500000E+02   5.00000000E-01   5.00000000E-01  -5.15741170E+04   4.76125334E+03   0.00000000E+00   1.50492425E+04   3.85791303E+03   1.20589924E+03   7.19372707E+00   0.00000000E+00   0.00000000E+00   0.00000000E+00   0.00000000E+00   0.00000000E+00   0.00000000E+00   1.33081797E+03   2.14407585E+03   0.00000000E+00   0.00000000E+00   0.00000000E+00   0.00000000E+00   1.99779081E+04
   2.97500000E+02   5.00000000E-01   5.00000000E-01  -5.15742696E+04   4.76125334E+03   0.00000000E+00   1.50493366E+04   3.88652301E+03   1.20590010E+03   7.19372707E+00   0.00000000E+00   0.00000000E+00   0.00000000E+00   0.00000000E+00   0.00000000E+00   0.00000000E+00   1.33078062E+03   2.17268582E+03   0.00000000E+00   0.00000000E+00   0.00000000E+00   0.00000000E+00   1.99778184E+04
   3.32500000E+02   5.00000000E-01   5.00000000E-01  -5.15744322E+04   4.76125334E+03   0.00000000E+00   1.50494385E+04   3.90854150E+03   1.20590104E+03   7.19372707E+00   0.00000000E+00   0.00000000E+00   0.00000000E+00   0.00000000E+00   0.00000000E+00   0.00000000E+00   1.33073763E+03   2.19470433E+03   0.00000000E+00   0.00000000E+00   0.00000000E+00   0.00000000E+00   1.99777108E+04
   3.67500000E+02   5.00000000E-01   5.00000000E-01  -5.15746041E+04   4.76125334E+03   0.00000000E+00   1.50495466E+04   3.92516495E+03   1.20590205E+03   7.19372707E+00   0.00000000E+00   0.00000000E+00   0.00000000E+00   0.00000000E+00   0.00000000E+00   0.00000000E+00   1.33069128E+03   2.21132780E+03   0.00000000E+00   0.00000000E+00   0.00000000E+00   0.00000000E+00   1.99775960E+04
   4.02500000E+02   5.00000000E-01   5.00000000E-01  -5.15747851E+04   4.76125334E+03   0.00000000E+00   1.50496604E+04   3.93752060E+03   1.20590315E+03   7.19372707E+00   0.00000000E+00   0.00000000E+00   0.00000000E+00   0.00000000E+00   0.00000000E+00   0.00000000E+00   1.33064253E+03   2.22368348E+03   0.00000000E+00   0.00000000E+00   0.00000000E+00   0.00000000E+00   1.99774783E+04
   4.37500000E+02   5.00000000E-01   5.00000000E-01  -5.15749750E+04   4.76125334E+03   0.00000000E+00   1.50497796E+04   3.94654428E+03   1.20590432E+03   7.19372707E+00   0.00000000E+00   0.00000000E+00   0.00000000E+00   0.00000000E+00   0.00000000E+00   0.00000000E+00   1.33059179E+03   2.23270718E+03   0.00000000E+00   0.00000000E+00   0.00000000E+00   0.00000000E+00   1.99773595E+04
   4.72500000E+02   5.00000000E-01   5.00000000E-01  -5.15751735E+04   4.76125334E+03   0.00000000E+00   1.50499039E+04   3.95299377E+03   1.20590556E+03   7.19372707E+00   0.00000000E+00   0.00000000E+00   0.00000000E+00   0.00000000E+00   0.00000000E+00   0.00000000E+00   1.33053929E+03   2.23915670E+03   0.00000000E+00   0.00000000E+00   0.00000000E+00   0.00000000E+00   1.99772403E+04
   5.07500000E+02   5.00000000E-01   5.00000000E-01  -5.15753800E+04   4.76125334E+03   0.00000000E+00   1.50500329E+04   3.95747144E+03   1.20590688E+03   7.19372706E+00   0.00000000E+00   0.00000000E+00   0.00000000E+00   0.00000000E+00   0.00000000E+00   0.00000000E+00   1.33048517E+03   2.24363438E+03   0.00000000E+00   0.00000000E+00   0.00000000E+00   0.00000000E+00   1.99771209E+04
   5.42500000E+02   5.00000000E-01   5.00000000E-01  -5.15755939E+04   4.76125334E+03   0.00000000E+00   1.50501662E+04   3.96044917E+03   1.20590828E+03   7.19372706E+00   0.00000000E+00   0.00000000E+00   0.00000000E+00   0.00000000E+00   0.00000000E+00   0.00000000E+00   1.33042958E+03   2.24661211E+03   0.00000000E+00   0.00000000E+00   0.00000000E+00   0.00000000E+00   1.99770013E+04
   5.77500000E+02   5.00000000E-01   5.00000000E-01  -5.15758143E+04   4.76125334E+03   0.00000000E+00   1.50503034E+04   3.96229241E+03   1.20590974E+03   7.19372706E+00   0.00000000E+00   0.00000000E+00   0.00000000E+00   0.00000000E+00   0.00000000E+00   0.00000000E+00   1.33037268E+03   2.24845531E+03   0.00000000E+00   0.00000000E+00   0.00000000E+00   0.00000000E+00   1.99768815E+04
   6.12500000E+02   5.00000000E-01   5.00000000E-01  -5.15760401E+04   4.76125334E+03   0.00000000E+00   1.50504437E+04   3.96328155E+03   1.20591129E+03   7.19372706E+00   0.00000000E+00   0.00000000E+00   0.00000000E+00   0.00000000E+00   0.00000000E+00   0.00000000E+00   1.33031464E+03   2.24944437E+03   0.00000000E+00   0.00000000E+00   0.00000000E+00   0.00000000E+00   1.99767614E+04
   6.47500000E+02   5.00000000E-01   5.00000000E-01  -5.15762700E+04   4.76125334E+03   0.00000000E+00   1.50505864E+04   3.96363007E+03   1.20591290E+03   7.19372706E+00   0.00000000E+00   0.00000000E+00   0.00000000E+00   0.00000000E+00   0.00000000E+00   0.00000000E+00   1.33025566E+03   2.24979280E+03   0.00000000E+00   0.00000000E+00   0.00000000E+00   0.00000000E+00   1.99766408E+04
   6.82500000E+02   5.00000000E-01   5.00000000E-01  -5.15765023E+04   4.76125334E+03   0.00000000E+00   1.50507306E+04   3.96349961E+03   1.20591459E+03   7.19372706E+00   0.00000000E+00   0.00000000E+00   0.00000000E+00   0.00000000E+00   0.00000000E+00   0.00000000E+00   1.33019596E+03   2.24966224E+03   0.00000000E+00   0.00000000E+00   0.00000000E+00   0.00000000E+00   1.99765196E+04
   7.17500000E+02   5.00000000E-01   5.00000000E-01  -5.15767354E+04   4.76125334E+03   0.00000000E+00   1.50508753E+04   3.96301206E+03   1.20591636E+03   7.19372706E+00   0.00000000E+00   0.00000000E+00   0.00000000E+00   0.00000000E+00   0.00000000E+00   0.00000000E+00   1.33013581E+03   2.24917457E+03   0.00000000E+00   0.00000000E+00   0.00000000E+00   0.00000000E+00   1.99763977E+04
   7.52500000E+02   5.00000000E-01   5.00000000E-01  -5.15769671E+04   4.76125334E+03   0.00000000E+00   1.50510194E+04   3.96225902E+03   1.20591820E+03   7.19372706E+00   0.00000000E+00   0.00000000E+00   0.00000000E+00   0.00000000E+00   0.00000000E+00   0.00000000E+00   1.33007546E+03   2.24842141E+03   0.00000000E+00   0.00000000E+00   0.00000000E+00   0.00000000E+00   1.99762748E+04
   7.87500000E+02   5.00000000E-01   5.00000000E-01  -5.15771955E+04   4.76125334E+03   0.00000000E+00   1.50511617E+04   3.96130932E+03   1.20592012E+03   7.19372705E+00   0.00000000E+00   0.00000000E+00   0.00000000E+00   0.00000000E+00   0.00000000E+00   0.00000000E+00   1.33001521E+03   2.24747157E+03   0.00000000E+00   0.00000000E+00   0.00000000E+00   0.00000000E+00   1.99761509E+04
   8.22500000E+02   5.00000000E-01   5.00000000E-01  -5.15774182E+04   4.76125334E+03   0.00000000E+00   1.50513008E+04   3.96021466E+03   1.20592211E+03   7.19372705E+00   0.00000000E+00   0.00000000E+00   0.00000000E+00   0.00000000E+00   0.00000000E+00   0.00000000E+00   1.32995535E+03   2.24637678E+03   0.00000000E+00   0.00000000E+00   0.00000000E+00   0.00000000E+00   1.99760256E+04
   8.57500000E+02   5.00000000E-01   5.00000000E-01  -5.15776329E+04   4.76125334E+03   0.00000000E+00   1.50514355E+04   3.95901402E+03   1.20592418E+03   7.19372704E+00   0.00000000E+00   0.00000000E+00   0.00000000E+00   0.00000000E+00   0.00000000E+00   0.00000000E+00   1.32989620E+03   2.24517599E+03   0.00000000E+00   0.00000000E+00   0.00000000E+00   0.00000000E+00   1.99758989E+04
   8.92500000E+02   5.00000000E-01   5.00000000E-01  -5.15778371E+04   4.76125334E+03   0.00000000E+00   1.50515644E+04   3.95773687E+03   1.20592633E+03   7.19372703E+00   0.00000000E+00   0.00000000E+00   0.00000000E+00   0.00000000E+00   0.00000000E+00   0.00000000E+00   1.32983805E+03   2.24389870E+03   0.00000000E+00   0.00000000E+00   0.00000000E+00   0.00000000E+00   1.99757706E+04
   9.27500000E+02   5.00000000E-01   5.00000000E-01  -5.15780284E+04   4.76125334E+03   0.00000000E+00   1.50516861E+04   3.95640563E+03   1.20592855E+03   7.19372702E+00   0.00000000E+00   0.00000000E+00   0.00000000E+00   0.00000000E+00   0.00000000E+00   0.00000000E+00   1.32978122E+03   2.24256732E+03   0.00000000E+00   0.00000000E+00   0.00000000E+00   0.00000000E+00   1.99756404E+04
   9.62500000E+02   5.00000000E-01   5.00000000E-01  -5.15782046E+04   4.76125334E+03   0.00000000E+00   1.50517994E+04   3.95503751E+03   1.20593084E+03   7.19372701E+00   0.00000000E+00   0.00000000E+00   0.00000000E+00   0.00000000E+00   0.00000000E+00   0.00000000E+00   1.32972600E+03   2.24119904E+03   0.00000000E+00   0.00000000E+00   0.00000000E+00   0.00000000E+00   1.99755082E+04
   9.97500000E+02   5.00000000E-01   5.00000000E-01  -5.15783633E+04   4.76125334E+03   0.00000000E+00   1.50519029E+04   3.95364577E+03   1.20593321E+03   7.19372699E+00   0.00000000E+00   0.00000000E+00   0.00000000E+00   0.00000000E+00   0.00000000E+00   0.00000000E+00   1.32967266E+03   2.23980715E+03   0.00000000E+00   0.00000000E+00   0.00000000E+00   0.00000000E+00   1.99753740E+04
   1.03250000E+03   5.00000000E-01   5.00000000E-01  -5.15785026E+04   4.76125334E+03   0.00000000E+00   1.50519956E+04   3.95224072E+03   1.20593565E+03   7.19372696E+00   0.00000000E+00   0.00000000E+00   0.00000000E+00   0.00000000E+00   0.00000000E+00   0.00000000E+00   1.32962146E+03   2.23840194E+03   0.00000000E+00   0.00000000E+00   0.00000000E+00   0.00000000E+00   1.99752375E+04
   1.06750000E+03   5.00000000E-01   5.00000000E-01  -5.15786207E+04   4.76125334E+03   0.00000000E+00   1.50520763E+04   3.95083044E+03   1.20593815E+03   7.19372693E+00   0.00000000E+00   0.00000000E+00   0.00000000E+00   0.00000000E+00   0.00000000E+00   0.00000000E+00   1.32957261E+03   2.23699150E+03   0.00000000E+00   0.00000000E+00   0.00000000E+00   0.00000000E+00   1.99750987E+04
   1.10250000E+03   5.00000000E-01   5.00000000E-01  -5.15787160E+04   4.76125334E+03   0.00000000E+00   1.50521444E+04   3.94942128E+03   1.20594072E+03   7.19372689E+00   0.00000000E+00   0.00000000E+00   0.00000000E+00   0.00000000E+00   0.00000000E+00   0.00000000E+00   1.32952632E+03   2.23558218E+03   0.00000000E+00   0.00000000E+00   0.00000000E+00   0.00000000E+00   1.99749577E+04
   1.13750000E+03   5.00000000E-01   5.00000000E-01  -5.15787874E+04   4.76125334E+03   0.00000000E+00   1.50521991E+04   3.94801823E+03   1.20594335E+03   7.19372684E+00   0.00000000E+00   0.00000000E+00   0.00000000E+00   0.00000000E+00   0.00000000E+00   0.00000000E+00   1.32948273E+03   2.23417898E+03   0.00000000E+00   0.00000000E+00   0.00000000E+00   0.00000000E+00   1.99748144E+04
   1.17250000E+03   5.00000000E-01   5.00000000E-01  -5.15788340E+04   4.76125334E+03   0.00000000E+00   1.50522400E+04   3.94662523E+03   1.20594603E+03   7.19372676E+00   0.00000000E+00   0.00000000E+00   0.00000000E+00   0.00000000E+00   0.00000000E+00   0.00000000E+00   1.32944196E+03   2.23278581E+03   0.00000000E+00   0.00000000E+00   0.00000000E+00   0.00000000E+00   1.99746689E+04
   1.20750000E+03   5.00000000E-01   5.00000000E-01  -5.15788556E+04   4.76125334E+03   0.00000000E+00   1.50522668E+04   3.94524533E+03   1.20594877E+03   7.19372667E+00   0.00000000E+00   0.00000000E+00   0.00000000E+00   0.00000000E+00   0.00000000E+00   0.00000000E+00   1.32940407E+03   2.23140575E+03   0.00000000E+00   0.00000000E+00   0.00000000E+00   0.00000000E+00   1.99745214E+04
   1.24250000E+03   5.00000000E-01   5.00000000E-01  -5.15788520E+04   4.76125334E+03   0.00000000E+00   1.50522796E+04   3.94388088E+03   1.20595155E+03   7.19372655E+00   0.00000000E+00   0.00000000E+00   0.00000000E+00   0.00000000E+00   0.00000000E+00   0.00000000E+00   1.32936911E+03   2.23004114E+03   0.00000000E+00   0.00000000E+00   0.00000000E+00   0.00000000E+00   1.99743721E+04
   1.27750000E+03   5.00000000E-01   5.00000000E-01  -5.15788237E+04   4.76125334E+03   0.00000000E+00   1.50522785E+04   3.94253364E+03   1.20595438E+03   7.19372638E+00   0.00000000E+00   0.00000000E+00   0.00000000E+00   0.00000000E+00   0.00000000E+00   0.00000000E+00   1.32933704E+03   2.22869375E+03   0.00000000E+00   0.00000000E+00   0.00000000E+00   0.00000000E+00   1.99742213E+04
   1.31250000E+03   5.00000000E-01   5.00000000E-01  -5.15787715E+04   4.76125334E+03   0.00000000E+00   1.50522640E+04   3.94120489E+03   1.20595724E+03   7.19372618E+00   0.00000000E+00   0.00000000E+00   0.00000000E+00   0.00000000E+00   0.00000000E+00   0.00000000E+00   1.32930783E+03   2.22736485E+03   0.00000000E+00   0.00000000E+00   0.00000000E+00   0.00000000E+00   1.99740692E+04
   1.34750000E+03   5.00000000E-01   5.00000000E-01  -5.15786966E+04   4.76125334E+03   0.00000000E+00   1.50522367E+04   3.93989548E+03   1.20596013E+03   7.19372591E+00   0.00000000E+00   0.00000000E+00   0.00000000E+00   0.00000000E+00   0.00000000E+00   0.00000000E+00   1.32928138E+03   2.22605529E+03   0.00000000E+00   0.00000000E+00   0.00000000E+00   0.00000000E+00   1.99739162E+04
   1.38250000E+03   5.00000000E-01   5.00000000E-01  -5.15786003E+04   4.76125334E+03   0.00000000E+00   1.50521974E+04   3.93860591E+03   1.20596305E+03   7.19372557E+00   0.00000000E+00   0.00000000E+00   0.00000000E+00   0.00000000E+00   0.00000000E+00   0.00000000E+00   1.32925757E+03   2.22476557E+03   0.00000000E+00   0.00000000E+00   0.00000000E+00   0.00000000E+00   1.99737626E+04
   1.41750000E+03   5.00000000E-01   5.00000000E-01  -5.15784846E+04   4.76125334E+03   0.00000000E+00   1.50521471E+04   3.93733639E+03   1.20596598E+03   7.19372514E+00   0.00000000E+00   0.00000000E+00   0.00000000E+00   0.00000000E+00   0.00000000E+00   0.00000000E+00   1.32923625E+03   2.22349590E+03   0.00000000E+00   0.00000000E+00   0.00000000E+00   0.00000000E+00   1.99736090E+04
   1.45250000E+03   5.00000000E-01   5.00000000E-01  -5.15783512E+04   4.76125334E+03   0.00000000E+00   1.50520869E+04   3.93608686E+03   1.20596893E+03   7.19372459E+00   0.00000000E+00   0.00000000E+00   0.00000000E+00   0.00000000E+00   0.00000000E+00   0.00000000E+00   1.32921724E+03   2.22224624E+03   0.00000000E+00   0.00000000E+00   0.00000000E+00   0.00000000E+00   1.99734556E+04
   1.48750000E+03   5.00000000E-01   5.00000000E-01  -5.15782025E+04   4.76125334E+03   0.00000000E+00   1.50520178E+04   3.93485708E+03   1.20597188E+03   7.19372389E+00   0.00000000E+00   0.00000000E+00   0.00000000E+00   0.00000000E+00   0.00000000E+00   0.00000000E+00   1.32920035E+03   2.22101633E+03   0.00000000E+00   0.00000000E+00   0.00000000E+00   0.00000000E+00   1.99733030E+04
   1.52250000E+03   5.00000000E-01   5.00000000E-01  -5.15780405E+04   4.76125334E+03   0.00000000E+00   1.50519413E+04   3.93364661E+03   1.20597484E+03   7.19372301E+00   0.00000000E+00   0.00000000E+00   0.00000000E+00   0.00000000E+00   0.00000000E+00   0.00000000E+00   1.32918539E+03   2.21980573E+03   0.00000000E+00   0.00000000E+00   0.00000000E+00   0.00000000E+00   1.99731515E+04
   1.55750000E+03   5.00000000E-01   5.00000000E-01  -5.15778677E+04   4.76125334E+03   0.00000000E+00   1.50518584E+04   3.93245488E+03   1.20597780E+03   7.19372190E+00   0.00000000E+00   0.00000000E+00   0.00000000E+00   0.00000000E+00   0.00000000E+00   0.00000000E+00   1.32917215E+03   2.21861387E+03   0.00000000E+00   0.00000000E+00   0.00000000E+00   0.00000000E+00   1.99730015E+04
   1.59250000E+03   5.00000000E-01   5.00000000E-01  -5.15776862E+04   4.76125334E+03   0.00000000E+00   1.50517704E+04   3.93128121E+03   1.20598074E+03   7.19372050E+00   0.00000000E+00   0.00000000E+00   0.00000000E+00   0.00000000E+00   0.00000000E+00   0.00000000E+00   1.32916043E+03   2.21744008E+03   0.00000000E+00   0.00000000E+00   0.00000000E+00   0.00000000E+00   1.99728534E+04
   1.62750000E+03   5.00000000E-01   5.00000000E-01  -5.15774983E+04   4.76125334E+03   0.00000000E+00   1.50516786E+04   3.93012483E+03   1.20598368E+03   7.19371875E+00   0.00000000E+00   0.00000000E+00   0.00000000E+00   0.00000000E+00   0.00000000E+00   0.00000000E+00   1.32915003E+03   2.21628359E+03   0.00000000E+00   0.00000000E+00   0.00000000E+00   0.00000000E+00   1.99727075E+04
   1.66250000E+03   5.00000000E-01   5.00000000E-01  -5.15773061E+04   4.76125334E+03   0.00000000E+00   1.50515841E+04   3.92898493E+03   1.20598660E+03   7.19371657E+00   0.00000000E+00   0.00000000E+00   0.00000000E+00   0.00000000E+00   0.00000000E+00   0.00000000E+00   1.32914076E+03   2.21514358E+03   0.00000000E+00   0.00000000E+00   0.00000000E+00   0.00000000E+00   1.99725641E+04
   1.69750000E+03   5.00000000E-01   5.00000000E-01  -5.15771114E+04   4.76125334E+03   0.00000000E+00   1.50514880E+04   3.92786067E+03   1.20598950E+03   7.19371393E+00   0.00000000E+00   0.00000000E+00   0.00000000E+00   0.00000000E+00   0.00000000E+00   0.00000000E+00   1.32913246E+03   2.21401922E+03   0.00000000E+00   0.00000000E+00   0.00000000E+00   0.00000000E+00   1.99724234E+04
   1.73250000E+03   5.00000000E-01   5.00000000E-01  -5.15769161E+04   4.76125334E+03   0.00000000E+00   1.50513911E+04   3.92675121E+03   1.20599238E+03   7.19371078E+00   0.00000000E+00   0.00000000E+00   0.00000000E+00   0.00000000E+00   0.00000000E+00   0.00000000E+00   1.32912497E+03   2.21290966E+03   0.00000000E+00   0.00000000E+00   0.00000000E+00   0.00000000E+00   1.99722858E+04
   1.76750000E+03   5.00000000E-01   5.00000000E-01  -5.15767218E+04   4.76125334E+03   0.00000000E+00   1.50512944E+04   3.92565572E+03   1.20599524E+03   7.19370708E+00   0.00000000E+00   0.00000000E+00   0.00000000E+00   0.00000000E+00   0.00000000E+00   0.00000000E+00   1.32911817E+03   2.21181407E+03   0.00000000E+00   0.00000000E+00   0.00000000E+00   0.00000000E+00   1.99721514E+04
   1.80250000E+03   5.00000000E-01   5.00000000E-01  -5.15765299E+04   4.76125334E+03   0.00000000E+00   1.50511986E+04   3.92457343E+03   1.20599808E+03   7.19370276E+00   0.00000000E+00   0.00000000E+00   0.00000000E+00   0.00000000E+00   0.00000000E+00   0.00000000E+00   1.32911193E+03   2.21073168E+03   0.00000000E+00   0.00000000E+00   0.00000000E+00   0.00000000E+00   1.99720204E+04
   1.83750000E+03   5.00000000E-01   5.00000000E-01  -5.15763416E+04   4.76125334E+03   0.00000000E+00   1.50511044E+04   3.92350362E+03   1.20600090E+03   7.19369771E+00   0.00000000E+00   0.00000000E+00   0.00000000E+00   0.00000000E+00   0.00000000E+00   0.00000000E+00   1.32910617E+03   2.20966179E+03   0.00000000E+00   0.00000000E+00   0.00000000E+00   0.00000000E+00   1.99718929E+04
   1.87250000E+03   5.00000000E-01   5.00000000E-01  -5.15761579E+04   4.76125333E+03   0.00000000E+00   1.50510124E+04   3.92244569E+03   1.20600369E+03   7.19369177E+00   0.00000000E+00   0.00000000E+00   0.00000000E+00   0.00000000E+00   0.00000000E+00   0.00000000E+00   1.32910083E+03   2.20860377E+03   0.00000000E+00   0.00000000E+00   0.00000000E+00   0.00000000E+00   1.99717691E+04
   1.90750000E+03   5.00000000E-01   5.00000000E-01  -5.15759797E+04   4.76125333E+03   0.00000000E+00   1.50509229E+04   3.92139913E+03   1.20600647E+03   7.19368475E+00   0.00000000E+00   0.00000000E+00   0.00000000E+00   0.00000000E+00   0.00000000E+00   0.00000000E+00   1.32909586E+03   2.20755712E+03   0.00000000E+00   0.00000000E+00   0.00000000E+00   0.00000000E+00   1.99716490E+04
   1.94250000E+03   5.00000000E-01   5.00000000E-01  -5.15758076E+04   4.76125333E+03   0.00000000E+00   1.50508363E+04   3.92036357E+03   1.20600924E+03   7.19367651E+00   0.00000000E+00   0.00000000E+00   0.00000000E+00   0.00000000E+00   0.00000000E+00   0.00000000E+00   1.32909122E+03   2.20652147E+03   0.00000000E+00   0.00000000E+00   0.00000000E+00   0.00000000E+00   1.99715329E+04
   1.97750000E+03   5.00000000E-01   5.00000000E-01  -5.15756421E+04   4.76125333E+03   0.00000000E+00   1.50507529E+04   3.91933877E+03   1.20601200E+03   7.19366707E+00   0.00000000E+00   0.00000000E+00   0.00000000E+00   0.00000000E+00   0.00000000E+00   0.00000000E+00   1.32908693E+03   2.20549659E+03   0.00000000E+00   0.00000000E+00   0.00000000E+00   0.00000000E+00   1.99714207E+04
   2.01250000E+03   5.00000000E-01   5.00000000E-01  -5.15754836E+04   4.76125333E+03   0.00000000E+00   1.50506728E+04   3.91832467E+03   1.20601477E+03   7.19365666E+00   0.00000000E+00   0.00000000E+00   0.00000000E+00   0.00000000E+00   0.00000000E+00   0.00000000E+00   1.32908298E+03   2.20448241E+03   0.00000000E+00   0.00000000E+00   0.00000000E+00   0.00000000E+00   1.99713126E+04
   2.04750000E+03   5.00000000E-01   5.00000000E-01  -5.15753323E+04   4.76125333E+03   0.00000000E+00   1.50505961E+04   3.91732139E+03   1.20601755E+03   7.19364561E+00   0.00000000E+00   0.00000000E+00   0.00000000E+00   0.00000000E+00   0.00000000E+00   0.00000000E+00   1.32907940E+03   2.20347904E+03   0.00000000E+00   0.00000000E+00   0.00000000E+00   0.00000000E+00   1.99712088E+04
   2.08250000E+03   5.00000000E-01   5.00000000E-01  -5.15751884E+04   4.76125333E+03   0.00000000E+00   1.50505228E+04   3.91632919E+03   1.20602035E+03   7.19363430E+00   0.00000000E+00   0.00000000E+00   0.00000000E+00   0.00000000E+00   0.00000000E+00   0.00000000E+00   1.32907626E+03   2.20248676E+03   0.00000000E+00   0.00000000E+00   0.00000000E+00   0.00000000E+00   1.99711092E+04
   2.11750000E+03   5.00000000E-01   5.00000000E-01  -5.15750519E+04   4.76125333E+03   0.00000000E+00   1.50504530E+04   3.91534856E+03   1.20602320E+03   7.19362304E+00   0.00000000E+00   0.00000000E+00   0.00000000E+00   0.00000000E+00   0.00000000E+00   0.00000000E+00   1.32907359E+03   2.20150604E+03   0.00000000E+00   0.00000000E+00   0.00000000E+00   0.00000000E+00   1.99710141E+04
   2.15250000E+03   5.00000000E-01   5.00000000E-01  -5.15749227E+04   4.76125333E+03   0.00000000E+00   1.50503865E+04   3.91438014E+03   1.20602611E+03   7.19361203E+00   0.00000000E+00   0.00000000E+00   0.00000000E+00   0.00000000E+00   0.00000000E+00   0.00000000E+00   1.32907148E+03   2.20053752E+03   0.00000000E+00   0.00000000E+00   0.00000000E+00   0.00000000E+00   1.99709235E+04
   2.18750000E+03   5.00000000E-01   5.00000000E-01  -5.15748008E+04   4.76125333E+03   0.00000000E+00   1.50503232E+04   3.91342474E+03   1.20602910E+03   7.19360142E+00   0.00000000E+00   0.00000000E+00   0.00000000E+00   0.00000000E+00   0.00000000E+00   0.00000000E+00   1.32907002E+03   2.19958203E+03   0.00000000E+00   0.00000000E+00   0.00000000E+00   0.00000000E+00   1.99708376E+04
   2.22250000E+03   5.00000000E-01   5.00000000E-01  -5.15746859E+04   4.76125333E+03   0.00000000E+00   1.50502629E+04   3.91248333E+03   1.20603219E+03   7.19359129E+00   0.00000000E+00   0.00000000E+00   0.00000000E+00   0.00000000E+00   0.00000000E+00   0.00000000E+00   1.32906931E+03   2.19864052E+03   0.00000000E+00   0.00000000E+00   0.00000000E+00   0.00000000E+00   1.99707565E+04
   2.25750000E+03   5.00000000E-01   5.00000000E-01  -5.15745780E+04   4.76125333E+03   0.00000000E+00   1.50502056E+04   3.91155701E+03   1.20603543E+03   7.19358157E+00   0.00000000E+00   0.00000000E+00   0.00000000E+00   0.00000000E+00   0.00000000E+00   0.00000000E+00   1.32906946E+03   2.19771411E+03   0.00000000E+00   0.00000000E+00   0.00000000E+00   0.00000000E+00   1.99706804E+04
   2.29250000E+03   5.00000000E-01   5.00000000E-01  -5.15744767E+04   4.76125332E+03   0.00000000E+00   1.50501509E+04   3.91064700E+03   1.20603883E+03   7.19357190E+00   0.00000000E+00   0.00000000E+00   0.00000000E+00   0.00000000E+00   0.00000000E+00   0.00000000E+00   1.32907059E+03   2.19680401E+03   0.00000000E+00   0.00000000E+00   0.00000000E+00   0.00000000E+00   1.99706095E+04
   2.32750000E+03   5.00000000E-01   5.00000000E-01  -5.15743818E+04   4.76125332E+03   0.00000000E+00   1.50500986E+04   3.90975460E+03   1.20604245E+03   7.19356171E+00   0.00000000E+00   0.00000000E+00   0.00000000E+00   0.00000000E+00   0.00000000E+00   0.00000000E+00   1.32907286E+03   2.19591152E+03   0.00000000E+00   0.00000000E+00   0.00000000E+00   0.00000000E+00   1.99705441E+04
   2.36250000E+03   5.00000000E-01   5.00000000E-01  -5.15742930E+04   4.76125332E+03   0.00000000E+00   1.50500485E+04   3.90888113E+03   1.20604634E+03   7.19355048E+00   0.00000000E+00   0.00000000E+00   0.00000000E+00   0.00000000E+00   0.00000000E+00   0.00000000E+00   1.32907640E+03   2.19503797E+03   0.00000000E+00   0.00000000E+00   0.00000000E+00   0.00000000E+00   1.99704845E+04
   2.39750000E+03   5.00000000E-01   5.00000000E-01  -5.15742099E+04   4.76125332E+03   0.00000000E+00   1.50500002E+04   3.90802796E+03   1.20605054E+03   7.19353807E+00   0.00000000E+00   0.00000000E+00   0.00000000E+00   0.00000000E+00   0.00000000E+00   0.00000000E+00   1.32908140E+03   2.19418473E+03   0.00000000E+00   0.00000000E+00   0.00000000E+00   0.00000000E+00   1.99704310E+04
   2.43250000E+03   5.00000000E-01   5.00000000E-01  -5.15741324E+04   4.76125332E+03   0.00000000E+00   1.50499535E+04   3.90719641E+03   1.20605514E+03   7.19352491E+00   0.00000000E+00   0.00000000E+00   0.00000000E+00   0.00000000E+00   0.00000000E+00   0.00000000E+00   1.32908804E+03   2.19335312E+03   0.00000000E+00   0.00000000E+00   0.00000000E+00   0.00000000E+00   1.99703840E+04
   2.46750000E+03   5.00000000E-01   5.00000000E-01  -5.15740599E+04   4.76125332E+03   0.00000000E+00   1.50499079E+04   3.90638774E+03   1.20606021E+03   7.19351202E+00   0.00000000E+00   0.00000000E+00   0.00000000E+00   0.00000000E+00   0.00000000E+00   0.00000000E+00   1.32909654E+03   2.19254439E+03   0.00000000E+00   0.00000000E+00   0.00000000E+00   0.00000000E+00   1.99703439E+04
   2.50250000E+03   5.00000000E-01   5.00000000E-01  -5.15739921E+04   4.76125331E+03   0.00000000E+00   1.50498630E+04   3.90560313E+03   1.20606585E+03   7.19350080E+00   0.00000000E+00   0.00000000E+00   0.00000000E+00   0.00000000E+00   0.00000000E+00   0.00000000E+00   1.32910713E+03   2.19175973E+03   0.00000000E+00   0.00000000E+00   0.00000000E+00   0.00000000E+00   1.99703112E+04
   2.53750000E+03   5.00000000E-01   5.00000000E-01  -5.15739287E+04   4.76125331E+03   0.00000000E+00   1.50498185E+04   3.90484363E+03   1.20607218E+03   7.19349269E+00   0.00000000E+00   0.00000000E+00   0.00000000E+00   0.00000000E+00   0.00000000E+00   0.00000000E+00   1.32912008E+03   2.19100016E+03   0.00000000E+00   0.00000000E+00   0.00000000E+00   0.00000000E+00   1.99702867E+04
   2.57250000E+03   5.00000000E-01   5.00000000E-01  -5.15738692E+04   4.76125331E+03   0.00000000E+00   1.50497737E+04   3.90411014E+03   1.20607936E+03   7.19348890E+00   0.00000000E+00   0.00000000E+00   0.00000000E+00   0.00000000E+00   0.00000000E+00   0.00000000E+00   1.32913568E+03   2.19026659E+03   0.00000000E+00   0.00000000E+00   0.00000000E+00   0.00000000E+00   1.99702710E+04
   2.60750000E+03   5.00000000E-01   5.00000000E-01  -5.15738134E+04   4.76125331E+03   0.00000000E+00   1.50497281E+04   3.90340340E+03   1.20608758E+03   7.19349015E+00   0.00000000E+00   0.00000000E+00   0.00000000E+00   0.00000000E+00   0.00000000E+00   0.00000000E+00   1.32915430E+03   2.18955973E+03   0.00000000E+00   0.00000000E+00   0.00000000E+00   0.00000000E+00   1.99702650E+04