 TITLE = "Total Component Concentration in Minerals" 
VARIABLES = "X"          "Y"              "Z"            "H+"             "Al+++"          "CO2(aq)"        "Mg++"           "Ca++"           "Fe++"           "Fe+++"          "Ba++"           "Sr++"           "Cl-"            "F-"             "K+"             "Na+"            "SO4--"          "O2(aq)"         "B(OH)3(aq)"     "HPO4--"         "NO3-"           "H4SiO4(aq)"    
 ZONE I=         100 , J=           1 , K=           1  F=POINT
   1.75000000E+01   5.00000000E-01   5.00000000E-01  -5.31540029E+04   2.29395687E+03   0.00000000E+00   1.95434999E+04   6.15889196E+02   2.19961550E+03   7.19372705E+00   0.00000000E+00   0.00000000E+00   0.00000000E+00   0.00000000E+00   4.54080508E+00   1.52800115E+03   0.00000000E+00   0.00000000E+00   0.00000000E+00   0.00000000E+00   0.00000000E+00   1.93367042E+04
   5.25000000E+01   5.00000000E-01   5.00000000E-01  -5.31235430E+04   2.29394578E+03   0.00000000E+00   1.95252148E+04   6.65807649E+02   2.19961588E+03   7.19372706E+00   0.00000000E+00   0.00000000E+00   0.00000000E+00   0.00000000E+00   5.20478795E+00   1.53347808E+03   4.99174736E+01   0.00000000E+00   0.00000000E+00   0.00000000E+00   0.00000000E+00   1.93445099E+04
   8.75000000E+01   5.00000000E-01   5.00000000E-01  -5.31214463E+04   2.29394578E+03   0.00000000E+00   1.95230038E+04   2.70891957E+03   2.19961640E+03   7.19372704E+00   0.00000000E+00   0.00000000E+00   0.00000000E+00   0.00000000E+00   4.95844718E+00   1.53604747E+03   2.09302887E+03   0.00000000E+00   0.00000000E+00   0.00000000E+00   0.00000000E+00   1.93519636E+04
   1.22500000E+02   5.00000000E-01   5.00000000E-01  -5.31211448E+04   2.29394578E+03   0.00000000E+00   1.95222996E+04   4.54522092E+03   2.19961708E+03   7.19372704E+00   0.00000000E+00   0.00000000E+00   0.00000000E+00   0.00000000E+00   4.75185119E+00   1.53735921E+03   3.92933002E+03   0.00000000E+00   0.00000000E+00   0.00000000E+00   0.00000000E+00   1.93556440E+04
   1.57500000E+02   5.00000000E-01   5.00000000E-01  -5.31213221E+04   2.29394578E+03   0.00000000E+00   1.95221098E+04   5.12474944E+03   2.19961791E+03   7.19372703E+00   0.00000000E+00   0.00000000E+00   0.00000000E+00   0.00000000E+00   4.62654571E+00   1.53803956E+03   4.50885841E+03   0.00000000E+00   0.00000000E+00   0.00000000E+00   0.00000000E+00   1.93576348E+04
   1.92500000E+02   5.00000000E-01   5.00000000E-01  -5.31217507E+04   2.29394578E+03   0.00000000E+00   1.95221921E+04   5.26625401E+03   2.19961887E+03   7.19372702E+00   0.00000000E+00   0.00000000E+00   0.00000000E+00   0.00000000E+00   4.56008278E+00   1.53836793E+03   4.65036288E+03   0.00000000E+00   0.00000000E+00   0.00000000E+00   0.00000000E+00   1.93587817E+04
   2.27500000E+02   5.00000000E-01   5.00000000E-01  -5.31223476E+04   2.29394578E+03   0.00000000E+00   1.95224449E+04   5.30089290E+03   2.19961995E+03   7.19372701E+00   0.00000000E+00   0.00000000E+00   0.00000000E+00   0.00000000E+00   4.53275650E+00   1.53848422E+03   4.68500168E+03   0.00000000E+00   0.00000000E+00   0.00000000E+00   0.00000000E+00   1.93594614E+04
   2.62500000E+02   5.00000000E-01   5.00000000E-01  -5.31230677E+04   2.29394578E+03   0.00000000E+00   1.95228137E+04   5.31040173E+03   2.19962114E+03   7.19372700E+00   0.00000000E+00   0.00000000E+00   0.00000000E+00   0.00000000E+00   4.53131457E+00   1.53846565E+03   4.69451039E+03   0.00000000E+00   0.00000000E+00   0.00000000E+00   0.00000000E+00   1.93598630E+04
   2.97500000E+02   5.00000000E-01   5.00000000E-01  -5.31238852E+04   2.29394578E+03   0.00000000E+00   1.95232671E+04   5.31339995E+03   2.19962241E+03   7.19372700E+00   0.00000000E+00   0.00000000E+00   0.00000000E+00   0.00000000E+00   4.54711577E+00   1.53835768E+03   4.69750851E+03   0.00000000E+00   0.00000000E+00   0.00000000E+00   0.00000000E+00   1.93600918E+04
   3.32500000E+02   5.00000000E-01   5.00000000E-01  -5.31247842E+04   2.29394578E+03   0.00000000E+00   1.95237861E+04   5.31413201E+03   2.19962377E+03   7.19372699E+00   0.00000000E+00   0.00000000E+00   0.00000000E+00   0.00000000E+00   4.57449631E+00   1.53818833E+03   4.69824046E+03   0.00000000E+00   0.00000000E+00   0.00000000E+00   0.00000000E+00   1.93602100E+04
   3.67500000E+02   5.00000000E-01   5.00000000E-01  -5.31257544E+04   2.29394578E+03   0.00000000E+00   1.95243585E+04   5.31360132E+03   2.19962520E+03   7.19372698E+00   0.00000000E+00   0.00000000E+00   0.00000000E+00   0.00000000E+00   4.60968710E+00   1.53797552E+03   4.69770967E+03   0.00000000E+00   0.00000000E+00   0.00000000E+00   0.00000000E+00   1.93602560E+04
   4.02500000E+02   5.00000000E-01   5.00000000E-01  -5.31267883E+04   2.29394577E+03   0.00000000E+00   1.95249759E+04   5.31209356E+03   2.19962669E+03   7.19372696E+00   0.00000000E+00   0.00000000E+00   0.00000000E+00   0.00000000E+00   4.65012826E+00   1.53773107E+03   4.69620181E+03   0.00000000E+00   0.00000000E+00   0.00000000E+00   0.00000000E+00   1.93602542E+04
   4.37500000E+02   5.00000000E-01   5.00000000E-01  -5.31278795E+04   2.29394577E+03   0.00000000E+00   1.95256319E+04   5.30973722E+03   2.19962824E+03   7.19372695E+00   0.00000000E+00   0.00000000E+00   0.00000000E+00   0.00000000E+00   4.69404202E+00   1.53746307E+03   4.69384537E+03   0.00000000E+00   0.00000000E+00   0.00000000E+00   0.00000000E+00   1.93602202E+04
   4.72500000E+02   5.00000000E-01   5.00000000E-01  -5.31290219E+04   2.29394577E+03   0.00000000E+00   1.95263212E+04   5.30662519E+03   2.19962984E+03   7.19372694E+00   0.00000000E+00   0.00000000E+00   0.00000000E+00   0.00000000E+00   4.74015923E+00   1.53717728E+03   4.69073324E+03   0.00000000E+00   0.00000000E+00   0.00000000E+00   0.00000000E+00   1.93601639E+04
   5.07500000E+02   5.00000000E-01   5.00000000E-01  -5.31302091E+04   2.29394577E+03   0.00000000E+00   1.95270391E+04   5.30284029E+03   2.19963147E+03   7.19372693E+00   0.00000000E+00   0.00000000E+00   0.00000000E+00   0.00000000E+00   4.78752164E+00   1.53687797E+03   4.68694825E+03   0.00000000E+00   0.00000000E+00   0.00000000E+00   0.00000000E+00   1.93600914E+04
   5.42500000E+02   5.00000000E-01   5.00000000E-01  -5.31314342E+04   2.29394577E+03   0.00000000E+00   1.95277806E+04   5.29846020E+03   2.19963314E+03   7.19372691E+00   0.00000000E+00   0.00000000E+00   0.00000000E+00   0.00000000E+00   4.83540673E+00   1.53656852E+03   4.68256807E+03   0.00000000E+00   0.00000000E+00   0.00000000E+00   0.00000000E+00   1.93600065E+04
   5.77500000E+02   5.00000000E-01   5.00000000E-01  -5.31326892E+04   2.29394577E+03   0.00000000E+00   1.95285408E+04   5.29355815E+03   2.19963483E+03   7.19372691E+00   0.00000000E+00   0.00000000E+00   0.00000000E+00   0.00000000E+00   4.88324726E+00   1.53625171E+03   4.67766594E+03   0.00000000E+00   0.00000000E+00   0.00000000E+00   0.00000000E+00   1.93599110E+04
   6.12500000E+02   5.00000000E-01   5.00000000E-01  -5.31339652E+04   2.29394577E+03   0.00000000E+00   1.95293143E+04   5.28820290E+03   2.19963654E+03   7.19372690E+00   0.00000000E+00   0.00000000E+00   0.00000000E+00   0.00000000E+00   4.93058865E+00   1.53592998E+03   4.67231061E+03   0.00000000E+00   0.00000000E+00   0.00000000E+00   0.00000000E+00   1.93598055E+04
   6.47500000E+02   5.00000000E-01   5.00000000E-01  -5.31352526E+04   2.29394577E+03   0.00000000E+00   1.95300951E+04   5.28245861E+03   2.19963827E+03   7.19372689E+00   0.00000000E+00   0.00000000E+00   0.00000000E+00   0.00000000E+00   4.97706265E+00   1.53560554E+03   4.66656624E+03   0.00000000E+00   0.00000000E+00   0.00000000E+00   0.00000000E+00   1.93596898E+04
   6.82500000E+02   5.00000000E-01   5.00000000E-01  -5.31365419E+04   2.29394577E+03   0.00000000E+00   1.95308808E+04   5.27638480E+03   2.19964001E+03   7.19372688E+00   0.00000000E+00   0.00000000E+00   0.00000000E+00   0.00000000E+00   5.01914548E+00   1.53527780E+03   4.66049236E+03   0.00000000E+00   0.00000000E+00   0.00000000E+00   0.00000000E+00   1.93595544E+04
   7.17500000E+02   5.00000000E-01   5.00000000E-01  -5.31378216E+04   2.29394576E+03   0.00000000E+00   1.95316626E+04   5.27003641E+03   2.19964175E+03   7.19372686E+00   0.00000000E+00   0.00000000E+00   0.00000000E+00   0.00000000E+00   5.05843835E+00   1.53495101E+03   4.65414390E+03   0.00000000E+00   0.00000000E+00   0.00000000E+00   0.00000000E+00   1.93594056E+04
   7.52500000E+02   5.00000000E-01   5.00000000E-01  -5.31390771E+04   2.29394576E+03   0.00000000E+00   1.95324315E+04   5.26346382E+03   2.19964349E+03   7.19372685E+00   0.00000000E+00   0.00000000E+00   0.00000000E+00   0.00000000E+00   5.09557275E+00   1.53462785E+03   4.64757125E+03   0.00000000E+00   0.00000000E+00   0.00000000E+00   0.00000000E+00   1.93592434E+04
   7.87500000E+02   5.00000000E-01   5.00000000E-01  -5.31402944E+04   2.29394576E+03   0.00000000E+00   1.95331799E+04   5.25671303E+03   2.19964522E+03   7.19372684E+00   0.00000000E+00   0.00000000E+00   0.00000000E+00   0.00000000E+00   5.13044285E+00   1.53431010E+03   4.64082041E+03   0.00000000E+00   0.00000000E+00   0.00000000E+00   0.00000000E+00   1.93590652E+04
   8.22500000E+02   5.00000000E-01   5.00000000E-01  -5.31414596E+04   2.29394576E+03   0.00000000E+00   1.95338998E+04   5.24982583E+03   2.19964692E+03   7.19372683E+00   0.00000000E+00   0.00000000E+00   0.00000000E+00   0.00000000E+00   5.16299121E+00   1.53399949E+03   4.63393316E+03   0.00000000E+00   0.00000000E+00   0.00000000E+00   0.00000000E+00   1.93588687E+04
   8.57500000E+02   5.00000000E-01   5.00000000E-01  -5.31425582E+04   2.29394576E+03   0.00000000E+00   1.95345831E+04   5.24283999E+03   2.19964860E+03   7.19372682E+00   0.00000000E+00   0.00000000E+00   0.00000000E+00   0.00000000E+00   5.19321667E+00   1.53369770E+03   4.62694728E+03   0.00000000E+00   0.00000000E+00   0.00000000E+00   0.00000000E+00   1.93586514E+04
   8.92500000E+02   5.00000000E-01   5.00000000E-01  -5.31435756E+04   2.29394575E+03   0.00000000E+00   1.95352218E+04   5.23578949E+03   2.19965025E+03   7.19372682E+00   0.00000000E+00   0.00000000E+00   0.00000000E+00   0.00000000E+00   5.22117374E+00   1.53340634E+03   4.61989675E+03   0.00000000E+00   0.00000000E+00   0.00000000E+00   0.00000000E+00   1.93584112E+04
   9.27500000E+02   5.00000000E-01   5.00000000E-01  -5.31444978E+04   2.29394575E+03   0.00000000E+00   1.95358081E+04   5.22870475E+03   2.19965185E+03   7.19372682E+00   0.00000000E+00   0.00000000E+00   0.00000000E+00   0.00000000E+00   5.24696950E+00   1.53312695E+03   4.61281197E+03   0.00000000E+00   0.00000000E+00   0.00000000E+00   0.00000000E+00   1.93581459E+04
   9.62500000E+02   5.00000000E-01   5.00000000E-01  -5.31453109E+04   2.29394575E+03   0.00000000E+00   1.95363342E+04   5.22161285E+03   2.19965340E+03   7.19372682E+00   0.00000000E+00   0.00000000E+00   0.00000000E+00   0.00000000E+00   5.27075803E+00   1.53286092E+03   4.60572005E+03   0.00000000E+00   0.00000000E+00   0.00000000E+00   0.00000000E+00   1.93578537E+04
   9.97500000E+02   5.00000000E-01   5.00000000E-01  -5.31460023E+04   2.29394574E+03   0.00000000E+00   1.95367931E+04   5.21453781E+03   2.19965489E+03   7.19372683E+00   0.00000000E+00   0.00000000E+00   0.00000000E+00   0.00000000E+00   5.29273211E+00   1.53260950E+03   4.59864499E+03   0.00000000E+00   0.00000000E+00   0.00000000E+00   0.00000000E+00   1.93575331E+04
   1.03250000E+03   5.00000000E-01   5.00000000E-01  -5.31465606E+04   2.29394574E+03   0.00000000E+00   1.95371785E+04   5.20750077E+03   2.19965631E+03   7.19372684E+00   0.00000000E+00   0.00000000E+00   0.00000000E+00   0.00000000E+00   5.31311316E+00   1.53237379E+03   4.59160793E+03   0.00000000E+00   0.00000000E+00   0.00000000E+00   0.00000000E+00   1.93571828E+04
   1.06750000E+03   5.00000000E-01   5.00000000E-01  -5.31469759E+04   2.29394573E+03   0.00000000E+00   1.95374849E+04   5.20052026E+03   2.19965765E+03   7.19372684E+00   0.00000000E+00   0.00000000E+00   0.00000000E+00   0.00000000E+00   5.33213840E+00   1.53215467E+03   4.58462741E+03   0.00000000E+00   0.00000000E+00   0.00000000E+00   0.00000000E+00   1.93568020E+04
   1.10250000E+03   5.00000000E-01   5.00000000E-01  -5.31472405E+04   2.29394573E+03   0.00000000E+00   1.95377079E+04   5.19361240E+03   2.19965890E+03   7.19372684E+00   0.00000000E+00   0.00000000E+00   0.00000000E+00   0.00000000E+00   5.35004832E+00   1.53195284E+03   4.57771954E+03   0.00000000E+00   0.00000000E+00   0.00000000E+00   0.00000000E+00   1.93563905E+04
   1.13750000E+03   5.00000000E-01   5.00000000E-01  -5.31473489E+04   2.29394573E+03   0.00000000E+00   1.95378444E+04   5.18679111E+03   2.19966005E+03   7.19372685E+00   0.00000000E+00   0.00000000E+00   0.00000000E+00   0.00000000E+00   5.36707226E+00   1.53176875E+03   4.57089824E+03   0.00000000E+00   0.00000000E+00   0.00000000E+00   0.00000000E+00   1.93559485E+04
   1.17250000E+03   5.00000000E-01   5.00000000E-01  -5.31472983E+04   2.29394572E+03   0.00000000E+00   1.95378930E+04   5.18006832E+03   2.19966109E+03   7.19372685E+00   0.00000000E+00   0.00000000E+00   0.00000000E+00   0.00000000E+00   5.38341629E+00   1.53160266E+03   4.56417545E+03   0.00000000E+00   0.00000000E+00   0.00000000E+00   0.00000000E+00   1.93554768E+04
   1.20750000E+03   5.00000000E-01   5.00000000E-01  -5.31470884E+04   2.29394571E+03   0.00000000E+00   1.95378532E+04   5.17345416E+03   2.19966202E+03   7.19372686E+00   0.00000000E+00   0.00000000E+00   0.00000000E+00   0.00000000E+00   5.39925098E+00   1.53145456E+03   4.55756128E+03   0.00000000E+00   0.00000000E+00   0.00000000E+00   0.00000000E+00   1.93549767E+04
   1.24250000E+03   5.00000000E-01   5.00000000E-01  -5.31467221E+04   2.29394571E+03   0.00000000E+00   1.95377267E+04   5.16695709E+03   2.19966284E+03   7.19372686E+00   0.00000000E+00   0.00000000E+00   0.00000000E+00   0.00000000E+00   5.41470330E+00   1.53132421E+03   4.55106422E+03   0.00000000E+00   0.00000000E+00   0.00000000E+00   0.00000000E+00   1.93544502E+04
   1.27750000E+03   5.00000000E-01   5.00000000E-01  -5.31462049E+04   2.29394570E+03   0.00000000E+00   1.95375164E+04   5.16058415E+03   2.19966353E+03   7.19372687E+00   0.00000000E+00   0.00000000E+00   0.00000000E+00   0.00000000E+00   5.42984894E+00   1.53121115E+03   4.54469128E+03   0.00000000E+00   0.00000000E+00   0.00000000E+00   0.00000000E+00   1.93538996E+04
   1.31250000E+03   5.00000000E-01   5.00000000E-01  -5.31455453E+04   2.29394569E+03   0.00000000E+00   1.95372269E+04   5.15434100E+03   2.19966409E+03   7.19372687E+00   0.00000000E+00   0.00000000E+00   0.00000000E+00   0.00000000E+00   5.44471103E+00   1.53111471E+03   4.53844815E+03   0.00000000E+00   0.00000000E+00   0.00000000E+00   0.00000000E+00   1.93533280E+04
   1.34750000E+03   5.00000000E-01   5.00000000E-01  -5.31447540E+04   2.29394569E+03   0.00000000E+00   1.95368639E+04   5.14823216E+03   2.19966452E+03   7.19372687E+00   0.00000000E+00   0.00000000E+00   0.00000000E+00   0.00000000E+00   5.45926049E+00   1.53103401E+03   4.53233932E+03   0.00000000E+00   0.00000000E+00   0.00000000E+00   0.00000000E+00   1.93527388E+04
   1.38250000E+03   5.00000000E-01   5.00000000E-01  -5.31438443E+04   2.29394568E+03   0.00000000E+00   1.95364347E+04   5.14226107E+03   2.19966482E+03   7.19372686E+00   0.00000000E+00   0.00000000E+00   0.00000000E+00   0.00000000E+00   5.47342039E+00   1.53096797E+03   4.52636824E+03   0.00000000E+00   0.00000000E+00   0.00000000E+00   0.00000000E+00   1.93521357E+04
   1.41750000E+03   5.00000000E-01   5.00000000E-01  -5.31428311E+04   2.29394567E+03   0.00000000E+00   1.95359474E+04   5.13643022E+03   2.19966499E+03   7.19372684E+00   0.00000000E+00   0.00000000E+00   0.00000000E+00   0.00000000E+00   5.48707257E+00   1.53091539E+03   4.52053741E+03   0.00000000E+00   0.00000000E+00   0.00000000E+00   0.00000000E+00   1.93515228E+04
   1.45250000E+03   5.00000000E-01   5.00000000E-01  -5.31417307E+04   2.29394566E+03   0.00000000E+00   1.95354109E+04   5.13074127E+03   2.19966504E+03   7.19372682E+00   0.00000000E+00   0.00000000E+00   0.00000000E+00   0.00000000E+00   5.50006646E+00   1.53087494E+03   4.51484848E+03   0.00000000E+00   0.00000000E+00   0.00000000E+00   0.00000000E+00   1.93509042E+04
   1.48750000E+03   5.00000000E-01   5.00000000E-01  -5.31405602E+04   2.29394565E+03   0.00000000E+00   1.95348346E+04   5.12519515E+03   2.19966496E+03   7.19372678E+00   0.00000000E+00   0.00000000E+00   0.00000000E+00   0.00000000E+00   5.51222875E+00   1.53084518E+03   4.50930239E+03   0.00000000E+00   0.00000000E+00   0.00000000E+00   0.00000000E+00   1.93502841E+04
   1.52250000E+03   5.00000000E-01   5.00000000E-01  -5.31393370E+04   2.29394564E+03   0.00000000E+00   1.95342280E+04   5.11979211E+03   2.19966476E+03   7.19372672E+00   0.00000000E+00   0.00000000E+00   0.00000000E+00   0.00000000E+00   5.52337443E+00   1.53082464E+03   4.50389938E+03   0.00000000E+00   0.00000000E+00   0.00000000E+00   0.00000000E+00   1.93496665E+04
   1.55750000E+03   5.00000000E-01   5.00000000E-01  -5.31380784E+04   2.29394562E+03   0.00000000E+00   1.95336005E+04   5.11453187E+03   2.19966444E+03   7.19372664E+00   0.00000000E+00   0.00000000E+00   0.00000000E+00   0.00000000E+00   5.53331620E+00   1.53081180E+03   4.49863917E+03   0.00000000E+00   0.00000000E+00   0.00000000E+00   0.00000000E+00   1.93490553E+04
   1.59250000E+03   5.00000000E-01   5.00000000E-01  -5.31368011E+04   2.29394561E+03   0.00000000E+00   1.95329613E+04   5.10941361E+03   2.19966401E+03   7.19372652E+00   0.00000000E+00   0.00000000E+00   0.00000000E+00   0.00000000E+00   5.54187347E+00   1.53080518E+03   4.49352095E+03   0.00000000E+00   0.00000000E+00   0.00000000E+00   0.00000000E+00   1.93484540E+04
   1.62750000E+03   5.00000000E-01   5.00000000E-01  -5.31355205E+04   2.29394560E+03   0.00000000E+00   1.95323191E+04   5.10443612E+03   2.19966348E+03   7.19372636E+00   0.00000000E+00   0.00000000E+00   0.00000000E+00   0.00000000E+00   5.54887952E+00   1.53080331E+03   4.48854349E+03   0.00000000E+00   0.00000000E+00   0.00000000E+00   0.00000000E+00   1.93478657E+04
   1.66250000E+03   5.00000000E-01   5.00000000E-01  -5.31342509E+04   2.29394558E+03   0.00000000E+00   1.95316816E+04   5.09959780E+03   2.19966286E+03   7.19372612E+00   0.00000000E+00   0.00000000E+00   0.00000000E+00   0.00000000E+00   5.55418635E+00   1.53080481E+03   4.48370521E+03   0.00000000E+00   0.00000000E+00   0.00000000E+00   0.00000000E+00   1.93472931E+04
   1.69750000E+03   5.00000000E-01   5.00000000E-01  -5.31330051E+04   2.29394556E+03   0.00000000E+00   1.95310559E+04   5.09489675E+03   2.19966214E+03   7.19372581E+00   0.00000000E+00   0.00000000E+00   0.00000000E+00   0.00000000E+00   5.55766808E+00   1.53080837E+03   4.47900420E+03   0.00000000E+00   0.00000000E+00   0.00000000E+00   0.00000000E+00   1.93467385E+04
   1.73250000E+03   5.00000000E-01   5.00000000E-01  -5.31317939E+04   2.29394555E+03   0.00000000E+00   1.95304482E+04   5.09033081E+03   2.19966134E+03   7.19372539E+00   0.00000000E+00   0.00000000E+00   0.00000000E+00   0.00000000E+00   5.55922229E+00   1.53081277E+03   4.47443831E+03   0.00000000E+00   0.00000000E+00   0.00000000E+00   0.00000000E+00   1.93462034E+04
   1.76750000E+03   5.00000000E-01   5.00000000E-01  -5.31306267E+04   2.29394553E+03   0.00000000E+00   1.95298637E+04   5.08589762E+03   2.19966047E+03   7.19372483E+00   0.00000000E+00   0.00000000E+00   0.00000000E+00   0.00000000E+00   5.55876969E+00   1.53081694E+03   4.47000518E+03   0.00000000E+00   0.00000000E+00   0.00000000E+00   0.00000000E+00   1.93456892E+04
   1.80250000E+03   5.00000000E-01   5.00000000E-01  -5.31295112E+04   2.29394550E+03   0.00000000E+00   1.95293068E+04   5.08159465E+03   2.19965953E+03   7.19372410E+00   0.00000000E+00   0.00000000E+00   0.00000000E+00   0.00000000E+00   5.55625280E+00   1.53081990E+03   4.46570226E+03   0.00000000E+00   0.00000000E+00   0.00000000E+00   0.00000000E+00   1.93451967E+04
   1.83750000E+03   5.00000000E-01   5.00000000E-01  -5.31284534E+04   2.29394548E+03   0.00000000E+00   1.95287808E+04   5.07741924E+03   2.19965853E+03   7.19372316E+00   0.00000000E+00   0.00000000E+00   0.00000000E+00   0.00000000E+00   5.55163358E+00   1.53082081E+03   4.46152691E+03   0.00000000E+00   0.00000000E+00   0.00000000E+00   0.00000000E+00   1.93447263E+04
   1.87250000E+03   5.00000000E-01   5.00000000E-01  -5.31274578E+04   2.29394546E+03   0.00000000E+00   1.95282885E+04   5.07336862E+03   2.19965747E+03   7.19372196E+00   0.00000000E+00   0.00000000E+00   0.00000000E+00   0.00000000E+00   5.54489074E+00   1.53081893E+03   4.45747636E+03   0.00000000E+00   0.00000000E+00   0.00000000E+00   0.00000000E+00   1.93442781E+04
   1.90750000E+03   5.00000000E-01   5.00000000E-01  -5.31265278E+04   2.29394543E+03   0.00000000E+00   1.95278318E+04   5.06944000E+03   2.19965637E+03   7.19372047E+00   0.00000000E+00   0.00000000E+00   0.00000000E+00   0.00000000E+00   5.53601662E+00   1.53081366E+03   4.45354779E+03   0.00000000E+00   0.00000000E+00   0.00000000E+00   0.00000000E+00   1.93438520E+04
   1.94250000E+03   5.00000000E-01   5.00000000E-01  -5.31256655E+04   2.29394540E+03   0.00000000E+00   1.95274119E+04   5.06563049E+03   2.19965523E+03   7.19371862E+00   0.00000000E+00   0.00000000E+00   0.00000000E+00   0.00000000E+00   5.52501419E+00   1.53080451E+03   4.44973836E+03   0.00000000E+00   0.00000000E+00   0.00000000E+00   0.00000000E+00   1.93434475E+04
   1.97750000E+03   5.00000000E-01   5.00000000E-01  -5.31248722E+04   2.29394537E+03   0.00000000E+00   1.95270299E+04   5.06193723E+03   2.19965406E+03   7.19371635E+00   0.00000000E+00   0.00000000E+00   0.00000000E+00   0.00000000E+00   5.51189455E+00   1.53079107E+03   4.44604517E+03   0.00000000E+00   0.00000000E+00   0.00000000E+00   0.00000000E+00   1.93430642E+04
   2.01250000E+03   5.00000000E-01   5.00000000E-01  -5.31241483E+04   2.29394533E+03   0.00000000E+00   1.95266859E+04   5.05835734E+03   2.19965285E+03   7.19371360E+00   0.00000000E+00   0.00000000E+00   0.00000000E+00   0.00000000E+00   5.49667409E+00   1.53077304E+03   4.44246536E+03   0.00000000E+00   0.00000000E+00   0.00000000E+00   0.00000000E+00   1.93427014E+04
   2.04750000E+03   5.00000000E-01   5.00000000E-01  -5.31234939E+04   2.29394530E+03   0.00000000E+00   1.95263801E+04   5.05488797E+03   2.19965163E+03   7.19371029E+00   0.00000000E+00   0.00000000E+00   0.00000000E+00   0.00000000E+00   5.47937292E+00   1.53075021E+03   4.43899606E+03   0.00000000E+00   0.00000000E+00   0.00000000E+00   0.00000000E+00   1.93423586E+04
   2.08250000E+03   5.00000000E-01   5.00000000E-01  -5.31229082E+04   2.29394526E+03   0.00000000E+00   1.95261122E+04   5.05152628E+03   2.19965039E+03   7.19370635E+00   0.00000000E+00   0.00000000E+00   0.00000000E+00   0.00000000E+00   5.46001305E+00   1.53072242E+03   4.43563446E+03   0.00000000E+00   0.00000000E+00   0.00000000E+00   0.00000000E+00   1.93420349E+04
   2.11750000E+03   5.00000000E-01   5.00000000E-01  -5.31223906E+04   2.29394522E+03   0.00000000E+00   1.95258819E+04   5.04826950E+03   2.19964913E+03   7.19370169E+00   0.00000000E+00   0.00000000E+00   0.00000000E+00   0.00000000E+00   5.43861703E+00   1.53068958E+03   4.43237776E+03   0.00000000E+00   0.00000000E+00   0.00000000E+00   0.00000000E+00   1.93417298E+04
   2.15250000E+03   5.00000000E-01   5.00000000E-01  -5.31219404E+04   2.29394517E+03   0.00000000E+00   1.95256889E+04   5.04511488E+03   2.19964788E+03   7.19369621E+00   0.00000000E+00   0.00000000E+00   0.00000000E+00   0.00000000E+00   5.41530463E+00   1.53065166E+03   4.42922323E+03   0.00000000E+00   0.00000000E+00   0.00000000E+00   0.00000000E+00   1.93414440E+04
   2.18750000E+03   5.00000000E-01   5.00000000E-01  -5.31215557E+04   2.29394512E+03   0.00000000E+00   1.95255321E+04   5.04205974E+03   2.19964662E+03   7.19368984E+00   0.00000000E+00   0.00000000E+00   0.00000000E+00   0.00000000E+00   5.39007254E+00   1.53060864E+03   4.42616818E+03   0.00000000E+00   0.00000000E+00   0.00000000E+00   0.00000000E+00   1.93411765E+04
   2.22250000E+03   5.00000000E-01   5.00000000E-01  -5.31212355E+04   2.29394507E+03   0.00000000E+00   1.95254111E+04   5.03910148E+03   2.19964537E+03   7.19368250E+00   0.00000000E+00   0.00000000E+00   0.00000000E+00   0.00000000E+00   5.36287466E+00   1.53056057E+03   4.42321002E+03   0.00000000E+00   0.00000000E+00   0.00000000E+00   0.00000000E+00   1.93409259E+04
   2.25750000E+03   5.00000000E-01   5.00000000E-01  -5.31209789E+04   2.29394501E+03   0.00000000E+00   1.95253253E+04   5.03623754E+03   2.19964412E+03   7.19367411E+00   0.00000000E+00   0.00000000E+00   0.00000000E+00   0.00000000E+00   5.33371560E+00   1.53050751E+03   4.42034617E+03   0.00000000E+00   0.00000000E+00   0.00000000E+00   0.00000000E+00   1.93406922E+04
   2.29250000E+03   5.00000000E-01   5.00000000E-01  -5.31207850E+04   2.29394495E+03   0.00000000E+00   1.95252744E+04   5.03346541E+03   2.19964289E+03   7.19366461E+00   0.00000000E+00   0.00000000E+00   0.00000000E+00   0.00000000E+00   5.30260170E+00   1.53044956E+03   4.41757415E+03   0.00000000E+00   0.00000000E+00   0.00000000E+00   0.00000000E+00   1.93404750E+04
   2.32750000E+03   5.00000000E-01   5.00000000E-01  -5.31206532E+04   2.29394488E+03   0.00000000E+00   1.95252578E+04   5.03078268E+03   2.19964167E+03   7.19365398E+00   0.00000000E+00   0.00000000E+00   0.00000000E+00   0.00000000E+00   5.26954811E+00   1.53038681E+03   4.41489152E+03   0.00000000E+00   0.00000000E+00   0.00000000E+00   0.00000000E+00   1.93402745E+04
   2.36250000E+03   5.00000000E-01   5.00000000E-01  -5.31205828E+04   2.29394481E+03   0.00000000E+00   1.95252752E+04   5.02818698E+03   2.19964048E+03   7.19364224E+00   0.00000000E+00   0.00000000E+00   0.00000000E+00   0.00000000E+00   5.23458253E+00   1.53031940E+03   4.41229592E+03   0.00000000E+00   0.00000000E+00   0.00000000E+00   0.00000000E+00   1.93400908E+04
   2.39750000E+03   5.00000000E-01   5.00000000E-01  -5.31205737E+04   2.29394474E+03   0.00000000E+00   1.95253265E+04   5.02567600E+03   2.19963930E+03   7.19362946E+00   0.00000000E+00   0.00000000E+00   0.00000000E+00   0.00000000E+00   5.19772918E+00   1.53024744E+03   4.40978505E+03   0.00000000E+00   0.00000000E+00   0.00000000E+00   0.00000000E+00   1.93399243E+04
   2.43250000E+03   5.00000000E-01   5.00000000E-01  -5.31206256E+04   2.29394466E+03   0.00000000E+00   1.95254114E+04   5.02324751E+03   2.19963815E+03   7.19361582E+00   0.00000000E+00   0.00000000E+00   0.00000000E+00   0.00000000E+00   5.15898813E+00   1.53017105E+03   4.40735667E+03   0.00000000E+00   0.00000000E+00   0.00000000E+00   0.00000000E+00   1.93397752E+04
   2.46750000E+03   5.00000000E-01   5.00000000E-01  -5.31207388E+04   2.29394457E+03   0.00000000E+00   1.95255300E+04   5.02089932E+03   2.19963703E+03   7.19360156E+00   0.00000000E+00   0.00000000E+00   0.00000000E+00   0.00000000E+00   5.11837190E+00   1.53009035E+03   4.40500860E+03   0.00000000E+00   0.00000000E+00   0.00000000E+00   0.00000000E+00   1.93396440E+04
   2.50250000E+03   5.00000000E-01   5.00000000E-01  -5.31209138E+04   2.29394448E+03   0.00000000E+00   1.95256825E+04   5.01862932E+03   2.19963594E+03   7.19358702E+00   0.00000000E+00   0.00000000E+00   0.00000000E+00   0.00000000E+00   5.07589658E+00   1.53000546E+03   4.40273870E+03   0.00000000E+00   0.00000000E+00   0.00000000E+00   0.00000000E+00   1.93395313E+04
   2.53750000E+03   5.00000000E-01   5.00000000E-01  -5.31211512E+04   2.29394438E+03   0.00000000E+00   1.95258693E+04   5.01643541E+03   2.19963488E+03   7.19357264E+00   0.00000000E+00   0.00000000E+00   0.00000000E+00   0.00000000E+00   5.03157811E+00   1.52991649E+03   4.40054490E+03   0.00000000E+00   0.00000000E+00   0.00000000E+00   0.00000000E+00   1.93394381E+04
   2.57250000E+03   5.00000000E-01   5.00000000E-01  -5.31214522E+04   2.29394427E+03   0.00000000E+00   1.95260906E+04   5.01431557E+03   2.19963386E+03   7.19355894E+00   0.00000000E+00   0.00000000E+00   0.00000000E+00   0.00000000E+00   4.98543351E+00   1.52982353E+03   4.39842517E+03   0.00000000E+00   0.00000000E+00   0.00000000E+00   0.00000000E+00   1.93393650E+04
   2.60750000E+03   5.00000000E-01   5.00000000E-01  -5.31218178E+04   2.29394416E+03   0.00000000E+00   1.95263471E+04   5.01226781E+03   2.19963286E+03   7.19354656E+00   0.00000000E+00   0.00000000E+00   0.00000000E+00   0.00000000E+00   4.93747832E+00   1.52972667E+03   4.39637752E+03   0.00000000E+00   0.00000000E+00   0.00000000E+00   0.00000000E+00   1.93393133E+04
   2.64250000E+03   5.00000000E-01   5.00000000E-01  -5.31222497E+04   2.29394404E+03   0.00000000E+00   1.95266395E+04   5.01029020E+03   2.19963191E+03   7.19353616E+00   0.00000000E+00   0.00000000E+00   0.00000000E+00   0.00000000E+00   4.88773031E+00   1.52962600E+03   4.39440001E+03   0.00000000E+00   0.00000000E+00   0.00000000E+00   0.00000000E+00   1.93392838E+04
   2.67750000E+03   5.00000000E-01   5.00000000E-01  -5.31227495E+04   2.29394391E+03   0.00000000E+00   1.95269686E+04   5.00838082E+03   2.19963098E+03   7.19352847E+00   0.00000000E+00   0.00000000E+00   0.00000000E+00   0.00000000E+00   4.83623542E+00   1.52952159E+03   4.39249072E+03   0.00000000E+00   0.00000000E+00   0.00000000E+00   0.00000000E+00   1.93392783E+04
   2.71250000E+03   5.00000000E-01   5.00000000E-01  -5.31233189E+04   2.29394377E+03   0.00000000E+00   1.95273351E+04   5.00653781E+03   2.19963009E+03   7.19352417E+00   0.00000000E+00   0.00000000E+00   0.00000000E+00   0.00000000E+00   4.78299323E+00   1.52941350E+03   4.39064780E+03   0.00000000E+00   0.00000000E+00   0.00000000E+00   0.00000000E+00   1.93392976E+04