 TITLE = "Total Component Concentration in Minerals" 
VARIABLES = "X"          "Y"              "Z"            "H+"             "Al+++"          "CO2(aq)"        "Mg++"           "Ca++"           "Fe++"           "Fe+++"          "Ba++"           "Sr++"           "Cl-"            "F-"             "K+"             "HS-"            "Na+"            "SO4--"          "O2(aq)"         "B(OH)3(aq)"     "HPO4--"         "NO3-"           "H4SiO4(aq)"    
 ZONE I=         200 , J=           1 , K=           1  F=POINT
   8.75000000E+00   5.00000000E-01   5.00000000E-01  -4.43487399E+04   3.02039860E+03   0.00000000E+00   9.15936584E+03   1.69796647E+03   6.21733890E+03   7.19372819E+01   0.00000000E+00   0.00000000E+00   0.00000000E+00   0.00000000E+00   1.06490973E+00   1.09717178E-05   9.21324878E+02   1.92910302E-06  -1.92910302E-06   0.00000000E+00   0.00000000E+00   0.00000000E+00   1.50781976E+04
   2.62500000E+01   5.00000000E-01   5.00000000E-01  -4.43846987E+04   3.02036900E+03   0.00000000E+00   9.17459275E+03   1.69819980E+03   6.21751737E+03   7.19372818E+01   0.00000000E+00   0.00000000E+00   0.00000000E+00   0.00000000E+00   3.64470115E+00   1.09717216E-05   9.23515352E+02   1.92910302E-06  -1.92910302E-06   0.00000000E+00   0.00000000E+00   0.00000000E+00   1.51101339E+04
   4.37500000E+01   5.00000000E-01   5.00000000E-01  -4.43760775E+04   3.02036900E+03   0.00000000E+00   9.16706473E+03   1.69830919E+03   6.21766508E+03   7.19372818E+01   0.00000000E+00   0.00000000E+00   0.00000000E+00   0.00000000E+00   4.25568794E+00   1.09717234E-05   9.28824955E+02   1.92910302E-06  -1.92910302E-06   0.00000000E+00   0.00000000E+00   0.00000000E+00   1.51257806E+04
   6.12500000E+01   5.00000000E-01   5.00000000E-01  -4.43658461E+04   3.02036900E+03   0.00000000E+00   9.15763720E+03   1.69839642E+03   6.21782689E+03   7.19372818E+01   0.00000000E+00   0.00000000E+00   0.00000000E+00   0.00000000E+00   5.17652379E+00   1.09717248E-05   9.36029684E+02   1.92910302E-06  -1.92910302E-06   0.00000000E+00   0.00000000E+00   0.00000000E+00   1.51479303E+04
   7.87500000E+01   5.00000000E-01   5.00000000E-01  -4.43606135E+04   3.02036900E+03   0.00000000E+00   9.15050982E+03   1.69854302E+03   6.21801779E+03   7.19372818E+01   0.00000000E+00   0.00000000E+00   0.00000000E+00   0.00000000E+00   6.28657305E+00   1.09717260E-05   9.43266816E+02   1.92910302E-06  -1.92910302E-06   0.00000000E+00   0.00000000E+00   0.00000000E+00   1.51730816E+04
   9.62500000E+01   5.00000000E-01   5.00000000E-01  -4.43578666E+04   3.02036900E+03   0.00000000E+00   9.14520495E+03   1.69872704E+03   6.21824297E+03   7.19372818E+01   0.00000000E+00   0.00000000E+00   0.00000000E+00   0.00000000E+00   7.17643387E+00   1.09717270E-05   9.49421373E+02   1.92910302E-06  -1.92910302E-06   0.00000000E+00   0.00000000E+00   0.00000000E+00   1.51950807E+04
   1.13750000E+02   5.00000000E-01   5.00000000E-01  -4.43562171E+04   3.02036900E+03   0.00000000E+00   9.14135182E+03   1.69892590E+03   6.21850341E+03   7.19372818E+01   0.00000000E+00   0.00000000E+00   0.00000000E+00   0.00000000E+00   7.69173878E+00   1.09717279E-05   9.54044286E+02   1.92910302E-06  -1.92910302E-06   0.00000000E+00   0.00000000E+00   0.00000000E+00   1.52113040E+04
   1.31250000E+02   5.00000000E-01   5.00000000E-01  -4.43552628E+04   3.02036900E+03   0.00000000E+00   9.13872468E+03   1.69912613E+03   6.21880062E+03   7.19372818E+01   0.00000000E+00   0.00000000E+00   0.00000000E+00   0.00000000E+00   7.85490407E+00   1.09717287E-05   9.57186231E+02   1.92910302E-06  -1.92910302E-06   0.00000000E+00   0.00000000E+00   0.00000000E+00   1.52217997E+04
   1.48750000E+02   5.00000000E-01   5.00000000E-01  -4.43548331E+04   3.02036900E+03   0.00000000E+00   9.13706002E+03   1.69932079E+03   6.21913757E+03   7.19372818E+01   0.00000000E+00   0.00000000E+00   0.00000000E+00   0.00000000E+00   7.74748590E+00   1.09717293E-05   9.59129979E+02   1.92910302E-06  -1.92910302E-06   0.00000000E+00   0.00000000E+00   0.00000000E+00   1.52276819E+04
   1.66250000E+02   5.00000000E-01   5.00000000E-01  -4.43548708E+04   3.02036900E+03   0.00000000E+00   9.13611098E+03   1.69950602E+03   6.21951635E+03   7.19372818E+01   0.00000000E+00   0.00000000E+00   0.00000000E+00   0.00000000E+00   7.46406871E+00   1.09717298E-05   9.60221239E+02   1.92910302E-06  -1.92910302E-06   0.00000000E+00   0.00000000E+00   0.00000000E+00   1.52303679E+04
   1.83750000E+02   5.00000000E-01   5.00000000E-01  -4.43553484E+04   3.02036900E+03   0.00000000E+00   9.13566752E+03   1.69967943E+03   6.21993579E+03   7.19372818E+01   0.00000000E+00   0.00000000E+00   0.00000000E+00   0.00000000E+00   7.08701091E+00   1.09717302E-05   9.60777063E+02   1.92910302E-06  -1.92910302E-06   0.00000000E+00   0.00000000E+00   0.00000000E+00   1.52311565E+04
   2.01250000E+02   5.00000000E-01   5.00000000E-01  -4.43560916E+04   3.02036900E+03   0.00000000E+00   9.13552516E+03   1.69984254E+03   6.22039478E+03   7.19372818E+01   0.00000000E+00   0.00000000E+00   0.00000000E+00   0.00000000E+00   6.65777361E+00   1.09717305E-05   9.60990024E+02   1.92910302E-06  -1.92910302E-06   0.00000000E+00   0.00000000E+00   0.00000000E+00   1.52307408E+04
   2.18750000E+02   5.00000000E-01   5.00000000E-01  -4.43569709E+04   3.02036900E+03   0.00000000E+00   9.13555214E+03   1.70000057E+03   6.22089294E+03   7.19372818E+01   0.00000000E+00   0.00000000E+00   0.00000000E+00   0.00000000E+00   6.19790954E+00   1.09717306E-05   9.60962901E+02   1.92910302E-06  -1.92910302E-06   0.00000000E+00   0.00000000E+00   0.00000000E+00   1.52294764E+04
   2.36250000E+02   5.00000000E-01   5.00000000E-01  -4.43580281E+04   3.02036900E+03   0.00000000E+00   9.13570756E+03   1.70015853E+03   6.22142496E+03   7.19372818E+01   0.00000000E+00   0.00000000E+00   0.00000000E+00   0.00000000E+00   5.73265139E+00   1.09717306E-05   9.60794471E+02   1.92910302E-06  -1.92910302E-06   0.00000000E+00   0.00000000E+00   0.00000000E+00   1.52277959E+04
   2.53750000E+02   5.00000000E-01   5.00000000E-01  -4.43591662E+04   3.02036900E+03   0.00000000E+00   9.13592095E+03   1.70032094E+03   6.22198564E+03   7.19372818E+01   0.00000000E+00   0.00000000E+00   0.00000000E+00   0.00000000E+00   5.26945659E+00   1.09717305E-05   9.60522897E+02   1.92910302E-06  -1.92910302E-06   0.00000000E+00   0.00000000E+00   0.00000000E+00   1.52258119E+04
   2.71250000E+02   5.00000000E-01   5.00000000E-01  -4.43603602E+04   3.02036900E+03   0.00000000E+00   9.13616836E+03   1.70048963E+03   6.22256938E+03   7.19372818E+01   0.00000000E+00   0.00000000E+00   0.00000000E+00   0.00000000E+00   4.81575162E+00   1.09717303E-05   9.60170846E+02   1.92910302E-06  -1.92910302E-06   0.00000000E+00   0.00000000E+00   0.00000000E+00   1.52236159E+04
   2.88750000E+02   5.00000000E-01   5.00000000E-01  -4.43616073E+04   3.02036900E+03   0.00000000E+00   9.13644293E+03   1.70066282E+03   6.22317084E+03   7.19372818E+01   0.00000000E+00   0.00000000E+00   0.00000000E+00   0.00000000E+00   4.37862486E+00   1.09717300E-05   9.59756710E+02   1.92910302E-06  -1.92910302E-06   0.00000000E+00   0.00000000E+00   0.00000000E+00   1.52212911E+04
   3.06250000E+02   5.00000000E-01   5.00000000E-01  -4.43629085E+04   3.02036900E+03   0.00000000E+00   9.13674283E+03   1.70083587E+03   6.22378602E+03   7.19372818E+01   0.00000000E+00   0.00000000E+00   0.00000000E+00   0.00000000E+00   3.96395650E+00   1.09717297E-05   9.59296278E+02   1.92910302E-06  -1.92910302E-06   0.00000000E+00   0.00000000E+00   0.00000000E+00   1.52189065E+04
   3.23750000E+02   5.00000000E-01   5.00000000E-01  -4.43642645E+04   3.02036900E+03   0.00000000E+00   9.13706745E+03   1.70100315E+03   6.22441280E+03   7.19372818E+01   0.00000000E+00   0.00000000E+00   0.00000000E+00   0.00000000E+00   3.57599772E+00   1.09717293E-05   9.58802919E+02   1.92910302E-06  -1.92910302E-06   0.00000000E+00   0.00000000E+00   0.00000000E+00   1.52165164E+04
   3.41250000E+02   5.00000000E-01   5.00000000E-01  -4.43656755E+04   3.02036900E+03   0.00000000E+00   9.13741558E+03   1.70115967E+03   6.22505076E+03   7.19372818E+01   0.00000000E+00   0.00000000E+00   0.00000000E+00   0.00000000E+00   3.21723985E+00   1.09717288E-05   9.58287437E+02   1.92910302E-06  -1.92910302E-06   0.00000000E+00   0.00000000E+00   0.00000000E+00   1.52141602E+04
   3.58750000E+02   5.00000000E-01   5.00000000E-01  -4.43671352E+04   3.02036900E+03   0.00000000E+00   9.13778279E+03   1.70130220E+03   6.22570075E+03   7.19372818E+01   0.00000000E+00   0.00000000E+00   0.00000000E+00   0.00000000E+00   2.88834169E+00   1.09717283E-05   9.57756591E+02   1.92910302E-06  -1.92910302E-06   0.00000000E+00   0.00000000E+00   0.00000000E+00   1.52118565E+04
   3.76250000E+02   5.00000000E-01   5.00000000E-01  -4.43686380E+04   3.02036900E+03   0.00000000E+00   9.13816455E+03   1.70142933E+03   6.22636406E+03   7.19372818E+01   0.00000000E+00   0.00000000E+00   0.00000000E+00   0.00000000E+00   2.58879453E+00   1.09717277E-05   9.57214500E+02   1.92910302E-06  -1.92910302E-06   0.00000000E+00   0.00000000E+00   0.00000000E+00   1.52096128E+04
   3.93750000E+02   5.00000000E-01   5.00000000E-01  -4.43701748E+04   3.02036900E+03   0.00000000E+00   9.13855491E+03   1.70154127E+03   6.22704193E+03   7.19372818E+01   0.00000000E+00   0.00000000E+00   0.00000000E+00   0.00000000E+00   2.31719299E+00   1.09717272E-05   9.56662589E+02   1.92910302E-06  -1.92910302E-06   0.00000000E+00   0.00000000E+00   0.00000000E+00   1.52074249E+04
   4.11250000E+02   5.00000000E-01   5.00000000E-01  -4.43717366E+04   3.02036900E+03   0.00000000E+00   9.13894822E+03   1.70163937E+03   6.22773512E+03   7.19372818E+01   0.00000000E+00   0.00000000E+00   0.00000000E+00   0.00000000E+00   2.07167792E+00   1.09717266E-05   9.56100663E+02   1.92910302E-06  -1.92910302E-06   0.00000000E+00   0.00000000E+00   0.00000000E+00   1.52052828E+04
   4.28750000E+02   5.00000000E-01   5.00000000E-01  -4.43733157E+04   3.02036900E+03   0.00000000E+00   9.13933996E+03   1.70172581E+03   6.22844358E+03   7.19372818E+01   0.00000000E+00   0.00000000E+00   0.00000000E+00   0.00000000E+00   1.85023047E+00   1.09717259E-05   9.55527972E+02   1.92910302E-06  -1.92910302E-06   0.00000000E+00   0.00000000E+00   0.00000000E+00   1.52031760E+04
   4.46250000E+02   5.00000000E-01   5.00000000E-01  -4.43749037E+04   3.02036900E+03   0.00000000E+00   9.13972580E+03   1.70180327E+03   6.22916635E+03   7.19372818E+01   0.00000000E+00   0.00000000E+00   0.00000000E+00   0.00000000E+00   1.65076564E+00   1.09717253E-05   9.54943312E+02   1.92910302E-06  -1.92910302E-06   0.00000000E+00   0.00000000E+00   0.00000000E+00   1.52010926E+04
   4.63750000E+02   5.00000000E-01   5.00000000E-01  -4.43764928E+04   3.02036900E+03   0.00000000E+00   9.14010233E+03   1.70187475E+03   6.22990152E+03   7.19372818E+01   0.00000000E+00   0.00000000E+00   0.00000000E+00   0.00000000E+00   1.47125963E+00   1.09717247E-05   9.54345493E+02   1.92910302E-06  -1.92910302E-06   0.00000000E+00   0.00000000E+00   0.00000000E+00   1.51990218E+04
   4.81250000E+02   5.00000000E-01   5.00000000E-01  -4.43780760E+04   3.02036900E+03   0.00000000E+00   9.14046721E+03   1.70194342E+03   6.23064620E+03   7.19372818E+01   0.00000000E+00   0.00000000E+00   0.00000000E+00   0.00000000E+00   1.30981823E+00   1.09717240E-05   9.53733708E+02   1.92910302E-06  -1.92910302E-06   0.00000000E+00   0.00000000E+00   0.00000000E+00   1.51969558E+04
   4.98750000E+02   5.00000000E-01   5.00000000E-01  -4.43794744E+04   3.02036900E+03   0.00000000E+00   9.14074293E+03   1.70201243E+03   6.23140819E+03   7.19372818E+01   0.00000000E+00   0.00000000E+00   0.00000000E+00   0.00000000E+00   1.16184866E+00   1.09717234E-05   9.53066581E+02   1.92910302E-06  -1.92910302E-06   0.00000000E+00   0.00000000E+00   0.00000000E+00   1.51946629E+04
   5.16250000E+02   5.00000000E-01   5.00000000E-01  -4.43809739E+04   3.02036900E+03   0.00000000E+00   9.14105656E+03   1.70208571E+03   6.23217674E+03   7.19372818E+01   0.00000000E+00   0.00000000E+00   0.00000000E+00   0.00000000E+00   1.03022817E+00   1.09717228E-05   9.52386852E+02   1.92910302E-06  -1.92910302E-06   0.00000000E+00   0.00000000E+00   0.00000000E+00   1.51924288E+04
   5.33750000E+02   5.00000000E-01   5.00000000E-01  -4.43824938E+04   3.02036900E+03   0.00000000E+00   9.14137198E+03   1.70216557E+03   6.23294397E+03   7.19372818E+01   0.00000000E+00   0.00000000E+00   0.00000000E+00   0.00000000E+00   9.12696213E-01   1.09717221E-05   9.51699256E+02   1.92910302E-06  -1.92910302E-06   0.00000000E+00   0.00000000E+00   0.00000000E+00   1.51902304E+04
   5.51250000E+02   5.00000000E-01   5.00000000E-01  -4.43839888E+04   3.02036900E+03   0.00000000E+00   9.14167161E+03   1.70225355E+03   6.23370447E+03   7.19372818E+01   0.00000000E+00   0.00000000E+00   0.00000000E+00   0.00000000E+00   8.07478794E-01   1.09717215E-05   9.51003230E+02   1.92910302E-06  -1.92910302E-06   0.00000000E+00   0.00000000E+00   0.00000000E+00   1.51880433E+04
   5.68750000E+02   5.00000000E-01   5.00000000E-01  -4.43854465E+04   3.02036900E+03   0.00000000E+00   9.14195308E+03   1.70235011E+03   6.23445411E+03   7.19372818E+01   0.00000000E+00   0.00000000E+00   0.00000000E+00   0.00000000E+00   7.13330894E-01   1.09717209E-05   9.50299786E+02   1.92910302E-06  -1.92910302E-06   0.00000000E+00   0.00000000E+00   0.00000000E+00   1.51858634E+04
   5.86250000E+02   5.00000000E-01   5.00000000E-01  -4.43868615E+04   3.02036900E+03   0.00000000E+00   9.14221656E+03   1.70245449E+03   6.23519010E+03   7.19372818E+01   0.00000000E+00   0.00000000E+00   0.00000000E+00   0.00000000E+00   6.29227749E-01   1.09717203E-05   9.49591142E+02   1.92910302E-06  -1.92910302E-06   0.00000000E+00   0.00000000E+00   0.00000000E+00   1.51836924E+04
   6.03750000E+02   5.00000000E-01   5.00000000E-01  -4.43882292E+04   3.02036900E+03   0.00000000E+00   9.14246195E+03   1.70256481E+03   6.23591111E+03   7.19372818E+01   0.00000000E+00   0.00000000E+00   0.00000000E+00   0.00000000E+00   5.54270980E-01   1.09717197E-05   9.48880360E+02   1.92910302E-06  -1.92910302E-06   0.00000000E+00   0.00000000E+00   0.00000000E+00   1.51815344E+04
   6.21250000E+02   5.00000000E-01   5.00000000E-01  -4.43895453E+04   3.02036900E+03   0.00000000E+00   9.14268831E+03   1.70267850E+03   6.23661712E+03   7.19372818E+01   0.00000000E+00   0.00000000E+00   0.00000000E+00   0.00000000E+00   4.87642139E-01   1.09717191E-05   9.48170982E+02   1.92910302E-06  -1.92910302E-06   0.00000000E+00   0.00000000E+00   0.00000000E+00   1.51793941E+04
   6.38750000E+02   5.00000000E-01   5.00000000E-01  -4.43908053E+04   3.02036900E+03   0.00000000E+00   9.14289388E+03   1.70279266E+03   6.23730907E+03   7.19372818E+01   0.00000000E+00   0.00000000E+00   0.00000000E+00   0.00000000E+00   4.28573306E-01   1.09717185E-05   9.47466650E+02   1.92910302E-06  -1.92910302E-06   0.00000000E+00   0.00000000E+00   0.00000000E+00   1.51772761E+04
   6.56250000E+02   5.00000000E-01   5.00000000E-01  -4.43920041E+04   3.02036900E+03   0.00000000E+00   9.14307622E+03   1.70290459E+03   6.23798829E+03   7.19372818E+01   0.00000000E+00   0.00000000E+00   0.00000000E+00   0.00000000E+00   3.76331809E-01   1.09717180E-05   9.46770767E+02   1.92910302E-06  -1.92910302E-06   0.00000000E+00   0.00000000E+00   0.00000000E+00   1.51751840E+04
   6.73750000E+02   5.00000000E-01   5.00000000E-01  -4.43931367E+04   3.02036900E+03   0.00000000E+00   9.14323263E+03   1.70301203E+03   6.23865599E+03   7.19372818E+01   0.00000000E+00   0.00000000E+00   0.00000000E+00   0.00000000E+00   3.30218234E-01   1.09717174E-05   9.46086298E+02   1.92910302E-06  -1.92910302E-06   0.00000000E+00   0.00000000E+00   0.00000000E+00   1.51731205E+04
   6.91250000E+02   5.00000000E-01   5.00000000E-01  -4.43941970E+04   3.02036900E+03   0.00000000E+00   9.14336034E+03   1.70311340E+03   6.23931279E+03   7.19372818E+01   0.00000000E+00   0.00000000E+00   0.00000000E+00   0.00000000E+00   2.89568826E-01   1.09717169E-05   9.45415590E+02   1.92910302E-06  -1.92910302E-06   0.00000000E+00   0.00000000E+00   0.00000000E+00   1.51710870E+04
   7.08750000E+02   5.00000000E-01   5.00000000E-01  -4.43951797E+04   3.02036900E+03   0.00000000E+00   9.14345717E+03   1.70320778E+03   6.23995838E+03   7.19372818E+01   0.00000000E+00   0.00000000E+00   0.00000000E+00   0.00000000E+00   2.53766290E-01   1.09717164E-05   9.44760452E+02   1.93502806E-06  -1.92910302E-06   0.00000000E+00   0.00000000E+00   0.00000000E+00   1.51690841E+04
   7.26250000E+02   5.00000000E-01   5.00000000E-01  -4.43960793E+04   3.02036900E+03   0.00000000E+00   9.14352182E+03   1.70329489E+03   6.24059130E+03   7.19372818E+01   0.00000000E+00   0.00000000E+00   0.00000000E+00   0.00000000E+00   2.22245316E-01   1.09717159E-05   9.44122235E+02   1.95394043E-06  -1.92910302E-06   0.00000000E+00   0.00000000E+00   0.00000000E+00   1.51671124E+04
   7.43750000E+02   5.00000000E-01   5.00000000E-01  -4.43968910E+04   3.02036900E+03   0.00000000E+00   9.14355390E+03   1.70337501E+03   6.24120898E+03   7.19372818E+01   0.00000000E+00   0.00000000E+00   0.00000000E+00   0.00000000E+00   1.94495379E-01   1.09717154E-05   9.43501918E+02   1.99010164E-06  -1.92910302E-06   0.00000000E+00   0.00000000E+00   0.00000000E+00   1.51651725E+04
   7.61250000E+02   5.00000000E-01   5.00000000E-01  -4.43976103E+04   3.02036900E+03   0.00000000E+00   9.14355406E+03   1.70344883E+03   6.24180772E+03   7.19372818E+01   0.00000000E+00   0.00000000E+00   0.00000000E+00   0.00000000E+00   1.70061027E-01   1.09717150E-05   9.42900207E+02   2.05463424E-06  -1.92910302E-06   0.00000000E+00   0.00000000E+00   0.00000000E+00   1.51632653E+04
   7.78750000E+02   5.00000000E-01   5.00000000E-01  -4.43982334E+04   3.02036900E+03   0.00000000E+00   9.14352388E+03   1.70351737E+03   6.24238293E+03   7.19372818E+01   0.00000000E+00   0.00000000E+00   0.00000000E+00   0.00000000E+00   1.48540111E-01   1.09717145E-05   9.42317629E+02   2.16491064E-06  -1.92910302E-06   0.00000000E+00   0.00000000E+00   0.00000000E+00   1.51613922E+04
   7.96250000E+02   5.00000000E-01   5.00000000E-01  -4.43987568E+04   3.02036899E+03   0.00000000E+00   9.14346578E+03   1.70358178E+03   6.24292932E+03   7.19372818E+01   0.00000000E+00   0.00000000E+00   0.00000000E+00   0.00000000E+00   1.29580658E-01   1.09717141E-05   9.41754617E+02   2.34789537E-06  -1.92910302E-06   0.00000000E+00   0.00000000E+00   0.00000000E+00   1.51595549E+04
   8.13750000E+02   5.00000000E-01   5.00000000E-01  -4.43991778E+04   3.02036899E+03   0.00000000E+00   9.14338279E+03   1.70364323E+03   6.24344123E+03   7.19372818E+01   0.00000000E+00   0.00000000E+00   0.00000000E+00   0.00000000E+00   1.12876662E-01   1.09717137E-05   9.41211582E+02   2.64525706E-06  -1.92910302E-06   0.00000000E+00   0.00000000E+00   0.00000000E+00   1.51577560E+04
   8.31250000E+02   5.00000000E-01   5.00000000E-01  -4.43994935E+04   3.02036899E+03   0.00000000E+00   9.14327821E+03   1.70370266E+03   6.24391293E+03   7.19372818E+01   0.00000000E+00   0.00000000E+00   0.00000000E+00   0.00000000E+00   9.81631078E-02   1.09717133E-05   9.40688948E+02   3.12119704E-06  -1.92910302E-06   0.00000000E+00   0.00000000E+00   0.00000000E+00   1.51559976E+04
   8.48750000E+02   5.00000000E-01   5.00000000E-01  -4.43997014E+04   3.02036899E+03   0.00000000E+00   9.14315526E+03   1.70376070E+03   6.24433913E+03   7.19372818E+01   0.00000000E+00   0.00000000E+00   0.00000000E+00   0.00000000E+00   8.52107708E-02   1.09717129E-05   9.40187155E+02   3.87445785E-06  -1.92910302E-06   0.00000000E+00   0.00000000E+00   0.00000000E+00   1.51542819E+04
   8.66250000E+02   5.00000000E-01   5.00000000E-01  -4.43997981E+04   3.02036899E+03   0.00000000E+00   9.14301668E+03   1.70381745E+03   6.24471528E+03   7.19372818E+01   0.00000000E+00   0.00000000E+00   0.00000000E+00   0.00000000E+00   7.38212135E-02   1.09717125E-05   9.39706649E+02   5.05678210E-06  -1.92910302E-06   0.00000000E+00   0.00000000E+00   0.00000000E+00   1.51526102E+04
   8.83750000E+02   5.00000000E-01   5.00000000E-01  -4.43997277E+04   3.02036899E+03   0.00000000E+00   9.14284258E+03   1.70386725E+03   6.24504338E+03   7.19372818E+01   0.00000000E+00   0.00000000E+00   0.00000000E+00   0.00000000E+00   6.37642905E-02   1.09717122E-05   9.39238748E+02   6.90137342E-06  -1.92910302E-06   0.00000000E+00   0.00000000E+00   0.00000000E+00   1.51509225E+04
   9.01250000E+02   5.00000000E-01   5.00000000E-01  -4.43995902E+04   3.02036899E+03   0.00000000E+00   9.14267834E+03   1.70391550E+03   6.24531676E+03   7.19372818E+01   0.00000000E+00   0.00000000E+00   0.00000000E+00   0.00000000E+00   5.50194608E-02   1.09717118E-05   9.38795194E+02   9.76684352E-06  -1.92910302E-06   0.00000000E+00   0.00000000E+00   0.00000000E+00   1.51493092E+04
   9.18750000E+02   5.00000000E-01   5.00000000E-01  -4.43993497E+04   3.02036899E+03   0.00000000E+00   9.14250946E+03   1.70396103E+03   6.24553318E+03   7.19372818E+01   0.00000000E+00   0.00000000E+00   0.00000000E+00   0.00000000E+00   4.73986135E-02   1.09717115E-05   9.38376199E+02   1.42053432E-05  -1.92910302E-06   0.00000000E+00   0.00000000E+00   0.00000000E+00   1.51477543E+04
   9.36250000E+02   5.00000000E-01   5.00000000E-01  -4.43989830E+04   3.02036899E+03   0.00000000E+00   9.14232616E+03   1.70400128E+03   6.24569408E+03   7.19372818E+01   0.00000000E+00   0.00000000E+00   0.00000000E+00   0.00000000E+00   4.07544417E-02   1.09717112E-05   9.37980418E+02   2.10685161E-05  -1.92910302E-06   0.00000000E+00   0.00000000E+00   0.00000000E+00   1.51462397E+04
   9.53750000E+02   5.00000000E-01   5.00000000E-01  -4.43984881E+04   3.02036899E+03   0.00000000E+00   9.14212699E+03   1.70403416E+03   6.24580237E+03   7.19372818E+01   0.00000000E+00   0.00000000E+00   0.00000000E+00   0.00000000E+00   3.49775483E-02   1.09717109E-05   9.37607336E+02   3.16728497E-05  -1.92910302E-06   0.00000000E+00   0.00000000E+00   0.00000000E+00   1.51447595E+04
   9.71250000E+02   5.00000000E-01   5.00000000E-01  -4.43978679E+04   3.02036899E+03   0.00000000E+00   9.14191163E+03   1.70405795E+03   6.24586177E+03   7.19372818E+01   0.00000000E+00   0.00000000E+00   0.00000000E+00   0.00000000E+00   2.99715312E-02   1.09717106E-05   9.37256508E+02   4.80586996E-05  -1.92910302E-06   0.00000000E+00   0.00000000E+00   0.00000000E+00   1.51433103E+04
   9.88750000E+02   5.00000000E-01   5.00000000E-01  -4.43971265E+04   3.02036899E+03   0.00000000E+00   9.14167965E+03   1.70407136E+03   6.24587645E+03   7.19372818E+01   0.00000000E+00   0.00000000E+00   0.00000000E+00   0.00000000E+00   2.56473978E-02   1.09717104E-05   9.36927306E+02   7.33976662E-05  -1.92910302E-06   0.00000000E+00   0.00000000E+00   0.00000000E+00   1.51418887E+04
   1.00625000E+03   5.00000000E-01   5.00000000E-01  -4.43962694E+04   3.02036899E+03   0.00000000E+00   9.14143065E+03   1.70407361E+03   6.24585076E+03   7.19372818E+01   0.00000000E+00   0.00000000E+00   0.00000000E+00   0.00000000E+00   2.19227989E-02   1.09717101E-05   9.36618866E+02   1.12635957E-04  -1.92910302E-06   0.00000000E+00   0.00000000E+00   0.00000000E+00   1.51404918E+04
   1.02375000E+03   5.00000000E-01   5.00000000E-01  -4.43953033E+04   3.02036899E+03   0.00000000E+00   9.14116462E+03   1.70406442E+03   6.24578895E+03   7.19372818E+01   0.00000000E+00   0.00000000E+00   0.00000000E+00   0.00000000E+00   1.87222633E-02   1.09717099E-05   9.36330118E+02   1.73514834E-04  -1.92910302E-06   0.00000000E+00   0.00000000E+00   0.00000000E+00   1.51391167E+04
   1.04125000E+03   5.00000000E-01   5.00000000E-01  -4.43942358E+04   3.02036899E+03   0.00000000E+00   9.14088185E+03   1.70404398E+03   6.24569507E+03   7.19372818E+01   0.00000000E+00   0.00000000E+00   0.00000000E+00   0.00000000E+00   1.59770935E-02   1.09717097E-05   9.36059791E+02   2.68196436E-04  -1.92910302E-06   0.00000000E+00   0.00000000E+00   0.00000000E+00   1.51377611E+04
   1.05875000E+03   5.00000000E-01   5.00000000E-01  -4.43930764E+04   3.02036899E+03   0.00000000E+00   9.14058345E+03   1.70401291E+03   6.24557279E+03   7.19372818E+01   0.00000000E+00   0.00000000E+00   0.00000000E+00   0.00000000E+00   1.36260270E-02   1.09717094E-05   9.35806547E+02   4.15866112E-04  -1.92910302E-06   0.00000000E+00   0.00000000E+00   0.00000000E+00   1.51364237E+04
   1.07625000E+03   5.00000000E-01   5.00000000E-01  -4.43918353E+04   3.02036899E+03   0.00000000E+00   9.14027111E+03   1.70397212E+03   6.24542535E+03   7.19372818E+01   0.00000000E+00   0.00000000E+00   0.00000000E+00   0.00000000E+00   1.16147982E-02   1.09717092E-05   9.35569018E+02   6.46917713E-04  -1.92910302E-06   0.00000000E+00   0.00000000E+00   0.00000000E+00   1.51351039E+04
   1.09375000E+03   5.00000000E-01   5.00000000E-01  -4.43905232E+04   3.02036899E+03   0.00000000E+00   9.13994704E+03   1.70392274E+03   6.24525555E+03   7.19372818E+01   0.00000000E+00   0.00000000E+00   0.00000000E+00   0.00000000E+00   9.89575619E-03   1.09717091E-05   9.35345864E+02   1.00971770E-03  -1.92910302E-06   0.00000000E+00   0.00000000E+00   0.00000000E+00   1.51338018E+04
   1.11125000E+03   5.00000000E-01   5.00000000E-01  -4.43891514E+04   3.02036899E+03   0.00000000E+00   9.13961391E+03   1.70386604E+03   6.24506579E+03   7.19372818E+01   0.00000000E+00   0.00000000E+00   0.00000000E+00   0.00000000E+00   8.42738402E-03   1.09717089E-05   9.35135812E+02   1.58159192E-03  -1.92910302E-06   0.00000000E+00   0.00000000E+00   0.00000000E+00   1.51325181E+04
   1.12875000E+03   5.00000000E-01   5.00000000E-01  -4.43877311E+04   3.02036899E+03   0.00000000E+00   9.13927471E+03   1.70380340E+03   6.24485809E+03   7.19372818E+01   0.00000000E+00   0.00000000E+00   0.00000000E+00   0.00000000E+00   7.17377285E-03   1.09717087E-05   9.34937703E+02   2.48676276E-03  -1.92910302E-06   0.00000000E+00   0.00000000E+00   0.00000000E+00   1.51312543E+04
   1.14625000E+03   5.00000000E-01   5.00000000E-01  -4.43862737E+04   3.02036899E+03   0.00000000E+00   9.13893271E+03   1.70373622E+03   6.24463413E+03   7.19372818E+01   0.00000000E+00   0.00000000E+00   0.00000000E+00   0.00000000E+00   6.10402832E-03   1.09717085E-05   9.34750511E+02   3.92578628E-03  -1.92910302E-06   0.00000000E+00   0.00000000E+00   0.00000000E+00   1.51300123E+04
   1.16375000E+03   5.00000000E-01   5.00000000E-01  -4.43847900E+04   3.02036899E+03   0.00000000E+00   9.13859129E+03   1.70366598E+03   6.24439527E+03   7.19372818E+01   0.00000000E+00   0.00000000E+00   0.00000000E+00   0.00000000E+00   5.19163174E-03   1.09717084E-05   9.34573352E+02   6.22411845E-03  -1.92910302E-06   0.00000000E+00   0.00000000E+00   0.00000000E+00   1.51287944E+04
   1.18125000E+03   5.00000000E-01   5.00000000E-01  -4.43832904E+04   3.02036899E+03   0.00000000E+00   9.13825386E+03   1.70359431E+03   6.24414262E+03   7.19372818E+01   0.00000000E+00   0.00000000E+00   0.00000000E+00   0.00000000E+00   4.41384172E-03   1.09717083E-05   9.34405475E+02   9.91267083E-03  -1.92910302E-06   0.00000000E+00   0.00000000E+00   0.00000000E+00   1.51276034E+04
   1.19875000E+03   5.00000000E-01   5.00000000E-01  -4.43817848E+04   3.02036899E+03   0.00000000E+00   9.13792371E+03   1.70352305E+03   6.24387709E+03   7.19372818E+01   0.00000000E+00   0.00000000E+00   0.00000000E+00   0.00000000E+00   3.75118012E-03   1.09717081E-05   9.34246248E+02   1.58621472E-02  -1.92910302E-06   0.00000000E+00   0.00000000E+00   0.00000000E+00   1.51264419E+04
   1.21625000E+03   5.00000000E-01   5.00000000E-01  -4.43802819E+04   3.02036899E+03   0.00000000E+00   9.13760400E+03   1.70345454E+03   6.24359937E+03   7.19372818E+01   0.00000000E+00   0.00000000E+00   0.00000000E+00   0.00000000E+00   3.18697635E-03   1.09717080E-05   9.34095134E+02   2.55082763E-02  -1.92910302E-06   0.00000000E+00   0.00000000E+00   0.00000000E+00   1.51253126E+04
   1.23375000E+03   5.00000000E-01   5.00000000E-01  -4.43787900E+04   3.02036899E+03   0.00000000E+00   9.13729766E+03   1.70339196E+03   6.24331006E+03   7.19372818E+01   0.00000000E+00   0.00000000E+00   0.00000000E+00   0.00000000E+00   2.70694787E-03   1.09717079E-05   9.33951666E+02   4.12314594E-02  -1.92910302E-06   0.00000000E+00   0.00000000E+00   0.00000000E+00   1.51242180E+04
   1.25125000E+03   5.00000000E-01   5.00000000E-01  -4.43773166E+04   3.02036898E+03   0.00000000E+00   9.13700737E+03   1.70334002E+03   6.24300966E+03   7.19372818E+01   0.00000000E+00   0.00000000E+00   0.00000000E+00   0.00000000E+00   2.29885976E-03   1.09717078E-05   9.33815420E+02   6.70000200E-02  -1.92910302E-06   0.00000000E+00   0.00000000E+00   0.00000000E+00   1.51231605E+04
   1.26875000E+03   5.00000000E-01   5.00000000E-01  -4.43758676E+04   3.02036898E+03   0.00000000E+00   9.13673531E+03   1.70330598E+03   6.24269862E+03   7.19372818E+01   0.00000000E+00   0.00000000E+00   0.00000000E+00   0.00000000E+00   1.95216177E-03   1.09717077E-05   9.33685981E+02   1.09465435E-01  -1.92910302E-06   0.00000000E+00   0.00000000E+00   0.00000000E+00   1.51221417E+04
   1.28625000E+03   5.00000000E-01   5.00000000E-01  -4.43744488E+04   3.02036898E+03   0.00000000E+00   9.13648352E+03   1.70330160E+03   6.24237744E+03   7.19372818E+01   0.00000000E+00   0.00000000E+00   0.00000000E+00   0.00000000E+00   1.65785552E-03   1.09717076E-05   9.33562942E+02   1.79835277E-01  -1.92910302E-06   0.00000000E+00   0.00000000E+00   0.00000000E+00   1.51211631E+04
   1.30375000E+03   5.00000000E-01   5.00000000E-01  -4.43730652E+04   3.02036898E+03   0.00000000E+00   9.13625367E+03   1.70334637E+03   6.24204660E+03   7.19372818E+01   0.00000000E+00   0.00000000E+00   0.00000000E+00   0.00000000E+00   1.40821686E-03   1.09717075E-05   9.33445884E+02   2.97087084E-01  -1.92910302E-06   0.00000000E+00   0.00000000E+00   0.00000000E+00   1.51202258E+04