 TITLE = "Total Component Concentration in Minerals" 
VARIABLES = "X"          "Y"              "Z"            "H+"             "Al+++"          "CO2(aq)"        "Mg++"           "Ca++"           "Fe++"           "Fe+++"          "Cl-"            "K+"             "Na+"            "SiO2(aq)"       "SO4--"          "O2(aq)"         "B(OH)3(aq)"     "HPO4--"         "NO3-"           "H4SiO4(aq)"    
 ZONE I=           1 , J=           1 , K=           1  F=POINT
   5.00000000E-01   5.00000000E-01   5.00000000E-01  -4.44634530E+04   7.50294726E+02   0.00000000E+00   1.94806459E+04   4.84948413E+03   1.00039297E+03   0.00000000E+00   0.00000000E+00   0.00000000E+00   2.50098242E+02   0.00000000E+00   4.34928765E+03   0.00000000E+00   0.00000000E+00   0.00000000E+00   0.00000000E+00   1.45981137E+04
