 TITLE = "Total Component Concentration in Minerals" 
VARIABLES = "X"          "Y"              "Z"            "H+"             "Al+++"          "CO2(aq)"        "Mg++"           "Ca++"           "Fe++"           "Fe+++"          "Ba++"           "Sr++"           "Cl-"            "F-"             "K+"             "HS-"            "Na+"            "SO4--"          "O2(aq)"         "B(OH)3(aq)"     "HPO4--"         "NO3-"           "H4SiO4(aq)"    
 ZONE I=         100 , J=           1 , K=           1  F=POINT
   1.75000000E+01   5.00000000E-01   5.00000000E-01  -5.15889470E+04   4.76125863E+03   0.00000000E+00   1.51072685E+04   2.81350589E+03   1.20400586E+03   7.19372705E+00   0.00000000E+00   0.00000000E+00   0.00000000E+00   0.00000000E+00   0.00000000E+00   0.00000000E+00   1.30896331E+03   1.13746691E+03   0.00000000E+00   0.00000000E+00   0.00000000E+00   0.00000000E+00   1.99138221E+04
   5.25000000E+01   5.00000000E-01   5.00000000E-01  -5.15786755E+04   4.76125334E+03   0.00000000E+00   1.50982381E+04   2.95599925E+03   1.20400634E+03   7.19372709E+00   0.00000000E+00   0.00000000E+00   0.00000000E+00   0.00000000E+00   0.00000000E+00   0.00000000E+00   1.31676652E+03   1.27995982E+03   0.00000000E+00   0.00000000E+00   0.00000000E+00   0.00000000E+00   1.99452157E+04
   8.75000000E+01   5.00000000E-01   5.00000000E-01  -5.15761506E+04   4.76125334E+03   0.00000000E+00   1.50950183E+04   3.11071072E+03   1.20400711E+03   7.19372707E+00   0.00000000E+00   0.00000000E+00   0.00000000E+00   0.00000000E+00   0.00000000E+00   0.00000000E+00   1.32067865E+03   1.43467071E+03   0.00000000E+00   0.00000000E+00   0.00000000E+00   0.00000000E+00   1.99624216E+04
   1.22500000E+02   5.00000000E-01   5.00000000E-01  -5.15756635E+04   4.76125334E+03   0.00000000E+00   1.50940091E+04   3.26675420E+03   1.20400814E+03   7.19372707E+00   0.00000000E+00   0.00000000E+00   0.00000000E+00   0.00000000E+00   0.00000000E+00   0.00000000E+00   1.32220681E+03   1.59071369E+03   0.00000000E+00   0.00000000E+00   0.00000000E+00   0.00000000E+00   1.99694476E+04
   1.57500000E+02   5.00000000E-01   5.00000000E-01  -5.15757059E+04   4.76125334E+03   0.00000000E+00   1.50937562E+04   3.41485073E+03   1.20400942E+03   7.19372707E+00   0.00000000E+00   0.00000000E+00   0.00000000E+00   0.00000000E+00   0.00000000E+00   0.00000000E+00   1.32275165E+03   1.73880985E+03   0.00000000E+00   0.00000000E+00   0.00000000E+00   0.00000000E+00   1.99720700E+04
   1.92500000E+02   5.00000000E-01   5.00000000E-01  -5.15759307E+04   4.76125334E+03   0.00000000E+00   1.50937881E+04   3.54831717E+03   1.20401093E+03   7.19372707E+00   0.00000000E+00   0.00000000E+00   0.00000000E+00   0.00000000E+00   0.00000000E+00   0.00000000E+00   1.32290914E+03   1.87227602E+03   0.00000000E+00   0.00000000E+00   0.00000000E+00   0.00000000E+00   1.99729406E+04
   2.27500000E+02   5.00000000E-01   5.00000000E-01  -5.15762342E+04   4.76125334E+03   0.00000000E+00   1.50939366E+04   3.66339546E+03   1.20401266E+03   7.19372707E+00   0.00000000E+00   0.00000000E+00   0.00000000E+00   0.00000000E+00   0.00000000E+00   0.00000000E+00   1.32291191E+03   1.98735414E+03   0.00000000E+00   0.00000000E+00   0.00000000E+00   0.00000000E+00   1.99731184E+04
   2.62500000E+02   5.00000000E-01   5.00000000E-01  -5.15765805E+04   4.76125334E+03   0.00000000E+00   1.50941384E+04   3.75894392E+03   1.20401461E+03   7.19372707E+00   0.00000000E+00   0.00000000E+00   0.00000000E+00   0.00000000E+00   0.00000000E+00   0.00000000E+00   1.32285041E+03   2.08290252E+03   0.00000000E+00   0.00000000E+00   0.00000000E+00   0.00000000E+00   1.99730185E+04
   2.97500000E+02   5.00000000E-01   5.00000000E-01  -5.15769564E+04   4.76125334E+03   0.00000000E+00   1.50943693E+04   3.83575837E+03   1.20401677E+03   7.19372707E+00   0.00000000E+00   0.00000000E+00   0.00000000E+00   0.00000000E+00   0.00000000E+00   0.00000000E+00   1.32276032E+03   2.15971694E+03   0.00000000E+00   0.00000000E+00   0.00000000E+00   0.00000000E+00   1.99728061E+04
   3.32500000E+02   5.00000000E-01   5.00000000E-01  -5.15773570E+04   4.76125334E+03   0.00000000E+00   1.50946194E+04   3.89559509E+03   1.20401913E+03   7.19372707E+00   0.00000000E+00   0.00000000E+00   0.00000000E+00   0.00000000E+00   0.00000000E+00   0.00000000E+00   1.32265598E+03   2.21955368E+03   0.00000000E+00   0.00000000E+00   0.00000000E+00   0.00000000E+00   1.99725476E+04
   3.67500000E+02   5.00000000E-01   5.00000000E-01  -5.15777804E+04   4.76125334E+03   0.00000000E+00   1.50948849E+04   3.94083563E+03   1.20402170E+03   7.19372707E+00   0.00000000E+00   0.00000000E+00   0.00000000E+00   0.00000000E+00   0.00000000E+00   0.00000000E+00   1.32254330E+03   2.26479426E+03   0.00000000E+00   0.00000000E+00   0.00000000E+00   0.00000000E+00   1.99722707E+04
   4.02500000E+02   5.00000000E-01   5.00000000E-01  -5.15782259E+04   4.76125334E+03   0.00000000E+00   1.50951642E+04   3.97447143E+03   1.20402447E+03   7.19372707E+00   0.00000000E+00   0.00000000E+00   0.00000000E+00   0.00000000E+00   0.00000000E+00   0.00000000E+00   1.32242473E+03   2.29843012E+03   0.00000000E+00   0.00000000E+00   0.00000000E+00   0.00000000E+00   1.99719867E+04
   4.37500000E+02   5.00000000E-01   5.00000000E-01  -5.15786928E+04   4.76125334E+03   0.00000000E+00   1.50954565E+04   3.99902604E+03   1.20402743E+03   7.19372707E+00   0.00000000E+00   0.00000000E+00   0.00000000E+00   0.00000000E+00   0.00000000E+00   0.00000000E+00   1.32230136E+03   2.32298481E+03   0.00000000E+00   0.00000000E+00   0.00000000E+00   0.00000000E+00   1.99717002E+04
   4.72500000E+02   5.00000000E-01   5.00000000E-01  -5.15791805E+04   4.76125334E+03   0.00000000E+00   1.50957610E+04   4.01655582E+03   1.20403059E+03   7.19372706E+00   0.00000000E+00   0.00000000E+00   0.00000000E+00   0.00000000E+00   0.00000000E+00   0.00000000E+00   1.32217376E+03   2.34051466E+03   0.00000000E+00   0.00000000E+00   0.00000000E+00   0.00000000E+00   1.99714129E+04
   5.07500000E+02   5.00000000E-01   5.00000000E-01  -5.15796876E+04   4.76125334E+03   0.00000000E+00   1.50960770E+04   4.02870247E+03   1.20403395E+03   7.19372706E+00   0.00000000E+00   0.00000000E+00   0.00000000E+00   0.00000000E+00   0.00000000E+00   0.00000000E+00   1.32204230E+03   2.35266138E+03   0.00000000E+00   0.00000000E+00   0.00000000E+00   0.00000000E+00   1.99711255E+04
   5.42500000E+02   5.00000000E-01   5.00000000E-01  -5.15802125E+04   4.76125334E+03   0.00000000E+00   1.50964034E+04   4.03675609E+03   1.20403750E+03   7.19372706E+00   0.00000000E+00   0.00000000E+00   0.00000000E+00   0.00000000E+00   0.00000000E+00   0.00000000E+00   1.32190732E+03   2.36071504E+03   0.00000000E+00   0.00000000E+00   0.00000000E+00   0.00000000E+00   1.99708379E+04
   5.77500000E+02   5.00000000E-01   5.00000000E-01  -5.15807528E+04   4.76125334E+03   0.00000000E+00   1.50967389E+04   4.04171779E+03   1.20404124E+03   7.19372706E+00   0.00000000E+00   0.00000000E+00   0.00000000E+00   0.00000000E+00   0.00000000E+00   0.00000000E+00   1.32176922E+03   2.36567675E+03   0.00000000E+00   0.00000000E+00   0.00000000E+00   0.00000000E+00   1.99705501E+04
   6.12500000E+02   5.00000000E-01   5.00000000E-01  -5.15813059E+04   4.76125334E+03   0.00000000E+00   1.50970819E+04   4.04435662E+03   1.20404518E+03   7.19372706E+00   0.00000000E+00   0.00000000E+00   0.00000000E+00   0.00000000E+00   0.00000000E+00   0.00000000E+00   1.32162841E+03   2.36831556E+03   0.00000000E+00   0.00000000E+00   0.00000000E+00   0.00000000E+00   1.99702617E+04
   6.47500000E+02   5.00000000E-01   5.00000000E-01  -5.15818683E+04   4.76125334E+03   0.00000000E+00   1.50974304E+04   4.04525850E+03   1.20404931E+03   7.19372706E+00   0.00000000E+00   0.00000000E+00   0.00000000E+00   0.00000000E+00   0.00000000E+00   0.00000000E+00   1.32148540E+03   2.36921740E+03   0.00000000E+00   0.00000000E+00   0.00000000E+00   0.00000000E+00   1.99699723E+04
   6.82500000E+02   5.00000000E-01   5.00000000E-01  -5.15824360E+04   4.76125334E+03   0.00000000E+00   1.50977822E+04   4.04486696E+03   1.20405365E+03   7.19372706E+00   0.00000000E+00   0.00000000E+00   0.00000000E+00   0.00000000E+00   0.00000000E+00   0.00000000E+00   1.32134075E+03   2.36882580E+03   0.00000000E+00   0.00000000E+00   0.00000000E+00   0.00000000E+00   1.99696816E+04
   7.17500000E+02   5.00000000E-01   5.00000000E-01  -5.15830048E+04   4.76125334E+03   0.00000000E+00   1.50981348E+04   4.04351606E+03   1.20405818E+03   7.19372706E+00   0.00000000E+00   0.00000000E+00   0.00000000E+00   0.00000000E+00   0.00000000E+00   0.00000000E+00   1.32119508E+03   2.36747481E+03   0.00000000E+00   0.00000000E+00   0.00000000E+00   0.00000000E+00   1.99693891E+04
   7.52500000E+02   5.00000000E-01   5.00000000E-01  -5.15835696E+04   4.76125334E+03   0.00000000E+00   1.50984854E+04   4.04145651E+03   1.20406291E+03   7.19372705E+00   0.00000000E+00   0.00000000E+00   0.00000000E+00   0.00000000E+00   0.00000000E+00   0.00000000E+00   1.32104906E+03   2.36541519E+03   0.00000000E+00   0.00000000E+00   0.00000000E+00   0.00000000E+00   1.99690945E+04
   7.87500000E+02   5.00000000E-01   5.00000000E-01  -5.15841251E+04   4.76125334E+03   0.00000000E+00   1.50988310E+04   4.03887616E+03   1.20406785E+03   7.19372705E+00   0.00000000E+00   0.00000000E+00   0.00000000E+00   0.00000000E+00   0.00000000E+00   0.00000000E+00   1.32090340E+03   2.36283474E+03   0.00000000E+00   0.00000000E+00   0.00000000E+00   0.00000000E+00   1.99687972E+04
   8.22500000E+02   5.00000000E-01   5.00000000E-01  -5.15846657E+04   4.76125334E+03   0.00000000E+00   1.50991683E+04   4.03591568E+03   1.20407299E+03   7.19372705E+00   0.00000000E+00   0.00000000E+00   0.00000000E+00   0.00000000E+00   0.00000000E+00   0.00000000E+00   1.32075885E+03   2.35987415E+03   0.00000000E+00   0.00000000E+00   0.00000000E+00   0.00000000E+00   1.99684969E+04
   8.57500000E+02   5.00000000E-01   5.00000000E-01  -5.15851855E+04   4.76125334E+03   0.00000000E+00   1.50994941E+04   4.03268057E+03   1.20407833E+03   7.19372704E+00   0.00000000E+00   0.00000000E+00   0.00000000E+00   0.00000000E+00   0.00000000E+00   0.00000000E+00   1.32061618E+03   2.35663893E+03   0.00000000E+00   0.00000000E+00   0.00000000E+00   0.00000000E+00   1.99681930E+04
   8.92500000E+02   5.00000000E-01   5.00000000E-01  -5.15856785E+04   4.76125334E+03   0.00000000E+00   1.50998050E+04   4.02925021E+03   1.20408388E+03   7.19372703E+00   0.00000000E+00   0.00000000E+00   0.00000000E+00   0.00000000E+00   0.00000000E+00   0.00000000E+00   1.32047614E+03   2.35320846E+03   0.00000000E+00   0.00000000E+00   0.00000000E+00   0.00000000E+00   1.99678852E+04
   9.27500000E+02   5.00000000E-01   5.00000000E-01  -5.15861388E+04   4.76125334E+03   0.00000000E+00   1.51000975E+04   4.02568462E+03   1.20408962E+03   7.19372702E+00   0.00000000E+00   0.00000000E+00   0.00000000E+00   0.00000000E+00   0.00000000E+00   0.00000000E+00   1.32033951E+03   2.34964275E+03   0.00000000E+00   0.00000000E+00   0.00000000E+00   0.00000000E+00   1.99675730E+04
   9.62500000E+02   5.00000000E-01   5.00000000E-01  -5.15865604E+04   4.76125334E+03   0.00000000E+00   1.51003685E+04   4.02202942E+03   1.20409557E+03   7.19372701E+00   0.00000000E+00   0.00000000E+00   0.00000000E+00   0.00000000E+00   0.00000000E+00   0.00000000E+00   1.32020700E+03   2.34598742E+03   0.00000000E+00   0.00000000E+00   0.00000000E+00   0.00000000E+00   1.99672560E+04
   9.97500000E+02   5.00000000E-01   5.00000000E-01  -5.15869380E+04   4.76125334E+03   0.00000000E+00   1.51006149E+04   4.01831953E+03   1.20410171E+03   7.19372699E+00   0.00000000E+00   0.00000000E+00   0.00000000E+00   0.00000000E+00   0.00000000E+00   0.00000000E+00   1.32007930E+03   2.34227740E+03   0.00000000E+00   0.00000000E+00   0.00000000E+00   0.00000000E+00   1.99669339E+04
   1.03250000E+03   5.00000000E-01   5.00000000E-01  -5.15872665E+04   4.76125334E+03   0.00000000E+00   1.51008338E+04   4.01458186E+03   1.20410805E+03   7.19372696E+00   0.00000000E+00   0.00000000E+00   0.00000000E+00   0.00000000E+00   0.00000000E+00   0.00000000E+00   1.31995704E+03   2.33853960E+03   0.00000000E+00   0.00000000E+00   0.00000000E+00   0.00000000E+00   1.99666064E+04
   1.06750000E+03   5.00000000E-01   5.00000000E-01  -5.15875416E+04   4.76125334E+03   0.00000000E+00   1.51010228E+04   4.01083726E+03   1.20411456E+03   7.19372693E+00   0.00000000E+00   0.00000000E+00   0.00000000E+00   0.00000000E+00   0.00000000E+00   0.00000000E+00   1.31984076E+03   2.33479485E+03   0.00000000E+00   0.00000000E+00   0.00000000E+00   0.00000000E+00   1.99662736E+04
   1.10250000E+03   5.00000000E-01   5.00000000E-01  -5.15877595E+04   4.76125334E+03   0.00000000E+00   1.51011798E+04   4.00710192E+03   1.20412126E+03   7.19372689E+00   0.00000000E+00   0.00000000E+00   0.00000000E+00   0.00000000E+00   0.00000000E+00   0.00000000E+00   1.31973096E+03   2.33105937E+03   0.00000000E+00   0.00000000E+00   0.00000000E+00   0.00000000E+00   1.99659352E+04
   1.13750000E+03   5.00000000E-01   5.00000000E-01  -5.15879173E+04   4.76125334E+03   0.00000000E+00   1.51013032E+04   4.00338847E+03   1.20412812E+03   7.19372683E+00   0.00000000E+00   0.00000000E+00   0.00000000E+00   0.00000000E+00   0.00000000E+00   0.00000000E+00   1.31962800E+03   2.32734578E+03   0.00000000E+00   0.00000000E+00   0.00000000E+00   0.00000000E+00   1.99655915E+04
   1.17250000E+03   5.00000000E-01   5.00000000E-01  -5.15880132E+04   4.76125334E+03   0.00000000E+00   1.51013919E+04   3.99970668E+03   1.20413515E+03   7.19372676E+00   0.00000000E+00   0.00000000E+00   0.00000000E+00   0.00000000E+00   0.00000000E+00   0.00000000E+00   1.31953217E+03   2.32366384E+03   0.00000000E+00   0.00000000E+00   0.00000000E+00   0.00000000E+00   1.99652427E+04
   1.20750000E+03   5.00000000E-01   5.00000000E-01  -5.15880463E+04   4.76125334E+03   0.00000000E+00   1.51014454E+04   3.99606405E+03   1.20414232E+03   7.19372667E+00   0.00000000E+00   0.00000000E+00   0.00000000E+00   0.00000000E+00   0.00000000E+00   0.00000000E+00   1.31944364E+03   2.32002106E+03   0.00000000E+00   0.00000000E+00   0.00000000E+00   0.00000000E+00   1.99648892E+04
   1.24250000E+03   5.00000000E-01   5.00000000E-01  -5.15880166E+04   4.76125334E+03   0.00000000E+00   1.51014637E+04   3.99246625E+03   1.20414962E+03   7.19372654E+00   0.00000000E+00   0.00000000E+00   0.00000000E+00   0.00000000E+00   0.00000000E+00   0.00000000E+00   1.31936249E+03   2.31642311E+03   0.00000000E+00   0.00000000E+00   0.00000000E+00   0.00000000E+00   1.99645315E+04
   1.27750000E+03   5.00000000E-01   5.00000000E-01  -5.15879252E+04   4.76125334E+03   0.00000000E+00   1.51014473E+04   3.98891742E+03   1.20415705E+03   7.19372638E+00   0.00000000E+00   0.00000000E+00   0.00000000E+00   0.00000000E+00   0.00000000E+00   0.00000000E+00   1.31928867E+03   2.31287413E+03   0.00000000E+00   0.00000000E+00   0.00000000E+00   0.00000000E+00   1.99641704E+04
   1.31250000E+03   5.00000000E-01   5.00000000E-01  -5.15877742E+04   4.76125334E+03   0.00000000E+00   1.51013974E+04   3.98542041E+03   1.20416458E+03   7.19372618E+00   0.00000000E+00   0.00000000E+00   0.00000000E+00   0.00000000E+00   0.00000000E+00   0.00000000E+00   1.31922207E+03   2.30937698E+03   0.00000000E+00   0.00000000E+00   0.00000000E+00   0.00000000E+00   1.99638067E+04
   1.34750000E+03   5.00000000E-01   5.00000000E-01  -5.15875665E+04   4.76125334E+03   0.00000000E+00   1.51013156E+04   3.98197705E+03   1.20417221E+03   7.19372591E+00   0.00000000E+00   0.00000000E+00   0.00000000E+00   0.00000000E+00   0.00000000E+00   0.00000000E+00   1.31916244E+03   2.30593346E+03   0.00000000E+00   0.00000000E+00   0.00000000E+00   0.00000000E+00   1.99634411E+04
   1.38250000E+03   5.00000000E-01   5.00000000E-01  -5.15873060E+04   4.76125334E+03   0.00000000E+00   1.51012040E+04   3.97858823E+03   1.20417991E+03   7.19372557E+00   0.00000000E+00   0.00000000E+00   0.00000000E+00   0.00000000E+00   0.00000000E+00   0.00000000E+00   1.31910949E+03   2.30254450E+03   0.00000000E+00   0.00000000E+00   0.00000000E+00   0.00000000E+00   1.99630748E+04
   1.41750000E+03   5.00000000E-01   5.00000000E-01  -5.15869970E+04   4.76125334E+03   0.00000000E+00   1.51010649E+04   3.97525411E+03   1.20418768E+03   7.19372514E+00   0.00000000E+00   0.00000000E+00   0.00000000E+00   0.00000000E+00   0.00000000E+00   0.00000000E+00   1.31906283E+03   2.29921023E+03   0.00000000E+00   0.00000000E+00   0.00000000E+00   0.00000000E+00   1.99627088E+04
   1.45250000E+03   5.00000000E-01   5.00000000E-01  -5.15866446E+04   4.76125334E+03   0.00000000E+00   1.51009012E+04   3.97197419E+03   1.20419550E+03   7.19372459E+00   0.00000000E+00   0.00000000E+00   0.00000000E+00   0.00000000E+00   0.00000000E+00   0.00000000E+00   1.31902204E+03   2.29593017E+03   0.00000000E+00   0.00000000E+00   0.00000000E+00   0.00000000E+00   1.99623441E+04
   1.48750000E+03   5.00000000E-01   5.00000000E-01  -5.15862542E+04   4.76125334E+03   0.00000000E+00   1.51007157E+04   3.96874745E+03   1.20420336E+03   7.19372389E+00   0.00000000E+00   0.00000000E+00   0.00000000E+00   0.00000000E+00   0.00000000E+00   0.00000000E+00   1.31898663E+03   2.29270329E+03   0.00000000E+00   0.00000000E+00   0.00000000E+00   0.00000000E+00   1.99619819E+04
   1.52250000E+03   5.00000000E-01   5.00000000E-01  -5.15858313E+04   4.76125333E+03   0.00000000E+00   1.51005115E+04   3.96557243E+03   1.20421123E+03   7.19372301E+00   0.00000000E+00   0.00000000E+00   0.00000000E+00   0.00000000E+00   0.00000000E+00   0.00000000E+00   1.31895612E+03   2.28952813E+03   0.00000000E+00   0.00000000E+00   0.00000000E+00   0.00000000E+00   1.99616231E+04
   1.55750000E+03   5.00000000E-01   5.00000000E-01  -5.15853818E+04   4.76125333E+03   0.00000000E+00   1.51002918E+04   3.96244731E+03   1.20421912E+03   7.19372190E+00   0.00000000E+00   0.00000000E+00   0.00000000E+00   0.00000000E+00   0.00000000E+00   0.00000000E+00   1.31892999E+03   2.28640288E+03   0.00000000E+00   0.00000000E+00   0.00000000E+00   0.00000000E+00   1.99612687E+04
   1.59250000E+03   5.00000000E-01   5.00000000E-01  -5.15849113E+04   4.76125333E+03   0.00000000E+00   1.51000596E+04   3.95937000E+03   1.20422700E+03   7.19372050E+00   0.00000000E+00   0.00000000E+00   0.00000000E+00   0.00000000E+00   0.00000000E+00   0.00000000E+00   1.31890774E+03   2.28332545E+03   0.00000000E+00   0.00000000E+00   0.00000000E+00   0.00000000E+00   1.99609198E+04
   1.62750000E+03   5.00000000E-01   5.00000000E-01  -5.15844253E+04   4.76125333E+03   0.00000000E+00   1.50998181E+04   3.95633822E+03   1.20423486E+03   7.19371874E+00   0.00000000E+00   0.00000000E+00   0.00000000E+00   0.00000000E+00   0.00000000E+00   0.00000000E+00   1.31888888E+03   2.28029353E+03   0.00000000E+00   0.00000000E+00   0.00000000E+00   0.00000000E+00   1.99605771E+04
   1.66250000E+03   5.00000000E-01   5.00000000E-01  -5.15839291E+04   4.76125333E+03   0.00000000E+00   1.50995700E+04   3.95334953E+03   1.20424271E+03   7.19371657E+00   0.00000000E+00   0.00000000E+00   0.00000000E+00   0.00000000E+00   0.00000000E+00   0.00000000E+00   1.31887295E+03   2.27730471E+03   0.00000000E+00   0.00000000E+00   0.00000000E+00   0.00000000E+00   1.99602413E+04
   1.69750000E+03   5.00000000E-01   5.00000000E-01  -5.15834276E+04   4.76125333E+03   0.00000000E+00   1.50993180E+04   3.95040144E+03   1.20425052E+03   7.19371393E+00   0.00000000E+00   0.00000000E+00   0.00000000E+00   0.00000000E+00   0.00000000E+00   0.00000000E+00   1.31885953E+03   2.27435651E+03   0.00000000E+00   0.00000000E+00   0.00000000E+00   0.00000000E+00   1.99599132E+04
   1.73250000E+03   5.00000000E-01   5.00000000E-01  -5.15829251E+04   4.76125333E+03   0.00000000E+00   1.50990645E+04   3.94749148E+03   1.20425829E+03   7.19371078E+00   0.00000000E+00   0.00000000E+00   0.00000000E+00   0.00000000E+00   0.00000000E+00   0.00000000E+00   1.31884825E+03   2.27144643E+03   0.00000000E+00   0.00000000E+00   0.00000000E+00   0.00000000E+00   1.99595935E+04
   1.76750000E+03   5.00000000E-01   5.00000000E-01  -5.15824257E+04   4.76125333E+03   0.00000000E+00   1.50988117E+04   3.94461722E+03   1.20426602E+03   7.19370708E+00   0.00000000E+00   0.00000000E+00   0.00000000E+00   0.00000000E+00   0.00000000E+00   0.00000000E+00   1.31883877E+03   2.26857205E+03   0.00000000E+00   0.00000000E+00   0.00000000E+00   0.00000000E+00   1.99592825E+04
   1.80250000E+03   5.00000000E-01   5.00000000E-01  -5.15819330E+04   4.76125333E+03   0.00000000E+00   1.50985615E+04   3.94177637E+03   1.20427371E+03   7.19370276E+00   0.00000000E+00   0.00000000E+00   0.00000000E+00   0.00000000E+00   0.00000000E+00   0.00000000E+00   1.31883082E+03   2.26573107E+03   0.00000000E+00   0.00000000E+00   0.00000000E+00   0.00000000E+00   1.99589808E+04
   1.83750000E+03   5.00000000E-01   5.00000000E-01  -5.15814498E+04   4.76125333E+03   0.00000000E+00   1.50983155E+04   3.93896682E+03   1.20428135E+03   7.19369771E+00   0.00000000E+00   0.00000000E+00   0.00000000E+00   0.00000000E+00   0.00000000E+00   0.00000000E+00   1.31882420E+03   2.26292141E+03   0.00000000E+00   0.00000000E+00   0.00000000E+00   0.00000000E+00   1.99586886E+04
   1.87250000E+03   5.00000000E-01   5.00000000E-01  -5.15809788E+04   4.76125332E+03   0.00000000E+00   1.50980750E+04   3.93618673E+03   1.20428896E+03   7.19369177E+00   0.00000000E+00   0.00000000E+00   0.00000000E+00   0.00000000E+00   0.00000000E+00   0.00000000E+00   1.31881872E+03   2.26014120E+03   0.00000000E+00   0.00000000E+00   0.00000000E+00   0.00000000E+00   1.99584064E+04
   1.90750000E+03   5.00000000E-01   5.00000000E-01  -5.15805219E+04   4.76125332E+03   0.00000000E+00   1.50978411E+04   3.93343454E+03   1.20429654E+03   7.19368475E+00   0.00000000E+00   0.00000000E+00   0.00000000E+00   0.00000000E+00   0.00000000E+00   0.00000000E+00   1.31881428E+03   2.25738888E+03   0.00000000E+00   0.00000000E+00   0.00000000E+00   0.00000000E+00   1.99581345E+04
   1.94250000E+03   5.00000000E-01   5.00000000E-01  -5.15800809E+04   4.76125332E+03   0.00000000E+00   1.50976147E+04   3.93070905E+03   1.20430411E+03   7.19367651E+00   0.00000000E+00   0.00000000E+00   0.00000000E+00   0.00000000E+00   0.00000000E+00   0.00000000E+00   1.31881084E+03   2.25466328E+03   0.00000000E+00   0.00000000E+00   0.00000000E+00   0.00000000E+00   1.99578730E+04
   1.97750000E+03   5.00000000E-01   5.00000000E-01  -5.15796569E+04   4.76125332E+03   0.00000000E+00   1.50973962E+04   3.92800950E+03   1.20431167E+03   7.19366708E+00   0.00000000E+00   0.00000000E+00   0.00000000E+00   0.00000000E+00   0.00000000E+00   0.00000000E+00   1.31880837E+03   2.25196360E+03   0.00000000E+00   0.00000000E+00   0.00000000E+00   0.00000000E+00   1.99576223E+04
   2.01250000E+03   5.00000000E-01   5.00000000E-01  -5.15792509E+04   4.76125332E+03   0.00000000E+00   1.50971862E+04   3.92533554E+03   1.20431925E+03   7.19365666E+00   0.00000000E+00   0.00000000E+00   0.00000000E+00   0.00000000E+00   0.00000000E+00   0.00000000E+00   1.31880693E+03   2.24928951E+03   0.00000000E+00   0.00000000E+00   0.00000000E+00   0.00000000E+00   1.99573826E+04
   2.04750000E+03   5.00000000E-01   5.00000000E-01  -5.15788632E+04   4.76125332E+03   0.00000000E+00   1.50969848E+04   3.92268731E+03   1.20432688E+03   7.19364561E+00   0.00000000E+00   0.00000000E+00   0.00000000E+00   0.00000000E+00   0.00000000E+00   0.00000000E+00   1.31880659E+03   2.24664116E+03   0.00000000E+00   0.00000000E+00   0.00000000E+00   0.00000000E+00   1.99571542E+04
   2.08250000E+03   5.00000000E-01   5.00000000E-01  -5.15784943E+04   4.76125331E+03   0.00000000E+00   1.50967921E+04   3.92006549E+03   1.20433458E+03   7.19363431E+00   0.00000000E+00   0.00000000E+00   0.00000000E+00   0.00000000E+00   0.00000000E+00   0.00000000E+00   1.31880748E+03   2.24401919E+03   0.00000000E+00   0.00000000E+00   0.00000000E+00   0.00000000E+00   1.99569374E+04
   2.11750000E+03   5.00000000E-01   5.00000000E-01  -5.15781442E+04   4.76125331E+03   0.00000000E+00   1.50966080E+04   3.91747123E+03   1.20434241E+03   7.19362304E+00   0.00000000E+00   0.00000000E+00   0.00000000E+00   0.00000000E+00   0.00000000E+00   0.00000000E+00   1.31880977E+03   2.24142478E+03   0.00000000E+00   0.00000000E+00   0.00000000E+00   0.00000000E+00   1.99567324E+04
   2.15250000E+03   5.00000000E-01   5.00000000E-01  -5.15778127E+04   4.76125331E+03   0.00000000E+00   1.50964321E+04   3.91490622E+03   1.20435041E+03   7.19361203E+00   0.00000000E+00   0.00000000E+00   0.00000000E+00   0.00000000E+00   0.00000000E+00   0.00000000E+00   1.31881365E+03   2.23885961E+03   0.00000000E+00   0.00000000E+00   0.00000000E+00   0.00000000E+00   1.99565396E+04
   2.18750000E+03   5.00000000E-01   5.00000000E-01  -5.15774994E+04   4.76125331E+03   0.00000000E+00   1.50962643E+04   3.91237265E+03   1.20435863E+03   7.19360142E+00   0.00000000E+00   0.00000000E+00   0.00000000E+00   0.00000000E+00   0.00000000E+00   0.00000000E+00   1.31881937E+03   2.23632588E+03   0.00000000E+00   0.00000000E+00   0.00000000E+00   0.00000000E+00   1.99563595E+04
   2.22250000E+03   5.00000000E-01   5.00000000E-01  -5.15772040E+04   4.76125330E+03   0.00000000E+00   1.50961040E+04   3.90987317E+03   1.20436713E+03   7.19359129E+00   0.00000000E+00   0.00000000E+00   0.00000000E+00   0.00000000E+00   0.00000000E+00   0.00000000E+00   1.31882719E+03   2.23382623E+03   0.00000000E+00   0.00000000E+00   0.00000000E+00   0.00000000E+00   1.99561924E+04
   2.25750000E+03   5.00000000E-01   5.00000000E-01  -5.15769258E+04   4.76125330E+03   0.00000000E+00   1.50959507E+04   3.90741084E+03   1.20437601E+03   7.19358158E+00   0.00000000E+00   0.00000000E+00   0.00000000E+00   0.00000000E+00   0.00000000E+00   0.00000000E+00   1.31883742E+03   2.23136372E+03   0.00000000E+00   0.00000000E+00   0.00000000E+00   0.00000000E+00   1.99560389E+04
   2.29250000E+03   5.00000000E-01   5.00000000E-01  -5.15766642E+04   4.76125330E+03   0.00000000E+00   1.50958040E+04   3.90498907E+03   1.20438535E+03   7.19357191E+00   0.00000000E+00   0.00000000E+00   0.00000000E+00   0.00000000E+00   0.00000000E+00   0.00000000E+00   1.31885039E+03   2.22894176E+03   0.00000000E+00   0.00000000E+00   0.00000000E+00   0.00000000E+00   1.99558996E+04
   2.32750000E+03   5.00000000E-01   5.00000000E-01  -5.15764185E+04   4.76125329E+03   0.00000000E+00   1.50956630E+04   3.90261153E+03   1.20439526E+03   7.19356171E+00   0.00000000E+00   0.00000000E+00   0.00000000E+00   0.00000000E+00   0.00000000E+00   0.00000000E+00   1.31886648E+03   2.22656404E+03   0.00000000E+00   0.00000000E+00   0.00000000E+00   0.00000000E+00   1.99557752E+04
   2.36250000E+03   5.00000000E-01   5.00000000E-01  -5.15761879E+04   4.76125329E+03   0.00000000E+00   1.50955271E+04   3.90028209E+03   1.20440586E+03   7.19355048E+00   0.00000000E+00   0.00000000E+00   0.00000000E+00   0.00000000E+00   0.00000000E+00   0.00000000E+00   1.31888611E+03   2.22423440E+03   0.00000000E+00   0.00000000E+00   0.00000000E+00   0.00000000E+00   1.99556665E+04
   2.39750000E+03   5.00000000E-01   5.00000000E-01  -5.15759715E+04   4.76125329E+03   0.00000000E+00   1.50953955E+04   3.89800466E+03   1.20441731E+03   7.19353807E+00   0.00000000E+00   0.00000000E+00   0.00000000E+00   0.00000000E+00   0.00000000E+00   0.00000000E+00   1.31890972E+03   2.22195677E+03   0.00000000E+00   0.00000000E+00   0.00000000E+00   0.00000000E+00   1.99555745E+04
   2.43250000E+03   5.00000000E-01   5.00000000E-01  -5.15757686E+04   4.76125328E+03   0.00000000E+00   1.50952673E+04   3.89578315E+03   1.20442979E+03   7.19352491E+00   0.00000000E+00   0.00000000E+00   0.00000000E+00   0.00000000E+00   0.00000000E+00   0.00000000E+00   1.31893784E+03   2.21973506E+03   0.00000000E+00   0.00000000E+00   0.00000000E+00   0.00000000E+00   1.99555002E+04
   2.46750000E+03   5.00000000E-01   5.00000000E-01  -5.15755782E+04   4.76125328E+03   0.00000000E+00   1.50951416E+04   3.89362134E+03   1.20444351E+03   7.19351203E+00   0.00000000E+00   0.00000000E+00   0.00000000E+00   0.00000000E+00   0.00000000E+00   0.00000000E+00   1.31897102E+03   2.21757303E+03   0.00000000E+00   0.00000000E+00   0.00000000E+00   0.00000000E+00   1.99554449E+04
   2.50250000E+03   5.00000000E-01   5.00000000E-01  -5.15753994E+04   4.76125327E+03   0.00000000E+00   1.50950173E+04   3.89152276E+03   1.20445873E+03   7.19350080E+00   0.00000000E+00   0.00000000E+00   0.00000000E+00   0.00000000E+00   0.00000000E+00   0.00000000E+00   1.31900991E+03   2.21547422E+03   0.00000000E+00   0.00000000E+00   0.00000000E+00   0.00000000E+00   1.99554101E+04
   2.53750000E+03   5.00000000E-01   5.00000000E-01  -5.15752314E+04   4.76125327E+03   0.00000000E+00   1.50948934E+04   3.88949065E+03   1.20447577E+03   7.19349269E+00   0.00000000E+00   0.00000000E+00   0.00000000E+00   0.00000000E+00   0.00000000E+00   0.00000000E+00   1.31905521E+03   2.21344184E+03   0.00000000E+00   0.00000000E+00   0.00000000E+00   0.00000000E+00   1.99553975E+04
   2.57250000E+03   5.00000000E-01   5.00000000E-01  -5.15750732E+04   4.76125326E+03   0.00000000E+00   1.50947685E+04   3.88752783E+03   1.20449500E+03   7.19348890E+00   0.00000000E+00   0.00000000E+00   0.00000000E+00   0.00000000E+00   0.00000000E+00   0.00000000E+00   1.31910773E+03   2.21147871E+03   0.00000000E+00   0.00000000E+00   0.00000000E+00   0.00000000E+00   1.99554091E+04
   2.60750000E+03   5.00000000E-01   5.00000000E-01  -5.15749238E+04   4.76125326E+03   0.00000000E+00   1.50946411E+04   3.88563670E+03   1.20451693E+03   7.19349015E+00   0.00000000E+00   0.00000000E+00   0.00000000E+00   0.00000000E+00   0.00000000E+00   0.00000000E+00   1.31916843E+03   2.20958720E+03   0.00000000E+00   0.00000000E+00   0.00000000E+00   0.00000000E+00   1.99554472E+04