 TITLE = "Total Component Concentration in Minerals" 
VARIABLES = "X"          "Y"              "Z"            "H+"             "Al+++"          "CO2(aq)"        "Mg++"           "Ca++"           "Fe++"           "Fe+++"          "Ba++"           "Sr++"           "Cl-"            "F-"             "K+"             "Na+"            "SO4--"          "O2(aq)"         "B(OH)3(aq)"     "HPO4--"         "NO3-"           "H4SiO4(aq)"    
 ZONE I=         100 , J=           1 , K=           1  F=POINT
   1.75000000E+01   5.00000000E-01   5.00000000E-01  -5.31399330E+04   2.29395317E+03   0.00000000E+00   1.95298759E+04   6.31776892E+02   2.20225742E+03   7.19372705E+00   0.00000000E+00   0.00000000E+00   0.00000000E+00   0.00000000E+00   3.09929207E+00   1.53512152E+03   1.47744610E+01   0.00000000E+00   0.00000000E+00   0.00000000E+00   0.00000000E+00   1.93470043E+04
   5.25000000E+01   5.00000000E-01   5.00000000E-01  -5.31198300E+04   2.29394578E+03   0.00000000E+00   1.95177924E+04   2.33716300E+03   2.20225766E+03   7.19372705E+00   0.00000000E+00   0.00000000E+00   0.00000000E+00   0.00000000E+00   3.52969255E+00   1.53877518E+03   1.72015981E+03   0.00000000E+00   0.00000000E+00   0.00000000E+00   0.00000000E+00   1.93522586E+04
   8.75000000E+01   5.00000000E-01   5.00000000E-01  -5.31185255E+04   2.29394578E+03   0.00000000E+00   1.95163756E+04   4.28753120E+03   2.20225802E+03   7.19372704E+00   0.00000000E+00   0.00000000E+00   0.00000000E+00   0.00000000E+00   3.36298077E+00   1.54046986E+03   3.67052776E+03   0.00000000E+00   0.00000000E+00   0.00000000E+00   0.00000000E+00   1.93571936E+04
   1.22500000E+02   5.00000000E-01   5.00000000E-01  -5.31182604E+04   2.29394578E+03   0.00000000E+00   1.95158731E+04   4.96578956E+03   2.20225848E+03   7.19372704E+00   0.00000000E+00   0.00000000E+00   0.00000000E+00   0.00000000E+00   3.22573554E+00   1.54134586E+03   4.34878601E+03   0.00000000E+00   0.00000000E+00   0.00000000E+00   0.00000000E+00   1.93596137E+04
   1.57500000E+02   5.00000000E-01   5.00000000E-01  -5.31183508E+04   2.29394578E+03   0.00000000E+00   1.95157307E+04   5.13827308E+03   2.20225903E+03   7.19372703E+00   0.00000000E+00   0.00000000E+00   0.00000000E+00   0.00000000E+00   3.14190954E+00   1.54180362E+03   4.52126946E+03   0.00000000E+00   0.00000000E+00   0.00000000E+00   0.00000000E+00   1.93609375E+04
   1.92500000E+02   5.00000000E-01   5.00000000E-01  -5.31186284E+04   2.29394578E+03   0.00000000E+00   1.95157804E+04   5.18047347E+03   2.20225968E+03   7.19372702E+00   0.00000000E+00   0.00000000E+00   0.00000000E+00   0.00000000E+00   3.09726485E+00   1.54202509E+03   4.56346977E+03   0.00000000E+00   0.00000000E+00   0.00000000E+00   0.00000000E+00   1.93617047E+04
   2.27500000E+02   5.00000000E-01   5.00000000E-01  -5.31190242E+04   2.29394578E+03   0.00000000E+00   1.95159474E+04   5.19187661E+03   2.20226040E+03   7.19372701E+00   0.00000000E+00   0.00000000E+00   0.00000000E+00   0.00000000E+00   3.07887261E+00   1.54210367E+03   4.57487282E+03   0.00000000E+00   0.00000000E+00   0.00000000E+00   0.00000000E+00   1.93621595E+04
   2.62500000E+02   5.00000000E-01   5.00000000E-01  -5.31195041E+04   2.29394578E+03   0.00000000E+00   1.95161931E+04   5.19564243E+03   2.20226119E+03   7.19372700E+00   0.00000000E+00   0.00000000E+00   0.00000000E+00   0.00000000E+00   3.07786462E+00   1.54209141E+03   4.57863856E+03   0.00000000E+00   0.00000000E+00   0.00000000E+00   0.00000000E+00   1.93624274E+04
   2.97500000E+02   5.00000000E-01   5.00000000E-01  -5.31200496E+04   2.29394578E+03   0.00000000E+00   1.95164958E+04   5.19710242E+03   2.20226204E+03   7.19372700E+00   0.00000000E+00   0.00000000E+00   0.00000000E+00   0.00000000E+00   3.08842150E+00   1.54201905E+03   4.58009848E+03   0.00000000E+00   0.00000000E+00   0.00000000E+00   0.00000000E+00   1.93625791E+04
   3.32500000E+02   5.00000000E-01   5.00000000E-01  -5.31206499E+04   2.29394578E+03   0.00000000E+00   1.95168426E+04   5.19749723E+03   2.20226295E+03   7.19372699E+00   0.00000000E+00   0.00000000E+00   0.00000000E+00   0.00000000E+00   3.10672666E+00   1.54190554E+03   4.58049320E+03   0.00000000E+00   0.00000000E+00   0.00000000E+00   0.00000000E+00   1.93626565E+04
   3.67500000E+02   5.00000000E-01   5.00000000E-01  -5.31212979E+04   2.29394578E+03   0.00000000E+00   1.95172251E+04   5.19714593E+03   2.20226390E+03   7.19372698E+00   0.00000000E+00   0.00000000E+00   0.00000000E+00   0.00000000E+00   3.13024454E+00   1.54176295E+03   4.58014181E+03   0.00000000E+00   0.00000000E+00   0.00000000E+00   0.00000000E+00   1.93626856E+04
   4.02500000E+02   5.00000000E-01   5.00000000E-01  -5.31219885E+04   2.29394578E+03   0.00000000E+00   1.95176377E+04   5.19616333E+03   2.20226490E+03   7.19372696E+00   0.00000000E+00   0.00000000E+00   0.00000000E+00   0.00000000E+00   3.15725753E+00   1.54159924E+03   4.57915914E+03   0.00000000E+00   0.00000000E+00   0.00000000E+00   0.00000000E+00   1.93626827E+04
   4.37500000E+02   5.00000000E-01   5.00000000E-01  -5.31227175E+04   2.29394578E+03   0.00000000E+00   1.95180761E+04   5.19461903E+03   2.20226593E+03   7.19372695E+00   0.00000000E+00   0.00000000E+00   0.00000000E+00   0.00000000E+00   3.18657768E+00   1.54141983E+03   4.57761476E+03   0.00000000E+00   0.00000000E+00   0.00000000E+00   0.00000000E+00   1.93626583E+04
   4.72500000E+02   5.00000000E-01   5.00000000E-01  -5.31234807E+04   2.29394578E+03   0.00000000E+00   1.95185368E+04   5.19257157E+03   2.20226699E+03   7.19372694E+00   0.00000000E+00   0.00000000E+00   0.00000000E+00   0.00000000E+00   3.21736090E+00   1.54122856E+03   4.57556722E+03   0.00000000E+00   0.00000000E+00   0.00000000E+00   0.00000000E+00   1.93626192E+04
   5.07500000E+02   5.00000000E-01   5.00000000E-01  -5.31242738E+04   2.29394577E+03   0.00000000E+00   1.95190165E+04   5.19007543E+03   2.20226808E+03   7.19372693E+00   0.00000000E+00   0.00000000E+00   0.00000000E+00   0.00000000E+00   3.24896485E+00   1.54102830E+03   4.57307101E+03   0.00000000E+00   0.00000000E+00   0.00000000E+00   0.00000000E+00   1.93625694E+04
   5.42500000E+02   5.00000000E-01   5.00000000E-01  -5.31250922E+04   2.29394577E+03   0.00000000E+00   1.95195121E+04   5.18718221E+03   2.20226919E+03   7.19372692E+00   0.00000000E+00   0.00000000E+00   0.00000000E+00   0.00000000E+00   3.28090917E+00   1.54082129E+03   4.57017772E+03   0.00000000E+00   0.00000000E+00   0.00000000E+00   0.00000000E+00   1.93625113E+04
   5.77500000E+02   5.00000000E-01   5.00000000E-01  -5.31259307E+04   2.29394577E+03   0.00000000E+00   1.95200201E+04   5.18394066E+03   2.20227032E+03   7.19372691E+00   0.00000000E+00   0.00000000E+00   0.00000000E+00   0.00000000E+00   3.31281739E+00   1.54060939E+03   4.56693611E+03   0.00000000E+00   0.00000000E+00   0.00000000E+00   0.00000000E+00   1.93624462E+04
   6.12500000E+02   5.00000000E-01   5.00000000E-01  -5.31267834E+04   2.29394577E+03   0.00000000E+00   1.95205371E+04   5.18039658E+03   2.20227146E+03   7.19372690E+00   0.00000000E+00   0.00000000E+00   0.00000000E+00   0.00000000E+00   3.34438810E+00   1.54039422E+03   4.56339196E+03   0.00000000E+00   0.00000000E+00   0.00000000E+00   0.00000000E+00   1.93623746E+04
   6.47500000E+02   5.00000000E-01   5.00000000E-01  -5.31276436E+04   2.29394577E+03   0.00000000E+00   1.95210589E+04   5.17659270E+03   2.20227262E+03   7.19372689E+00   0.00000000E+00   0.00000000E+00   0.00000000E+00   0.00000000E+00   3.37537701E+00   1.54017725E+03   4.55958802E+03   0.00000000E+00   0.00000000E+00   0.00000000E+00   0.00000000E+00   1.93622962E+04
   6.82500000E+02   5.00000000E-01   5.00000000E-01  -5.31285055E+04   2.29394577E+03   0.00000000E+00   1.95215847E+04   5.17256866E+03   2.20227377E+03   7.19372688E+00   0.00000000E+00   0.00000000E+00   0.00000000E+00   0.00000000E+00   3.40291831E+00   1.53995768E+03   4.55556393E+03   0.00000000E+00   0.00000000E+00   0.00000000E+00   0.00000000E+00   1.93622034E+04
   7.17500000E+02   5.00000000E-01   5.00000000E-01  -5.31293609E+04   2.29394577E+03   0.00000000E+00   1.95221074E+04   5.16836109E+03   2.20227493E+03   7.19372686E+00   0.00000000E+00   0.00000000E+00   0.00000000E+00   0.00000000E+00   3.42903170E+00   1.53973923E+03   4.55135631E+03   0.00000000E+00   0.00000000E+00   0.00000000E+00   0.00000000E+00   1.93621033E+04
   7.52500000E+02   5.00000000E-01   5.00000000E-01  -5.31302000E+04   2.29394577E+03   0.00000000E+00   1.95226214E+04   5.16400354E+03   2.20227609E+03   7.19372685E+00   0.00000000E+00   0.00000000E+00   0.00000000E+00   0.00000000E+00   3.45370697E+00   1.53952320E+03   4.54699871E+03   0.00000000E+00   0.00000000E+00   0.00000000E+00   0.00000000E+00   1.93619942E+04
   7.87500000E+02   5.00000000E-01   5.00000000E-01  -5.31310137E+04   2.29394577E+03   0.00000000E+00   1.95231217E+04   5.15952665E+03   2.20227724E+03   7.19372684E+00   0.00000000E+00   0.00000000E+00   0.00000000E+00   0.00000000E+00   3.47686968E+00   1.53931077E+03   4.54252179E+03   0.00000000E+00   0.00000000E+00   0.00000000E+00   0.00000000E+00   1.93618744E+04
   8.22500000E+02   5.00000000E-01   5.00000000E-01  -5.31317926E+04   2.29394577E+03   0.00000000E+00   1.95236030E+04   5.15495829E+03   2.20227837E+03   7.19372683E+00   0.00000000E+00   0.00000000E+00   0.00000000E+00   0.00000000E+00   3.49848121E+00   1.53910309E+03   4.53795338E+03   0.00000000E+00   0.00000000E+00   0.00000000E+00   0.00000000E+00   1.93617425E+04
   8.57500000E+02   5.00000000E-01   5.00000000E-01  -5.31325271E+04   2.29394576E+03   0.00000000E+00   1.95240600E+04   5.15032362E+03   2.20227949E+03   7.19372682E+00   0.00000000E+00   0.00000000E+00   0.00000000E+00   0.00000000E+00   3.51854049E+00   1.53890130E+03   4.53331868E+03   0.00000000E+00   0.00000000E+00   0.00000000E+00   0.00000000E+00   1.93615967E+04
   8.92500000E+02   5.00000000E-01   5.00000000E-01  -5.31332075E+04   2.29394576E+03   0.00000000E+00   1.95244872E+04   5.14564528E+03   2.20228058E+03   7.19372682E+00   0.00000000E+00   0.00000000E+00   0.00000000E+00   0.00000000E+00   3.53708353E+00   1.53870647E+03   4.52864031E+03   0.00000000E+00   0.00000000E+00   0.00000000E+00   0.00000000E+00   1.93614357E+04
   9.27500000E+02   5.00000000E-01   5.00000000E-01  -5.31338243E+04   2.29394576E+03   0.00000000E+00   1.95248794E+04   5.14094355E+03   2.20228165E+03   7.19372682E+00   0.00000000E+00   0.00000000E+00   0.00000000E+00   0.00000000E+00   3.55418131E+00   1.53851963E+03   4.52393856E+03   0.00000000E+00   0.00000000E+00   0.00000000E+00   0.00000000E+00   1.93612580E+04
   9.62500000E+02   5.00000000E-01   5.00000000E-01  -5.31343683E+04   2.29394576E+03   0.00000000E+00   1.95252314E+04   5.13623649E+03   2.20228268E+03   7.19372683E+00   0.00000000E+00   0.00000000E+00   0.00000000E+00   0.00000000E+00   3.56993604E+00   1.53834172E+03   4.51923148E+03   0.00000000E+00   0.00000000E+00   0.00000000E+00   0.00000000E+00   1.93610625E+04
   9.97500000E+02   5.00000000E-01   5.00000000E-01  -5.31348311E+04   2.29394576E+03   0.00000000E+00   1.95255386E+04   5.13154011E+03   2.20228367E+03   7.19372683E+00   0.00000000E+00   0.00000000E+00   0.00000000E+00   0.00000000E+00   3.58447564E+00   1.53817356E+03   4.51453508E+03   0.00000000E+00   0.00000000E+00   0.00000000E+00   0.00000000E+00   1.93608479E+04
   1.03250000E+03   5.00000000E-01   5.00000000E-01  -5.31352051E+04   2.29394575E+03   0.00000000E+00   1.95257967E+04   5.12686850E+03   2.20228461E+03   7.19372684E+00   0.00000000E+00   0.00000000E+00   0.00000000E+00   0.00000000E+00   3.59794702E+00   1.53801589E+03   4.50986346E+03   0.00000000E+00   0.00000000E+00   0.00000000E+00   0.00000000E+00   1.93606137E+04
   1.06750000E+03   5.00000000E-01   5.00000000E-01  -5.31354836E+04   2.29394575E+03   0.00000000E+00   1.95260021E+04   5.12223403E+03   2.20228549E+03   7.19372685E+00   0.00000000E+00   0.00000000E+00   0.00000000E+00   0.00000000E+00   3.61050746E+00   1.53786931E+03   4.50522897E+03   0.00000000E+00   0.00000000E+00   0.00000000E+00   0.00000000E+00   1.93603593E+04
   1.10250000E+03   5.00000000E-01   5.00000000E-01  -5.31356616E+04   2.29394575E+03   0.00000000E+00   1.95261519E+04   5.11764743E+03   2.20228632E+03   7.19372685E+00   0.00000000E+00   0.00000000E+00   0.00000000E+00   0.00000000E+00   3.62231646E+00   1.53773427E+03   4.50064237E+03   0.00000000E+00   0.00000000E+00   0.00000000E+00   0.00000000E+00   1.93600844E+04
   1.13750000E+03   5.00000000E-01   5.00000000E-01  -5.31357355E+04   2.29394574E+03   0.00000000E+00   1.95262441E+04   5.11311801E+03   2.20228709E+03   7.19372686E+00   0.00000000E+00   0.00000000E+00   0.00000000E+00   0.00000000E+00   3.63352586E+00   1.53761110E+03   4.49611294E+03   0.00000000E+00   0.00000000E+00   0.00000000E+00   0.00000000E+00   1.93597892E+04
   1.17250000E+03   5.00000000E-01   5.00000000E-01  -5.31357032E+04   2.29394574E+03   0.00000000E+00   1.95262774E+04   5.10865372E+03   2.20228778E+03   7.19372686E+00   0.00000000E+00   0.00000000E+00   0.00000000E+00   0.00000000E+00   3.64427212E+00   1.53749994E+03   4.49164865E+03   0.00000000E+00   0.00000000E+00   0.00000000E+00   0.00000000E+00   1.93594742E+04
   1.20750000E+03   5.00000000E-01   5.00000000E-01  -5.31355647E+04   2.29394574E+03   0.00000000E+00   1.95262520E+04   5.10426133E+03   2.20228839E+03   7.19372687E+00   0.00000000E+00   0.00000000E+00   0.00000000E+00   0.00000000E+00   3.65466786E+00   1.53740080E+03   4.48725626E+03   0.00000000E+00   0.00000000E+00   0.00000000E+00   0.00000000E+00   1.93591404E+04
   1.24250000E+03   5.00000000E-01   5.00000000E-01  -5.31353219E+04   2.29394573E+03   0.00000000E+00   1.95261686E+04   5.09994648E+03   2.20228893E+03   7.19372688E+00   0.00000000E+00   0.00000000E+00   0.00000000E+00   0.00000000E+00   3.66479686E+00   1.53731352E+03   4.48294141E+03   0.00000000E+00   0.00000000E+00   0.00000000E+00   0.00000000E+00   1.93587890E+04
   1.27750000E+03   5.00000000E-01   5.00000000E-01  -5.31349785E+04   2.29394573E+03   0.00000000E+00   1.95260294E+04   5.09571387E+03   2.20228939E+03   7.19372688E+00   0.00000000E+00   0.00000000E+00   0.00000000E+00   0.00000000E+00   3.67470843E+00   1.53723779E+03   4.47870881E+03   0.00000000E+00   0.00000000E+00   0.00000000E+00   0.00000000E+00   1.93584216E+04
   1.31250000E+03   5.00000000E-01   5.00000000E-01  -5.31345401E+04   2.29394572E+03   0.00000000E+00   1.95258373E+04   5.09156730E+03   2.20228976E+03   7.19372689E+00   0.00000000E+00   0.00000000E+00   0.00000000E+00   0.00000000E+00   3.68441705E+00   1.53717315E+03   4.47456225E+03   0.00000000E+00   0.00000000E+00   0.00000000E+00   0.00000000E+00   1.93580403E+04
   1.34750000E+03   5.00000000E-01   5.00000000E-01  -5.31340140E+04   2.29394572E+03   0.00000000E+00   1.95255963E+04   5.08750978E+03   2.20229004E+03   7.19372689E+00   0.00000000E+00   0.00000000E+00   0.00000000E+00   0.00000000E+00   3.69390257E+00   1.53711902E+03   4.47050474E+03   0.00000000E+00   0.00000000E+00   0.00000000E+00   0.00000000E+00   1.93576472E+04
   1.38250000E+03   5.00000000E-01   5.00000000E-01  -5.31334090E+04   2.29394571E+03   0.00000000E+00   1.95253112E+04   5.08354362E+03   2.20229024E+03   7.19372688E+00   0.00000000E+00   0.00000000E+00   0.00000000E+00   0.00000000E+00   3.70311321E+00   1.53707469E+03   4.46653858E+03   0.00000000E+00   0.00000000E+00   0.00000000E+00   0.00000000E+00   1.93572450E+04
   1.41750000E+03   5.00000000E-01   5.00000000E-01  -5.31327351E+04   2.29394571E+03   0.00000000E+00   1.95249874E+04   5.07967048E+03   2.20229035E+03   7.19372687E+00   0.00000000E+00   0.00000000E+00   0.00000000E+00   0.00000000E+00   3.71196993E+00   1.53703933E+03   4.46266546E+03   0.00000000E+00   0.00000000E+00   0.00000000E+00   0.00000000E+00   1.93568362E+04
   1.45250000E+03   5.00000000E-01   5.00000000E-01  -5.31320031E+04   2.29394570E+03   0.00000000E+00   1.95246308E+04   5.07589150E+03   2.20229038E+03   7.19372685E+00   0.00000000E+00   0.00000000E+00   0.00000000E+00   0.00000000E+00   3.72037235E+00   1.53701207E+03   4.45888649E+03   0.00000000E+00   0.00000000E+00   0.00000000E+00   0.00000000E+00   1.93564236E+04
   1.48750000E+03   5.00000000E-01   5.00000000E-01  -5.31312244E+04   2.29394569E+03   0.00000000E+00   1.95242477E+04   5.07220728E+03   2.20229032E+03   7.19372682E+00   0.00000000E+00   0.00000000E+00   0.00000000E+00   0.00000000E+00   3.72820503E+00   1.53699194E+03   4.45520230E+03   0.00000000E+00   0.00000000E+00   0.00000000E+00   0.00000000E+00   1.93560099E+04
   1.52250000E+03   5.00000000E-01   5.00000000E-01  -5.31304107E+04   2.29394568E+03   0.00000000E+00   1.95238444E+04   5.06861803E+03   2.20229019E+03   7.19372676E+00   0.00000000E+00   0.00000000E+00   0.00000000E+00   0.00000000E+00   3.73534503E+00   1.53697795E+03   4.45161306E+03   0.00000000E+00   0.00000000E+00   0.00000000E+00   0.00000000E+00   1.93555980E+04
   1.55750000E+03   5.00000000E-01   5.00000000E-01  -5.31295735E+04   2.29394568E+03   0.00000000E+00   1.95234273E+04   5.06512354E+03   2.20228998E+03   7.19372669E+00   0.00000000E+00   0.00000000E+00   0.00000000E+00   0.00000000E+00   3.74166799E+00   1.53696910E+03   4.44811860E+03   0.00000000E+00   0.00000000E+00   0.00000000E+00   0.00000000E+00   1.93551902E+04
   1.59250000E+03   5.00000000E-01   5.00000000E-01  -5.31287238E+04   2.29394567E+03   0.00000000E+00   1.95230025E+04   5.06172330E+03   2.20228969E+03   7.19372658E+00   0.00000000E+00   0.00000000E+00   0.00000000E+00   0.00000000E+00   3.74705416E+00   1.53696438E+03   4.44471839E+03   0.00000000E+00   0.00000000E+00   0.00000000E+00   0.00000000E+00   1.93547891E+04
   1.62750000E+03   5.00000000E-01   5.00000000E-01  -5.31278719E+04   2.29394566E+03   0.00000000E+00   1.95225756E+04   5.05841649E+03   2.20228934E+03   7.19372642E+00   0.00000000E+00   0.00000000E+00   0.00000000E+00   0.00000000E+00   3.75139319E+00   1.53696283E+03   4.44141161E+03   0.00000000E+00   0.00000000E+00   0.00000000E+00   0.00000000E+00   1.93543965E+04
   1.66250000E+03   5.00000000E-01   5.00000000E-01  -5.31270275E+04   2.29394565E+03   0.00000000E+00   1.95221519E+04   5.05520207E+03   2.20228892E+03   7.19372620E+00   0.00000000E+00   0.00000000E+00   0.00000000E+00   0.00000000E+00   3.75458715E+00   1.53696351E+03   4.43819723E+03   0.00000000E+00   0.00000000E+00   0.00000000E+00   0.00000000E+00   1.93540143E+04
   1.69750000E+03   5.00000000E-01   5.00000000E-01  -5.31261988E+04   2.29394564E+03   0.00000000E+00   1.95217361E+04   5.05207878E+03   2.20228844E+03   7.19372589E+00   0.00000000E+00   0.00000000E+00   0.00000000E+00   0.00000000E+00   3.75655294E+00   1.53696555E+03   4.43507397E+03   0.00000000E+00   0.00000000E+00   0.00000000E+00   0.00000000E+00   1.93536440E+04
   1.73250000E+03   5.00000000E-01   5.00000000E-01  -5.31253933E+04   2.29394562E+03   0.00000000E+00   1.95213322E+04   5.04904519E+03   2.20228791E+03   7.19372549E+00   0.00000000E+00   0.00000000E+00   0.00000000E+00   0.00000000E+00   3.75722299E+00   1.53696814E+03   4.43204042E+03   0.00000000E+00   0.00000000E+00   0.00000000E+00   0.00000000E+00   1.93532866E+04
   1.76750000E+03   5.00000000E-01   5.00000000E-01  -5.31246170E+04   2.29394561E+03   0.00000000E+00   1.95209439E+04   5.04609974E+03   2.20228733E+03   7.19372494E+00   0.00000000E+00   0.00000000E+00   0.00000000E+00   0.00000000E+00   3.75654512E+00   1.53697056E+03   4.42909500E+03   0.00000000E+00   0.00000000E+00   0.00000000E+00   0.00000000E+00   1.93529430E+04
   1.80250000E+03   5.00000000E-01   5.00000000E-01  -5.31238751E+04   2.29394560E+03   0.00000000E+00   1.95205739E+04   5.04324073E+03   2.20228670E+03   7.19372423E+00   0.00000000E+00   0.00000000E+00   0.00000000E+00   0.00000000E+00   3.75448157E+00   1.53697217E+03   4.42623604E+03   0.00000000E+00   0.00000000E+00   0.00000000E+00   0.00000000E+00   1.93526138E+04
   1.83750000E+03   5.00000000E-01   5.00000000E-01  -5.31231716E+04   2.29394558E+03   0.00000000E+00   1.95202245E+04   5.04046641E+03   2.20228604E+03   7.19372330E+00   0.00000000E+00   0.00000000E+00   0.00000000E+00   0.00000000E+00   3.75100749E+00   1.53697238E+03   4.42346177E+03   0.00000000E+00   0.00000000E+00   0.00000000E+00   0.00000000E+00   1.93522992E+04
   1.87250000E+03   5.00000000E-01   5.00000000E-01  -5.31225096E+04   2.29394556E+03   0.00000000E+00   1.95198975E+04   5.03777495E+03   2.20228534E+03   7.19372213E+00   0.00000000E+00   0.00000000E+00   0.00000000E+00   0.00000000E+00   3.74610909E+00   1.53697073E+03   4.42077036E+03   0.00000000E+00   0.00000000E+00   0.00000000E+00   0.00000000E+00   1.93519993E+04
   1.90750000E+03   5.00000000E-01   5.00000000E-01  -5.31218911E+04   2.29394555E+03   0.00000000E+00   1.95195942E+04   5.03516448E+03   2.20228460E+03   7.19372066E+00   0.00000000E+00   0.00000000E+00   0.00000000E+00   0.00000000E+00   3.73978158E+00   1.53696681E+03   4.41815994E+03   0.00000000E+00   0.00000000E+00   0.00000000E+00   0.00000000E+00   1.93517139E+04
   1.94250000E+03   5.00000000E-01   5.00000000E-01  -5.31213177E+04   2.29394553E+03   0.00000000E+00   1.95193155E+04   5.03263310E+03   2.20228384E+03   7.19371884E+00   0.00000000E+00   0.00000000E+00   0.00000000E+00   0.00000000E+00   3.73202716E+00   1.53696028E+03   4.41562861E+03   0.00000000E+00   0.00000000E+00   0.00000000E+00   0.00000000E+00   1.93514429E+04
   1.97750000E+03   5.00000000E-01   5.00000000E-01  -5.31207901E+04   2.29394550E+03   0.00000000E+00   1.95190619E+04   5.03017889E+03   2.20228306E+03   7.19371660E+00   0.00000000E+00   0.00000000E+00   0.00000000E+00   0.00000000E+00   3.72285344E+00   1.53695088E+03   4.41317446E+03   0.00000000E+00   0.00000000E+00   0.00000000E+00   0.00000000E+00   1.93511858E+04
   2.01250000E+03   5.00000000E-01   5.00000000E-01  -5.31203088E+04   2.29394548E+03   0.00000000E+00   1.95188336E+04   5.02779995E+03   2.20228226E+03   7.19371389E+00   0.00000000E+00   0.00000000E+00   0.00000000E+00   0.00000000E+00   3.71227143E+00   1.53693841E+03   4.41079558E+03   0.00000000E+00   0.00000000E+00   0.00000000E+00   0.00000000E+00   1.93509423E+04
   2.04750000E+03   5.00000000E-01   5.00000000E-01  -5.31198736E+04   2.29394546E+03   0.00000000E+00   1.95186308E+04   5.02549438E+03   2.20228145E+03   7.19371062E+00   0.00000000E+00   0.00000000E+00   0.00000000E+00   0.00000000E+00   3.70029464E+00   1.53692272E+03   4.40849007E+03   0.00000000E+00   0.00000000E+00   0.00000000E+00   0.00000000E+00   1.93507120E+04
   2.08250000E+03   5.00000000E-01   5.00000000E-01  -5.31194841E+04   2.29394543E+03   0.00000000E+00   1.95184531E+04   5.02326030E+03   2.20228062E+03   7.19370672E+00   0.00000000E+00   0.00000000E+00   0.00000000E+00   0.00000000E+00   3.68693780E+00   1.53690372E+03   4.40625606E+03   0.00000000E+00   0.00000000E+00   0.00000000E+00   0.00000000E+00   1.93504943E+04
   2.11750000E+03   5.00000000E-01   5.00000000E-01  -5.31191398E+04   2.29394540E+03   0.00000000E+00   1.95183005E+04   5.02109586E+03   2.20227979E+03   7.19370211E+00   0.00000000E+00   0.00000000E+00   0.00000000E+00   0.00000000E+00   3.67221599E+00   1.53688134E+03   4.40409169E+03   0.00000000E+00   0.00000000E+00   0.00000000E+00   0.00000000E+00   1.93502889E+04
   2.15250000E+03   5.00000000E-01   5.00000000E-01  -5.31188406E+04   2.29394537E+03   0.00000000E+00   1.95181727E+04   5.01899924E+03   2.20227896E+03   7.19369669E+00   0.00000000E+00   0.00000000E+00   0.00000000E+00   0.00000000E+00   3.65624154E+00   1.53685557E+03   4.40199514E+03   0.00000000E+00   0.00000000E+00   0.00000000E+00   0.00000000E+00   1.93500968E+04
   2.18750000E+03   5.00000000E-01   5.00000000E-01  -5.31185849E+04   2.29394534E+03   0.00000000E+00   1.95180691E+04   5.01696866E+03   2.20227812E+03   7.19369039E+00   0.00000000E+00   0.00000000E+00   0.00000000E+00   0.00000000E+00   3.63900398E+00   1.53682638E+03   4.39996463E+03   0.00000000E+00   0.00000000E+00   0.00000000E+00   0.00000000E+00   1.93499169E+04
   2.22250000E+03   5.00000000E-01   5.00000000E-01  -5.31183719E+04   2.29394530E+03   0.00000000E+00   1.95179891E+04   5.01500239E+03   2.20227729E+03   7.19368312E+00   0.00000000E+00   0.00000000E+00   0.00000000E+00   0.00000000E+00   3.62045047E+00   1.53679381E+03   4.39799844E+03   0.00000000E+00   0.00000000E+00   0.00000000E+00   0.00000000E+00   1.93497482E+04
   2.25750000E+03   5.00000000E-01   5.00000000E-01  -5.31182012E+04   2.29394526E+03   0.00000000E+00   1.95179326E+04   5.01309872E+03   2.20227647E+03   7.19367482E+00   0.00000000E+00   0.00000000E+00   0.00000000E+00   0.00000000E+00   3.60057924E+00   1.53675789E+03   4.39609486E+03   0.00000000E+00   0.00000000E+00   0.00000000E+00   0.00000000E+00   1.93495906E+04
   2.29250000E+03   5.00000000E-01   5.00000000E-01  -5.31180721E+04   2.29394522E+03   0.00000000E+00   1.95178993E+04   5.01125601E+03   2.20227565E+03   7.19366542E+00   0.00000000E+00   0.00000000E+00   0.00000000E+00   0.00000000E+00   3.57939075E+00   1.53671870E+03   4.39425223E+03   0.00000000E+00   0.00000000E+00   0.00000000E+00   0.00000000E+00   1.93494439E+04
   2.32750000E+03   5.00000000E-01   5.00000000E-01  -5.31179843E+04   2.29394518E+03   0.00000000E+00   1.95178888E+04   5.00947264E+03   2.20227484E+03   7.19365490E+00   0.00000000E+00   0.00000000E+00   0.00000000E+00   0.00000000E+00   3.55689464E+00   1.53667630E+03   4.39246894E+03   0.00000000E+00   0.00000000E+00   0.00000000E+00   0.00000000E+00   1.93493081E+04
   2.36250000E+03   5.00000000E-01   5.00000000E-01  -5.31179375E+04   2.29394513E+03   0.00000000E+00   1.95179010E+04   5.00774703E+03   2.20227405E+03   7.19364328E+00   0.00000000E+00   0.00000000E+00   0.00000000E+00   0.00000000E+00   3.53311346E+00   1.53663079E+03   4.39074342E+03   0.00000000E+00   0.00000000E+00   0.00000000E+00   0.00000000E+00   1.93491835E+04
   2.39750000E+03   5.00000000E-01   5.00000000E-01  -5.31179314E+04   2.29394508E+03   0.00000000E+00   1.95179357E+04   5.00607765E+03   2.20227327E+03   7.19363065E+00   0.00000000E+00   0.00000000E+00   0.00000000E+00   0.00000000E+00   3.50806658E+00   1.53658223E+03   4.38907413E+03   0.00000000E+00   0.00000000E+00   0.00000000E+00   0.00000000E+00   1.93490703E+04
   2.43250000E+03   5.00000000E-01   5.00000000E-01  -5.31179658E+04   2.29394503E+03   0.00000000E+00   1.95179928E+04   5.00446303E+03   2.20227251E+03   7.19361716E+00   0.00000000E+00   0.00000000E+00   0.00000000E+00   0.00000000E+00   3.48174943E+00   1.53653071E+03   4.38745960E+03   0.00000000E+00   0.00000000E+00   0.00000000E+00   0.00000000E+00   1.93489686E+04
   2.46750000E+03   5.00000000E-01   5.00000000E-01  -5.31180411E+04   2.29394497E+03   0.00000000E+00   1.95180723E+04   5.00290171E+03   2.20227177E+03   7.19360309E+00   0.00000000E+00   0.00000000E+00   0.00000000E+00   0.00000000E+00   3.45417000E+00   1.53647632E+03   4.38589838E+03   0.00000000E+00   0.00000000E+00   0.00000000E+00   0.00000000E+00   1.93488786E+04
   2.50250000E+03   5.00000000E-01   5.00000000E-01  -5.31181574E+04   2.29394491E+03   0.00000000E+00   1.95181744E+04   5.00139228E+03   2.20227105E+03   7.19358876E+00   0.00000000E+00   0.00000000E+00   0.00000000E+00   0.00000000E+00   3.42533994E+00   1.53641913E+03   4.38438904E+03   0.00000000E+00   0.00000000E+00   0.00000000E+00   0.00000000E+00   1.93488010E+04
   2.53750000E+03   5.00000000E-01   5.00000000E-01  -5.31183153E+04   2.29394484E+03   0.00000000E+00   1.95182993E+04   4.99993336E+03   2.20227035E+03   7.19357460E+00   0.00000000E+00   0.00000000E+00   0.00000000E+00   0.00000000E+00   3.39527071E+00   1.53635921E+03   4.38293021E+03   0.00000000E+00   0.00000000E+00   0.00000000E+00   0.00000000E+00   1.93487362E+04
   2.57250000E+03   5.00000000E-01   5.00000000E-01  -5.31185155E+04   2.29394477E+03   0.00000000E+00   1.95184472E+04   4.99852360E+03   2.20226967E+03   7.19356117E+00   0.00000000E+00   0.00000000E+00   0.00000000E+00   0.00000000E+00   3.36397483E+00   1.53629664E+03   4.38152053E+03   0.00000000E+00   0.00000000E+00   0.00000000E+00   0.00000000E+00   1.93486848E+04
   2.60750000E+03   5.00000000E-01   5.00000000E-01  -5.31187588E+04   2.29394469E+03   0.00000000E+00   1.95186186E+04   4.99716168E+03   2.20226901E+03   7.19354908E+00   0.00000000E+00   0.00000000E+00   0.00000000E+00   0.00000000E+00   3.33146319E+00   1.53623147E+03   4.38015870E+03   0.00000000E+00   0.00000000E+00   0.00000000E+00   0.00000000E+00   1.93486474E+04
   2.64250000E+03   5.00000000E-01   5.00000000E-01  -5.31190462E+04   2.29394461E+03   0.00000000E+00   1.95188138E+04   4.99584631E+03   2.20226838E+03   7.19353902E+00   0.00000000E+00   0.00000000E+00   0.00000000E+00   0.00000000E+00   3.29774869E+00   1.53616376E+03   4.37884342E+03   0.00000000E+00   0.00000000E+00   0.00000000E+00   0.00000000E+00   1.93486249E+04
   2.67750000E+03   5.00000000E-01   5.00000000E-01  -5.31193789E+04   2.29394453E+03   0.00000000E+00   1.95190336E+04   4.99457623E+03   2.20226777E+03   7.19353170E+00   0.00000000E+00   0.00000000E+00   0.00000000E+00   0.00000000E+00   3.26287223E+00   1.53609355E+03   4.37757341E+03   0.00000000E+00   0.00000000E+00   0.00000000E+00   0.00000000E+00   1.93486184E+04
   2.71250000E+03   5.00000000E-01   5.00000000E-01  -5.31197579E+04   2.29394444E+03   0.00000000E+00   1.95192782E+04   4.99335019E+03   2.20226718E+03   7.19352782E+00   0.00000000E+00   0.00000000E+00   0.00000000E+00   0.00000000E+00   3.22682799E+00   1.53602089E+03   4.37634745E+03   0.00000000E+00   0.00000000E+00   0.00000000E+00   0.00000000E+00   1.93486283E+04