 TITLE = "Total Component Concentration in Minerals" 
VARIABLES = "X"          "Y"              "Z"            "H+"             "Al+++"          "CO2(aq)"        "Mg++"           "Ca++"           "Fe++"           "Fe+++"          "Cl-"            "K+"             "Na+"            "SiO2(aq)"       "SO4--"          "O2(aq)"         "B(OH)3(aq)"     "HPO4--"         "NO3-"           "H4SiO4(aq)"    
 ZONE I=           1 , J=           1 , K=           1  F=POINT
   5.00000000E-01   5.00000000E-01   5.00000000E-01  -1.88673191E+04   7.50200155E+02   0.00000000E+00   6.68292565E+03   4.84926800E+03   1.00026687E+03   0.00000000E+00   0.00000000E+00   0.00000000E+00   2.50066718E+02   0.00000000E+00   4.34913457E+03   0.00000000E+00   0.00000000E+00   0.00000000E+00   0.00000000E+00   8.18332596E+03
