 TITLE = "Total Component Concentration in Minerals" 
VARIABLES = "X"          "Y"              "Z"            "H+"             "Al+++"          "CO2(aq)"        "Mg++"           "Ca++"           "Fe++"           "Fe+++"          "Ba++"           "Sr++"           "Cl-"            "F-"             "K+"             "HS-"            "Na+"            "SO4--"          "O2(aq)"         "B(OH)3(aq)"     "HPO4--"         "NO3-"           "H4SiO4(aq)"    
 ZONE I=         200 , J=           1 , K=           1  F=POINT
   8.75000000E+00   5.00000000E-01   5.00000000E-01  -4.43468967E+04   3.02039754E+03   0.00000000E+00   9.15086408E+03   1.70353961E+03   6.21885084E+03   7.19372819E+01   0.00000000E+00   0.00000000E+00   0.00000000E+00   0.00000000E+00   8.97962156E-01   1.09987902E-05   9.22485229E+02   1.93455234E-06  -1.93455234E-06   0.00000000E+00   0.00000000E+00   0.00000000E+00   1.50848845E+04
   2.62500000E+01   5.00000000E-01   5.00000000E-01  -4.43822808E+04   3.02036900E+03   0.00000000E+00   9.16591374E+03   1.70377364E+03   6.21902917E+03   7.19372818E+01   0.00000000E+00   0.00000000E+00   0.00000000E+00   0.00000000E+00   3.40525271E+00   1.09987940E-05   9.24523598E+02   1.93455234E-06  -1.93455234E-06   0.00000000E+00   0.00000000E+00   0.00000000E+00   1.51158243E+04
   4.37500000E+01   5.00000000E-01   5.00000000E-01  -4.43746272E+04   3.02036900E+03   0.00000000E+00   9.15901722E+03   1.70388336E+03   6.21917621E+03   7.19372818E+01   0.00000000E+00   0.00000000E+00   0.00000000E+00   0.00000000E+00   4.00936420E+00   1.09987957E-05   9.29545459E+02   1.93455234E-06  -1.93455234E-06   0.00000000E+00   0.00000000E+00   0.00000000E+00   1.51309355E+04
   6.12500000E+01   5.00000000E-01   5.00000000E-01  -4.43647896E+04   3.02036900E+03   0.00000000E+00   9.14997387E+03   1.70397086E+03   6.21933704E+03   7.19372818E+01   0.00000000E+00   0.00000000E+00   0.00000000E+00   0.00000000E+00   4.88142530E+00   1.09987971E-05   9.36425799E+02   1.93455234E-06  -1.93455234E-06   0.00000000E+00   0.00000000E+00   0.00000000E+00   1.51520352E+04
   7.87500000E+01   5.00000000E-01   5.00000000E-01  -4.43597073E+04   3.02036900E+03   0.00000000E+00   9.14309153E+03   1.70411789E+03   6.21952676E+03   7.19372818E+01   0.00000000E+00   0.00000000E+00   0.00000000E+00   0.00000000E+00   5.94083377E+00   1.09987983E-05   9.43375294E+02   1.93455234E-06  -1.93455234E-06   0.00000000E+00   0.00000000E+00   0.00000000E+00   1.51761427E+04
   9.62500000E+01   5.00000000E-01   5.00000000E-01  -4.43570513E+04   3.02036900E+03   0.00000000E+00   9.13795427E+03   1.70430247E+03   6.21975056E+03   7.19372818E+01   0.00000000E+00   0.00000000E+00   0.00000000E+00   0.00000000E+00   6.79895218E+00   1.09987993E-05   9.49318943E+02   1.93455234E-06  -1.93455234E-06   0.00000000E+00   0.00000000E+00   0.00000000E+00   1.51973858E+04
   1.13750000E+02   5.00000000E-01   5.00000000E-01  -4.43554586E+04   3.02036900E+03   0.00000000E+00   9.13420287E+03   1.70450192E+03   6.22000933E+03   7.19372818E+01   0.00000000E+00   0.00000000E+00   0.00000000E+00   0.00000000E+00   7.30221472E+00   1.09988001E-05   9.53809351E+02   1.93455234E-06  -1.93455234E-06   0.00000000E+00   0.00000000E+00   0.00000000E+00   1.52131606E+04
   1.31250000E+02   5.00000000E-01   5.00000000E-01  -4.43545295E+04   3.02036900E+03   0.00000000E+00   9.13162539E+03   1.70470275E+03   6.22030456E+03   7.19372818E+01   0.00000000E+00   0.00000000E+00   0.00000000E+00   0.00000000E+00   7.46754357E+00   1.09988009E-05   9.56877724E+02   1.93455234E-06  -1.93455234E-06   0.00000000E+00   0.00000000E+00   0.00000000E+00   1.52234341E+04
   1.48750000E+02   5.00000000E-01   5.00000000E-01  -4.43541000E+04   3.02036900E+03   0.00000000E+00   9.12997509E+03   1.70489800E+03   6.22063918E+03   7.19372818E+01   0.00000000E+00   0.00000000E+00   0.00000000E+00   0.00000000E+00   7.37121540E+00   1.09988015E-05   9.58785456E+02   1.93455234E-06  -1.93455234E-06   0.00000000E+00   0.00000000E+00   0.00000000E+00   1.52292359E+04
   1.66250000E+02   5.00000000E-01   5.00000000E-01  -4.43541193E+04   3.02036900E+03   0.00000000E+00   9.12901830E+03   1.70508379E+03   6.22101528E+03   7.19372818E+01   0.00000000E+00   0.00000000E+00   0.00000000E+00   0.00000000E+00   7.10388929E+00   1.09988020E-05   9.59861831E+02   1.93455234E-06  -1.93455234E-06   0.00000000E+00   0.00000000E+00   0.00000000E+00   1.52319191E+04
   1.83750000E+02   5.00000000E-01   5.00000000E-01  -4.43545640E+04   3.02036900E+03   0.00000000E+00   9.12855398E+03   1.70525772E+03   6.22143167E+03   7.19372818E+01   0.00000000E+00   0.00000000E+00   0.00000000E+00   0.00000000E+00   6.74533702E+00   1.09988023E-05   9.60413112E+02   1.93455234E-06  -1.93455234E-06   0.00000000E+00   0.00000000E+00   0.00000000E+00   1.52327406E+04
   2.01250000E+02   5.00000000E-01   5.00000000E-01  -4.43552666E+04   3.02036900E+03   0.00000000E+00   9.12838411E+03   1.70542132E+03   6.22188726E+03   7.19372818E+01   0.00000000E+00   0.00000000E+00   0.00000000E+00   0.00000000E+00   6.33588198E+00   1.09988026E-05   9.60626563E+02   1.93455234E-06  -1.93455234E-06   0.00000000E+00   0.00000000E+00   0.00000000E+00   1.52323752E+04
   2.18750000E+02   5.00000000E-01   5.00000000E-01  -4.43561015E+04   3.02036900E+03   0.00000000E+00   9.12838030E+03   1.70557983E+03   6.22238164E+03   7.19372818E+01   0.00000000E+00   0.00000000E+00   0.00000000E+00   0.00000000E+00   5.89649783E+00   1.09988027E-05   9.60602654E+02   1.93455234E-06  -1.93455234E-06   0.00000000E+00   0.00000000E+00   0.00000000E+00   1.52311707E+04
   2.36250000E+02   5.00000000E-01   5.00000000E-01  -4.43571096E+04   3.02036900E+03   0.00000000E+00   9.12850256E+03   1.70573826E+03   6.22290953E+03   7.19372818E+01   0.00000000E+00   0.00000000E+00   0.00000000E+00   0.00000000E+00   5.45177881E+00   1.09988027E-05   9.60438339E+02   1.93455234E-06  -1.93455234E-06   0.00000000E+00   0.00000000E+00   0.00000000E+00   1.52295513E+04
   2.53750000E+02   5.00000000E-01   5.00000000E-01  -4.43581971E+04   3.02036900E+03   0.00000000E+00   9.12868202E+03   1.70590116E+03   6.22346569E+03   7.19372818E+01   0.00000000E+00   0.00000000E+00   0.00000000E+00   0.00000000E+00   5.00900841E+00   1.09988026E-05   9.60171557E+02   1.93455234E-06  -1.93455234E-06   0.00000000E+00   0.00000000E+00   0.00000000E+00   1.52276297E+04
   2.71250000E+02   5.00000000E-01   5.00000000E-01  -4.43593390E+04   3.02036900E+03   0.00000000E+00   9.12889504E+03   1.70607035E+03   6.22404453E+03   7.19372818E+01   0.00000000E+00   0.00000000E+00   0.00000000E+00   0.00000000E+00   4.57538373E+00   1.09988024E-05   9.59824937E+02   1.93455234E-06  -1.93455234E-06   0.00000000E+00   0.00000000E+00   0.00000000E+00   1.52254967E+04
   2.88750000E+02   5.00000000E-01   5.00000000E-01  -4.43605325E+04   3.02036900E+03   0.00000000E+00   9.12913481E+03   1.70624406E+03   6.22464070E+03   7.19372818E+01   0.00000000E+00   0.00000000E+00   0.00000000E+00   0.00000000E+00   4.15776893E+00   1.09988021E-05   9.59416801E+02   1.93455234E-06  -1.93455234E-06   0.00000000E+00   0.00000000E+00   0.00000000E+00   1.52232343E+04
   3.06250000E+02   5.00000000E-01   5.00000000E-01  -4.43617782E+04   3.02036900E+03   0.00000000E+00   9.12939954E+03   1.70641763E+03   6.22525019E+03   7.19372818E+01   0.00000000E+00   0.00000000E+00   0.00000000E+00   0.00000000E+00   3.76185293E+00   1.09988018E-05   9.58962849E+02   1.93455234E-06  -1.93455234E-06   0.00000000E+00   0.00000000E+00   0.00000000E+00   1.52209105E+04
   3.23750000E+02   5.00000000E-01   5.00000000E-01  -4.43630770E+04   3.02036900E+03   0.00000000E+00   9.12968873E+03   1.70658541E+03   6.22587090E+03   7.19372818E+01   0.00000000E+00   0.00000000E+00   0.00000000E+00   0.00000000E+00   3.39173548E+00   1.09988014E-05   9.58476375E+02   1.93455234E-06  -1.93455234E-06   0.00000000E+00   0.00000000E+00   0.00000000E+00   1.52185789E+04
   3.41250000E+02   5.00000000E-01   5.00000000E-01  -4.43644290E+04   3.02036900E+03   0.00000000E+00   9.13000130E+03   1.70674241E+03   6.22650243E+03   7.19372818E+01   0.00000000E+00   0.00000000E+00   0.00000000E+00   0.00000000E+00   3.04979843E+00   1.09988009E-05   9.57968152E+02   1.93455234E-06  -1.93455234E-06   0.00000000E+00   0.00000000E+00   0.00000000E+00   1.52162785E+04
   3.58750000E+02   5.00000000E-01   5.00000000E-01  -4.43658285E+04   3.02036900E+03   0.00000000E+00   9.13033303E+03   1.70688536E+03   6.22714563E+03   7.19372818E+01   0.00000000E+00   0.00000000E+00   0.00000000E+00   0.00000000E+00   2.73663643E+00   1.09988004E-05   9.57445004E+02   1.93455234E-06  -1.93455234E-06   0.00000000E+00   0.00000000E+00   0.00000000E+00   1.52140279E+04
   3.76250000E+02   5.00000000E-01   5.00000000E-01  -4.43672702E+04   3.02036900E+03   0.00000000E+00   9.13067959E+03   1.70701288E+03   6.22780181E+03   7.19372818E+01   0.00000000E+00   0.00000000E+00   0.00000000E+00   0.00000000E+00   2.45170793E+00   1.09987999E-05   9.56911158E+02   1.93455234E-06  -1.93455234E-06   0.00000000E+00   0.00000000E+00   0.00000000E+00   1.52118352E+04
   3.93750000E+02   5.00000000E-01   5.00000000E-01  -4.43687458E+04   3.02036900E+03   0.00000000E+00   9.13103522E+03   1.70712514E+03   6.22847222E+03   7.19372818E+01   0.00000000E+00   0.00000000E+00   0.00000000E+00   0.00000000E+00   2.19360468E+00   1.09987993E-05   9.56368197E+02   1.93455234E-06  -1.93455234E-06   0.00000000E+00   0.00000000E+00   0.00000000E+00   1.52096969E+04
   4.11250000E+02   5.00000000E-01   5.00000000E-01  -4.43702466E+04   3.02036900E+03   0.00000000E+00   9.13139444E+03   1.70722354E+03   6.22915762E+03   7.19372818E+01   0.00000000E+00   0.00000000E+00   0.00000000E+00   0.00000000E+00   1.96048626E+00   1.09987988E-05   9.55816085E+02   1.93455234E-06  -1.93455234E-06   0.00000000E+00   0.00000000E+00   0.00000000E+00   1.52076039E+04
   4.28750000E+02   5.00000000E-01   5.00000000E-01  -4.43717655E+04   3.02036900E+03   0.00000000E+00   9.13175286E+03   1.70731024E+03   6.22985797E+03   7.19372818E+01   0.00000000E+00   0.00000000E+00   0.00000000E+00   0.00000000E+00   1.75036863E+00   1.09987982E-05   9.55254206E+02   1.93455234E-06  -1.93455234E-06   0.00000000E+00   0.00000000E+00   0.00000000E+00   1.52055464E+04
   4.46250000E+02   5.00000000E-01   5.00000000E-01  -4.43732946E+04   3.02036900E+03   0.00000000E+00   9.13210632E+03   1.70738793E+03   6.23057230E+03   7.19372818E+01   0.00000000E+00   0.00000000E+00   0.00000000E+00   0.00000000E+00   1.56121577E+00   1.09987975E-05   9.54681470E+02   1.93455234E-06  -1.93455234E-06   0.00000000E+00   0.00000000E+00   0.00000000E+00   1.52035132E+04
   4.63750000E+02   5.00000000E-01   5.00000000E-01  -4.43748264E+04   3.02036900E+03   0.00000000E+00   9.13245154E+03   1.70745963E+03   6.23129868E+03   7.19372818E+01   0.00000000E+00   0.00000000E+00   0.00000000E+00   0.00000000E+00   1.39106202E+00   1.09987969E-05   9.54096770E+02   1.93455234E-06  -1.93455234E-06   0.00000000E+00   0.00000000E+00   0.00000000E+00   1.52014944E+04
   4.81250000E+02   5.00000000E-01   5.00000000E-01  -4.43763544E+04   3.02036900E+03   0.00000000E+00   9.13278634E+03   1.70752851E+03   6.23203422E+03   7.19372818E+01   0.00000000E+00   0.00000000E+00   0.00000000E+00   0.00000000E+00   1.23807689E+00   1.09987963E-05   9.53499348E+02   1.93455234E-06  -1.93455234E-06   0.00000000E+00   0.00000000E+00   0.00000000E+00   1.51994824E+04
   4.98750000E+02   5.00000000E-01   5.00000000E-01  -4.43777064E+04   3.02036900E+03   0.00000000E+00   9.13303598E+03   1.70759772E+03   6.23278653E+03   7.19372818E+01   0.00000000E+00   0.00000000E+00   0.00000000E+00   0.00000000E+00   1.09779992E+00   1.09987957E-05   9.52849359E+02   1.93455234E-06  -1.93455234E-06   0.00000000E+00   0.00000000E+00   0.00000000E+00   1.51972544E+04
   5.16250000E+02   5.00000000E-01   5.00000000E-01  -4.43791565E+04   3.02036900E+03   0.00000000E+00   9.13332232E+03   1.70767122E+03   6.23354497E+03   7.19372818E+01   0.00000000E+00   0.00000000E+00   0.00000000E+00   0.00000000E+00   9.73031709E-01   1.09987951E-05   9.52187622E+02   1.93455234E-06  -1.93455234E-06   0.00000000E+00   0.00000000E+00   0.00000000E+00   1.51950840E+04
   5.33750000E+02   5.00000000E-01   5.00000000E-01  -4.43806288E+04   3.02036900E+03   0.00000000E+00   9.13361170E+03   1.70775132E+03   6.23430166E+03   7.19372818E+01   0.00000000E+00   0.00000000E+00   0.00000000E+00   0.00000000E+00   8.61635336E-01   1.09987944E-05   9.51518935E+02   1.93455234E-06  -1.93455234E-06   0.00000000E+00   0.00000000E+00   0.00000000E+00   1.51929510E+04
   5.51250000E+02   5.00000000E-01   5.00000000E-01  -4.43820796E+04   3.02036900E+03   0.00000000E+00   9.13388732E+03   1.70783957E+03   6.23505113E+03   7.19372818E+01   0.00000000E+00   0.00000000E+00   0.00000000E+00   0.00000000E+00   7.61919718E-01   1.09987938E-05   9.50842867E+02   1.93455234E-06  -1.93455234E-06   0.00000000E+00   0.00000000E+00   0.00000000E+00   1.51908324E+04
   5.68750000E+02   5.00000000E-01   5.00000000E-01  -4.43834970E+04   3.02036900E+03   0.00000000E+00   9.13414688E+03   1.70793642E+03   6.23578922E+03   7.19372818E+01   0.00000000E+00   0.00000000E+00   0.00000000E+00   0.00000000E+00   6.72700607E-01   1.09987932E-05   9.50160405E+02   1.93455234E-06  -1.93455234E-06   0.00000000E+00   0.00000000E+00   0.00000000E+00   1.51887244E+04
   5.86250000E+02   5.00000000E-01   5.00000000E-01  -4.43848749E+04   3.02036900E+03   0.00000000E+00   9.13439050E+03   1.70804110E+03   6.23651313E+03   7.19372818E+01   0.00000000E+00   0.00000000E+00   0.00000000E+00   0.00000000E+00   5.93007330E-01   1.09987926E-05   9.49473664E+02   1.93455234E-06  -1.93455234E-06   0.00000000E+00   0.00000000E+00   0.00000000E+00   1.51866283E+04
   6.03750000E+02   5.00000000E-01   5.00000000E-01  -4.43862090E+04   3.02036900E+03   0.00000000E+00   9.13461805E+03   1.70815176E+03   6.23722150E+03   7.19372818E+01   0.00000000E+00   0.00000000E+00   0.00000000E+00   0.00000000E+00   5.21991224E-01   1.09987920E-05   9.48785563E+02   1.93455234E-06  -1.93455234E-06   0.00000000E+00   0.00000000E+00   0.00000000E+00   1.51845480E+04
   6.21250000E+02   5.00000000E-01   5.00000000E-01  -4.43874947E+04   3.02036900E+03   0.00000000E+00   9.13482867E+03   1.70826579E+03   6.23791430E+03   7.19372818E+01   0.00000000E+00   0.00000000E+00   0.00000000E+00   0.00000000E+00   4.58879740E-01   1.09987915E-05   9.48099480E+02   1.93455234E-06  -1.93455234E-06   0.00000000E+00   0.00000000E+00   0.00000000E+00   1.51824878E+04
   6.38750000E+02   5.00000000E-01   5.00000000E-01  -4.43887274E+04   3.02036900E+03   0.00000000E+00   9.13502062E+03   1.70838029E+03   6.23859246E+03   7.19372818E+01   0.00000000E+00   0.00000000E+00   0.00000000E+00   0.00000000E+00   4.02947458E-01   1.09987909E-05   9.47418897E+02   1.93455234E-06  -1.93455234E-06   0.00000000E+00   0.00000000E+00   0.00000000E+00   1.51804516E+04
   6.56250000E+02   5.00000000E-01   5.00000000E-01  -4.43899023E+04   3.02036900E+03   0.00000000E+00   9.13519156E+03   1.70849255E+03   6.23925735E+03   7.19372818E+01   0.00000000E+00   0.00000000E+00   0.00000000E+00   0.00000000E+00   3.53501079E-01   1.09987904E-05   9.46747075E+02   1.93455234E-06  -1.93455234E-06   0.00000000E+00   0.00000000E+00   0.00000000E+00   1.51784430E+04
   6.73750000E+02   5.00000000E-01   5.00000000E-01  -4.43910144E+04   3.02036900E+03   0.00000000E+00   9.13533892E+03   1.70860032E+03   6.23991017E+03   7.19372818E+01   0.00000000E+00   0.00000000E+00   0.00000000E+00   0.00000000E+00   3.09877522E-01   1.09987898E-05   9.46086867E+02   1.93455234E-06  -1.93455234E-06   0.00000000E+00   0.00000000E+00   0.00000000E+00   1.51764645E+04
   6.91250000E+02   5.00000000E-01   5.00000000E-01  -4.43920580E+04   3.02036900E+03   0.00000000E+00   9.13546003E+03   1.70870199E+03   6.24055156E+03   7.19372818E+01   0.00000000E+00   0.00000000E+00   0.00000000E+00   0.00000000E+00   2.71446384E-01   1.09987893E-05   9.45440540E+02   1.93455234E-06  -1.93455234E-06   0.00000000E+00   0.00000000E+00   0.00000000E+00   1.51745172E+04
   7.08750000E+02   5.00000000E-01   5.00000000E-01  -4.43930278E+04   3.02036900E+03   0.00000000E+00   9.13555288E+03   1.70879665E+03   6.24118121E+03   7.19372818E+01   0.00000000E+00   0.00000000E+00   0.00000000E+00   0.00000000E+00   2.37620614E-01   1.09987888E-05   9.44809857E+02   1.94126764E-06  -1.93455234E-06   0.00000000E+00   0.00000000E+00   0.00000000E+00   1.51726019E+04
   7.26250000E+02   5.00000000E-01   5.00000000E-01  -4.43939187E+04   3.02036900E+03   0.00000000E+00   9.13561623E+03   1.70888402E+03   6.24179769E+03   7.19372818E+01   0.00000000E+00   0.00000000E+00   0.00000000E+00   0.00000000E+00   2.07862115E-01   1.09987883E-05   9.44196143E+02   1.96233888E-06  -1.93455234E-06   0.00000000E+00   0.00000000E+00   0.00000000E+00   1.51707193E+04
   7.43750000E+02   5.00000000E-01   5.00000000E-01  -4.43947261E+04   3.02036900E+03   0.00000000E+00   9.13564980E+03   1.70896437E+03   6.24239842E+03   7.19372818E+01   0.00000000E+00   0.00000000E+00   0.00000000E+00   0.00000000E+00   1.81684689E-01   1.09987879E-05   9.43600371E+02   2.00187588E-06  -1.93455234E-06   0.00000000E+00   0.00000000E+00   0.00000000E+00   1.51688702E+04
   7.61250000E+02   5.00000000E-01   5.00000000E-01  -4.43954455E+04   3.02036900E+03   0.00000000E+00   9.13565427E+03   1.70903841E+03   6.24297971E+03   7.19372818E+01   0.00000000E+00   0.00000000E+00   0.00000000E+00   0.00000000E+00   1.58654496E-01   1.09987874E-05   9.43023255E+02   2.07115986E-06  -1.93455234E-06   0.00000000E+00   0.00000000E+00   0.00000000E+00   1.51670555E+04
   7.78750000E+02   5.00000000E-01   5.00000000E-01  -4.43960732E+04   3.02036900E+03   0.00000000E+00   9.13563124E+03   1.70910715E+03   6.24353696E+03   7.19372818E+01   0.00000000E+00   0.00000000E+00   0.00000000E+00   0.00000000E+00   1.38388483E-01   1.09987870E-05   9.42465331E+02   2.18742754E-06  -1.93455234E-06   0.00000000E+00   0.00000000E+00   0.00000000E+00   1.51652768E+04
   7.96250000E+02   5.00000000E-01   5.00000000E-01  -4.43966059E+04   3.02036899E+03   0.00000000E+00   9.13558309E+03   1.70917175E+03   6.24406488E+03   7.19372818E+01   0.00000000E+00   0.00000000E+00   0.00000000E+00   0.00000000E+00   1.20551468E-01   1.09987866E-05   9.41927048E+02   2.37685004E-06  -1.93455234E-06   0.00000000E+00   0.00000000E+00   0.00000000E+00   1.51635361E+04
   8.13750000E+02   5.00000000E-01   5.00000000E-01  -4.43970404E+04   3.02036899E+03   0.00000000E+00   9.13551279E+03   1.70923337E+03   6.24455779E+03   7.19372818E+01   0.00000000E+00   0.00000000E+00   0.00000000E+00   0.00000000E+00   1.04852145E-01   1.09987862E-05   9.41408824E+02   2.67898310E-06  -1.93455234E-06   0.00000000E+00   0.00000000E+00   0.00000000E+00   1.51618356E+04
   8.31250000E+02   5.00000000E-01   5.00000000E-01  -4.43973740E+04   3.02036899E+03   0.00000000E+00   9.13542355E+03   1.70929298E+03   6.24500999E+03   7.19372818E+01   0.00000000E+00   0.00000000E+00   0.00000000E+00   0.00000000E+00   9.10383397E-02   1.09987858E-05   9.40911078E+02   3.15342124E-06  -1.93455234E-06   0.00000000E+00   0.00000000E+00   0.00000000E+00   1.51601778E+04
   8.48750000E+02   5.00000000E-01   5.00000000E-01  -4.43976035E+04   3.02036899E+03   0.00000000E+00   9.13531844E+03   1.70935118E+03   6.24541615E+03   7.19372818E+01   0.00000000E+00   0.00000000E+00   0.00000000E+00   0.00000000E+00   7.88920168E-02   1.09987854E-05   9.40434237E+02   3.88976016E-06  -1.93455234E-06   0.00000000E+00   0.00000000E+00   0.00000000E+00   1.51585644E+04
   8.66250000E+02   5.00000000E-01   5.00000000E-01  -4.43977255E+04   3.02036899E+03   0.00000000E+00   9.13520002E+03   1.70940809E+03   6.24577176E+03   7.19372818E+01   0.00000000E+00   0.00000000E+00   0.00000000E+00   0.00000000E+00   6.82244804E-02   1.09987851E-05   9.39978716E+02   5.02253717E-06  -1.93455234E-06   0.00000000E+00   0.00000000E+00   0.00000000E+00   1.51569967E+04
   8.83750000E+02   5.00000000E-01   5.00000000E-01  -4.43976866E+04   3.02036899E+03   0.00000000E+00   9.13504966E+03   1.70945801E+03   6.24607866E+03   7.19372818E+01   0.00000000E+00   0.00000000E+00   0.00000000E+00   0.00000000E+00   5.88162190E-02   1.09987847E-05   9.39536288E+02   6.75369916E-06  -1.93455234E-06   0.00000000E+00   0.00000000E+00   0.00000000E+00   1.51554173E+04
   9.01250000E+02   5.00000000E-01   5.00000000E-01  -4.43975794E+04   3.02036899E+03   0.00000000E+00   9.13490931E+03   1.70950639E+03   6.24633041E+03   7.19372818E+01   0.00000000E+00   0.00000000E+00   0.00000000E+00   0.00000000E+00   5.06473627E-02   1.09987844E-05   9.39117783E+02   9.38641105E-06  -1.93455234E-06   0.00000000E+00   0.00000000E+00   0.00000000E+00   1.51539104E+04
   9.18750000E+02   5.00000000E-01   5.00000000E-01  -4.43973711E+04   3.02036899E+03   0.00000000E+00   9.13476573E+03   1.70955203E+03   6.24652490E+03   7.19372818E+01   0.00000000E+00   0.00000000E+00   0.00000000E+00   0.00000000E+00   4.35404420E-02   1.09987841E-05   9.38723517E+02   1.33761228E-05  -1.93455234E-06   0.00000000E+00   0.00000000E+00   0.00000000E+00   1.51524616E+04
   9.36250000E+02   5.00000000E-01   5.00000000E-01  -4.43970394E+04   3.02036899E+03   0.00000000E+00   9.13460955E+03   1.70959237E+03   6.24666359E+03   7.19372818E+01   0.00000000E+00   0.00000000E+00   0.00000000E+00   0.00000000E+00   3.73554190E-02   1.09987838E-05   9.38352232E+02   1.94078976E-05  -1.93455234E-06   0.00000000E+00   0.00000000E+00   0.00000000E+00   1.51510534E+04
   9.53750000E+02   5.00000000E-01   5.00000000E-01  -4.43965816E+04   3.02036899E+03   0.00000000E+00   9.13443898E+03   1.70962531E+03   6.24674946E+03   7.19372818E+01   0.00000000E+00   0.00000000E+00   0.00000000E+00   0.00000000E+00   3.19878963E-02   1.09987835E-05   9.38003360E+02   2.85138473E-05  -1.93455234E-06   0.00000000E+00   0.00000000E+00   0.00000000E+00   1.51496796E+04
   9.71250000E+02   5.00000000E-01   5.00000000E-01  -4.43960001E+04   3.02036899E+03   0.00000000E+00   9.13425335E+03   1.70964913E+03   6.24678632E+03   7.19372818E+01   0.00000000E+00   0.00000000E+00   0.00000000E+00   0.00000000E+00   2.73459434E-02   1.09987832E-05   9.37676377E+02   4.22520495E-05  -1.93455234E-06   0.00000000E+00   0.00000000E+00   0.00000000E+00   1.51483360E+04
   9.88750000E+02   5.00000000E-01   5.00000000E-01  -4.43952986E+04   3.02036899E+03   0.00000000E+00   9.13405202E+03   1.70966253E+03   6.24677846E+03   7.19372818E+01   0.00000000E+00   0.00000000E+00   0.00000000E+00   0.00000000E+00   2.33447853E-02   1.09987830E-05   9.37370587E+02   6.29800482E-05  -1.93455234E-06   0.00000000E+00   0.00000000E+00   0.00000000E+00   1.51470192E+04
   1.00625000E+03   5.00000000E-01   5.00000000E-01  -4.43944826E+04   3.02036899E+03   0.00000000E+00   9.13383444E+03   1.70966472E+03   6.24673033E+03   7.19372818E+01   0.00000000E+00   0.00000000E+00   0.00000000E+00   0.00000000E+00   1.99060419E-02   1.09987827E-05   9.37085085E+02   9.42744122E-05  -1.93455234E-06   0.00000000E+00   0.00000000E+00   0.00000000E+00   1.51457256E+04
   1.02375000E+03   5.00000000E-01   5.00000000E-01  -4.43935587E+04   3.02036899E+03   0.00000000E+00   9.13360049E+03   1.70965542E+03   6.24664631E+03   7.19372818E+01   0.00000000E+00   0.00000000E+00   0.00000000E+00   0.00000000E+00   1.69579476E-02   1.09987825E-05   9.36818786E+02   1.41576713E-04  -1.93455234E-06   0.00000000E+00   0.00000000E+00   0.00000000E+00   1.51444527E+04
   1.04125000E+03   5.00000000E-01   5.00000000E-01  -4.43925348E+04   3.02036899E+03   0.00000000E+00   9.13335042E+03   1.70963482E+03   6.24653052E+03   7.19372818E+01   0.00000000E+00   0.00000000E+00   0.00000000E+00   0.00000000E+00   1.44352606E-02   1.09987823E-05   9.36570432E+02   2.13191908E-04  -1.93455234E-06   0.00000000E+00   0.00000000E+00   0.00000000E+00   1.51431980E+04
   1.05875000E+03   5.00000000E-01   5.00000000E-01  -4.43914200E+04   3.02036899E+03   0.00000000E+00   9.13308523E+03   1.70960352E+03   6.24638668E+03   7.19372818E+01   0.00000000E+00   0.00000000E+00   0.00000000E+00   0.00000000E+00   1.22798887E-02   1.09987821E-05   9.36338711E+02   3.21837461E-04  -1.93455234E-06   0.00000000E+00   0.00000000E+00   0.00000000E+00   1.51419602E+04
   1.07625000E+03   5.00000000E-01   5.00000000E-01  -4.43902247E+04   3.02036899E+03   0.00000000E+00   9.13280654E+03   1.70956243E+03   6.24621808E+03   7.19372818E+01   0.00000000E+00   0.00000000E+00   0.00000000E+00   0.00000000E+00   1.04404790E-02   1.09987819E-05   9.36122301E+02   4.87056792E-04  -1.93455234E-06   0.00000000E+00   0.00000000E+00   0.00000000E+00   1.51407389E+04
   1.09375000E+03   5.00000000E-01   5.00000000E-01  -4.43889594E+04   3.02036899E+03   0.00000000E+00   9.13251647E+03   1.70951266E+03   6.24602752E+03   7.19372818E+01   0.00000000E+00   0.00000000E+00   0.00000000E+00   0.00000000E+00   8.87204609E-03   1.09987817E-05   9.35919907E+02   7.38995014E-04  -1.93455234E-06   0.00000000E+00   0.00000000E+00   0.00000000E+00   1.51395343E+04
   1.11125000E+03   5.00000000E-01   5.00000000E-01  -4.43876352E+04   3.02036899E+03   0.00000000E+00   9.13221756E+03   1.70945545E+03   6.24581740E+03   7.19372818E+01   0.00000000E+00   0.00000000E+00   0.00000000E+00   0.00000000E+00   7.53550069E-03   1.09987815E-05   9.35730306E+02   1.12433122E-03  -1.93455234E-06   0.00000000E+00   0.00000000E+00   0.00000000E+00   1.51383473E+04
   1.12875000E+03   5.00000000E-01   5.00000000E-01  -4.43862632E+04   3.02036899E+03   0.00000000E+00   9.13191269E+03   1.70939212E+03   6.24558973E+03   7.19372818E+01   0.00000000E+00   0.00000000E+00   0.00000000E+00   0.00000000E+00   6.39713125E-03   1.09987813E-05   9.35552379E+02   1.71563987E-03  -1.93455234E-06   0.00000000E+00   0.00000000E+00   0.00000000E+00   1.51371792E+04
   1.14625000E+03   5.00000000E-01   5.00000000E-01  -4.43848543E+04   3.02036899E+03   0.00000000E+00   9.13160495E+03   1.70932400E+03   6.24534615E+03   7.19372818E+01   0.00000000E+00   0.00000000E+00   0.00000000E+00   0.00000000E+00   5.42802159E-03   1.09987812E-05   9.35385129E+02   2.62622947E-03  -1.93455234E-06   0.00000000E+00   0.00000000E+00   0.00000000E+00   1.51360321E+04
   1.16375000E+03   5.00000000E-01   5.00000000E-01  -4.43834191E+04   3.02036899E+03   0.00000000E+00   9.13129759E+03   1.70925240E+03   6.24508805E+03   7.19372818E+01   0.00000000E+00   0.00000000E+00   0.00000000E+00   0.00000000E+00   4.60342755E-03   1.09987810E-05   9.35227684E+02   4.03376987E-03  -1.93455234E-06   0.00000000E+00   0.00000000E+00   0.00000000E+00   1.51349082E+04
   1.18125000E+03   5.00000000E-01   5.00000000E-01  -4.43819676E+04   3.02036899E+03   0.00000000E+00   9.13099382E+03   1.70917870E+03   6.24481652E+03   7.19372818E+01   0.00000000E+00   0.00000000E+00   0.00000000E+00   0.00000000E+00   3.90219351E-03   1.09987809E-05   9.35079289E+02   6.21808696E-03  -1.93455234E-06   0.00000000E+00   0.00000000E+00   0.00000000E+00   1.51338099E+04
   1.19875000E+03   5.00000000E-01   5.00000000E-01  -4.43805093E+04   3.02036899E+03   0.00000000E+00   9.13069676E+03   1.70910431E+03   6.24453250E+03   7.19372818E+01   0.00000000E+00   0.00000000E+00   0.00000000E+00   0.00000000E+00   3.30625056E-03   1.09987808E-05   9.34939286E+02   9.62190029E-03  -1.93455234E-06   0.00000000E+00   0.00000000E+00   0.00000000E+00   1.51327397E+04
   1.21625000E+03   5.00000000E-01   5.00000000E-01  -4.43790527E+04   3.02036899E+03   0.00000000E+00   9.13040937E+03   1.70903083E+03   6.24423674E+03   7.19372818E+01   0.00000000E+00   0.00000000E+00   0.00000000E+00   0.00000000E+00   2.80017356E-03   1.09987806E-05   9.34807100E+02   1.49488874E-02  -1.93455234E-06   0.00000000E+00   0.00000000E+00   0.00000000E+00   1.51316999E+04
   1.23375000E+03   5.00000000E-01   5.00000000E-01  -4.43776057E+04   3.02036899E+03   0.00000000E+00   9.13013439E+03   1.70896017E+03   6.24392993E+03   7.19372818E+01   0.00000000E+00   0.00000000E+00   0.00000000E+00   0.00000000E+00   2.37077667E-03   1.09987805E-05   9.34682207E+02   2.33227524E-02  -1.93455234E-06   0.00000000E+00   0.00000000E+00   0.00000000E+00   1.51306929E+04
   1.25125000E+03   5.00000000E-01   5.00000000E-01  -4.43761756E+04   3.02036898E+03   0.00000000E+00   9.12987435E+03   1.70889489E+03   6.24361268E+03   7.19372818E+01   0.00000000E+00   0.00000000E+00   0.00000000E+00   0.00000000E+00   2.00678552E-03   1.09987804E-05   9.34564116E+02   3.65464363E-02  -1.93455234E-06   0.00000000E+00   0.00000000E+00   0.00000000E+00   1.51297205E+04
   1.26875000E+03   5.00000000E-01   5.00000000E-01  -4.43747683E+04   3.02036898E+03   0.00000000E+00   9.12963122E+03   1.70883845E+03   6.24328560E+03   7.19372818E+01   0.00000000E+00   0.00000000E+00   0.00000000E+00   0.00000000E+00   1.69849590E-03   1.09987803E-05   9.34452341E+02   5.75264143E-02  -1.93455234E-06   0.00000000E+00   0.00000000E+00   0.00000000E+00   1.51287839E+04
   1.28625000E+03   5.00000000E-01   5.00000000E-01  -4.43733894E+04   3.02036898E+03   0.00000000E+00   9.12940688E+03   1.70879614E+03   6.24294932E+03   7.19372818E+01   0.00000000E+00   0.00000000E+00   0.00000000E+00   0.00000000E+00   1.43764083E-03   1.09987802E-05   9.34346397E+02   9.09701619E-02  -1.93455234E-06   0.00000000E+00   0.00000000E+00   0.00000000E+00   1.51278845E+04
   1.30375000E+03   5.00000000E-01   5.00000000E-01  -4.43720436E+04   3.02036898E+03   0.00000000E+00   9.12920283E+03   1.70877610E+03   6.24260455E+03   7.19372818E+01   0.00000000E+00   0.00000000E+00   0.00000000E+00   0.00000000E+00   1.21713284E-03   1.09987802E-05   9.34245784E+02   1.44537054E-01  -1.93455234E-06   0.00000000E+00   0.00000000E+00   0.00000000E+00   1.51270227E+04