 TITLE = "Total Component Concentration in Minerals" 
VARIABLES = "X"          "Y"              "Z"            "H+"             "Al+++"          "CO2(aq)"        "Mg++"           "Ca++"           "Fe++"           "Fe+++"          "Ba++"           "Sr++"           "Li+"            "Rb+"            "Mn++"           "Zn++"           "Cu++"           "Cu+"            "Cl-"            "F-"             "K+"             "HS-"            "Na+"            "SO4--"          "O2(aq)"         "B(OH)3(aq)"     "HPO4--"         "NO3-"           "H4SiO4(aq)"     "Ti(OH)4(aq)"   
 ZONE I=         200 , J=           1 , K=           1  F=POINT
   8.75000000E+00   5.00000000E-01   5.00000000E-01  -4.46092179E+04   3.03736107E+03   0.00000000E+00   9.15761233E+03   1.71243966E+03   6.21884577E+03   7.34541571E+01   1.98145774E+00   2.16216050E+00   0.00000000E+00   0.00000000E+00   2.05826920E+01   6.94938650E+01   2.44618229E+00   7.03745368E+00   0.00000000E+00   8.14927529E+00   5.65006582E-06   3.51873784E+00   9.23454168E+02   6.58980247E+00  -1.93516413E-06   0.00000000E+00   0.00000000E+00   0.00000000E+00   1.51149722E+04   7.11043944E+00
   2.62500000E+01   5.00000000E-01   5.00000000E-01  -4.46324967E+04   3.03733253E+03   0.00000000E+00   9.16738842E+03   1.71266022E+03   6.21905426E+03   7.34541570E+01   1.94268758E+00   2.16216050E+00   0.00000000E+00   0.00000000E+00   2.05826920E+01   6.94938679E+01   2.44618229E+00   7.03729939E+00   0.00000000E+00   8.14927501E+00   1.09476282E-05   3.51866070E+00   9.26408358E+02   6.55103231E+00  -1.93516413E-06   0.00000000E+00   0.00000000E+00   0.00000000E+00   1.51352510E+04   7.11043978E+00
   4.37500000E+01   5.00000000E-01   5.00000000E-01  -4.46262695E+04   3.03733253E+03   0.00000000E+00   9.16227901E+03   1.71281511E+03   6.21926205E+03   7.34541570E+01   1.92728680E+00   2.16216050E+00   0.00000000E+00   0.00000000E+00   2.05826920E+01   6.94938680E+01   2.44618229E+00   7.03729939E+00   0.00000000E+00   8.14927476E+00   1.37460725E-05   3.51866070E+00   9.29674581E+02   6.53563153E+00  -1.93516413E-06   0.00000000E+00   0.00000000E+00   0.00000000E+00   1.51432595E+04   7.11044025E+00
   6.12500000E+01   5.00000000E-01   5.00000000E-01  -4.46204825E+04   3.03733253E+03   0.00000000E+00   9.15648019E+03   1.71294299E+03   6.21947868E+03   7.34541570E+01   1.92075384E+00   2.16216050E+00   0.00000000E+00   0.00000000E+00   2.05826920E+01   6.94938705E+01   2.44618229E+00   7.03729939E+00   0.00000000E+00   8.14927452E+00   1.56754822E-05   3.51866070E+00   9.34796231E+02   6.52909857E+00  -1.93516413E-06   0.00000000E+00   0.00000000E+00   0.00000000E+00   1.51575358E+04   7.11044084E+00
   7.87500000E+01   5.00000000E-01   5.00000000E-01  -4.46174077E+04   3.03733253E+03   0.00000000E+00   9.15151356E+03   1.71310748E+03   6.21971940E+03   7.34541570E+01   1.91778960E+00   2.16216050E+00   0.00000000E+00   0.00000000E+00   2.05826920E+01   6.94938751E+01   2.44618229E+00   7.03729939E+00   0.00000000E+00   8.14927430E+00   1.77720075E-05   3.51866070E+00   9.40844199E+02   6.52613433E+00  -1.93516413E-06   0.00000000E+00   0.00000000E+00   0.00000000E+00   1.51760904E+04   7.11044146E+00
   9.62500000E+01   5.00000000E-01   5.00000000E-01  -4.46157921E+04   3.03733253E+03   0.00000000E+00   9.14726165E+03   1.71331788E+03   6.21998867E+03   7.34541570E+01   1.91633166E+00   2.16216050E+00   0.00000000E+00   0.00000000E+00   2.05826920E+01   6.94938812E+01   2.44618229E+00   7.03729939E+00   0.00000000E+00   8.14927411E+00   1.99486608E-05   3.51866070E+00   9.46773142E+02   6.52467639E+00  -1.93516413E-06   0.00000000E+00   0.00000000E+00   0.00000000E+00   1.51949345E+04   7.11044206E+00
   1.13750000E+02   5.00000000E-01   5.00000000E-01  -4.46148352E+04   3.03733253E+03   0.00000000E+00   9.14370617E+03   1.71356048E+03   6.22028485E+03   7.34541570E+01   1.91553676E+00   2.16216050E+00   0.00000000E+00   0.00000000E+00   2.05826920E+01   6.94938883E+01   2.44618229E+00   7.03729939E+00   0.00000000E+00   8.14927392E+00   2.18625641E-05   3.51866070E+00   9.51849602E+02   6.52388149E+00  -1.93516413E-06   0.00000000E+00   0.00000000E+00   0.00000000E+00   1.52112884E+04   7.11044261E+00
   1.31250000E+02   5.00000000E-01   5.00000000E-01  -4.46143261E+04   3.03733253E+03   0.00000000E+00   9.14090329E+03   1.71381805E+03   6.22060475E+03   7.34541570E+01   1.91504521E+00   2.16216050E+00   0.00000000E+00   0.00000000E+00   2.05826920E+01   6.94938963E+01   2.44618229E+00   7.03729939E+00   0.00000000E+00   8.14927375E+00   2.32605048E-05   3.51866070E+00   9.55791272E+02   6.52338994E+00  -1.93516413E-06   0.00000000E+00   0.00000000E+00   0.00000000E+00   1.52241165E+04   7.11044309E+00
   1.48750000E+02   5.00000000E-01   5.00000000E-01  -4.46142012E+04   3.03733253E+03   0.00000000E+00   9.13881633E+03   1.71407742E+03   6.22094553E+03   7.34541570E+01   1.91469766E+00   2.16216050E+00   0.00000000E+00   0.00000000E+00   2.05826920E+01   6.94939050E+01   2.44618229E+00   7.03729939E+00   0.00000000E+00   8.14927359E+00   2.40487239E-05   3.51866070E+00   9.58640035E+02   6.52304238E+00  -1.93516413E-06   0.00000000E+00   0.00000000E+00   0.00000000E+00   1.52335174E+04   7.11044352E+00
   1.66250000E+02   5.00000000E-01   5.00000000E-01  -4.46144056E+04   3.03733253E+03   0.00000000E+00   9.13733545E+03   1.71432995E+03   6.22130486E+03   7.34541570E+01   1.91442101E+00   2.16216050E+00   0.00000000E+00   0.00000000E+00   2.05826920E+01   6.94939142E+01   2.44618229E+00   7.03729939E+00   0.00000000E+00   8.14927345E+00   2.42534441E-05   3.51866070E+00   9.60582433E+02   6.52276574E+00  -1.93516413E-06   0.00000000E+00   0.00000000E+00   0.00000000E+00   1.52400732E+04   7.11044387E+00
   1.83750000E+02   5.00000000E-01   5.00000000E-01  -4.46148825E+04   3.03733253E+03   0.00000000E+00   9.13633334E+03   1.71457009E+03   6.22168066E+03   7.34541570E+01   1.91418070E+00   2.16216050E+00   0.00000000E+00   0.00000000E+00   2.05826920E+01   6.94939240E+01   2.44618229E+00   7.03729939E+00   0.00000000E+00   8.14927331E+00   2.39636447E-05   3.51866070E+00   9.61831656E+02   6.52252543E+00  -1.93516413E-06   0.00000000E+00   0.00000000E+00   0.00000000E+00   1.52444551E+04   7.11044414E+00
   2.01250000E+02   5.00000000E-01   5.00000000E-01  -4.46155799E+04   3.03733253E+03   0.00000000E+00   9.13569646E+03   1.71479416E+03   6.22207095E+03   7.34541570E+01   1.91395990E+00   2.16216050E+00   0.00000000E+00   0.00000000E+00   2.05826920E+01   6.94939342E+01   2.44618229E+00   7.03729939E+00   0.00000000E+00   8.14927319E+00   2.32900045E-05   3.51866070E+00   9.62574066E+02   6.52230463E+00  -1.93516413E-06   0.00000000E+00   0.00000000E+00   0.00000000E+00   1.52472500E+04   7.11044435E+00
   2.18750000E+02   5.00000000E-01   5.00000000E-01  -4.46164542E+04   3.03733253E+03   0.00000000E+00   9.13533488E+03   1.71499986E+03   6.22247377E+03   7.34541570E+01   1.91375025E+00   2.16216050E+00   0.00000000E+00   0.00000000E+00   2.05826920E+01   6.94939447E+01   2.44618229E+00   7.03729939E+00   0.00000000E+00   8.14927307E+00   2.23416712E-05   3.51866069E+00   9.62954471E+02   6.52209497E+00  -1.93516413E-06   0.00000000E+00   0.00000000E+00   0.00000000E+00   1.52489131E+04   7.11044448E+00
   2.36250000E+02   5.00000000E-01   5.00000000E-01  -4.46174707E+04   3.03733253E+03   0.00000000E+00   9.13518142E+03   1.71518594E+03   6.22288728E+03   7.34541570E+01   1.91354750E+00   2.16216050E+00   0.00000000E+00   0.00000000E+00   2.05826920E+01   6.94939555E+01   2.44618229E+00   7.03729939E+00   0.00000000E+00   8.14927297E+00   2.12148738E-05   3.51866069E+00   9.63078642E+02   6.52189223E+00  -1.93516413E-06   0.00000000E+00   0.00000000E+00   0.00000000E+00   1.52497762E+04   7.11044454E+00
   2.53750000E+02   5.00000000E-01   5.00000000E-01  -4.46186021E+04   3.03733253E+03   0.00000000E+00   9.13518723E+03   1.71535207E+03   6.22330979E+03   7.34541570E+01   1.91334952E+00   2.16216050E+00   0.00000000E+00   0.00000000E+00   2.05826920E+01   6.94939667E+01   2.44618229E+00   7.03729939E+00   0.00000000E+00   8.14927287E+00   1.99884986E-05   3.51866069E+00   9.63021179E+02   6.52169424E+00  -1.93516413E-06   0.00000000E+00   0.00000000E+00   0.00000000E+00   1.52500727E+04   7.11044454E+00
   2.71250000E+02   5.00000000E-01   5.00000000E-01  -4.46198273E+04   3.03733253E+03   0.00000000E+00   9.13531700E+03   1.71549867E+03   6.22373978E+03   7.34541570E+01   1.91315521E+00   2.16216050E+00   0.00000000E+00   0.00000000E+00   2.05826920E+01   6.94939780E+01   2.44618229E+00   7.03729939E+00   0.00000000E+00   8.14927278E+00   1.87235858E-05   3.51866069E+00   9.62833617E+02   6.52149993E+00  -1.93516413E-06   0.00000000E+00   0.00000000E+00   0.00000000E+00   1.52499634E+04   7.11044446E+00
   2.88750000E+02   5.00000000E-01   5.00000000E-01  -4.46211293E+04   3.03733253E+03   0.00000000E+00   9.13554499E+03   1.71562675E+03   6.22417596E+03   7.34541570E+01   1.91296405E+00   2.16216050E+00   0.00000000E+00   0.00000000E+00   2.05826920E+01   6.94939896E+01   2.44618229E+00   7.03729938E+00   0.00000000E+00   8.14927269E+00   1.74648977E-05   3.51866069E+00   9.62551109E+02   6.52130878E+00  -1.93516413E-06   0.00000000E+00   0.00000000E+00   0.00000000E+00   1.52495577E+04   7.11044432E+00
   3.06250000E+02   5.00000000E-01   5.00000000E-01  -4.46224944E+04   3.03733253E+03   0.00000000E+00   9.13585201E+03   1.71573779E+03   6.22461724E+03   7.34541570E+01   1.91277583E+00   2.16216050E+00   0.00000000E+00   0.00000000E+00   2.05826920E+01   6.94940015E+01   2.44618229E+00   7.03729938E+00   0.00000000E+00   8.14927261E+00   1.62434233E-05   3.51866069E+00   9.62197451E+02   6.52112056E+00  -1.93516413E-06   0.00000000E+00   0.00000000E+00   0.00000000E+00   1.52489295E+04   7.11044412E+00
   3.23750000E+02   5.00000000E-01   5.00000000E-01  -4.46239109E+04   3.03733253E+03   0.00000000E+00   9.13622340E+03   1.71583353E+03   6.22506272E+03   7.34541570E+01   1.91259048E+00   2.16216050E+00   0.00000000E+00   0.00000000E+00   2.05826920E+01   6.94940135E+01   2.44618229E+00   7.03729938E+00   0.00000000E+00   8.14927254E+00   1.50791364E-05   3.51866069E+00   9.61788702E+02   6.52093520E+00  -1.93516413E-06   0.00000000E+00   0.00000000E+00   0.00000000E+00   1.52481280E+04   7.11044387E+00
   3.41250000E+02   5.00000000E-01   5.00000000E-01  -4.46253689E+04   3.03733253E+03   0.00000000E+00   9.13664757E+03   1.71591584E+03   6.22551169E+03   7.34541570E+01   1.91240802E+00   2.16216050E+00   0.00000000E+00   0.00000000E+00   2.05826920E+01   6.94940258E+01   2.44618229E+00   7.03729938E+00   0.00000000E+00   8.14927247E+00   1.39836216E-05   3.51866069E+00   9.61335776E+02   6.52075275E+00  -1.93516413E-06   0.00000000E+00   0.00000000E+00   0.00000000E+00   1.52471868E+04   7.11044356E+00
   3.58750000E+02   5.00000000E-01   5.00000000E-01  -4.46268597E+04   3.03733253E+03   0.00000000E+00   9.13711507E+03   1.71598661E+03   6.22596359E+03   7.34541570E+01   1.91222853E+00   2.16216050E+00   0.00000000E+00   0.00000000E+00   2.05826920E+01   6.94940383E+01   2.44618229E+00   7.03729938E+00   0.00000000E+00   8.14927241E+00   1.29623735E-05   3.51866069E+00   9.60846268E+02   6.52057326E+00  -1.93516413E-06   0.00000000E+00   0.00000000E+00   0.00000000E+00   1.52461288E+04   7.11044320E+00
   3.76250000E+02   5.00000000E-01   5.00000000E-01  -4.46283759E+04   3.03733253E+03   0.00000000E+00   9.13761800E+03   1.71604760E+03   6.22641801E+03   7.34541570E+01   1.91205210E+00   2.16216050E+00   0.00000000E+00   0.00000000E+00   2.05826920E+01   6.94940511E+01   2.44618229E+00   7.03729938E+00   0.00000000E+00   8.14927235E+00   1.20166879E-05   3.51866069E+00   9.60325754E+02   6.52039683E+00  -1.93516413E-06   0.00000000E+00   0.00000000E+00   0.00000000E+00   1.52449706E+04   7.11044279E+00
   3.93750000E+02   5.00000000E-01   5.00000000E-01  -4.46299107E+04   3.03733253E+03   0.00000000E+00   9.13814955E+03   1.71610041E+03   6.22687461E+03   7.34541570E+01   1.91187884E+00   2.16216050E+00   0.00000000E+00   0.00000000E+00   2.05826920E+01   6.94940640E+01   2.44618229E+00   7.03729938E+00   0.00000000E+00   8.14927229E+00   1.11451273E-05   3.51866069E+00   9.59778655E+02   6.52022356E+00  -1.93516413E-06   0.00000000E+00   0.00000000E+00   0.00000000E+00   1.52437253E+04   7.11044234E+00
   4.11250000E+02   5.00000000E-01   5.00000000E-01  -4.46314583E+04   3.03733253E+03   0.00000000E+00   9.13870366E+03   1.71614645E+03   6.22733316E+03   7.34541570E+01   1.91170885E+00   2.16216050E+00   0.00000000E+00   0.00000000E+00   2.05826920E+01   6.94940773E+01   2.44618229E+00   7.03729938E+00   0.00000000E+00   8.14927224E+00   1.03445841E-05   3.51866069E+00   9.59208759E+02   6.52005358E+00  -1.93516413E-06   0.00000000E+00   0.00000000E+00   0.00000000E+00   1.52424041E+04   7.11044185E+00
   4.28750000E+02   5.00000000E-01   5.00000000E-01  -4.46330126E+04   3.03733253E+03   0.00000000E+00   9.13927470E+03   1.71618693E+03   6.22779345E+03   7.34541570E+01   1.91154225E+00   2.16216050E+00   0.00000000E+00   0.00000000E+00   2.05826920E+01   6.94940908E+01   2.44618229E+00   7.03729938E+00   0.00000000E+00   8.14927220E+00   9.61099816E-06   3.51866069E+00   9.58619460E+02   6.51988697E+00  -1.93516413E-06   0.00000000E+00   0.00000000E+00   0.00000000E+00   1.52410166E+04   7.11044133E+00
   4.46250000E+02   5.00000000E-01   5.00000000E-01  -4.46345677E+04   3.03733253E+03   0.00000000E+00   9.13985724E+03   1.71622289E+03   6.22825529E+03   7.34541570E+01   1.91137913E+00   2.16216050E+00   0.00000000E+00   0.00000000E+00   2.05826920E+01   6.94941046E+01   2.44618229E+00   7.03729938E+00   0.00000000E+00   8.14927215E+00   8.93980992E-06   3.51866069E+00   9.58013813E+02   6.51972386E+00  -1.93516413E-06   0.00000000E+00   0.00000000E+00   0.00000000E+00   1.52395711E+04   7.11044077E+00
   4.63750000E+02   5.00000000E-01   5.00000000E-01  -4.46361168E+04   3.03733253E+03   0.00000000E+00   9.14044591E+03   1.71625528E+03   6.22871844E+03   7.34541570E+01   1.91121961E+00   2.16216050E+00   0.00000000E+00   0.00000000E+00   2.05826920E+01   6.94941187E+01   2.44618229E+00   7.03729938E+00   0.00000000E+00   8.14927211E+00   8.32623996E-06   3.51866069E+00   9.57394513E+02   6.51956434E+00  -1.93516413E-06   0.00000000E+00   0.00000000E+00   0.00000000E+00   1.52380744E+04   7.11044019E+00
   4.81250000E+02   5.00000000E-01   5.00000000E-01  -4.46376528E+04   3.03733253E+03   0.00000000E+00   9.14103537E+03   1.71628491E+03   6.22918265E+03   7.34541570E+01   1.91106378E+00   2.16216050E+00   0.00000000E+00   0.00000000E+00   2.05826920E+01   6.94941330E+01   2.44618229E+00   7.03729938E+00   0.00000000E+00   8.14927208E+00   7.76547334E-06   3.51866069E+00   9.56763894E+02   6.51940851E+00  -1.93516413E-06   0.00000000E+00   0.00000000E+00   0.00000000E+00   1.52365318E+04   7.11043958E+00
   4.98750000E+02   5.00000000E-01   5.00000000E-01  -4.46391681E+04   3.03733253E+03   0.00000000E+00   9.14162040E+03   1.71631249E+03   6.22964763E+03   7.34541570E+01   1.91091173E+00   2.16216050E+00   0.00000000E+00   0.00000000E+00   2.05826920E+01   6.94941477E+01   2.44618229E+00   7.03729938E+00   0.00000000E+00   8.14927204E+00   7.25280001E-06   3.51866069E+00   9.56123977E+02   6.51925646E+00  -1.93516413E-06   0.00000000E+00   0.00000000E+00   0.00000000E+00   1.52349472E+04   7.11043895E+00
   5.16250000E+02   5.00000000E-01   5.00000000E-01  -4.46406549E+04   3.03733253E+03   0.00000000E+00   9.14219601E+03   1.71633858E+03   6.23011302E+03   7.34541570E+01   1.91076355E+00   2.16216050E+00   0.00000000E+00   0.00000000E+00   2.05826920E+01   6.94941628E+01   2.44618229E+00   7.03729938E+00   0.00000000E+00   8.14927201E+00   6.78373286E-06   3.51866069E+00   9.55476586E+02   6.51910827E+00  -1.93516413E-06   0.00000000E+00   0.00000000E+00   0.00000000E+00   1.52333239E+04   7.11043830E+00
   5.33750000E+02   5.00000000E-01   5.00000000E-01  -4.46421058E+04   3.03733253E+03   0.00000000E+00   9.14275754E+03   1.71636358E+03   6.23057846E+03   7.34541570E+01   1.91061932E+00   2.16216050E+00   0.00000000E+00   0.00000000E+00   2.05826920E+01   6.94941781E+01   2.44618229E+00   7.03729938E+00   0.00000000E+00   8.14927199E+00   6.35410351E-06   3.51866069E+00   9.54823473E+02   6.51896405E+00  -1.93516413E-06   0.00000000E+00   0.00000000E+00   0.00000000E+00   1.52316648E+04   7.11043763E+00
   5.51250000E+02   5.00000000E-01   5.00000000E-01  -4.46435135E+04   3.03733253E+03   0.00000000E+00   9.14330065E+03   1.71638771E+03   6.23104357E+03   7.34541570E+01   1.91047912E+00   2.16216050E+00   0.00000000E+00   0.00000000E+00   2.05826920E+01   6.94941938E+01   2.44618229E+00   7.03729938E+00   0.00000000E+00   8.14927196E+00   5.96012526E-06   3.51866069E+00   9.54166411E+02   6.51882385E+00  -1.93516413E-06   0.00000000E+00   0.00000000E+00   0.00000000E+00   1.52299727E+04   7.11043695E+00
   5.68750000E+02   5.00000000E-01   5.00000000E-01  -4.46448710E+04   3.03733252E+03   0.00000000E+00   9.14382132E+03   1.71641102E+03   6.23150793E+03   7.34541570E+01   1.91034302E+00   2.16216050E+00   0.00000000E+00   0.00000000E+00   2.05826920E+01   6.94942099E+01   2.44618229E+00   7.03729938E+00   0.00000000E+00   8.14927194E+00   5.59841436E-06   3.51866069E+00   9.53507213E+02   6.51868776E+00  -1.93516413E-06   0.00000000E+00   0.00000000E+00   0.00000000E+00   1.52282507E+04   7.11043626E+00
   5.86250000E+02   5.00000000E-01   5.00000000E-01  -4.46461715E+04   3.03733252E+03   0.00000000E+00   9.14431571E+03   1.71643345E+03   6.23197113E+03   7.34541570E+01   1.91021111E+00   2.16216050E+00   0.00000000E+00   0.00000000E+00   2.05826920E+01   6.94942263E+01   2.44618229E+00   7.03729937E+00   0.00000000E+00   8.14927192E+00   5.26596988E-06   3.51866069E+00   9.52847680E+02   6.51855584E+00  -1.93516413E-06   0.00000000E+00   0.00000000E+00   0.00000000E+00   1.52265019E+04   7.11043556E+00
   6.03750000E+02   5.00000000E-01   5.00000000E-01  -4.46474080E+04   3.03733252E+03   0.00000000E+00   9.14478007E+03   1.71645487E+03   6.23243268E+03   7.34541570E+01   1.91008343E+00   2.16216050E+00   0.00000000E+00   0.00000000E+00   2.05826920E+01   6.94942431E+01   2.44618229E+00   7.03729937E+00   0.00000000E+00   8.14927190E+00   4.96012374E-06   3.51866069E+00   9.52189490E+02   6.51842817E+00  -1.93516413E-06   0.00000000E+00   0.00000000E+00   0.00000000E+00   1.52247286E+04   7.11043485E+00
   6.21250000E+02   5.00000000E-01   5.00000000E-01  -4.46485733E+04   3.03733252E+03   0.00000000E+00   9.14521070E+03   1.71647518E+03   6.23289204E+03   7.34541570E+01   1.90996006E+00   2.16216050E+00   0.00000000E+00   0.00000000E+00   2.05826920E+01   6.94942603E+01   2.44618229E+00   7.03729937E+00   0.00000000E+00   8.14927189E+00   4.67847869E-06   3.51866069E+00   9.51534094E+02   6.51830480E+00  -1.93516413E-06   0.00000000E+00   0.00000000E+00   0.00000000E+00   1.52229325E+04   7.11043413E+00
   6.38750000E+02   5.00000000E-01   5.00000000E-01  -4.46496598E+04   3.03733252E+03   0.00000000E+00   9.14560400E+03   1.71649429E+03   6.23334859E+03   7.34541570E+01   1.90984105E+00   2.16216051E+00   0.00000000E+00   0.00000000E+00   2.05826920E+01   6.94942779E+01   2.44618229E+00   7.03729937E+00   0.00000000E+00   8.14927187E+00   4.41885189E-06   3.51866069E+00   9.50882651E+02   6.51818579E+00  -1.93516413E-06   0.00000000E+00   0.00000000E+00   0.00000000E+00   1.52211143E+04   7.11043342E+00
   6.56250000E+02   5.00000000E-01   5.00000000E-01  -4.46506601E+04   3.03733252E+03   0.00000000E+00   9.14595656E+03   1.71651215E+03   6.23380164E+03   7.34541570E+01   1.90972645E+00   2.16216051E+00   0.00000000E+00   0.00000000E+00   2.05826920E+01   6.94942958E+01   2.44618229E+00   7.03729937E+00   0.00000000E+00   8.14927186E+00   4.17923572E-06   3.51866069E+00   9.50236019E+02   6.51807120E+00  -1.93516413E-06   0.00000000E+00   0.00000000E+00   0.00000000E+00   1.52192737E+04   7.11043270E+00
   6.73750000E+02   5.00000000E-01   5.00000000E-01  -4.46515672E+04   3.03733252E+03   0.00000000E+00   9.14626534E+03   1.71652872E+03   6.23425039E+03   7.34541570E+01   1.90961631E+00   2.16216051E+00   0.00000000E+00   0.00000000E+00   2.05826920E+01   6.94943142E+01   2.44618229E+00   7.03729937E+00   0.00000000E+00   8.14927185E+00   3.95777930E-06   3.51866069E+00   9.49594817E+02   6.51796107E+00  -1.93516413E-06   0.00000000E+00   0.00000000E+00   0.00000000E+00   1.52174098E+04   7.11043198E+00
   6.91250000E+02   5.00000000E-01   5.00000000E-01  -4.46523745E+04   3.03733252E+03   0.00000000E+00   9.14652779E+03   1.71654392E+03   6.23469406E+03   7.34541570E+01   1.90951069E+00   2.16216051E+00   0.00000000E+00   0.00000000E+00   2.05826920E+01   6.94943330E+01   2.44618229E+00   7.03729937E+00   0.00000000E+00   8.14927184E+00   3.75278776E-06   3.51866069E+00   9.48959516E+02   6.51785545E+00  -1.93516413E-06   0.00000000E+00   0.00000000E+00   0.00000000E+00   1.52155216E+04   7.11043126E+00
   7.08750000E+02   5.00000000E-01   5.00000000E-01  -4.46530766E+04   3.03733252E+03   0.00000000E+00   9.14674187E+03   1.71655759E+03   6.23513185E+03   7.34541570E+01   1.90940960E+00   2.16216051E+00   0.00000000E+00   0.00000000E+00   2.05826920E+01   6.94943522E+01   2.44618229E+00   7.03729937E+00   0.00000000E+00   8.14927184E+00   3.56273121E-06   3.51866069E+00   9.48330536E+02   6.51775439E+00  -1.93516413E-06   0.00000000E+00   0.00000000E+00   0.00000000E+00   1.52136081E+04   7.11043055E+00
   7.26250000E+02   5.00000000E-01   5.00000000E-01  -4.46536690E+04   3.03733252E+03   0.00000000E+00   9.14690612E+03   1.71656944E+03   6.23556303E+03   7.34541570E+01   1.90931310E+00   2.16216051E+00   0.00000000E+00   0.00000000E+00   2.05826920E+01   6.94943718E+01   2.44618229E+00   7.03729937E+00   0.00000000E+00   8.14927183E+00   3.38625431E-06   3.51866069E+00   9.47708318E+02   6.51765792E+00  -1.93516413E-06   0.00000000E+00   0.00000000E+00   0.00000000E+00   1.52116688E+04   7.11042984E+00
   7.43750000E+02   5.00000000E-01   5.00000000E-01  -4.46541481E+04   3.03733252E+03   0.00000000E+00   9.14701947E+03   1.71657909E+03   6.23598702E+03   7.34541570E+01   1.90922121E+00   2.16216051E+00   0.00000000E+00   0.00000000E+00   2.05826920E+01   6.94943918E+01   2.44618229E+00   7.03729937E+00   0.00000000E+00   8.14927183E+00   3.22217810E-06   3.51866069E+00   9.47093327E+02   6.51756607E+00  -1.93516413E-06   0.00000000E+00   0.00000000E+00   0.00000000E+00   1.52097034E+04   7.11042914E+00
   7.61250000E+02   5.00000000E-01   5.00000000E-01  -4.46545108E+04   3.03733252E+03   0.00000000E+00   9.14708116E+03   1.71658609E+03   6.23640332E+03   7.34541570E+01   1.90913396E+00   2.16216051E+00   0.00000000E+00   0.00000000E+00   2.05826920E+01   6.94944123E+01   2.44618229E+00   7.03729937E+00   0.00000000E+00   8.14927183E+00   3.06948972E-06   3.51866069E+00   9.46486009E+02   6.51747889E+00  -1.93516413E-06   0.00000000E+00   0.00000000E+00   0.00000000E+00   1.52077121E+04   7.11042844E+00
   7.78750000E+02   5.00000000E-01   5.00000000E-01  -4.46547548E+04   3.03733252E+03   0.00000000E+00   9.14709057E+03   1.71658999E+03   6.23681164E+03   7.34541570E+01   1.90905137E+00   2.16216051E+00   0.00000000E+00   0.00000000E+00   2.05826920E+01   6.94944332E+01   2.44618229E+00   7.03729937E+00   0.00000000E+00   8.14927183E+00   2.92732037E-06   3.51866069E+00   9.45886709E+02   6.51739641E+00  -1.93516413E-06   0.00000000E+00   0.00000000E+00   0.00000000E+00   1.52056944E+04   7.11042776E+00
   7.96250000E+02   5.00000000E-01   5.00000000E-01  -4.46548781E+04   3.03733252E+03   0.00000000E+00   9.14704723E+03   1.71659040E+03   6.23721177E+03   7.34541570E+01   1.90897345E+00   2.16216051E+00   0.00000000E+00   0.00000000E+00   2.05826920E+01   6.94944546E+01   2.44618229E+00   7.03729937E+00   0.00000000E+00   8.14927183E+00   2.79491612E-06   3.51866068E+00   9.45295586E+02   6.51731868E+00  -1.93516413E-06   0.00000000E+00   0.00000000E+00   0.00000000E+00   1.52036499E+04   7.11042708E+00
   8.13750000E+02   5.00000000E-01   5.00000000E-01  -4.46548794E+04   3.03733252E+03   0.00000000E+00   9.14695087E+03   1.71658704E+03   6.23760364E+03   7.34541570E+01   1.90890023E+00   2.16216051E+00   0.00000000E+00   0.00000000E+00   2.05826920E+01   6.94944764E+01   2.44618229E+00   7.03729937E+00   0.00000000E+00   8.14927183E+00   2.67160761E-06   3.51866068E+00   9.44712576E+02   6.51724573E+00  -1.93516413E-06   0.00000000E+00   0.00000000E+00   0.00000000E+00   1.52015775E+04   7.11042641E+00
   8.31250000E+02   5.00000000E-01   5.00000000E-01  -4.46547583E+04   3.03733252E+03   0.00000000E+00   9.14680155E+03   1.71657976E+03   6.23798727E+03   7.34541570E+01   1.90883170E+00   2.16216051E+00   0.00000000E+00   0.00000000E+00   2.05826920E+01   6.94944988E+01   2.44618229E+00   7.03729937E+00   0.00000000E+00   8.14927184E+00   2.55678400E-06   3.51866068E+00   9.44137404E+02   6.51717764E+00  -1.93516413E-06   0.00000000E+00   0.00000000E+00   0.00000000E+00   1.51994760E+04   7.11042575E+00
   8.48750000E+02   5.00000000E-01   5.00000000E-01  -4.46545158E+04   3.03733252E+03   0.00000000E+00   9.14659990E+03   1.71656853E+03   6.23836270E+03   7.34541570E+01   1.90876787E+00   2.16216051E+00   0.00000000E+00   0.00000000E+00   2.05826920E+01   6.94945216E+01   2.44618229E+00   7.03729937E+00   0.00000000E+00   8.14927185E+00   2.44987383E-06   3.51866068E+00   9.43569665E+02   6.51711453E+00  -1.93516413E-06   0.00000000E+00   0.00000000E+00   0.00000000E+00   1.51973444E+04   7.11042510E+00
   8.66250000E+02   5.00000000E-01   5.00000000E-01  -4.46541543E+04   3.03733252E+03   0.00000000E+00   9.14634730E+03   1.71655346E+03   6.23872997E+03   7.34541570E+01   1.90870874E+00   2.16216051E+00   0.00000000E+00   0.00000000E+00   2.05826920E+01   6.94945450E+01   2.44618229E+00   7.03729936E+00   0.00000000E+00   8.14927185E+00   2.35033328E-06   3.51866068E+00   9.43008941E+02   6.51705656E+00  -1.93516413E-06   0.00000000E+00   0.00000000E+00   0.00000000E+00   1.51951825E+04   7.11042446E+00
   8.83750000E+02   5.00000000E-01   5.00000000E-01  -4.46536782E+04   3.03733252E+03   0.00000000E+00   9.14604598E+03   1.71653470E+03   6.23908902E+03   7.34541570E+01   1.90865430E+00   2.16216051E+00   0.00000000E+00   0.00000000E+00   2.05826920E+01   6.94945689E+01   2.44618229E+00   7.03729936E+00   0.00000000E+00   8.14927186E+00   2.25764025E-06   3.51866068E+00   9.42454925E+02   6.51700402E+00  -1.93516413E-06   0.00000000E+00   0.00000000E+00   0.00000000E+00   1.51929916E+04   7.11042384E+00
   9.01250000E+02   5.00000000E-01   5.00000000E-01  -4.46530939E+04   3.03733252E+03   0.00000000E+00   9.14569906E+03   1.71651246E+03   6.23943971E+03   7.34541570E+01   1.90860453E+00   2.16216051E+00   0.00000000E+00   0.00000000E+00   2.05826920E+01   6.94945934E+01   2.44618229E+00   7.03729936E+00   0.00000000E+00   8.14927187E+00   2.17129255E-06   3.51866068E+00   9.41907533E+02   6.51695742E+00  -1.93516413E-06   0.00000000E+00   0.00000000E+00   0.00000000E+00   1.51907742E+04   7.11042323E+00
   9.18750000E+02   5.00000000E-01   5.00000000E-01  -4.46524091E+04   3.03733252E+03   0.00000000E+00   9.14531044E+03   1.71648696E+03   6.23978165E+03   7.34541570E+01   1.90855943E+00   2.16216051E+00   0.00000000E+00   0.00000000E+00   2.05826920E+01   6.94946184E+01   2.44618229E+00   7.03729936E+00   0.00000000E+00   8.14927189E+00   2.09080842E-06   3.51866068E+00   9.41366977E+02   6.51691761E+00  -1.93516413E-06   0.00000000E+00   0.00000000E+00   0.00000000E+00   1.51885350E+04   7.11042263E+00
   9.36250000E+02   5.00000000E-01   5.00000000E-01  -4.46516325E+04   3.03733252E+03   0.00000000E+00   9.14488468E+03   1.71645843E+03   6.24011423E+03   7.34541570E+01   1.90851898E+00   2.16216051E+00   0.00000000E+00   0.00000000E+00   2.05826920E+01   6.94946441E+01   2.44618229E+00   7.03729936E+00   0.00000000E+00   8.14927190E+00   2.01572822E-06   3.51866068E+00   9.40833791E+02   6.51688608E+00  -1.93516413E-06   0.00000000E+00   0.00000000E+00   0.00000000E+00   1.51862800E+04   7.11042205E+00
   9.53750000E+02   5.00000000E-01   5.00000000E-01  -4.46507737E+04   3.03733252E+03   0.00000000E+00   9.14442677E+03   1.71642708E+03   6.24043657E+03   7.34541570E+01   1.90848315E+00   2.16216051E+00   0.00000000E+00   0.00000000E+00   2.05826920E+01   6.94946704E+01   2.44618229E+00   7.03729936E+00   0.00000000E+00   8.14927192E+00   1.94561670E-06   3.51866068E+00   9.40308825E+02   6.51686548E+00  -1.93516413E-06   0.00000000E+00   0.00000000E+00   0.00000000E+00   1.51840168E+04   7.11042148E+00
   9.71250000E+02   5.00000000E-01   5.00000000E-01  -4.46498424E+04   3.03733252E+03   0.00000000E+00   9.14394196E+03   1.71639311E+03   6.24074750E+03   7.34541570E+01   1.90845194E+00   2.16216052E+00   0.00000000E+00   0.00000000E+00   2.05826920E+01   6.94946972E+01   2.44618229E+00   7.03729936E+00   0.00000000E+00   8.14927193E+00   1.88006538E-06   3.51866068E+00   9.39793203E+02   6.51686047E+00  -1.93516413E-06   0.00000000E+00   0.00000000E+00   0.00000000E+00   1.51817541E+04   7.11042092E+00
   9.88750000E+02   5.00000000E-01   5.00000000E-01  -4.46488480E+04   3.03733252E+03   0.00000000E+00   9.14343558E+03   1.71635670E+03   6.24104560E+03   7.34541570E+01   1.90842530E+00   2.16216052E+00   0.00000000E+00   0.00000000E+00   2.05826920E+01   6.94947247E+01   2.44618229E+00   7.03729936E+00   0.00000000E+00   8.14927195E+00   1.81869479E-06   3.51866068E+00   9.39288250E+02   6.51687940E+00  -1.93516413E-06   0.00000000E+00   0.00000000E+00   0.00000000E+00   1.51795012E+04   7.11042038E+00