 TITLE = "Total Component Concentration in Minerals" 
VARIABLES = "X"          "Y"              "Z"            "H+"             "Al+++"          "CO2(aq)"        "Mg++"           "Ca++"           "Fe++"           "Fe+++"          "Cl-"            "K+"             "Na+"            "SO4--"          "O2(aq)"         "B(OH)3(aq)"     "HPO4--"         "NO3-"           "H4SiO4(aq)"    
 ZONE I=          35 , J=           1 , K=           1  F=POINT
   5.00000000E+01   5.00000000E-01   5.00000000E-01  -5.50558091E+04   2.72530810E+03   0.00000000E+00   2.11578134E+04   4.85402269E+03   1.00039300E+03   0.00000000E+00   0.00000000E+00   0.00000000E+00   1.54918885E+03   4.34688109E+03   0.00000000E+00   0.00000000E+00   0.00000000E+00   0.00000000E+00   1.95133733E+04
   1.50000000E+02   5.00000000E-01   5.00000000E-01  -5.50558128E+04   2.72530810E+03   0.00000000E+00   2.11578152E+04   4.85402269E+03   1.00039300E+03   0.00000000E+00   0.00000000E+00   0.00000000E+00   1.54918885E+03   4.34688109E+03   0.00000000E+00   0.00000000E+00   0.00000000E+00   0.00000000E+00   1.95133742E+04
   2.50000000E+02   5.00000000E-01   5.00000000E-01  -5.50558142E+04   2.72530810E+03   0.00000000E+00   2.11578159E+04   4.85402269E+03   1.00039300E+03   0.00000000E+00   0.00000000E+00   0.00000000E+00   1.54918885E+03   4.34688109E+03   0.00000000E+00   0.00000000E+00   0.00000000E+00   0.00000000E+00   1.95133745E+04
   3.50000000E+02   5.00000000E-01   5.00000000E-01  -5.50558144E+04   2.72530810E+03   0.00000000E+00   2.11578160E+04   4.85402269E+03   1.00039300E+03   0.00000000E+00   0.00000000E+00   0.00000000E+00   1.54918885E+03   4.34688109E+03   0.00000000E+00   0.00000000E+00   0.00000000E+00   0.00000000E+00   1.95133745E+04
   4.50000000E+02   5.00000000E-01   5.00000000E-01  -5.50558144E+04   2.72530810E+03   0.00000000E+00   2.11578160E+04   4.85402269E+03   1.00039300E+03   0.00000000E+00   0.00000000E+00   0.00000000E+00   1.54918885E+03   4.34688109E+03   0.00000000E+00   0.00000000E+00   0.00000000E+00   0.00000000E+00   1.95133745E+04
   5.50000000E+02   5.00000000E-01   5.00000000E-01  -5.50558143E+04   2.72530810E+03   0.00000000E+00   2.11578160E+04   4.85402269E+03   1.00039300E+03   0.00000000E+00   0.00000000E+00   0.00000000E+00   1.54918885E+03   4.34688109E+03   0.00000000E+00   0.00000000E+00   0.00000000E+00   0.00000000E+00   1.95133745E+04
   6.50000000E+02   5.00000000E-01   5.00000000E-01  -5.50558143E+04   2.72530810E+03   0.00000000E+00   2.11578160E+04   4.85402269E+03   1.00039300E+03   0.00000000E+00   0.00000000E+00   0.00000000E+00   1.54918885E+03   4.34688109E+03   0.00000000E+00   0.00000000E+00   0.00000000E+00   0.00000000E+00   1.95133744E+04
   7.50000000E+02   5.00000000E-01   5.00000000E-01  -5.50558142E+04   2.72530810E+03   0.00000000E+00   2.11578159E+04   4.85402270E+03   1.00039300E+03   0.00000000E+00   0.00000000E+00   0.00000000E+00   1.54918885E+03   4.34688110E+03   0.00000000E+00   0.00000000E+00   0.00000000E+00   0.00000000E+00   1.95133744E+04
   8.50000000E+02   5.00000000E-01   5.00000000E-01  -5.50558141E+04   2.72530810E+03   0.00000000E+00   2.11578159E+04   4.85402270E+03   1.00039300E+03   0.00000000E+00   0.00000000E+00   0.00000000E+00   1.54918885E+03   4.34688110E+03   0.00000000E+00   0.00000000E+00   0.00000000E+00   0.00000000E+00   1.95133744E+04
   9.50000000E+02   5.00000000E-01   5.00000000E-01  -5.50558140E+04   2.72530810E+03   0.00000000E+00   2.11578158E+04   4.85402270E+03   1.00039300E+03   0.00000000E+00   0.00000000E+00   0.00000000E+00   1.54918885E+03   4.34688110E+03   0.00000000E+00   0.00000000E+00   0.00000000E+00   0.00000000E+00   1.95133744E+04
   1.05000000E+03   5.00000000E-01   5.00000000E-01  -5.50558139E+04   2.72530810E+03   0.00000000E+00   2.11578158E+04   4.85402270E+03   1.00039300E+03   0.00000000E+00   0.00000000E+00   0.00000000E+00   1.54918885E+03   4.34688110E+03   0.00000000E+00   0.00000000E+00   0.00000000E+00   0.00000000E+00   1.95133743E+04
   1.15000000E+03   5.00000000E-01   5.00000000E-01  -5.50558138E+04   2.72530810E+03   0.00000000E+00   2.11578157E+04   4.85402271E+03   1.00039300E+03   0.00000000E+00   0.00000000E+00   0.00000000E+00   1.54918885E+03   4.34688111E+03   0.00000000E+00   0.00000000E+00   0.00000000E+00   0.00000000E+00   1.95133743E+04
   1.25000000E+03   5.00000000E-01   5.00000000E-01  -5.50558137E+04   2.72530810E+03   0.00000000E+00   2.11578157E+04   4.85402271E+03   1.00039300E+03   0.00000000E+00   0.00000000E+00   0.00000000E+00   1.54918885E+03   4.34688111E+03   0.00000000E+00   0.00000000E+00   0.00000000E+00   0.00000000E+00   1.95133743E+04
   1.35000000E+03   5.00000000E-01   5.00000000E-01  -5.50558136E+04   2.72530810E+03   0.00000000E+00   2.11578156E+04   4.85402272E+03   1.00039300E+03   0.00000000E+00   0.00000000E+00   0.00000000E+00   1.54918885E+03   4.34688111E+03   0.00000000E+00   0.00000000E+00   0.00000000E+00   0.00000000E+00   1.95133743E+04
   1.45000000E+03   5.00000000E-01   5.00000000E-01  -5.50558135E+04   2.72530810E+03   0.00000000E+00   2.11578156E+04   4.85402272E+03   1.00039300E+03   0.00000000E+00   0.00000000E+00   0.00000000E+00   1.54918885E+03   4.34688112E+03   0.00000000E+00   0.00000000E+00   0.00000000E+00   0.00000000E+00   1.95133742E+04
   1.55000000E+03   5.00000000E-01   5.00000000E-01  -5.50558134E+04   2.72530810E+03   0.00000000E+00   2.11578155E+04   4.85402273E+03   1.00039300E+03   0.00000000E+00   0.00000000E+00   0.00000000E+00   1.54918885E+03   4.34688112E+03   0.00000000E+00   0.00000000E+00   0.00000000E+00   0.00000000E+00   1.95133742E+04
   1.65000000E+03   5.00000000E-01   5.00000000E-01  -5.50558133E+04   2.72530810E+03   0.00000000E+00   2.11578154E+04   4.85402273E+03   1.00039300E+03   0.00000000E+00   0.00000000E+00   0.00000000E+00   1.54918885E+03   4.34688113E+03   0.00000000E+00   0.00000000E+00   0.00000000E+00   0.00000000E+00   1.95133742E+04
   1.75000000E+03   5.00000000E-01   5.00000000E-01  -5.50558131E+04   2.72530810E+03   0.00000000E+00   2.11578154E+04   4.85402274E+03   1.00039300E+03   0.00000000E+00   0.00000000E+00   0.00000000E+00   1.54918885E+03   4.34688114E+03   0.00000000E+00   0.00000000E+00   0.00000000E+00   0.00000000E+00   1.95133741E+04
   1.85000000E+03   5.00000000E-01   5.00000000E-01  -5.50558130E+04   2.72530810E+03   0.00000000E+00   2.11578153E+04   4.85402275E+03   1.00039300E+03   0.00000000E+00   0.00000000E+00   0.00000000E+00   1.54918885E+03   4.34688115E+03   0.00000000E+00   0.00000000E+00   0.00000000E+00   0.00000000E+00   1.95133741E+04
   1.95000000E+03   5.00000000E-01   5.00000000E-01  -5.50558129E+04   2.72530810E+03   0.00000000E+00   2.11578152E+04   4.85402276E+03   1.00039300E+03   0.00000000E+00   0.00000000E+00   0.00000000E+00   1.54918885E+03   4.34688116E+03   0.00000000E+00   0.00000000E+00   0.00000000E+00   0.00000000E+00   1.95133741E+04
   2.05000000E+03   5.00000000E-01   5.00000000E-01  -5.50558127E+04   2.72530810E+03   0.00000000E+00   2.11578152E+04   4.85402277E+03   1.00039300E+03   0.00000000E+00   0.00000000E+00   0.00000000E+00   1.54918885E+03   4.34688117E+03   0.00000000E+00   0.00000000E+00   0.00000000E+00   0.00000000E+00   1.95133740E+04
   2.15000000E+03   5.00000000E-01   5.00000000E-01  -5.50558126E+04   2.72530810E+03   0.00000000E+00   2.11578151E+04   4.85402278E+03   1.00039300E+03   0.00000000E+00   0.00000000E+00   0.00000000E+00   1.54918885E+03   4.34688118E+03   0.00000000E+00   0.00000000E+00   0.00000000E+00   0.00000000E+00   1.95133740E+04
   2.25000000E+03   5.00000000E-01   5.00000000E-01  -5.50558124E+04   2.72530810E+03   0.00000000E+00   2.11578150E+04   4.85402279E+03   1.00039300E+03   0.00000000E+00   0.00000000E+00   0.00000000E+00   1.54918885E+03   4.34688119E+03   0.00000000E+00   0.00000000E+00   0.00000000E+00   0.00000000E+00   1.95133740E+04
   2.35000000E+03   5.00000000E-01   5.00000000E-01  -5.50558123E+04   2.72530810E+03   0.00000000E+00   2.11578150E+04   4.85402281E+03   1.00039300E+03   0.00000000E+00   0.00000000E+00   0.00000000E+00   1.54918885E+03   4.34688121E+03   0.00000000E+00   0.00000000E+00   0.00000000E+00   0.00000000E+00   1.95133739E+04
   2.45000000E+03   5.00000000E-01   5.00000000E-01  -5.50558121E+04   2.72530810E+03   0.00000000E+00   2.11578149E+04   4.85402283E+03   1.00039300E+03   0.00000000E+00   0.00000000E+00   0.00000000E+00   1.54918885E+03   4.34688123E+03   0.00000000E+00   0.00000000E+00   0.00000000E+00   0.00000000E+00   1.95133739E+04
   2.55000000E+03   5.00000000E-01   5.00000000E-01  -5.50558120E+04   2.72530810E+03   0.00000000E+00   2.11578148E+04   4.85402285E+03   1.00039300E+03   0.00000000E+00   0.00000000E+00   0.00000000E+00   1.54918885E+03   4.34688125E+03   0.00000000E+00   0.00000000E+00   0.00000000E+00   0.00000000E+00   1.95133739E+04
   2.65000000E+03   5.00000000E-01   5.00000000E-01  -5.50558118E+04   2.72530810E+03   0.00000000E+00   2.11578147E+04   4.85402287E+03   1.00039300E+03   0.00000000E+00   0.00000000E+00   0.00000000E+00   1.54918885E+03   4.34688127E+03   0.00000000E+00   0.00000000E+00   0.00000000E+00   0.00000000E+00   1.95133738E+04
   2.75000000E+03   5.00000000E-01   5.00000000E-01  -5.50558116E+04   2.72530810E+03   0.00000000E+00   2.11578146E+04   4.85402289E+03   1.00039300E+03   0.00000000E+00   0.00000000E+00   0.00000000E+00   1.54918885E+03   4.34688129E+03   0.00000000E+00   0.00000000E+00   0.00000000E+00   0.00000000E+00   1.95133738E+04
   2.85000000E+03   5.00000000E-01   5.00000000E-01  -5.50558115E+04   2.72530810E+03   0.00000000E+00   2.11578146E+04   4.85402292E+03   1.00039300E+03   0.00000000E+00   0.00000000E+00   0.00000000E+00   1.54918885E+03   4.34688132E+03   0.00000000E+00   0.00000000E+00   0.00000000E+00   0.00000000E+00   1.95133737E+04
   2.95000000E+03   5.00000000E-01   5.00000000E-01  -5.50558113E+04   2.72530810E+03   0.00000000E+00   2.11578145E+04   4.85402295E+03   1.00039300E+03   0.00000000E+00   0.00000000E+00   0.00000000E+00   1.54918885E+03   4.34688135E+03   0.00000000E+00   0.00000000E+00   0.00000000E+00   0.00000000E+00   1.95133737E+04
   3.05000000E+03   5.00000000E-01   5.00000000E-01  -5.50558111E+04   2.72530810E+03   0.00000000E+00   2.11578144E+04   4.85402298E+03   1.00039300E+03   0.00000000E+00   0.00000000E+00   0.00000000E+00   1.54918885E+03   4.34688138E+03   0.00000000E+00   0.00000000E+00   0.00000000E+00   0.00000000E+00   1.95133736E+04
   3.15000000E+03   5.00000000E-01   5.00000000E-01  -5.50558109E+04   2.72530810E+03   0.00000000E+00   2.11578143E+04   4.85402302E+03   1.00039300E+03   0.00000000E+00   0.00000000E+00   0.00000000E+00   1.54918885E+03   4.34688141E+03   0.00000000E+00   0.00000000E+00   0.00000000E+00   0.00000000E+00   1.95133736E+04
   3.25000000E+03   5.00000000E-01   5.00000000E-01  -5.50558108E+04   2.72530810E+03   0.00000000E+00   2.11578142E+04   4.85402305E+03   1.00039300E+03   0.00000000E+00   0.00000000E+00   0.00000000E+00   1.54918885E+03   4.34688145E+03   0.00000000E+00   0.00000000E+00   0.00000000E+00   0.00000000E+00   1.95133736E+04
   3.35000000E+03   5.00000000E-01   5.00000000E-01  -5.50558106E+04   2.72530810E+03   0.00000000E+00   2.11578141E+04   4.85402309E+03   1.00039300E+03   0.00000000E+00   0.00000000E+00   0.00000000E+00   1.54918885E+03   4.34688149E+03   0.00000000E+00   0.00000000E+00   0.00000000E+00   0.00000000E+00   1.95133735E+04
   3.45000000E+03   5.00000000E-01   5.00000000E-01  -5.50558104E+04   2.72530810E+03   0.00000000E+00   2.11578140E+04   4.85402313E+03   1.00039300E+03   0.00000000E+00   0.00000000E+00   0.00000000E+00   1.54918885E+03   4.34688153E+03   0.00000000E+00   0.00000000E+00   0.00000000E+00   0.00000000E+00   1.95133735E+04
