 TITLE = "Total Component Concentration in Minerals" 
VARIABLES = "X"          "Y"              "Z"            "H+"             "Al+++"          "CO2(aq)"        "Mg++"           "Ca++"           "Fe++"           "Fe+++"          "Ba++"           "Sr++"           "Cl-"            "F-"             "K+"             "HS-"            "Na+"            "SO4--"          "O2(aq)"         "B(OH)3(aq)"     "HPO4--"         "NO3-"           "H4SiO4(aq)"    
 ZONE I=         100 , J=           1 , K=           1  F=POINT
   1.75000000E+01   5.00000000E-01   5.00000000E-01  -4.35459790E+04   2.90249220E+03   0.00000000E+00   9.03924207E+03   1.71432008E+03   6.18732100E+03   7.19372703E+00   0.00000000E+00   0.00000000E+00   0.00000000E+00   0.00000000E+00   0.00000000E+00   1.03934797E-05   9.35154882E+02   2.62669453E-06  -1.81308310E-06   0.00000000E+00   0.00000000E+00   0.00000000E+00   1.51149810E+04
   5.25000000E+01   5.00000000E-01   5.00000000E-01  -4.35404902E+04   2.90248956E+03   0.00000000E+00   9.02783848E+03   1.71431965E+03   6.19353726E+03   7.19372708E+00   0.00000000E+00   0.00000000E+00   0.00000000E+00   0.00000000E+00   0.00000000E+00   1.03935998E-05   9.40049601E+02   2.63450520E-06  -1.81308310E-06   0.00000000E+00   0.00000000E+00   0.00000000E+00   1.51266122E+04
   8.75000000E+01   5.00000000E-01   5.00000000E-01  -4.35416565E+04   2.90248956E+03   0.00000000E+00   9.01936931E+03   1.71431812E+03   6.20158555E+03   7.19372707E+00   0.00000000E+00   0.00000000E+00   0.00000000E+00   0.00000000E+00   0.00000000E+00   1.03936916E-05   9.42060669E+02   2.64326302E-06  -1.81308310E-06   0.00000000E+00   0.00000000E+00   0.00000000E+00   1.51290108E+04
   1.22500000E+02   5.00000000E-01   5.00000000E-01  -4.35432454E+04   2.90248956E+03   0.00000000E+00   9.01125473E+03   1.71431737E+03   6.20977469E+03   7.19372707E+00   0.00000000E+00   0.00000000E+00   0.00000000E+00   0.00000000E+00   0.00000000E+00   1.03937506E-05   9.43501980E+02   2.65308996E-06  -1.81308310E-06   0.00000000E+00   0.00000000E+00   0.00000000E+00   1.51291738E+04
   1.57500000E+02   5.00000000E-01   5.00000000E-01  -4.35445528E+04   2.90248956E+03   0.00000000E+00   9.00394175E+03   1.71431741E+03   6.21711917E+03   7.19372707E+00   0.00000000E+00   0.00000000E+00   0.00000000E+00   0.00000000E+00   0.00000000E+00   1.03937811E-05   9.44746322E+02   2.66411894E-06  -1.81308310E-06   0.00000000E+00   0.00000000E+00   0.00000000E+00   1.51290433E+04
   1.92500000E+02   5.00000000E-01   5.00000000E-01  -4.35455787E+04   2.90248956E+03   0.00000000E+00   8.99777434E+03   1.71431713E+03   6.22327712E+03   7.19372707E+00   0.00000000E+00   0.00000000E+00   0.00000000E+00   0.00000000E+00   0.00000000E+00   1.03937902E-05   9.45791616E+02   2.67649788E-06  -1.81308310E-06   0.00000000E+00   0.00000000E+00   0.00000000E+00   1.51289041E+04
   2.27500000E+02   5.00000000E-01   5.00000000E-01  -4.35464236E+04   2.90248956E+03   0.00000000E+00   8.99281650E+03   1.71431624E+03   6.22824217E+03   7.19372707E+00   0.00000000E+00   0.00000000E+00   0.00000000E+00   0.00000000E+00   0.00000000E+00   1.03937841E-05   9.46623958E+02   2.69039361E-06  -1.81308310E-06   0.00000000E+00   0.00000000E+00   0.00000000E+00   1.51287712E+04
   2.62500000E+02   5.00000000E-01   5.00000000E-01  -4.35471699E+04   2.90248956E+03   0.00000000E+00   8.98896830E+03   1.71431587E+03   6.23214861E+03   7.19372707E+00   0.00000000E+00   0.00000000E+00   0.00000000E+00   0.00000000E+00   0.00000000E+00   1.03937677E-05   9.47254496E+02   2.70599585E-06  -1.81308310E-06   0.00000000E+00   0.00000000E+00   0.00000000E+00   1.51286309E+04
   2.97500000E+02   5.00000000E-01   5.00000000E-01  -4.35478722E+04   2.90248956E+03   0.00000000E+00   8.98606958E+03   1.71431598E+03   6.23517109E+03   7.19372707E+00   0.00000000E+00   0.00000000E+00   0.00000000E+00   0.00000000E+00   0.00000000E+00   1.03937446E-05   9.47709024E+02   2.72352210E-06  -1.81308310E-06   0.00000000E+00   0.00000000E+00   0.00000000E+00   1.51284790E+04
   3.32500000E+02   5.00000000E-01   5.00000000E-01  -4.35485616E+04   2.90248956E+03   0.00000000E+00   8.98394949E+03   1.71431606E+03   6.23748177E+03   7.19372707E+00   0.00000000E+00   0.00000000E+00   0.00000000E+00   0.00000000E+00   0.00000000E+00   1.03937177E-05   9.48017164E+02   2.74322309E-06  -1.81308310E-06   0.00000000E+00   0.00000000E+00   0.00000000E+00   1.51283142E+04
   3.67500000E+02   5.00000000E-01   5.00000000E-01  -4.35492534E+04   2.90248956E+03   0.00000000E+00   8.98244860E+03   1.71431650E+03   6.23923312E+03   7.19372706E+00   0.00000000E+00   0.00000000E+00   0.00000000E+00   0.00000000E+00   0.00000000E+00   1.03936888E-05   9.48207154E+02   2.76538905E-06  -1.81308310E-06   0.00000000E+00   0.00000000E+00   0.00000000E+00   1.51281348E+04
   4.02500000E+02   5.00000000E-01   5.00000000E-01  -4.35499527E+04   2.90248956E+03   0.00000000E+00   8.98143170E+03   1.71431735E+03   6.24055038E+03   7.19372706E+00   0.00000000E+00   0.00000000E+00   0.00000000E+00   0.00000000E+00   0.00000000E+00   1.03936592E-05   9.48304010E+02   2.79035745E-06  -1.81308310E-06   0.00000000E+00   0.00000000E+00   0.00000000E+00   1.51279425E+04
   4.37500000E+02   5.00000000E-01   5.00000000E-01  -4.35506562E+04   2.90248956E+03   0.00000000E+00   8.98078724E+03   1.71431847E+03   6.24153310E+03   7.19372706E+00   0.00000000E+00   0.00000000E+00   0.00000000E+00   0.00000000E+00   0.00000000E+00   1.03936300E-05   9.48328781E+02   2.81852256E-06  -1.81308310E-06   0.00000000E+00   0.00000000E+00   0.00000000E+00   1.51277386E+04
   4.72500000E+02   5.00000000E-01   5.00000000E-01  -4.35513548E+04   2.90248956E+03   0.00000000E+00   8.98042455E+03   1.71431981E+03   6.24225872E+03   7.19372706E+00   0.00000000E+00   0.00000000E+00   0.00000000E+00   0.00000000E+00   0.00000000E+00   1.03936017E-05   9.48298821E+02   2.85034710E-06  -1.81308310E-06   0.00000000E+00   0.00000000E+00   0.00000000E+00   1.51275239E+04
   5.07500000E+02   5.00000000E-01   5.00000000E-01  -4.35520352E+04   2.90248956E+03   0.00000000E+00   8.98027097E+03   1.71432131E+03   6.24278621E+03   7.19372706E+00   0.00000000E+00   0.00000000E+00   0.00000000E+00   0.00000000E+00   0.00000000E+00   1.03935747E-05   9.48228360E+02   2.88637677E-06  -1.81308310E-06   0.00000000E+00   0.00000000E+00   0.00000000E+00   1.51272991E+04
   5.42500000E+02   5.00000000E-01   5.00000000E-01  -4.35526814E+04   2.90248956E+03   0.00000000E+00   8.98026846E+03   1.71432295E+03   6.24315985E+03   7.19372705E+00   0.00000000E+00   0.00000000E+00   0.00000000E+00   0.00000000E+00   0.00000000E+00   1.03935492E-05   9.48129024E+02   2.92725841E-06  -1.81308310E-06   0.00000000E+00   0.00000000E+00   0.00000000E+00   1.51270647E+04
   5.77500000E+02   5.00000000E-01   5.00000000E-01  -4.35532761E+04   2.90248955E+03   0.00000000E+00   8.98037081E+03   1.71432467E+03   6.24341252E+03   7.19372705E+00   0.00000000E+00   0.00000000E+00   0.00000000E+00   0.00000000E+00   0.00000000E+00   1.03935255E-05   9.48010284E+02   2.97376280E-06  -1.81308310E-06   0.00000000E+00   0.00000000E+00   0.00000000E+00   1.51268208E+04
   6.12500000E+02   5.00000000E-01   5.00000000E-01  -4.35538021E+04   2.90248955E+03   0.00000000E+00   8.98054138E+03   1.71432647E+03   6.24356838E+03   7.19372704E+00   0.00000000E+00   0.00000000E+00   0.00000000E+00   0.00000000E+00   0.00000000E+00   1.03935035E-05   9.47879811E+02   3.02681362E-06  -1.81308310E-06   0.00000000E+00   0.00000000E+00   0.00000000E+00   1.51265678E+04
   6.47500000E+02   5.00000000E-01   5.00000000E-01  -4.35542434E+04   2.90248955E+03   0.00000000E+00   8.98075155E+03   1.71432831E+03   6.24364505E+03   7.19372702E+00   0.00000000E+00   0.00000000E+00   0.00000000E+00   0.00000000E+00   0.00000000E+00   1.03934832E-05   9.47743718E+02   3.08752418E-06  -1.81308310E-06   0.00000000E+00   0.00000000E+00   0.00000000E+00   1.51263058E+04
   6.82500000E+02   5.00000000E-01   5.00000000E-01  -4.35545865E+04   2.90248955E+03   0.00000000E+00   8.98097944E+03   1.71433020E+03   6.24365533E+03   7.19372700E+00   0.00000000E+00   0.00000000E+00   0.00000000E+00   0.00000000E+00   0.00000000E+00   1.03934647E-05   9.47606744E+02   3.15724465E-06  -1.81308310E-06   0.00000000E+00   0.00000000E+00   0.00000000E+00   1.51260350E+04
   7.17500000E+02   5.00000000E-01   5.00000000E-01  -4.35548216E+04   2.90248955E+03   0.00000000E+00   8.98120904E+03   1.71433214E+03   6.24360852E+03   7.19372698E+00   0.00000000E+00   0.00000000E+00   0.00000000E+00   0.00000000E+00   0.00000000E+00   1.03934478E-05   9.47472379E+02   3.23762296E-06  -1.81308310E-06   0.00000000E+00   0.00000000E+00   0.00000000E+00   1.51257557E+04
   7.52500000E+02   5.00000000E-01   5.00000000E-01  -4.35549430E+04   2.90248955E+03   0.00000000E+00   8.98142953E+03   1.71433413E+03   6.24351145E+03   7.19372694E+00   0.00000000E+00   0.00000000E+00   0.00000000E+00   0.00000000E+00   0.00000000E+00   1.03934324E-05   9.47342982E+02   3.33068405E-06  -1.81308310E-06   0.00000000E+00   0.00000000E+00   0.00000000E+00   1.51254686E+04
   7.87500000E+02   5.00000000E-01   5.00000000E-01  -4.35549497E+04   2.90248955E+03   0.00000000E+00   8.98163459E+03   1.71433618E+03   6.24336924E+03   7.19372688E+00   0.00000000E+00   0.00000000E+00   0.00000000E+00   0.00000000E+00   0.00000000E+00   1.03934185E-05   9.47219893E+02   3.43893365E-06  -1.81308310E-06   0.00000000E+00   0.00000000E+00   0.00000000E+00   1.51251744E+04
   8.22500000E+02   5.00000000E-01   5.00000000E-01  -4.35548452E+04   2.90248955E+03   0.00000000E+00   8.98182179E+03   1.71433826E+03   6.24318586E+03   7.19372680E+00   0.00000000E+00   0.00000000E+00   0.00000000E+00   0.00000000E+00   0.00000000E+00   1.03934060E-05   9.47103556E+02   3.56549546E-06  -1.81308310E-06   0.00000000E+00   0.00000000E+00   0.00000000E+00   1.51248742E+04
   8.57500000E+02   5.00000000E-01   5.00000000E-01  -4.35546372E+04   2.90248954E+03   0.00000000E+00   8.98199196E+03   1.71434037E+03   6.24296455E+03   7.19372669E+00   0.00000000E+00   0.00000000E+00   0.00000000E+00   0.00000000E+00   0.00000000E+00   1.03933947E-05   9.46993664E+02   3.71429371E-06  -1.81308310E-06   0.00000000E+00   0.00000000E+00   0.00000000E+00   1.51245694E+04
   8.92500000E+02   5.00000000E-01   5.00000000E-01  -4.35543370E+04   2.90248954E+03   0.00000000E+00   8.98214842E+03   1.71434246E+03   6.24270808E+03   7.19372653E+00   0.00000000E+00   0.00000000E+00   0.00000000E+00   0.00000000E+00   0.00000000E+00   1.03933846E-05   9.46889312E+02   3.89029844E-06  -1.81308310E-06   0.00000000E+00   0.00000000E+00   0.00000000E+00   1.51242615E+04
   9.27500000E+02   5.00000000E-01   5.00000000E-01  -4.35539584E+04   2.90248954E+03   0.00000000E+00   8.98229626E+03   1.71434452E+03   6.24241896E+03   7.19372632E+00   0.00000000E+00   0.00000000E+00   0.00000000E+00   0.00000000E+00   0.00000000E+00   1.03933756E-05   9.46789158E+02   4.09985781E-06  -1.81308310E-06   0.00000000E+00   0.00000000E+00   0.00000000E+00   1.51239520E+04
   9.62500000E+02   5.00000000E-01   5.00000000E-01  -4.35535169E+04   2.90248953E+03   0.00000000E+00   8.98244157E+03   1.71434659E+03   6.24209960E+03   7.19372604E+00   0.00000000E+00   0.00000000E+00   0.00000000E+00   0.00000000E+00   0.00000000E+00   1.03933675E-05   9.46691595E+02   4.35115263E-06  -1.81308310E-06   0.00000000E+00   0.00000000E+00   0.00000000E+00   1.51236423E+04
   9.97500000E+02   5.00000000E-01   5.00000000E-01  -4.35530286E+04   2.90248953E+03   0.00000000E+00   8.98259088E+03   1.71434875E+03   6.24175232E+03   7.19372569E+00   0.00000000E+00   0.00000000E+00   0.00000000E+00   0.00000000E+00   0.00000000E+00   1.03933603E-05   9.46594902E+02   4.65482405E-06  -1.81308310E-06   0.00000000E+00   0.00000000E+00   0.00000000E+00   1.51233338E+04
   1.03250000E+03   5.00000000E-01   5.00000000E-01  -4.35525093E+04   2.90248953E+03   0.00000000E+00   8.98275088E+03   1.71435105E+03   6.24137918E+03   7.19372526E+00   0.00000000E+00   0.00000000E+00   0.00000000E+00   0.00000000E+00   0.00000000E+00   1.03933539E-05   9.46497396E+02   5.02484970E-06  -1.81308310E-06   0.00000000E+00   0.00000000E+00   0.00000000E+00   1.51230280E+04
   1.06750000E+03   5.00000000E-01   5.00000000E-01  -4.35519740E+04   2.90248952E+03   0.00000000E+00   8.98292810E+03   1.71435336E+03   6.24098193E+03   7.19372475E+00   0.00000000E+00   0.00000000E+00   0.00000000E+00   0.00000000E+00   0.00000000E+00   1.03933483E-05   9.46397535E+02   5.47977988E-06  -1.81308310E-06   0.00000000E+00   0.00000000E+00   0.00000000E+00   1.51227263E+04
   1.10250000E+03   5.00000000E-01   5.00000000E-01  -4.35514358E+04   2.90248952E+03   0.00000000E+00   8.98312838E+03   1.71435548E+03   6.24056222E+03   7.19372416E+00   0.00000000E+00   0.00000000E+00   0.00000000E+00   0.00000000E+00   0.00000000E+00   1.03933432E-05   9.46293983E+02   6.04450069E-06  -1.81308310E-06   0.00000000E+00   0.00000000E+00   0.00000000E+00   1.51224302E+04
   1.13750000E+03   5.00000000E-01   5.00000000E-01  -4.35509061E+04   2.90248951E+03   0.00000000E+00   8.98335612E+03   1.71435738E+03   6.24012187E+03   7.19372351E+00   0.00000000E+00   0.00000000E+00   0.00000000E+00   0.00000000E+00   0.00000000E+00   1.03933388E-05   9.46185641E+02   6.75277721E-06  -1.81308310E-06   0.00000000E+00   0.00000000E+00   0.00000000E+00   1.51221400E+04
   1.17250000E+03   5.00000000E-01   5.00000000E-01  -4.35503943E+04   2.90248951E+03   0.00000000E+00   8.98361413E+03   1.71435928E+03   6.23966305E+03   7.19372280E+00   0.00000000E+00   0.00000000E+00   0.00000000E+00   0.00000000E+00   0.00000000E+00   1.03933349E-05   9.46071690E+02   7.65096544E-06  -1.81308310E-06   0.00000000E+00   0.00000000E+00   0.00000000E+00   1.51218559E+04
   1.20750000E+03   5.00000000E-01   5.00000000E-01  -4.35499083E+04   2.90248950E+03   0.00000000E+00   8.98390405E+03   1.71436156E+03   6.23918791E+03   7.19372207E+00   0.00000000E+00   0.00000000E+00   0.00000000E+00   0.00000000E+00   0.00000000E+00   1.03933314E-05   9.45951632E+02   8.80350076E-06  -1.81308310E-06   0.00000000E+00   0.00000000E+00   0.00000000E+00   1.51215774E+04
   1.24250000E+03   5.00000000E-01   5.00000000E-01  -4.35494542E+04   2.90248949E+03   0.00000000E+00   8.98422765E+03   1.71436409E+03   6.23869788E+03   7.19372134E+00   0.00000000E+00   0.00000000E+00   0.00000000E+00   0.00000000E+00   0.00000000E+00   1.03933283E-05   9.45825335E+02   1.03011259E-05  -1.81308310E-06   0.00000000E+00   0.00000000E+00   0.00000000E+00   1.51213058E+04
   1.27750000E+03   5.00000000E-01   5.00000000E-01  -4.35490357E+04   2.90248948E+03   0.00000000E+00   8.98458665E+03   1.71436617E+03   6.23819378E+03   7.19372063E+00   0.00000000E+00   0.00000000E+00   0.00000000E+00   0.00000000E+00   0.00000000E+00   1.03933256E-05   9.45692954E+02   1.22733955E-05  -1.81308310E-06   0.00000000E+00   0.00000000E+00   0.00000000E+00   1.51210428E+04
   1.31250000E+03   5.00000000E-01   5.00000000E-01  -4.35486553E+04   2.90248947E+03   0.00000000E+00   8.98498099E+03   1.71436729E+03   6.23767720E+03   7.19372001E+00   0.00000000E+00   0.00000000E+00   0.00000000E+00   0.00000000E+00   0.00000000E+00   1.03933232E-05   9.45554774E+02   1.49079347E-05  -1.81308310E-06   0.00000000E+00   0.00000000E+00   0.00000000E+00   1.51207887E+04
   1.34750000E+03   5.00000000E-01   5.00000000E-01  -4.35483144E+04   2.90248946E+03   0.00000000E+00   8.98540770E+03   1.71436792E+03   6.23715126E+03   7.19371954E+00   0.00000000E+00   0.00000000E+00   0.00000000E+00   0.00000000E+00   0.00000000E+00   1.03933211E-05   9.45411154E+02   1.84805206E-05  -1.81308310E-06   0.00000000E+00   0.00000000E+00   0.00000000E+00   1.51205414E+04
   1.38250000E+03   5.00000000E-01   5.00000000E-01  -4.35480143E+04   2.90248945E+03   0.00000000E+00   8.98585880E+03   1.71437061E+03   6.23662179E+03   7.19371928E+00   0.00000000E+00   0.00000000E+00   0.00000000E+00   0.00000000E+00   0.00000000E+00   1.03933192E-05   9.45262464E+02   2.34027274E-05  -1.81308310E-06   0.00000000E+00   0.00000000E+00   0.00000000E+00   1.51202952E+04
   1.41750000E+03   5.00000000E-01   5.00000000E-01  -4.35477549E+04   2.90248944E+03   0.00000000E+00   8.98632467E+03   1.71437769E+03   6.23609565E+03   7.19371916E+00   0.00000000E+00   0.00000000E+00   0.00000000E+00   0.00000000E+00   0.00000000E+00   1.03933176E-05   9.45109451E+02   3.02986848E-05  -1.81308310E-06   0.00000000E+00   0.00000000E+00   0.00000000E+00   1.51200459E+04
   1.45250000E+03   5.00000000E-01   5.00000000E-01  -4.35475336E+04   2.90248942E+03   0.00000000E+00   8.98681401E+03   1.71438303E+03   6.23556802E+03   7.19371896E+00   0.00000000E+00   0.00000000E+00   0.00000000E+00   0.00000000E+00   0.00000000E+00   1.03933161E-05   9.44954185E+02   4.01314790E-05  -1.81308310E-06   0.00000000E+00   0.00000000E+00   0.00000000E+00   1.51198117E+04
   1.48750000E+03   5.00000000E-01   5.00000000E-01  -4.35473482E+04   2.90248941E+03   0.00000000E+00   8.98733040E+03   1.71438458E+03   6.23503570E+03   7.19371876E+00   0.00000000E+00   0.00000000E+00   0.00000000E+00   0.00000000E+00   0.00000000E+00   1.03933148E-05   9.44797574E+02   5.44132763E-05  -1.81308310E-06   0.00000000E+00   0.00000000E+00   0.00000000E+00   1.51195985E+04
   1.52250000E+03   5.00000000E-01   5.00000000E-01  -4.35471989E+04   2.90248939E+03   0.00000000E+00   8.98785220E+03   1.71439042E+03   6.23451276E+03   7.19371901E+00   0.00000000E+00   0.00000000E+00   0.00000000E+00   0.00000000E+00   0.00000000E+00   1.03933137E-05   9.44639027E+02   7.55597247E-05  -1.81308310E-06   0.00000000E+00   0.00000000E+00   0.00000000E+00   1.51193837E+04
   1.55750000E+03   5.00000000E-01   5.00000000E-01  -4.35470868E+04   2.90248937E+03   0.00000000E+00   8.98836284E+03   1.71440349E+03   6.23401278E+03   7.19371942E+00   0.00000000E+00   0.00000000E+00   0.00000000E+00   0.00000000E+00   0.00000000E+00   1.03933127E-05   9.44479513E+02   1.07501699E-04  -1.81308310E-06   0.00000000E+00   0.00000000E+00   0.00000000E+00   1.51191592E+04
   1.59250000E+03   5.00000000E-01   5.00000000E-01  -4.35470145E+04   2.90248935E+03   0.00000000E+00   8.98888243E+03   1.71441258E+03   6.23352666E+03   7.19371935E+00   0.00000000E+00   0.00000000E+00   0.00000000E+00   0.00000000E+00   0.00000000E+00   1.03933118E-05   9.44322281E+02   1.56764393E-04  -1.81308310E-06   0.00000000E+00   0.00000000E+00   0.00000000E+00   1.51189590E+04
   1.62750000E+03   5.00000000E-01   5.00000000E-01  -4.35469796E+04   2.90248933E+03   0.00000000E+00   8.98941320E+03   1.71441505E+03   6.23305314E+03   7.19371894E+00   0.00000000E+00   0.00000000E+00   0.00000000E+00   0.00000000E+00   0.00000000E+00   1.03933111E-05   9.44168118E+02   2.34393823E-04  -1.81308310E-06   0.00000000E+00   0.00000000E+00   0.00000000E+00   1.51187874E+04
   1.66250000E+03   5.00000000E-01   5.00000000E-01  -4.35469761E+04   2.90248930E+03   0.00000000E+00   8.98993129E+03   1.71441452E+03   6.23260980E+03   7.19371797E+00   0.00000000E+00   0.00000000E+00   0.00000000E+00   0.00000000E+00   0.00000000E+00   1.03933104E-05   9.44016600E+02   3.59464397E-04  -1.81308310E-06   0.00000000E+00   0.00000000E+00   0.00000000E+00   1.51186212E+04
   1.69750000E+03   5.00000000E-01   5.00000000E-01  -4.35470101E+04   2.90248927E+03   0.00000000E+00   8.99043353E+03   1.71441263E+03   6.23220057E+03   7.19371667E+00   0.00000000E+00   0.00000000E+00   0.00000000E+00   0.00000000E+00   0.00000000E+00   1.03933098E-05   9.43868786E+02   5.65593723E-04  -1.81308310E-06   0.00000000E+00   0.00000000E+00   0.00000000E+00   1.51184652E+04
   1.73250000E+03   5.00000000E-01   5.00000000E-01  -4.35470903E+04   2.90248924E+03   0.00000000E+00   8.99093377E+03   1.71441057E+03   6.23181419E+03   7.19371647E+00   0.00000000E+00   0.00000000E+00   0.00000000E+00   0.00000000E+00   0.00000000E+00   1.03933092E-05   9.43726179E+02   9.13267504E-04  -1.81308310E-06   0.00000000E+00   0.00000000E+00   0.00000000E+00   1.51183401E+04
   1.76750000E+03   5.00000000E-01   5.00000000E-01  -4.35472113E+04   2.90248921E+03   0.00000000E+00   8.99142252E+03   1.71440956E+03   6.23145605E+03   7.19371748E+00   0.00000000E+00   0.00000000E+00   0.00000000E+00   0.00000000E+00   0.00000000E+00   1.03933088E-05   9.43589258E+02   1.51360637E-03  -1.81308310E-06   0.00000000E+00   0.00000000E+00   0.00000000E+00   1.51182399E+04
   1.80250000E+03   5.00000000E-01   5.00000000E-01  -4.35473658E+04   2.90248918E+03   0.00000000E+00   8.99187753E+03   1.71441052E+03   6.23114392E+03   7.19371854E+00   0.00000000E+00   0.00000000E+00   0.00000000E+00   0.00000000E+00   0.00000000E+00   1.03933084E-05   9.43458328E+02   2.57507212E-03  -1.81308310E-06   0.00000000E+00   0.00000000E+00   0.00000000E+00   1.51181479E+04
   1.83750000E+03   5.00000000E-01   5.00000000E-01  -4.35475519E+04   2.90248914E+03   0.00000000E+00   8.99227936E+03   1.71441594E+03   6.23089386E+03   7.19371901E+00   0.00000000E+00   0.00000000E+00   0.00000000E+00   0.00000000E+00   0.00000000E+00   1.03933080E-05   9.43333981E+02   4.49693638E-03  -1.81308310E-06   0.00000000E+00   0.00000000E+00   0.00000000E+00   1.51180539E+04
   1.87250000E+03   5.00000000E-01   5.00000000E-01  -4.35477711E+04   2.90248910E+03   0.00000000E+00   8.99261647E+03   1.71442786E+03   6.23071640E+03   7.19371915E+00   0.00000000E+00   0.00000000E+00   0.00000000E+00   0.00000000E+00   0.00000000E+00   1.03933077E-05   9.43217302E+02   8.05978780E-03  -1.81308310E-06   0.00000000E+00   0.00000000E+00   0.00000000E+00   1.51179584E+04
   1.90750000E+03   5.00000000E-01   5.00000000E-01  -4.35480325E+04   2.90248905E+03   0.00000000E+00   8.99289654E+03   1.71444297E+03   6.23061224E+03   7.19371934E+00   0.00000000E+00   0.00000000E+00   0.00000000E+00   0.00000000E+00   0.00000000E+00   1.03933074E-05   9.43110316E+02   1.48210679E-02  -1.81308310E-06   0.00000000E+00   0.00000000E+00   0.00000000E+00   1.51178835E+04
   1.94250000E+03   5.00000000E-01   5.00000000E-01  -4.35483436E+04   2.90248900E+03   0.00000000E+00   8.99313422E+03   1.71445952E+03   6.23057459E+03   7.19371954E+00   0.00000000E+00   0.00000000E+00   0.00000000E+00   0.00000000E+00   0.00000000E+00   1.03933072E-05   9.43014642E+02   2.79500732E-02  -1.81308310E-06   0.00000000E+00   0.00000000E+00   0.00000000E+00   1.51178543E+04
   1.97750000E+03   5.00000000E-01   5.00000000E-01  -4.35487007E+04   2.90248895E+03   0.00000000E+00   8.99333285E+03   1.71448465E+03   6.23059756E+03   7.19371980E+00   0.00000000E+00   0.00000000E+00   0.00000000E+00   0.00000000E+00   0.00000000E+00   1.03933069E-05   9.42930639E+02   5.40172918E-02  -1.81308310E-06   0.00000000E+00   0.00000000E+00   0.00000000E+00   1.51178784E+04
   2.01250000E+03   5.00000000E-01   5.00000000E-01  -4.35490946E+04   2.90248889E+03   0.00000000E+00   8.99347846E+03   1.71453440E+03   6.23068837E+03   7.19372013E+00   0.00000000E+00   0.00000000E+00   0.00000000E+00   0.00000000E+00   0.00000000E+00   1.03933067E-05   9.42858095E+02   1.06879202E-01  -1.81308310E-06   0.00000000E+00   0.00000000E+00   0.00000000E+00   1.51179440E+04
   2.04750000E+03   5.00000000E-01   5.00000000E-01  -4.35495185E+04   2.90248883E+03   0.00000000E+00   8.99354937E+03   1.71463985E+03   6.23086385E+03   7.19372035E+00   0.00000000E+00   0.00000000E+00   0.00000000E+00   0.00000000E+00   0.00000000E+00   1.03933066E-05   9.42797128E+02   2.16183844E-01  -1.81308310E-06   0.00000000E+00   0.00000000E+00   0.00000000E+00   1.51180337E+04
   2.08250000E+03   5.00000000E-01   5.00000000E-01  -4.35499701E+04   2.90248876E+03   0.00000000E+00   8.99352921E+03   1.71486581E+03   6.23113796E+03   7.19372038E+00   0.00000000E+00   0.00000000E+00   0.00000000E+00   0.00000000E+00   0.00000000E+00   1.03933064E-05   9.42748633E+02   4.45982332E-01  -1.81308310E-06   0.00000000E+00   0.00000000E+00   0.00000000E+00   1.51181387E+04
   2.11750000E+03   5.00000000E-01   5.00000000E-01  -4.35504452E+04   2.90248869E+03   0.00000000E+00   8.99340644E+03   1.71535104E+03   6.23151914E+03   7.19372024E+00   0.00000000E+00   0.00000000E+00   0.00000000E+00   0.00000000E+00   0.00000000E+00   1.03933063E-05   9.42714046E+02   9.34671655E-01  -1.81308310E-06   0.00000000E+00   0.00000000E+00   0.00000000E+00   1.51182566E+04
   2.15250000E+03   5.00000000E-01   5.00000000E-01  -4.35509329E+04   2.90248861E+03   0.00000000E+00   8.99317003E+03   1.71638896E+03   6.23201187E+03   7.19371995E+00   0.00000000E+00   0.00000000E+00   0.00000000E+00   0.00000000E+00   0.00000000E+00   1.03933061E-05   9.42695168E+02   1.97547567E+00  -1.81308310E-06   0.00000000E+00   0.00000000E+00   0.00000000E+00   1.51183848E+04
   2.18750000E+03   5.00000000E-01   5.00000000E-01  -4.35514096E+04   2.90248853E+03   0.00000000E+00   8.99280628E+03   1.71856321E+03   6.23261675E+03   7.19371952E+00   0.00000000E+00   0.00000000E+00   0.00000000E+00   0.00000000E+00   0.00000000E+00   1.03933060E-05   9.42694218E+02   4.15190109E+00  -1.81308310E-06   0.00000000E+00   0.00000000E+00   0.00000000E+00   1.51185183E+04
   2.22250000E+03   5.00000000E-01   5.00000000E-01  -4.35518302E+04   2.90248844E+03   0.00000000E+00   8.99229680E+03   1.72286357E+03   6.23332812E+03   7.19371896E+00   0.00000000E+00   0.00000000E+00   0.00000000E+00   0.00000000E+00   0.00000000E+00   1.03933059E-05   9.42713972E+02   8.45363286E+00  -1.81308310E-06   0.00000000E+00   0.00000000E+00   0.00000000E+00   1.51186480E+04
   2.25750000E+03   5.00000000E-01   5.00000000E-01  -4.35521270E+04   2.90248834E+03   0.00000000E+00   8.99162127E+03   1.73040346E+03   6.23413103E+03   7.19371827E+00   0.00000000E+00   0.00000000E+00   0.00000000E+00   0.00000000E+00   0.00000000E+00   1.03933059E-05   9.42757509E+02   1.59940835E+01  -1.81308310E-06   0.00000000E+00   0.00000000E+00   0.00000000E+00   1.51187635E+04
   2.29250000E+03   5.00000000E-01   5.00000000E-01  -4.35522450E+04   2.90248823E+03   0.00000000E+00   8.99077397E+03   1.74121287E+03   6.23500256E+03   7.19371746E+00   0.00000000E+00   0.00000000E+00   0.00000000E+00   0.00000000E+00   0.00000000E+00   1.03933058E-05   9.42826806E+02   2.68032532E+01  -1.81308310E-06   0.00000000E+00   0.00000000E+00   0.00000000E+00   1.51188662E+04
   2.32750000E+03   5.00000000E-01   5.00000000E-01  -4.35522037E+04   2.90248812E+03   0.00000000E+00   8.98978519E+03   1.75311056E+03   6.23592290E+03   7.19371651E+00   0.00000000E+00   0.00000000E+00   0.00000000E+00   0.00000000E+00   0.00000000E+00   1.03933057E-05   9.42920745E+02   3.86999358E+01  -1.81308310E-06   0.00000000E+00   0.00000000E+00   0.00000000E+00   1.51189821E+04
   2.36250000E+03   5.00000000E-01   5.00000000E-01  -4.35520969E+04   2.90248800E+03   0.00000000E+00   8.98870917E+03   1.76306734E+03   6.23688656E+03   7.19371543E+00   0.00000000E+00   0.00000000E+00   0.00000000E+00   0.00000000E+00   0.00000000E+00   1.03933056E-05   9.43035573E+02   4.86549635E+01  -1.81308310E-06   0.00000000E+00   0.00000000E+00   0.00000000E+00   1.51191455E+04
   2.39750000E+03   5.00000000E-01   5.00000000E-01  -4.35520100E+04   2.90248787E+03   0.00000000E+00   8.98758439E+03   1.76963041E+03   6.23789942E+03   7.19371421E+00   0.00000000E+00   0.00000000E+00   0.00000000E+00   0.00000000E+00   0.00000000E+00   1.03933056E-05   9.43167880E+02   5.52155318E+01  -1.81308310E-06   0.00000000E+00   0.00000000E+00   0.00000000E+00   1.51193668E+04
   2.43250000E+03   5.00000000E-01   5.00000000E-01  -4.35519796E+04   2.90248773E+03   0.00000000E+00   8.98642227E+03   1.77297865E+03   6.23896922E+03   7.19371284E+00   0.00000000E+00   0.00000000E+00   0.00000000E+00   0.00000000E+00   0.00000000E+00   1.03933055E-05   9.43315944E+02   5.85604902E+01  -1.81308310E-06   0.00000000E+00   0.00000000E+00   0.00000000E+00   1.51196317E+04
   2.46750000E+03   5.00000000E-01   5.00000000E-01  -4.35520183E+04   2.90248758E+03   0.00000000E+00   8.98522391E+03   1.77369218E+03   6.24010165E+03   7.19371131E+00   0.00000000E+00   0.00000000E+00   0.00000000E+00   0.00000000E+00   0.00000000E+00   1.03933055E-05   9.43478782E+02   5.92699022E+01  -1.81308310E-06   0.00000000E+00   0.00000000E+00   0.00000000E+00   1.51199226E+04
   2.50250000E+03   5.00000000E-01   5.00000000E-01  -4.35521246E+04   2.90248741E+03   0.00000000E+00   8.98398733E+03   1.77248421E+03   6.24129805E+03   7.19370959E+00   0.00000000E+00   0.00000000E+00   0.00000000E+00   0.00000000E+00   0.00000000E+00   1.03933054E-05   9.43655876E+02   5.80569056E+01  -1.81308310E-06   0.00000000E+00   0.00000000E+00   0.00000000E+00   1.51202248E+04
   2.53750000E+03   5.00000000E-01   5.00000000E-01  -4.35522736E+04   2.90248724E+03   0.00000000E+00   8.98270728E+03   1.77027975E+03   6.24255092E+03   7.19370767E+00   0.00000000E+00   0.00000000E+00   0.00000000E+00   0.00000000E+00   0.00000000E+00   1.03933054E-05   9.43847726E+02   5.58464313E+01  -1.81308310E-06   0.00000000E+00   0.00000000E+00   0.00000000E+00   1.51205245E+04
   2.57250000E+03   5.00000000E-01   5.00000000E-01  -4.35524286E+04   2.90248705E+03   0.00000000E+00   8.98138181E+03   1.76788008E+03   6.24384317E+03   7.19370552E+00   0.00000000E+00   0.00000000E+00   0.00000000E+00   0.00000000E+00   0.00000000E+00   1.03933054E-05   9.44055514E+02   5.34396450E+01  -1.81308310E-06   0.00000000E+00   0.00000000E+00   0.00000000E+00   1.51208110E+04
   2.60750000E+03   5.00000000E-01   5.00000000E-01  -4.35525615E+04   2.90248683E+03   0.00000000E+00   8.98001858E+03   1.76568353E+03   6.24515260E+03   7.19370312E+00   0.00000000E+00   0.00000000E+00   0.00000000E+00   0.00000000E+00   0.00000000E+00   1.03933053E-05   9.44280133E+02   5.12348363E+01  -1.81308310E-06   0.00000000E+00   0.00000000E+00   0.00000000E+00   1.51210811E+04