 TITLE = "Total Component Concentration in Minerals" 
VARIABLES = "X"          "Y"              "Z"            "H+"             "Al+++"          "CO2(aq)"        "Mg++"           "Ca++"           "Fe++"           "Fe+++"          "Ba++"           "Sr++"           "Cl-"            "K+"             "Na+"            "SO4--"          "O2(aq)"         "B(OH)3(aq)"     "HPO4--"         "NO3-"           "H4SiO4(aq)"    
 ZONE I=          10 , J=           1 , K=           1  F=POINT
   1.75000000E+02   5.00000000E-01   5.00000000E-01  -5.21738781E+04   2.06327568E+03   0.00000000E+00   1.95031921E+04   4.85213479E+03   2.20751843E+03   7.19361022E-06   0.00000000E+00   0.00000000E+00   0.00000000E+00   0.00000000E+00   1.54872473E+03   4.34518218E+03   0.00000000E+00   0.00000000E+00   0.00000000E+00   0.00000000E+00   1.91226859E+04
   5.25000000E+02   5.00000000E-01   5.00000000E-01  -5.21739336E+04   2.06327568E+03   0.00000000E+00   1.95032606E+04   4.85284358E+03   2.20749152E+03   7.19304673E-06   0.00000000E+00   0.00000000E+00   0.00000000E+00   0.00000000E+00   1.54869706E+03   4.34589096E+03   0.00000000E+00   0.00000000E+00   0.00000000E+00   0.00000000E+00   1.91226302E+04
   8.75000000E+02   5.00000000E-01   5.00000000E-01  -5.21740252E+04   2.06327568E+03   0.00000000E+00   1.95033727E+04   4.85342893E+03   2.20744755E+03   7.19171317E-06   0.00000000E+00   0.00000000E+00   0.00000000E+00   0.00000000E+00   1.54865247E+03   4.34647631E+03   0.00000000E+00   0.00000000E+00   0.00000000E+00   0.00000000E+00   1.91225415E+04
   1.22500000E+03   5.00000000E-01   5.00000000E-01  -5.21741151E+04   2.06327568E+03   0.00000000E+00   1.95035144E+04   4.85386478E+03   2.20737801E+03   7.18887302E-06   0.00000000E+00   0.00000000E+00   0.00000000E+00   0.00000000E+00   1.54859809E+03   4.34691216E+03   0.00000000E+00   0.00000000E+00   0.00000000E+00   0.00000000E+00   1.91224279E+04
   1.57500000E+03   5.00000000E-01   5.00000000E-01  -5.21741687E+04   2.06327568E+03   0.00000000E+00   1.95036812E+04   4.85416954E+03   2.20726878E+03   7.18289046E-06   0.00000000E+00   0.00000000E+00   0.00000000E+00   0.00000000E+00   1.54853642E+03   4.34721693E+03   0.00000000E+00   0.00000000E+00   0.00000000E+00   0.00000000E+00   1.91222872E+04
   1.92500000E+03   5.00000000E-01   5.00000000E-01  -5.21741924E+04   2.06327568E+03   0.00000000E+00   1.95038907E+04   4.85437467E+03   2.20710888E+03   7.17105073E-06   0.00000000E+00   0.00000000E+00   0.00000000E+00   0.00000000E+00   1.54846101E+03   4.34742206E+03   0.00000000E+00   0.00000000E+00   0.00000000E+00   0.00000000E+00   1.91221047E+04
   2.27500000E+03   5.00000000E-01   5.00000000E-01  -5.21742047E+04   2.06327568E+03   0.00000000E+00   1.95041495E+04   4.85450689E+03   2.20690290E+03   7.14927414E-06   0.00000000E+00   0.00000000E+00   0.00000000E+00   0.00000000E+00   1.54836752E+03   4.34755427E+03   0.00000000E+00   0.00000000E+00   0.00000000E+00   0.00000000E+00   1.91218741E+04
   2.62500000E+03   5.00000000E-01   5.00000000E-01  -5.21742202E+04   2.06327568E+03   0.00000000E+00   1.95044366E+04   4.85458625E+03   2.20667653E+03   7.11354079E-06   0.00000000E+00   0.00000000E+00   0.00000000E+00   0.00000000E+00   1.54826157E+03   4.34763363E+03   0.00000000E+00   0.00000000E+00   0.00000000E+00   0.00000000E+00   1.91216133E+04
   2.97500000E+03   5.00000000E-01   5.00000000E-01  -5.21742513E+04   2.06327568E+03   0.00000000E+00   1.95047147E+04   4.85462793E+03   2.20646676E+03   7.06324459E-06   0.00000000E+00   0.00000000E+00   0.00000000E+00   0.00000000E+00   1.54815603E+03   4.34767531E+03   0.00000000E+00   0.00000000E+00   0.00000000E+00   0.00000000E+00   1.91213574E+04
   3.32500000E+03   5.00000000E-01   5.00000000E-01  -5.21743095E+04   2.06327568E+03   0.00000000E+00   1.95049541E+04   4.85464340E+03   2.20630267E+03   7.00971762E-06   0.00000000E+00   0.00000000E+00   0.00000000E+00   0.00000000E+00   1.54806376E+03   4.34769079E+03   0.00000000E+00   0.00000000E+00   0.00000000E+00   0.00000000E+00   1.91211415E+04
