 TITLE = "Total Component Concentration in Minerals" 
VARIABLES = "X"          "Y"              "Z"            "H+"             "Al+++"          "CO2(aq)"        "Mg++"           "Ca++"           "Fe++"           "Fe+++"          "Ba++"           "Sr++"           "Cl-"            "F-"             "K+"             "HS-"            "Na+"            "SO4--"          "O2(aq)"         "B(OH)3(aq)"     "HPO4--"         "NO3-"           "H4SiO4(aq)"    
 ZONE I=         100 , J=           1 , K=           1  F=POINT
   1.75000000E+01   5.00000000E-01   5.00000000E-01  -5.15823599E+04   4.76125651E+03   0.00000000E+00   1.50722155E+04   3.21023395E+03   1.20526558E+03   7.19372706E+00   0.00000000E+00   0.00000000E+00   0.00000000E+00   0.00000000E+00   0.00000000E+00   0.00000000E+00   1.31979432E+03   1.50910761E+03   0.00000000E+00   0.00000000E+00   0.00000000E+00   0.00000000E+00   1.99406023E+04
   5.25000000E+01   5.00000000E-01   5.00000000E-01  -5.15761717E+04   4.76125334E+03   0.00000000E+00   1.50667627E+04   3.31573337E+03   1.20526587E+03   7.19372708E+00   0.00000000E+00   0.00000000E+00   0.00000000E+00   0.00000000E+00   0.00000000E+00   0.00000000E+00   1.32452019E+03   1.61460673E+03   0.00000000E+00   0.00000000E+00   0.00000000E+00   0.00000000E+00   1.99596183E+04
   8.75000000E+01   5.00000000E-01   5.00000000E-01  -5.15746661E+04   4.76125334E+03   0.00000000E+00   1.50648336E+04   3.42429835E+03   1.20526633E+03   7.19372707E+00   0.00000000E+00   0.00000000E+00   0.00000000E+00   0.00000000E+00   0.00000000E+00   0.00000000E+00   1.32687108E+03   1.72317134E+03   0.00000000E+00   0.00000000E+00   0.00000000E+00   0.00000000E+00   1.99699632E+04
   1.22500000E+02   5.00000000E-01   5.00000000E-01  -5.15743794E+04   4.76125334E+03   0.00000000E+00   1.50642325E+04   3.52826700E+03   1.20526695E+03   7.19372707E+00   0.00000000E+00   0.00000000E+00   0.00000000E+00   0.00000000E+00   0.00000000E+00   0.00000000E+00   1.32778459E+03   1.82713966E+03   0.00000000E+00   0.00000000E+00   0.00000000E+00   0.00000000E+00   1.99741657E+04
   1.57500000E+02   5.00000000E-01   5.00000000E-01  -5.15744082E+04   4.76125334E+03   0.00000000E+00   1.50640841E+04   3.62251532E+03   1.20526771E+03   7.19372707E+00   0.00000000E+00   0.00000000E+00   0.00000000E+00   0.00000000E+00   0.00000000E+00   0.00000000E+00   1.32810824E+03   1.92138775E+03   0.00000000E+00   0.00000000E+00   0.00000000E+00   0.00000000E+00   1.99757253E+04
   1.92500000E+02   5.00000000E-01   5.00000000E-01  -5.15745453E+04   4.76125334E+03   0.00000000E+00   1.50641055E+04   3.70427857E+03   1.20526861E+03   7.19372707E+00   0.00000000E+00   0.00000000E+00   0.00000000E+00   0.00000000E+00   0.00000000E+00   0.00000000E+00   1.32820040E+03   2.00315085E+03   0.00000000E+00   0.00000000E+00   0.00000000E+00   0.00000000E+00   1.99762379E+04
   2.27500000E+02   5.00000000E-01   5.00000000E-01  -5.15747291E+04   4.76125334E+03   0.00000000E+00   1.50641962E+04   3.77269971E+03   1.20526965E+03   7.19372707E+00   0.00000000E+00   0.00000000E+00   0.00000000E+00   0.00000000E+00   0.00000000E+00   0.00000000E+00   1.32820046E+03   2.07157189E+03   0.00000000E+00   0.00000000E+00   0.00000000E+00   0.00000000E+00   1.99763380E+04
   2.62500000E+02   5.00000000E-01   5.00000000E-01  -5.15749383E+04   4.76125334E+03   0.00000000E+00   1.50643187E+04   3.82826079E+03   1.20527082E+03   7.19372707E+00   0.00000000E+00   0.00000000E+00   0.00000000E+00   0.00000000E+00   0.00000000E+00   0.00000000E+00   1.32816240E+03   2.12713293E+03   0.00000000E+00   0.00000000E+00   0.00000000E+00   0.00000000E+00   1.99762736E+04
   2.97500000E+02   5.00000000E-01   5.00000000E-01  -5.15751652E+04   4.76125334E+03   0.00000000E+00   1.50644583E+04   3.87224273E+03   1.20527211E+03   7.19372707E+00   0.00000000E+00   0.00000000E+00   0.00000000E+00   0.00000000E+00   0.00000000E+00   0.00000000E+00   1.32810741E+03   2.17111486E+03   0.00000000E+00   0.00000000E+00   0.00000000E+00   0.00000000E+00   1.99761427E+04
   3.32500000E+02   5.00000000E-01   5.00000000E-01  -5.15754069E+04   4.76125334E+03   0.00000000E+00   1.50646095E+04   3.90619222E+03   1.20527353E+03   7.19372707E+00   0.00000000E+00   0.00000000E+00   0.00000000E+00   0.00000000E+00   0.00000000E+00   0.00000000E+00   1.32804395E+03   2.20506435E+03   0.00000000E+00   0.00000000E+00   0.00000000E+00   0.00000000E+00   1.99759848E+04
   3.67500000E+02   5.00000000E-01   5.00000000E-01  -5.15756625E+04   4.76125334E+03   0.00000000E+00   1.50647700E+04   3.93182576E+03   1.20527507E+03   7.19372707E+00   0.00000000E+00   0.00000000E+00   0.00000000E+00   0.00000000E+00   0.00000000E+00   0.00000000E+00   1.32797549E+03   2.23069793E+03   0.00000000E+00   0.00000000E+00   0.00000000E+00   0.00000000E+00   1.99758160E+04
   4.02500000E+02   5.00000000E-01   5.00000000E-01  -5.15759315E+04   4.76125334E+03   0.00000000E+00   1.50649389E+04   3.95087197E+03   1.20527672E+03   7.19372707E+00   0.00000000E+00   0.00000000E+00   0.00000000E+00   0.00000000E+00   0.00000000E+00   0.00000000E+00   1.32790345E+03   2.24974418E+03   0.00000000E+00   0.00000000E+00   0.00000000E+00   0.00000000E+00   1.99756429E+04
   4.37500000E+02   5.00000000E-01   5.00000000E-01  -5.15762136E+04   4.76125334E+03   0.00000000E+00   1.50651157E+04   3.96477062E+03   1.20527850E+03   7.19372707E+00   0.00000000E+00   0.00000000E+00   0.00000000E+00   0.00000000E+00   0.00000000E+00   0.00000000E+00   1.32782849E+03   2.26364288E+03   0.00000000E+00   0.00000000E+00   0.00000000E+00   0.00000000E+00   1.99754682E+04
   4.72500000E+02   5.00000000E-01   5.00000000E-01  -5.15765082E+04   4.76125334E+03   0.00000000E+00   1.50653000E+04   3.97469021E+03   1.20528038E+03   7.19372707E+00   0.00000000E+00   0.00000000E+00   0.00000000E+00   0.00000000E+00   0.00000000E+00   0.00000000E+00   1.32775094E+03   2.27356251E+03   0.00000000E+00   0.00000000E+00   0.00000000E+00   0.00000000E+00   1.99752929E+04
   5.07500000E+02   5.00000000E-01   5.00000000E-01  -5.15768148E+04   4.76125334E+03   0.00000000E+00   1.50654912E+04   3.98156104E+03   1.20528239E+03   7.19372706E+00   0.00000000E+00   0.00000000E+00   0.00000000E+00   0.00000000E+00   0.00000000E+00   0.00000000E+00   1.32767102E+03   2.28043337E+03   0.00000000E+00   0.00000000E+00   0.00000000E+00   0.00000000E+00   1.99751175E+04
   5.42500000E+02   5.00000000E-01   5.00000000E-01  -5.15771322E+04   4.76125334E+03   0.00000000E+00   1.50656888E+04   3.98611285E+03   1.20528451E+03   7.19372706E+00   0.00000000E+00   0.00000000E+00   0.00000000E+00   0.00000000E+00   0.00000000E+00   0.00000000E+00   1.32758894E+03   2.28498518E+03   0.00000000E+00   0.00000000E+00   0.00000000E+00   0.00000000E+00   1.99749419E+04
   5.77500000E+02   5.00000000E-01   5.00000000E-01  -5.15774590E+04   4.76125334E+03   0.00000000E+00   1.50658920E+04   3.98891126E+03   1.20528674E+03   7.19372706E+00   0.00000000E+00   0.00000000E+00   0.00000000E+00   0.00000000E+00   0.00000000E+00   0.00000000E+00   1.32750494E+03   2.28778357E+03   0.00000000E+00   0.00000000E+00   0.00000000E+00   0.00000000E+00   1.99747661E+04
   6.12500000E+02   5.00000000E-01   5.00000000E-01  -5.15777937E+04   4.76125334E+03   0.00000000E+00   1.50660998E+04   3.99039056E+03   1.20528909E+03   7.19372706E+00   0.00000000E+00   0.00000000E+00   0.00000000E+00   0.00000000E+00   0.00000000E+00   0.00000000E+00   1.32741927E+03   2.28926282E+03   0.00000000E+00   0.00000000E+00   0.00000000E+00   0.00000000E+00   1.99745898E+04
   6.47500000E+02   5.00000000E-01   5.00000000E-01  -5.15781343E+04   4.76125334E+03   0.00000000E+00   1.50663110E+04   3.99088157E+03   1.20529155E+03   7.19372706E+00   0.00000000E+00   0.00000000E+00   0.00000000E+00   0.00000000E+00   0.00000000E+00   0.00000000E+00   1.32733224E+03   2.28975376E+03   0.00000000E+00   0.00000000E+00   0.00000000E+00   0.00000000E+00   1.99744128E+04
   6.82500000E+02   5.00000000E-01   5.00000000E-01  -5.15784782E+04   4.76125334E+03   0.00000000E+00   1.50665244E+04   3.99063484E+03   1.20529413E+03   7.19372706E+00   0.00000000E+00   0.00000000E+00   0.00000000E+00   0.00000000E+00   0.00000000E+00   0.00000000E+00   1.32724419E+03   2.28950693E+03   0.00000000E+00   0.00000000E+00   0.00000000E+00   0.00000000E+00   1.99742350E+04
   7.17500000E+02   5.00000000E-01   5.00000000E-01  -5.15788230E+04   4.76125334E+03   0.00000000E+00   1.50667383E+04   3.98983922E+03   1.20529683E+03   7.19372706E+00   0.00000000E+00   0.00000000E+00   0.00000000E+00   0.00000000E+00   0.00000000E+00   0.00000000E+00   1.32715549E+03   2.28871121E+03   0.00000000E+00   0.00000000E+00   0.00000000E+00   0.00000000E+00   1.99740561E+04
   7.52500000E+02   5.00000000E-01   5.00000000E-01  -5.15791655E+04   4.76125334E+03   0.00000000E+00   1.50669511E+04   3.98863667E+03   1.20529965E+03   7.19372706E+00   0.00000000E+00   0.00000000E+00   0.00000000E+00   0.00000000E+00   0.00000000E+00   0.00000000E+00   1.32706654E+03   2.28750855E+03   0.00000000E+00   0.00000000E+00   0.00000000E+00   0.00000000E+00   1.99738759E+04
   7.87500000E+02   5.00000000E-01   5.00000000E-01  -5.15795028E+04   4.76125334E+03   0.00000000E+00   1.50671611E+04   3.98713372E+03   1.20530258E+03   7.19372705E+00   0.00000000E+00   0.00000000E+00   0.00000000E+00   0.00000000E+00   0.00000000E+00   0.00000000E+00   1.32697778E+03   2.28600548E+03   0.00000000E+00   0.00000000E+00   0.00000000E+00   0.00000000E+00   1.99736941E+04
   8.22500000E+02   5.00000000E-01   5.00000000E-01  -5.15798313E+04   4.76125334E+03   0.00000000E+00   1.50673662E+04   3.98541036E+03   1.20530563E+03   7.19372705E+00   0.00000000E+00   0.00000000E+00   0.00000000E+00   0.00000000E+00   0.00000000E+00   0.00000000E+00   1.32688966E+03   2.28428199E+03   0.00000000E+00   0.00000000E+00   0.00000000E+00   0.00000000E+00   1.99735104E+04
   8.57500000E+02   5.00000000E-01   5.00000000E-01  -5.15801474E+04   4.76125334E+03   0.00000000E+00   1.50675645E+04   3.98352676E+03   1.20530881E+03   7.19372704E+00   0.00000000E+00   0.00000000E+00   0.00000000E+00   0.00000000E+00   0.00000000E+00   0.00000000E+00   1.32680262E+03   2.28239826E+03   0.00000000E+00   0.00000000E+00   0.00000000E+00   0.00000000E+00   1.99733245E+04
   8.92500000E+02   5.00000000E-01   5.00000000E-01  -5.15804478E+04   4.76125334E+03   0.00000000E+00   1.50677540E+04   3.98152836E+03   1.20531210E+03   7.19372703E+00   0.00000000E+00   0.00000000E+00   0.00000000E+00   0.00000000E+00   0.00000000E+00   0.00000000E+00   1.32671714E+03   2.28039973E+03   0.00000000E+00   0.00000000E+00   0.00000000E+00   0.00000000E+00   1.99731362E+04
   9.27500000E+02   5.00000000E-01   5.00000000E-01  -5.15807286E+04   4.76125334E+03   0.00000000E+00   1.50679326E+04   3.97944965E+03   1.20531551E+03   7.19372702E+00   0.00000000E+00   0.00000000E+00   0.00000000E+00   0.00000000E+00   0.00000000E+00   0.00000000E+00   1.32663367E+03   2.27832088E+03   0.00000000E+00   0.00000000E+00   0.00000000E+00   0.00000000E+00   1.99729453E+04
   9.62500000E+02   5.00000000E-01   5.00000000E-01  -5.15809864E+04   4.76125334E+03   0.00000000E+00   1.50680983E+04   3.97731699E+03   1.20531904E+03   7.19372701E+00   0.00000000E+00   0.00000000E+00   0.00000000E+00   0.00000000E+00   0.00000000E+00   0.00000000E+00   1.32655265E+03   2.27618808E+03   0.00000000E+00   0.00000000E+00   0.00000000E+00   0.00000000E+00   1.99727514E+04
   9.97500000E+02   5.00000000E-01   5.00000000E-01  -5.15812180E+04   4.76125334E+03   0.00000000E+00   1.50682494E+04   3.97515065E+03   1.20532269E+03   7.19372699E+00   0.00000000E+00   0.00000000E+00   0.00000000E+00   0.00000000E+00   0.00000000E+00   0.00000000E+00   1.32647449E+03   2.27402159E+03   0.00000000E+00   0.00000000E+00   0.00000000E+00   0.00000000E+00   1.99725545E+04
   1.03250000E+03   5.00000000E-01   5.00000000E-01  -5.15814203E+04   4.76125334E+03   0.00000000E+00   1.50683841E+04   3.97296633E+03   1.20532644E+03   7.19372696E+00   0.00000000E+00   0.00000000E+00   0.00000000E+00   0.00000000E+00   0.00000000E+00   0.00000000E+00   1.32639956E+03   2.27183712E+03   0.00000000E+00   0.00000000E+00   0.00000000E+00   0.00000000E+00   1.99723543E+04
   1.06750000E+03   5.00000000E-01   5.00000000E-01  -5.15815906E+04   4.76125334E+03   0.00000000E+00   1.50685009E+04   3.97077627E+03   1.20533030E+03   7.19372693E+00   0.00000000E+00   0.00000000E+00   0.00000000E+00   0.00000000E+00   0.00000000E+00   0.00000000E+00   1.32632821E+03   2.26964691E+03   0.00000000E+00   0.00000000E+00   0.00000000E+00   0.00000000E+00   1.99721508E+04
   1.10250000E+03   5.00000000E-01   5.00000000E-01  -5.15817267E+04   4.76125334E+03   0.00000000E+00   1.50685986E+04   3.96859004E+03   1.20533427E+03   7.19372689E+00   0.00000000E+00   0.00000000E+00   0.00000000E+00   0.00000000E+00   0.00000000E+00   0.00000000E+00   1.32626071E+03   2.26746053E+03   0.00000000E+00   0.00000000E+00   0.00000000E+00   0.00000000E+00   1.99719439E+04
   1.13750000E+03   5.00000000E-01   5.00000000E-01  -5.15818269E+04   4.76125334E+03   0.00000000E+00   1.50686762E+04   3.96641514E+03   1.20533834E+03   7.19372684E+00   0.00000000E+00   0.00000000E+00   0.00000000E+00   0.00000000E+00   0.00000000E+00   0.00000000E+00   1.32619730E+03   2.26528547E+03   0.00000000E+00   0.00000000E+00   0.00000000E+00   0.00000000E+00   1.99717338E+04
   1.17250000E+03   5.00000000E-01   5.00000000E-01  -5.15818900E+04   4.76125334E+03   0.00000000E+00   1.50687330E+04   3.96425741E+03   1.20534249E+03   7.19372676E+00   0.00000000E+00   0.00000000E+00   0.00000000E+00   0.00000000E+00   0.00000000E+00   0.00000000E+00   1.32613814E+03   2.26312759E+03   0.00000000E+00   0.00000000E+00   0.00000000E+00   0.00000000E+00   1.99715205E+04
   1.20750000E+03   5.00000000E-01   5.00000000E-01  -5.15819154E+04   4.76125334E+03   0.00000000E+00   1.50687687E+04   3.96212138E+03   1.20534674E+03   7.19372667E+00   0.00000000E+00   0.00000000E+00   0.00000000E+00   0.00000000E+00   0.00000000E+00   0.00000000E+00   1.32608335E+03   2.26099140E+03   0.00000000E+00   0.00000000E+00   0.00000000E+00   0.00000000E+00   1.99713044E+04
   1.24250000E+03   5.00000000E-01   5.00000000E-01  -5.15819032E+04   4.76125334E+03   0.00000000E+00   1.50687833E+04   3.96001048E+03   1.20535106E+03   7.19372655E+00   0.00000000E+00   0.00000000E+00   0.00000000E+00   0.00000000E+00   0.00000000E+00   0.00000000E+00   1.32603296E+03   2.25888035E+03   0.00000000E+00   0.00000000E+00   0.00000000E+00   0.00000000E+00   1.99710857E+04
   1.27750000E+03   5.00000000E-01   5.00000000E-01  -5.15818540E+04   4.76125334E+03   0.00000000E+00   1.50687772E+04   3.95792726E+03   1.20535545E+03   7.19372638E+00   0.00000000E+00   0.00000000E+00   0.00000000E+00   0.00000000E+00   0.00000000E+00   0.00000000E+00   1.32598696E+03   2.25679697E+03   0.00000000E+00   0.00000000E+00   0.00000000E+00   0.00000000E+00   1.99708648E+04
   1.31250000E+03   5.00000000E-01   5.00000000E-01  -5.15817690E+04   4.76125334E+03   0.00000000E+00   1.50687509E+04   3.95587352E+03   1.20535990E+03   7.19372618E+00   0.00000000E+00   0.00000000E+00   0.00000000E+00   0.00000000E+00   0.00000000E+00   0.00000000E+00   1.32594526E+03   2.25474308E+03   0.00000000E+00   0.00000000E+00   0.00000000E+00   0.00000000E+00   1.99706422E+04
   1.34750000E+03   5.00000000E-01   5.00000000E-01  -5.15816500E+04   4.76125334E+03   0.00000000E+00   1.50687055E+04   3.95385042E+03   1.20536441E+03   7.19372591E+00   0.00000000E+00   0.00000000E+00   0.00000000E+00   0.00000000E+00   0.00000000E+00   0.00000000E+00   1.32590774E+03   2.25271983E+03   0.00000000E+00   0.00000000E+00   0.00000000E+00   0.00000000E+00   1.99704184E+04
   1.38250000E+03   5.00000000E-01   5.00000000E-01  -5.15814992E+04   4.76125334E+03   0.00000000E+00   1.50686422E+04   3.95185859E+03   1.20536896E+03   7.19372557E+00   0.00000000E+00   0.00000000E+00   0.00000000E+00   0.00000000E+00   0.00000000E+00   0.00000000E+00   1.32587420E+03   2.25072785E+03   0.00000000E+00   0.00000000E+00   0.00000000E+00   0.00000000E+00   1.99701940E+04
   1.41750000E+03   5.00000000E-01   5.00000000E-01  -5.15813192E+04   4.76125334E+03   0.00000000E+00   1.50685624E+04   3.94989821E+03   1.20537355E+03   7.19372514E+00   0.00000000E+00   0.00000000E+00   0.00000000E+00   0.00000000E+00   0.00000000E+00   0.00000000E+00   1.32584443E+03   2.24876733E+03   0.00000000E+00   0.00000000E+00   0.00000000E+00   0.00000000E+00   1.99699697E+04
   1.45250000E+03   5.00000000E-01   5.00000000E-01  -5.15811131E+04   4.76125334E+03   0.00000000E+00   1.50684677E+04   3.94796909E+03   1.20537817E+03   7.19372459E+00   0.00000000E+00   0.00000000E+00   0.00000000E+00   0.00000000E+00   0.00000000E+00   0.00000000E+00   1.32581815E+03   2.24683807E+03   0.00000000E+00   0.00000000E+00   0.00000000E+00   0.00000000E+00   1.99697460E+04
   1.48750000E+03   5.00000000E-01   5.00000000E-01  -5.15808840E+04   4.76125334E+03   0.00000000E+00   1.50683599E+04   3.94607071E+03   1.20538281E+03   7.19372389E+00   0.00000000E+00   0.00000000E+00   0.00000000E+00   0.00000000E+00   0.00000000E+00   0.00000000E+00   1.32579510E+03   2.24493955E+03   0.00000000E+00   0.00000000E+00   0.00000000E+00   0.00000000E+00   1.99695237E+04
   1.52250000E+03   5.00000000E-01   5.00000000E-01  -5.15806354E+04   4.76125334E+03   0.00000000E+00   1.50682409E+04   3.94420228E+03   1.20538745E+03   7.19372301E+00   0.00000000E+00   0.00000000E+00   0.00000000E+00   0.00000000E+00   0.00000000E+00   0.00000000E+00   1.32577497E+03   2.24307099E+03   0.00000000E+00   0.00000000E+00   0.00000000E+00   0.00000000E+00   1.99693032E+04
   1.55750000E+03   5.00000000E-01   5.00000000E-01  -5.15803706E+04   4.76125334E+03   0.00000000E+00   1.50681124E+04   3.94236284E+03   1.20539211E+03   7.19372190E+00   0.00000000E+00   0.00000000E+00   0.00000000E+00   0.00000000E+00   0.00000000E+00   0.00000000E+00   1.32575745E+03   2.24123142E+03   0.00000000E+00   0.00000000E+00   0.00000000E+00   0.00000000E+00   1.99690853E+04
   1.59250000E+03   5.00000000E-01   5.00000000E-01  -5.15800930E+04   4.76125334E+03   0.00000000E+00   1.50679765E+04   3.94055122E+03   1.20539675E+03   7.19372050E+00   0.00000000E+00   0.00000000E+00   0.00000000E+00   0.00000000E+00   0.00000000E+00   0.00000000E+00   1.32574225E+03   2.23941967E+03   0.00000000E+00   0.00000000E+00   0.00000000E+00   0.00000000E+00   1.99688704E+04
   1.62750000E+03   5.00000000E-01   5.00000000E-01  -5.15798060E+04   4.76125334E+03   0.00000000E+00   1.50678348E+04   3.93876615E+03   1.20540139E+03   7.19371875E+00   0.00000000E+00   0.00000000E+00   0.00000000E+00   0.00000000E+00   0.00000000E+00   0.00000000E+00   1.32572907E+03   2.23763448E+03   0.00000000E+00   0.00000000E+00   0.00000000E+00   0.00000000E+00   1.99686591E+04
   1.66250000E+03   5.00000000E-01   5.00000000E-01  -5.15795127E+04   4.76125334E+03   0.00000000E+00   1.50676892E+04   3.93700629E+03   1.20540602E+03   7.19371657E+00   0.00000000E+00   0.00000000E+00   0.00000000E+00   0.00000000E+00   0.00000000E+00   0.00000000E+00   1.32571763E+03   2.23587451E+03   0.00000000E+00   0.00000000E+00   0.00000000E+00   0.00000000E+00   1.99684518E+04
   1.69750000E+03   5.00000000E-01   5.00000000E-01  -5.15792160E+04   4.76125334E+03   0.00000000E+00   1.50675411E+04   3.93527025E+03   1.20541062E+03   7.19371393E+00   0.00000000E+00   0.00000000E+00   0.00000000E+00   0.00000000E+00   0.00000000E+00   0.00000000E+00   1.32570769E+03   2.23413836E+03   0.00000000E+00   0.00000000E+00   0.00000000E+00   0.00000000E+00   1.99682489E+04
   1.73250000E+03   5.00000000E-01   5.00000000E-01  -5.15789185E+04   4.76125333E+03   0.00000000E+00   1.50673920E+04   3.93355665E+03   1.20541520E+03   7.19371078E+00   0.00000000E+00   0.00000000E+00   0.00000000E+00   0.00000000E+00   0.00000000E+00   0.00000000E+00   1.32569901E+03   2.23242466E+03   0.00000000E+00   0.00000000E+00   0.00000000E+00   0.00000000E+00   1.99680508E+04
   1.76750000E+03   5.00000000E-01   5.00000000E-01  -5.15786227E+04   4.76125333E+03   0.00000000E+00   1.50672432E+04   3.93186416E+03   1.20541976E+03   7.19370708E+00   0.00000000E+00   0.00000000E+00   0.00000000E+00   0.00000000E+00   0.00000000E+00   0.00000000E+00   1.32569141E+03   2.23073205E+03   0.00000000E+00   0.00000000E+00   0.00000000E+00   0.00000000E+00   1.99678578E+04
   1.80250000E+03   5.00000000E-01   5.00000000E-01  -5.15783307E+04   4.76125333E+03   0.00000000E+00   1.50670959E+04   3.93019149E+03   1.20542429E+03   7.19370276E+00   0.00000000E+00   0.00000000E+00   0.00000000E+00   0.00000000E+00   0.00000000E+00   0.00000000E+00   1.32568471E+03   2.22905928E+03   0.00000000E+00   0.00000000E+00   0.00000000E+00   0.00000000E+00   1.99676702E+04
   1.83750000E+03   5.00000000E-01   5.00000000E-01  -5.15780443E+04   4.76125333E+03   0.00000000E+00   1.50669511E+04   3.92853749E+03   1.20542880E+03   7.19369771E+00   0.00000000E+00   0.00000000E+00   0.00000000E+00   0.00000000E+00   0.00000000E+00   0.00000000E+00   1.32567878E+03   2.22740518E+03   0.00000000E+00   0.00000000E+00   0.00000000E+00   0.00000000E+00   1.99674881E+04
   1.87250000E+03   5.00000000E-01   5.00000000E-01  -5.15777649E+04   4.76125333E+03   0.00000000E+00   1.50668095E+04   3.92690116E+03   1.20543329E+03   7.19369177E+00   0.00000000E+00   0.00000000E+00   0.00000000E+00   0.00000000E+00   0.00000000E+00   0.00000000E+00   1.32567353E+03   2.22576876E+03   0.00000000E+00   0.00000000E+00   0.00000000E+00   0.00000000E+00   1.99673119E+04
   1.90750000E+03   5.00000000E-01   5.00000000E-01  -5.15774939E+04   4.76125333E+03   0.00000000E+00   1.50666717E+04   3.92528168E+03   1.20543776E+03   7.19368475E+00   0.00000000E+00   0.00000000E+00   0.00000000E+00   0.00000000E+00   0.00000000E+00   0.00000000E+00   1.32566889E+03   2.22414917E+03   0.00000000E+00   0.00000000E+00   0.00000000E+00   0.00000000E+00   1.99671416E+04
   1.94250000E+03   5.00000000E-01   5.00000000E-01  -5.15772323E+04   4.76125333E+03   0.00000000E+00   1.50665384E+04   3.92367841E+03   1.20544222E+03   7.19367651E+00   0.00000000E+00   0.00000000E+00   0.00000000E+00   0.00000000E+00   0.00000000E+00   0.00000000E+00   1.32566483E+03   2.22254580E+03   0.00000000E+00   0.00000000E+00   0.00000000E+00   0.00000000E+00   1.99669774E+04
   1.97750000E+03   5.00000000E-01   5.00000000E-01  -5.15769807E+04   4.76125333E+03   0.00000000E+00   1.50664098E+04   3.92209098E+03   1.20544669E+03   7.19366707E+00   0.00000000E+00   0.00000000E+00   0.00000000E+00   0.00000000E+00   0.00000000E+00   0.00000000E+00   1.32566134E+03   2.22095827E+03   0.00000000E+00   0.00000000E+00   0.00000000E+00   0.00000000E+00   1.99668195E+04
   2.01250000E+03   5.00000000E-01   5.00000000E-01  -5.15767397E+04   4.76125333E+03   0.00000000E+00   1.50662862E+04   3.92051926E+03   1.20545117E+03   7.19365666E+00   0.00000000E+00   0.00000000E+00   0.00000000E+00   0.00000000E+00   0.00000000E+00   0.00000000E+00   1.32565845E+03   2.21938646E+03   0.00000000E+00   0.00000000E+00   0.00000000E+00   0.00000000E+00   1.99666680E+04
   2.04750000E+03   5.00000000E-01   5.00000000E-01  -5.15765097E+04   4.76125333E+03   0.00000000E+00   1.50661677E+04   3.91896343E+03   1.20545568E+03   7.19364561E+00   0.00000000E+00   0.00000000E+00   0.00000000E+00   0.00000000E+00   0.00000000E+00   0.00000000E+00   1.32565619E+03   2.21783052E+03   0.00000000E+00   0.00000000E+00   0.00000000E+00   0.00000000E+00   1.99665232E+04
   2.08250000E+03   5.00000000E-01   5.00000000E-01  -5.15762907E+04   4.76125333E+03   0.00000000E+00   1.50660543E+04   3.91742392E+03   1.20546025E+03   7.19363430E+00   0.00000000E+00   0.00000000E+00   0.00000000E+00   0.00000000E+00   0.00000000E+00   0.00000000E+00   1.32565466E+03   2.21629090E+03   0.00000000E+00   0.00000000E+00   0.00000000E+00   0.00000000E+00   1.99663851E+04
   2.11750000E+03   5.00000000E-01   5.00000000E-01  -5.15760830E+04   4.76125332E+03   0.00000000E+00   1.50659461E+04   3.91590147E+03   1.20546489E+03   7.19362304E+00   0.00000000E+00   0.00000000E+00   0.00000000E+00   0.00000000E+00   0.00000000E+00   0.00000000E+00   1.32565395E+03   2.21476834E+03   0.00000000E+00   0.00000000E+00   0.00000000E+00   0.00000000E+00   1.99662540E+04
   2.15250000E+03   5.00000000E-01   5.00000000E-01  -5.15758863E+04   4.76125332E+03   0.00000000E+00   1.50658428E+04   3.91439713E+03   1.20546964E+03   7.19361203E+00   0.00000000E+00   0.00000000E+00   0.00000000E+00   0.00000000E+00   0.00000000E+00   0.00000000E+00   1.32565416E+03   2.21326388E+03   0.00000000E+00   0.00000000E+00   0.00000000E+00   0.00000000E+00   1.99661301E+04
   2.18750000E+03   5.00000000E-01   5.00000000E-01  -5.15757006E+04   4.76125332E+03   0.00000000E+00   1.50657443E+04   3.91291219E+03   1.20547453E+03   7.19360142E+00   0.00000000E+00   0.00000000E+00   0.00000000E+00   0.00000000E+00   0.00000000E+00   0.00000000E+00   1.32565546E+03   2.21177882E+03   0.00000000E+00   0.00000000E+00   0.00000000E+00   0.00000000E+00   1.99660135E+04
   2.22250000E+03   5.00000000E-01   5.00000000E-01  -5.15755255E+04   4.76125332E+03   0.00000000E+00   1.50656503E+04   3.91144823E+03   1.20547960E+03   7.19359129E+00   0.00000000E+00   0.00000000E+00   0.00000000E+00   0.00000000E+00   0.00000000E+00   0.00000000E+00   1.32565799E+03   2.21031474E+03   0.00000000E+00   0.00000000E+00   0.00000000E+00   0.00000000E+00   1.99659046E+04
   2.25750000E+03   5.00000000E-01   5.00000000E-01  -5.15753607E+04   4.76125332E+03   0.00000000E+00   1.50655605E+04   3.91000705E+03   1.20548491E+03   7.19358157E+00   0.00000000E+00   0.00000000E+00   0.00000000E+00   0.00000000E+00   0.00000000E+00   0.00000000E+00   1.32566193E+03   2.20887343E+03   0.00000000E+00   0.00000000E+00   0.00000000E+00   0.00000000E+00   1.99658037E+04
   2.29250000E+03   5.00000000E-01   5.00000000E-01  -5.15752059E+04   4.76125332E+03   0.00000000E+00   1.50654746E+04   3.90859061E+03   1.20549050E+03   7.19357190E+00   0.00000000E+00   0.00000000E+00   0.00000000E+00   0.00000000E+00   0.00000000E+00   0.00000000E+00   1.32566749E+03   2.20745687E+03   0.00000000E+00   0.00000000E+00   0.00000000E+00   0.00000000E+00   1.99657111E+04
   2.32750000E+03   5.00000000E-01   5.00000000E-01  -5.15750606E+04   4.76125331E+03   0.00000000E+00   1.50653922E+04   3.90720104E+03   1.20549644E+03   7.19356171E+00   0.00000000E+00   0.00000000E+00   0.00000000E+00   0.00000000E+00   0.00000000E+00   0.00000000E+00   1.32567490E+03   2.20606716E+03   0.00000000E+00   0.00000000E+00   0.00000000E+00   0.00000000E+00   1.99656273E+04
   2.36250000E+03   5.00000000E-01   5.00000000E-01  -5.15749243E+04   4.76125331E+03   0.00000000E+00   1.50653129E+04   3.90584052E+03   1.20550282E+03   7.19355048E+00   0.00000000E+00   0.00000000E+00   0.00000000E+00   0.00000000E+00   0.00000000E+00   0.00000000E+00   1.32568439E+03   2.20470653E+03   0.00000000E+00   0.00000000E+00   0.00000000E+00   0.00000000E+00   1.99655526E+04
   2.39750000E+03   5.00000000E-01   5.00000000E-01  -5.15747967E+04   4.76125331E+03   0.00000000E+00   1.50652361E+04   3.90451129E+03   1.20550973E+03   7.19353807E+00   0.00000000E+00   0.00000000E+00   0.00000000E+00   0.00000000E+00   0.00000000E+00   0.00000000E+00   1.32569624E+03   2.20337717E+03   0.00000000E+00   0.00000000E+00   0.00000000E+00   0.00000000E+00   1.99654878E+04
   2.43250000E+03   5.00000000E-01   5.00000000E-01  -5.15746771E+04   4.76125331E+03   0.00000000E+00   1.50651614E+04   3.90321552E+03   1.20551727E+03   7.19352491E+00   0.00000000E+00   0.00000000E+00   0.00000000E+00   0.00000000E+00   0.00000000E+00   0.00000000E+00   1.32571076E+03   2.20208129E+03   0.00000000E+00   0.00000000E+00   0.00000000E+00   0.00000000E+00   1.99654333E+04
   2.46750000E+03   5.00000000E-01   5.00000000E-01  -5.15745651E+04   4.76125330E+03   0.00000000E+00   1.50650883E+04   3.90195533E+03   1.20552559E+03   7.19351202E+00   0.00000000E+00   0.00000000E+00   0.00000000E+00   0.00000000E+00   0.00000000E+00   0.00000000E+00   1.32572829E+03   2.20082098E+03   0.00000000E+00   0.00000000E+00   0.00000000E+00   0.00000000E+00   1.99653900E+04
   2.50250000E+03   5.00000000E-01   5.00000000E-01  -5.15744601E+04   4.76125330E+03   0.00000000E+00   1.50650160E+04   3.90073265E+03   1.20553484E+03   7.19350080E+00   0.00000000E+00   0.00000000E+00   0.00000000E+00   0.00000000E+00   0.00000000E+00   0.00000000E+00   1.32574920E+03   2.19959818E+03   0.00000000E+00   0.00000000E+00   0.00000000E+00   0.00000000E+00   1.99653587E+04
   2.53750000E+03   5.00000000E-01   5.00000000E-01  -5.15743616E+04   4.76125330E+03   0.00000000E+00   1.50649438E+04   3.89954926E+03   1.20554522E+03   7.19349269E+00   0.00000000E+00   0.00000000E+00   0.00000000E+00   0.00000000E+00   0.00000000E+00   0.00000000E+00   1.32577392E+03   2.19841465E+03   0.00000000E+00   0.00000000E+00   0.00000000E+00   0.00000000E+00   1.99653405E+04
   2.57250000E+03   5.00000000E-01   5.00000000E-01  -5.15742689E+04   4.76125329E+03   0.00000000E+00   1.50648710E+04   3.89840667E+03   1.20555698E+03   7.19348890E+00   0.00000000E+00   0.00000000E+00   0.00000000E+00   0.00000000E+00   0.00000000E+00   0.00000000E+00   1.32580295E+03   2.19727189E+03   0.00000000E+00   0.00000000E+00   0.00000000E+00   0.00000000E+00   1.99653366E+04
   2.60750000E+03   5.00000000E-01   5.00000000E-01  -5.15741815E+04   4.76125329E+03   0.00000000E+00   1.50647967E+04   3.89730615E+03   1.20557041E+03   7.19349015E+00   0.00000000E+00   0.00000000E+00   0.00000000E+00   0.00000000E+00   0.00000000E+00   0.00000000E+00   1.32583686E+03   2.19617114E+03   0.00000000E+00   0.00000000E+00   0.00000000E+00   0.00000000E+00   1.99653483E+04