 TITLE = "Total Component Concentration in Minerals" 
VARIABLES = "X"          "Y"              "Z"            "H+"             "Al+++"          "CO2(aq)"        "Mg++"           "Ca++"           "Fe++"           "Fe+++"          "Ba++"           "Sr++"           "Cl-"            "F-"             "K+"             "HS-"            "Na+"            "SO4--"          "O2(aq)"         "B(OH)3(aq)"     "HPO4--"         "NO3-"           "H4SiO4(aq)"    
 ZONE I=         100 , J=           1 , K=           1  F=POINT
   1.75000000E+01   5.00000000E-01   5.00000000E-01  -5.15757522E+04   4.76125440E+03   0.00000000E+00   1.50366908E+04   3.66465090E+03   1.20652614E+03   7.19372707E+00   0.00000000E+00   0.00000000E+00   0.00000000E+00   0.00000000E+00   0.00000000E+00   0.00000000E+00   1.33068796E+03   1.93800794E+03   0.00000000E+00   0.00000000E+00   0.00000000E+00   0.00000000E+00   1.99676717E+04
   5.25000000E+01   5.00000000E-01   5.00000000E-01  -5.15736874E+04   4.76125334E+03   0.00000000E+00   1.50348679E+04   3.70671263E+03   1.20652623E+03   7.19372707E+00   0.00000000E+00   0.00000000E+00   0.00000000E+00   0.00000000E+00   0.00000000E+00   0.00000000E+00   1.33227175E+03   1.98006957E+03   0.00000000E+00   0.00000000E+00   0.00000000E+00   0.00000000E+00   1.99740452E+04
   8.75000000E+01   5.00000000E-01   5.00000000E-01  -5.15731912E+04   4.76125334E+03   0.00000000E+00   1.50342290E+04   3.74779633E+03   1.20652638E+03   7.19372707E+00   0.00000000E+00   0.00000000E+00   0.00000000E+00   0.00000000E+00   0.00000000E+00   0.00000000E+00   1.33305293E+03   2.02115313E+03   0.00000000E+00   0.00000000E+00   0.00000000E+00   0.00000000E+00   1.99774846E+04
   1.22500000E+02   5.00000000E-01   5.00000000E-01  -5.15730993E+04   4.76125334E+03   0.00000000E+00   1.50340320E+04   3.78525170E+03   1.20652658E+03   7.19372707E+00   0.00000000E+00   0.00000000E+00   0.00000000E+00   0.00000000E+00   0.00000000E+00   0.00000000E+00   1.33335426E+03   2.05860840E+03   0.00000000E+00   0.00000000E+00   0.00000000E+00   0.00000000E+00   1.99788722E+04
   1.57500000E+02   5.00000000E-01   5.00000000E-01  -5.15731117E+04   4.76125334E+03   0.00000000E+00   1.50339852E+04   3.81778914E+03   1.20652683E+03   7.19372707E+00   0.00000000E+00   0.00000000E+00   0.00000000E+00   0.00000000E+00   0.00000000E+00   0.00000000E+00   1.33345969E+03   2.09114576E+03   0.00000000E+00   0.00000000E+00   0.00000000E+00   0.00000000E+00   1.99793819E+04
   1.92500000E+02   5.00000000E-01   5.00000000E-01  -5.15731599E+04   4.76125334E+03   0.00000000E+00   1.50339945E+04   3.84505352E+03   1.20652713E+03   7.19372707E+00   0.00000000E+00   0.00000000E+00   0.00000000E+00   0.00000000E+00   0.00000000E+00   0.00000000E+00   1.33348854E+03   2.11841008E+03   0.00000000E+00   0.00000000E+00   0.00000000E+00   0.00000000E+00   1.99795452E+04
   2.27500000E+02   5.00000000E-01   5.00000000E-01  -5.15732237E+04   4.76125334E+03   0.00000000E+00   1.50340268E+04   3.86726625E+03   1.20652747E+03   7.19372707E+00   0.00000000E+00   0.00000000E+00   0.00000000E+00   0.00000000E+00   0.00000000E+00   0.00000000E+00   1.33348703E+03   2.14062279E+03   0.00000000E+00   0.00000000E+00   0.00000000E+00   0.00000000E+00   1.99795727E+04
   2.62500000E+02   5.00000000E-01   5.00000000E-01  -5.15732959E+04   4.76125334E+03   0.00000000E+00   1.50340696E+04   3.88495686E+03   1.20652785E+03   7.19372707E+00   0.00000000E+00   0.00000000E+00   0.00000000E+00   0.00000000E+00   0.00000000E+00   0.00000000E+00   1.33347297E+03   2.15831339E+03   0.00000000E+00   0.00000000E+00   0.00000000E+00   0.00000000E+00   1.99795462E+04
   2.97500000E+02   5.00000000E-01   5.00000000E-01  -5.15733743E+04   4.76125334E+03   0.00000000E+00   1.50341181E+04   3.89878155E+03   1.20652827E+03   7.19372707E+00   0.00000000E+00   0.00000000E+00   0.00000000E+00   0.00000000E+00   0.00000000E+00   0.00000000E+00   1.33345331E+03   2.17213807E+03   0.00000000E+00   0.00000000E+00   0.00000000E+00   0.00000000E+00   1.99794980E+04
   3.32500000E+02   5.00000000E-01   5.00000000E-01  -5.15734578E+04   4.76125334E+03   0.00000000E+00   1.50341707E+04   3.90939754E+03   1.20652872E+03   7.19372707E+00   0.00000000E+00   0.00000000E+00   0.00000000E+00   0.00000000E+00   0.00000000E+00   0.00000000E+00   1.33343082E+03   2.18275407E+03   0.00000000E+00   0.00000000E+00   0.00000000E+00   0.00000000E+00   1.99794409E+04
   3.67500000E+02   5.00000000E-01   5.00000000E-01  -5.15735462E+04   4.76125334E+03   0.00000000E+00   1.50342265E+04   3.91741871E+03   1.20652921E+03   7.19372707E+00   0.00000000E+00   0.00000000E+00   0.00000000E+00   0.00000000E+00   0.00000000E+00   0.00000000E+00   1.33340662E+03   2.19077525E+03   0.00000000E+00   0.00000000E+00   0.00000000E+00   0.00000000E+00   1.99793801E+04
   4.02500000E+02   5.00000000E-01   5.00000000E-01  -5.15736394E+04   4.76125334E+03   0.00000000E+00   1.50342853E+04   3.92339268E+03   1.20652974E+03   7.19372707E+00   0.00000000E+00   0.00000000E+00   0.00000000E+00   0.00000000E+00   0.00000000E+00   0.00000000E+00   1.33338117E+03   2.19674924E+03   0.00000000E+00   0.00000000E+00   0.00000000E+00   0.00000000E+00   1.99793179E+04
   4.37500000E+02   5.00000000E-01   5.00000000E-01  -5.15737372E+04   4.76125334E+03   0.00000000E+00   1.50343469E+04   3.92777182E+03   1.20653031E+03   7.19372707E+00   0.00000000E+00   0.00000000E+00   0.00000000E+00   0.00000000E+00   0.00000000E+00   0.00000000E+00   1.33335469E+03   2.20112839E+03   0.00000000E+00   0.00000000E+00   0.00000000E+00   0.00000000E+00   1.99792550E+04
   4.72500000E+02   5.00000000E-01   5.00000000E-01  -5.15738395E+04   4.76125334E+03   0.00000000E+00   1.50344112E+04   3.93092093E+03   1.20653091E+03   7.19372707E+00   0.00000000E+00   0.00000000E+00   0.00000000E+00   0.00000000E+00   0.00000000E+00   0.00000000E+00   1.33332727E+03   2.20427750E+03   0.00000000E+00   0.00000000E+00   0.00000000E+00   0.00000000E+00   1.99791919E+04
   5.07500000E+02   5.00000000E-01   5.00000000E-01  -5.15739462E+04   4.76125334E+03   0.00000000E+00   1.50344780E+04   3.93312895E+03   1.20653154E+03   7.19372706E+00   0.00000000E+00   0.00000000E+00   0.00000000E+00   0.00000000E+00   0.00000000E+00   0.00000000E+00   1.33329899E+03   2.20648551E+03   0.00000000E+00   0.00000000E+00   0.00000000E+00   0.00000000E+00   1.99791285E+04
   5.42500000E+02   5.00000000E-01   5.00000000E-01  -5.15740568E+04   4.76125334E+03   0.00000000E+00   1.50345471E+04   3.93462155E+03   1.20653220E+03   7.19372706E+00   0.00000000E+00   0.00000000E+00   0.00000000E+00   0.00000000E+00   0.00000000E+00   0.00000000E+00   1.33326993E+03   2.20797809E+03   0.00000000E+00   0.00000000E+00   0.00000000E+00   0.00000000E+00   1.99790651E+04
   5.77500000E+02   5.00000000E-01   5.00000000E-01  -5.15741709E+04   4.76125334E+03   0.00000000E+00   1.50346183E+04   3.93557303E+03   1.20653290E+03   7.19372706E+00   0.00000000E+00   0.00000000E+00   0.00000000E+00   0.00000000E+00   0.00000000E+00   0.00000000E+00   1.33324017E+03   2.20892951E+03   0.00000000E+00   0.00000000E+00   0.00000000E+00   0.00000000E+00   1.99790015E+04
   6.12500000E+02   5.00000000E-01   5.00000000E-01  -5.15742879E+04   4.76125334E+03   0.00000000E+00   1.50346912E+04   3.93611680E+03   1.20653363E+03   7.19372706E+00   0.00000000E+00   0.00000000E+00   0.00000000E+00   0.00000000E+00   0.00000000E+00   0.00000000E+00   1.33320979E+03   2.20947320E+03   0.00000000E+00   0.00000000E+00   0.00000000E+00   0.00000000E+00   1.99789376E+04
   6.47500000E+02   5.00000000E-01   5.00000000E-01  -5.15744073E+04   4.76125334E+03   0.00000000E+00   1.50347655E+04   3.93635422E+03   1.20653439E+03   7.19372706E+00   0.00000000E+00   0.00000000E+00   0.00000000E+00   0.00000000E+00   0.00000000E+00   0.00000000E+00   1.33317889E+03   2.20971051E+03   0.00000000E+00   0.00000000E+00   0.00000000E+00   0.00000000E+00   1.99788735E+04
   6.82500000E+02   5.00000000E-01   5.00000000E-01  -5.15745282E+04   4.76125334E+03   0.00000000E+00   1.50348407E+04   3.93636190E+03   1.20653519E+03   7.19372706E+00   0.00000000E+00   0.00000000E+00   0.00000000E+00   0.00000000E+00   0.00000000E+00   0.00000000E+00   1.33314759E+03   2.20971806E+03   0.00000000E+00   0.00000000E+00   0.00000000E+00   0.00000000E+00   1.99788090E+04
   7.17500000E+02   5.00000000E-01   5.00000000E-01  -5.15746497E+04   4.76125334E+03   0.00000000E+00   1.50349163E+04   3.93619754E+03   1.20653601E+03   7.19372706E+00   0.00000000E+00   0.00000000E+00   0.00000000E+00   0.00000000E+00   0.00000000E+00   0.00000000E+00   1.33311602E+03   2.20955357E+03   0.00000000E+00   0.00000000E+00   0.00000000E+00   0.00000000E+00   1.99787441E+04
   7.52500000E+02   5.00000000E-01   5.00000000E-01  -5.15747708E+04   4.76125334E+03   0.00000000E+00   1.50349917E+04   3.93590448E+03   1.20653687E+03   7.19372706E+00   0.00000000E+00   0.00000000E+00   0.00000000E+00   0.00000000E+00   0.00000000E+00   0.00000000E+00   1.33308431E+03   2.20926037E+03   0.00000000E+00   0.00000000E+00   0.00000000E+00   0.00000000E+00   1.99786787E+04
   7.87500000E+02   5.00000000E-01   5.00000000E-01  -5.15748905E+04   4.76125334E+03   0.00000000E+00   1.50350663E+04   3.93551527E+03   1.20653776E+03   7.19372705E+00   0.00000000E+00   0.00000000E+00   0.00000000E+00   0.00000000E+00   0.00000000E+00   0.00000000E+00   1.33305260E+03   2.20887102E+03   0.00000000E+00   0.00000000E+00   0.00000000E+00   0.00000000E+00   1.99786127E+04
   8.22500000E+02   5.00000000E-01   5.00000000E-01  -5.15750076E+04   4.76125334E+03   0.00000000E+00   1.50351396E+04   3.93505440E+03   1.20653869E+03   7.19372705E+00   0.00000000E+00   0.00000000E+00   0.00000000E+00   0.00000000E+00   0.00000000E+00   0.00000000E+00   1.33302106E+03   2.20841000E+03   0.00000000E+00   0.00000000E+00   0.00000000E+00   0.00000000E+00   1.99785461E+04
   8.57500000E+02   5.00000000E-01   5.00000000E-01  -5.15751209E+04   4.76125334E+03   0.00000000E+00   1.50352107E+04   3.93454035E+03   1.20653964E+03   7.19372704E+00   0.00000000E+00   0.00000000E+00   0.00000000E+00   0.00000000E+00   0.00000000E+00   0.00000000E+00   1.33298982E+03   2.20789580E+03   0.00000000E+00   0.00000000E+00   0.00000000E+00   0.00000000E+00   1.99784786E+04
   8.92500000E+02   5.00000000E-01   5.00000000E-01  -5.15752292E+04   4.76125334E+03   0.00000000E+00   1.50352791E+04   3.93398713E+03   1.20654062E+03   7.19372703E+00   0.00000000E+00   0.00000000E+00   0.00000000E+00   0.00000000E+00   0.00000000E+00   0.00000000E+00   1.33295904E+03   2.20734243E+03   0.00000000E+00   0.00000000E+00   0.00000000E+00   0.00000000E+00   1.99784103E+04
   9.27500000E+02   5.00000000E-01   5.00000000E-01  -5.15753312E+04   4.76125334E+03   0.00000000E+00   1.50353440E+04   3.93340548E+03   1.20654164E+03   7.19372702E+00   0.00000000E+00   0.00000000E+00   0.00000000E+00   0.00000000E+00   0.00000000E+00   0.00000000E+00   1.33292889E+03   2.20676061E+03   0.00000000E+00   0.00000000E+00   0.00000000E+00   0.00000000E+00   1.99783409E+04
   9.62500000E+02   5.00000000E-01   5.00000000E-01  -5.15754258E+04   4.76125334E+03   0.00000000E+00   1.50354048E+04   3.93280363E+03   1.20654268E+03   7.19372701E+00   0.00000000E+00   0.00000000E+00   0.00000000E+00   0.00000000E+00   0.00000000E+00   0.00000000E+00   1.33289950E+03   2.20615861E+03   0.00000000E+00   0.00000000E+00   0.00000000E+00   0.00000000E+00   1.99782706E+04
   9.97500000E+02   5.00000000E-01   5.00000000E-01  -5.15755118E+04   4.76125334E+03   0.00000000E+00   1.50354608E+04   3.93218802E+03   1.20654376E+03   7.19372699E+00   0.00000000E+00   0.00000000E+00   0.00000000E+00   0.00000000E+00   0.00000000E+00   0.00000000E+00   1.33287102E+03   2.20554284E+03   0.00000000E+00   0.00000000E+00   0.00000000E+00   0.00000000E+00   1.99781991E+04
   1.03250000E+03   5.00000000E-01   5.00000000E-01  -5.15755882E+04   4.76125334E+03   0.00000000E+00   1.50355115E+04   3.93156368E+03   1.20654486E+03   7.19372697E+00   0.00000000E+00   0.00000000E+00   0.00000000E+00   0.00000000E+00   0.00000000E+00   0.00000000E+00   1.33284358E+03   2.20491833E+03   0.00000000E+00   0.00000000E+00   0.00000000E+00   0.00000000E+00   1.99781264E+04
   1.06750000E+03   5.00000000E-01   5.00000000E-01  -5.15756541E+04   4.76125334E+03   0.00000000E+00   1.50355563E+04   3.93093459E+03   1.20654598E+03   7.19372693E+00   0.00000000E+00   0.00000000E+00   0.00000000E+00   0.00000000E+00   0.00000000E+00   0.00000000E+00   1.33281727E+03   2.20428908E+03   0.00000000E+00   0.00000000E+00   0.00000000E+00   0.00000000E+00   1.99780525E+04
   1.10250000E+03   5.00000000E-01   5.00000000E-01  -5.15757086E+04   4.76125334E+03   0.00000000E+00   1.50355948E+04   3.93030392E+03   1.20654713E+03   7.19372689E+00   0.00000000E+00   0.00000000E+00   0.00000000E+00   0.00000000E+00   0.00000000E+00   0.00000000E+00   1.33279221E+03   2.20365825E+03   0.00000000E+00   0.00000000E+00   0.00000000E+00   0.00000000E+00   1.99779773E+04
   1.13750000E+03   5.00000000E-01   5.00000000E-01  -5.15757512E+04   4.76125334E+03   0.00000000E+00   1.50356266E+04   3.92967421E+03   1.20654830E+03   7.19372684E+00   0.00000000E+00   0.00000000E+00   0.00000000E+00   0.00000000E+00   0.00000000E+00   0.00000000E+00   1.33276847E+03   2.20302837E+03   0.00000000E+00   0.00000000E+00   0.00000000E+00   0.00000000E+00   1.99779008E+04
   1.17250000E+03   5.00000000E-01   5.00000000E-01  -5.15757814E+04   4.76125334E+03   0.00000000E+00   1.50356516E+04   3.92904748E+03   1.20654949E+03   7.19372676E+00   0.00000000E+00   0.00000000E+00   0.00000000E+00   0.00000000E+00   0.00000000E+00   0.00000000E+00   1.33274611E+03   2.20240148E+03   0.00000000E+00   0.00000000E+00   0.00000000E+00   0.00000000E+00   1.99778232E+04
   1.20750000E+03   5.00000000E-01   5.00000000E-01  -5.15757991E+04   4.76125334E+03   0.00000000E+00   1.50356695E+04   3.92842534E+03   1.20655069E+03   7.19372667E+00   0.00000000E+00   0.00000000E+00   0.00000000E+00   0.00000000E+00   0.00000000E+00   0.00000000E+00   1.33272516E+03   2.20177918E+03   0.00000000E+00   0.00000000E+00   0.00000000E+00   0.00000000E+00   1.99777443E+04
   1.24250000E+03   5.00000000E-01   5.00000000E-01  -5.15758041E+04   4.76125334E+03   0.00000000E+00   1.50356804E+04   3.92780907E+03   1.20655191E+03   7.19372655E+00   0.00000000E+00   0.00000000E+00   0.00000000E+00   0.00000000E+00   0.00000000E+00   0.00000000E+00   1.33270564E+03   2.20116275E+03   0.00000000E+00   0.00000000E+00   0.00000000E+00   0.00000000E+00   1.99776644E+04
   1.27750000E+03   5.00000000E-01   5.00000000E-01  -5.15757966E+04   4.76125334E+03   0.00000000E+00   1.50356843E+04   3.92719965E+03   1.20655314E+03   7.19372639E+00   0.00000000E+00   0.00000000E+00   0.00000000E+00   0.00000000E+00   0.00000000E+00   0.00000000E+00   1.33268754E+03   2.20055318E+03   0.00000000E+00   0.00000000E+00   0.00000000E+00   0.00000000E+00   1.99775836E+04
   1.31250000E+03   5.00000000E-01   5.00000000E-01  -5.15757771E+04   4.76125334E+03   0.00000000E+00   1.50356815E+04   3.92659784E+03   1.20655438E+03   7.19372618E+00   0.00000000E+00   0.00000000E+00   0.00000000E+00   0.00000000E+00   0.00000000E+00   0.00000000E+00   1.33267084E+03   2.19995121E+03   0.00000000E+00   0.00000000E+00   0.00000000E+00   0.00000000E+00   1.99775019E+04
   1.34750000E+03   5.00000000E-01   5.00000000E-01  -5.15757460E+04   4.76125334E+03   0.00000000E+00   1.50356723E+04   3.92600419E+03   1.20655562E+03   7.19372591E+00   0.00000000E+00   0.00000000E+00   0.00000000E+00   0.00000000E+00   0.00000000E+00   0.00000000E+00   1.33265548E+03   2.19935741E+03   0.00000000E+00   0.00000000E+00   0.00000000E+00   0.00000000E+00   1.99774196E+04
   1.38250000E+03   5.00000000E-01   5.00000000E-01  -5.15757042E+04   4.76125334E+03   0.00000000E+00   1.50356570E+04   3.92541907E+03   1.20655687E+03   7.19372557E+00   0.00000000E+00   0.00000000E+00   0.00000000E+00   0.00000000E+00   0.00000000E+00   0.00000000E+00   1.33264140E+03   2.19877214E+03   0.00000000E+00   0.00000000E+00   0.00000000E+00   0.00000000E+00   1.99773368E+04
   1.41750000E+03   5.00000000E-01   5.00000000E-01  -5.15756524E+04   4.76125334E+03   0.00000000E+00   1.50356362E+04   3.92484271E+03   1.20655811E+03   7.19372514E+00   0.00000000E+00   0.00000000E+00   0.00000000E+00   0.00000000E+00   0.00000000E+00   0.00000000E+00   1.33262854E+03   2.19819564E+03   0.00000000E+00   0.00000000E+00   0.00000000E+00   0.00000000E+00   1.99772538E+04
   1.45250000E+03   5.00000000E-01   5.00000000E-01  -5.15755917E+04   4.76125334E+03   0.00000000E+00   1.50356103E+04   3.92427523E+03   1.20655935E+03   7.19372459E+00   0.00000000E+00   0.00000000E+00   0.00000000E+00   0.00000000E+00   0.00000000E+00   0.00000000E+00   1.33261679E+03   2.19762802E+03   0.00000000E+00   0.00000000E+00   0.00000000E+00   0.00000000E+00   1.99771706E+04
   1.48750000E+03   5.00000000E-01   5.00000000E-01  -5.15755230E+04   4.76125334E+03   0.00000000E+00   1.50355800E+04   3.92371662E+03   1.20656058E+03   7.19372389E+00   0.00000000E+00   0.00000000E+00   0.00000000E+00   0.00000000E+00   0.00000000E+00   0.00000000E+00   1.33260607E+03   2.19706928E+03   0.00000000E+00   0.00000000E+00   0.00000000E+00   0.00000000E+00   1.99770876E+04
   1.52250000E+03   5.00000000E-01   5.00000000E-01  -5.15754476E+04   4.76125334E+03   0.00000000E+00   1.50355458E+04   3.92316680E+03   1.20656180E+03   7.19372301E+00   0.00000000E+00   0.00000000E+00   0.00000000E+00   0.00000000E+00   0.00000000E+00   0.00000000E+00   1.33259627E+03   2.19651934E+03   0.00000000E+00   0.00000000E+00   0.00000000E+00   0.00000000E+00   1.99770049E+04
   1.55750000E+03   5.00000000E-01   5.00000000E-01  -5.15753665E+04   4.76125334E+03   0.00000000E+00   1.50355084E+04   3.92262562E+03   1.20656301E+03   7.19372190E+00   0.00000000E+00   0.00000000E+00   0.00000000E+00   0.00000000E+00   0.00000000E+00   0.00000000E+00   1.33258729E+03   2.19597804E+03   0.00000000E+00   0.00000000E+00   0.00000000E+00   0.00000000E+00   1.99769228E+04
   1.59250000E+03   5.00000000E-01   5.00000000E-01  -5.15752809E+04   4.76125334E+03   0.00000000E+00   1.50354684E+04   3.92209286E+03   1.20656421E+03   7.19372050E+00   0.00000000E+00   0.00000000E+00   0.00000000E+00   0.00000000E+00   0.00000000E+00   0.00000000E+00   1.33257902E+03   2.19544516E+03   0.00000000E+00   0.00000000E+00   0.00000000E+00   0.00000000E+00   1.99768413E+04
   1.62750000E+03   5.00000000E-01   5.00000000E-01  -5.15751918E+04   4.76125334E+03   0.00000000E+00   1.50354265E+04   3.92156826E+03   1.20656539E+03   7.19371875E+00   0.00000000E+00   0.00000000E+00   0.00000000E+00   0.00000000E+00   0.00000000E+00   0.00000000E+00   1.33257136E+03   2.19492046E+03   0.00000000E+00   0.00000000E+00   0.00000000E+00   0.00000000E+00   1.99767606E+04
   1.66250000E+03   5.00000000E-01   5.00000000E-01  -5.15751005E+04   4.76125334E+03   0.00000000E+00   1.50353831E+04   3.92105155E+03   1.20656655E+03   7.19371657E+00   0.00000000E+00   0.00000000E+00   0.00000000E+00   0.00000000E+00   0.00000000E+00   0.00000000E+00   1.33256421E+03   2.19440364E+03   0.00000000E+00   0.00000000E+00   0.00000000E+00   0.00000000E+00   1.99766809E+04
   1.69750000E+03   5.00000000E-01   5.00000000E-01  -5.15750077E+04   4.76125334E+03   0.00000000E+00   1.50353388E+04   3.92054240E+03   1.20656769E+03   7.19371393E+00   0.00000000E+00   0.00000000E+00   0.00000000E+00   0.00000000E+00   0.00000000E+00   0.00000000E+00   1.33255750E+03   2.19389440E+03   0.00000000E+00   0.00000000E+00   0.00000000E+00   0.00000000E+00   1.99766023E+04
   1.73250000E+03   5.00000000E-01   5.00000000E-01  -5.15749144E+04   4.76125334E+03   0.00000000E+00   1.50352942E+04   3.92004051E+03   1.20656881E+03   7.19371078E+00   0.00000000E+00   0.00000000E+00   0.00000000E+00   0.00000000E+00   0.00000000E+00   0.00000000E+00   1.33255113E+03   2.19339242E+03   0.00000000E+00   0.00000000E+00   0.00000000E+00   0.00000000E+00   1.99765249E+04
   1.76750000E+03   5.00000000E-01   5.00000000E-01  -5.15748214E+04   4.76125334E+03   0.00000000E+00   1.50352495E+04   3.91954557E+03   1.20656990E+03   7.19370708E+00   0.00000000E+00   0.00000000E+00   0.00000000E+00   0.00000000E+00   0.00000000E+00   0.00000000E+00   1.33254505E+03   2.19289739E+03   0.00000000E+00   0.00000000E+00   0.00000000E+00   0.00000000E+00   1.99764489E+04
   1.80250000E+03   5.00000000E-01   5.00000000E-01  -5.15747295E+04   4.76125334E+03   0.00000000E+00   1.50352053E+04   3.91905728E+03   1.20657098E+03   7.19370276E+00   0.00000000E+00   0.00000000E+00   0.00000000E+00   0.00000000E+00   0.00000000E+00   0.00000000E+00   1.33253919E+03   2.19240902E+03   0.00000000E+00   0.00000000E+00   0.00000000E+00   0.00000000E+00   1.99763742E+04
   1.83750000E+03   5.00000000E-01   5.00000000E-01  -5.15746392E+04   4.76125334E+03   0.00000000E+00   1.50351619E+04   3.91857536E+03   1.20657203E+03   7.19369771E+00   0.00000000E+00   0.00000000E+00   0.00000000E+00   0.00000000E+00   0.00000000E+00   0.00000000E+00   1.33253349E+03   2.19192702E+03   0.00000000E+00   0.00000000E+00   0.00000000E+00   0.00000000E+00   1.99763010E+04
   1.87250000E+03   5.00000000E-01   5.00000000E-01  -5.15745510E+04   4.76125334E+03   0.00000000E+00   1.50351195E+04   3.91809957E+03   1.20657305E+03   7.19369177E+00   0.00000000E+00   0.00000000E+00   0.00000000E+00   0.00000000E+00   0.00000000E+00   0.00000000E+00   1.33252794E+03   2.19145115E+03   0.00000000E+00   0.00000000E+00   0.00000000E+00   0.00000000E+00   1.99762293E+04
   1.90750000E+03   5.00000000E-01   5.00000000E-01  -5.15744655E+04   4.76125334E+03   0.00000000E+00   1.50350784E+04   3.91762971E+03   1.20657406E+03   7.19368475E+00   0.00000000E+00   0.00000000E+00   0.00000000E+00   0.00000000E+00   0.00000000E+00   0.00000000E+00   1.33252249E+03   2.19098122E+03   0.00000000E+00   0.00000000E+00   0.00000000E+00   0.00000000E+00   1.99761592E+04
   1.94250000E+03   5.00000000E-01   5.00000000E-01  -5.15743828E+04   4.76125334E+03   0.00000000E+00   1.50350387E+04   3.91716562E+03   1.20657504E+03   7.19367651E+00   0.00000000E+00   0.00000000E+00   0.00000000E+00   0.00000000E+00   0.00000000E+00   0.00000000E+00   1.33251713E+03   2.19051706E+03   0.00000000E+00   0.00000000E+00   0.00000000E+00   0.00000000E+00   1.99760907E+04
   1.97750000E+03   5.00000000E-01   5.00000000E-01  -5.15743034E+04   4.76125334E+03   0.00000000E+00   1.50350006E+04   3.91670719E+03   1.20657600E+03   7.19366707E+00   0.00000000E+00   0.00000000E+00   0.00000000E+00   0.00000000E+00   0.00000000E+00   0.00000000E+00   1.33251185E+03   2.19005857E+03   0.00000000E+00   0.00000000E+00   0.00000000E+00   0.00000000E+00   1.99760239E+04
   2.01250000E+03   5.00000000E-01   5.00000000E-01  -5.15742273E+04   4.76125334E+03   0.00000000E+00   1.50349642E+04   3.91625440E+03   1.20657695E+03   7.19365666E+00   0.00000000E+00   0.00000000E+00   0.00000000E+00   0.00000000E+00   0.00000000E+00   0.00000000E+00   1.33250665E+03   2.18960571E+03   0.00000000E+00   0.00000000E+00   0.00000000E+00   0.00000000E+00   1.99759588E+04
   2.04750000E+03   5.00000000E-01   5.00000000E-01  -5.15741548E+04   4.76125334E+03   0.00000000E+00   1.50349295E+04   3.91580726E+03   1.20657789E+03   7.19364561E+00   0.00000000E+00   0.00000000E+00   0.00000000E+00   0.00000000E+00   0.00000000E+00   0.00000000E+00   1.33250154E+03   2.18915850E+03   0.00000000E+00   0.00000000E+00   0.00000000E+00   0.00000000E+00   1.99758955E+04
   2.08250000E+03   5.00000000E-01   5.00000000E-01  -5.15740858E+04   4.76125334E+03   0.00000000E+00   1.50348966E+04   3.91536586E+03   1.20657882E+03   7.19363430E+00   0.00000000E+00   0.00000000E+00   0.00000000E+00   0.00000000E+00   0.00000000E+00   0.00000000E+00   1.33249653E+03   2.18871703E+03   0.00000000E+00   0.00000000E+00   0.00000000E+00   0.00000000E+00   1.99758339E+04
   2.11750000E+03   5.00000000E-01   5.00000000E-01  -5.15740205E+04   4.76125334E+03   0.00000000E+00   1.50348654E+04   3.91493035E+03   1.20657975E+03   7.19362304E+00   0.00000000E+00   0.00000000E+00   0.00000000E+00   0.00000000E+00   0.00000000E+00   0.00000000E+00   1.33249166E+03   2.18828146E+03   0.00000000E+00   0.00000000E+00   0.00000000E+00   0.00000000E+00   1.99757742E+04
   2.15250000E+03   5.00000000E-01   5.00000000E-01  -5.15739589E+04   4.76125334E+03   0.00000000E+00   1.50348359E+04   3.91450096E+03   1.20658068E+03   7.19361203E+00   0.00000000E+00   0.00000000E+00   0.00000000E+00   0.00000000E+00   0.00000000E+00   0.00000000E+00   1.33248693E+03   2.18785201E+03   0.00000000E+00   0.00000000E+00   0.00000000E+00   0.00000000E+00   1.99757163E+04
   2.18750000E+03   5.00000000E-01   5.00000000E-01  -5.15739009E+04   4.76125333E+03   0.00000000E+00   1.50348082E+04   3.91407797E+03   1.20658162E+03   7.19360142E+00   0.00000000E+00   0.00000000E+00   0.00000000E+00   0.00000000E+00   0.00000000E+00   0.00000000E+00   1.33248240E+03   2.18742896E+03   0.00000000E+00   0.00000000E+00   0.00000000E+00   0.00000000E+00   1.99756603E+04
   2.22250000E+03   5.00000000E-01   5.00000000E-01  -5.15738464E+04   4.76125333E+03   0.00000000E+00   1.50347821E+04   3.91366172E+03   1.20658258E+03   7.19359129E+00   0.00000000E+00   0.00000000E+00   0.00000000E+00   0.00000000E+00   0.00000000E+00   0.00000000E+00   1.33247809E+03   2.18701264E+03   0.00000000E+00   0.00000000E+00   0.00000000E+00   0.00000000E+00   1.99756062E+04
   2.25750000E+03   5.00000000E-01   5.00000000E-01  -5.15737953E+04   4.76125333E+03   0.00000000E+00   1.50347576E+04   3.91325259E+03   1.20658357E+03   7.19358157E+00   0.00000000E+00   0.00000000E+00   0.00000000E+00   0.00000000E+00   0.00000000E+00   0.00000000E+00   1.33247405E+03   2.18660345E+03   0.00000000E+00   0.00000000E+00   0.00000000E+00   0.00000000E+00   1.99755541E+04
   2.29250000E+03   5.00000000E-01   5.00000000E-01  -5.15737477E+04   4.76125333E+03   0.00000000E+00   1.50347345E+04   3.91285102E+03   1.20658460E+03   7.19357190E+00   0.00000000E+00   0.00000000E+00   0.00000000E+00   0.00000000E+00   0.00000000E+00   0.00000000E+00   1.33247032E+03   2.18620182E+03   0.00000000E+00   0.00000000E+00   0.00000000E+00   0.00000000E+00   1.99755040E+04
   2.32750000E+03   5.00000000E-01   5.00000000E-01  -5.15737033E+04   4.76125333E+03   0.00000000E+00   1.50347129E+04   3.91245744E+03   1.20658568E+03   7.19356171E+00   0.00000000E+00   0.00000000E+00   0.00000000E+00   0.00000000E+00   0.00000000E+00   0.00000000E+00   1.33246697E+03   2.18580820E+03   0.00000000E+00   0.00000000E+00   0.00000000E+00   0.00000000E+00   1.99754560E+04
   2.36250000E+03   5.00000000E-01   5.00000000E-01  -5.15736620E+04   4.76125333E+03   0.00000000E+00   1.50346926E+04   3.91207234E+03   1.20658683E+03   7.19355048E+00   0.00000000E+00   0.00000000E+00   0.00000000E+00   0.00000000E+00   0.00000000E+00   0.00000000E+00   1.33246404E+03   2.18542307E+03   0.00000000E+00   0.00000000E+00   0.00000000E+00   0.00000000E+00   1.99754103E+04
   2.39750000E+03   5.00000000E-01   5.00000000E-01  -5.15736238E+04   4.76125333E+03   0.00000000E+00   1.50346734E+04   3.91169618E+03   1.20658807E+03   7.19353807E+00   0.00000000E+00   0.00000000E+00   0.00000000E+00   0.00000000E+00   0.00000000E+00   0.00000000E+00   1.33246161E+03   2.18504690E+03   0.00000000E+00   0.00000000E+00   0.00000000E+00   0.00000000E+00   1.99753668E+04
   2.43250000E+03   5.00000000E-01   5.00000000E-01  -5.15735883E+04   4.76125333E+03   0.00000000E+00   1.50346553E+04   3.91132943E+03   1.20658941E+03   7.19352491E+00   0.00000000E+00   0.00000000E+00   0.00000000E+00   0.00000000E+00   0.00000000E+00   0.00000000E+00   1.33245973E+03   2.18468015E+03   0.00000000E+00   0.00000000E+00   0.00000000E+00   0.00000000E+00   1.99753257E+04
   2.46750000E+03   5.00000000E-01   5.00000000E-01  -5.15735555E+04   4.76125333E+03   0.00000000E+00   1.50346381E+04   3.91097252E+03   1.20659088E+03   7.19351202E+00   0.00000000E+00   0.00000000E+00   0.00000000E+00   0.00000000E+00   0.00000000E+00   0.00000000E+00   1.33245848E+03   2.18432325E+03   0.00000000E+00   0.00000000E+00   0.00000000E+00   0.00000000E+00   1.99752871E+04
   2.50250000E+03   5.00000000E-01   5.00000000E-01  -5.15735252E+04   4.76125333E+03   0.00000000E+00   1.50346216E+04   3.91062587E+03   1.20659252E+03   7.19350080E+00   0.00000000E+00   0.00000000E+00   0.00000000E+00   0.00000000E+00   0.00000000E+00   0.00000000E+00   1.33245794E+03   2.18397661E+03   0.00000000E+00   0.00000000E+00   0.00000000E+00   0.00000000E+00   1.99752512E+04
   2.53750000E+03   5.00000000E-01   5.00000000E-01  -5.15734972E+04   4.76125333E+03   0.00000000E+00   1.50346057E+04   3.91028982E+03   1.20659435E+03   7.19349269E+00   0.00000000E+00   0.00000000E+00   0.00000000E+00   0.00000000E+00   0.00000000E+00   0.00000000E+00   1.33245821E+03   2.18364059E+03   0.00000000E+00   0.00000000E+00   0.00000000E+00   0.00000000E+00   1.99752182E+04
   2.57250000E+03   5.00000000E-01   5.00000000E-01  -5.15734713E+04   4.76125333E+03   0.00000000E+00   1.50345901E+04   3.90996468E+03   1.20659641E+03   7.19348889E+00   0.00000000E+00   0.00000000E+00   0.00000000E+00   0.00000000E+00   0.00000000E+00   0.00000000E+00   1.33245938E+03   2.18331547E+03   0.00000000E+00   0.00000000E+00   0.00000000E+00   0.00000000E+00   1.99751883E+04
   2.60750000E+03   5.00000000E-01   5.00000000E-01  -5.15734473E+04   4.76125332E+03   0.00000000E+00   1.50345746E+04   3.90965071E+03   1.20659877E+03   7.19349015E+00   0.00000000E+00   0.00000000E+00   0.00000000E+00   0.00000000E+00   0.00000000E+00   0.00000000E+00   1.33246157E+03   2.18300149E+03   0.00000000E+00   0.00000000E+00   0.00000000E+00   0.00000000E+00   1.99751617E+04