 TITLE = "Total Component Concentration in Minerals" 
VARIABLES = "X"          "Y"              "Z"            "H+"             "Al+++"          "CO2(aq)"        "Mg++"           "Ca++"           "Fe++"           "Fe+++"          "Ba++"           "Sr++"           "Li+"            "Rb+"            "Mn++"           "Zn++"           "Cu++"           "Cu+"            "Cl-"            "F-"             "K+"             "HS-"            "Na+"            "SO4--"          "O2(aq)"         "B(OH)3(aq)"     "HPO4--"         "NO3-"           "H4SiO4(aq)"     "Ti(OH)4(aq)"   
 ZONE I=         200 , J=           1 , K=           1  F=POINT
   8.75000000E+00   5.00000000E-01   5.00000000E-01  -4.46083758E+04   3.03736054E+03   0.00000000E+00   9.15329784E+03   1.71523575E+03   6.21960181E+03   7.34541571E+01   1.98030097E+00   2.16216054E+00   0.00000000E+00   0.00000000E+00   2.06633368E+01   6.94983234E+01   2.44618232E+00   7.03745079E+00   0.00000000E+00   8.14927566E+00   5.59545949E-06   3.51873641E+00   9.23968193E+02   6.58864576E+00  -1.93789543E-06   0.00000000E+00   0.00000000E+00   0.00000000E+00   1.51184628E+04   7.11043953E+00
   2.62500000E+01   5.00000000E-01   5.00000000E-01  -4.46314060E+04   3.03733253E+03   0.00000000E+00   9.16298901E+03   1.71545664E+03   6.21981008E+03   7.34541570E+01   1.94226063E+00   2.16216053E+00   0.00000000E+00   0.00000000E+00   2.06633368E+01   6.94983266E+01   2.44618232E+00   7.03729937E+00   0.00000000E+00   8.14927539E+00   1.08940330E-05   3.51866070E+00   9.26841780E+02   6.55060543E+00  -1.93789543E-06   0.00000000E+00   0.00000000E+00   0.00000000E+00   1.51383649E+04   7.11043987E+00
   4.37500000E+01   5.00000000E-01   5.00000000E-01  -4.46255637E+04   3.03733253E+03   0.00000000E+00   9.15812658E+03   1.71561177E+03   6.22001741E+03   7.34541570E+01   1.92714462E+00   2.16216053E+00   0.00000000E+00   0.00000000E+00   2.06633368E+01   6.94983267E+01   2.44618232E+00   7.03729936E+00   0.00000000E+00   8.14927513E+00   1.36842935E-05   3.51866070E+00   9.29999422E+02   6.53548942E+00  -1.93789543E-06   0.00000000E+00   0.00000000E+00   0.00000000E+00   1.51461889E+04   7.11044033E+00
   6.12500000E+01   5.00000000E-01   5.00000000E-01  -4.46199339E+04   3.03733253E+03   0.00000000E+00   9.15248814E+03   1.71573984E+03   6.22023345E+03   7.34541570E+01   1.92073163E+00   2.16216053E+00   0.00000000E+00   0.00000000E+00   2.06633368E+01   6.94983291E+01   2.44618232E+00   7.03729936E+00   0.00000000E+00   8.14927490E+00   1.56054411E-05   3.51866070E+00   9.34958306E+02   6.52907642E+00  -1.93789543E-06   0.00000000E+00   0.00000000E+00   0.00000000E+00   1.51600007E+04   7.11044090E+00
   7.87500000E+01   5.00000000E-01   5.00000000E-01  -4.46169204E+04   3.03733253E+03   0.00000000E+00   9.14763836E+03   1.71590458E+03   6.22047349E+03   7.34541570E+01   1.91782168E+00   2.16216053E+00   0.00000000E+00   0.00000000E+00   2.06633368E+01   6.94983337E+01   2.44618232E+00   7.03729936E+00   0.00000000E+00   8.14927469E+00   1.76955444E-05   3.51866070E+00   9.40834747E+02   6.52616647E+00  -1.93789543E-06   0.00000000E+00   0.00000000E+00   0.00000000E+00   1.51780194E+04   7.11044151E+00
   9.62500000E+01   5.00000000E-01   5.00000000E-01  -4.46153432E+04   3.03733253E+03   0.00000000E+00   9.14347826E+03   1.71611529E+03   6.22074199E+03   7.34541570E+01   1.91639040E+00   2.16216053E+00   0.00000000E+00   0.00000000E+00   2.06633368E+01   6.94983396E+01   2.44618232E+00   7.03729936E+00   0.00000000E+00   8.14927449E+00   1.98678458E-05   3.51866070E+00   9.46619279E+02   6.52473519E+00  -1.93789543E-06   0.00000000E+00   0.00000000E+00   0.00000000E+00   1.51964066E+04   7.11044209E+00
   1.13750000E+02   5.00000000E-01   5.00000000E-01  -4.46144139E+04   3.03733253E+03   0.00000000E+00   9.13998822E+03   1.71635825E+03   6.22103729E+03   7.34541570E+01   1.91561000E+00   2.16216053E+00   0.00000000E+00   0.00000000E+00   2.06633368E+01   6.94983467E+01   2.44618232E+00   7.03729936E+00   0.00000000E+00   8.14927431E+00   2.17794697E-05   3.51866070E+00   9.51593566E+02   6.52395480E+00  -1.93789543E-06   0.00000000E+00   0.00000000E+00   0.00000000E+00   1.52124378E+04   7.11044263E+00
   1.31250000E+02   5.00000000E-01   5.00000000E-01  -4.46139201E+04   3.03733253E+03   0.00000000E+00   9.13722502E+03   1.71661622E+03   6.22135617E+03   7.34541570E+01   1.91512740E+00   2.16216053E+00   0.00000000E+00   0.00000000E+00   2.06633368E+01   6.94983545E+01   2.44618232E+00   7.03729936E+00   0.00000000E+00   8.14927415E+00   2.31771234E-05   3.51866070E+00   9.55472441E+02   6.52347220E+00  -1.93789543E-06   0.00000000E+00   0.00000000E+00   0.00000000E+00   1.52250670E+04   7.11044311E+00
   1.48750000E+02   5.00000000E-01   5.00000000E-01  -4.46137989E+04   3.03733253E+03   0.00000000E+00   9.13515739E+03   1.71687597E+03   6.22169577E+03   7.34541570E+01   1.91478616E+00   2.16216053E+00   0.00000000E+00   0.00000000E+00   2.06633368E+01   6.94983631E+01   2.44618232E+00   7.03729936E+00   0.00000000E+00   8.14927399E+00   2.39667564E-05   3.51866070E+00   9.58287824E+02   6.52313095E+00  -1.93789543E-06   0.00000000E+00   0.00000000E+00   0.00000000E+00   1.52343606E+04   7.11044352E+00
   1.66250000E+02   5.00000000E-01   5.00000000E-01  -4.46139978E+04   3.03733253E+03   0.00000000E+00   9.13368165E+03   1.71712889E+03   6.22205377E+03   7.34541570E+01   1.91451452E+00   2.16216053E+00   0.00000000E+00   0.00000000E+00   2.06633368E+01   6.94983722E+01   2.44618232E+00   7.03729936E+00   0.00000000E+00   8.14927385E+00   2.41741922E-05   3.51866070E+00   9.60216304E+02   6.52285931E+00  -1.93789543E-06   0.00000000E+00   0.00000000E+00   0.00000000E+00   1.52408690E+04   7.11044387E+00
   1.83750000E+02   5.00000000E-01   5.00000000E-01  -4.46144623E+04   3.03733253E+03   0.00000000E+00   9.13267549E+03   1.71736938E+03   6.22242809E+03   7.34541570E+01   1.91427854E+00   2.16216053E+00   0.00000000E+00   0.00000000E+00   2.06633368E+01   6.94983818E+01   2.44618232E+00   7.03729936E+00   0.00000000E+00   8.14927372E+00   2.38880234E-05   3.51866070E+00   9.61463543E+02   6.52262333E+00  -1.93789543E-06   0.00000000E+00   0.00000000E+00   0.00000000E+00   1.52452398E+04   7.11044414E+00
   2.01250000E+02   5.00000000E-01   5.00000000E-01  -4.46151424E+04   3.03733253E+03   0.00000000E+00   9.13202882E+03   1.71759379E+03   6.22281672E+03   7.34541570E+01   1.91406171E+00   2.16216053E+00   0.00000000E+00   0.00000000E+00   2.06633368E+01   6.94983919E+01   2.44618232E+00   7.03729936E+00   0.00000000E+00   8.14927360E+00   2.32186025E-05   3.51866070E+00   9.62210891E+02   6.52240650E+00  -1.93789543E-06   0.00000000E+00   0.00000000E+00   0.00000000E+00   1.52480442E+04   7.11044434E+00
   2.18750000E+02   5.00000000E-01   5.00000000E-01  -4.46159959E+04   3.03733253E+03   0.00000000E+00   9.13165395E+03   1.71779980E+03   6.22321773E+03   7.34541570E+01   1.91385582E+00   2.16216053E+00   0.00000000E+00   0.00000000E+00   2.06633368E+01   6.94984023E+01   2.44618232E+00   7.03729936E+00   0.00000000E+00   8.14927348E+00   2.22748172E-05   3.51866069E+00   9.62600054E+02   6.52220061E+00  -1.93789543E-06   0.00000000E+00   0.00000000E+00   0.00000000E+00   1.52497278E+04   7.11044447E+00
   2.36250000E+02   5.00000000E-01   5.00000000E-01  -4.46169890E+04   3.03733253E+03   0.00000000E+00   9.13148511E+03   1.71798616E+03   6.22362928E+03   7.34541570E+01   1.91365671E+00   2.16216053E+00   0.00000000E+00   0.00000000E+00   2.06633368E+01   6.94984129E+01   2.44618232E+00   7.03729936E+00   0.00000000E+00   8.14927338E+00   2.11526948E-05   3.51866069E+00   9.62734970E+02   6.52200150E+00  -1.93789543E-06   0.00000000E+00   0.00000000E+00   0.00000000E+00   1.52506167E+04   7.11044453E+00
   2.53750000E+02   5.00000000E-01   5.00000000E-01  -4.46180951E+04   3.03733253E+03   0.00000000E+00   9.13147428E+03   1.71815254E+03   6.22404966E+03   7.34541570E+01   1.91346227E+00   2.16216053E+00   0.00000000E+00   0.00000000E+00   2.06633368E+01   6.94984239E+01   2.44618232E+00   7.03729936E+00   0.00000000E+00   8.14927328E+00   1.99309696E-05   3.51866069E+00   9.62689199E+02   6.52180706E+00  -1.93789543E-06   0.00000000E+00   0.00000000E+00   0.00000000E+00   1.52509413E+04   7.11044452E+00
   2.71250000E+02   5.00000000E-01   5.00000000E-01  -4.46192935E+04   3.03733253E+03   0.00000000E+00   9.13158669E+03   1.71829935E+03   6.22447739E+03   7.34541570E+01   1.91327143E+00   2.16216053E+00   0.00000000E+00   0.00000000E+00   2.06633368E+01   6.94984351E+01   2.44618232E+00   7.03729936E+00   0.00000000E+00   8.14927319E+00   1.86705716E-05   3.51866069E+00   9.62513713E+02   6.52161622E+00  -1.93789543E-06   0.00000000E+00   0.00000000E+00   0.00000000E+00   1.52508609E+04   7.11044444E+00
   2.88750000E+02   5.00000000E-01   5.00000000E-01  -4.46205677E+04   3.03733253E+03   0.00000000E+00   9.13179688E+03   1.71842763E+03   6.22491116E+03   7.34541570E+01   1.91308369E+00   2.16216053E+00   0.00000000E+00   0.00000000E+00   2.06633368E+01   6.94984466E+01   2.44618232E+00   7.03729936E+00   0.00000000E+00   8.14927311E+00   1.74161870E-05   3.51866069E+00   9.62243378E+02   6.52142848E+00  -1.93789543E-06   0.00000000E+00   0.00000000E+00   0.00000000E+00   1.52504839E+04   7.11044431E+00
   3.06250000E+02   5.00000000E-01   5.00000000E-01  -4.46219041E+04   3.03733253E+03   0.00000000E+00   9.13208590E+03   1.71853884E+03   6.22534988E+03   7.34541570E+01   1.91289883E+00   2.16216053E+00   0.00000000E+00   0.00000000E+00   2.06633368E+01   6.94984583E+01   2.44618232E+00   7.03729936E+00   0.00000000E+00   8.14927303E+00   1.61987567E-05   3.51866069E+00   9.61901859E+02   6.52124362E+00  -1.93789543E-06   0.00000000E+00   0.00000000E+00   0.00000000E+00   1.52498838E+04   7.11044411E+00
   3.23750000E+02   5.00000000E-01   5.00000000E-01  -4.46232913E+04   3.03733253E+03   0.00000000E+00   9.13243918E+03   1.71863472E+03   6.22579266E+03   7.34541570E+01   1.91271678E+00   2.16216053E+00   0.00000000E+00   0.00000000E+00   2.06633368E+01   6.94984702E+01   2.44618232E+00   7.03729936E+00   0.00000000E+00   8.14927296E+00   1.50382286E-05   3.51866069E+00   9.61505174E+02   6.52106157E+00  -1.93789543E-06   0.00000000E+00   0.00000000E+00   0.00000000E+00   1.52491102E+04   7.11044386E+00
   3.41250000E+02   5.00000000E-01   5.00000000E-01  -4.46247197E+04   3.03733253E+03   0.00000000E+00   9.13284523E+03   1.71871716E+03   6.22623879E+03   7.34541570E+01   1.91253757E+00   2.16216053E+00   0.00000000E+00   0.00000000E+00   2.06633368E+01   6.94984823E+01   2.44618232E+00   7.03729936E+00   0.00000000E+00   8.14927289E+00   1.39461779E-05   3.51866069E+00   9.61064235E+02   6.52088236E+00  -1.93789543E-06   0.00000000E+00   0.00000000E+00   0.00000000E+00   1.52481963E+04   7.11044355E+00
   3.58750000E+02   5.00000000E-01   5.00000000E-01  -4.46261806E+04   3.03733253E+03   0.00000000E+00   9.13329466E+03   1.71878803E+03   6.22668772E+03   7.34541570E+01   1.91236128E+00   2.16216053E+00   0.00000000E+00   0.00000000E+00   2.06633368E+01   6.94984946E+01   2.44618232E+00   7.03729936E+00   0.00000000E+00   8.14927283E+00   1.29281022E-05   3.51866069E+00   9.60586658E+02   6.52070607E+00  -1.93789543E-06   0.00000000E+00   0.00000000E+00   0.00000000E+00   1.52471654E+04   7.11044320E+00
   3.76250000E+02   5.00000000E-01   5.00000000E-01  -4.46276667E+04   3.03733253E+03   0.00000000E+00   9.13377963E+03   1.71884911E+03   6.22713902E+03   7.34541570E+01   1.91218798E+00   2.16216053E+00   0.00000000E+00   0.00000000E+00   2.06633368E+01   6.94985072E+01   2.44618232E+00   7.03729935E+00   0.00000000E+00   8.14927277E+00   1.19853080E-05   3.51866069E+00   9.60078039E+02   6.52053277E+00  -1.93789543E-06   0.00000000E+00   0.00000000E+00   0.00000000E+00   1.52460341E+04   7.11044280E+00
   3.93750000E+02   5.00000000E-01   5.00000000E-01  -4.46291715E+04   3.03733253E+03   0.00000000E+00   9.13429339E+03   1.71890200E+03   6.22759238E+03   7.34541570E+01   1.91201780E+00   2.16216053E+00   0.00000000E+00   0.00000000E+00   2.06633368E+01   6.94985200E+01   2.44618232E+00   7.03729935E+00   0.00000000E+00   8.14927272E+00   1.11163740E-05   3.51866069E+00   9.59542818E+02   6.52036259E+00  -1.93789543E-06   0.00000000E+00   0.00000000E+00   0.00000000E+00   1.52448159E+04   7.11044235E+00
   4.11250000E+02   5.00000000E-01   5.00000000E-01  -4.46306891E+04   3.03733253E+03   0.00000000E+00   9.13482993E+03   1.71894811E+03   6.22804754E+03   7.34541570E+01   1.91185082E+00   2.16216053E+00   0.00000000E+00   0.00000000E+00   2.06633368E+01   6.94985331E+01   2.44618232E+00   7.03729935E+00   0.00000000E+00   8.14927267E+00   1.03182113E-05   3.51866069E+00   9.58984793E+02   6.52019562E+00  -1.93789543E-06   0.00000000E+00   0.00000000E+00   0.00000000E+00   1.52435217E+04   7.11044187E+00
   4.28750000E+02   5.00000000E-01   5.00000000E-01  -4.46322138E+04   3.03733253E+03   0.00000000E+00   9.13538367E+03   1.71898864E+03   6.22850431E+03   7.34541570E+01   1.91168717E+00   2.16216053E+00   0.00000000E+00   0.00000000E+00   2.06633368E+01   6.94985464E+01   2.44618232E+00   7.03729935E+00   0.00000000E+00   8.14927262E+00   9.58677976E-06   3.51866069E+00   9.58407362E+02   6.52003196E+00  -1.93789543E-06   0.00000000E+00   0.00000000E+00   0.00000000E+00   1.52421613E+04   7.11044136E+00
   4.46250000E+02   5.00000000E-01   5.00000000E-01  -4.46337396E+04   3.03733253E+03   0.00000000E+00   9.13594926E+03   1.71902466E+03   6.22896249E+03   7.34541570E+01   1.91152694E+00   2.16216053E+00   0.00000000E+00   0.00000000E+00   2.06633368E+01   6.94985600E+01   2.44618232E+00   7.03729935E+00   0.00000000E+00   8.14927258E+00   8.91753957E-06   3.51866069E+00   9.57813583E+02   6.51987174E+00  -1.93789543E-06   0.00000000E+00   0.00000000E+00   0.00000000E+00   1.52407432E+04   7.11044081E+00
   4.63750000E+02   5.00000000E-01   5.00000000E-01  -4.46352601E+04   3.03733253E+03   0.00000000E+00   9.13652140E+03   1.71905710E+03   6.22942185E+03   7.34541570E+01   1.91137024E+00   2.16216053E+00   0.00000000E+00   0.00000000E+00   2.06633368E+01   6.94985739E+01   2.44618232E+00   7.03729935E+00   0.00000000E+00   8.14927254E+00   8.30573054E-06   3.51866069E+00   9.57206150E+02   6.51971503E+00  -1.93789543E-06   0.00000000E+00   0.00000000E+00   0.00000000E+00   1.52392743E+04   7.11044024E+00
   4.81250000E+02   5.00000000E-01   5.00000000E-01  -4.46367681E+04   3.03733253E+03   0.00000000E+00   9.13709483E+03   1.71908677E+03   6.22988213E+03   7.34541570E+01   1.91121716E+00   2.16216053E+00   0.00000000E+00   0.00000000E+00   2.06633368E+01   6.94985881E+01   2.44618232E+00   7.03729935E+00   0.00000000E+00   8.14927250E+00   7.74655599E-06   3.51866069E+00   9.56587396E+02   6.51956195E+00  -1.93789543E-06   0.00000000E+00   0.00000000E+00   0.00000000E+00   1.52377597E+04   7.11043964E+00
   4.98750000E+02   5.00000000E-01   5.00000000E-01  -4.46382564E+04   3.03733253E+03   0.00000000E+00   9.13766443E+03   1.71911439E+03   6.23034304E+03   7.34541570E+01   1.91106778E+00   2.16216053E+00   0.00000000E+00   0.00000000E+00   2.06633368E+01   6.94986026E+01   2.44618232E+00   7.03729935E+00   0.00000000E+00   8.14927247E+00   7.23532289E-06   3.51866069E+00   9.55959342E+02   6.51941258E+00  -1.93789543E-06   0.00000000E+00   0.00000000E+00   0.00000000E+00   1.52362037E+04   7.11043902E+00
   5.16250000E+02   5.00000000E-01   5.00000000E-01  -4.46397172E+04   3.03733253E+03   0.00000000E+00   9.13822526E+03   1.71914052E+03   6.23080423E+03   7.34541570E+01   1.91092221E+00   2.16216053E+00   0.00000000E+00   0.00000000E+00   2.06633368E+01   6.94986175E+01   2.44618232E+00   7.03729935E+00   0.00000000E+00   8.14927244E+00   6.76755984E-06   3.51866069E+00   9.55323809E+02   6.51926700E+00  -1.93789543E-06   0.00000000E+00   0.00000000E+00   0.00000000E+00   1.52346094E+04   7.11043838E+00
   5.33750000E+02   5.00000000E-01   5.00000000E-01  -4.46411432E+04   3.03733253E+03   0.00000000E+00   9.13877276E+03   1.71916556E+03   6.23126534E+03   7.34541570E+01   1.91078051E+00   2.16216053E+00   0.00000000E+00   0.00000000E+00   2.06633368E+01   6.94986326E+01   2.44618232E+00   7.03729935E+00   0.00000000E+00   8.14927241E+00   6.33911281E-06   3.51866069E+00   9.54682546E+02   6.51912531E+00  -1.93789543E-06   0.00000000E+00   0.00000000E+00   0.00000000E+00   1.52329799E+04   7.11043772E+00
   5.51250000E+02   5.00000000E-01   5.00000000E-01  -4.46425274E+04   3.03733253E+03   0.00000000E+00   9.13930265E+03   1.71918973E+03   6.23172598E+03   7.34541570E+01   1.91064277E+00   2.16216053E+00   0.00000000E+00   0.00000000E+00   2.06633368E+01   6.94986481E+01   2.44618232E+00   7.03729935E+00   0.00000000E+00   8.14927239E+00   5.94620798E-06   3.51866069E+00   9.54037316E+02   6.51898757E+00  -1.93789543E-06   0.00000000E+00   0.00000000E+00   0.00000000E+00   1.52313180E+04   7.11043705E+00
   5.68750000E+02   5.00000000E-01   5.00000000E-01  -4.46438630E+04   3.03733253E+03   0.00000000E+00   9.13981100E+03   1.71921307E+03   6.23218574E+03   7.34541570E+01   1.91050906E+00   2.16216053E+00   0.00000000E+00   0.00000000E+00   2.06633368E+01   6.94986640E+01   2.44618232E+00   7.03729935E+00   0.00000000E+00   8.14927237E+00   5.58547308E-06   3.51866069E+00   9.53389923E+02   6.51885386E+00  -1.93789543E-06   0.00000000E+00   0.00000000E+00   0.00000000E+00   1.52296268E+04   7.11043637E+00
   5.86250000E+02   5.00000000E-01   5.00000000E-01  -4.46451431E+04   3.03733252E+03   0.00000000E+00   9.14029403E+03   1.71923553E+03   6.23264421E+03   7.34541570E+01   1.91037945E+00   2.16216053E+00   0.00000000E+00   0.00000000E+00   2.06633368E+01   6.94986802E+01   2.44618232E+00   7.03729935E+00   0.00000000E+00   8.14927235E+00   5.25391732E-06   3.51866069E+00   9.52742154E+02   6.51872424E+00  -1.93789543E-06   0.00000000E+00   0.00000000E+00   0.00000000E+00   1.52279094E+04   7.11043568E+00
   6.03750000E+02   5.00000000E-01   5.00000000E-01  -4.46463610E+04   3.03733252E+03   0.00000000E+00   9.14074805E+03   1.71925699E+03   6.23310090E+03   7.34541570E+01   1.91025400E+00   2.16216054E+00   0.00000000E+00   0.00000000E+00   2.06633368E+01   6.94986968E+01   2.44618232E+00   7.03729935E+00   0.00000000E+00   8.14927233E+00   4.94888152E-06   3.51866069E+00   9.52095679E+02   6.51859880E+00  -1.93789543E-06   0.00000000E+00   0.00000000E+00   0.00000000E+00   1.52261683E+04   7.11043499E+00
   6.21250000E+02   5.00000000E-01   5.00000000E-01  -4.46475096E+04   3.03733252E+03   0.00000000E+00   9.14116945E+03   1.71927733E+03   6.23355528E+03   7.34541570E+01   1.91013277E+00   2.16216054E+00   0.00000000E+00   0.00000000E+00   2.06633368E+01   6.94987138E+01   2.44618232E+00   7.03729935E+00   0.00000000E+00   8.14927232E+00   4.66797626E-06   3.51866069E+00   9.51451941E+02   6.51847757E+00  -1.93789543E-06   0.00000000E+00   0.00000000E+00   0.00000000E+00   1.52244051E+04   7.11043429E+00
   6.38750000E+02   5.00000000E-01   5.00000000E-01  -4.46485814E+04   3.03733252E+03   0.00000000E+00   9.14155468E+03   1.71929647E+03   6.23400674E+03   7.34541570E+01   1.91001582E+00   2.16216054E+00   0.00000000E+00   0.00000000E+00   2.06633368E+01   6.94987311E+01   2.44618232E+00   7.03729935E+00   0.00000000E+00   8.14927230E+00   4.40902567E-06   3.51866069E+00   9.50812099E+02   6.51836063E+00  -1.93789543E-06   0.00000000E+00   0.00000000E+00   0.00000000E+00   1.52226205E+04   7.11043358E+00
   6.56250000E+02   5.00000000E-01   5.00000000E-01  -4.46495692E+04   3.03733252E+03   0.00000000E+00   9.14190040E+03   1.71931436E+03   6.23445456E+03   7.34541570E+01   1.90990321E+00   2.16216054E+00   0.00000000E+00   0.00000000E+00   2.06633368E+01   6.94987488E+01   2.44618232E+00   7.03729934E+00   0.00000000E+00   8.14927229E+00   4.17002828E-06   3.51866069E+00   9.50177015E+02   6.51824802E+00  -1.93789543E-06   0.00000000E+00   0.00000000E+00   0.00000000E+00   1.52208143E+04   7.11043288E+00
   6.73750000E+02   5.00000000E-01   5.00000000E-01  -4.46504661E+04   3.03733252E+03   0.00000000E+00   9.14220363E+03   1.71933095E+03   6.23489798E+03   7.34541570E+01   1.90979497E+00   2.16216054E+00   0.00000000E+00   0.00000000E+00   2.06633368E+01   6.94987670E+01   2.44618232E+00   7.03729934E+00   0.00000000E+00   8.14927228E+00   3.94913881E-06   3.51866069E+00   9.49547314E+02   6.51813980E+00  -1.93789543E-06   0.00000000E+00   0.00000000E+00   0.00000000E+00   1.52189857E+04   7.11043217E+00
   6.91250000E+02   5.00000000E-01   5.00000000E-01  -4.46512655E+04   3.03733252E+03   0.00000000E+00   9.14246184E+03   1.71934617E+03   6.23533620E+03   7.34541570E+01   1.90969116E+00   2.16216054E+00   0.00000000E+00   0.00000000E+00   2.06633368E+01   6.94987855E+01   2.44618232E+00   7.03729934E+00   0.00000000E+00   8.14927227E+00   3.74466735E-06   3.51866069E+00   9.48923474E+02   6.51803600E+00  -1.93789543E-06   0.00000000E+00   0.00000000E+00   0.00000000E+00   1.52171338E+04   7.11043147E+00
   7.08750000E+02   5.00000000E-01   5.00000000E-01  -4.46519622E+04   3.03733252E+03   0.00000000E+00   9.14267303E+03   1.71935986E+03   6.23576842E+03   7.34541570E+01   1.90959181E+00   2.16216054E+00   0.00000000E+00   0.00000000E+00   2.06633368E+01   6.94988045E+01   2.44618232E+00   7.03729934E+00   0.00000000E+00   8.14927227E+00   3.55508849E-06   3.51866069E+00   9.48305925E+02   6.51793667E+00  -1.93789543E-06   0.00000000E+00   0.00000000E+00   0.00000000E+00   1.52152576E+04   7.11043077E+00
   7.26250000E+02   5.00000000E-01   5.00000000E-01  -4.46525516E+04   3.03733252E+03   0.00000000E+00   9.14283574E+03   1.71937172E+03   6.23619393E+03   7.34541570E+01   1.90949696E+00   2.16216054E+00   0.00000000E+00   0.00000000E+00   2.06633368E+01   6.94988238E+01   2.44618232E+00   7.03729934E+00   0.00000000E+00   8.14927226E+00   3.37905088E-06   3.51866069E+00   9.47695110E+02   6.51784185E+00  -1.93789543E-06   0.00000000E+00   0.00000000E+00   0.00000000E+00   1.52133567E+04   7.11043007E+00
   7.43750000E+02   5.00000000E-01   5.00000000E-01  -4.46530301E+04   3.03733252E+03   0.00000000E+00   9.14294891E+03   1.71938139E+03   6.23661213E+03   7.34541570E+01   1.90940664E+00   2.16216054E+00   0.00000000E+00   0.00000000E+00   2.06633368E+01   6.94988436E+01   2.44618232E+00   7.03729934E+00   0.00000000E+00   8.14927226E+00   3.21537905E-06   3.51866069E+00   9.47091500E+02   6.51775158E+00  -1.93789543E-06   0.00000000E+00   0.00000000E+00   0.00000000E+00   1.52114308E+04   7.11042938E+00
   7.61250000E+02   5.00000000E-01   5.00000000E-01  -4.46533947E+04   3.03733252E+03   0.00000000E+00   9.14301175E+03   1.71938840E+03   6.23702255E+03   7.34541570E+01   1.90932087E+00   2.16216054E+00   0.00000000E+00   0.00000000E+00   2.06633368E+01   6.94988638E+01   2.44618232E+00   7.03729934E+00   0.00000000E+00   8.14927226E+00   3.06306314E-06   3.51866069E+00   9.46495546E+02   6.51766588E+00  -1.93789543E-06   0.00000000E+00   0.00000000E+00   0.00000000E+00   1.52094800E+04   7.11042870E+00
   7.78750000E+02   5.00000000E-01   5.00000000E-01  -4.46536431E+04   3.03733252E+03   0.00000000E+00   9.14302364E+03   1.71939231E+03   6.23742486E+03   7.34541570E+01   1.90923968E+00   2.16216054E+00   0.00000000E+00   0.00000000E+00   2.06633368E+01   6.94988845E+01   2.44618232E+00   7.03729934E+00   0.00000000E+00   8.14927226E+00   2.92123693E-06   3.51866069E+00   9.45907597E+02   6.51758480E+00  -1.93789543E-06   0.00000000E+00   0.00000000E+00   0.00000000E+00   1.52075039E+04   7.11042802E+00
   7.96250000E+02   5.00000000E-01   5.00000000E-01  -4.46537731E+04   3.03733252E+03   0.00000000E+00   9.14298411E+03   1.71939272E+03   6.23781888E+03   7.34541570E+01   1.90916307E+00   2.16216054E+00   0.00000000E+00   0.00000000E+00   2.06633368E+01   6.94989056E+01   2.44618232E+00   7.03729934E+00   0.00000000E+00   8.14927226E+00   2.78914867E-06   3.51866068E+00   9.45327826E+02   6.51750837E+00  -1.93789543E-06   0.00000000E+00   0.00000000E+00   0.00000000E+00   1.52055022E+04   7.11042735E+00
   8.13750000E+02   5.00000000E-01   5.00000000E-01  -4.46537836E+04   3.03733252E+03   0.00000000E+00   9.14289284E+03   1.71938935E+03   6.23820454E+03   7.34541570E+01   1.90909108E+00   2.16216054E+00   0.00000000E+00   0.00000000E+00   2.06633368E+01   6.94989271E+01   2.44618232E+00   7.03729934E+00   0.00000000E+00   8.14927226E+00   2.66613082E-06   3.51866068E+00   9.44756185E+02   6.51743665E+00  -1.93789543E-06   0.00000000E+00   0.00000000E+00   0.00000000E+00   1.52034736E+04   7.11042669E+00
   8.31250000E+02   5.00000000E-01   5.00000000E-01  -4.46536740E+04   3.03733252E+03   0.00000000E+00   9.14274990E+03   1.71938205E+03   6.23858184E+03   7.34541570E+01   1.90902369E+00   2.16216054E+00   0.00000000E+00   0.00000000E+00   2.06633368E+01   6.94989492E+01   2.44618232E+00   7.03729934E+00   0.00000000E+00   8.14927227E+00   2.55157413E-06   3.51866068E+00   9.44192424E+02   6.51736971E+00  -1.93789543E-06   0.00000000E+00   0.00000000E+00   0.00000000E+00   1.52014172E+04   7.11042605E+00
   8.48750000E+02   5.00000000E-01   5.00000000E-01  -4.46534452E+04   3.03733252E+03   0.00000000E+00   9.14255586E+03   1.71937081E+03   6.23895081E+03   7.34541570E+01   1.90896092E+00   2.16216054E+00   0.00000000E+00   0.00000000E+00   2.06633368E+01   6.94989717E+01   2.44618232E+00   7.03729934E+00   0.00000000E+00   8.14927228E+00   2.44490851E-06   3.51866068E+00   9.43636163E+02   6.51730764E+00  -1.93789543E-06   0.00000000E+00   0.00000000E+00   0.00000000E+00   1.51993320E+04   7.11042541E+00
   8.66250000E+02   5.00000000E-01   5.00000000E-01  -4.46530996E+04   3.03733252E+03   0.00000000E+00   9.14231207E+03   1.71935571E+03   6.23931148E+03   7.34541570E+01   1.90890276E+00   2.16216054E+00   0.00000000E+00   0.00000000E+00   2.06633368E+01   6.94989948E+01   2.44618232E+00   7.03729934E+00   0.00000000E+00   8.14927228E+00   2.34559141E-06   3.51866068E+00   9.43087013E+02   6.51725062E+00  -1.93789543E-06   0.00000000E+00   0.00000000E+00   0.00000000E+00   1.51972179E+04   7.11042478E+00
   8.83750000E+02   5.00000000E-01   5.00000000E-01  -4.46526416E+04   3.03733252E+03   0.00000000E+00   9.14202069E+03   1.71933692E+03   6.23966379E+03   7.34541570E+01   1.90884920E+00   2.16216054E+00   0.00000000E+00   0.00000000E+00   2.06633368E+01   6.94990183E+01   2.44618232E+00   7.03729934E+00   0.00000000E+00   8.14927229E+00   2.25310191E-06   3.51866068E+00   9.42544693E+02   6.51719891E+00  -1.93789543E-06   0.00000000E+00   0.00000000E+00   0.00000000E+00   1.51950760E+04   7.11042417E+00
   9.01250000E+02   5.00000000E-01   5.00000000E-01  -4.46520772E+04   3.03733252E+03   0.00000000E+00   9.14168476E+03   1.71931464E+03   6.24000755E+03   7.34541570E+01   1.90880023E+00   2.16216054E+00   0.00000000E+00   0.00000000E+00   2.06633368E+01   6.94990425E+01   2.44618232E+00   7.03729934E+00   0.00000000E+00   8.14927230E+00   2.16693898E-06   3.51866068E+00   9.42009141E+02   6.51715298E+00  -1.93789543E-06   0.00000000E+00   0.00000000E+00   0.00000000E+00   1.51929091E+04   7.11042357E+00
   9.18750000E+02   5.00000000E-01   5.00000000E-01  -4.46514139E+04   3.03733252E+03   0.00000000E+00   9.14130809E+03   1.71928910E+03   6.24034237E+03   7.34541570E+01   1.90875585E+00   2.16216054E+00   0.00000000E+00   0.00000000E+00   2.06633368E+01   6.94990672E+01   2.44618232E+00   7.03729934E+00   0.00000000E+00   8.14927232E+00   2.08662198E-06   3.51866068E+00   9.41480585E+02   6.51711362E+00  -1.93789543E-06   0.00000000E+00   0.00000000E+00   0.00000000E+00   1.51907217E+04   7.11042298E+00
   9.36250000E+02   5.00000000E-01   5.00000000E-01  -4.46506604E+04   3.03733252E+03   0.00000000E+00   9.14089514E+03   1.71926053E+03   6.24066763E+03   7.34541570E+01   1.90871603E+00   2.16216054E+00   0.00000000E+00   0.00000000E+00   2.06633368E+01   6.94990925E+01   2.44618232E+00   7.03729933E+00   0.00000000E+00   8.14927233E+00   2.01169241E-06   3.51866068E+00   9.40959568E+02   6.51708220E+00  -1.93789543E-06   0.00000000E+00   0.00000000E+00   0.00000000E+00   1.51885199E+04   7.11042241E+00
   9.53750000E+02   5.00000000E-01   5.00000000E-01  -4.46498259E+04   3.03733252E+03   0.00000000E+00   9.14045082E+03   1.71922913E+03   6.24098242E+03   7.34541570E+01   1.90868076E+00   2.16216055E+00   0.00000000E+00   0.00000000E+00   2.06633368E+01   6.94991184E+01   2.44618232E+00   7.03729933E+00   0.00000000E+00   8.14927234E+00   1.94171613E-06   3.51866068E+00   9.40446945E+02   6.51706108E+00  -1.93789543E-06   0.00000000E+00   0.00000000E+00   0.00000000E+00   1.51863111E+04   7.11042185E+00
   9.71250000E+02   5.00000000E-01   5.00000000E-01  -4.46489199E+04   3.03733252E+03   0.00000000E+00   9.13998027E+03   1.71919510E+03   6.24128554E+03   7.34541570E+01   1.90865001E+00   2.16216055E+00   0.00000000E+00   0.00000000E+00   2.06633368E+01   6.94991449E+01   2.44618232E+00   7.03729933E+00   0.00000000E+00   8.14927236E+00   1.87628574E-06   3.51866068E+00   9.39943831E+02   6.51705443E+00  -1.93789543E-06   0.00000000E+00   0.00000000E+00   0.00000000E+00   1.51841038E+04   7.11042131E+00
   9.88750000E+02   5.00000000E-01   5.00000000E-01  -4.46479516E+04   3.03733252E+03   0.00000000E+00   9.13948872E+03   1.71915863E+03   6.24157556E+03   7.34541570E+01   1.90862376E+00   2.16216055E+00   0.00000000E+00   0.00000000E+00   2.06633368E+01   6.94991719E+01   2.44618232E+00   7.03729933E+00   0.00000000E+00   8.14927238E+00   1.81502283E-06   3.51866068E+00   9.39451546E+02   6.51706960E+00  -1.93789543E-06   0.00000000E+00   0.00000000E+00   0.00000000E+00   1.51819072E+04   7.11042078E+00