 TITLE = "Total Component Concentration in Minerals" 
VARIABLES = "X"          "Y"              "Z"            "H+"             "Al+++"          "CO2(aq)"        "Mg++"           "Ca++"           "Fe++"           "Fe+++"          "Ba++"           "Sr++"           "Cl-"            "F-"             "K+"             "HS-"            "Na+"            "SO4--"          "O2(aq)"         "B(OH)3(aq)"     "HPO4--"         "NO3-"           "H4SiO4(aq)"    
 ZONE I=         200 , J=           1 , K=           1  F=POINT
   8.75000000E+00   5.00000000E-01   5.00000000E-01  -4.43396672E+04   3.02039247E+03   0.00000000E+00   9.11047021E+03   1.73058066E+03   6.22611235E+03   7.19372819E+01   0.00000000E+00   0.00000000E+00   0.00000000E+00   0.00000000E+00   2.42034939E-01   1.11296939E-05   9.28109451E+02   1.96092443E-06  -1.96092443E-06   0.00000000E+00   0.00000000E+00   0.00000000E+00   1.51186783E+04
   2.62500000E+01   5.00000000E-01   5.00000000E-01  -4.43699669E+04   3.02036900E+03   0.00000000E+00   9.12356566E+03   1.73081828E+03   6.22629138E+03   7.19372818E+01   0.00000000E+00   0.00000000E+00   0.00000000E+00   0.00000000E+00   2.25594280E+00   1.11296976E-05   9.29441480E+02   1.96092443E-06  -1.96092443E-06   0.00000000E+00   0.00000000E+00   0.00000000E+00   1.51433963E+04
   4.37500000E+01   5.00000000E-01   5.00000000E-01  -4.43674223E+04   3.02036900E+03   0.00000000E+00   9.11992079E+03   1.73092959E+03   6.22643522E+03   7.19372818E+01   0.00000000E+00   0.00000000E+00   0.00000000E+00   0.00000000E+00   2.85393687E+00   1.11296990E-05   9.33078326E+02   1.96092443E-06  -1.96092443E-06   0.00000000E+00   0.00000000E+00   0.00000000E+00   1.51562198E+04
   6.12500000E+01   5.00000000E-01   5.00000000E-01  -4.43596958E+04   3.02036900E+03   0.00000000E+00   9.11283232E+03   1.73101836E+03   6.22659097E+03   7.19372818E+01   0.00000000E+00   0.00000000E+00   0.00000000E+00   0.00000000E+00   3.50356162E+00   1.11297002E-05   9.38390109E+02   1.96092443E-06  -1.96092443E-06   0.00000000E+00   0.00000000E+00   0.00000000E+00   1.51723791E+04
   7.87500000E+01   5.00000000E-01   5.00000000E-01  -4.43553649E+04   3.02036900E+03   0.00000000E+00   9.10715306E+03   1.73116753E+03   6.22677461E+03   7.19372818E+01   0.00000000E+00   0.00000000E+00   0.00000000E+00   0.00000000E+00   4.31762989E+00   1.11297012E-05   9.43938043E+02   1.96092443E-06  -1.96092443E-06   0.00000000E+00   0.00000000E+00   0.00000000E+00   1.51914135E+04
   9.62500000E+01   5.00000000E-01   5.00000000E-01  -4.43531359E+04   3.02036900E+03   0.00000000E+00   9.10283568E+03   1.73135478E+03   6.22699121E+03   7.19372818E+01   0.00000000E+00   0.00000000E+00   0.00000000E+00   0.00000000E+00   5.01592088E+00   1.11297020E-05   9.48837789E+02   1.96092443E-06  -1.96092443E-06   0.00000000E+00   0.00000000E+00   0.00000000E+00   1.52088962E+04
   1.13750000E+02   5.00000000E-01   5.00000000E-01  -4.43518163E+04   3.02036900E+03   0.00000000E+00   9.09959204E+03   1.73155712E+03   6.22724139E+03   7.19372818E+01   0.00000000E+00   0.00000000E+00   0.00000000E+00   0.00000000E+00   5.45450561E+00   1.11297027E-05   9.52661818E+02   1.96092443E-06  -1.96092443E-06   0.00000000E+00   0.00000000E+00   0.00000000E+00   1.52223960E+04
   1.31250000E+02   5.00000000E-01   5.00000000E-01  -4.43510168E+04   3.02036900E+03   0.00000000E+00   9.09727128E+03   1.73176087E+03   6.22752637E+03   7.19372818E+01   0.00000000E+00   0.00000000E+00   0.00000000E+00   0.00000000E+00   5.62558453E+00   1.11297033E-05   9.55355399E+02   1.96092443E-06  -1.96092443E-06   0.00000000E+00   0.00000000E+00   0.00000000E+00   1.52315211E+04
   1.48750000E+02   5.00000000E-01   5.00000000E-01  -4.43506003E+04   3.02036900E+03   0.00000000E+00   9.09570375E+03   1.73195895E+03   6.22784893E+03   7.19372818E+01   0.00000000E+00   0.00000000E+00   0.00000000E+00   0.00000000E+00   5.57988363E+00   1.11297038E-05   9.57078333E+02   1.96092443E-06  -1.96092443E-06   0.00000000E+00   0.00000000E+00   0.00000000E+00   1.52368947E+04
   1.66250000E+02   5.00000000E-01   5.00000000E-01  -4.43505413E+04   3.02036900E+03   0.00000000E+00   9.09471902E+03   1.73214743E+03   6.22821108E+03   7.19372818E+01   0.00000000E+00   0.00000000E+00   0.00000000E+00   0.00000000E+00   5.38844229E+00   1.11297043E-05   9.58078931E+02   1.96092443E-06  -1.96092443E-06   0.00000000E+00   0.00000000E+00   0.00000000E+00   1.52395511E+04
   1.83750000E+02   5.00000000E-01   5.00000000E-01  -4.43508371E+04   3.02036900E+03   0.00000000E+00   9.09416027E+03   1.73232388E+03   6.22861163E+03   7.19372818E+01   0.00000000E+00   0.00000000E+00   0.00000000E+00   0.00000000E+00   5.11786169E+00   1.11297046E-05   9.58608848E+02   1.96092443E-06  -1.96092443E-06   0.00000000E+00   0.00000000E+00   0.00000000E+00   1.52405333E+04
   2.01250000E+02   5.00000000E-01   5.00000000E-01  -4.43513522E+04   3.02036900E+03   0.00000000E+00   9.09386201E+03   1.73248985E+03   6.22904946E+03   7.19372818E+01   0.00000000E+00   0.00000000E+00   0.00000000E+00   0.00000000E+00   4.80263923E+00   1.11297048E-05   9.58828083E+02   1.96092443E-06  -1.96092443E-06   0.00000000E+00   0.00000000E+00   0.00000000E+00   1.52404218E+04
   2.18750000E+02   5.00000000E-01   5.00000000E-01  -4.43519806E+04   3.02036900E+03   0.00000000E+00   9.09371316E+03   1.73265066E+03   6.22952411E+03   7.19372818E+01   0.00000000E+00   0.00000000E+00   0.00000000E+00   0.00000000E+00   4.46082035E+00   1.11297049E-05   9.58825102E+02   1.96092443E-06  -1.96092443E-06   0.00000000E+00   0.00000000E+00   0.00000000E+00   1.52395242E+04
   2.36250000E+02   5.00000000E-01   5.00000000E-01  -4.43527597E+04   3.02036900E+03   0.00000000E+00   9.09367830E+03   1.73281139E+03   6.23003029E+03   7.19372818E+01   0.00000000E+00   0.00000000E+00   0.00000000E+00   0.00000000E+00   4.11376907E+00   1.11297048E-05   9.58687186E+02   1.96092443E-06  -1.96092443E-06   0.00000000E+00   0.00000000E+00   0.00000000E+00   1.52382208E+04
   2.53750000E+02   5.00000000E-01   5.00000000E-01  -4.43536103E+04   3.02036900E+03   0.00000000E+00   9.09369696E+03   1.73297665E+03   6.23056270E+03   7.19372818E+01   0.00000000E+00   0.00000000E+00   0.00000000E+00   0.00000000E+00   3.76794873E+00   1.11297047E-05   9.58450886E+02   1.96092443E-06  -1.96092443E-06   0.00000000E+00   0.00000000E+00   0.00000000E+00   1.52366235E+04
   2.71250000E+02   5.00000000E-01   5.00000000E-01  -4.43545090E+04   3.02036900E+03   0.00000000E+00   9.09374714E+03   1.73314829E+03   6.23111566E+03   7.19372818E+01   0.00000000E+00   0.00000000E+00   0.00000000E+00   0.00000000E+00   3.42948279E+00   1.11297046E-05   9.58138457E+02   1.96092443E-06  -1.96092443E-06   0.00000000E+00   0.00000000E+00   0.00000000E+00   1.52348192E+04
   2.88750000E+02   5.00000000E-01   5.00000000E-01  -4.43554519E+04   3.02036900E+03   0.00000000E+00   9.09382229E+03   1.73332452E+03   6.23168378E+03   7.19372818E+01   0.00000000E+00   0.00000000E+00   0.00000000E+00   0.00000000E+00   3.10418425E+00   1.11297043E-05   9.57767683E+02   1.96092443E-06  -1.96092443E-06   0.00000000E+00   0.00000000E+00   0.00000000E+00   1.52328842E+04
   3.06250000E+02   5.00000000E-01   5.00000000E-01  -4.43564384E+04   3.02036900E+03   0.00000000E+00   9.09392090E+03   1.73350061E+03   6.23226304E+03   7.19372818E+01   0.00000000E+00   0.00000000E+00   0.00000000E+00   0.00000000E+00   2.79685226E+00   1.11297040E-05   9.57353609E+02   1.96092443E-06  -1.96092443E-06   0.00000000E+00   0.00000000E+00   0.00000000E+00   1.52308809E+04
   3.23750000E+02   5.00000000E-01   5.00000000E-01  -4.43574688E+04   3.02036900E+03   0.00000000E+00   9.09404291E+03   1.73367082E+03   6.23285137E+03   7.19372818E+01   0.00000000E+00   0.00000000E+00   0.00000000E+00   0.00000000E+00   2.51089458E+00   1.11297037E-05   9.56908929E+02   1.96092443E-06  -1.96092443E-06   0.00000000E+00   0.00000000E+00   0.00000000E+00   1.52288581E+04
   3.41250000E+02   5.00000000E-01   5.00000000E-01  -4.43585439E+04   3.02036900E+03   0.00000000E+00   9.09418789E+03   1.73383009E+03   6.23344842E+03   7.19372818E+01   0.00000000E+00   0.00000000E+00   0.00000000E+00   0.00000000E+00   2.24820856E+00   1.11297032E-05   9.56444038E+02   1.96092443E-06  -1.96092443E-06   0.00000000E+00   0.00000000E+00   0.00000000E+00   1.52268523E+04
   3.58750000E+02   5.00000000E-01   5.00000000E-01  -4.43596598E+04   3.02036900E+03   0.00000000E+00   9.09435272E+03   1.73397512E+03   6.23405512E+03   7.19372818E+01   0.00000000E+00   0.00000000E+00   0.00000000E+00   0.00000000E+00   2.00912792E+00   1.11297028E-05   9.55965903E+02   1.96092443E-06  -1.96092443E-06   0.00000000E+00   0.00000000E+00   0.00000000E+00   1.52248826E+04
   3.76250000E+02   5.00000000E-01   5.00000000E-01  -4.43608136E+04   3.02036900E+03   0.00000000E+00   9.09453395E+03   1.73410448E+03   6.23467286E+03   7.19372818E+01   0.00000000E+00   0.00000000E+00   0.00000000E+00   0.00000000E+00   1.79299780E+00   1.11297023E-05   9.55479177E+02   1.96092443E-06  -1.96092443E-06   0.00000000E+00   0.00000000E+00   0.00000000E+00   1.52229589E+04
   3.93750000E+02   5.00000000E-01   5.00000000E-01  -4.43619997E+04   3.02036900E+03   0.00000000E+00   9.09472685E+03   1.73421838E+03   6.23530292E+03   7.19372818E+01   0.00000000E+00   0.00000000E+00   0.00000000E+00   0.00000000E+00   1.59843462E+00   1.11297018E-05   9.54986155E+02   1.96092443E-06  -1.96092443E-06   0.00000000E+00   0.00000000E+00   0.00000000E+00   1.52210815E+04
   4.11250000E+02   5.00000000E-01   5.00000000E-01  -4.43632124E+04   3.02036900E+03   0.00000000E+00   9.09492681E+03   1.73431820E+03   6.23594610E+03   7.19372818E+01   0.00000000E+00   0.00000000E+00   0.00000000E+00   0.00000000E+00   1.42371578E+00   1.11297013E-05   9.54487606E+02   1.96092443E-06  -1.96092443E-06   0.00000000E+00   0.00000000E+00   0.00000000E+00   1.52192455E+04
   4.28750000E+02   5.00000000E-01   5.00000000E-01  -4.43644467E+04   3.02036900E+03   0.00000000E+00   9.09513011E+03   1.73440616E+03   6.23660233E+03   7.19372818E+01   0.00000000E+00   0.00000000E+00   0.00000000E+00   0.00000000E+00   1.26704050E+00   1.11297008E-05   9.53983629E+02   1.96092443E-06  -1.96092443E-06   0.00000000E+00   0.00000000E+00   0.00000000E+00   1.52174451E+04
   4.46250000E+02   5.00000000E-01   5.00000000E-01  -4.43656971E+04   3.02036900E+03   0.00000000E+00   9.09533335E+03   1.73448497E+03   6.23727061E+03   7.19372818E+01   0.00000000E+00   0.00000000E+00   0.00000000E+00   0.00000000E+00   1.12661335E+00   1.11297003E-05   9.53473788E+02   1.96092443E-06  -1.96092443E-06   0.00000000E+00   0.00000000E+00   0.00000000E+00   1.52156733E+04
   4.63750000E+02   5.00000000E-01   5.00000000E-01  -4.43669583E+04   3.02036900E+03   0.00000000E+00   9.09553398E+03   1.73455771E+03   6.23794893E+03   7.19372818E+01   0.00000000E+00   0.00000000E+00   0.00000000E+00   0.00000000E+00   1.00074464E+00   1.11296997E-05   9.52957504E+02   1.96092443E-06  -1.96092443E-06   0.00000000E+00   0.00000000E+00   0.00000000E+00   1.52139238E+04
   4.81250000E+02   5.00000000E-01   5.00000000E-01  -4.43682258E+04   3.02036900E+03   0.00000000E+00   9.09573050E+03   1.73462758E+03   6.23863428E+03   7.19372818E+01   0.00000000E+00   0.00000000E+00   0.00000000E+00   0.00000000E+00   8.87899632E-01   1.11296992E-05   9.52434382E+02   1.96092443E-06  -1.96092443E-06   0.00000000E+00   0.00000000E+00   0.00000000E+00   1.52121921E+04
   4.98750000E+02   5.00000000E-01   5.00000000E-01  -4.43693639E+04   3.02036900E+03   0.00000000E+00   9.09586289E+03   1.73469779E+03   6.23933330E+03   7.19372818E+01   0.00000000E+00   0.00000000E+00   0.00000000E+00   0.00000000E+00   7.84293204E-01   1.11296986E-05   9.51872834E+02   1.96092443E-06  -1.96092443E-06   0.00000000E+00   0.00000000E+00   0.00000000E+00   1.52103015E+04
   5.16250000E+02   5.00000000E-01   5.00000000E-01  -4.43705839E+04   3.02036900E+03   0.00000000E+00   9.09602624E+03   1.73477235E+03   6.24003578E+03   7.19372818E+01   0.00000000E+00   0.00000000E+00   0.00000000E+00   0.00000000E+00   6.92258760E-01   1.11296981E-05   9.51304053E+02   1.96092443E-06  -1.96092443E-06   0.00000000E+00   0.00000000E+00   0.00000000E+00   1.52084642E+04
   5.33750000E+02   5.00000000E-01   5.00000000E-01  -4.43718341E+04   3.02036900E+03   0.00000000E+00   9.09619860E+03   1.73485361E+03   6.24073380E+03   7.19372818E+01   0.00000000E+00   0.00000000E+00   0.00000000E+00   0.00000000E+00   6.10242331E-01   1.11296975E-05   9.50733018E+02   1.96092443E-06  -1.96092443E-06   0.00000000E+00   0.00000000E+00   0.00000000E+00   1.52066735E+04
   5.51250000E+02   5.00000000E-01   5.00000000E-01  -4.43730805E+04   3.02036900E+03   0.00000000E+00   9.09636757E+03   1.73494313E+03   6.24142165E+03   7.19372818E+01   0.00000000E+00   0.00000000E+00   0.00000000E+00   0.00000000E+00   5.36945383E-01   1.11296970E-05   9.50160049E+02   1.96092443E-06  -1.96092443E-06   0.00000000E+00   0.00000000E+00   0.00000000E+00   1.52049146E+04
   5.68750000E+02   5.00000000E-01   5.00000000E-01  -4.43743113E+04   3.02036900E+03   0.00000000E+00   9.09653115E+03   1.73504137E+03   6.24209492E+03   7.19372818E+01   0.00000000E+00   0.00000000E+00   0.00000000E+00   0.00000000E+00   4.71462809E-01   1.11296964E-05   9.49586127E+02   1.96092443E-06  -1.96092443E-06   0.00000000E+00   0.00000000E+00   0.00000000E+00   1.52031845E+04
   5.86250000E+02   5.00000000E-01   5.00000000E-01  -4.43755198E+04   3.02036900E+03   0.00000000E+00   9.09668933E+03   1.73514757E+03   6.24275059E+03   7.19372818E+01   0.00000000E+00   0.00000000E+00   0.00000000E+00   0.00000000E+00   4.13069090E-01   1.11296959E-05   9.49012952E+02   1.96092443E-06  -1.96092443E-06   0.00000000E+00   0.00000000E+00   0.00000000E+00   1.52014841E+04
   6.03750000E+02   5.00000000E-01   5.00000000E-01  -4.43767005E+04   3.02036900E+03   0.00000000E+00   9.09684195E+03   1.73525982E+03   6.24338713E+03   7.19372818E+01   0.00000000E+00   0.00000000E+00   0.00000000E+00   0.00000000E+00   3.61140558E-01   1.11296954E-05   9.48442782E+02   1.96092443E-06  -1.96092443E-06   0.00000000E+00   0.00000000E+00   0.00000000E+00   1.51998152E+04
   6.21250000E+02   5.00000000E-01   5.00000000E-01  -4.43778483E+04   3.02036900E+03   0.00000000E+00   9.09698819E+03   1.73537548E+03   6.24400441E+03   7.19372818E+01   0.00000000E+00   0.00000000E+00   0.00000000E+00   0.00000000E+00   3.15113250E-01   1.11296949E-05   9.47878207E+02   1.96092443E-06  -1.96092443E-06   0.00000000E+00   0.00000000E+00   0.00000000E+00   1.51981798E+04
   6.38750000E+02   5.00000000E-01   5.00000000E-01  -4.43789581E+04   3.02036900E+03   0.00000000E+00   9.09712654E+03   1.73549163E+03   6.24460330E+03   7.19372818E+01   0.00000000E+00   0.00000000E+00   0.00000000E+00   0.00000000E+00   2.74456266E-01   1.11296944E-05   9.47321899E+02   1.96092443E-06  -1.96092443E-06   0.00000000E+00   0.00000000E+00   0.00000000E+00   1.51965800E+04
   6.56250000E+02   5.00000000E-01   5.00000000E-01  -4.43800253E+04   3.02036900E+03   0.00000000E+00   9.09725507E+03   1.73560549E+03   6.24518513E+03   7.19372818E+01   0.00000000E+00   0.00000000E+00   0.00000000E+00   0.00000000E+00   2.38658119E-01   1.11296939E-05   9.46776388E+02   1.96092443E-06  -1.96092443E-06   0.00000000E+00   0.00000000E+00   0.00000000E+00   1.51950172E+04
   6.73750000E+02   5.00000000E-01   5.00000000E-01  -4.43810453E+04   3.02036900E+03   0.00000000E+00   9.09737172E+03   1.73571480E+03   6.24575115E+03   7.19372818E+01   0.00000000E+00   0.00000000E+00   0.00000000E+00   0.00000000E+00   2.07224942E-01   1.11296934E-05   9.46243926E+02   1.96092443E-06  -1.96092443E-06   0.00000000E+00   0.00000000E+00   0.00000000E+00   1.51934928E+04
   6.91250000E+02   5.00000000E-01   5.00000000E-01  -4.43820137E+04   3.02036900E+03   0.00000000E+00   9.09747453E+03   1.73581791E+03   6.24630198E+03   7.19372818E+01   0.00000000E+00   0.00000000E+00   0.00000000E+00   0.00000000E+00   1.79682961E-01   1.11296930E-05   9.45726364E+02   1.96092443E-06  -1.96092443E-06   0.00000000E+00   0.00000000E+00   0.00000000E+00   1.51920077E+04
   7.08750000E+02   5.00000000E-01   5.00000000E-01  -4.43829263E+04   3.02036900E+03   0.00000000E+00   9.09756208E+03   1.73591390E+03   6.24683733E+03   7.19372818E+01   0.00000000E+00   0.00000000E+00   0.00000000E+00   0.00000000E+00   1.55587962E-01   1.11296926E-05   9.45225203E+02   1.97308918E-06  -1.96092443E-06   0.00000000E+00   0.00000000E+00   0.00000000E+00   1.51905626E+04
   7.26250000E+02   5.00000000E-01   5.00000000E-01  -4.43837790E+04   3.02036900E+03   0.00000000E+00   9.09763372E+03   1.73600249E+03   6.24735577E+03   7.19372818E+01   0.00000000E+00   0.00000000E+00   0.00000000E+00   0.00000000E+00   1.34530970E-01   1.11296921E-05   9.44741638E+02   2.00818857E-06  -1.96092443E-06   0.00000000E+00   0.00000000E+00   0.00000000E+00   1.51891588E+04
   7.43750000E+02   5.00000000E-01   5.00000000E-01  -4.43845680E+04   3.02036900E+03   0.00000000E+00   9.09768960E+03   1.73608395E+03   6.24785467E+03   7.19372818E+01   0.00000000E+00   0.00000000E+00   0.00000000E+00   0.00000000E+00   1.16141561E-01   1.11296917E-05   9.44276614E+02   2.06817204E-06  -1.96092443E-06   0.00000000E+00   0.00000000E+00   0.00000000E+00   1.51877977E+04
   7.61250000E+02   5.00000000E-01   5.00000000E-01  -4.43852898E+04   3.02036900E+03   0.00000000E+00   9.09773071E+03   1.73615899E+03   6.24833029E+03   7.19372818E+01   0.00000000E+00   0.00000000E+00   0.00000000E+00   0.00000000E+00   1.00088955E-01   1.11296913E-05   9.43830885E+02   2.16418192E-06  -1.96092443E-06   0.00000000E+00   0.00000000E+00   0.00000000E+00   1.51864812E+04
   7.78750000E+02   5.00000000E-01   5.00000000E-01  -4.43859407E+04   3.02036900E+03   0.00000000E+00   9.09775880E+03   1.73622863E+03   6.24877795E+03   7.19372818E+01   0.00000000E+00   0.00000000E+00   0.00000000E+00   0.00000000E+00   8.60812625E-02   1.11296910E-05   9.43405070E+02   2.31137040E-06  -1.96092443E-06   0.00000000E+00   0.00000000E+00   0.00000000E+00   1.51852114E+04
   7.96250000E+02   5.00000000E-01   5.00000000E-01  -4.43865174E+04   3.02036900E+03   0.00000000E+00   9.09777622E+03   1.73629406E+03   6.24919224E+03   7.19372818E+01   0.00000000E+00   0.00000000E+00   0.00000000E+00   0.00000000E+00   7.38634519E-02   1.11296906E-05   9.42999700E+02   2.53020629E-06  -1.96092443E-06   0.00000000E+00   0.00000000E+00   0.00000000E+00   1.51839910E+04
   8.13750000E+02   5.00000000E-01   5.00000000E-01  -4.43870162E+04   3.02036900E+03   0.00000000E+00   9.09778569E+03   1.73635643E+03   6.24956737E+03   7.19372818E+01   0.00000000E+00   0.00000000E+00   0.00000000E+00   0.00000000E+00   6.32143350E-02   1.11296902E-05   9.42615244E+02   2.84818833E-06  -1.96092443E-06   0.00000000E+00   0.00000000E+00   0.00000000E+00   1.51828223E+04
   8.31250000E+02   5.00000000E-01   5.00000000E-01  -4.43874333E+04   3.02036900E+03   0.00000000E+00   9.09778997E+03   1.73641672E+03   6.24989754E+03   7.19372818E+01   0.00000000E+00   0.00000000E+00   0.00000000E+00   0.00000000E+00   5.39428530E-02   1.11296899E-05   9.42252113E+02   3.30208911E-06  -1.96092443E-06   0.00000000E+00   0.00000000E+00   0.00000000E+00   1.51817076E+04
   8.48750000E+02   5.00000000E-01   5.00000000E-01  -4.43877641E+04   3.02036899E+03   0.00000000E+00   9.09779146E+03   1.73647554E+03   6.25017736E+03   7.19372818E+01   0.00000000E+00   0.00000000E+00   0.00000000E+00   0.00000000E+00   4.58841062E-02   1.11296896E-05   9.41910638E+02   3.94089172E-06  -1.96092443E-06   0.00000000E+00   0.00000000E+00   0.00000000E+00   1.51806479E+04
   8.66250000E+02   5.00000000E-01   5.00000000E-01  -4.43880031E+04   3.02036899E+03   0.00000000E+00   9.09779187E+03   1.73653299E+03   6.25040233E+03   7.19372818E+01   0.00000000E+00   0.00000000E+00   0.00000000E+00   0.00000000E+00   3.88954953E-02   1.11296893E-05   9.41591040E+02   4.82963056E-06  -1.96092443E-06   0.00000000E+00   0.00000000E+00   0.00000000E+00   1.51796431E+04
   8.83750000E+02   5.00000000E-01   5.00000000E-01  -4.43881106E+04   3.02036899E+03   0.00000000E+00   9.09777926E+03   1.73658328E+03   6.25057327E+03   7.19372818E+01   0.00000000E+00   0.00000000E+00   0.00000000E+00   0.00000000E+00   3.28121280E-02   1.11296890E-05   9.41287347E+02   6.05442805E-06  -1.96092443E-06   0.00000000E+00   0.00000000E+00   0.00000000E+00   1.51786496E+04
   9.01250000E+02   5.00000000E-01   5.00000000E-01  -4.43881428E+04   3.02036899E+03   0.00000000E+00   9.09777815E+03   1.73663190E+03   6.25068519E+03   7.19372818E+01   0.00000000E+00   0.00000000E+00   0.00000000E+00   0.00000000E+00   2.76081077E-02   1.11296887E-05   9.41005871E+02   7.72904613E-06  -1.96092443E-06   0.00000000E+00   0.00000000E+00   0.00000000E+00   1.51777201E+04
   9.18750000E+02   5.00000000E-01   5.00000000E-01  -4.43880789E+04   3.02036899E+03   0.00000000E+00   9.09778061E+03   1.73667761E+03   6.25073672E+03   7.19372818E+01   0.00000000E+00   0.00000000E+00   0.00000000E+00   0.00000000E+00   2.31584580E-02   1.11296884E-05   9.40747089E+02   1.00034681E-05  -1.96092443E-06   0.00000000E+00   0.00000000E+00   0.00000000E+00   1.51768460E+04
   9.36250000E+02   5.00000000E-01   5.00000000E-01  -4.43879014E+04   3.02036899E+03   0.00000000E+00   9.09777912E+03   1.73671779E+03   6.25072974E+03   7.19372818E+01   0.00000000E+00   0.00000000E+00   0.00000000E+00   0.00000000E+00   1.93594012E-02   1.11296881E-05   9.40509964E+02   1.30751146E-05  -1.96092443E-06   0.00000000E+00   0.00000000E+00   0.00000000E+00   1.51760125E+04
   9.53750000E+02   5.00000000E-01   5.00000000E-01  -4.43876049E+04   3.02036899E+03   0.00000000E+00   9.09777011E+03   1.73675025E+03   6.25066788E+03   7.19372818E+01   0.00000000E+00   0.00000000E+00   0.00000000E+00   0.00000000E+00   1.61302760E-02   1.11296879E-05   9.40293480E+02   1.72034973E-05  -1.96092443E-06   0.00000000E+00   0.00000000E+00   0.00000000E+00   1.51752104E+04
   9.71250000E+02   5.00000000E-01   5.00000000E-01  -4.43871888E+04   3.02036899E+03   0.00000000E+00   9.09775099E+03   1.73677320E+03   6.25055588E+03   7.19372818E+01   0.00000000E+00   0.00000000E+00   0.00000000E+00   0.00000000E+00   1.33999684E-02   1.11296876E-05   9.40096515E+02   2.27293724E-05  -1.96092443E-06   0.00000000E+00   0.00000000E+00   0.00000000E+00   1.51744321E+04
   9.88750000E+02   5.00000000E-01   5.00000000E-01  -4.43866555E+04   3.02036899E+03   0.00000000E+00   9.09771954E+03   1.73678526E+03   6.25039912E+03   7.19372818E+01   0.00000000E+00   0.00000000E+00   0.00000000E+00   0.00000000E+00   1.11034225E-02   1.11296874E-05   9.39917810E+02   3.00997780E-05  -1.96092443E-06   0.00000000E+00   0.00000000E+00   0.00000000E+00   1.51736708E+04
   1.00625000E+03   5.00000000E-01   5.00000000E-01  -4.43860097E+04   3.02036899E+03   0.00000000E+00   9.09767402E+03   1.73678553E+03   6.25020332E+03   7.19372818E+01   0.00000000E+00   0.00000000E+00   0.00000000E+00   0.00000000E+00   9.18103472E-03   1.11296872E-05   9.39756001E+02   3.99007752E-05  -1.96092443E-06   0.00000000E+00   0.00000000E+00   0.00000000E+00   1.51729211E+04
   1.02375000E+03   5.00000000E-01   5.00000000E-01  -4.43852581E+04   3.02036899E+03   0.00000000E+00   9.09761331E+03   1.73677365E+03   6.24997412E+03   7.19372818E+01   0.00000000E+00   0.00000000E+00   0.00000000E+00   0.00000000E+00   7.57877173E-03   1.11296870E-05   9.39609664E+02   5.29002748E-05  -1.96092443E-06   0.00000000E+00   0.00000000E+00   0.00000000E+00   1.51721786E+04
   1.04125000E+03   5.00000000E-01   5.00000000E-01  -4.43844092E+04   3.02036899E+03   0.00000000E+00   9.09753687E+03   1.73674971E+03   6.24971689E+03   7.19372818E+01   0.00000000E+00   0.00000000E+00   0.00000000E+00   0.00000000E+00   6.24813786E-03   1.11296868E-05   9.39477354E+02   7.01040846E-05  -1.96092443E-06   0.00000000E+00   0.00000000E+00   0.00000000E+00   1.51714401E+04
   1.05875000E+03   5.00000000E-01   5.00000000E-01  -4.43834727E+04   3.02036899E+03   0.00000000E+00   9.09744490E+03   1.73671420E+03   6.24943654E+03   7.19372818E+01   0.00000000E+00   0.00000000E+00   0.00000000E+00   0.00000000E+00   5.14649914E-03   1.11296866E-05   9.39357658E+02   9.28292913E-05  -1.96092443E-06   0.00000000E+00   0.00000000E+00   0.00000000E+00   1.51707036E+04
   1.07625000E+03   5.00000000E-01   5.00000000E-01  -4.43824590E+04   3.02036899E+03   0.00000000E+00   9.09733817E+03   1.73666790E+03   6.24913744E+03   7.19372818E+01   0.00000000E+00   0.00000000E+00   0.00000000E+00   0.00000000E+00   4.23677799E-03   1.11296865E-05   9.39249221E+02   1.22800396E-04  -1.96092443E-06   0.00000000E+00   0.00000000E+00   0.00000000E+00   1.51699681E+04
   1.09375000E+03   5.00000000E-01   5.00000000E-01  -4.43813790E+04   3.02036899E+03   0.00000000E+00   9.09721793E+03   1.73661181E+03   6.24882337E+03   7.19372818E+01   0.00000000E+00   0.00000000E+00   0.00000000E+00   0.00000000E+00   3.48709360E-03   1.11296863E-05   9.39150761E+02   1.62275334E-04  -1.96092443E-06   0.00000000E+00   0.00000000E+00   0.00000000E+00   1.51692337E+04
   1.11125000E+03   5.00000000E-01   5.00000000E-01  -4.43802433E+04   3.02036899E+03   0.00000000E+00   9.09708580E+03   1.73654706E+03   6.24849761E+03   7.19372818E+01   0.00000000E+00   0.00000000E+00   0.00000000E+00   0.00000000E+00   2.87030676E-03   1.11296862E-05   9.39061079E+02   2.14210782E-04  -1.96092443E-06   0.00000000E+00   0.00000000E+00   0.00000000E+00   1.51685007E+04
   1.12875000E+03   5.00000000E-01   5.00000000E-01  -4.43790625E+04   3.02036899E+03   0.00000000E+00   9.09694365E+03   1.73647483E+03   6.24816292E+03   7.19372818E+01   0.00000000E+00   0.00000000E+00   0.00000000E+00   0.00000000E+00   2.36351937E-03   1.11296860E-05   9.38979059E+02   2.82479163E-04  -1.96092443E-06   0.00000000E+00   0.00000000E+00   0.00000000E+00   1.51677700E+04
   1.14625000E+03   5.00000000E-01   5.00000000E-01  -4.43778467E+04   3.02036899E+03   0.00000000E+00   9.09679354E+03   1.73639631E+03   6.24782168E+03   7.19372818E+01   0.00000000E+00   0.00000000E+00   0.00000000E+00   0.00000000E+00   1.94754364E-03   1.11296859E-05   9.38903672E+02   3.72153718E-04  -1.96092443E-06   0.00000000E+00   0.00000000E+00   0.00000000E+00   1.51670429E+04
   1.16375000E+03   5.00000000E-01   5.00000000E-01  -4.43766057E+04   3.02036899E+03   0.00000000E+00   9.09663762E+03   1.73631268E+03   6.24747587E+03   7.19372818E+01   0.00000000E+00   0.00000000E+00   0.00000000E+00   0.00000000E+00   1.60637093E-03   1.11296858E-05   9.38833961E+02   4.89883331E-04  -1.96092443E-06   0.00000000E+00   0.00000000E+00   0.00000000E+00   1.51663207E+04
   1.18125000E+03   5.00000000E-01   5.00000000E-01  -4.43753485E+04   3.02036899E+03   0.00000000E+00   9.09647806E+03   1.73622507E+03   6.24712719E+03   7.19372818E+01   0.00000000E+00   0.00000000E+00   0.00000000E+00   0.00000000E+00   1.32668777E-03   1.11296857E-05   9.38769047E+02   6.44385739E-04  -1.96092443E-06   0.00000000E+00   0.00000000E+00   0.00000000E+00   1.51656049E+04
   1.19875000E+03   5.00000000E-01   5.00000000E-01  -4.43740836E+04   3.02036899E+03   0.00000000E+00   9.09631703E+03   1.73613457E+03   6.24677706E+03   7.19372818E+01   0.00000000E+00   0.00000000E+00   0.00000000E+00   0.00000000E+00   1.09745966E-03   1.11296856E-05   9.38708120E+02   8.47097124E-04  -1.96092443E-06   0.00000000E+00   0.00000000E+00   0.00000000E+00   1.51648969E+04
   1.21625000E+03   5.00000000E-01   5.00000000E-01  -4.43728190E+04   3.02036899E+03   0.00000000E+00   9.09615667E+03   1.73604220E+03   6.24642668E+03   7.19372818E+01   0.00000000E+00   0.00000000E+00   0.00000000E+00   0.00000000E+00   9.09570808E-04   1.11296855E-05   9.38650437E+02   1.11302843E-03  -1.96092443E-06   0.00000000E+00   0.00000000E+00   0.00000000E+00   1.51641982E+04
   1.23375000E+03   5.00000000E-01   5.00000000E-01  -4.43715619E+04   3.02036899E+03   0.00000000E+00   9.09599902E+03   1.73594891E+03   6.24607706E+03   7.19372818E+01   0.00000000E+00   0.00000000E+00   0.00000000E+00   0.00000000E+00   7.55507549E-04   1.11296854E-05   9.38595318E+02   1.46189530E-03  -1.96092443E-06   0.00000000E+00   0.00000000E+00   0.00000000E+00   1.51635102E+04
   1.25125000E+03   5.00000000E-01   5.00000000E-01  -4.43703192E+04   3.02036899E+03   0.00000000E+00   9.09584610E+03   1.73585562E+03   6.24572903E+03   7.19372818E+01   0.00000000E+00   0.00000000E+00   0.00000000E+00   0.00000000E+00   6.29094550E-04   1.11296853E-05   9.38542145E+02   1.91961030E-03  -1.96092443E-06   0.00000000E+00   0.00000000E+00   0.00000000E+00   1.51628345E+04
   1.26875000E+03   5.00000000E-01   5.00000000E-01  -4.43690966E+04   3.02036899E+03   0.00000000E+00   9.09569961E+03   1.73576308E+03   6.24538327E+03   7.19372818E+01   0.00000000E+00   0.00000000E+00   0.00000000E+00   0.00000000E+00   5.25250718E-04   1.11296852E-05   9.38490361E+02   2.52025609E-03  -1.96092443E-06   0.00000000E+00   0.00000000E+00   0.00000000E+00   1.51621719E+04
   1.28625000E+03   5.00000000E-01   5.00000000E-01  -4.43678993E+04   3.02036898E+03   0.00000000E+00   9.09556126E+03   1.73567205E+03   6.24504033E+03   7.19372818E+01   0.00000000E+00   0.00000000E+00   0.00000000E+00   0.00000000E+00   4.39833727E-04   1.11296851E-05   9.38439463E+02   3.30869649E-03  -1.96092443E-06   0.00000000E+00   0.00000000E+00   0.00000000E+00   1.51615237E+04
   1.30375000E+03   5.00000000E-01   5.00000000E-01  -4.43667323E+04   3.02036898E+03   0.00000000E+00   9.09543258E+03   1.73558319E+03   6.24470067E+03   7.19372818E+01   0.00000000E+00   0.00000000E+00   0.00000000E+00   0.00000000E+00   3.69459733E-04   1.11296851E-05   9.38389002E+02   4.34403570E-03  -1.96092443E-06   0.00000000E+00   0.00000000E+00   0.00000000E+00   1.51608909E+04