 TITLE = "Total Component Concentration in Minerals" 
VARIABLES = "X"          "Y"              "Z"            "H+"             "Al+++"          "CO2(aq)"        "Mg++"           "Ca++"           "Fe++"           "Fe+++"          "Ba++"           "Sr++"           "Cl-"            "F-"             "K+"             "Na+"            "SO4--"          "O2(aq)"         "B(OH)3(aq)"     "HPO4--"         "NO3-"           "H4SiO4(aq)"    
 ZONE I=         100 , J=           1 , K=           1  F=POINT
   1.75000000E+01   5.00000000E-01   5.00000000E-01  -5.35069551E+04   2.29405139E+03   0.00000000E+00   1.98755113E+04   6.04399091E+02   2.13300983E+03   7.19372712E+00   0.00000000E+00   0.00000000E+00   0.00000000E+00   0.00000000E+00   3.25027182E+01   1.34487658E+03   0.00000000E+00   0.00000000E+00   0.00000000E+00   0.00000000E+00   0.00000000E+00   1.90856421E+04
   5.25000000E+01   5.00000000E-01   5.00000000E-01  -5.32265604E+04   2.29394578E+03   0.00000000E+00   1.97091787E+04   6.04399090E+02   2.13301402E+03   7.19372693E+00   0.00000000E+00   0.00000000E+00   0.00000000E+00   0.00000000E+00   3.96039383E+01   1.39035443E+03   0.00000000E+00   0.00000000E+00   0.00000000E+00   0.00000000E+00   0.00000000E+00   1.91445412E+04
   8.75000000E+01   5.00000000E-01   5.00000000E-01  -5.32046034E+04   2.29394578E+03   0.00000000E+00   1.96877512E+04   6.04399090E+02   2.13301992E+03   7.19372691E+00   0.00000000E+00   0.00000000E+00   0.00000000E+00   0.00000000E+00   3.79828542E+01   1.41286168E+03   0.00000000E+00   0.00000000E+00   0.00000000E+00   0.00000000E+00   0.00000000E+00   1.92116736E+04
   1.22500000E+02   5.00000000E-01   5.00000000E-01  -5.31992676E+04   2.29394577E+03   0.00000000E+00   1.96797683E+04   6.04399090E+02   2.13302732E+03   7.19372692E+00   0.00000000E+00   0.00000000E+00   0.00000000E+00   0.00000000E+00   3.62628530E+01   1.42519675E+03   0.00000000E+00   0.00000000E+00   0.00000000E+00   0.00000000E+00   0.00000000E+00   1.92463558E+04
   1.57500000E+02   5.00000000E-01   5.00000000E-01  -5.31998162E+04   2.29394577E+03   0.00000000E+00   1.96771901E+04   6.04399090E+02   2.13303602E+03   7.19372693E+00   0.00000000E+00   0.00000000E+00   0.00000000E+00   0.00000000E+00   3.50931854E+01   1.43205409E+03   0.00000000E+00   0.00000000E+00   0.00000000E+00   0.00000000E+00   0.00000000E+00   1.92663149E+04
   1.92500000E+02   5.00000000E-01   5.00000000E-01  -5.32032684E+04   2.29394576E+03   0.00000000E+00   1.96774299E+04   6.04399090E+02   2.13304583E+03   7.19372694E+00   0.00000000E+00   0.00000000E+00   0.00000000E+00   0.00000000E+00   3.44025462E+01   1.43569767E+03   0.00000000E+00   0.00000000E+00   0.00000000E+00   0.00000000E+00   0.00000000E+00   1.92785142E+04
   2.27500000E+02   5.00000000E-01   5.00000000E-01  -5.32084581E+04   2.29394576E+03   0.00000000E+00   1.96793660E+04   6.04399090E+02   2.13305656E+03   7.19372695E+00   0.00000000E+00   0.00000000E+00   0.00000000E+00   0.00000000E+00   3.40593062E+01   1.43733700E+03   0.00000000E+00   0.00000000E+00   0.00000000E+00   0.00000000E+00   0.00000000E+00   1.92862151E+04
   2.62500000E+02   5.00000000E-01   5.00000000E-01  -5.32148430E+04   2.29394576E+03   0.00000000E+00   1.96824324E+04   6.04399090E+02   2.13306804E+03   7.19372696E+00   0.00000000E+00   0.00000000E+00   0.00000000E+00   0.00000000E+00   3.39588773E+01   1.43766658E+03   0.00000000E+00   0.00000000E+00   0.00000000E+00   0.00000000E+00   0.00000000E+00   1.92911443E+04
   2.97500000E+02   5.00000000E-01   5.00000000E-01  -5.32221410E+04   2.29394575E+03   0.00000000E+00   1.96863149E+04   6.04399091E+02   2.13308009E+03   7.19372697E+00   0.00000000E+00   0.00000000E+00   0.00000000E+00   0.00000000E+00   3.40273205E+01   1.43710704E+03   0.00000000E+00   0.00000000E+00   0.00000000E+00   0.00000000E+00   0.00000000E+00   1.92942945E+04
   3.32500000E+02   5.00000000E-01   5.00000000E-01  -5.32301863E+04   2.29394575E+03   0.00000000E+00   1.96908231E+04   6.04399091E+02   2.13309255E+03   7.19372699E+00   0.00000000E+00   0.00000000E+00   0.00000000E+00   0.00000000E+00   3.42134596E+01   1.43592499E+03   0.00000000E+00   0.00000000E+00   0.00000000E+00   0.00000000E+00   0.00000000E+00   1.92962694E+04
   3.67500000E+02   5.00000000E-01   5.00000000E-01  -5.32388750E+04   2.29394574E+03   0.00000000E+00   1.96958355E+04   6.04399091E+02   2.13310528E+03   7.19372700E+00   0.00000000E+00   0.00000000E+00   0.00000000E+00   0.00000000E+00   3.44818154E+01   1.43429509E+03   0.00000000E+00   0.00000000E+00   0.00000000E+00   0.00000000E+00   0.00000000E+00   1.92974521E+04
   4.02500000E+02   5.00000000E-01   5.00000000E-01  -5.32481312E+04   2.29394574E+03   0.00000000E+00   1.97012676E+04   6.04399091E+02   2.13311814E+03   7.19372702E+00   0.00000000E+00   0.00000000E+00   0.00000000E+00   0.00000000E+00   3.48074566E+01   1.43233566E+03   0.00000000E+00   0.00000000E+00   0.00000000E+00   0.00000000E+00   0.00000000E+00   1.92980910E+04
   4.37500000E+02   5.00000000E-01   5.00000000E-01  -5.32578924E+04   2.29394573E+03   0.00000000E+00   1.97070561E+04   6.04399091E+02   2.13313101E+03   7.19372704E+00   0.00000000E+00   0.00000000E+00   0.00000000E+00   0.00000000E+00   3.51725345E+01   1.43012907E+03   0.00000000E+00   0.00000000E+00   0.00000000E+00   0.00000000E+00   0.00000000E+00   1.92983490E+04
   4.72500000E+02   5.00000000E-01   5.00000000E-01  -5.32681013E+04   2.29394573E+03   0.00000000E+00   1.97131493E+04   6.04399091E+02   2.13314376E+03   7.19372707E+00   0.00000000E+00   0.00000000E+00   0.00000000E+00   0.00000000E+00   3.55639773E+01   1.42773475E+03   0.00000000E+00   0.00000000E+00   0.00000000E+00   0.00000000E+00   0.00000000E+00   1.92983334E+04
   5.07500000E+02   5.00000000E-01   5.00000000E-01  -5.32786999E+04   2.29394572E+03   0.00000000E+00   1.97195008E+04   6.04399091E+02   2.13315631E+03   7.19372710E+00   0.00000000E+00   0.00000000E+00   0.00000000E+00   0.00000000E+00   3.59719496E+01   1.42519731E+03   0.00000000E+00   0.00000000E+00   0.00000000E+00   0.00000000E+00   0.00000000E+00   1.92981147E+04
   5.42500000E+02   5.00000000E-01   5.00000000E-01  -5.32900718E+04   2.29394571E+03   0.00000000E+00   1.97263132E+04   1.59131772E+03   2.13316905E+03   7.19372706E+00   0.00000000E+00   0.00000000E+00   0.00000000E+00   0.00000000E+00   3.63906655E+01   1.42250014E+03   9.86918630E+02   0.00000000E+00   0.00000000E+00   0.00000000E+00   0.00000000E+00   1.92978365E+04
   5.77500000E+02   5.00000000E-01   5.00000000E-01  -5.33036275E+04   2.29394570E+03   0.00000000E+00   1.97343696E+04   6.58887685E+03   2.13318403E+03   7.19372688E+00   0.00000000E+00   0.00000000E+00   0.00000000E+00   0.00000000E+00   3.68213966E+01   1.41948226E+03   5.98447776E+03   0.00000000E+00   0.00000000E+00   0.00000000E+00   0.00000000E+00   1.92977845E+04
   6.12500000E+02   5.00000000E-01   5.00000000E-01  -5.33161490E+04   2.29394569E+03   0.00000000E+00   1.97419263E+04   7.82403132E+03   2.13319969E+03   7.19372686E+00   0.00000000E+00   0.00000000E+00   0.00000000E+00   0.00000000E+00   3.72618759E+01   1.41641875E+03   7.21963223E+03   0.00000000E+00   0.00000000E+00   0.00000000E+00   0.00000000E+00   1.92969193E+04
   6.47500000E+02   5.00000000E-01   5.00000000E-01  -5.33283826E+04   2.29394568E+03   0.00000000E+00   1.97493408E+04   7.95638583E+03   2.13321559E+03   7.19372684E+00   0.00000000E+00   0.00000000E+00   0.00000000E+00   0.00000000E+00   3.76914958E+01   1.41336191E+03   7.35198674E+03   0.00000000E+00   0.00000000E+00   0.00000000E+00   0.00000000E+00   1.92958036E+04
   6.82500000E+02   5.00000000E-01   5.00000000E-01  -5.33405466E+04   2.29394566E+03   0.00000000E+00   1.97567185E+04   7.92988482E+03   2.13323161E+03   7.19372683E+00   0.00000000E+00   0.00000000E+00   0.00000000E+00   0.00000000E+00   3.81040833E+01   1.41032597E+03   7.32548573E+03   0.00000000E+00   0.00000000E+00   0.00000000E+00   0.00000000E+00   1.92945965E+04
   7.17500000E+02   5.00000000E-01   5.00000000E-01  -5.33525805E+04   2.29394565E+03   0.00000000E+00   1.97640233E+04   7.87402817E+03   2.13324769E+03   7.19372680E+00   0.00000000E+00   0.00000000E+00   0.00000000E+00   0.00000000E+00   3.84978251E+01   1.40732445E+03   7.26962908E+03   0.00000000E+00   0.00000000E+00   0.00000000E+00   0.00000000E+00   1.92932995E+04
   7.52500000E+02   5.00000000E-01   5.00000000E-01  -5.33643774E+04   2.29394563E+03   0.00000000E+00   1.97711953E+04   7.81156202E+03   2.13326377E+03   7.19372679E+00   0.00000000E+00   0.00000000E+00   0.00000000E+00   0.00000000E+00   3.88717688E+01   1.40437127E+03   7.20716293E+03   0.00000000E+00   0.00000000E+00   0.00000000E+00   0.00000000E+00   1.92918913E+04
   7.87500000E+02   5.00000000E-01   5.00000000E-01  -5.33758337E+04   2.29394561E+03   0.00000000E+00   1.97782350E+04   7.74667547E+03   2.13327978E+03   7.19372677E+00   0.00000000E+00   0.00000000E+00   0.00000000E+00   0.00000000E+00   3.91659793E+01   1.40142187E+03   7.14227638E+03   0.00000000E+00   0.00000000E+00   0.00000000E+00   0.00000000E+00   1.92901673E+04
   8.22500000E+02   5.00000000E-01   5.00000000E-01  -5.33868399E+04   2.29394559E+03   0.00000000E+00   1.97850024E+04   7.68038374E+03   2.13329565E+03   7.19372675E+00   0.00000000E+00   0.00000000E+00   0.00000000E+00   0.00000000E+00   3.94549479E+01   1.39857266E+03   7.07598464E+03   0.00000000E+00   0.00000000E+00   0.00000000E+00   0.00000000E+00   1.92883812E+04
   8.57500000E+02   5.00000000E-01   5.00000000E-01  -5.33972076E+04   2.29394557E+03   0.00000000E+00   1.97914173E+04   7.61314468E+03   2.13331131E+03   7.19372672E+00   0.00000000E+00   0.00000000E+00   0.00000000E+00   0.00000000E+00   3.97204149E+01   1.39581383E+03   7.00874559E+03   0.00000000E+00   0.00000000E+00   0.00000000E+00   0.00000000E+00   1.92863997E+04
   8.92500000E+02   5.00000000E-01   5.00000000E-01  -5.34068217E+04   2.29394554E+03   0.00000000E+00   1.97974157E+04   7.54529761E+03   2.13332668E+03   7.19372671E+00   0.00000000E+00   0.00000000E+00   0.00000000E+00   0.00000000E+00   3.99633002E+01   1.39315763E+03   6.94089852E+03   0.00000000E+00   0.00000000E+00   0.00000000E+00   0.00000000E+00   1.92842062E+04
   9.27500000E+02   5.00000000E-01   5.00000000E-01  -5.34155515E+04   2.29394552E+03   0.00000000E+00   1.98029255E+04   7.47713474E+03   2.13334167E+03   7.19372670E+00   0.00000000E+00   0.00000000E+00   0.00000000E+00   0.00000000E+00   4.01851904E+01   1.39061603E+03   6.87273565E+03   0.00000000E+00   0.00000000E+00   0.00000000E+00   0.00000000E+00   1.92817776E+04
   9.62500000E+02   5.00000000E-01   5.00000000E-01  -5.34232707E+04   2.29394549E+03   0.00000000E+00   1.98078771E+04   7.40891456E+03   2.13335621E+03   7.19372668E+00   0.00000000E+00   0.00000000E+00   0.00000000E+00   0.00000000E+00   4.03880950E+01   1.38820015E+03   6.80451547E+03   0.00000000E+00   0.00000000E+00   0.00000000E+00   0.00000000E+00   1.92790932E+04
   9.97500000E+02   5.00000000E-01   5.00000000E-01  -5.34298608E+04   2.29394545E+03   0.00000000E+00   1.98122052E+04   7.34086583E+03   2.13337020E+03   7.19372667E+00   0.00000000E+00   0.00000000E+00   0.00000000E+00   0.00000000E+00   4.05743773E+01   1.38592000E+03   6.73646674E+03   0.00000000E+00   0.00000000E+00   0.00000000E+00   0.00000000E+00   1.92761358E+04
   1.03250000E+03   5.00000000E-01   5.00000000E-01  -5.34352144E+04   2.29394542E+03   0.00000000E+00   1.98158504E+04   7.27319001E+03   2.13338355E+03   7.19372666E+00   0.00000000E+00   0.00000000E+00   0.00000000E+00   0.00000000E+00   4.07466614E+01   1.38378426E+03   6.66879091E+03   0.00000000E+00   0.00000000E+00   0.00000000E+00   0.00000000E+00   1.92728921E+04
   1.06750000E+03   5.00000000E-01   5.00000000E-01  -5.34392386E+04   2.29394538E+03   0.00000000E+00   1.98187615E+04   7.20606352E+03   2.13339618E+03   7.19372664E+00   0.00000000E+00   0.00000000E+00   0.00000000E+00   0.00000000E+00   4.09077162E+01   1.38180006E+03   6.60166443E+03   0.00000000E+00   0.00000000E+00   0.00000000E+00   0.00000000E+00   1.92693529E+04
   1.10250000E+03   5.00000000E-01   5.00000000E-01  -5.34418583E+04   2.29394534E+03   0.00000000E+00   1.98208969E+04   7.13963986E+03   2.13340799E+03   7.19372662E+00   0.00000000E+00   0.00000000E+00   0.00000000E+00   0.00000000E+00   4.10603279E+01   1.37997284E+03   6.53524076E+03   0.00000000E+00   0.00000000E+00   0.00000000E+00   0.00000000E+00   1.92655140E+04
   1.13750000E+03   5.00000000E-01   5.00000000E-01  -5.34430189E+04   2.29394529E+03   0.00000000E+00   1.98222263E+04   7.07405157E+03   2.13341890E+03   7.19372659E+00   0.00000000E+00   0.00000000E+00   0.00000000E+00   0.00000000E+00   4.12071642E+01   1.37830619E+03   6.46965247E+03   0.00000000E+00   0.00000000E+00   0.00000000E+00   0.00000000E+00   1.92613760E+04
   1.17250000E+03   5.00000000E-01   5.00000000E-01  -5.34426891E+04   2.29394524E+03   0.00000000E+00   1.98227319E+04   7.00941217E+03   2.13342883E+03   7.19372655E+00   0.00000000E+00   0.00000000E+00   0.00000000E+00   0.00000000E+00   4.13506441E+01   1.37680181E+03   6.40501308E+03   0.00000000E+00   0.00000000E+00   0.00000000E+00   0.00000000E+00   1.92569453E+04
   1.20750000E+03   5.00000000E-01   5.00000000E-01  -5.34408625E+04   2.29394519E+03   0.00000000E+00   1.98224100E+04   6.94581796E+03   2.13343771E+03   7.19372652E+00   0.00000000E+00   0.00000000E+00   0.00000000E+00   0.00000000E+00   4.14928195E+01   1.37545941E+03   6.34141886E+03   0.00000000E+00   0.00000000E+00   0.00000000E+00   0.00000000E+00   1.92522338E+04
   1.24250000E+03   5.00000000E-01   5.00000000E-01  -5.34375595E+04   2.29394513E+03   0.00000000E+00   1.98212709E+04   6.88334961E+03   2.13344548E+03   7.19372647E+00   0.00000000E+00   0.00000000E+00   0.00000000E+00   0.00000000E+00   4.16352789E+01   1.37427676E+03   6.27895052E+03   0.00000000E+00   0.00000000E+00   0.00000000E+00   0.00000000E+00   1.92472590E+04
   1.27750000E+03   5.00000000E-01   5.00000000E-01  -5.34328268E+04   2.29394507E+03   0.00000000E+00   1.98193396E+04   6.82207381E+03   2.13345209E+03   7.19372642E+00   0.00000000E+00   0.00000000E+00   0.00000000E+00   0.00000000E+00   4.17790773E+01   1.37324967E+03   6.21767472E+03   0.00000000E+00   0.00000000E+00   0.00000000E+00   0.00000000E+00   1.92420440E+04
   1.31250000E+03   5.00000000E-01   5.00000000E-01  -5.34267372E+04   2.29394501E+03   0.00000000E+00   1.98166555E+04   6.76204462E+03   2.13345750E+03   7.19372635E+00   0.00000000E+00   0.00000000E+00   0.00000000E+00   0.00000000E+00   4.19247011E+01   1.37237215E+03   6.15764553E+03   0.00000000E+00   0.00000000E+00   0.00000000E+00   0.00000000E+00   1.92366169E+04
   1.34750000E+03   5.00000000E-01   5.00000000E-01  -5.34193880E+04   2.29394494E+03   0.00000000E+00   1.98132710E+04   6.70330485E+03   2.13346169E+03   7.19372627E+00   0.00000000E+00   0.00000000E+00   0.00000000E+00   0.00000000E+00   4.20720665E+01   1.37163647E+03   6.09890575E+03   0.00000000E+00   0.00000000E+00   0.00000000E+00   0.00000000E+00   1.92310106E+04
   1.38250000E+03   5.00000000E-01   5.00000000E-01  -5.34108981E+04   2.29394486E+03   0.00000000E+00   1.98092505E+04   6.64588720E+03   2.13346465E+03   7.19372618E+00   0.00000000E+00   0.00000000E+00   0.00000000E+00   0.00000000E+00   4.22205518E+01   1.37103337E+03   6.04148811E+03   0.00000000E+00   0.00000000E+00   0.00000000E+00   0.00000000E+00   1.92252616E+04
   1.41750000E+03   5.00000000E-01   5.00000000E-01  -5.34014046E+04   2.29394478E+03   0.00000000E+00   1.98046684E+04   6.58981545E+03   2.13346638E+03   7.19372606E+00   0.00000000E+00   0.00000000E+00   0.00000000E+00   0.00000000E+00   4.23690589E+01   1.37055229E+03   5.98541636E+03   0.00000000E+00   0.00000000E+00   0.00000000E+00   0.00000000E+00   1.92194093E+04
   1.45250000E+03   5.00000000E-01   5.00000000E-01  -5.33910583E+04   2.29394469E+03   0.00000000E+00   1.97996067E+04   6.53510541E+03   2.13346691E+03   7.19372592E+00   0.00000000E+00   0.00000000E+00   0.00000000E+00   0.00000000E+00   4.25160987E+01   1.37018156E+03   5.93070631E+03   0.00000000E+00   0.00000000E+00   0.00000000E+00   0.00000000E+00   1.92134948E+04
   1.48750000E+03   5.00000000E-01   5.00000000E-01  -5.33800196E+04   2.29394459E+03   0.00000000E+00   1.97941526E+04   6.48176585E+03   2.13346625E+03   7.19372574E+00   0.00000000E+00   0.00000000E+00   0.00000000E+00   0.00000000E+00   4.26598919E+01   1.36990874E+03   5.87736675E+03   0.00000000E+00   0.00000000E+00   0.00000000E+00   0.00000000E+00   1.92075598E+04
   1.52250000E+03   5.00000000E-01   5.00000000E-01  -5.33684527E+04   2.29394449E+03   0.00000000E+00   1.97883958E+04   6.42979938E+03   2.13346446E+03   7.19372553E+00   0.00000000E+00   0.00000000E+00   0.00000000E+00   0.00000000E+00   4.27984775E+01   1.36972084E+03   5.82540029E+03   0.00000000E+00   0.00000000E+00   0.00000000E+00   0.00000000E+00   1.92016451E+04
   1.55750000E+03   5.00000000E-01   5.00000000E-01  -5.33565216E+04   2.29394438E+03   0.00000000E+00   1.97824257E+04   6.37920320E+03   2.13346157E+03   7.19372527E+00   0.00000000E+00   0.00000000E+00   0.00000000E+00   0.00000000E+00   4.29298190E+01   1.36960464E+03   5.77480411E+03   0.00000000E+00   0.00000000E+00   0.00000000E+00   0.00000000E+00   1.91957898E+04
   1.59250000E+03   5.00000000E-01   5.00000000E-01  -5.33443851E+04   2.29394426E+03   0.00000000E+00   1.97763294E+04   6.32996981E+03   2.13345765E+03   7.19372494E+00   0.00000000E+00   0.00000000E+00   0.00000000E+00   0.00000000E+00   4.30519012E+01   1.36954698E+03   5.72557071E+03   0.00000000E+00   0.00000000E+00   0.00000000E+00   0.00000000E+00   1.91900299E+04
   1.62750000E+03   5.00000000E-01   5.00000000E-01  -5.33321932E+04   2.29394413E+03   0.00000000E+00   1.97701891E+04   6.28208765E+03   2.13345275E+03   7.19372454E+00   0.00000000E+00   0.00000000E+00   0.00000000E+00   0.00000000E+00   4.31628138E+01   1.36953497E+03   5.67768855E+03   0.00000000E+00   0.00000000E+00   0.00000000E+00   0.00000000E+00   1.91843979E+04
   1.66250000E+03   5.00000000E-01   5.00000000E-01  -5.33200840E+04   2.29394398E+03   0.00000000E+00   1.97640809E+04   6.23554170E+03   2.13344694E+03   7.19372403E+00   0.00000000E+00   0.00000000E+00   0.00000000E+00   0.00000000E+00   4.32608139E+01   1.36955625E+03   5.63114260E+03   0.00000000E+00   0.00000000E+00   0.00000000E+00   0.00000000E+00   1.91789219E+04
   1.69750000E+03   5.00000000E-01   5.00000000E-01  -5.33081812E+04   2.29394383E+03   0.00000000E+00   1.97580731E+04   6.19031405E+03   2.13344029E+03   7.19372341E+00   0.00000000E+00   0.00000000E+00   0.00000000E+00   0.00000000E+00   4.33443711E+01   1.36959918E+03   5.58591495E+03   0.00000000E+00   0.00000000E+00   0.00000000E+00   0.00000000E+00   1.91736251E+04
   1.73250000E+03   5.00000000E-01   5.00000000E-01  -5.32965931E+04   2.29394367E+03   0.00000000E+00   1.97522259E+04   6.14638433E+03   2.13343286E+03   7.19372263E+00   0.00000000E+00   0.00000000E+00   0.00000000E+00   0.00000000E+00   4.34121913E+01   1.36965298E+03   5.54198523E+03   0.00000000E+00   0.00000000E+00   0.00000000E+00   0.00000000E+00   1.91685260E+04
   1.76750000E+03   5.00000000E-01   5.00000000E-01  -5.32854116E+04   2.29394349E+03   0.00000000E+00   1.97465906E+04   6.10373022E+03   2.13342474E+03   7.19372166E+00   0.00000000E+00   0.00000000E+00   0.00000000E+00   0.00000000E+00   4.34632237E+01   1.36970784E+03   5.49933112E+03   0.00000000E+00   0.00000000E+00   0.00000000E+00   0.00000000E+00   1.91636386E+04
   1.80250000E+03   5.00000000E-01   5.00000000E-01  -5.32747127E+04   2.29394330E+03   0.00000000E+00   1.97412099E+04   6.06232781E+03   2.13341598E+03   7.19372047E+00   0.00000000E+00   0.00000000E+00   0.00000000E+00   0.00000000E+00   4.34966537E+01   1.36975498E+03   5.45792871E+03   0.00000000E+00   0.00000000E+00   0.00000000E+00   0.00000000E+00   1.91589723E+04
   1.83750000E+03   5.00000000E-01   5.00000000E-01  -5.32645572E+04   2.29394309E+03   0.00000000E+00   1.97361183E+04   6.02215196E+03   2.13340666E+03   7.19371899E+00   0.00000000E+00   0.00000000E+00   0.00000000E+00   0.00000000E+00   4.35118845E+01   1.36978670E+03   5.41775286E+03   0.00000000E+00   0.00000000E+00   0.00000000E+00   0.00000000E+00   1.91545324E+04
   1.87250000E+03   5.00000000E-01   5.00000000E-01  -5.32549914E+04   2.29394286E+03   0.00000000E+00   1.97313425E+04   5.98317666E+03   2.13339685E+03   7.19371719E+00   0.00000000E+00   0.00000000E+00   0.00000000E+00   0.00000000E+00   4.35085120E+01   1.36979635E+03   5.37877756E+03   0.00000000E+00   0.00000000E+00   0.00000000E+00   0.00000000E+00   1.91503209E+04
   1.90750000E+03   5.00000000E-01   5.00000000E-01  -5.32460494E+04   2.29394262E+03   0.00000000E+00   1.97269022E+04   5.94537526E+03   2.13338660E+03   7.19371501E+00   0.00000000E+00   0.00000000E+00   0.00000000E+00   0.00000000E+00   4.34862956E+01   1.36977833E+03   5.34097617E+03   0.00000000E+00   0.00000000E+00   0.00000000E+00   0.00000000E+00   1.91463371E+04
   1.94250000E+03   5.00000000E-01   5.00000000E-01  -5.32377540E+04   2.29394235E+03   0.00000000E+00   1.97228113E+04   5.90872076E+03   2.13337598E+03   7.19371237E+00   0.00000000E+00   0.00000000E+00   0.00000000E+00   0.00000000E+00   4.34451276E+01   1.36972799E+03   5.30432167E+03   0.00000000E+00   0.00000000E+00   0.00000000E+00   0.00000000E+00   1.91425778E+04
   1.97750000E+03   5.00000000E-01   5.00000000E-01  -5.32301190E+04   2.29394207E+03   0.00000000E+00   1.97190784E+04   5.87318597E+03   2.13336505E+03   7.19370920E+00   0.00000000E+00   0.00000000E+00   0.00000000E+00   0.00000000E+00   4.33850047E+01   1.36964160E+03   5.26878688E+03   0.00000000E+00   0.00000000E+00   0.00000000E+00   0.00000000E+00   1.91390383E+04
   2.01250000E+03   5.00000000E-01   5.00000000E-01  -5.32231505E+04   2.29394176E+03   0.00000000E+00   1.97157079E+04   5.83874373E+03   2.13335387E+03   7.19370543E+00   0.00000000E+00   0.00000000E+00   0.00000000E+00   0.00000000E+00   4.33060003E+01   1.36951627E+03   5.23434465E+03   0.00000000E+00   0.00000000E+00   0.00000000E+00   0.00000000E+00   1.91357127E+04
   2.04750000E+03   5.00000000E-01   5.00000000E-01  -5.32168486E+04   2.29394143E+03   0.00000000E+00   1.97127010E+04   5.80536705E+03   2.13334250E+03   7.19370096E+00   0.00000000E+00   0.00000000E+00   0.00000000E+00   0.00000000E+00   4.32082422E+01   1.36934983E+03   5.20096797E+03   0.00000000E+00   0.00000000E+00   0.00000000E+00   0.00000000E+00   1.91325947E+04
   2.08250000E+03   5.00000000E-01   5.00000000E-01  -5.32112093E+04   2.29394107E+03   0.00000000E+00   1.97100561E+04   5.77302920E+03   2.13333098E+03   7.19369569E+00   0.00000000E+00   0.00000000E+00   0.00000000E+00   0.00000000E+00   4.30918928E+01   1.36914075E+03   5.16863013E+03   0.00000000E+00   0.00000000E+00   0.00000000E+00   0.00000000E+00   1.91296776E+04
   2.11750000E+03   5.00000000E-01   5.00000000E-01  -5.32062251E+04   2.29394068E+03   0.00000000E+00   1.97077699E+04   5.74170386E+03   2.13331936E+03   7.19368952E+00   0.00000000E+00   0.00000000E+00   0.00000000E+00   0.00000000E+00   4.29571333E+01   1.36888810E+03   5.13730480E+03   0.00000000E+00   0.00000000E+00   0.00000000E+00   0.00000000E+00   1.91269552E+04
   2.15250000E+03   5.00000000E-01   5.00000000E-01  -5.32018873E+04   2.29394027E+03   0.00000000E+00   1.97058382E+04   5.71136515E+03   2.13330770E+03   7.19368234E+00   0.00000000E+00   0.00000000E+00   0.00000000E+00   0.00000000E+00   4.28042495E+01   1.36859138E+03   5.10696610E+03   0.00000000E+00   0.00000000E+00   0.00000000E+00   0.00000000E+00   1.91244228E+04
   2.18750000E+03   5.00000000E-01   5.00000000E-01  -5.31981851E+04   2.29393982E+03   0.00000000E+00   1.97042553E+04   5.68198772E+03   2.13329604E+03   7.19367402E+00   0.00000000E+00   0.00000000E+00   0.00000000E+00   0.00000000E+00   4.26334030E+01   1.36825048E+03   5.07758869E+03   0.00000000E+00   0.00000000E+00   0.00000000E+00   0.00000000E+00   1.91220747E+04
   2.22250000E+03   5.00000000E-01   5.00000000E-01  -5.31951080E+04   2.29393934E+03   0.00000000E+00   1.97030159E+04   5.65354677E+03   2.13328441E+03   7.19366447E+00   0.00000000E+00   0.00000000E+00   0.00000000E+00   0.00000000E+00   4.24447064E+01   1.36786565E+03   5.04914775E+03   0.00000000E+00   0.00000000E+00   0.00000000E+00   0.00000000E+00   1.91199062E+04
   2.25750000E+03   5.00000000E-01   5.00000000E-01  -5.31926467E+04   2.29393882E+03   0.00000000E+00   1.97021149E+04   5.62601807E+03   2.13327287E+03   7.19365357E+00   0.00000000E+00   0.00000000E+00   0.00000000E+00   0.00000000E+00   4.22383135E+01   1.36743737E+03   5.02161907E+03   0.00000000E+00   0.00000000E+00   0.00000000E+00   0.00000000E+00   1.91179142E+04
   2.29250000E+03   5.00000000E-01   5.00000000E-01  -5.31907928E+04   2.29393827E+03   0.00000000E+00   1.97015478E+04   5.59937799E+03   2.13326144E+03   7.19364123E+00   0.00000000E+00   0.00000000E+00   0.00000000E+00   0.00000000E+00   4.20143682E+01   1.36696631E+03   4.99497901E+03   0.00000000E+00   0.00000000E+00   0.00000000E+00   0.00000000E+00   1.91160968E+04
   2.32750000E+03   5.00000000E-01   5.00000000E-01  -5.31895394E+04   2.29393767E+03   0.00000000E+00   1.97013105E+04   5.57360348E+03   2.13325016E+03   7.19362737E+00   0.00000000E+00   0.00000000E+00   0.00000000E+00   0.00000000E+00   4.17730115E+01   1.36645332E+03   4.96920452E+03   0.00000000E+00   0.00000000E+00   0.00000000E+00   0.00000000E+00   1.91144537E+04
   2.36250000E+03   5.00000000E-01   5.00000000E-01  -5.31888816E+04   2.29393703E+03   0.00000000E+00   1.97014000E+04   5.54867207E+03   2.13323906E+03   7.19361196E+00   0.00000000E+00   0.00000000E+00   0.00000000E+00   0.00000000E+00   4.15143850E+01   1.36589931E+03   4.94427314E+03   0.00000000E+00   0.00000000E+00   0.00000000E+00   0.00000000E+00   1.91129857E+04
   2.39750000E+03   5.00000000E-01   5.00000000E-01  -5.31888168E+04   2.29393635E+03   0.00000000E+00   1.97018145E+04   5.52456188E+03   2.13322818E+03   7.19359504E+00   0.00000000E+00   0.00000000E+00   0.00000000E+00   0.00000000E+00   4.12386164E+01   1.36530526E+03   4.92016298E+03   0.00000000E+00   0.00000000E+00   0.00000000E+00   0.00000000E+00   1.91116952E+04
   2.43250000E+03   5.00000000E-01   5.00000000E-01  -5.31893444E+04   2.29393562E+03   0.00000000E+00   1.97025531E+04   5.50125155E+03   2.13321752E+03   7.19357670E+00   0.00000000E+00   0.00000000E+00   0.00000000E+00   0.00000000E+00   4.09458001E+01   1.36467215E+03   4.89685268E+03   0.00000000E+00   0.00000000E+00   0.00000000E+00   0.00000000E+00   1.91105853E+04
   2.46750000E+03   5.00000000E-01   5.00000000E-01  -5.31904668E+04   2.29393484E+03   0.00000000E+00   1.97036163E+04   5.47872025E+03   2.13320712E+03   7.19355712E+00   0.00000000E+00   0.00000000E+00   0.00000000E+00   0.00000000E+00   4.06360355E+01   1.36400099E+03   4.87432141E+03   0.00000000E+00   0.00000000E+00   0.00000000E+00   0.00000000E+00   1.91096608E+04
   2.50250000E+03   5.00000000E-01   5.00000000E-01  -5.31921886E+04   2.29393400E+03   0.00000000E+00   1.97050061E+04   5.45694765E+03   2.13319700E+03   7.19353656E+00   0.00000000E+00   0.00000000E+00   0.00000000E+00   0.00000000E+00   4.03094201E+01   1.36329272E+03   4.85254885E+03   0.00000000E+00   0.00000000E+00   0.00000000E+00   0.00000000E+00   1.91089277E+04
   2.53750000E+03   5.00000000E-01   5.00000000E-01  -5.31945170E+04   2.29393311E+03   0.00000000E+00   1.97067255E+04   5.43591386E+03   2.13318718E+03   7.19351537E+00   0.00000000E+00   0.00000000E+00   0.00000000E+00   0.00000000E+00   3.99660476E+01   1.36254826E+03   4.83151510E+03   0.00000000E+00   0.00000000E+00   0.00000000E+00   0.00000000E+00   1.91083934E+04
   2.57250000E+03   5.00000000E-01   5.00000000E-01  -5.31974618E+04   2.29393215E+03   0.00000000E+00   1.97087788E+04   5.41559943E+03   2.13317766E+03   7.19349399E+00   0.00000000E+00   0.00000000E+00   0.00000000E+00   0.00000000E+00   3.96060112E+01   1.36176846E+03   4.81120071E+03   0.00000000E+00   0.00000000E+00   0.00000000E+00   0.00000000E+00   1.91080661E+04
   2.60750000E+03   5.00000000E-01   5.00000000E-01  -5.32010349E+04   2.29393113E+03   0.00000000E+00   1.97111717E+04   5.39598532E+03   2.13316846E+03   7.19347294E+00   0.00000000E+00   0.00000000E+00   0.00000000E+00   0.00000000E+00   3.92294028E+01   1.36095412E+03   4.79158663E+03   0.00000000E+00   0.00000000E+00   0.00000000E+00   0.00000000E+00   1.91079552E+04
   2.64250000E+03   5.00000000E-01   5.00000000E-01  -5.32052508E+04   2.29393004E+03   0.00000000E+00   1.97139108E+04   5.37705283E+03   2.13315958E+03   7.19345276E+00   0.00000000E+00   0.00000000E+00   0.00000000E+00   0.00000000E+00   3.88363188E+01   1.36010593E+03   4.77265417E+03   0.00000000E+00   0.00000000E+00   0.00000000E+00   0.00000000E+00   1.91080712E+04
   2.67750000E+03   5.00000000E-01   5.00000000E-01  -5.32101258E+04   2.29392889E+03   0.00000000E+00   1.97170041E+04   5.35878358E+03   2.13315104E+03   7.19343406E+00   0.00000000E+00   0.00000000E+00   0.00000000E+00   0.00000000E+00   3.84268877E+01   1.35922452E+03   4.75438496E+03   0.00000000E+00   0.00000000E+00   0.00000000E+00   0.00000000E+00   1.91084256E+04
   2.71250000E+03   5.00000000E-01   5.00000000E-01  -5.32156780E+04   2.29392765E+03   0.00000000E+00   1.97204601E+04   5.34115956E+03   2.13314284E+03   7.19341737E+00   0.00000000E+00   0.00000000E+00   0.00000000E+00   0.00000000E+00   3.80011983E+01   1.35831044E+03   4.73676097E+03   0.00000000E+00   0.00000000E+00   0.00000000E+00   0.00000000E+00   1.91090299E+04