 TITLE = "Total Component Concentration in Minerals" 
VARIABLES = "X"          "Y"              "Z"            "H+"             "Al+++"          "CO2(aq)"        "Mg++"           "Ca++"           "Fe++"           "Fe+++"          "Ba++"           "Sr++"           "Cl-"            "F-"             "K+"             "HS-"            "Na+"            "SO4--"          "O2(aq)"         "B(OH)3(aq)"     "HPO4--"         "NO3-"           "H4SiO4(aq)"    
 ZONE I=         200 , J=           1 , K=           1  F=POINT
   8.75000000E+00   5.00000000E-01   5.00000000E-01  -4.43420081E+04   3.02039437E+03   0.00000000E+00   9.12550962E+03   1.72038551E+03   6.22338868E+03   7.19372819E+01   0.00000000E+00   0.00000000E+00   0.00000000E+00   0.00000000E+00   4.56086052E-01   1.10804249E-05   9.25989412E+02   1.95099430E-06  -1.95099430E-06   0.00000000E+00   0.00000000E+00   0.00000000E+00   1.51056394E+04
   2.62500000E+01   5.00000000E-01   5.00000000E-01  -4.43747541E+04   3.02036900E+03   0.00000000E+00   9.13959428E+03   1.72062171E+03   6.22356705E+03   7.19372818E+01   0.00000000E+00   0.00000000E+00   0.00000000E+00   0.00000000E+00   2.68849727E+00   1.10804286E-05   9.27580684E+02   1.95099430E-06  -1.95099430E-06   0.00000000E+00   0.00000000E+00   0.00000000E+00   1.51330232E+04
   4.37500000E+01   5.00000000E-01   5.00000000E-01  -4.43701840E+04   3.02036900E+03   0.00000000E+00   9.13467822E+03   1.72073243E+03   6.22371207E+03   7.19372818E+01   0.00000000E+00   0.00000000E+00   0.00000000E+00   0.00000000E+00   3.28235995E+00   1.10804301E-05   9.31737368E+02   1.95099430E-06  -1.95099430E-06   0.00000000E+00   0.00000000E+00   0.00000000E+00   1.51466361E+04
   6.12500000E+01   5.00000000E-01   5.00000000E-01  -4.43616136E+04   3.02036900E+03   0.00000000E+00   9.12683060E+03   1.72082071E+03   6.22386980E+03   7.19372818E+01   0.00000000E+00   0.00000000E+00   0.00000000E+00   0.00000000E+00   4.01263649E+00   1.10804314E-05   9.37639868E+02   1.95099430E-06  -1.95099430E-06   0.00000000E+00   0.00000000E+00   0.00000000E+00   1.51646238E+04
   7.87500000E+01   5.00000000E-01   5.00000000E-01  -4.43569923E+04   3.02036900E+03   0.00000000E+00   9.12069351E+03   1.72096908E+03   6.22405581E+03   7.19372818E+01   0.00000000E+00   0.00000000E+00   0.00000000E+00   0.00000000E+00   4.91900921E+00   1.10804324E-05   9.43717625E+02   1.95099430E-06  -1.95099430E-06   0.00000000E+00   0.00000000E+00   0.00000000E+00   1.51855716E+04
   9.62500000E+01   5.00000000E-01   5.00000000E-01  -4.43546044E+04   3.02036900E+03   0.00000000E+00   9.11606525E+03   1.72115533E+03   6.22427523E+03   7.19372818E+01   0.00000000E+00   0.00000000E+00   0.00000000E+00   0.00000000E+00   5.67872448E+00   1.10804333E-05   9.49015290E+02   1.95099430E-06  -1.95099430E-06   0.00000000E+00   0.00000000E+00   0.00000000E+00   1.52044912E+04
   1.13750000E+02   5.00000000E-01   5.00000000E-01  -4.43531822E+04   3.02036900E+03   0.00000000E+00   9.11262708E+03   1.72135658E+03   6.22452875E+03   7.19372818E+01   0.00000000E+00   0.00000000E+00   0.00000000E+00   0.00000000E+00   6.14298933E+00   1.10804341E-05   9.53095551E+02   1.95099430E-06  -1.95099430E-06   0.00000000E+00   0.00000000E+00   0.00000000E+00   1.52188694E+04
   1.31250000E+02   5.00000000E-01   5.00000000E-01  -4.43523322E+04   3.02036900E+03   0.00000000E+00   9.11020614E+03   1.72155923E+03   6.22481773E+03   7.19372818E+01   0.00000000E+00   0.00000000E+00   0.00000000E+00   0.00000000E+00   6.31289740E+00   1.10804348E-05   9.55934316E+02   1.95099430E-06  -1.95099430E-06   0.00000000E+00   0.00000000E+00   0.00000000E+00   1.52284427E+04
   1.48750000E+02   5.00000000E-01   5.00000000E-01  -4.43519084E+04   3.02036900E+03   0.00000000E+00   9.10860456E+03   1.72175624E+03   6.22514500E+03   7.19372818E+01   0.00000000E+00   0.00000000E+00   0.00000000E+00   0.00000000E+00   6.24878126E+00   1.10804353E-05   9.57729219E+02   1.95099430E-06  -1.95099430E-06   0.00000000E+00   0.00000000E+00   0.00000000E+00   1.52339864E+04
   1.66250000E+02   5.00000000E-01   5.00000000E-01  -4.43518765E+04   3.02036900E+03   0.00000000E+00   9.10762824E+03   1.72194371E+03   6.22551259E+03   7.19372818E+01   0.00000000E+00   0.00000000E+00   0.00000000E+00   0.00000000E+00   6.02919048E+00   1.10804357E-05   9.58759351E+02   1.95099430E-06  -1.95099430E-06   0.00000000E+00   0.00000000E+00   0.00000000E+00   1.52366565E+04
   1.83750000E+02   5.00000000E-01   5.00000000E-01  -4.43522263E+04   3.02036900E+03   0.00000000E+00   9.10710356E+03   1.72211921E+03   6.22591934E+03   7.19372818E+01   0.00000000E+00   0.00000000E+00   0.00000000E+00   0.00000000E+00   5.72581854E+00   1.10804361E-05   9.59297415E+02   1.95099430E-06  -1.95099430E-06   0.00000000E+00   0.00000000E+00   0.00000000E+00   1.52375786E+04
   2.01250000E+02   5.00000000E-01   5.00000000E-01  -4.43528101E+04   3.02036900E+03   0.00000000E+00   9.10685251E+03   1.72228429E+03   6.22636413E+03   7.19372818E+01   0.00000000E+00   0.00000000E+00   0.00000000E+00   0.00000000E+00   5.37542258E+00   1.10804363E-05   9.59514004E+02   1.95099430E-06  -1.95099430E-06   0.00000000E+00   0.00000000E+00   0.00000000E+00   1.52373700E+04
   2.18750000E+02   5.00000000E-01   5.00000000E-01  -4.43535144E+04   3.02036900E+03   0.00000000E+00   9.10675731E+03   1.72244423E+03   6.22684652E+03   7.19372818E+01   0.00000000E+00   0.00000000E+00   0.00000000E+00   0.00000000E+00   4.99717705E+00   1.10804364E-05   9.59502273E+02   1.95099430E-06  -1.95099430E-06   0.00000000E+00   0.00000000E+00   0.00000000E+00   1.52363540E+04
   2.36250000E+02   5.00000000E-01   5.00000000E-01  -4.43543780E+04   3.02036900E+03   0.00000000E+00   9.10678074E+03   1.72260410E+03   6.22736122E+03   7.19372818E+01   0.00000000E+00   0.00000000E+00   0.00000000E+00   0.00000000E+00   4.61369241E+00   1.10804364E-05   9.59353325E+02   1.95099430E-06  -1.95099430E-06   0.00000000E+00   0.00000000E+00   0.00000000E+00   1.52349282E+04
   2.53750000E+02   5.00000000E-01   5.00000000E-01  -4.43553159E+04   3.02036900E+03   0.00000000E+00   9.10685908E+03   1.72276846E+03   6.22790298E+03   7.19372818E+01   0.00000000E+00   0.00000000E+00   0.00000000E+00   0.00000000E+00   4.23173755E+00   1.10804363E-05   9.59104298E+02   1.95099430E-06  -1.95099430E-06   0.00000000E+00   0.00000000E+00   0.00000000E+00   1.52332050E+04
   2.71250000E+02   5.00000000E-01   5.00000000E-01  -4.43563043E+04   3.02036900E+03   0.00000000E+00   9.10696966E+03   1.72293919E+03   6.22846614E+03   7.19372818E+01   0.00000000E+00   0.00000000E+00   0.00000000E+00   0.00000000E+00   3.85783388E+00   1.10804361E-05   9.58777628E+02   1.95099430E-06  -1.95099430E-06   0.00000000E+00   0.00000000E+00   0.00000000E+00   1.52312727E+04
   2.88750000E+02   5.00000000E-01   5.00000000E-01  -4.43573396E+04   3.02036900E+03   0.00000000E+00   9.10710581E+03   1.72311446E+03   6.22904534E+03   7.19372818E+01   0.00000000E+00   0.00000000E+00   0.00000000E+00   0.00000000E+00   3.49818455E+00   1.10804359E-05   9.58391343E+02   1.95099430E-06  -1.95099430E-06   0.00000000E+00   0.00000000E+00   0.00000000E+00   1.52292099E+04
   3.06250000E+02   5.00000000E-01   5.00000000E-01  -4.43584217E+04   3.02036900E+03   0.00000000E+00   9.10726592E+03   1.72328961E+03   6.22963656E+03   7.19372818E+01   0.00000000E+00   0.00000000E+00   0.00000000E+00   0.00000000E+00   3.15791765E+00   1.10804355E-05   9.57960783E+02   1.95099430E-06  -1.95099430E-06   0.00000000E+00   0.00000000E+00   0.00000000E+00   1.52270814E+04
   3.23750000E+02   5.00000000E-01   5.00000000E-01  -4.43595512E+04   3.02036900E+03   0.00000000E+00   9.10744977E+03   1.72345890E+03   6.23023772E+03   7.19372818E+01   0.00000000E+00   0.00000000E+00   0.00000000E+00   0.00000000E+00   2.84069438E+00   1.10804352E-05   9.57498921E+02   1.95099430E-06  -1.95099430E-06   0.00000000E+00   0.00000000E+00   0.00000000E+00   1.52249378E+04
   3.41250000E+02   5.00000000E-01   5.00000000E-01  -4.43607287E+04   3.02036900E+03   0.00000000E+00   9.10765667E+03   1.72361732E+03   6.23084847E+03   7.19372818E+01   0.00000000E+00   0.00000000E+00   0.00000000E+00   0.00000000E+00   2.54858632E+00   1.10804347E-05   9.57016342E+02   1.95099430E-06  -1.95099430E-06   0.00000000E+00   0.00000000E+00   0.00000000E+00   1.52228168E+04
   3.58750000E+02   5.00000000E-01   5.00000000E-01  -4.43619495E+04   3.02036900E+03   0.00000000E+00   9.10788309E+03   1.72376157E+03   6.23146970E+03   7.19372818E+01   0.00000000E+00   0.00000000E+00   0.00000000E+00   0.00000000E+00   2.28201607E+00   1.10804343E-05   9.56519997E+02   1.95099430E-06  -1.95099430E-06   0.00000000E+00   0.00000000E+00   0.00000000E+00   1.52207374E+04
   3.76250000E+02   5.00000000E-01   5.00000000E-01  -4.43632100E+04   3.02036900E+03   0.00000000E+00   9.10812523E+03   1.72389023E+03   6.23210276E+03   7.19372818E+01   0.00000000E+00   0.00000000E+00   0.00000000E+00   0.00000000E+00   2.04036256E+00   1.10804338E-05   9.56014405E+02   1.95099430E-06  -1.95099430E-06   0.00000000E+00   0.00000000E+00   0.00000000E+00   1.52187089E+04
   3.93750000E+02   5.00000000E-01   5.00000000E-01  -4.43645035E+04   3.02036900E+03   0.00000000E+00   9.10837797E+03   1.72400351E+03   6.23274892E+03   7.19372818E+01   0.00000000E+00   0.00000000E+00   0.00000000E+00   0.00000000E+00   1.82222521E+00   1.10804333E-05   9.55501601E+02   1.95099430E-06  -1.95099430E-06   0.00000000E+00   0.00000000E+00   0.00000000E+00   1.52167301E+04
   4.11250000E+02   5.00000000E-01   5.00000000E-01  -4.43658230E+04   3.02036900E+03   0.00000000E+00   9.10863636E+03   1.72410280E+03   6.23340898E+03   7.19372818E+01   0.00000000E+00   0.00000000E+00   0.00000000E+00   0.00000000E+00   1.62583134E+00   1.10804327E-05   9.54982048E+02   1.95099430E-06  -1.95099430E-06   0.00000000E+00   0.00000000E+00   0.00000000E+00   1.52147945E+04
   4.28750000E+02   5.00000000E-01   5.00000000E-01  -4.43671629E+04   3.02036900E+03   0.00000000E+00   9.10889642E+03   1.72419028E+03   6.23408287E+03   7.19372818E+01   0.00000000E+00   0.00000000E+00   0.00000000E+00   0.00000000E+00   1.44930790E+00   1.10804322E-05   9.54455565E+02   1.95099430E-06  -1.95099430E-06   0.00000000E+00   0.00000000E+00   0.00000000E+00   1.52128948E+04
   4.46250000E+02   5.00000000E-01   5.00000000E-01  -4.43685166E+04   3.02036900E+03   0.00000000E+00   9.10915448E+03   1.72426867E+03   6.23476961E+03   7.19372818E+01   0.00000000E+00   0.00000000E+00   0.00000000E+00   0.00000000E+00   1.29076771E+00   1.10804316E-05   9.53921449E+02   1.95099430E-06  -1.95099430E-06   0.00000000E+00   0.00000000E+00   0.00000000E+00   1.52110222E+04
   4.63750000E+02   5.00000000E-01   5.00000000E-01  -4.43698780E+04   3.02036900E+03   0.00000000E+00   9.10940769E+03   1.72434102E+03   6.23546722E+03   7.19372818E+01   0.00000000E+00   0.00000000E+00   0.00000000E+00   0.00000000E+00   1.14841785E+00   1.10804310E-05   9.53378895E+02   1.95099430E-06  -1.95099430E-06   0.00000000E+00   0.00000000E+00   0.00000000E+00   1.52091690E+04
   4.81250000E+02   5.00000000E-01   5.00000000E-01  -4.43712419E+04   3.02036900E+03   0.00000000E+00   9.10965430E+03   1.72441052E+03   6.23617274E+03   7.19372818E+01   0.00000000E+00   0.00000000E+00   0.00000000E+00   0.00000000E+00   1.02061435E+00   1.10804304E-05   9.52827342E+02   1.95099430E-06  -1.95099430E-06   0.00000000E+00   0.00000000E+00   0.00000000E+00   1.52073295E+04
   4.98750000E+02   5.00000000E-01   5.00000000E-01  -4.43724581E+04   3.02036900E+03   0.00000000E+00   9.10982847E+03   1.72448035E+03   6.23689321E+03   7.19372818E+01   0.00000000E+00   0.00000000E+00   0.00000000E+00   0.00000000E+00   9.03309425E-01   1.10804299E-05   9.52231908E+02   1.95099430E-06  -1.95099430E-06   0.00000000E+00   0.00000000E+00   0.00000000E+00   1.52053087E+04
   5.16250000E+02   5.00000000E-01   5.00000000E-01  -4.43737624E+04   3.02036900E+03   0.00000000E+00   9.11003574E+03   1.72455451E+03   6.23761827E+03   7.19372818E+01   0.00000000E+00   0.00000000E+00   0.00000000E+00   0.00000000E+00   7.99032768E-01   1.10804293E-05   9.51627482E+02   1.95099430E-06  -1.95099430E-06   0.00000000E+00   0.00000000E+00   0.00000000E+00   1.52033425E+04
   5.33750000E+02   5.00000000E-01   5.00000000E-01  -4.43750940E+04   3.02036900E+03   0.00000000E+00   9.11024973E+03   1.72463534E+03   6.23834001E+03   7.19372818E+01   0.00000000E+00   0.00000000E+00   0.00000000E+00   0.00000000E+00   7.06013872E-01   1.10804287E-05   9.51018998E+02   1.95099430E-06  -1.95099430E-06   0.00000000E+00   0.00000000E+00   0.00000000E+00   1.52014192E+04
   5.51250000E+02   5.00000000E-01   5.00000000E-01  -4.43764151E+04   3.02036900E+03   0.00000000E+00   9.11045632E+03   1.72472438E+03   6.23905283E+03   7.19372818E+01   0.00000000E+00   0.00000000E+00   0.00000000E+00   0.00000000E+00   6.22807903E-01   1.10804281E-05   9.50406468E+02   1.95099430E-06  -1.95099430E-06   0.00000000E+00   0.00000000E+00   0.00000000E+00   1.51995209E+04
   5.68750000E+02   5.00000000E-01   5.00000000E-01  -4.43777138E+04   3.02036900E+03   0.00000000E+00   9.11065333E+03   1.72482210E+03   6.23975242E+03   7.19372818E+01   0.00000000E+00   0.00000000E+00   0.00000000E+00   0.00000000E+00   5.48407532E-01   1.10804276E-05   9.49790847E+02   1.95099430E-06  -1.95099430E-06   0.00000000E+00   0.00000000E+00   0.00000000E+00   1.51976440E+04
   5.86250000E+02   5.00000000E-01   5.00000000E-01  -4.43789836E+04   3.02036900E+03   0.00000000E+00   9.11084082E+03   1.72492773E+03   6.24043587E+03   7.19372818E+01   0.00000000E+00   0.00000000E+00   0.00000000E+00   0.00000000E+00   4.81998245E-01   1.10804270E-05   9.49173969E+02   1.95099430E-06  -1.95099430E-06   0.00000000E+00   0.00000000E+00   0.00000000E+00   1.51957897E+04
   6.03750000E+02   5.00000000E-01   5.00000000E-01  -4.43802195E+04   3.02036900E+03   0.00000000E+00   9.11101864E+03   1.72503938E+03   6.24110173E+03   7.19372818E+01   0.00000000E+00   0.00000000E+00   0.00000000E+00   0.00000000E+00   4.22874828E-01   1.10804265E-05   9.48558328E+02   1.95099430E-06  -1.95099430E-06   0.00000000E+00   0.00000000E+00   0.00000000E+00   1.51939603E+04
   6.21250000E+02   5.00000000E-01   5.00000000E-01  -4.43814166E+04   3.02036900E+03   0.00000000E+00   9.11118597E+03   1.72515443E+03   6.24174992E+03   7.19372818E+01   0.00000000E+00   0.00000000E+00   0.00000000E+00   0.00000000E+00   3.70397574E-01   1.10804259E-05   9.47946808E+02   1.95099430E-06  -1.95099430E-06   0.00000000E+00   0.00000000E+00   0.00000000E+00   1.51921588E+04
   6.38750000E+02   5.00000000E-01   5.00000000E-01  -4.43825702E+04   3.02036900E+03   0.00000000E+00   9.11134123E+03   1.72526996E+03   6.24238134E+03   7.19372818E+01   0.00000000E+00   0.00000000E+00   0.00000000E+00   0.00000000E+00   3.23964659E-01   1.10804254E-05   9.47342390E+02   1.95099430E-06  -1.95099430E-06   0.00000000E+00   0.00000000E+00   0.00000000E+00   1.51903882E+04
   6.56250000E+02   5.00000000E-01   5.00000000E-01  -4.43836756E+04   3.02036900E+03   0.00000000E+00   9.11148234E+03   1.72538323E+03   6.24299737E+03   7.19372818E+01   0.00000000E+00   0.00000000E+00   0.00000000E+00   0.00000000E+00   2.82997963E-01   1.10804249E-05   9.46747884E+02   1.95099430E-06  -1.95099430E-06   0.00000000E+00   0.00000000E+00   0.00000000E+00   1.51886505E+04
   6.73750000E+02   5.00000000E-01   5.00000000E-01  -4.43847280E+04   3.02036900E+03   0.00000000E+00   9.11160707E+03   1.72549196E+03   6.24359922E+03   7.19372818E+01   0.00000000E+00   0.00000000E+00   0.00000000E+00   0.00000000E+00   2.46941280E-01   1.10804244E-05   9.46165775E+02   1.95099430E-06  -1.95099430E-06   0.00000000E+00   0.00000000E+00   0.00000000E+00   1.51869477E+04
   6.91250000E+02   5.00000000E-01   5.00000000E-01  -4.43857227E+04   3.02036900E+03   0.00000000E+00   9.11171319E+03   1.72559453E+03   6.24418756E+03   7.19372818E+01   0.00000000E+00   0.00000000E+00   0.00000000E+00   0.00000000E+00   2.15262843E-01   1.10804240E-05   9.45598076E+02   1.95099430E-06  -1.95099430E-06   0.00000000E+00   0.00000000E+00   0.00000000E+00   1.51852807E+04
   7.08750000E+02   5.00000000E-01   5.00000000E-01  -4.43866550E+04   3.02036900E+03   0.00000000E+00   9.11179904E+03   1.72569003E+03   6.24476208E+03   7.19372818E+01   0.00000000E+00   0.00000000E+00   0.00000000E+00   0.00000000E+00   1.87465358E-01   1.10804235E-05   9.45046386E+02   1.96076146E-06  -1.95099430E-06   0.00000000E+00   0.00000000E+00   0.00000000E+00   1.51836504E+04
   7.26250000E+02   5.00000000E-01   5.00000000E-01  -4.43875204E+04   3.02036900E+03   0.00000000E+00   9.11186375E+03   1.72577817E+03   6.24532137E+03   7.19372818E+01   0.00000000E+00   0.00000000E+00   0.00000000E+00   0.00000000E+00   1.63091729E-01   1.10804231E-05   9.44511947E+02   1.98984494E-06  -1.95099430E-06   0.00000000E+00   0.00000000E+00   0.00000000E+00   1.51820578E+04
   7.43750000E+02   5.00000000E-01   5.00000000E-01  -4.43883150E+04   3.02036900E+03   0.00000000E+00   9.11190730E+03   1.72585923E+03   6.24586283E+03   7.19372818E+01   0.00000000E+00   0.00000000E+00   0.00000000E+00   0.00000000E+00   1.41728299E-01   1.10804226E-05   9.43995708E+02   2.04133724E-06  -1.95099430E-06   0.00000000E+00   0.00000000E+00   0.00000000E+00   1.51805040E+04
   7.61250000E+02   5.00000000E-01   5.00000000E-01  -4.43890347E+04   3.02036900E+03   0.00000000E+00   9.11193055E+03   1.72593391E+03   6.24638276E+03   7.19372818E+01   0.00000000E+00   0.00000000E+00   0.00000000E+00   0.00000000E+00   1.23005748E-01   1.10804222E-05   9.43498398E+02   2.12664383E-06  -1.95099430E-06   0.00000000E+00   0.00000000E+00   0.00000000E+00   1.51789906E+04
   7.78750000E+02   5.00000000E-01   5.00000000E-01  -4.43896758E+04   3.02036900E+03   0.00000000E+00   9.11193517E+03   1.72600323E+03   6.24687651E+03   7.19372818E+01   0.00000000E+00   0.00000000E+00   0.00000000E+00   0.00000000E+00   1.06598067E-01   1.10804218E-05   9.43020594E+02   2.26201149E-06  -1.95099430E-06   0.00000000E+00   0.00000000E+00   0.00000000E+00   1.51775193E+04
   7.96250000E+02   5.00000000E-01   5.00000000E-01  -4.43902351E+04   3.02036900E+03   0.00000000E+00   9.11192352E+03   1.72606837E+03   6.24733876E+03   7.19372818E+01   0.00000000E+00   0.00000000E+00   0.00000000E+00   0.00000000E+00   9.22202266E-02   1.10804214E-05   9.42562784E+02   2.47043761E-06  -1.95099430E-06   0.00000000E+00   0.00000000E+00   0.00000000E+00   1.51760926E+04
   8.13750000E+02   5.00000000E-01   5.00000000E-01  -4.43907092E+04   3.02036900E+03   0.00000000E+00   9.11189840E+03   1.72613050E+03   6.24776376E+03   7.19372818E+01   0.00000000E+00   0.00000000E+00   0.00000000E+00   0.00000000E+00   7.96248092E-02   1.10804211E-05   9.42125406E+02   2.78431379E-06  -1.95099430E-06   0.00000000E+00   0.00000000E+00   0.00000000E+00   1.51747127E+04
   8.31250000E+02   5.00000000E-01   5.00000000E-01  -4.43910945E+04   3.02036899E+03   0.00000000E+00   9.11186274E+03   1.72619058E+03   6.24814577E+03   7.19372818E+01   0.00000000E+00   0.00000000E+00   0.00000000E+00   0.00000000E+00   6.85979219E-02   1.10804207E-05   9.41708867E+02   3.24908553E-06  -1.95099430E-06   0.00000000E+00   0.00000000E+00   0.00000000E+00   1.51733820E+04
   8.48750000E+02   5.00000000E-01   5.00000000E-01  -4.43913870E+04   3.02036899E+03   0.00000000E+00   9.11181919E+03   1.72624923E+03   6.24847946E+03   7.19372818E+01   0.00000000E+00   0.00000000E+00   0.00000000E+00   0.00000000E+00   5.89548514E-02   1.10804204E-05   9.41313531E+02   3.92832003E-06  -1.95099430E-06   0.00000000E+00   0.00000000E+00   0.00000000E+00   1.51721018E+04
   8.66250000E+02   5.00000000E-01   5.00000000E-01  -4.43915824E+04   3.02036899E+03   0.00000000E+00   9.11176980E+03   1.72630656E+03   6.24876032E+03   7.19372818E+01   0.00000000E+00   0.00000000E+00   0.00000000E+00   0.00000000E+00   5.05358552E-02   1.10804200E-05   9.40939699E+02   4.91072698E-06  -1.95099430E-06   0.00000000E+00   0.00000000E+00   0.00000000E+00   1.51708724E+04
   8.83750000E+02   5.00000000E-01   5.00000000E-01  -4.43916353E+04   3.02036899E+03   0.00000000E+00   9.11169999E+03   1.72635682E+03   6.24898961E+03   7.19372818E+01   0.00000000E+00   0.00000000E+00   0.00000000E+00   0.00000000E+00   4.31546385E-02   1.10804197E-05   9.40580531E+02   6.31990846E-06  -1.95099430E-06   0.00000000E+00   0.00000000E+00   0.00000000E+00   1.51696451E+04
   9.01250000E+02   5.00000000E-01   5.00000000E-01  -4.43916162E+04   3.02036899E+03   0.00000000E+00   9.11164102E+03   1.72640549E+03   6.24916175E+03   7.19372818E+01   0.00000000E+00   0.00000000E+00   0.00000000E+00   0.00000000E+00   3.67898683E-02   1.10804194E-05   9.40244071E+02   8.32785691E-06  -1.95099430E-06   0.00000000E+00   0.00000000E+00   0.00000000E+00   1.51684845E+04
   9.18750000E+02   5.00000000E-01   5.00000000E-01  -4.43915000E+04   3.02036899E+03   0.00000000E+00   9.11158316E+03   1.72645136E+03   6.24927502E+03   7.19372818E+01   0.00000000E+00   0.00000000E+00   0.00000000E+00   0.00000000E+00   3.12965881E-02   1.10804191E-05   9.39930813E+02   1.11737260E-05  -1.95099430E-06   0.00000000E+00   0.00000000E+00   0.00000000E+00   1.51673805E+04
   9.36250000E+02   5.00000000E-01   5.00000000E-01  -4.43912674E+04   3.02036899E+03   0.00000000E+00   9.11151826E+03   1.72649184E+03   6.24933110E+03   7.19372818E+01   0.00000000E+00   0.00000000E+00   0.00000000E+00   0.00000000E+00   2.65571285E-02   1.10804188E-05   9.39639692E+02   1.51899424E-05  -1.95099430E-06   0.00000000E+00   0.00000000E+00   0.00000000E+00   1.51663174E+04
   9.53750000E+02   5.00000000E-01   5.00000000E-01  -4.43909142E+04   3.02036899E+03   0.00000000E+00   9.11144346E+03   1.72652481E+03   6.24933326E+03   7.19372818E+01   0.00000000E+00   0.00000000E+00   0.00000000E+00   0.00000000E+00   2.24820324E-02   1.10804186E-05   9.39369915E+02   2.08385728E-05  -1.95099430E-06   0.00000000E+00   0.00000000E+00   0.00000000E+00   1.51652873E+04
   9.71250000E+02   5.00000000E-01   5.00000000E-01  -4.43904410E+04   3.02036899E+03   0.00000000E+00   9.11135700E+03   1.72654851E+03   6.24928577E+03   7.19372818E+01   0.00000000E+00   0.00000000E+00   0.00000000E+00   0.00000000E+00   1.89925902E-02   1.10804183E-05   9.39120646E+02   2.87620558E-05  -1.95099430E-06   0.00000000E+00   0.00000000E+00   0.00000000E+00   1.51642844E+04
   9.88750000E+02   5.00000000E-01   5.00000000E-01  -4.43898506E+04   3.02036899E+03   0.00000000E+00   9.11125740E+03   1.72656163E+03   6.24919344E+03   7.19372818E+01   0.00000000E+00   0.00000000E+00   0.00000000E+00   0.00000000E+00   1.60165431E-02   1.10804181E-05   9.38890912E+02   3.98540871E-05  -1.95099430E-06   0.00000000E+00   0.00000000E+00   0.00000000E+00   1.51633034E+04
   1.00625000E+03   5.00000000E-01   5.00000000E-01  -4.43891481E+04   3.02036899E+03   0.00000000E+00   9.11114353E+03   1.72656334E+03   6.24906128E+03   7.19372818E+01   0.00000000E+00   0.00000000E+00   0.00000000E+00   0.00000000E+00   1.34873846E-02   1.10804179E-05   9.38679601E+02   5.53588350E-05  -1.95099430E-06   0.00000000E+00   0.00000000E+00   0.00000000E+00   1.51623399E+04
   1.02375000E+03   5.00000000E-01   5.00000000E-01  -4.43883402E+04   3.02036899E+03   0.00000000E+00   9.11101480E+03   1.72655334E+03   6.24889424E+03   7.19372818E+01   0.00000000E+00   0.00000000E+00   0.00000000E+00   0.00000000E+00   1.13445176E-02   1.10804176E-05   9.38485498E+02   7.70100652E-05  -1.95099430E-06   0.00000000E+00   0.00000000E+00   0.00000000E+00   1.51613907E+04
   1.04125000E+03   5.00000000E-01   5.00000000E-01  -4.43874352E+04   3.02036899E+03   0.00000000E+00   9.11087114E+03   1.72653181E+03   6.24869693E+03   7.19372818E+01   0.00000000E+00   0.00000000E+00   0.00000000E+00   0.00000000E+00   9.53320123E-03   1.10804174E-05   9.38307311E+02   1.07226604E-04  -1.95099430E-06   0.00000000E+00   0.00000000E+00   0.00000000E+00   1.51604533E+04
   1.05875000E+03   5.00000000E-01   5.00000000E-01  -4.43864423E+04   3.02036899E+03   0.00000000E+00   9.11071320E+03   1.72649932E+03   6.24847352E+03   7.19372818E+01   0.00000000E+00   0.00000000E+00   0.00000000E+00   0.00000000E+00   8.00501953E-03   1.10804173E-05   9.38143749E+02   1.49387513E-04  -1.95099430E-06   0.00000000E+00   0.00000000E+00   0.00000000E+00   1.51595263E+04
   1.07625000E+03   5.00000000E-01   5.00000000E-01  -4.43853719E+04   3.02036899E+03   0.00000000E+00   9.11054222E+03   1.72645674E+03   6.24822766E+03   7.19372818E+01   0.00000000E+00   0.00000000E+00   0.00000000E+00   0.00000000E+00   6.71754683E-03   1.10804171E-05   9.37993547E+02   2.08220292E-04  -1.95099430E-06   0.00000000E+00   0.00000000E+00   0.00000000E+00   1.51586094E+04
   1.09375000E+03   5.00000000E-01   5.00000000E-01  -4.43842344E+04   3.02036899E+03   0.00000000E+00   9.11035992E+03   1.72640516E+03   6.24796245E+03   7.19372818E+01   0.00000000E+00   0.00000000E+00   0.00000000E+00   0.00000000E+00   5.63399440E-03   1.10804169E-05   9.37855495E+02   2.90349744E-04  -1.95099430E-06   0.00000000E+00   0.00000000E+00   0.00000000E+00   1.51577028E+04
   1.11125000E+03   5.00000000E-01   5.00000000E-01  -4.43830405E+04   3.02036899E+03   0.00000000E+00   9.11016838E+03   1.72634575E+03   6.24768054E+03   7.19372818E+01   0.00000000E+00   0.00000000E+00   0.00000000E+00   0.00000000E+00   4.72275682E-03   1.10804167E-05   9.37728457E+02   4.05075743E-04  -1.95099430E-06   0.00000000E+00   0.00000000E+00   0.00000000E+00   1.51568074E+04
   1.12875000E+03   5.00000000E-01   5.00000000E-01  -4.43818007E+04   3.02036899E+03   0.00000000E+00   9.10996996E+03   1.72627975E+03   6.24738413E+03   7.19372818E+01   0.00000000E+00   0.00000000E+00   0.00000000E+00   0.00000000E+00   3.95690810E-03   1.10804166E-05   9.37611379E+02   5.65477943E-04  -1.95099430E-06   0.00000000E+00   0.00000000E+00   0.00000000E+00   1.51559247E+04
   1.14625000E+03   5.00000000E-01   5.00000000E-01  -4.43805250E+04   3.02036899E+03   0.00000000E+00   9.10976713E+03   1.72620836E+03   6.24707509E+03   7.19372818E+01   0.00000000E+00   0.00000000E+00   0.00000000E+00   0.00000000E+00   3.31364720E-03   1.10804165E-05   9.37503292E+02   7.89988615E-04  -1.95099430E-06   0.00000000E+00   0.00000000E+00   0.00000000E+00   1.51550560E+04
   1.16375000E+03   5.00000000E-01   5.00000000E-01  -4.43792231E+04   3.02036899E+03   0.00000000E+00   9.10956246E+03   1.72613272E+03   6.24675503E+03   7.19372818E+01   0.00000000E+00   0.00000000E+00   0.00000000E+00   0.00000000E+00   2.77372007E-03   1.10804163E-05   9.37403301E+02   1.10463750E-03  -1.95099430E-06   0.00000000E+00   0.00000000E+00   0.00000000E+00   1.51542032E+04
   1.18125000E+03   5.00000000E-01   5.00000000E-01  -4.43779040E+04   3.02036899E+03   0.00000000E+00   9.10935843E+03   1.72605392E+03   6.24642536E+03   7.19372818E+01   0.00000000E+00   0.00000000E+00   0.00000000E+00   0.00000000E+00   2.32088210E-03   1.10804162E-05   9.37310580E+02   1.54626380E-03  -1.95099430E-06   0.00000000E+00   0.00000000E+00   0.00000000E+00   1.51533677E+04
   1.19875000E+03   5.00000000E-01   5.00000000E-01  -4.43765763E+04   3.02036899E+03   0.00000000E+00   9.10915743E+03   1.72597296E+03   6.24608737E+03   7.19372818E+01   0.00000000E+00   0.00000000E+00   0.00000000E+00   0.00000000E+00   1.94143446E-03   1.10804161E-05   9.37224352E+02   2.16712383E-03  -1.95099430E-06   0.00000000E+00   0.00000000E+00   0.00000000E+00   1.51525512E+04
   1.21625000E+03   5.00000000E-01   5.00000000E-01  -4.43752477E+04   3.02036899E+03   0.00000000E+00   9.10896168E+03   1.72589076E+03   6.24574228E+03   7.19372818E+01   0.00000000E+00   0.00000000E+00   0.00000000E+00   0.00000000E+00   1.62382139E-03   1.10804160E-05   9.37143880E+02   3.04151776E-03  -1.95099430E-06   0.00000000E+00   0.00000000E+00   0.00000000E+00   1.51517548E+04
   1.23375000E+03   5.00000000E-01   5.00000000E-01  -4.43739254E+04   3.02036899E+03   0.00000000E+00   9.10877319E+03   1.72580820E+03   6.24539126E+03   7.19372818E+01   0.00000000E+00   0.00000000E+00   0.00000000E+00   0.00000000E+00   1.35827527E-03   1.10804159E-05   9.37068457E+02   4.27534552E-03  -1.95099430E-06   0.00000000E+00   0.00000000E+00   0.00000000E+00   1.51509798E+04
   1.25125000E+03   5.00000000E-01   5.00000000E-01  -4.43726162E+04   3.02036899E+03   0.00000000E+00   9.10859385E+03   1.72572616E+03   6.24503547E+03   7.19372818E+01   0.00000000E+00   0.00000000E+00   0.00000000E+00   0.00000000E+00   1.13653097E-03   1.10804158E-05   9.36997394E+02   6.01992282E-03  -1.95099430E-06   0.00000000E+00   0.00000000E+00   0.00000000E+00   1.51502270E+04
   1.26875000E+03   5.00000000E-01   5.00000000E-01  -4.43713259E+04   3.02036898E+03   0.00000000E+00   9.10842512E+03   1.72564540E+03   6.24467604E+03   7.19372818E+01   0.00000000E+00   0.00000000E+00   0.00000000E+00   0.00000000E+00   9.51554430E-04   1.10804157E-05   9.36930024E+02   8.49201085E-03  -1.95099430E-06   0.00000000E+00   0.00000000E+00   0.00000000E+00   1.51494967E+04
   1.28625000E+03   5.00000000E-01   5.00000000E-01  -4.43700599E+04   3.02036898E+03   0.00000000E+00   9.10826841E+03   1.72556683E+03   6.24431410E+03   7.19372818E+01   0.00000000E+00   0.00000000E+00   0.00000000E+00   0.00000000E+00   7.97410203E-04   1.10804156E-05   9.36865698E+02   1.20029303E-02  -1.95099430E-06   0.00000000E+00   0.00000000E+00   0.00000000E+00   1.51487894E+04
   1.30375000E+03   5.00000000E-01   5.00000000E-01  -4.43688233E+04   3.02036898E+03   0.00000000E+00   9.10812491E+03   1.72549137E+03   6.24395074E+03   7.19372818E+01   0.00000000E+00   0.00000000E+00   0.00000000E+00   0.00000000E+00   6.69067319E-04   1.10804155E-05   9.36803791E+02   1.70009937E-02  -1.95099430E-06   0.00000000E+00   0.00000000E+00   0.00000000E+00   1.51481052E+04