 TITLE = "Velocity" 
VARIABLES = "X"          "Y"              "Z"           "X Velocity"     "Y-Velocity"     "Z-Velocity" 
 ZONE I=         200 , J=           1 , K=           1  F=POINT
    8.7500000E+00    5.0000000E-01    5.0000000E-01    1.0000000E+03    0.0000000E+00    0.0000000E+00
    2.6250000E+01    5.0000000E-01    5.0000000E-01    1.0000000E+03    0.0000000E+00    0.0000000E+00
    4.3750000E+01    5.0000000E-01    5.0000000E-01    1.0000000E+03    0.0000000E+00    0.0000000E+00
    6.1250000E+01    5.0000000E-01    5.0000000E-01    1.0000000E+03    0.0000000E+00    0.0000000E+00
    7.8750000E+01    5.0000000E-01    5.0000000E-01    1.0000000E+03    0.0000000E+00    0.0000000E+00
    9.6250000E+01    5.0000000E-01    5.0000000E-01    1.0000000E+03    0.0000000E+00    0.0000000E+00
    1.1375000E+02    5.0000000E-01    5.0000000E-01    1.0000000E+03    0.0000000E+00    0.0000000E+00
    1.3125000E+02    5.0000000E-01    5.0000000E-01    1.0000000E+03    0.0000000E+00    0.0000000E+00
    1.4875000E+02    5.0000000E-01    5.0000000E-01    1.0000000E+03    0.0000000E+00    0.0000000E+00
    1.6625000E+02    5.0000000E-01    5.0000000E-01    1.0000000E+03    0.0000000E+00    0.0000000E+00
    1.8375000E+02    5.0000000E-01    5.0000000E-01    1.0000000E+03    0.0000000E+00    0.0000000E+00
    2.0125000E+02    5.0000000E-01    5.0000000E-01    1.0000000E+03    0.0000000E+00    0.0000000E+00
    2.1875000E+02    5.0000000E-01    5.0000000E-01    1.0000000E+03    0.0000000E+00    0.0000000E+00
    2.3625000E+02    5.0000000E-01    5.0000000E-01    1.0000000E+03    0.0000000E+00    0.0000000E+00
    2.5375000E+02    5.0000000E-01    5.0000000E-01    1.0000000E+03    0.0000000E+00    0.0000000E+00
    2.7125000E+02    5.0000000E-01    5.0000000E-01    1.0000000E+03    0.0000000E+00    0.0000000E+00
    2.8875000E+02    5.0000000E-01    5.0000000E-01    1.0000000E+03    0.0000000E+00    0.0000000E+00
    3.0625000E+02    5.0000000E-01    5.0000000E-01    1.0000000E+03    0.0000000E+00    0.0000000E+00
    3.2375000E+02    5.0000000E-01    5.0000000E-01    1.0000000E+03    0.0000000E+00    0.0000000E+00
    3.4125000E+02    5.0000000E-01    5.0000000E-01    1.0000000E+03    0.0000000E+00    0.0000000E+00
    3.5875000E+02    5.0000000E-01    5.0000000E-01    1.0000000E+03    0.0000000E+00    0.0000000E+00
    3.7625000E+02    5.0000000E-01    5.0000000E-01    1.0000000E+03    0.0000000E+00    0.0000000E+00
    3.9375000E+02    5.0000000E-01    5.0000000E-01    1.0000000E+03    0.0000000E+00    0.0000000E+00
    4.1125000E+02    5.0000000E-01    5.0000000E-01    1.0000000E+03    0.0000000E+00    0.0000000E+00
    4.2875000E+02    5.0000000E-01    5.0000000E-01    1.0000000E+03    0.0000000E+00    0.0000000E+00
    4.4625000E+02    5.0000000E-01    5.0000000E-01    1.0000000E+03    0.0000000E+00    0.0000000E+00
    4.6375000E+02    5.0000000E-01    5.0000000E-01    1.0000000E+03    0.0000000E+00    0.0000000E+00
    4.8125000E+02    5.0000000E-01    5.0000000E-01    1.0000000E+03    0.0000000E+00    0.0000000E+00
    4.9875000E+02    5.0000000E-01    5.0000000E-01    1.0000000E+03    0.0000000E+00    0.0000000E+00
    5.1625000E+02    5.0000000E-01    5.0000000E-01    1.0000000E+03    0.0000000E+00    0.0000000E+00
    5.3375000E+02    5.0000000E-01    5.0000000E-01    1.0000000E+03    0.0000000E+00    0.0000000E+00
    5.5125000E+02    5.0000000E-01    5.0000000E-01    1.0000000E+03    0.0000000E+00    0.0000000E+00
    5.6875000E+02    5.0000000E-01    5.0000000E-01    1.0000000E+03    0.0000000E+00    0.0000000E+00
    5.8625000E+02    5.0000000E-01    5.0000000E-01    1.0000000E+03    0.0000000E+00    0.0000000E+00
    6.0375000E+02    5.0000000E-01    5.0000000E-01    1.0000000E+03    0.0000000E+00    0.0000000E+00
    6.2125000E+02    5.0000000E-01    5.0000000E-01    1.0000000E+03    0.0000000E+00    0.0000000E+00
    6.3875000E+02    5.0000000E-01    5.0000000E-01    1.0000000E+03    0.0000000E+00    0.0000000E+00
    6.5625000E+02    5.0000000E-01    5.0000000E-01    1.0000000E+03    0.0000000E+00    0.0000000E+00
    6.7375000E+02    5.0000000E-01    5.0000000E-01    1.0000000E+03    0.0000000E+00    0.0000000E+00
    6.9125000E+02    5.0000000E-01    5.0000000E-01    1.0000000E+03    0.0000000E+00    0.0000000E+00
    7.0875000E+02    5.0000000E-01    5.0000000E-01    1.0000000E+03    0.0000000E+00    0.0000000E+00
    7.2625000E+02    5.0000000E-01    5.0000000E-01    1.0000000E+03    0.0000000E+00    0.0000000E+00
    7.4375000E+02    5.0000000E-01    5.0000000E-01    1.0000000E+03    0.0000000E+00    0.0000000E+00
    7.6125000E+02    5.0000000E-01    5.0000000E-01    1.0000000E+03    0.0000000E+00    0.0000000E+00
    7.7875000E+02    5.0000000E-01    5.0000000E-01    1.0000000E+03    0.0000000E+00    0.0000000E+00
    7.9625000E+02    5.0000000E-01    5.0000000E-01    1.0000000E+03    0.0000000E+00    0.0000000E+00
    8.1375000E+02    5.0000000E-01    5.0000000E-01    1.0000000E+03    0.0000000E+00    0.0000000E+00
    8.3125000E+02    5.0000000E-01    5.0000000E-01    1.0000000E+03    0.0000000E+00    0.0000000E+00
    8.4875000E+02    5.0000000E-01    5.0000000E-01    1.0000000E+03    0.0000000E+00    0.0000000E+00
    8.6625000E+02    5.0000000E-01    5.0000000E-01    1.0000000E+03    0.0000000E+00    0.0000000E+00
    8.8375000E+02    5.0000000E-01    5.0000000E-01    1.0000000E+03    0.0000000E+00    0.0000000E+00
    9.0125000E+02    5.0000000E-01    5.0000000E-01    1.0000000E+03    0.0000000E+00    0.0000000E+00
    9.1875000E+02    5.0000000E-01    5.0000000E-01    1.0000000E+03    0.0000000E+00    0.0000000E+00
    9.3625000E+02    5.0000000E-01    5.0000000E-01    1.0000000E+03    0.0000000E+00    0.0000000E+00
    9.5375000E+02    5.0000000E-01    5.0000000E-01    1.0000000E+03    0.0000000E+00    0.0000000E+00
    9.7125000E+02    5.0000000E-01    5.0000000E-01    1.0000000E+03    0.0000000E+00    0.0000000E+00
    9.8875000E+02    5.0000000E-01    5.0000000E-01    1.0000000E+03    0.0000000E+00    0.0000000E+00
    1.0062500E+03    5.0000000E-01    5.0000000E-01    1.0000000E+03    0.0000000E+00    0.0000000E+00
    1.0237500E+03    5.0000000E-01    5.0000000E-01    1.0000000E+03    0.0000000E+00    0.0000000E+00
    1.0412500E+03    5.0000000E-01    5.0000000E-01    1.0000000E+03    0.0000000E+00    0.0000000E+00
    1.0587500E+03    5.0000000E-01    5.0000000E-01    1.0000000E+03    0.0000000E+00    0.0000000E+00
    1.0762500E+03    5.0000000E-01    5.0000000E-01    1.0000000E+03    0.0000000E+00    0.0000000E+00
    1.0937500E+03    5.0000000E-01    5.0000000E-01    1.0000000E+03    0.0000000E+00    0.0000000E+00
    1.1112500E+03    5.0000000E-01    5.0000000E-01    1.0000000E+03    0.0000000E+00    0.0000000E+00
    1.1287500E+03    5.0000000E-01    5.0000000E-01    1.0000000E+03    0.0000000E+00    0.0000000E+00
    1.1462500E+03    5.0000000E-01    5.0000000E-01    1.0000000E+03    0.0000000E+00    0.0000000E+00
    1.1637500E+03    5.0000000E-01    5.0000000E-01    1.0000000E+03    0.0000000E+00    0.0000000E+00
    1.1812500E+03    5.0000000E-01    5.0000000E-01    1.0000000E+03    0.0000000E+00    0.0000000E+00
    1.1987500E+03    5.0000000E-01    5.0000000E-01    1.0000000E+03    0.0000000E+00    0.0000000E+00
    1.2162500E+03    5.0000000E-01    5.0000000E-01    1.0000000E+03    0.0000000E+00    0.0000000E+00
    1.2337500E+03    5.0000000E-01    5.0000000E-01    1.0000000E+03    0.0000000E+00    0.0000000E+00
    1.2512500E+03    5.0000000E-01    5.0000000E-01    1.0000000E+03    0.0000000E+00    0.0000000E+00
    1.2687500E+03    5.0000000E-01    5.0000000E-01    1.0000000E+03    0.0000000E+00    0.0000000E+00
    1.2862500E+03    5.0000000E-01    5.0000000E-01    1.0000000E+03    0.0000000E+00    0.0000000E+00
    1.3037500E+03    5.0000000E-01    5.0000000E-01    1.0000000E+03    0.0000000E+00    0.0000000E+00
    1.3212500E+03    5.0000000E-01    5.0000000E-01    1.0000000E+03    0.0000000E+00    0.0000000E+00
    1.3387500E+03    5.0000000E-01    5.0000000E-01    1.0000000E+03    0.0000000E+00    0.0000000E+00
    1.3562500E+03    5.0000000E-01    5.0000000E-01    1.0000000E+03    0.0000000E+00    0.0000000E+00
    1.3737500E+03    5.0000000E-01    5.0000000E-01    1.0000000E+03    0.0000000E+00    0.0000000E+00
    1.3912500E+03    5.0000000E-01    5.0000000E-01    1.0000000E+03    0.0000000E+00    0.0000000E+00
    1.4087500E+03    5.0000000E-01    5.0000000E-01    1.0000000E+03    0.0000000E+00    0.0000000E+00
    1.4262500E+03    5.0000000E-01    5.0000000E-01    1.0000000E+03    0.0000000E+00    0.0000000E+00
    1.4437500E+03    5.0000000E-01    5.0000000E-01    1.0000000E+03    0.0000000E+00    0.0000000E+00
    1.4612500E+03    5.0000000E-01    5.0000000E-01    1.0000000E+03    0.0000000E+00    0.0000000E+00
    1.4787500E+03    5.0000000E-01    5.0000000E-01    1.0000000E+03    0.0000000E+00    0.0000000E+00
    1.4962500E+03    5.0000000E-01    5.0000000E-01    1.0000000E+03    0.0000000E+00    0.0000000E+00
    1.5137500E+03    5.0000000E-01    5.0000000E-01    1.0000000E+03    0.0000000E+00    0.0000000E+00
    1.5312500E+03    5.0000000E-01    5.0000000E-01    1.0000000E+03    0.0000000E+00    0.0000000E+00
    1.5487500E+03    5.0000000E-01    5.0000000E-01    1.0000000E+03    0.0000000E+00    0.0000000E+00
    1.5662500E+03    5.0000000E-01    5.0000000E-01    1.0000000E+03    0.0000000E+00    0.0000000E+00
    1.5837500E+03    5.0000000E-01    5.0000000E-01    1.0000000E+03    0.0000000E+00    0.0000000E+00
    1.6012500E+03    5.0000000E-01    5.0000000E-01    1.0000000E+03    0.0000000E+00    0.0000000E+00
    1.6187500E+03    5.0000000E-01    5.0000000E-01    1.0000000E+03    0.0000000E+00    0.0000000E+00
    1.6362500E+03    5.0000000E-01    5.0000000E-01    1.0000000E+03    0.0000000E+00    0.0000000E+00
    1.6537500E+03    5.0000000E-01    5.0000000E-01    1.0000000E+03    0.0000000E+00    0.0000000E+00
    1.6712500E+03    5.0000000E-01    5.0000000E-01    1.0000000E+03    0.0000000E+00    0.0000000E+00
    1.6887500E+03    5.0000000E-01    5.0000000E-01    1.0000000E+03    0.0000000E+00    0.0000000E+00
    1.7062500E+03    5.0000000E-01    5.0000000E-01    1.0000000E+03    0.0000000E+00    0.0000000E+00
    1.7237500E+03    5.0000000E-01    5.0000000E-01    1.0000000E+03    0.0000000E+00    0.0000000E+00
    1.7412500E+03    5.0000000E-01    5.0000000E-01    1.0000000E+03    0.0000000E+00    0.0000000E+00
    1.7587500E+03    5.0000000E-01    5.0000000E-01    1.0000000E+03    0.0000000E+00    0.0000000E+00
    1.7762500E+03    5.0000000E-01    5.0000000E-01    1.0000000E+03    0.0000000E+00    0.0000000E+00
    1.7937500E+03    5.0000000E-01    5.0000000E-01    1.0000000E+03    0.0000000E+00    0.0000000E+00
    1.8112500E+03    5.0000000E-01    5.0000000E-01    1.0000000E+03    0.0000000E+00    0.0000000E+00
    1.8287500E+03    5.0000000E-01    5.0000000E-01    1.0000000E+03    0.0000000E+00    0.0000000E+00
    1.8462500E+03    5.0000000E-01    5.0000000E-01    1.0000000E+03    0.0000000E+00    0.0000000E+00
    1.8637500E+03    5.0000000E-01    5.0000000E-01    1.0000000E+03    0.0000000E+00    0.0000000E+00
    1.8812500E+03    5.0000000E-01    5.0000000E-01    1.0000000E+03    0.0000000E+00    0.0000000E+00
    1.8987500E+03    5.0000000E-01    5.0000000E-01    1.0000000E+03    0.0000000E+00    0.0000000E+00
    1.9162500E+03    5.0000000E-01    5.0000000E-01    1.0000000E+03    0.0000000E+00    0.0000000E+00
    1.9337500E+03    5.0000000E-01    5.0000000E-01    1.0000000E+03    0.0000000E+00    0.0000000E+00
    1.9512500E+03    5.0000000E-01    5.0000000E-01    1.0000000E+03    0.0000000E+00    0.0000000E+00
    1.9687500E+03    5.0000000E-01    5.0000000E-01    1.0000000E+03    0.0000000E+00    0.0000000E+00
    1.9862500E+03    5.0000000E-01    5.0000000E-01    1.0000000E+03    0.0000000E+00    0.0000000E+00
    2.0037500E+03    5.0000000E-01    5.0000000E-01    1.0000000E+03    0.0000000E+00    0.0000000E+00
    2.0212500E+03    5.0000000E-01    5.0000000E-01    1.0000000E+03    0.0000000E+00    0.0000000E+00
    2.0387500E+03    5.0000000E-01    5.0000000E-01    1.0000000E+03    0.0000000E+00    0.0000000E+00
    2.0562500E+03    5.0000000E-01    5.0000000E-01    1.0000000E+03    0.0000000E+00    0.0000000E+00
    2.0737500E+03    5.0000000E-01    5.0000000E-01    1.0000000E+03    0.0000000E+00    0.0000000E+00
    2.0912500E+03    5.0000000E-01    5.0000000E-01    1.0000000E+03    0.0000000E+00    0.0000000E+00
    2.1087500E+03    5.0000000E-01    5.0000000E-01    1.0000000E+03    0.0000000E+00    0.0000000E+00
    2.1262500E+03    5.0000000E-01    5.0000000E-01    1.0000000E+03    0.0000000E+00    0.0000000E+00
    2.1437500E+03    5.0000000E-01    5.0000000E-01    1.0000000E+03    0.0000000E+00    0.0000000E+00
    2.1612500E+03    5.0000000E-01    5.0000000E-01    1.0000000E+03    0.0000000E+00    0.0000000E+00
    2.1787500E+03    5.0000000E-01    5.0000000E-01    1.0000000E+03    0.0000000E+00    0.0000000E+00
    2.1962500E+03    5.0000000E-01    5.0000000E-01    1.0000000E+03    0.0000000E+00    0.0000000E+00
    2.2137500E+03    5.0000000E-01    5.0000000E-01    1.0000000E+03    0.0000000E+00    0.0000000E+00
    2.2312500E+03    5.0000000E-01    5.0000000E-01    1.0000000E+03    0.0000000E+00    0.0000000E+00
    2.2487500E+03    5.0000000E-01    5.0000000E-01    1.0000000E+03    0.0000000E+00    0.0000000E+00
    2.2662500E+03    5.0000000E-01    5.0000000E-01    1.0000000E+03    0.0000000E+00    0.0000000E+00
    2.2837500E+03    5.0000000E-01    5.0000000E-01    1.0000000E+03    0.0000000E+00    0.0000000E+00
    2.3012500E+03    5.0000000E-01    5.0000000E-01    1.0000000E+03    0.0000000E+00    0.0000000E+00
    2.3187500E+03    5.0000000E-01    5.0000000E-01    1.0000000E+03    0.0000000E+00    0.0000000E+00
    2.3362500E+03    5.0000000E-01    5.0000000E-01    1.0000000E+03    0.0000000E+00    0.0000000E+00
    2.3537500E+03    5.0000000E-01    5.0000000E-01    1.0000000E+03    0.0000000E+00    0.0000000E+00
    2.3712500E+03    5.0000000E-01    5.0000000E-01    1.0000000E+03    0.0000000E+00    0.0000000E+00
    2.3887500E+03    5.0000000E-01    5.0000000E-01    1.0000000E+03    0.0000000E+00    0.0000000E+00
    2.4062500E+03    5.0000000E-01    5.0000000E-01    1.0000000E+03    0.0000000E+00    0.0000000E+00
    2.4237500E+03    5.0000000E-01    5.0000000E-01    1.0000000E+03    0.0000000E+00    0.0000000E+00
    2.4412500E+03    5.0000000E-01    5.0000000E-01    1.0000000E+03    0.0000000E+00    0.0000000E+00
    2.4587500E+03    5.0000000E-01    5.0000000E-01    1.0000000E+03    0.0000000E+00    0.0000000E+00
    2.4762500E+03    5.0000000E-01    5.0000000E-01    1.0000000E+03    0.0000000E+00    0.0000000E+00
    2.4937500E+03    5.0000000E-01    5.0000000E-01    1.0000000E+03    0.0000000E+00    0.0000000E+00
    2.5112500E+03    5.0000000E-01    5.0000000E-01    1.0000000E+03    0.0000000E+00    0.0000000E+00
    2.5287500E+03    5.0000000E-01    5.0000000E-01    1.0000000E+03    0.0000000E+00    0.0000000E+00
    2.5462500E+03    5.0000000E-01    5.0000000E-01    1.0000000E+03    0.0000000E+00    0.0000000E+00
    2.5637500E+03    5.0000000E-01    5.0000000E-01    1.0000000E+03    0.0000000E+00    0.0000000E+00
    2.5812500E+03    5.0000000E-01    5.0000000E-01    1.0000000E+03    0.0000000E+00    0.0000000E+00
    2.5987500E+03    5.0000000E-01    5.0000000E-01    1.0000000E+03    0.0000000E+00    0.0000000E+00
    2.6162500E+03    5.0000000E-01    5.0000000E-01    1.0000000E+03    0.0000000E+00    0.0000000E+00
    2.6337500E+03    5.0000000E-01    5.0000000E-01    1.0000000E+03    0.0000000E+00    0.0000000E+00
    2.6512500E+03    5.0000000E-01    5.0000000E-01    1.0000000E+03    0.0000000E+00    0.0000000E+00
    2.6687500E+03    5.0000000E-01    5.0000000E-01    1.0000000E+03    0.0000000E+00    0.0000000E+00
    2.6862500E+03    5.0000000E-01    5.0000000E-01    1.0000000E+03    0.0000000E+00    0.0000000E+00
    2.7037500E+03    5.0000000E-01    5.0000000E-01    1.0000000E+03    0.0000000E+00    0.0000000E+00
    2.7212500E+03    5.0000000E-01    5.0000000E-01    1.0000000E+03    0.0000000E+00    0.0000000E+00
    2.7387500E+03    5.0000000E-01    5.0000000E-01    1.0000000E+03    0.0000000E+00    0.0000000E+00
    2.7562500E+03    5.0000000E-01    5.0000000E-01    1.0000000E+03    0.0000000E+00    0.0000000E+00
    2.7737500E+03    5.0000000E-01    5.0000000E-01    1.0000000E+03    0.0000000E+00    0.0000000E+00
    2.7912500E+03    5.0000000E-01    5.0000000E-01    1.0000000E+03    0.0000000E+00    0.0000000E+00
    2.8087500E+03    5.0000000E-01    5.0000000E-01    1.0000000E+03    0.0000000E+00    0.0000000E+00
    2.8262500E+03    5.0000000E-01    5.0000000E-01    1.0000000E+03    0.0000000E+00    0.0000000E+00
    2.8437500E+03    5.0000000E-01    5.0000000E-01    1.0000000E+03    0.0000000E+00    0.0000000E+00
    2.8612500E+03    5.0000000E-01    5.0000000E-01    1.0000000E+03    0.0000000E+00    0.0000000E+00
    2.8787500E+03    5.0000000E-01    5.0000000E-01    1.0000000E+03    0.0000000E+00    0.0000000E+00
    2.8962500E+03    5.0000000E-01    5.0000000E-01    1.0000000E+03    0.0000000E+00    0.0000000E+00
    2.9137500E+03    5.0000000E-01    5.0000000E-01    1.0000000E+03    0.0000000E+00    0.0000000E+00
    2.9312500E+03    5.0000000E-01    5.0000000E-01    1.0000000E+03    0.0000000E+00    0.0000000E+00
    2.9487500E+03    5.0000000E-01    5.0000000E-01    1.0000000E+03    0.0000000E+00    0.0000000E+00
    2.9662500E+03    5.0000000E-01    5.0000000E-01    1.0000000E+03    0.0000000E+00    0.0000000E+00
    2.9837500E+03    5.0000000E-01    5.0000000E-01    1.0000000E+03    0.0000000E+00    0.0000000E+00
    3.0012500E+03    5.0000000E-01    5.0000000E-01    1.0000000E+03    0.0000000E+00    0.0000000E+00
    3.0187500E+03    5.0000000E-01    5.0000000E-01    1.0000000E+03    0.0000000E+00    0.0000000E+00
    3.0362500E+03    5.0000000E-01    5.0000000E-01    1.0000000E+03    0.0000000E+00    0.0000000E+00
    3.0537500E+03    5.0000000E-01    5.0000000E-01    1.0000000E+03    0.0000000E+00    0.0000000E+00
    3.0712500E+03    5.0000000E-01    5.0000000E-01    1.0000000E+03    0.0000000E+00    0.0000000E+00
    3.0887500E+03    5.0000000E-01    5.0000000E-01    1.0000000E+03    0.0000000E+00    0.0000000E+00
    3.1062500E+03    5.0000000E-01    5.0000000E-01    1.0000000E+03    0.0000000E+00    0.0000000E+00
    3.1237500E+03    5.0000000E-01    5.0000000E-01    1.0000000E+03    0.0000000E+00    0.0000000E+00
    3.1412500E+03    5.0000000E-01    5.0000000E-01    1.0000000E+03    0.0000000E+00    0.0000000E+00
    3.1587500E+03    5.0000000E-01    5.0000000E-01    1.0000000E+03    0.0000000E+00    0.0000000E+00
    3.1762500E+03    5.0000000E-01    5.0000000E-01    1.0000000E+03    0.0000000E+00    0.0000000E+00
    3.1937500E+03    5.0000000E-01    5.0000000E-01    1.0000000E+03    0.0000000E+00    0.0000000E+00
    3.2112500E+03    5.0000000E-01    5.0000000E-01    1.0000000E+03    0.0000000E+00    0.0000000E+00
    3.2287500E+03    5.0000000E-01    5.0000000E-01    1.0000000E+03    0.0000000E+00    0.0000000E+00
    3.2462500E+03    5.0000000E-01    5.0000000E-01    1.0000000E+03    0.0000000E+00    0.0000000E+00
    3.2637500E+03    5.0000000E-01    5.0000000E-01    1.0000000E+03    0.0000000E+00    0.0000000E+00
    3.2812500E+03    5.0000000E-01    5.0000000E-01    1.0000000E+03    0.0000000E+00    0.0000000E+00
    3.2987500E+03    5.0000000E-01    5.0000000E-01    1.0000000E+03    0.0000000E+00    0.0000000E+00
    3.3162500E+03    5.0000000E-01    5.0000000E-01    1.0000000E+03    0.0000000E+00    0.0000000E+00
    3.3337500E+03    5.0000000E-01    5.0000000E-01    1.0000000E+03    0.0000000E+00    0.0000000E+00
    3.3512500E+03    5.0000000E-01    5.0000000E-01    1.0000000E+03    0.0000000E+00    0.0000000E+00
    3.3687500E+03    5.0000000E-01    5.0000000E-01    1.0000000E+03    0.0000000E+00    0.0000000E+00
    3.3862500E+03    5.0000000E-01    5.0000000E-01    1.0000000E+03    0.0000000E+00    0.0000000E+00
    3.4037500E+03    5.0000000E-01    5.0000000E-01    1.0000000E+03    0.0000000E+00    0.0000000E+00
    3.4212500E+03    5.0000000E-01    5.0000000E-01    1.0000000E+03    0.0000000E+00    0.0000000E+00
    3.4387500E+03    5.0000000E-01    5.0000000E-01    1.0000000E+03    0.0000000E+00    0.0000000E+00
    3.4562500E+03    5.0000000E-01    5.0000000E-01    1.0000000E+03    0.0000000E+00    0.0000000E+00
    3.4737500E+03    5.0000000E-01    5.0000000E-01    1.0000000E+03    0.0000000E+00    0.0000000E+00
    3.4912500E+03    5.0000000E-01    5.0000000E-01    1.0000000E+03    0.0000000E+00    0.0000000E+00
