 TITLE = "Velocity" 
VARIABLES = "X"          "Y"              "Z"           "X Velocity"     "Y-Velocity"     "Z-Velocity" 
 ZONE I=          35 , J=           1 , K=           1  F=POINT
    5.0000000E+01    5.0000000E-01    5.0000000E-01    5.7100000E-02    0.0000000E+00    0.0000000E+00
    1.5000000E+02    5.0000000E-01    5.0000000E-01    5.7100000E-02    0.0000000E+00    0.0000000E+00
    2.5000000E+02    5.0000000E-01    5.0000000E-01    5.7100000E-02    0.0000000E+00    0.0000000E+00
    3.5000000E+02    5.0000000E-01    5.0000000E-01    5.7100000E-02    0.0000000E+00    0.0000000E+00
    4.5000000E+02    5.0000000E-01    5.0000000E-01    5.7100000E-02    0.0000000E+00    0.0000000E+00
    5.5000000E+02    5.0000000E-01    5.0000000E-01    5.7100000E-02    0.0000000E+00    0.0000000E+00
    6.5000000E+02    5.0000000E-01    5.0000000E-01    5.7100000E-02    0.0000000E+00    0.0000000E+00
    7.5000000E+02    5.0000000E-01    5.0000000E-01    5.7100000E-02    0.0000000E+00    0.0000000E+00
    8.5000000E+02    5.0000000E-01    5.0000000E-01    5.7100000E-02    0.0000000E+00    0.0000000E+00
    9.5000000E+02    5.0000000E-01    5.0000000E-01    5.7100000E-02    0.0000000E+00    0.0000000E+00
    1.0500000E+03    5.0000000E-01    5.0000000E-01    5.7100000E-02    0.0000000E+00    0.0000000E+00
    1.1500000E+03    5.0000000E-01    5.0000000E-01    5.7100000E-02    0.0000000E+00    0.0000000E+00
    1.2500000E+03    5.0000000E-01    5.0000000E-01    5.7100000E-02    0.0000000E+00    0.0000000E+00
    1.3500000E+03    5.0000000E-01    5.0000000E-01    5.7100000E-02    0.0000000E+00    0.0000000E+00
    1.4500000E+03    5.0000000E-01    5.0000000E-01    5.7100000E-02    0.0000000E+00    0.0000000E+00
    1.5500000E+03    5.0000000E-01    5.0000000E-01    5.7100000E-02    0.0000000E+00    0.0000000E+00
    1.6500000E+03    5.0000000E-01    5.0000000E-01    5.7100000E-02    0.0000000E+00    0.0000000E+00
    1.7500000E+03    5.0000000E-01    5.0000000E-01    5.7100000E-02    0.0000000E+00    0.0000000E+00
    1.8500000E+03    5.0000000E-01    5.0000000E-01    5.7100000E-02    0.0000000E+00    0.0000000E+00
    1.9500000E+03    5.0000000E-01    5.0000000E-01    5.7100000E-02    0.0000000E+00    0.0000000E+00
    2.0500000E+03    5.0000000E-01    5.0000000E-01    5.7100000E-02    0.0000000E+00    0.0000000E+00
    2.1500000E+03    5.0000000E-01    5.0000000E-01    5.7100000E-02    0.0000000E+00    0.0000000E+00
    2.2500000E+03    5.0000000E-01    5.0000000E-01    5.7100000E-02    0.0000000E+00    0.0000000E+00
    2.3500000E+03    5.0000000E-01    5.0000000E-01    5.7100000E-02    0.0000000E+00    0.0000000E+00
    2.4500000E+03    5.0000000E-01    5.0000000E-01    5.7100000E-02    0.0000000E+00    0.0000000E+00
    2.5500000E+03    5.0000000E-01    5.0000000E-01    5.7100000E-02    0.0000000E+00    0.0000000E+00
    2.6500000E+03    5.0000000E-01    5.0000000E-01    5.7100000E-02    0.0000000E+00    0.0000000E+00
    2.7500000E+03    5.0000000E-01    5.0000000E-01    5.7100000E-02    0.0000000E+00    0.0000000E+00
    2.8500000E+03    5.0000000E-01    5.0000000E-01    5.7100000E-02    0.0000000E+00    0.0000000E+00
    2.9500000E+03    5.0000000E-01    5.0000000E-01    5.7100000E-02    0.0000000E+00    0.0000000E+00
    3.0500000E+03    5.0000000E-01    5.0000000E-01    5.7100000E-02    0.0000000E+00    0.0000000E+00
    3.1500000E+03    5.0000000E-01    5.0000000E-01    5.7100000E-02    0.0000000E+00    0.0000000E+00
    3.2500000E+03    5.0000000E-01    5.0000000E-01    5.7100000E-02    0.0000000E+00    0.0000000E+00
    3.3500000E+03    5.0000000E-01    5.0000000E-01    5.7100000E-02    0.0000000E+00    0.0000000E+00
    3.4500000E+03    5.0000000E-01    5.0000000E-01    5.7100000E-02    0.0000000E+00    0.0000000E+00
