 TITLE = "Velocity" 
VARIABLES = "X"          "Y"              "Z"           "X Velocity"     "Y-Velocity"     "Z-Velocity" 
 ZONE I=          10 , J=           1 , K=           1  F=POINT
    1.7500000E+02    5.0000000E-01    5.0000000E-01    5.7100000E-02    0.0000000E+00    0.0000000E+00
    5.2500000E+02    5.0000000E-01    5.0000000E-01    5.7100000E-02    0.0000000E+00    0.0000000E+00
    8.7500000E+02    5.0000000E-01    5.0000000E-01    5.7100000E-02    0.0000000E+00    0.0000000E+00
    1.2250000E+03    5.0000000E-01    5.0000000E-01    5.7100000E-02    0.0000000E+00    0.0000000E+00
    1.5750000E+03    5.0000000E-01    5.0000000E-01    5.7100000E-02    0.0000000E+00    0.0000000E+00
    1.9250000E+03    5.0000000E-01    5.0000000E-01    5.7100000E-02    0.0000000E+00    0.0000000E+00
    2.2750000E+03    5.0000000E-01    5.0000000E-01    5.7100000E-02    0.0000000E+00    0.0000000E+00
    2.6250000E+03    5.0000000E-01    5.0000000E-01    5.7100000E-02    0.0000000E+00    0.0000000E+00
    2.9750000E+03    5.0000000E-01    5.0000000E-01    5.7100000E-02    0.0000000E+00    0.0000000E+00
    3.3250000E+03    5.0000000E-01    5.0000000E-01    5.7100000E-02    0.0000000E+00    0.0000000E+00
