 TITLE = "Velocity" 
VARIABLES = "X"          "Y"              "Z"           "X Velocity"     "Y-Velocity"     "Z-Velocity" 
 ZONE I=         100 , J=           1 , K=           1  F=POINT
    1.7500000E+01    5.0000000E-01    5.0000000E-01    1.0000000E+03    0.0000000E+00    0.0000000E+00
    5.2500000E+01    5.0000000E-01    5.0000000E-01    1.0000000E+03    0.0000000E+00    0.0000000E+00
    8.7500000E+01    5.0000000E-01    5.0000000E-01    1.0000000E+03    0.0000000E+00    0.0000000E+00
    1.2250000E+02    5.0000000E-01    5.0000000E-01    1.0000000E+03    0.0000000E+00    0.0000000E+00
    1.5750000E+02    5.0000000E-01    5.0000000E-01    1.0000000E+03    0.0000000E+00    0.0000000E+00
    1.9250000E+02    5.0000000E-01    5.0000000E-01    1.0000000E+03    0.0000000E+00    0.0000000E+00
    2.2750000E+02    5.0000000E-01    5.0000000E-01    1.0000000E+03    0.0000000E+00    0.0000000E+00
    2.6250000E+02    5.0000000E-01    5.0000000E-01    1.0000000E+03    0.0000000E+00    0.0000000E+00
    2.9750000E+02    5.0000000E-01    5.0000000E-01    1.0000000E+03    0.0000000E+00    0.0000000E+00
    3.3250000E+02    5.0000000E-01    5.0000000E-01    1.0000000E+03    0.0000000E+00    0.0000000E+00
    3.6750000E+02    5.0000000E-01    5.0000000E-01    1.0000000E+03    0.0000000E+00    0.0000000E+00
    4.0250000E+02    5.0000000E-01    5.0000000E-01    1.0000000E+03    0.0000000E+00    0.0000000E+00
    4.3750000E+02    5.0000000E-01    5.0000000E-01    1.0000000E+03    0.0000000E+00    0.0000000E+00
    4.7250000E+02    5.0000000E-01    5.0000000E-01    1.0000000E+03    0.0000000E+00    0.0000000E+00
    5.0750000E+02    5.0000000E-01    5.0000000E-01    1.0000000E+03    0.0000000E+00    0.0000000E+00
    5.4250000E+02    5.0000000E-01    5.0000000E-01    1.0000000E+03    0.0000000E+00    0.0000000E+00
    5.7750000E+02    5.0000000E-01    5.0000000E-01    1.0000000E+03    0.0000000E+00    0.0000000E+00
    6.1250000E+02    5.0000000E-01    5.0000000E-01    1.0000000E+03    0.0000000E+00    0.0000000E+00
    6.4750000E+02    5.0000000E-01    5.0000000E-01    1.0000000E+03    0.0000000E+00    0.0000000E+00
    6.8250000E+02    5.0000000E-01    5.0000000E-01    1.0000000E+03    0.0000000E+00    0.0000000E+00
    7.1750000E+02    5.0000000E-01    5.0000000E-01    1.0000000E+03    0.0000000E+00    0.0000000E+00
    7.5250000E+02    5.0000000E-01    5.0000000E-01    1.0000000E+03    0.0000000E+00    0.0000000E+00
    7.8750000E+02    5.0000000E-01    5.0000000E-01    1.0000000E+03    0.0000000E+00    0.0000000E+00
    8.2250000E+02    5.0000000E-01    5.0000000E-01    1.0000000E+03    0.0000000E+00    0.0000000E+00
    8.5750000E+02    5.0000000E-01    5.0000000E-01    1.0000000E+03    0.0000000E+00    0.0000000E+00
    8.9250000E+02    5.0000000E-01    5.0000000E-01    1.0000000E+03    0.0000000E+00    0.0000000E+00
    9.2750000E+02    5.0000000E-01    5.0000000E-01    1.0000000E+03    0.0000000E+00    0.0000000E+00
    9.6250000E+02    5.0000000E-01    5.0000000E-01    1.0000000E+03    0.0000000E+00    0.0000000E+00
    9.9750000E+02    5.0000000E-01    5.0000000E-01    1.0000000E+03    0.0000000E+00    0.0000000E+00
    1.0325000E+03    5.0000000E-01    5.0000000E-01    1.0000000E+03    0.0000000E+00    0.0000000E+00
    1.0675000E+03    5.0000000E-01    5.0000000E-01    1.0000000E+03    0.0000000E+00    0.0000000E+00
    1.1025000E+03    5.0000000E-01    5.0000000E-01    1.0000000E+03    0.0000000E+00    0.0000000E+00
    1.1375000E+03    5.0000000E-01    5.0000000E-01    1.0000000E+03    0.0000000E+00    0.0000000E+00
    1.1725000E+03    5.0000000E-01    5.0000000E-01    1.0000000E+03    0.0000000E+00    0.0000000E+00
    1.2075000E+03    5.0000000E-01    5.0000000E-01    1.0000000E+03    0.0000000E+00    0.0000000E+00
    1.2425000E+03    5.0000000E-01    5.0000000E-01    1.0000000E+03    0.0000000E+00    0.0000000E+00
    1.2775000E+03    5.0000000E-01    5.0000000E-01    1.0000000E+03    0.0000000E+00    0.0000000E+00
    1.3125000E+03    5.0000000E-01    5.0000000E-01    1.0000000E+03    0.0000000E+00    0.0000000E+00
    1.3475000E+03    5.0000000E-01    5.0000000E-01    1.0000000E+03    0.0000000E+00    0.0000000E+00
    1.3825000E+03    5.0000000E-01    5.0000000E-01    1.0000000E+03    0.0000000E+00    0.0000000E+00
    1.4175000E+03    5.0000000E-01    5.0000000E-01    1.0000000E+03    0.0000000E+00    0.0000000E+00
    1.4525000E+03    5.0000000E-01    5.0000000E-01    1.0000000E+03    0.0000000E+00    0.0000000E+00
    1.4875000E+03    5.0000000E-01    5.0000000E-01    1.0000000E+03    0.0000000E+00    0.0000000E+00
    1.5225000E+03    5.0000000E-01    5.0000000E-01    1.0000000E+03    0.0000000E+00    0.0000000E+00
    1.5575000E+03    5.0000000E-01    5.0000000E-01    1.0000000E+03    0.0000000E+00    0.0000000E+00
    1.5925000E+03    5.0000000E-01    5.0000000E-01    1.0000000E+03    0.0000000E+00    0.0000000E+00
    1.6275000E+03    5.0000000E-01    5.0000000E-01    1.0000000E+03    0.0000000E+00    0.0000000E+00
    1.6625000E+03    5.0000000E-01    5.0000000E-01    1.0000000E+03    0.0000000E+00    0.0000000E+00
    1.6975000E+03    5.0000000E-01    5.0000000E-01    1.0000000E+03    0.0000000E+00    0.0000000E+00
    1.7325000E+03    5.0000000E-01    5.0000000E-01    1.0000000E+03    0.0000000E+00    0.0000000E+00
    1.7675000E+03    5.0000000E-01    5.0000000E-01    1.0000000E+03    0.0000000E+00    0.0000000E+00
    1.8025000E+03    5.0000000E-01    5.0000000E-01    1.0000000E+03    0.0000000E+00    0.0000000E+00
    1.8375000E+03    5.0000000E-01    5.0000000E-01    1.0000000E+03    0.0000000E+00    0.0000000E+00
    1.8725000E+03    5.0000000E-01    5.0000000E-01    1.0000000E+03    0.0000000E+00    0.0000000E+00
    1.9075000E+03    5.0000000E-01    5.0000000E-01    1.0000000E+03    0.0000000E+00    0.0000000E+00
    1.9425000E+03    5.0000000E-01    5.0000000E-01    1.0000000E+03    0.0000000E+00    0.0000000E+00
    1.9775000E+03    5.0000000E-01    5.0000000E-01    1.0000000E+03    0.0000000E+00    0.0000000E+00
    2.0125000E+03    5.0000000E-01    5.0000000E-01    1.0000000E+03    0.0000000E+00    0.0000000E+00
    2.0475000E+03    5.0000000E-01    5.0000000E-01    1.0000000E+03    0.0000000E+00    0.0000000E+00
    2.0825000E+03    5.0000000E-01    5.0000000E-01    1.0000000E+03    0.0000000E+00    0.0000000E+00
    2.1175000E+03    5.0000000E-01    5.0000000E-01    1.0000000E+03    0.0000000E+00    0.0000000E+00
    2.1525000E+03    5.0000000E-01    5.0000000E-01    1.0000000E+03    0.0000000E+00    0.0000000E+00
    2.1875000E+03    5.0000000E-01    5.0000000E-01    1.0000000E+03    0.0000000E+00    0.0000000E+00
    2.2225000E+03    5.0000000E-01    5.0000000E-01    1.0000000E+03    0.0000000E+00    0.0000000E+00
    2.2575000E+03    5.0000000E-01    5.0000000E-01    1.0000000E+03    0.0000000E+00    0.0000000E+00
    2.2925000E+03    5.0000000E-01    5.0000000E-01    1.0000000E+03    0.0000000E+00    0.0000000E+00
    2.3275000E+03    5.0000000E-01    5.0000000E-01    1.0000000E+03    0.0000000E+00    0.0000000E+00
    2.3625000E+03    5.0000000E-01    5.0000000E-01    1.0000000E+03    0.0000000E+00    0.0000000E+00
    2.3975000E+03    5.0000000E-01    5.0000000E-01    1.0000000E+03    0.0000000E+00    0.0000000E+00
    2.4325000E+03    5.0000000E-01    5.0000000E-01    1.0000000E+03    0.0000000E+00    0.0000000E+00
    2.4675000E+03    5.0000000E-01    5.0000000E-01    1.0000000E+03    0.0000000E+00    0.0000000E+00
    2.5025000E+03    5.0000000E-01    5.0000000E-01    1.0000000E+03    0.0000000E+00    0.0000000E+00
    2.5375000E+03    5.0000000E-01    5.0000000E-01    1.0000000E+03    0.0000000E+00    0.0000000E+00
    2.5725000E+03    5.0000000E-01    5.0000000E-01    1.0000000E+03    0.0000000E+00    0.0000000E+00
    2.6075000E+03    5.0000000E-01    5.0000000E-01    1.0000000E+03    0.0000000E+00    0.0000000E+00
    2.6425000E+03    5.0000000E-01    5.0000000E-01    1.0000000E+03    0.0000000E+00    0.0000000E+00
    2.6775000E+03    5.0000000E-01    5.0000000E-01    1.0000000E+03    0.0000000E+00    0.0000000E+00
    2.7125000E+03    5.0000000E-01    5.0000000E-01    1.0000000E+03    0.0000000E+00    0.0000000E+00
    2.7475000E+03    5.0000000E-01    5.0000000E-01    1.0000000E+03    0.0000000E+00    0.0000000E+00
    2.7825000E+03    5.0000000E-01    5.0000000E-01    1.0000000E+03    0.0000000E+00    0.0000000E+00
    2.8175000E+03    5.0000000E-01    5.0000000E-01    1.0000000E+03    0.0000000E+00    0.0000000E+00
    2.8525000E+03    5.0000000E-01    5.0000000E-01    1.0000000E+03    0.0000000E+00    0.0000000E+00
    2.8875000E+03    5.0000000E-01    5.0000000E-01    1.0000000E+03    0.0000000E+00    0.0000000E+00
    2.9225000E+03    5.0000000E-01    5.0000000E-01    1.0000000E+03    0.0000000E+00    0.0000000E+00
    2.9575000E+03    5.0000000E-01    5.0000000E-01    1.0000000E+03    0.0000000E+00    0.0000000E+00
    2.9925000E+03    5.0000000E-01    5.0000000E-01    1.0000000E+03    0.0000000E+00    0.0000000E+00
    3.0275000E+03    5.0000000E-01    5.0000000E-01    1.0000000E+03    0.0000000E+00    0.0000000E+00
    3.0625000E+03    5.0000000E-01    5.0000000E-01    1.0000000E+03    0.0000000E+00    0.0000000E+00
    3.0975000E+03    5.0000000E-01    5.0000000E-01    1.0000000E+03    0.0000000E+00    0.0000000E+00
    3.1325000E+03    5.0000000E-01    5.0000000E-01    1.0000000E+03    0.0000000E+00    0.0000000E+00
    3.1675000E+03    5.0000000E-01    5.0000000E-01    1.0000000E+03    0.0000000E+00    0.0000000E+00
    3.2025000E+03    5.0000000E-01    5.0000000E-01    1.0000000E+03    0.0000000E+00    0.0000000E+00
    3.2375000E+03    5.0000000E-01    5.0000000E-01    1.0000000E+03    0.0000000E+00    0.0000000E+00
    3.2725000E+03    5.0000000E-01    5.0000000E-01    1.0000000E+03    0.0000000E+00    0.0000000E+00
    3.3075000E+03    5.0000000E-01    5.0000000E-01    1.0000000E+03    0.0000000E+00    0.0000000E+00
    3.3425000E+03    5.0000000E-01    5.0000000E-01    1.0000000E+03    0.0000000E+00    0.0000000E+00
    3.3775000E+03    5.0000000E-01    5.0000000E-01    1.0000000E+03    0.0000000E+00    0.0000000E+00
    3.4125000E+03    5.0000000E-01    5.0000000E-01    1.0000000E+03    0.0000000E+00    0.0000000E+00
    3.4475000E+03    5.0000000E-01    5.0000000E-01    1.0000000E+03    0.0000000E+00    0.0000000E+00
    3.4825000E+03    5.0000000E-01    5.0000000E-01    1.0000000E+03    0.0000000E+00    0.0000000E+00
