 TITLE = "Mineral Volumes" 
VARIABLES = "X"          "Y"              "Z"            "Forsterite"     "Fayalite"       "Brucite"        "Lizardite"      "Chrysotile"     "Hematite"       "Magnetite(am)"  "Saponite(Ca)"   "Saponite(K)"    "Saponite(Mg)"   "Saponite(Na)"   "Beidellite(Ca)" "Beidellite(K)"  "Beidellite(Mg)" "Beidellite(Na)" "Enstatite(alph" "Ferrosilite(al" "Anorthite"      "Albite(low)"    "Clinochlore"    "Sudoite"        "Montmor(MgCa)"  "Montmor(MgK)"   "Montmor(MgMg)"  "Montmor(MgNa)"  "Kaolinite"      "Tremolite"      "Pargasite"      "Anhydrite"      "Epidote"        "Scolecite"      "Pyrite"         "FeS(am)"        "Quartz(alpha)"  "Titanite"       "Rutile"         "Barite"         "Fluorite"       "Spessartine(al" "Andradite"      "Celestite"      "Zincite"        "Chalcocyanite"  "Chalcocite(alp"
 ZONE I=         200 , J=           1 , K=           1  F=POINT
   8.75000000E+00   5.00000000E-01   5.00000000E-01   1.07529342E-01   1.09052646E-01   8.61025983E-11   5.85194322E-11   5.41657164E-11   2.03773857E-04   2.21251883E-13   1.04933048E-10   2.20825567E-09   1.25265503E-10   4.41396210E-04   9.78929932E-11   9.97836423E-11   9.79082491E-11   9.78872899E-11   4.99973439E-02   4.99976548E-02   6.48402460E-02   6.87456942E-02   2.17367507E-02   0.00000000E+00   9.95333022E-11   9.99524335E-11   9.95367422E-11   9.95321843E-11   9.98550206E-04   6.45604924E-02   6.43941420E-02   0.00000000E+00   8.13026328E-03   8.45468231E-11   9.26556588E-11   9.45672011E-11   1.00107809E-10   9.99994766E-05   1.00000139E-04   1.03233948E-04   9.99997571E-05   8.08899797E-04   9.99978365E-05   9.99999233E-05   9.96542023E-04   9.99999320E-05   1.00002217E-04
   2.62500000E+01   5.00000000E-01   5.00000000E-01   1.07529342E-01   1.09057405E-01   8.61024433E-11   5.22836064E-11   4.97312339E-11   2.03773856E-04   2.21272769E-13   1.07276684E-10   4.48283545E-09   1.37890248E-10   1.22520634E-03   9.78930067E-11   9.97836611E-11   9.79083102E-11   9.78874510E-11   4.99973429E-02   4.99977639E-02   6.48402460E-02   6.88576946E-02   2.14213708E-02   0.00000000E+00   9.95336311E-11   9.99532159E-11   9.95381255E-11   9.95377547E-11   9.98550281E-04   6.45905898E-02   6.43941420E-02   0.00000000E+00   8.13026328E-03   8.45468527E-11   9.26556588E-11   9.45672011E-11   1.00173383E-10   9.99994498E-05   1.00000154E-04   1.01214023E-04   9.99997537E-05   8.08899797E-04   9.99978365E-05   9.99999233E-05   9.96542066E-04   9.99999320E-05   1.00000024E-04
   4.37500000E+01   5.00000000E-01   5.00000000E-01   1.07529342E-01   1.09062157E-01   8.61023801E-11   4.90875744E-11   4.73982473E-11   2.03773856E-04   2.21286645E-13   1.08793937E-10   5.68438067E-09   1.46275051E-10   1.35061051E-03   9.78931386E-11   9.97838356E-11   9.79089087E-11   9.78889868E-11   4.99973423E-02   4.99978596E-02   6.48402460E-02   6.91551667E-02   2.10760155E-02   0.00000000E+00   9.95355990E-11   9.99576421E-11   9.95463933E-11   9.95700679E-11   9.98550665E-04   6.46117269E-02   6.43941420E-02   0.00000000E+00   8.13026329E-03   8.45469855E-11   9.26556588E-11   9.45672011E-11   1.00230062E-10   9.99994326E-05   1.00000169E-04   1.00411642E-04   9.99997505E-05   8.08899797E-04   9.99978365E-05   9.99999233E-05   9.96542067E-04   9.99999320E-05   1.00000024E-04
   6.12500000E+01   5.00000000E-01   5.00000000E-01   1.07529342E-01   1.09067117E-01   8.61023505E-11   4.74468102E-11   4.61865104E-11   2.03773856E-04   2.21298747E-13   1.10046804E-10   6.51278788E-09   1.53365213E-10   1.66474649E-03   9.78935352E-11   9.97843310E-11   9.79107044E-11   9.78934586E-11   4.99973422E-02   4.99979522E-02   6.48402460E-02   6.95940967E-02   2.05344761E-02   0.00000000E+00   9.95402481E-11   9.99674473E-11   9.95659064E-11   9.96437709E-11   9.98551396E-04   6.46291771E-02   6.43941420E-02   0.00000000E+00   8.13026329E-03   8.45472344E-11   9.26556588E-11   9.45672011E-11   1.00276695E-10   9.99994249E-05   1.00000183E-04   1.00071275E-04   9.99997477E-05   8.08899797E-04   9.99978365E-05   9.99999233E-05   9.96542103E-04   9.99999320E-05   1.00000024E-04
   7.87500000E+01   5.00000000E-01   5.00000000E-01   1.07529342E-01   1.09072636E-01   8.61023354E-11   4.66218020E-11   4.55772500E-11   2.03773855E-04   2.21311061E-13   1.11361886E-10   7.41294309E-09   1.61011492E-10   2.12249499E-03   9.78942767E-11   9.97852018E-11   9.79140571E-11   9.79015434E-11   4.99973425E-02   4.99980439E-02   6.48402460E-02   7.00920789E-02   1.98949918E-02   0.00000000E+00   9.95475453E-11   9.99817904E-11   9.95965055E-11   9.97551357E-11   9.98552414E-04   6.46516235E-02   6.43941420E-02   0.00000000E+00   8.13026329E-03   8.45475749E-11   9.26556588E-11   9.45672011E-11   1.00313025E-10   9.99994221E-05   1.00000195E-04   9.99168383E-05   9.99997450E-05   8.08899797E-04   9.99978365E-05   9.99999233E-05   9.96542169E-04   9.99999320E-05   1.00000024E-04
   9.62500000E+01   5.00000000E-01   5.00000000E-01   1.07529342E-01   1.09078818E-01   8.61023276E-11   4.61853210E-11   4.52583838E-11   2.03773855E-04   2.21324167E-13   1.12750418E-10   8.34749975E-09   1.69300132E-10   2.59445155E-03   9.78953385E-11   9.97863684E-11   9.79188500E-11   9.79127076E-11   4.99973428E-02   4.99981343E-02   6.48402460E-02   7.05748215E-02   1.92680923E-02   0.00000000E+00   9.95566074E-11   9.99982595E-11   9.96344704E-11   9.98877571E-11   9.98553608E-04   6.46803349E-02   6.43941420E-02   0.00000000E+00   8.13026329E-03   8.45479677E-11   9.26556588E-11   9.45672011E-11   1.00340096E-10   9.99994216E-05   1.00000207E-04   9.98408796E-05   9.99997425E-05   8.08899797E-04   9.99978365E-05   9.99999232E-05   9.96542256E-04   9.99999320E-05   1.00000024E-04
   1.13750000E+02   5.00000000E-01   5.00000000E-01   1.07529342E-01   1.09085625E-01   8.61023239E-11   4.59358238E-11   4.50801779E-11   2.03773855E-04   2.21338202E-13   1.14138627E-10   9.16924184E-09   1.77796540E-10   2.99521104E-03   9.78965767E-11   9.97876290E-11   9.79244294E-11   9.79252012E-11   4.99973433E-02   4.99982229E-02   6.48402461E-02   7.09889358E-02   1.87313300E-02   0.00000000E+00   9.95660904E-11   1.00013972E-10   9.96741589E-11   1.00019909E-10   9.98554808E-04   6.47134392E-02   6.43941420E-02   0.00000000E+00   8.13026329E-03   8.45483603E-11   9.26556588E-11   9.45672011E-11   1.00359635E-10   9.99994220E-05   1.00000217E-04   9.97994652E-05   9.99997403E-05   8.08899797E-04   9.99978365E-05   9.99999232E-05   9.96542359E-04   9.99999320E-05   1.00000024E-04
   1.31250000E+02   5.00000000E-01   5.00000000E-01   1.07529342E-01   1.09092985E-01   8.61023229E-11   4.57835505E-11   4.49754186E-11   2.03773855E-04   2.21353220E-13   1.15464699E-10   9.76945134E-09   1.86102199E-10   3.29627233E-03   9.78978236E-11   9.97887883E-11   9.79300375E-11   9.79371881E-11   4.99973439E-02   4.99983094E-02   6.48402461E-02   7.13128483E-02   1.83145550E-02   0.00000000E+00   9.95749099E-11   1.00027005E-10   9.97110254E-11   1.00135703E-10   9.98555874E-04   6.47485881E-02   6.43941420E-02   0.00000000E+00   8.13026329E-03   8.45487132E-11   9.26556588E-11   9.45672011E-11   1.00373426E-10   9.99994226E-05   1.00000226E-04   9.97738554E-05   9.99997382E-05   8.08899797E-04   9.99978365E-05   9.99999232E-05   9.96542473E-04   9.99999320E-05   1.00000024E-04
   1.48750000E+02   5.00000000E-01   5.00000000E-01   1.07529342E-01   1.09100830E-01   8.61023237E-11   4.56885226E-11   4.49141022E-11   2.03773855E-04   2.21369274E-13   1.16696766E-10   1.01078723E-08   1.93980819E-10   3.50238158E-03   9.78989683E-11   9.97897406E-11   9.79351737E-11   9.79475706E-11   4.99973445E-02   4.99983936E-02   6.48402461E-02   7.15496382E-02   1.80133391E-02   0.00000000E+00   9.95825462E-11   1.00036755E-10   9.97428989E-11   1.00228809E-10   9.98556740E-04   6.47839817E-02   6.43941420E-02   0.00000000E+00   8.13026330E-03   8.45490094E-11   9.26556588E-11   9.45672011E-11   1.00382987E-10   9.99994232E-05   1.00000233E-04   9.97557478E-05   9.99997363E-05   8.08899797E-04   9.99978365E-05   9.99999232E-05   9.96542598E-04   9.99999320E-05   1.00000024E-04
   1.66250000E+02   5.00000000E-01   5.00000000E-01   1.07529342E-01   1.09109107E-01   8.61023259E-11   4.56316512E-11   4.48819293E-11   2.03773854E-04   2.21386418E-13   1.17823792E-10   1.01957637E-08   2.01321400E-10   3.63130330E-03   9.78999666E-11   9.97904639E-11   9.79396410E-11   9.79560140E-11   4.99973451E-02   4.99984756E-02   6.48402461E-02   7.17138110E-02   1.78079583E-02   0.00000000E+00   9.95889250E-11   1.00043473E-10   9.97694762E-11   1.00299716E-10   9.98557402E-04   6.48184422E-02   6.43941420E-02   0.00000000E+00   8.13026330E-03   8.45492482E-11   9.26556588E-11   9.45672011E-11   1.00389477E-10   9.99994236E-05   1.00000240E-04   9.97413348E-05   9.99997345E-05   8.08899797E-04   9.99978365E-05   9.99999232E-05   9.96542730E-04   9.99999320E-05   1.00000024E-04
   1.83750000E+02   5.00000000E-01   5.00000000E-01   1.07529342E-01   1.09117767E-01   8.61023291E-11   4.56026396E-11   4.48712162E-11   2.03773854E-04   2.21404701E-13   1.18845205E-10   1.00713291E-08   2.08083410E-10   3.70275216E-03   9.79008190E-11   9.97909831E-11   9.79434440E-11   9.79626468E-11   4.99973458E-02   4.99985553E-02   6.48402461E-02   7.18220823E-02   1.76758706E-02   0.00000000E+00   9.95942010E-11   1.00047753E-10   9.97914131E-11   1.00352016E-10   9.98557887E-04   6.48512104E-02   6.43941420E-02   0.00000000E+00   8.13026330E-03   8.45494375E-11   9.26556588E-11   9.45672011E-11   1.00393740E-10   9.99994237E-05   1.00000245E-04   9.97288145E-05   9.99997328E-05   8.08899797E-04   9.99978365E-05   9.99999232E-05   9.96542870E-04   9.99999320E-05   1.00000024E-04
   2.01250000E+02   5.00000000E-01   5.00000000E-01   1.07529342E-01   1.09126766E-01   8.61023332E-11   4.55952199E-11   4.48773048E-11   2.03773854E-04   2.21424161E-13   1.19765172E-10   9.78208945E-09   2.14263731E-10   3.73371460E-03   9.79015470E-11   9.97913396E-11   9.79466815E-11   9.79677876E-11   4.99973465E-02   4.99986326E-02   6.48402461E-02   7.18891216E-02   1.75973712E-02   0.00000000E+00   9.95986016E-11   1.00050221E-10   9.98096679E-11   1.00389972E-10   9.98558230E-04   6.48817876E-02   6.43941420E-02   0.00000000E+00   8.13026330E-03   8.45495874E-11   9.26556588E-11   9.45672011E-11   1.00396369E-10   9.99994235E-05   1.00000249E-04   9.97173109E-05   9.99997313E-05   8.08899797E-04   9.99978366E-05   9.99999232E-05   9.96543016E-04   9.99999320E-05   1.00000024E-04
   2.18750000E+02   5.00000000E-01   5.00000000E-01   1.07529342E-01   1.09136056E-01   8.61023379E-11   4.56052368E-11   4.48971198E-11   2.03773854E-04   2.21444837E-13   1.20590129E-10   9.37490808E-09   2.19881092E-10   3.73724665E-03   9.79021779E-11   9.97915748E-11   9.79494777E-11   9.79717825E-11   4.99973473E-02   4.99987076E-02   6.48402461E-02   7.19263613E-02   1.75571487E-02   0.00000000E+00   9.96023462E-11   1.00051403E-10   9.98251641E-11   1.00417378E-10   9.98558465E-04   6.49098575E-02   6.43941420E-02   0.00000000E+00   8.13026330E-03   8.45497074E-11   9.26556588E-11   9.45672011E-11   1.00397776E-10   9.99994229E-05   1.00000252E-04   9.97063878E-05   9.99997299E-05   8.08899797E-04   9.99978366E-05   9.99999232E-05   9.96543167E-04   9.99999320E-05   1.00000024E-04
   2.36250000E+02   5.00000000E-01   5.00000000E-01   1.07529342E-01   1.09145597E-01   8.61023433E-11   4.56297843E-11   4.49285213E-11   2.03773854E-04   2.21466762E-13   1.21327739E-10   8.89110177E-09   2.24968515E-10   3.72276290E-03   9.79027374E-11   9.97917228E-11   9.79519486E-11   9.79749340E-11   4.99973481E-02   4.99987802E-02   6.48402461E-02   7.19421803E-02   1.75440192E-02   0.00000000E+00   9.96056161E-11   1.00051699E-10   9.98386624E-11   1.00437221E-10   9.98558622E-04   6.49352504E-02   6.43941420E-02   0.00000000E+00   8.13026331E-03   8.45498053E-11   9.26556588E-11   9.45672011E-11   1.00398252E-10   9.99994219E-05   1.00000253E-04   9.96958248E-05   9.99997286E-05   8.08899797E-04   9.99978366E-05   9.99999232E-05   9.96543322E-04   9.99999320E-05   1.00000024E-04
   2.53750000E+02   5.00000000E-01   5.00000000E-01   1.07529342E-01   1.09155347E-01   8.61023492E-11   4.56667452E-11   4.49699589E-11   2.03773853E-04   2.21489975E-13   1.21986340E-10   8.36454109E-09   2.29568674E-10   3.69677062E-03   9.79032464E-11   9.97918097E-11   9.79541894E-11   9.79774791E-11   4.99973489E-02   4.99988504E-02   6.48402461E-02   7.19425192E-02   1.75500950E-02   0.00000000E+00   9.96085484E-11   1.00051392E-10   9.98507389E-11   1.00451690E-10   9.98558722E-04   6.49579202E-02   6.43941420E-02   0.00000000E+00   8.13026331E-03   8.45498873E-11   9.26556588E-11   9.45672011E-11   1.00398002E-10   9.99994205E-05   1.00000254E-04   9.96855098E-05   9.99997274E-05   8.08899797E-04   9.99978366E-05   9.99999232E-05   9.96543482E-04   9.99999320E-05   1.00000024E-04
   2.71250000E+02   5.00000000E-01   5.00000000E-01   1.07529342E-01   1.09165273E-01   8.61023557E-11   4.57145315E-11   4.50202777E-11   2.03773853E-04   2.21514518E-13   1.22574556E-10   7.82143427E-09   2.33730208E-10   3.66361500E-03   9.79037209E-11   9.97918541E-11   9.79562718E-11   9.79795919E-11   4.99973497E-02   4.99989182E-02   6.48402461E-02   7.19315173E-02   1.75699269E-02   0.00000000E+00   9.96112413E-11   1.00050679E-10   9.98618059E-11   1.00462317E-10   9.98558781E-04   6.49779245E-02   6.43941420E-02   0.00000000E+00   8.13026331E-03   8.45499577E-11   9.26556588E-11   9.45672011E-11   1.00397174E-10   9.99994187E-05   1.00000253E-04   9.96753863E-05   9.99997262E-05   8.08899797E-04   9.99978366E-05   9.99999232E-05   9.96543645E-04   9.99999320E-05   1.00000024E-04
   2.88750000E+02   5.00000000E-01   5.00000000E-01   1.07529342E-01   1.09175344E-01   8.61023626E-11   4.57719526E-11   4.50786212E-11   2.03773853E-04   2.21540443E-13   1.23100956E-10   7.28100042E-09   2.37504506E-10   3.62609515E-03   9.79041721E-11   9.97918689E-11   9.79582465E-11   9.79813931E-11   4.99973506E-02   4.99989836E-02   6.48402461E-02   7.19120367E-02   1.75997978E-02   0.00000000E+00   9.96137618E-11   1.00049688E-10   9.98721432E-11   1.00470137E-10   9.98558811E-04   6.49954031E-02   6.43941420E-02   0.00000000E+00   8.13026331E-03   8.45500195E-11   9.26556588E-11   9.45672011E-11   1.00395878E-10   9.99994165E-05   1.00000251E-04   9.96654271E-05   9.99997252E-05   8.08899797E-04   9.99978366E-05   9.99999232E-05   9.96543811E-04   9.99999320E-05   1.00000024E-04
   3.06250000E+02   5.00000000E-01   5.00000000E-01   1.07529342E-01   1.09185535E-01   8.61023700E-11   4.58381663E-11   4.51443986E-11   2.03773853E-04   2.21567809E-13   1.23573777E-10   6.75654502E-09   2.40942946E-10   3.58593347E-03   9.79046074E-11   9.97918623E-11   9.79601466E-11   9.79829616E-11   4.99973516E-02   4.99990466E-02   6.48402461E-02   7.18860548E-02   1.76371920E-02   0.00000000E+00   9.96161526E-11   1.00048504E-10   9.98819302E-11   1.00475820E-10   9.98558820E-04   6.50105557E-02   6.43941420E-02   0.00000000E+00   8.13026331E-03   8.45500750E-11   9.26556588E-11   9.45672011E-11   1.00394199E-10   9.99994140E-05   1.00000248E-04   9.96556207E-05   9.99997242E-05   8.08899797E-04   9.99978366E-05   9.99999232E-05   9.96543981E-04   9.99999320E-05   1.00000024E-04
   3.23750000E+02   5.00000000E-01   5.00000000E-01   1.07529342E-01   1.09195826E-01   8.61023779E-11   4.59126767E-11   4.52172887E-11   2.03773852E-04   2.21596688E-13   1.24000698E-10   6.25664402E-09   2.44094671E-10   3.54412223E-03   9.79050310E-11   9.97918395E-11   9.79619915E-11   9.79843453E-11   4.99973525E-02   4.99991074E-02   6.48402461E-02   7.18549466E-02   1.76804111E-02   0.00000000E+00   9.96184388E-11   1.00047178E-10   9.98912721E-11   1.00479785E-10   9.98558812E-04   6.50236202E-02   6.43941420E-02   0.00000000E+00   8.13026332E-03   8.45501253E-11   9.26556588E-11   9.45672011E-11   1.00392202E-10   9.99994111E-05   1.00000244E-04   9.96459638E-05   9.99997233E-05   8.08899797E-04   9.99978366E-05   9.99999232E-05   9.96544154E-04   9.99999320E-05   1.00000024E-04
   3.41250000E+02   5.00000000E-01   5.00000000E-01   1.07529343E-01   1.09206198E-01   8.61023863E-11   4.59953401E-11   4.52972501E-11   2.03773852E-04   2.21627163E-13   1.24388691E-10   5.78627140E-09   2.47004986E-10   3.50117811E-03   9.79054450E-11   9.97918035E-11   9.79637900E-11   9.79855703E-11   4.99973535E-02   4.99991659E-02   6.48402461E-02   7.18196829E-02   1.77283015E-02   0.00000000E+00   9.96206333E-11   1.00045744E-10   9.99002221E-11   1.00482281E-10   9.98558789E-04   6.50348528E-02   6.43941420E-02   0.00000000E+00   8.13026332E-03   8.45501712E-11   9.26556588E-11   9.45672011E-11   1.00389940E-10   9.99994079E-05   1.00000239E-04   9.96364578E-05   9.99997225E-05   8.08899797E-04   9.99978366E-05   9.99999232E-05   9.96544330E-04   9.99999320E-05   1.00000024E-04
   3.58750000E+02   5.00000000E-01   5.00000000E-01   1.07529343E-01   1.09216640E-01   8.61023952E-11   4.60863539E-11   4.53845183E-11   2.03773852E-04   2.21659326E-13   1.24743941E-10   5.34778632E-09   2.49714425E-10   3.45732946E-03   9.79058496E-11   9.97917559E-11   9.79655437E-11   9.79866479E-11   4.99973545E-02   4.99992224E-02   6.48402461E-02   7.17809704E-02   1.77800597E-02   0.00000000E+00   9.96227403E-11   1.00044222E-10   9.99087983E-11   1.00483447E-10   9.98558755E-04   6.50445095E-02   6.43941420E-02   0.00000000E+00   8.13026332E-03   8.45502130E-11   9.26556588E-11   9.45672011E-11   1.00387458E-10   9.99994044E-05   1.00000234E-04   9.96271063E-05   9.99997217E-05   8.08899797E-04   9.99978366E-05   9.99999232E-05   9.96544509E-04   9.99999320E-05   1.00000024E-04
   3.76250000E+02   5.00000000E-01   5.00000000E-01   1.07529343E-01   1.09227142E-01   8.61024047E-11   4.61862236E-11   4.54795832E-11   2.03773851E-04   2.21693281E-13   1.25071842E-10   4.94174512E-09   2.52258465E-10   3.41265147E-03   9.79062442E-11   9.97916975E-11   9.79672496E-11   9.79875813E-11   4.99973556E-02   4.99992768E-02   6.48402461E-02   7.17393494E-02   1.78350964E-02   0.00000000E+00   9.96247593E-11   1.00042623E-10   9.99169991E-11   1.00483365E-10   9.98558710E-04   6.50528322E-02   6.43941420E-02   0.00000000E+00   8.13026333E-03   8.45502510E-11   9.26556588E-11   9.45672011E-11   1.00384791E-10   9.99994007E-05   1.00000227E-04   9.96179144E-05   9.99997210E-05   8.08899797E-04   9.99978366E-05   9.99999232E-05   9.96544692E-04   9.99999320E-05   1.00000024E-04
   3.93750000E+02   5.00000000E-01   5.00000000E-01   1.07529343E-01   1.09237696E-01   8.61024146E-11   4.62957148E-11   4.55831545E-11   2.03773851E-04   2.21729139E-13   1.25377053E-10   4.56753055E-09   2.54667774E-10   3.36715575E-03   9.79066276E-11   9.97916288E-11   9.79689028E-11   9.79883700E-11   4.99973566E-02   4.99993294E-02   6.48402461E-02   7.16952597E-02   1.78929441E-02   0.00000000E+00   9.96266878E-11   1.00040958E-10   9.99248132E-11   1.00482087E-10   9.98558653E-04   6.50600392E-02   6.43941420E-02   0.00000000E+00   8.13026333E-03   8.45502851E-11   9.26556588E-11   9.45672011E-11   1.00381970E-10   9.99993968E-05   1.00000220E-04   9.96088874E-05   9.99997203E-05   8.08899797E-04   9.99978366E-05   9.99999232E-05   9.96544878E-04   9.99999320E-05   1.00000024E-04
   4.11250000E+02   5.00000000E-01   5.00000000E-01   1.07529343E-01   1.09248297E-01   8.61024252E-11   4.64158030E-11   4.56961238E-11   2.03773850E-04   2.21767021E-13   1.25663580E-10   4.22380836E-09   2.56968751E-10   3.32083779E-03   9.79069986E-11   9.97915503E-11   9.79704974E-11   9.79890127E-11   4.99973578E-02   4.99993801E-02   6.48402461E-02   7.16490812E-02   1.79532022E-02   0.00000000E+00   9.96285224E-11   1.00039235E-10   9.99322277E-11   1.00479658E-10   9.98558587E-04   6.50663216E-02   6.43941420E-02   0.00000000E+00   8.13026333E-03   8.45503154E-11   9.26556588E-11   9.45672011E-11   1.00379022E-10   9.99993927E-05   1.00000213E-04   9.96000311E-05   9.99997197E-05   8.08899797E-04   9.99978366E-05   9.99999232E-05   9.96545068E-04   9.99999320E-05   1.00000024E-04
   4.28750000E+02   5.00000000E-01   5.00000000E-01   1.07529343E-01   1.09258939E-01   8.61024363E-11   4.65476327E-11   4.58195336E-11   2.03773850E-04   2.21807053E-13   1.25934863E-10   3.90883525E-09   2.59184067E-10   3.27368953E-03   9.79073560E-11   9.97914625E-11   9.79720284E-11   9.79895091E-11   4.99973589E-02   4.99994291E-02   6.48402461E-02   7.16011556E-02   1.80155120E-02   0.00000000E+00   9.96302607E-11   1.00037462E-10   9.99392314E-11   1.00476127E-10   9.98558511E-04   6.50718447E-02   6.43941420E-02   1.15265700E-29   8.13026334E-03   8.45503418E-11   9.26556588E-11   9.45672011E-11   1.00375968E-10   9.99993885E-05   1.00000204E-04   9.95913510E-05   9.99997191E-05   8.08899797E-04   9.99978366E-05   9.99999232E-05   9.96545262E-04   9.99999320E-05   1.00000024E-04
   4.46250000E+02   5.00000000E-01   5.00000000E-01   1.07529344E-01   1.09269617E-01   8.61024481E-11   4.66924877E-11   4.59545548E-11   2.03773850E-04   2.21849372E-13   1.26193826E-10   3.62065350E-09   2.61332971E-10   3.22569081E-03   9.79076986E-11   9.97913659E-11   9.79734909E-11   9.79898597E-11   4.99973601E-02   4.99994764E-02   6.48402461E-02   7.15517933E-02   1.80795504E-02   0.00000000E+00   9.96319003E-11   1.00035647E-10   9.99458159E-11   1.00471546E-10   9.98558425E-04   6.50767525E-02   6.43941420E-02   0.00000000E+00   8.13026334E-03   8.45503645E-11   9.26556588E-11   9.45672011E-11   1.00372826E-10   9.99993841E-05   1.00000195E-04   9.95828528E-05   9.99997186E-05   8.08899797E-04   9.99978366E-05   9.99999232E-05   9.96545460E-04   9.99999320E-05   1.00000024E-04
   4.63750000E+02   5.00000000E-01   5.00000000E-01   1.07529344E-01   1.09280328E-01   8.61024605E-11   4.68517743E-11   4.61024746E-11   2.03773849E-04   2.21894121E-13   1.26442896E-10   3.35721099E-09   2.63431294E-10   3.17679664E-03   9.79080253E-11   9.97912609E-11   9.79748800E-11   9.79900651E-11   4.99973614E-02   4.99995221E-02   6.48402461E-02   7.15012745E-02   1.81450322E-02   0.00000000E+00   9.96334396E-11   1.00033796E-10   9.99519742E-11   1.00465967E-10   9.98558331E-04   6.50811718E-02   6.43941420E-02   8.51150494E-16   8.13026335E-03   8.45503834E-11   9.26556588E-11   9.45672011E-11   1.00369614E-10   9.99993796E-05   1.00000186E-04   9.95745417E-05   9.99997181E-05   8.08899797E-04   9.99978366E-05   9.99999232E-05   9.96545662E-04   9.99999320E-05   1.00000024E-04
   4.81250000E+02   5.00000000E-01   5.00000000E-01   1.07529344E-01   1.09291064E-01   8.61024737E-11   4.70270184E-11   4.62646947E-11   2.03773849E-04   2.21941453E-13   1.26683995E-10   3.11644036E-09   2.65491262E-10   3.12693368E-03   9.79083350E-11   9.97911480E-11   9.79761908E-11   9.79901261E-11   4.99973627E-02   4.99995663E-02   6.48402461E-02   7.14498500E-02   1.82117110E-02   0.00000000E+00   9.96348770E-11   1.00031917E-10   9.99576995E-11   1.00459441E-10   9.98558229E-04   6.50852150E-02   6.43941420E-02   5.34696917E-15   8.13026335E-03   8.45503987E-11   9.26556588E-11   9.45672011E-11   1.00366345E-10   9.99993750E-05   1.00000176E-04   9.95664228E-05   9.99997177E-05   8.08899797E-04   9.99978366E-05   9.99999232E-05   9.96545868E-04   9.99999320E-05   1.00000024E-04
   4.98750000E+02   5.00000000E-01   5.00000000E-01   1.07529344E-01   1.09301819E-01   8.61024875E-11   4.72198754E-11   4.64427421E-11   2.03773848E-04   2.21991532E-13   1.26918539E-10   2.89631927E-09   2.67521376E-10   3.07601115E-03   9.79086265E-11   9.97910277E-11   9.79774183E-11   9.79900429E-11   4.99973640E-02   4.99996091E-02   6.48402461E-02   7.13977433E-02   1.82793729E-02   0.00000000E+00   9.96362108E-11   1.00030015E-10   9.99629856E-11   1.00452016E-10   9.98558119E-04   6.50889785E-02   6.43941420E-02   1.22397593E-14   8.13026336E-03   8.45504102E-11   9.26556588E-11   9.45672011E-11   1.00363031E-10   9.99993703E-05   1.00000165E-04   9.95585010E-05   9.99997173E-05   8.08899797E-04   9.99978366E-05   9.99999232E-05   9.96546079E-04   9.99999320E-05   1.00000024E-04
   5.16250000E+02   5.00000000E-01   5.00000000E-01   1.07529345E-01   1.09312585E-01   8.61025022E-11   4.74321554E-11   4.66382910E-11   2.03773848E-04   2.22044532E-13   1.27147468E-10   2.69492111E-09   2.69526577E-10   3.02394235E-03   9.79088987E-11   9.97909004E-11   9.79785577E-11   9.79898168E-11   4.99973654E-02   4.99996504E-02   6.48402461E-02   7.13451572E-02   1.83478250E-02   0.00000000E+00   9.96374399E-11   1.00028097E-10   9.99678282E-11   1.00443742E-10   9.98558001E-04   6.50925392E-02   6.43941420E-02   2.26613797E-14   8.13026336E-03   8.45504181E-11   9.26556588E-11   9.45672011E-11   1.00359683E-10   9.99993655E-05   1.00000155E-04   9.95507807E-05   9.99997169E-05   8.08899797E-04   9.99978366E-05   9.99999233E-05   9.96546294E-04   9.99999320E-05   1.00000024E-04
   5.33750000E+02   5.00000000E-01   5.00000000E-01   1.07529345E-01   1.09323353E-01   8.61025177E-11   4.76658625E-11   4.68531979E-11   2.03773847E-04   2.22100641E-13   1.27371321E-10   2.51045612E-09   2.71508827E-10   2.97066723E-03   9.79091507E-11   9.97907666E-11   9.79796054E-11   9.79894505E-11   4.99973668E-02   4.99996904E-02   6.48402461E-02   7.12922810E-02   1.84168822E-02   0.00000000E+00   9.96385641E-11   1.00026169E-10   9.99722272E-11   1.00434677E-10   9.98557876E-04   6.50959511E-02   6.43941420E-02   3.82804287E-14   8.13026337E-03   8.45504224E-11   9.26556588E-11   9.45672011E-11   1.00356309E-10   9.99993608E-05   1.00000144E-04   9.95432663E-05   9.99997165E-05   8.08899797E-04   9.99978366E-05   9.99999233E-05   9.96546514E-04   9.99999320E-05   1.00000024E-04
   5.51250000E+02   5.00000000E-01   5.00000000E-01   1.07529346E-01   1.09334114E-01   8.61025340E-11   4.79232456E-11   4.70895472E-11   2.03773846E-04   2.22160060E-13   1.27590356E-10   2.34129844E-09   2.73468030E-10   2.91616562E-03   9.79093821E-11   9.97906271E-11   9.79805595E-11   9.79889492E-11   4.99973683E-02   4.99997290E-02   6.48402461E-02   7.12392971E-02   1.84863570E-02   0.00000000E+00   9.96395850E-11   1.00024236E-10   9.99761892E-11   1.00424886E-10   9.98557745E-04   6.50992438E-02   6.43941420E-02   6.15661901E-14   8.13026337E-03   8.45504232E-11   9.26556588E-11   9.45672011E-11   1.00352919E-10   9.99993559E-05   1.00000133E-04   9.95359620E-05   9.99997162E-05   8.08899797E-04   9.99978366E-05   9.99999233E-05   9.96546739E-04   9.99999320E-05   1.00000024E-04
   5.68750000E+02   5.00000000E-01   5.00000000E-01   1.07529346E-01   1.09344858E-01   8.61025513E-11   4.82068577E-11   4.73497045E-11   2.03773846E-04   2.22223007E-13   1.27804669E-10   2.18599518E-09   2.75403048E-10   2.86045497E-03   9.79095929E-11   9.97904826E-11   9.79814204E-11   9.79883210E-11   4.99973698E-02   4.99997664E-02   6.48402461E-02   7.11863827E-02   1.85560575E-02   0.00000000E+00   9.96405059E-11   1.00022305E-10   9.99797286E-11   1.00414447E-10   9.98557608E-04   6.51024245E-02   6.43941420E-02   9.61885674E-14   8.13026338E-03   8.45504207E-11   9.26556588E-11   9.45672011E-11   1.00349518E-10   9.99993511E-05   1.00000121E-04   9.95288716E-05   9.99997160E-05   8.08899797E-04   9.99978366E-05   9.99999233E-05   9.96546970E-04   9.99999320E-05   1.00000024E-04
   5.86250000E+02   5.00000000E-01   5.00000000E-01   1.07529347E-01   1.09355577E-01   8.61025696E-11   4.85196194E-11   4.76363742E-11   2.03773845E-04   2.22289715E-13   1.28014299E-10   2.04325785E-09   2.77312494E-10   2.80357345E-03   9.79097836E-11   9.97903340E-11   9.79821905E-11   9.79875758E-11   4.99973714E-02   4.99998024E-02   6.48402461E-02   7.11337090E-02   1.86257935E-02   0.00000000E+00   9.96413318E-11   1.00020385E-10   9.99828663E-11   1.00403445E-10   9.98557466E-04   6.51054849E-02   6.43941420E-02   1.47627632E-13   8.13026338E-03   8.45504151E-11   9.26556588E-11   9.45672011E-11   1.00346114E-10   9.99993462E-05   1.00000110E-04   9.95219987E-05   9.99997157E-05   8.08899797E-04   9.99978366E-05   9.99999233E-05   9.96547205E-04   9.99999320E-05   1.00000024E-04
   6.03750000E+02   5.00000000E-01   5.00000000E-01   1.07529347E-01   1.09366258E-01   8.61025890E-11   4.88648842E-11   4.79526597E-11   2.03773844E-04   2.22360437E-13   1.28219271E-10   1.91194087E-09   2.79195051E-10   2.74555590E-03   9.79099548E-11   9.97901824E-11   9.79828728E-11   9.79867247E-11   4.99973730E-02   4.99998372E-02   6.48402461E-02   7.10814358E-02   1.86953876E-02   0.00000000E+00   9.96420684E-11   1.00018481E-10   9.99856273E-11   1.00391967E-10   9.98557321E-04   6.51084088E-02   6.43941420E-02   2.24108310E-13   8.13026339E-03   8.45504068E-11   9.26556588E-11   9.45672011E-11   1.00342711E-10   9.99993414E-05   1.00000098E-04   9.95153468E-05   9.99997155E-05   8.08899797E-04   9.99978366E-05   9.99999233E-05   9.96547446E-04   9.99999320E-05   1.00000024E-04
   6.21250000E+02   5.00000000E-01   5.00000000E-01   1.07529348E-01   1.09376889E-01   8.61026095E-11   4.92465067E-11   4.83021270E-11   2.03773843E-04   2.22435446E-13   1.28419582E-10   1.79101494E-09   2.81049257E-10   2.68641276E-03   9.79101073E-11   9.97900285E-11   9.79834708E-11   9.79857779E-11   4.99973747E-02   4.99998707E-02   6.48402461E-02   7.10297060E-02   1.87646861E-02   0.00000000E+00   9.96427219E-11   1.00016599E-10   9.99880370E-11   1.00380096E-10   9.98557172E-04   6.51111803E-02   6.43941420E-02   3.38042667E-13   8.13026340E-03   8.45503958E-11   9.26556588E-11   9.45672011E-11   1.00339314E-10   9.99993365E-05   1.00000086E-04   9.95089191E-05   9.99997153E-05   8.08899797E-04   9.99978366E-05   9.99999233E-05   9.96547692E-04   9.99999320E-05   1.00000024E-04