 TITLE = "Mineral Volumes" 
VARIABLES = "X"          "Y"              "Z"            "Forsterite"     "Fayalite"       "Brucite"        "Lizardite"      "Chrysotile"     "Saponite(Mg)"   "Enstatite(alph" "Ferrosilite(al" "Anorthite"      "Albite(low)"    "Clinochlore"    "Sudoite"        "Montmorillonit" "Kaolinite"      "Tremolite"      "Pargasite"      "Anhydrite"      "Epidote"        "Scolecite"      "Pyrite"         "FeS(am)"        "Quartz(alpha)" 
 ZONE I=         100 , J=           1 , K=           1  F=POINT
   1.75000000E+01   5.00000000E-01   5.00000000E-01   8.83961925E-02   1.02675853E-01   2.37751623E-11   6.84361491E-14   5.53653006E-14   0.00000000E+00   4.99974388E-02   4.99990430E-02   3.35258068E-02   7.35530287E-02   8.11790473E-02   2.23522843E-10   1.53838601E-13   2.01711074E-09   6.49556003E-02   6.46059367E-02   4.27331358E-11   9.99999943E-04   9.84051839E-04   4.80268784E-11   5.84418144E-11   1.00311925E-10
   5.25000000E+01   5.00000000E-01   5.00000000E-01   8.83961929E-02   1.05174744E-01   2.37751639E-11   7.59404616E-14   6.03820167E-14   0.00000000E+00   4.99974426E-02   5.00004189E-02   3.35258068E-02   8.04776987E-02   7.38609155E-02   6.45686360E-11   1.04719266E-11   1.96097070E-09   6.54893717E-02   6.46059367E-02   4.34472202E-11   1.00000001E-03   9.84052907E-04   4.80268784E-11   5.84466860E-11   1.00431517E-10
   8.75000000E+01   5.00000000E-01   5.00000000E-01   8.83961933E-02   1.06814177E-01   2.37751770E-11   7.53761529E-14   6.04581040E-14   0.00000000E+00   4.99974446E-02   5.00010773E-02   3.35258069E-02   8.42808440E-02   6.98424694E-02   6.17207235E-11   8.24142359E-10   2.01682659E-09   6.59427977E-02   6.46059367E-02   4.42478372E-11   1.00000000E-03   9.84054452E-04   4.80268784E-11   5.84489420E-11   1.00464573E-10
   1.22500000E+02   5.00000000E-01   5.00000000E-01   8.83961936E-02   1.07627147E-01   2.37751921E-11   6.90493240E-14   5.68245969E-14   0.00000000E+00   4.99974456E-02   5.00013147E-02   3.35258069E-02   8.60152001E-02   6.80098877E-02   7.97330020E-11   3.16843979E-08   2.11322141E-09   6.60465271E-02   6.46059367E-02   4.51514439E-11   1.00000000E-03   9.84056326E-04   4.80268784E-11   5.84498780E-11   1.00463414E-10
   1.57500000E+02   5.00000000E-01   5.00000000E-01   8.83961940E-02   1.08044568E-01   2.37752089E-11   6.21888723E-14   5.26276244E-14   0.00000000E+00   4.99974463E-02   5.00013844E-02   3.35258070E-02   8.66826840E-02   6.73038502E-02   1.19019137E-10   6.14586431E-07   2.23849066E-09   6.59325849E-02   6.46059367E-02   4.61765537E-11   1.00000000E-03   9.84058489E-04   4.80268784E-11   5.84501433E-11   1.00451479E-10
   1.92500000E+02   5.00000000E-01   5.00000000E-01   8.83961944E-02   1.08292574E-01   2.37752272E-11   5.63013361E-14   4.88702069E-14   0.00000000E+00   4.99974471E-02   5.00013924E-02   3.35258072E-02   8.68929211E-02   6.70718399E-02   1.95539091E-10   8.14581196E-06   2.38820530E-09   6.57378567E-02   6.46059367E-02   4.73439410E-11   1.00000000E-03   9.84060927E-04   4.80268784E-11   5.84500228E-11   1.00437206E-10
   2.27500000E+02   5.00000000E-01   5.00000000E-01   8.83961948E-02   1.08474010E-01   2.37752471E-11   5.16938287E-14   4.58351179E-14   0.00000000E+00   4.99974478E-02   5.00013782E-02   3.35258074E-02   8.68663384E-02   6.70003553E-02   3.36734532E-10   8.41375769E-05   2.55749849E-09   6.55377165E-02   6.46059367E-02   4.86775344E-11   1.00000000E-03   9.84063622E-04   4.80268784E-11   5.84496575E-11   1.00423045E-10
   2.62500000E+02   5.00000000E-01   5.00000000E-01   8.83961954E-02   1.08647532E-01   2.37752710E-11   4.90852332E-14   4.41266865E-14   0.00000000E+00   4.99974488E-02   5.00013569E-02   3.35258077E-02   8.64409386E-02   6.68556485E-02   5.82456656E-10   5.37628682E-04   2.74199945E-09   6.54349227E-02   6.46059367E-02   5.02045689E-11   1.00000000E-03   9.84066556E-04   4.80268784E-11   5.84491274E-11   1.00408649E-10
   2.97500000E+02   5.00000000E-01   5.00000000E-01   8.83961963E-02   1.08827904E-01   2.37753006E-11   4.82983100E-14   4.37085414E-14   0.00000000E+00   4.99974501E-02   5.00013314E-02   3.35258081E-02   8.54744921E-02   6.65936308E-02   9.89053386E-10   1.51696563E-03   2.93779993E-09   6.54530399E-02   6.46059367E-02   5.19571833E-11   1.00000000E-03   9.84069715E-04   4.80268784E-11   5.84484782E-11   1.00393650E-10
   3.32500000E+02   5.00000000E-01   5.00000000E-01   8.83961974E-02   1.08986572E-01   2.37753338E-11   4.80904432E-14   4.37090831E-14   0.00000000E+00   4.99974515E-02   5.00012957E-02   3.35258086E-02   8.42987226E-02   6.63606203E-02   1.63531904E-09   2.64296594E-03   3.14031427E-09   6.55063010E-02   6.46059367E-02   5.39750693E-11   1.00000000E-03   9.84073088E-04   4.80268784E-11   5.84477380E-11   1.00378621E-10
   3.67500000E+02   5.00000000E-01   5.00000000E-01   8.83961987E-02   1.09124271E-01   2.37753697E-11   4.80613935E-14   4.38405059E-14   0.00000000E+00   4.99974529E-02   5.00012519E-02   3.35258094E-02   8.31085582E-02   6.61662750E-02   2.62759682E-09   3.75106358E-03   3.34480028E-09   6.55689555E-02   6.46059367E-02   5.63067753E-11   1.00000000E-03   9.84076663E-04   4.80268784E-11   5.84469377E-11   1.00363879E-10
   4.02500000E+02   5.00000000E-01   5.00000000E-01   8.83962003E-02   1.09248861E-01   2.37754080E-11   4.80980036E-14   4.40205763E-14   0.00000000E+00   4.99974544E-02   5.00012035E-02   3.35258103E-02   8.19632949E-02   6.59927810E-02   4.09746175E-09   4.80703650E-03   3.54927662E-09   6.56357018E-02   6.46059367E-02   5.90118430E-11   1.00000000E-03   9.84080442E-04   4.80268784E-11   5.84461027E-11   1.00349506E-10
   4.37500000E+02   5.00000000E-01   5.00000000E-01   8.83962021E-02   1.09365005E-01   2.37754489E-11   4.81260949E-14   4.41933948E-14   0.00000000E+00   4.99974560E-02   5.00011525E-02   3.35258117E-02   8.08804143E-02   6.58306340E-02   6.20014729E-09   5.80404060E-03   3.75451175E-09   6.57040948E-02   6.46059367E-02   6.21638481E-11   1.00000000E-03   9.84084436E-04   4.80268784E-11   5.84452526E-11   1.00335508E-10
   4.72500000E+02   5.00000000E-01   5.00000000E-01   8.83962042E-02   1.09474963E-01   2.37754921E-11   4.81094666E-14   4.43303676E-14   0.00000000E+00   4.99974575E-02   5.00011001E-02   3.35258134E-02   7.98641287E-02   6.56760699E-02   9.10698737E-09   6.74155127E-03   3.96125521E-09   6.57721504E-02   6.46059367E-02   6.58544927E-11   1.00000000E-03   9.84088667E-04   4.80268784E-11   5.84444028E-11   1.00321877E-10
   5.07500000E+02   5.00000000E-01   5.00000000E-01   8.83962067E-02   1.09579919E-01   2.37755380E-11   4.80454569E-14   4.44282819E-14   0.00000000E+00   4.99974591E-02   5.00010471E-02   3.35258157E-02   7.89141424E-02   6.55275224E-02   1.30241580E-08   7.62100202E-03   4.16952578E-09   6.58381442E-02   6.46059367E-02   7.01991229E-11   1.00000000E-03   9.84093153E-04   4.80268784E-11   5.84435653E-11   1.00308608E-10
   5.42500000E+02   5.00000000E-01   5.00000000E-01   8.83962096E-02   1.09680734E-01   2.37755864E-11   4.79459283E-14   4.44954745E-14   0.00000000E+00   4.99974607E-02   5.00009940E-02   3.35258186E-02   7.80285832E-02   6.53837318E-02   1.82091924E-08   8.44486315E-03   4.37731140E-09   6.59006320E-02   6.46059367E-02   7.53442409E-11   1.00000000E-03   9.84097912E-04   4.80268784E-11   5.84427499E-11   1.00295706E-10
   5.77500000E+02   5.00000000E-01   5.00000000E-01   8.83962129E-02   1.09778118E-01   2.37756377E-11   4.78292371E-14   4.45459468E-14   0.00000000E+00   4.99974623E-02   5.00009412E-02   3.35258225E-02   7.72049254E-02   6.52433895E-02   2.49675271E-08   9.21616970E-03   4.58027871E-09   6.59584641E-02   6.46059367E-02   8.14778403E-11   1.00000000E-03   9.84102954E-04   4.80268784E-11   5.84419637E-11   1.00283176E-10
   6.12500000E+02   5.00000000E-01   5.00000000E-01   8.83962168E-02   1.09872468E-01   2.37756918E-11   4.77187989E-14   4.45984653E-14   0.00000000E+00   4.99974639E-02   5.00008888E-02   3.35258276E-02   7.64402671E-02   6.51055156E-02   3.36527076E-08   9.93800841E-03   4.77487015E-09   6.60107843E-02   6.46059367E-02   8.88437778E-11   1.00000000E-03   9.84108301E-04   4.80268784E-11   5.84412122E-11   1.00271025E-10
   6.47500000E+02   5.00000000E-01   5.00000000E-01   8.83962212E-02   1.09963759E-01   2.37757490E-11   4.76438726E-14   4.46774124E-14   0.00000000E+00   4.99974655E-02   5.00008370E-02   3.35258341E-02   7.57314226E-02   6.49696767E-02   4.46303548E-08   1.06132781E-02   4.96179870E-09   6.60570317E-02   6.46059367E-02   9.77620112E-11   1.00000000E-03   9.84114000E-04   4.80268784E-11   5.84404992E-11   1.00259264E-10
   6.82500000E+02   5.00000000E-01   5.00000000E-01   8.83962263E-02   1.10051812E-01   2.37758095E-11   4.76408156E-14   4.48140493E-14   0.00000000E+00   4.99974671E-02   5.00007860E-02   3.35258425E-02   7.50751738E-02   6.48355452E-02   5.82847018E-08   1.12448226E-02   5.14481533E-09   6.60969268E-02   6.46059367E-02   1.08657491E-10   1.00000000E-03   9.84120129E-04   4.80268784E-11   5.84398271E-11   1.00247903E-10
   7.17500000E+02   5.00000000E-01   5.00000000E-01   8.83962321E-02   1.10136729E-01   2.37758736E-11   4.77545947E-14   4.50480266E-14   0.00000000E+00   4.99974686E-02   5.00007357E-02   3.35258534E-02   7.44686260E-02   6.47020355E-02   7.51280571E-08   1.18358029E-02   5.32656643E-09   6.61304149E-02   6.46059367E-02   1.22102017E-10   1.00000000E-03   9.84126774E-04   4.80268784E-11   5.84391975E-11   1.00236946E-10
   7.52500000E+02   5.00000000E-01   5.00000000E-01   8.83962389E-02   1.10218806E-01   2.37759415E-11   4.80425357E-14   4.54308311E-14   0.00000000E+00   4.99974702E-02   5.00006863E-02   3.35258676E-02   7.39091529E-02   6.45676779E-02   9.57638185E-08   1.23894564E-02   5.50795291E-09   6.61576266E-02   6.46059367E-02   1.38875782E-10   1.00000000E-03   9.84134032E-04   4.80268784E-11   5.84386106E-11   1.00226395E-10
   7.87500000E+02   5.00000000E-01   5.00000000E-01   8.83962469E-02   1.10298416E-01   2.37760138E-11   4.85799537E-14   4.60309597E-14   0.00000000E+00   4.99974717E-02   5.00006378E-02   3.35258859E-02   7.33943987E-02   6.44309411E-02   1.20968208E-07   1.29088485E-02   5.68927769E-09   6.61788209E-02   6.46059367E-02   1.60059288E-10   1.00000000E-03   9.84142021E-04   4.80268784E-11   5.84380664E-11   1.00216246E-10
   8.22500000E+02   5.00000000E-01   5.00000000E-01   8.83962562E-02   1.10375976E-01   2.37760908E-11   4.94694883E-14   4.69424570E-14   0.00000000E+00   4.99974732E-02   5.00005902E-02   3.35259099E-02   7.29222918E-02   6.42903819E-02   1.51688897E-07   1.33967478E-02   5.87029297E-09   6.61943465E-02   6.46059367E-02   1.87173026E-10   1.00000000E-03   9.84150890E-04   4.80268784E-11   5.84375638E-11   1.00206489E-10
   8.57500000E+02   5.00000000E-01   5.00000000E-01   8.83962672E-02   1.10451973E-01   2.37761733E-11   5.08557677E-14   4.82983472E-14   0.00000000E+00   4.99974747E-02   5.00005435E-02   3.35259411E-02   7.24911359E-02   6.41446034E-02   1.89166769E-07   1.38555832E-02   6.05009712E-09   6.62045928E-02   6.46059367E-02   2.22393647E-10   9.99999999E-04   9.84160828E-04   4.80268784E-11   5.84371014E-11   1.00197115E-10
   8.92500000E+02   5.00000000E-01   5.00000000E-01   8.83962806E-02   1.10526927E-01   2.37762621E-11   5.29496398E-14   5.02928087E-14   0.00000000E+00   4.99974761E-02   5.00004976E-02   3.35259821E-02   7.20996769E-02   6.39923461E-02   2.34950485E-07   1.42873206E-02   6.22685971E-09   6.62099672E-02   6.46059367E-02   2.68895075E-10   9.99999998E-04   9.84172081E-04   4.80268784E-11   5.84366773E-11   1.00188106E-10
   9.27500000E+02   5.00000000E-01   5.00000000E-01   8.83962970E-02   1.10601374E-01   2.37763583E-11   5.60680493E-14   5.32176757E-14   0.00000000E+00   4.99974775E-02   5.00004526E-02   3.35260362E-02   7.17472500E-02   6.38324414E-02   2.91136464E-07   1.46933791E-02   6.39804423E-09   6.62108546E-02   6.46059367E-02   3.31398129E-10   9.99999997E-04   9.84184984E-04   4.80268784E-11   5.84362894E-11   1.00179446E-10
   9.62500000E+02   5.00000000E-01   5.00000000E-01   8.83963176E-02   1.10675858E-01   2.37764632E-11   6.07020850E-14   5.75246769E-14   0.00000000E+00   4.99974789E-02   5.00004083E-02   3.35261083E-02   7.14339435E-02   6.36637270E-02   3.60518813E-07   1.50745621E-02   6.56088000E-09   6.62075973E-02   6.46059367E-02   4.17076131E-10   9.99999996E-04   9.84200007E-04   4.80268784E-11   5.84359354E-11   1.00171117E-10
   9.97500000E+02   5.00000000E-01   5.00000000E-01   8.83963438E-02   1.10750873E-01   2.37765787E-11   6.76351810E-14   6.39335194E-14   0.00000000E+00   4.99974802E-02   5.00003647E-02   3.35262055E-02   7.11608278E-02   6.34849637E-02   4.46581242E-07   1.54309343E-02   6.71325661E-09   6.62005105E-02   6.46059367E-02   5.37083188E-10   9.99999993E-04   9.84217854E-04   4.80268784E-11   5.84356129E-11   1.00163098E-10
   1.03250000E+03   5.00000000E-01   5.00000000E-01   8.83963781E-02   1.10826731E-01   2.37767069E-11   7.81501120E-14   7.36213362E-14   0.00000000E+00   4.99974815E-02   5.00003216E-02   3.35263389E-02   7.09304087E-02   6.32948029E-02   5.53711738E-07   1.57614782E-02   6.85515010E-09   6.61898859E-02   6.46059367E-02   7.09200164E-10   9.99999990E-04   9.84239623E-04   4.80268784E-11   5.84353193E-11   1.00155368E-10
   1.06750000E+03   5.00000000E-01   5.00000000E-01   8.83964235E-02   1.10903570E-01   2.37768507E-11   9.43902247E-14   8.85542473E-14   0.00000000E+00   4.99974827E-02   5.00002790E-02   3.35265267E-02   7.07476193E-02   6.30911990E-02   6.87779415E-07   1.60637367E-02   6.98779025E-09   6.61759668E-02   6.46059367E-02   9.62543870E-10   9.99999987E-04   9.84267123E-04   4.80268784E-11   5.84350520E-11   1.00147904E-10
   1.10250000E+03   5.00000000E-01   5.00000000E-01   8.83964842E-02   1.10981219E-01   2.37770135E-11   1.19965572E-13   1.12047574E-13   0.00000000E+00   4.99974839E-02   5.00002365E-02   3.35268015E-02   7.06217945E-02   6.28706932E-02   8.57233776E-07   1.63327532E-02   7.11211978E-09   6.61588836E-02   6.46059367E-02   1.34619955E-09   9.99999982E-04   9.84303557E-04   4.80268784E-11   5.84348082E-11   1.00140681E-10
   1.13750000E+03   5.00000000E-01   5.00000000E-01   8.83964244E-02   1.08170152E-01   2.37767020E-11   1.23051069E-13   1.15817877E-13   5.35446765E-02   4.99974423E-02   4.99990280E-02   3.35273292E-02   6.70582829E-02   1.44831604E-02   1.20791577E-05   4.55166667E-02   1.10739300E-08   6.47569054E-02   6.46059367E-02   1.94146637E-09   9.99999983E-04   9.84379960E-04   4.80268784E-11   5.84345514E-11   1.00043638E-10
   1.17250000E+03   5.00000000E-01   5.00000000E-01   8.83965275E-02   1.09395504E-01   2.37770003E-11   1.75973418E-13   1.64804345E-13   0.00000000E+00   4.99974463E-02   4.99992994E-02   3.35280086E-02   6.77231079E-02   6.75620153E-02   1.77637790E-06   1.50863070E-02   8.39470726E-09   6.47558592E-02   6.46059367E-02   2.90490502E-09   9.99999971E-04   9.84451282E-04   4.80268784E-11   5.84344692E-11   1.00050943E-10
   1.20750000E+03   5.00000000E-01   5.00000000E-01   8.83966631E-02   1.10555495E-01   2.37772848E-11   2.58594521E-13   2.41545262E-13   0.00000000E+00   4.99974494E-02   4.99994933E-02   3.35295300E-02   6.84333400E-02   6.50376480E-02   1.98622474E-06   1.64372485E-02   8.08467792E-09   6.47555180E-02   6.46059367E-02   4.52765642E-09   9.99999965E-04   9.84609433E-04   4.80268784E-11   5.84343174E-11   1.00054275E-10
   1.24250000E+03   5.00000000E-01   5.00000000E-01   8.83968343E-02   1.11225569E-01   2.37775928E-11   3.73263487E-13   3.48953419E-13   0.00000000E+00   4.99974518E-02   4.99995849E-02   3.35347256E-02   6.95455666E-02   6.31796310E-02   2.62102635E-06   1.69485391E-02   8.03707762E-09   6.47555688E-02   6.46059367E-02   7.37238673E-09   9.99999960E-04   9.85110555E-04   4.80268784E-11   5.84341177E-11   1.00055016E-10
   1.27750000E+03   5.00000000E-01   5.00000000E-01   8.83970373E-02   1.11360797E-01   2.37779438E-11   4.92685761E-13   4.63004414E-13   0.00000000E+00   4.99974536E-02   4.99995900E-02   3.35904836E-02   7.25800658E-02   6.18617128E-02   4.22678753E-06   1.54111346E-02   8.06932473E-09   6.47561586E-02   6.46059367E-02   1.25743079E-08   9.99999954E-04   9.89351825E-04   4.80268784E-11   5.84338777E-11   1.00053897E-10
   1.31250000E+03   5.00000000E-01   5.00000000E-01   8.83972609E-02   1.11310645E-01   2.37783952E-11   5.52465216E-13   5.24190378E-13   0.00000000E+00   4.99974554E-02   4.99995606E-02   3.43605429E-02   7.67679044E-02   6.10127915E-02   4.77574441E-06   1.14151382E-02   7.89413318E-09   6.47690808E-02   6.46059367E-02   2.25036016E-08   9.99999948E-04   1.02145214E-03   4.80268784E-11   5.84336519E-11   1.00052250E-10
   1.34750000E+03   5.00000000E-01   5.00000000E-01   8.83974971E-02   1.11329519E-01   2.37790839E-11   5.18716094E-13   4.98414483E-13   0.00000000E+00   4.99974575E-02   4.99995303E-02   3.57009586E-02   7.75023334E-02   5.97202991E-02   3.05940949E-06   9.63787092E-03   7.55484494E-09   6.54615347E-02   6.46059367E-02   4.22659323E-08   9.99999941E-04   1.04840168E-03   4.80268784E-11   5.84334812E-11   1.00050678E-10
   1.38250000E+03   5.00000000E-01   5.00000000E-01   8.83976750E-02   1.09701571E-01   2.37796858E-11   4.21939793E-13   4.10994757E-13   1.80211409E-02   4.99974462E-02   4.99990664E-02   3.69270646E-02   7.60757829E-02   4.24611049E-02   2.92691552E-05   1.83786063E-02   9.92303818E-09   6.67362735E-02   6.46059367E-02   8.32663573E-08   9.99999935E-04   1.05743855E-03   4.80268784E-11   5.84333396E-11   1.00028190E-10
   1.41750000E+03   5.00000000E-01   5.00000000E-01   8.83979177E-02   1.10160654E-01   2.37807019E-11   3.35014008E-13   3.30334540E-13   2.21851212E-03   4.99974470E-02   4.99990872E-02   3.80424845E-02   7.57582315E-02   5.65080070E-02   2.51658167E-05   9.26031519E-03   9.33972545E-09   6.79079868E-02   6.46059367E-02   1.73614049E-07   9.99999928E-04   1.05990599E-03   4.80268784E-11   5.84332584E-11   1.00026113E-10
   1.45250000E+03   5.00000000E-01   5.00000000E-01   8.83981744E-02   1.10606685E-01   2.37819387E-11   2.65849037E-13   2.64857137E-13   9.24439566E-04   4.99974479E-02   4.99991022E-02   3.90989953E-02   7.55775064E-02   5.54584944E-02   2.24019378E-05   8.77576927E-03   8.85256067E-09   6.90011471E-02   6.46059367E-02   3.84833748E-07   9.99999923E-04   1.05981576E-03   4.80268784E-11   5.84331827E-11   1.00024410E-10
   1.48750000E+03   5.00000000E-01   5.00000000E-01   8.83984458E-02   1.10951973E-01   2.37834592E-11   2.13843066E-13   2.14844761E-13   7.16386137E-05   4.99974488E-02   4.99991033E-02   4.01308884E-02   7.54106977E-02   5.42045529E-02   2.06727404E-05   8.38771141E-03   8.43025594E-09   7.00473862E-02   6.46059368E-02   9.10603783E-07   9.99999919E-04   1.05843632E-03   4.80268784E-11   5.84331130E-11   1.00022722E-10
   1.52250000E+03   5.00000000E-01   5.00000000E-01   8.83987296E-02   1.11091444E-01   2.37853290E-11   1.74643876E-13   1.76641825E-13   8.34968860E-11   4.99974493E-02   4.99990764E-02   4.11533340E-02   7.51998555E-02   5.26010755E-02   2.68014305E-05   8.15076827E-03   8.29869677E-09   7.10610514E-02   6.46059368E-02   2.30907272E-06   9.99999918E-04   1.05630281E-03   4.80268784E-11   5.84330502E-11   1.00020563E-10
   1.55750000E+03   5.00000000E-01   5.00000000E-01   8.83990243E-02   1.11111114E-01   2.37876455E-11   1.44723297E-13   1.47144669E-13   8.22925045E-20   4.99974497E-02   4.99990341E-02   4.21664945E-02   7.49766679E-02   5.12066754E-02   4.12073302E-05   7.75245447E-03   8.32585153E-09   7.20427217E-02   6.46059368E-02   6.30112247E-06   9.99999919E-04   1.05359311E-03   4.80268784E-11   5.84329962E-11   1.00018145E-10
   1.59250000E+03   5.00000000E-01   5.00000000E-01   8.83993277E-02   1.11085943E-01   2.37905302E-11   1.21601547E-13   1.24124405E-13   1.51624633E-30   4.99974498E-02   4.99989854E-02   4.31703738E-02   7.47820356E-02   4.99374270E-02   7.76254714E-05   7.21615307E-03   8.48905831E-09   7.29940523E-02   6.46059368E-02   1.85847305E-05   9.99999923E-04   1.05054800E-03   4.80268784E-11   5.84329509E-11   1.00015623E-10
   1.62750000E+03   5.00000000E-01   5.00000000E-01   8.83996375E-02   1.11059867E-01   2.37941355E-11   1.03566449E-13   1.06018134E-13   1.04218095E-42   4.99974499E-02   4.99989356E-02   4.41709364E-02   7.46476657E-02   4.86897039E-02   1.71095136E-04   6.53045708E-03   8.71966946E-09   7.39184699E-02   6.46059368E-02   5.94700941E-05   9.99999928E-04   1.04740507E-03   4.80268784E-11   5.84329131E-11   1.00013100E-10
   1.66250000E+03   5.00000000E-01   5.00000000E-01   8.83999529E-02   1.11048692E-01   2.37986532E-11   8.94541447E-14   9.17514789E-14   1.24438839E-54   4.99974500E-02   4.99988884E-02   4.51739149E-02   7.46433664E-02   4.73958913E-02   3.85154800E-04   5.58133121E-03   8.95070156E-09   7.48159019E-02   6.46059369E-02   2.06591672E-04   9.99999935E-04   1.04432976E-03   4.80268784E-11   5.84328810E-11   1.00010691E-10
   1.69750000E+03   5.00000000E-01   5.00000000E-01   8.84002755E-02   1.11047777E-01   2.38043281E-11   7.84744127E-14   8.05879607E-14   1.28820900E-63   4.99974502E-02   4.99988451E-02   4.62066116E-02   7.48375367E-02   4.60116386E-02   7.20371706E-04   4.30243669E-03   9.13687190E-09   7.56929461E-02   6.46059369E-02   7.68419240E-04   9.99999942E-04   1.04169231E-03   4.80268784E-11   5.84328527E-11   1.00008487E-10
   1.73250000E+03   5.00000000E-01   5.00000000E-01   8.84006103E-02   1.11044935E-01   2.38114763E-11   7.00260900E-14   7.19574764E-14   8.59169334E-68   4.99974508E-02   4.99988093E-02   4.72806368E-02   7.50414580E-02   4.45035983E-02   1.35463222E-03   2.57308164E-03   9.05729592E-09   7.65631729E-02   6.46059370E-02   2.85390115E-03   9.99999949E-04   1.03931318E-03   4.80268784E-11   5.84328264E-11   1.00006744E-10
   1.76750000E+03   5.00000000E-01   5.00000000E-01   8.84009595E-02   1.11039066E-01   2.38204663E-11   6.35460492E-14   6.53111281E-14   1.75129352E-69   4.99974517E-02   4.99987761E-02   4.84636052E-02   7.51296157E-02   4.29448191E-02   1.79242030E-03   1.11000784E-03   8.71067519E-09   7.75821509E-02   6.46059370E-02   8.69380685E-03   9.99999955E-04   1.03735727E-03   4.80268784E-11   5.84328038E-11   1.00005202E-10
   1.80250000E+03   5.00000000E-01   5.00000000E-01   8.84013207E-02   1.10965099E-01   2.38317355E-11   5.84797782E-14   6.00962454E-14   6.51153396E-72   4.99974526E-02   4.99987342E-02   4.97630212E-02   7.51100816E-02   4.15746063E-02   1.71085768E-03   2.20596622E-04   8.20263366E-09   7.86737063E-02   6.46059371E-02   1.76889600E-02   9.99999961E-04   1.03541414E-03   4.80268784E-11   5.84327846E-11   1.00003524E-10
   1.83750000E+03   5.00000000E-01   5.00000000E-01   8.84016939E-02   1.10809783E-01   2.38458553E-11   5.43485765E-14   5.58295414E-14   1.18693783E-75   4.99974534E-02   4.99986797E-02   5.10970036E-02   7.49064906E-02   4.04557999E-02   1.13920254E-03   4.04064682E-06   7.42400384E-09   7.97175020E-02   6.46059372E-02   2.46322621E-02   9.99999966E-04   1.03310910E-03   4.80268784E-11   5.84327679E-11   1.00001530E-10
   1.87250000E+03   5.00000000E-01   5.00000000E-01   8.84020792E-02   1.10626999E-01   2.38635230E-11   5.07995171E-14   5.21516065E-14   4.44966696E-79   4.99974544E-02   4.99986196E-02   5.24446372E-02   7.43123897E-02   3.93533001E-02   6.10917490E-04   3.31467470E-09   6.37619287E-09   8.07758814E-02   6.46059373E-02   2.71942791E-02   9.99999971E-04   1.03044902E-03   4.80268784E-11   5.84327536E-11   9.99993863E-11
   1.90750000E+03   5.00000000E-01   5.00000000E-01   8.84024696E-02   1.10442871E-01   2.38855463E-11   4.76110840E-14   4.88352335E-14   4.68860933E-83   4.99974553E-02   4.99985575E-02   5.39088027E-02   7.33876163E-02   3.82014339E-02   1.54418471E-04   1.16940157E-12   5.36928604E-09   8.19692943E-02   6.46059375E-02   2.68083782E-02   9.99999974E-04   1.02795579E-03   4.80268784E-11   5.84327418E-11   9.99971998E-11
   1.94250000E+03   5.00000000E-01   5.00000000E-01   8.84028667E-02   1.10286173E-01   2.39129640E-11   4.46897245E-14   4.57850044E-14   1.73741759E-84   4.99974566E-02   4.99985019E-02   5.54600104E-02   7.17708602E-02   3.69744763E-02   2.93414466E-07   1.65252900E-17   3.78446557E-09   8.31851168E-02   6.46059377E-02   2.52471942E-02   9.99999977E-04   1.02525901E-03   4.80268784E-11   5.84327320E-11   9.99952971E-11
   1.97750000E+03   5.00000000E-01   5.00000000E-01   8.84032669E-02   1.10125850E-01   2.39469858E-11   4.20138620E-14   4.29800892E-14   1.66417849E-84   4.99974582E-02   4.99984525E-02   5.70196891E-02   6.98398139E-02   3.57450472E-02   3.04344686E-10   2.25617768E-21   2.72767702E-09   8.44607713E-02   6.46059380E-02   2.34289157E-02   9.99999979E-04   1.02218635E-03   4.80268784E-11   5.84327238E-11   9.99937553E-11
   2.01250000E+03   5.00000000E-01   5.00000000E-01   8.84036573E-02   1.10021065E-01   2.39890243E-11   3.95958605E-14   4.04353345E-14   4.84175007E-86   4.99974594E-02   4.99984115E-02   5.85075464E-02   6.79722616E-02   3.45990755E-02   1.41236052E-10   1.42214157E-22   2.53774471E-09   8.57732498E-02   6.46059383E-02   2.16864827E-02   9.99999981E-04   1.01879018E-03   4.80268784E-11   5.84327187E-11   9.99924551E-11
   2.04750000E+03   5.00000000E-01   5.00000000E-01   8.84040315E-02   1.10008926E-01   2.40408574E-11   3.74619101E-14   3.81807532E-14   7.27123204E-89   4.99974603E-02   4.99983816E-02   5.97319893E-02   6.63154413E-02   3.37841431E-02   1.28248192E-10   6.11913790E-23   2.49351652E-09   8.67778665E-02   6.46059388E-02   2.01067248E-02   9.99999982E-04   1.01493550E-03   4.80268784E-11   5.84327160E-11   9.99914005E-11
   2.08250000E+03   5.00000000E-01   5.00000000E-01   8.84044015E-02   1.10010349E-01   2.41047085E-11   3.56379451E-14   3.62467507E-14   1.53321052E-90   4.99974612E-02   4.99983584E-02   6.05462136E-02   6.51099163E-02   3.33538232E-02   1.18617999E-10   3.93889608E-23   2.47064700E-09   8.73064091E-02   6.46059394E-02   1.86890910E-02   9.99999983E-04   1.01094345E-03   4.80268784E-11   5.84327141E-11   9.99906172E-11
   2.11750000E+03   5.00000000E-01   5.00000000E-01   8.84047730E-02   1.10012717E-01   2.41832239E-11   3.41233082E-14   3.46353781E-14   2.25493822E-91   4.99974624E-02   4.99983398E-02   6.10822026E-02   6.43112262E-02   3.30769504E-02   1.10073037E-10   2.94742442E-23   2.46015493E-09   8.76378408E-02   6.46059401E-02   1.74082517E-02   9.99999984E-04   1.00738874E-03   4.80268784E-11   5.84327126E-11   9.99900209E-11
   2.15250000E+03   5.00000000E-01   5.00000000E-01   8.84051513E-02   1.10015559E-01   2.42795990E-11   3.28971243E-14   3.33268827E-14   9.30153803E-92   4.99974637E-02   4.99983244E-02   6.14598373E-02   6.37659633E-02   3.28638089E-02   1.02400832E-10   2.31293018E-23   2.45631688E-09   8.78861537E-02   6.46059411E-02   1.62377263E-02   9.99999985E-04   1.00437865E-03   4.80268784E-11   5.84327113E-11   9.99895417E-11
   2.18750000E+03   5.00000000E-01   5.00000000E-01   8.84055427E-02   1.10018933E-01   2.43976933E-11   3.19250073E-14   3.22866374E-14   6.76812459E-92   4.99974651E-02   4.99983112E-02   6.17443935E-02   6.33713148E-02   3.26861252E-02   9.59050337E-11   1.81571376E-23   2.45295015E-09   8.80873109E-02   6.46059424E-02   1.51570254E-02   9.99999985E-04   1.00184747E-03   4.80268784E-11   5.84327101E-11   9.99891379E-11
   2.22250000E+03   5.00000000E-01   5.00000000E-01   8.84059542E-02   1.10022800E-01   2.45421647E-11   3.11662621E-14   3.14727307E-14   6.86779894E-92   4.99974665E-02   4.99982996E-02   6.19712131E-02   6.30688497E-02   3.25315836E-02   9.08189999E-11   1.39695547E-23   2.44477867E-09   8.82572369E-02   6.46059439E-02   1.41524804E-02   9.99999985E-04   9.99708963E-04   4.80268784E-11   5.84327091E-11   9.99887855E-11
   2.25750000E+03   5.00000000E-01   5.00000000E-01   8.84063931E-02   1.10026848E-01   2.47186346E-11   3.05800416E-14   3.08425715E-14   8.57760162E-92   4.99974681E-02   4.99982891E-02   6.21596714E-02   6.28260675E-02   3.23939642E-02   8.67559346E-11   1.05188740E-23   2.43009742E-09   8.84045442E-02   6.46059459E-02   1.32131772E-02   9.99999984E-04   9.97889031E-04   4.80268784E-11   5.84327081E-11   9.99884705E-11
   2.29250000E+03   5.00000000E-01   5.00000000E-01   8.84068669E-02   1.10030667E-01   2.49338909E-11   3.01295392E-14   3.03574731E-14   1.23774993E-91   4.99974697E-02   4.99982794E-02   6.23202164E-02   6.26251139E-02   3.22702883E-02   8.29186428E-11   7.81998435E-24   2.41070209E-09   8.85337816E-02   6.46059484E-02   1.23303781E-02   9.99999983E-04   9.96328832E-04   4.80268784E-11   5.84327072E-11   9.99881841E-11
   2.32750000E+03   5.00000000E-01   5.00000000E-01   8.84073833E-02   1.10034016E-01   2.51961388E-11   2.97837909E-14   2.99846965E-14   2.00183892E-91   4.99974714E-02   4.99982704E-02   6.24589877E-02   6.24556428E-02   3.21586635E-02   7.87177127E-11   5.78832412E-24   2.38912386E-09   8.86477589E-02   6.46059514E-02   1.15011563E-02   9.99999981E-04   9.94982677E-04   4.80268784E-11   5.84327064E-11   9.99879208E-11
   2.36250000E+03   5.00000000E-01   5.00000000E-01   8.84079500E-02   1.10036819E-01   2.55153090E-11   2.95180086E-14   2.96979124E-14   3.57049043E-91   4.99974731E-02   4.99982619E-02   6.25802642E-02   6.23109153E-02   3.20572725E-02   7.39404572E-11   4.28393734E-24   2.36693194E-09   8.87488618E-02   6.46059553E-02   1.07252794E-02   9.99999979E-04   9.93815090E-04   4.80268784E-11   5.84327056E-11   9.99876767E-11
   2.39750000E+03   5.00000000E-01   5.00000000E-01   8.84085754E-02   1.10039027E-01   2.59034406E-11   2.93129367E-14   2.94765900E-14   6.95488871E-91   4.99974750E-02   4.99982539E-02   6.26873559E-02   6.21860565E-02   3.19643467E-02   6.85677697E-11   3.17315442E-24   2.34475366E-09   8.88392835E-02   6.46059600E-02   9.99661839E-03   9.99999976E-04   9.92798131E-04   4.80268784E-11   5.84327048E-11   9.99874489E-11