 TITLE = "Mineral Volumes" 
VARIABLES = "X"          "Y"              "Z"            "Forsterite"     "Enstatite(alph" "Anorthite"      "Ferropargasite" "Anhydrite"      "Clinochlore"    "Albite(low)"   
 ZONE I=          35 , J=           1 , K=           1  F=POINT
   5.00000000E+01   5.00000000E-01   5.00000000E-01   2.80000225E-01   2.10000009E-01   6.99996821E-04   6.99999991E-02   1.99999999E-01   7.00000112E-02   1.29999997E-01
   1.50000000E+02   5.00000000E-01   5.00000000E-01   2.80000267E-01   2.10000006E-01   6.99996821E-04   6.99999991E-02   1.99999999E-01   7.00000112E-02   1.29999997E-01
   2.50000000E+02   5.00000000E-01   5.00000000E-01   2.80000284E-01   2.10000004E-01   6.99996821E-04   6.99999991E-02   1.99999999E-01   7.00000112E-02   1.29999997E-01
   3.50000000E+02   5.00000000E-01   5.00000000E-01   2.80000288E-01   2.10000002E-01   6.99996821E-04   6.99999991E-02   1.99999999E-01   7.00000112E-02   1.29999997E-01
   4.50000000E+02   5.00000000E-01   5.00000000E-01   2.80000288E-01   2.10000001E-01   6.99996821E-04   6.99999991E-02   1.99999999E-01   7.00000112E-02   1.29999997E-01
   5.50000000E+02   5.00000000E-01   5.00000000E-01   2.80000288E-01   2.10000001E-01   6.99996821E-04   6.99999991E-02   1.99999999E-01   7.00000112E-02   1.29999997E-01
   6.50000000E+02   5.00000000E-01   5.00000000E-01   2.80000288E-01   2.10000000E-01   6.99996821E-04   6.99999991E-02   1.99999999E-01   7.00000112E-02   1.29999997E-01
   7.50000000E+02   5.00000000E-01   5.00000000E-01   2.80000287E-01   2.10000000E-01   6.99996821E-04   6.99999991E-02   1.99999999E-01   7.00000112E-02   1.29999997E-01
   8.50000000E+02   5.00000000E-01   5.00000000E-01   2.80000286E-01   2.10000000E-01   6.99996821E-04   6.99999991E-02   1.99999999E-01   7.00000112E-02   1.29999997E-01
   9.50000000E+02   5.00000000E-01   5.00000000E-01   2.80000285E-01   2.10000000E-01   6.99996821E-04   6.99999991E-02   1.99999999E-01   7.00000112E-02   1.29999997E-01
   1.05000000E+03   5.00000000E-01   5.00000000E-01   2.80000284E-01   2.10000000E-01   6.99996821E-04   6.99999991E-02   2.00000000E-01   7.00000112E-02   1.29999997E-01
   1.15000000E+03   5.00000000E-01   5.00000000E-01   2.80000283E-01   2.10000000E-01   6.99996821E-04   6.99999991E-02   2.00000000E-01   7.00000112E-02   1.29999997E-01
   1.25000000E+03   5.00000000E-01   5.00000000E-01   2.80000282E-01   2.10000000E-01   6.99996821E-04   6.99999991E-02   2.00000000E-01   7.00000112E-02   1.29999997E-01
   1.35000000E+03   5.00000000E-01   5.00000000E-01   2.80000281E-01   2.10000000E-01   6.99996821E-04   6.99999991E-02   2.00000000E-01   7.00000112E-02   1.29999997E-01
   1.45000000E+03   5.00000000E-01   5.00000000E-01   2.80000280E-01   2.10000000E-01   6.99996821E-04   6.99999991E-02   2.00000000E-01   7.00000112E-02   1.29999997E-01
   1.55000000E+03   5.00000000E-01   5.00000000E-01   2.80000278E-01   2.10000000E-01   6.99996821E-04   6.99999991E-02   2.00000001E-01   7.00000111E-02   1.29999997E-01
   1.65000000E+03   5.00000000E-01   5.00000000E-01   2.80000277E-01   2.10000000E-01   6.99996821E-04   6.99999991E-02   2.00000001E-01   7.00000111E-02   1.29999997E-01
   1.75000000E+03   5.00000000E-01   5.00000000E-01   2.80000275E-01   2.10000000E-01   6.99996821E-04   6.99999991E-02   2.00000001E-01   7.00000111E-02   1.29999997E-01
   1.85000000E+03   5.00000000E-01   5.00000000E-01   2.80000274E-01   2.10000000E-01   6.99996821E-04   6.99999991E-02   2.00000002E-01   7.00000111E-02   1.29999997E-01
   1.95000000E+03   5.00000000E-01   5.00000000E-01   2.80000273E-01   2.10000000E-01   6.99996821E-04   6.99999991E-02   2.00000002E-01   7.00000111E-02   1.29999997E-01
   2.05000000E+03   5.00000000E-01   5.00000000E-01   2.80000271E-01   2.10000000E-01   6.99996821E-04   6.99999991E-02   2.00000002E-01   7.00000111E-02   1.29999997E-01
   2.15000000E+03   5.00000000E-01   5.00000000E-01   2.80000269E-01   2.10000000E-01   6.99996821E-04   6.99999991E-02   2.00000003E-01   7.00000111E-02   1.29999997E-01
   2.25000000E+03   5.00000000E-01   5.00000000E-01   2.80000268E-01   2.10000000E-01   6.99996821E-04   6.99999991E-02   2.00000004E-01   7.00000111E-02   1.29999997E-01
   2.35000000E+03   5.00000000E-01   5.00000000E-01   2.80000266E-01   2.10000000E-01   6.99996821E-04   6.99999991E-02   2.00000004E-01   7.00000111E-02   1.29999997E-01
   2.45000000E+03   5.00000000E-01   5.00000000E-01   2.80000265E-01   2.10000000E-01   6.99996821E-04   6.99999991E-02   2.00000005E-01   7.00000111E-02   1.29999997E-01
   2.55000000E+03   5.00000000E-01   5.00000000E-01   2.80000263E-01   2.10000000E-01   6.99996821E-04   6.99999991E-02   2.00000006E-01   7.00000111E-02   1.29999997E-01
   2.65000000E+03   5.00000000E-01   5.00000000E-01   2.80000261E-01   2.10000000E-01   6.99996821E-04   6.99999991E-02   2.00000007E-01   7.00000111E-02   1.29999997E-01
   2.75000000E+03   5.00000000E-01   5.00000000E-01   2.80000259E-01   2.10000000E-01   6.99996821E-04   6.99999991E-02   2.00000008E-01   7.00000111E-02   1.29999997E-01
   2.85000000E+03   5.00000000E-01   5.00000000E-01   2.80000257E-01   2.10000000E-01   6.99996821E-04   6.99999991E-02   2.00000009E-01   7.00000111E-02   1.29999997E-01
   2.95000000E+03   5.00000000E-01   5.00000000E-01   2.80000256E-01   2.10000000E-01   6.99996821E-04   6.99999991E-02   2.00000011E-01   7.00000110E-02   1.29999997E-01
   3.05000000E+03   5.00000000E-01   5.00000000E-01   2.80000254E-01   2.10000000E-01   6.99996821E-04   6.99999991E-02   2.00000012E-01   7.00000110E-02   1.29999997E-01
   3.15000000E+03   5.00000000E-01   5.00000000E-01   2.80000252E-01   2.10000000E-01   6.99996821E-04   6.99999991E-02   2.00000014E-01   7.00000109E-02   1.29999997E-01
   3.25000000E+03   5.00000000E-01   5.00000000E-01   2.80000250E-01   2.10000000E-01   6.99996821E-04   6.99999991E-02   2.00000016E-01   7.00000108E-02   1.29999997E-01
   3.35000000E+03   5.00000000E-01   5.00000000E-01   2.80000248E-01   2.10000000E-01   6.99996821E-04   6.99999991E-02   2.00000017E-01   7.00000106E-02   1.29999997E-01
   3.45000000E+03   5.00000000E-01   5.00000000E-01   2.80000246E-01   2.10000000E-01   6.99996821E-04   6.99999991E-02   2.00000019E-01   7.00000103E-02   1.29999997E-01
