 TITLE = "Mineral Volumes" 
VARIABLES = "X"          "Y"              "Z"            "Forsterite"     "Enstatite(alph" "Anorthite"      "Ferropargasite" "Anhydrite"      "Clinochlore"    "Albite(low)"    "Fayalite"       "Epidote"        "Kaolinite"      "Muscovite(orde"
 ZONE I=          10 , J=           1 , K=           1  F=POINT
   1.75000000E+02   5.00000000E-01   5.00000000E-01   2.79998619E-01   2.09999902E-01   6.99682192E-04   6.99991173E-02   1.99988959E-01   9.35266195E-06   1.29992727E-01   2.79985680E-02   9.99986584E-10   0.00000000E+00   0.00000000E+00
   5.25000000E+02   5.00000000E-01   5.00000000E-01   2.79998620E-01   2.09999902E-01   6.99682192E-04   6.99991173E-02   1.99990955E-01   1.15355768E-05   1.29990661E-01   2.79985494E-02   9.99944667E-10   0.00000000E+00   0.00000000E+00
   8.75000000E+02   5.00000000E-01   5.00000000E-01   2.79998640E-01   2.09999905E-01   6.99682192E-04   6.99991173E-02   1.99994093E-01   1.41927890E-05   1.29987209E-01   2.79985516E-02   9.99870466E-10   0.00000000E+00   4.39526094E-07
   1.22500000E+03   5.00000000E-01   5.00000000E-01   2.79998767E-01   2.09999909E-01   6.99682192E-04   6.99991173E-02   1.99998673E-01   1.59694600E-05   1.29983728E-01   2.79985683E-02   9.99727449E-10   0.00000000E+00   1.28341221E-06
   1.57500000E+03   5.00000000E-01   5.00000000E-01   2.79999043E-01   2.09999914E-01   6.99682192E-04   6.99991173E-02   2.00004745E-01   1.66075585E-05   1.29980623E-01   2.79985953E-02   9.99441127E-10   0.00000000E+00   2.45649109E-06
   1.92500000E+03   5.00000000E-01   5.00000000E-01   2.79999497E-01   2.09999917E-01   6.99682192E-04   6.99991173E-02   2.00011810E-01   1.64700017E-05   1.29977732E-01   2.79986082E-02   9.98707936E-10   0.00000000E+00   3.87362383E-06
   2.27500000E+03   5.00000000E-01   5.00000000E-01   2.80000042E-01   2.09999917E-01   6.99682192E-04   6.99991173E-02   2.00018706E-01   1.61464942E-05   1.29975303E-01   2.79985971E-02   9.96404076E-10   0.00000000E+00   5.15648703E-06
   2.62500000E+03   5.00000000E-01   5.00000000E-01   2.80000522E-01   2.09999913E-01   6.99682192E-04   6.99991173E-02   2.00024086E-01   1.63802153E-05   1.29973367E-01   2.79985724E-02   9.88141969E-10   1.16299587E-07   5.85038465E-06
   2.97500000E+03   5.00000000E-01   5.00000000E-01   2.80000824E-01   2.09999911E-01   6.99682192E-04   6.99991173E-02   2.00027245E-01   1.78670794E-05   1.29971944E-01   2.79985524E-02   9.59139626E-10   2.10102743E-07   5.76846507E-06
   3.32500000E+03   5.00000000E-01   5.00000000E-01   2.80000999E-01   2.09999910E-01   6.99682192E-04   6.99991173E-02   2.00028426E-01   2.09666406E-05   1.29970898E-01   2.79985418E-02   8.80302020E-10   2.60726690E-07   4.83316735E-06
