 TITLE = "Mineral Volumes" 
VARIABLES = "X"          "Y"              "Z"            "Forsterite"     "Enstatite(alph" "Anorthite"      "Ferropargasite" "Anhydrite"      "Clinochlore"    "Albite(low)"    "Fayalite"       "Epidote"        "Kaolinite"      "Muscovite(orde"
 ZONE I=          10 , J=           1 , K=           1  F=POINT
   1.75000000E+02   5.00000000E-01   5.00000000E-01   2.79855096E-01   2.10001384E-01   6.67090949E-04   6.99073566E-02   1.99935514E-01   3.65680677E-04   1.29818630E-01   2.80306385E-02   9.99997723E-10   0.00000000E+00   0.00000000E+00
   5.25000000E+02   5.00000000E-01   5.00000000E-01   2.79855110E-01   2.09998802E-01   6.67090949E-04   6.99073566E-02   1.99975804E-01   3.70833899E-04   1.29813752E-01   2.80306043E-02   9.99949900E-10   0.00000000E+00   0.00000000E+00
   8.75000000E+02   5.00000000E-01   5.00000000E-01   2.79855142E-01   2.09996867E-01   6.67090949E-04   6.99073566E-02   2.00004424E-01   3.75821936E-04   1.29809032E-01   2.80305240E-02   9.99854623E-10   0.00000000E+00   0.00000000E+00
   1.22500000E+03   5.00000000E-01   5.00000000E-01   2.79855282E-01   2.09995513E-01   6.67090949E-04   6.99073566E-02   2.00025641E-01   3.80477452E-04   1.29804626E-01   2.80303888E-02   9.99709326E-10   0.00000000E+00   0.00000000E+00
   1.57500000E+03   5.00000000E-01   5.00000000E-01   2.79855572E-01   2.09994545E-01   6.67090949E-04   6.99073566E-02   2.00040818E-01   3.84126990E-04   1.29801172E-01   2.80301479E-02   9.99480328E-10   0.00000000E+00   0.00000000E+00
   1.92500000E+03   5.00000000E-01   5.00000000E-01   2.79856043E-01   2.09993863E-01   6.67090949E-04   6.99073566E-02   2.00051489E-01   3.86398107E-04   1.29799022E-01   2.80296989E-02   9.99125360E-10   0.00000000E+00   0.00000000E+00
   2.27500000E+03   5.00000000E-01   5.00000000E-01   2.79856613E-01   2.09993434E-01   6.67090949E-04   6.99073566E-02   2.00058827E-01   3.88144651E-04   1.29797369E-01   2.80288677E-02   9.98592801E-10   0.00000000E+00   0.00000000E+00
   2.62500000E+03   5.00000000E-01   5.00000000E-01   2.79857133E-01   2.09993246E-01   6.67090949E-04   6.99073566E-02   2.00063677E-01   3.90659100E-04   1.29794989E-01   2.80274323E-02   9.97938231E-10   0.00000000E+00   0.00000000E+00
   2.97500000E+03   5.00000000E-01   5.00000000E-01   2.79857504E-01   2.09993293E-01   6.67090949E-04   6.99073566E-02   2.00066647E-01   3.94710941E-04   1.29791155E-01   2.80252796E-02   9.97420729E-10   0.00000000E+00   0.00000000E+00
   3.32500000E+03   5.00000000E-01   5.00000000E-01   2.79857803E-01   2.09993551E-01   6.67090949E-04   6.99073566E-02   2.00068173E-01   3.99572742E-04   1.29786553E-01   2.80227069E-02   9.97583693E-10   0.00000000E+00   0.00000000E+00
