 TITLE = "Mineral Volumes" 
VARIABLES = "X"          "Y"              "Z"            "Forsterite"     "Fayalite"       "Brucite"        "Lizardite"      "Chrysotile"     "Saponite(Mg)"   "Enstatite(alph" "Ferrosilite(al" "Anorthite"      "Albite(low)"    "Clinochlore"    "Sudoite"        "Montmorillonit" "Kaolinite"      "Tremolite"      "Pargasite"      "Anhydrite"      "Epidote"        "Scolecite"      "Pyrite"         "FeS(am)"        "Quartz(alpha)" 
 ZONE I=         100 , J=           1 , K=           1  F=POINT
   1.75000000E+01   5.00000000E-01   5.00000000E-01   8.91425946E-02   1.02872398E-01   2.51243122E-11   8.04387871E-14   6.74340819E-14   0.00000000E+00   4.99975367E-02   4.99990332E-02   3.44881369E-02   7.39043573E-02   7.85564927E-02   4.26490026E-10   8.62531440E-13   3.45872385E-09   6.50918172E-02   6.48054900E-02   4.41578941E-11   9.99999950E-04   9.84660801E-04   4.94001910E-11   5.96612286E-11   1.00295142E-10
   5.25000000E+01   5.00000000E-01   5.00000000E-01   8.91425950E-02   1.05267485E-01   2.51243178E-11   9.18612171E-14   7.51134335E-14   0.00000000E+00   4.99975404E-02   5.00003496E-02   3.44881369E-02   8.05214453E-02   7.15634114E-02   1.23199394E-10   5.06033758E-11   3.36244470E-09   6.55474209E-02   6.48054900E-02   4.48732768E-11   1.00000001E-03   9.84661868E-04   4.94001910E-11   5.96661283E-11   1.00407788E-10
   8.75000000E+01   5.00000000E-01   5.00000000E-01   8.91425954E-02   1.06853258E-01   2.51243315E-11   9.17468590E-14   7.55078653E-14   0.00000000E+00   4.99975422E-02   5.00009829E-02   3.44881370E-02   8.41318831E-02   6.77485786E-02   1.17765467E-10   3.51486431E-09   3.45820783E-09   6.59394530E-02   6.48054900E-02   4.56751811E-11   1.00000000E-03   9.84663413E-04   4.94001910E-11   5.96684277E-11   1.00438733E-10
   1.22500000E+02   5.00000000E-01   5.00000000E-01   8.91425957E-02   1.07645047E-01   2.51243464E-11   8.44619350E-14   7.11882372E-14   0.00000000E+00   4.99975432E-02   5.00012122E-02   3.44881370E-02   8.57861360E-02   6.60005154E-02   1.52133572E-10   1.25270022E-07   3.62348440E-09   6.60152948E-02   6.48054900E-02   4.65798107E-11   1.00000000E-03   9.84665287E-04   4.94001910E-11   5.96694041E-11   1.00437344E-10
   1.57500000E+02   5.00000000E-01   5.00000000E-01   8.91425960E-02   1.08055069E-01   2.51243628E-11   7.64409545E-14   6.61344426E-14   0.00000000E+00   4.99975438E-02   5.00012803E-02   3.44881371E-02   8.64245058E-02   6.53231448E-02   2.27092994E-10   2.30714535E-06   3.83827097E-09   6.58919237E-02   6.48054900E-02   4.76054327E-11   1.00000000E-03   9.84667451E-04   4.94001910E-11   5.96697032E-11   1.00425813E-10
   1.92500000E+02   5.00000000E-01   5.00000000E-01   8.91425963E-02   1.08301696E-01   2.51243806E-11   6.96203254E-14   6.16632385E-14   0.00000000E+00   4.99975444E-02   5.00012890E-02   3.44881373E-02   8.66110468E-02   6.50911748E-02   3.73095940E-10   2.89164027E-05   4.09496973E-09   6.57001334E-02   6.48054900E-02   4.87724915E-11   1.00000000E-03   9.84669889E-04   4.94001910E-11   5.96696099E-11   1.00412071E-10
   2.27500000E+02   5.00000000E-01   5.00000000E-01   8.91425968E-02   1.08490767E-01   2.51244011E-11   6.48544922E-14   5.84729513E-14   0.00000000E+00   4.99975452E-02   5.00012767E-02   3.44881375E-02   8.64569608E-02   6.49624862E-02   6.42502108E-10   2.51388578E-04   4.38521359E-09   6.55399814E-02   6.48054900E-02   5.01041253E-11   1.00000000E-03   9.84672583E-04   4.94001910E-11   5.96692674E-11   1.00398030E-10
   2.62500000E+02   5.00000000E-01   5.00000000E-01   8.91425974E-02   1.08679328E-01   2.51244271E-11   6.29361513E-14   5.72652595E-14   0.00000000E+00   4.99975462E-02   5.00012580E-02   3.44881378E-02   8.57275799E-02   6.47219478E-02   1.11134885E-09   1.02315695E-03   4.70145677E-09   6.55074619E-02   6.48054900E-02   5.16265829E-11   1.00000000E-03   9.84675514E-04   4.94001910E-11   5.96687552E-11   1.00383342E-10
   2.97500000E+02   5.00000000E-01   5.00000000E-01   8.91425982E-02   1.08853275E-01   2.51244576E-11   6.23953525E-14   5.70497329E-14   0.00000000E+00   4.99975474E-02   5.00012303E-02   3.44881382E-02   8.46209034E-02   6.44698154E-02   1.88715001E-09   2.10803327E-03   5.03708479E-09   6.55398797E-02   6.48054900E-02   5.33718230E-11   1.00000000E-03   9.84678670E-04   4.94001910E-11   5.96681145E-11   1.00368482E-10
   3.32500000E+02   5.00000000E-01   5.00000000E-01   8.91425992E-02   1.09002052E-01   2.51244910E-11   6.22413359E-14   5.71162517E-14   0.00000000E+00   4.99975486E-02   5.00011926E-02   3.44881388E-02   8.34390139E-02   6.42638336E-02   3.12024805E-09   3.21833888E-03   5.38425924E-09   6.55884082E-02   6.48054900E-02   5.53788486E-11   1.00000000E-03   9.84682041E-04   4.94001910E-11   5.96673806E-11   1.00353922E-10
   3.67500000E+02   5.00000000E-01   5.00000000E-01   8.91426005E-02   1.09134110E-01   2.51245270E-11   6.22511412E-14   5.73041404E-14   0.00000000E+00   4.99975500E-02   5.00011488E-02   3.44881395E-02   8.22853832E-02   6.40851738E-02   5.01354954E-09   4.28500177E-03   5.73482378E-09   6.56437014E-02   6.48054900E-02   5.76950602E-11   1.00000000E-03   9.84685617E-04   4.94001910E-11   5.96665861E-11   1.00339792E-10
   4.02500000E+02   5.00000000E-01   5.00000000E-01   8.91426019E-02   1.09255983E-01   2.51245654E-11   6.23309358E-14   5.75448371E-14   0.00000000E+00   4.99975514E-02   5.00011014E-02   3.44881405E-02   8.11896985E-02   6.39198571E-02   7.81810407E-09   5.29474986E-03   6.08537233E-09   6.57028611E-02   6.48054900E-02   6.03784047E-11   1.00000000E-03   9.84689395E-04   4.94001910E-11   5.96657558E-11   1.00326084E-10
   4.37500000E+02   5.00000000E-01   5.00000000E-01   8.91426036E-02   1.09370871E-01   2.51246062E-11   6.23965582E-14   5.77742059E-14   0.00000000E+00   4.99975528E-02   5.00010520E-02   3.44881419E-02   8.01595632E-02   6.37621420E-02   1.18301023E-08   6.24583309E-03   6.43721943E-09   6.57638253E-02   6.48054900E-02   6.35002809E-11   1.00000000E-03   9.84693390E-04   4.94001910E-11   5.96649090E-11   1.00312765E-10
   4.72500000E+02   5.00000000E-01   5.00000000E-01   8.91426056E-02   1.09480261E-01   2.51246494E-11   6.24050664E-14   5.79579682E-14   0.00000000E+00   4.99975542E-02   5.00010015E-02   3.44881437E-02   7.91954593E-02   6.36101521E-02   1.73764551E-08   7.13929413E-03   6.79164866E-09   6.58247361E-02   6.48054900E-02   6.71494169E-11   1.00000000E-03   9.84697620E-04   4.94001910E-11   5.96640611E-11   1.00299810E-10
   5.07500000E+02   5.00000000E-01   5.00000000E-01   8.91426079E-02   1.09584972E-01   2.51246951E-11   6.23546806E-14   5.80933320E-14   0.00000000E+00   4.99975557E-02   5.00009506E-02   3.44881460E-02   7.82955806E-02   6.34631711E-02   2.48505527E-08   7.97713531E-03   7.14869125E-09   6.58839550E-02   6.48054900E-02   7.14370756E-11   1.00000000E-03   9.84702107E-04   4.94001910E-11   5.96632244E-11   1.00287210E-10
   5.42500000E+02   5.00000000E-01   5.00000000E-01   8.91426105E-02   1.09685694E-01   2.51247435E-11   6.22614726E-14   5.81918558E-14   0.00000000E+00   4.99975571E-02   5.00008995E-02   3.44881491E-02   7.74574486E-02   6.33203310E-02   3.47437767E-08   8.76201688E-03   7.50489669E-09   6.59400975E-02   6.48054900E-02   7.65041154E-11   1.00000000E-03   9.84706866E-04   4.94001910E-11   5.96624087E-11   1.00274963E-10
   5.77500000E+02   5.00000000E-01   5.00000000E-01   8.91426136E-02   1.09783061E-01   2.51247946E-11   6.21494419E-14   5.82720935E-14   0.00000000E+00   4.99975586E-02   5.00008487E-02   3.44881531E-02   7.66783356E-02   6.31805294E-02   4.76389093E-08   9.49697867E-03   7.85283487E-09   6.59920462E-02   6.48054900E-02   8.25306674E-11   1.00000000E-03   9.84711909E-04   4.94001910E-11   5.96616216E-11   1.00263073E-10
   6.12500000E+02   5.00000000E-01   5.00000000E-01   8.91426172E-02   1.09877432E-01   2.51248485E-11   6.20489210E-14   5.83586072E-14   0.00000000E+00   4.99975600E-02   5.00007985E-02   3.44881583E-02   7.59553329E-02   6.30429215E-02   6.42105254E-08   1.01850095E-02   8.18640594E-09   6.60389544E-02   6.48054900E-02   8.97495371E-11   1.00000000E-03   9.84717255E-04   4.94001910E-11   5.96608687E-11   1.00251547E-10
   6.47500000E+02   5.00000000E-01   5.00000000E-01   8.91426212E-02   1.09968763E-01   2.51249056E-11   6.19977738E-14   5.84832055E-14   0.00000000E+00   4.99975614E-02   5.00007488E-02   3.44881650E-02   7.52853452E-02   6.29071809E-02   8.51562396E-08   1.08288530E-02   8.50683201E-09   6.60802536E-02   6.48054900E-02   9.84649935E-11   1.00000000E-03   9.84722955E-04   4.94001910E-11   5.96601539E-11   1.00240393E-10
   6.82500000E+02   5.00000000E-01   5.00000000E-01   8.91426259E-02   1.10056870E-01   2.51249660E-11   6.20431587E-14   5.86866903E-14   0.00000000E+00   4.99975628E-02   5.00006998E-02   3.44881736E-02   7.46652918E-02   6.27730748E-02   1.11209178E-07   1.14311691E-02   8.82054363E-09   6.61156461E-02   6.48054900E-02   1.09079469E-10   1.00000000E-03   9.84729085E-04   4.94001910E-11   5.96594797E-11   1.00229622E-10
   7.17500000E+02   5.00000000E-01   5.00000000E-01   8.91426313E-02   1.10141849E-01   2.51250299E-11   6.22435995E-14   5.90209105E-14   0.00000000E+00   4.99975642E-02   5.00006516E-02   3.44881849E-02   7.40924347E-02   6.26396029E-02   1.43346837E-07   1.19949268E-02   9.13207741E-09   6.61450521E-02   6.48054900E-02   1.22132055E-10   1.00000000E-03   9.84735730E-04   4.94001910E-11   5.96588478E-11   1.00219238E-10
   7.52500000E+02   5.00000000E-01   5.00000000E-01   8.91426376E-02   1.10223995E-01   2.51250978E-11   6.26739681E-14   5.95533466E-14   0.00000000E+00   4.99975656E-02   5.00006043E-02   3.44881994E-02   7.35643106E-02   6.25053716E-02   1.82720515E-07   1.25231729E-02   9.44297737E-09   6.61685734E-02   6.48054900E-02   1.38354809E-10   1.00000000E-03   9.84742989E-04   4.94001910E-11   5.96582587E-11   1.00209243E-10
   7.87500000E+02   5.00000000E-01   5.00000000E-01   8.91426449E-02   1.10303685E-01   2.51251700E-11   6.34329367E-14   6.03739703E-14   0.00000000E+00   4.99975669E-02   5.00005578E-02   3.44882183E-02   7.30787248E-02   6.23689142E-02   2.30811257E-07   1.30187927E-02   9.75376217E-09   6.61864388E-02   6.48054900E-02   1.58756383E-10   1.00000000E-03   9.84750978E-04   4.94001910E-11   5.96577122E-11   1.00199632E-10
   8.22500000E+02   5.00000000E-01   5.00000000E-01   8.91426536E-02   1.10381334E-01   2.51252471E-11   6.46553110E-14   6.16065436E-14   0.00000000E+00   4.99975683E-02   5.00005123E-02   3.44882429E-02   7.26337604E-02   6.22288385E-02   2.89427241E-07   1.34843894E-02   1.00640063E-08   6.61989651E-02   6.48054900E-02   1.84748356E-10   1.00000000E-03   9.84759848E-04   4.94001910E-11   5.96572074E-11   1.00190397E-10
   8.57500000E+02   5.00000000E-01   5.00000000E-01   8.91426639E-02   1.10457430E-01   2.51253297E-11   6.65314045E-14   6.34263926E-14   0.00000000E+00   4.99975696E-02   5.00004675E-02   3.44882750E-02   7.22278669E-02   6.20837846E-02   3.60936094E-07   1.39222443E-02   1.03721635E-08   6.62065100E-02   6.48054900E-02   2.18339507E-10   9.99999999E-04   9.84769787E-04   4.94001910E-11   5.96567429E-11   1.00181526E-10
   8.92500000E+02   5.00000000E-01   5.00000000E-01   8.91426764E-02   1.10532493E-01   2.51254188E-11   6.93390564E-14   6.60897485E-14   0.00000000E+00   4.99975708E-02   5.00004236E-02   3.44883172E-02   7.18599257E-02   6.19325154E-02   4.48292688E-07   1.43341948E-02   1.06750948E-08   6.62094485E-02   6.48054900E-02   2.62440290E-10   9.99999998E-04   9.84781042E-04   4.94001910E-11   5.96563168E-11   1.00173006E-10
   9.27500000E+02   5.00000000E-01   5.00000000E-01   8.91426919E-02   1.10607061E-01   2.51255154E-11   7.34963559E-14   6.99820660E-14   0.00000000E+00   4.99975720E-02   5.00003805E-02   3.44883729E-02   7.15293960E-02   6.17738711E-02   5.55497021E-07   1.47215500E-02   1.09684512E-08   6.62081330E-02   6.48054900E-02   3.21349848E-10   9.99999997E-04   9.84793947E-04   4.94001910E-11   5.96559269E-11   1.00164819E-10
   9.62500000E+02   5.00000000E-01   5.00000000E-01   8.91427114E-02   1.10681676E-01   2.51256211E-11   7.96516535E-14   7.57004367E-14   0.00000000E+00   4.99975732E-02   5.00003381E-02   3.44884470E-02   7.12364792E-02   6.16066862E-02   6.87880292E-07   1.50850202E-02   1.12474824E-08   6.62028738E-02   6.48054900E-02   4.01552182E-10   9.99999995E-04   9.84808974E-04   4.94001910E-11   5.96555712E-11   1.00156946E-10
   9.97500000E+02   5.00000000E-01   5.00000000E-01   8.91427365E-02   1.10756829E-01   2.51257377E-11   8.88400043E-14   8.41967729E-14   0.00000000E+00   4.99975744E-02   5.00002964E-02   3.44885470E-02   7.09823482E-02   6.14297089E-02   8.52089457E-07   1.54245920E-02   1.15085701E-08   6.61939537E-02   6.48054900E-02   5.13048443E-10   9.99999993E-04   9.84826824E-04   4.94001910E-11   5.96552469E-11   1.00149369E-10
   1.03250000E+03   5.00000000E-01   5.00000000E-01   8.91427695E-02   1.10832830E-01   2.51258676E-11   1.02757329E-13   9.70289143E-14   0.00000000E+00   4.99975755E-02   5.00002553E-02   3.44886842E-02   7.07696003E-02   6.12415712E-02   1.05649683E-06   1.57391821E-02   1.17516730E-08   6.61816333E-02   6.48054900E-02   6.71642689E-10   9.99999990E-04   9.84848600E-04   4.94001910E-11   5.96549518E-11   1.00142067E-10
   1.06750000E+03   5.00000000E-01   5.00000000E-01   8.91428136E-02   1.10909816E-01   2.51260137E-11   1.24239267E-13   1.16800404E-13   0.00000000E+00   4.99975765E-02   5.00002145E-02   3.44888775E-02   7.06032490E-02   6.10402037E-02   1.31230073E-06   1.60262772E-02   1.19788990E-08   6.61661253E-02   6.48054900E-02   9.02970283E-10   9.99999986E-04   9.84876109E-04   4.94001910E-11   5.96546830E-11   1.00135016E-10
   1.10250000E+03   5.00000000E-01   5.00000000E-01   8.91428729E-02   1.10987611E-01   2.51261796E-11   1.58065662E-13   1.47904267E-13   0.00000000E+00   4.99975774E-02   5.00001738E-02   3.44891601E-02   7.04926980E-02   6.08221206E-02   1.63562284E-06   1.62808726E-02   1.21918639E-08   6.61475331E-02   6.48054900E-02   1.24980468E-09   9.99999982E-04   9.84912557E-04   4.94001910E-11   5.96544378E-11   1.00128193E-10
   1.13750000E+03   5.00000000E-01   5.00000000E-01   8.91428278E-02   1.08477061E-01   2.51259024E-11   1.68256866E-13   1.58367581E-13   4.73789308E-02   4.99975407E-02   4.99990962E-02   3.44896946E-02   6.73178185E-02   1.79982869E-02   1.77991720E-05   4.21180483E-02   1.81485642E-08   6.49513026E-02   6.48054900E-02   1.78212311E-09   9.99999982E-04   9.84987035E-04   4.94001910E-11   5.96541839E-11   1.00041961E-10
   1.17250000E+03   5.00000000E-01   5.00000000E-01   8.91429303E-02   1.09592594E-01   2.51262002E-11   2.40481033E-13   2.25224339E-13   0.00000000E+00   4.99975441E-02   4.99993353E-02   3.44903987E-02   6.79250869E-02   6.48757916E-02   3.33770294E-06   1.52528201E-02   1.42343244E-08   6.49502527E-02   6.48054900E-02   2.63323865E-09   9.99999971E-04   9.85059432E-04   4.94001910E-11   5.96540910E-11   1.00047967E-10
   1.20750000E+03   5.00000000E-01   5.00000000E-01   8.91430653E-02   1.10631330E-01   2.51264886E-11   3.53105841E-13   3.29843126E-13   0.00000000E+00   4.99975467E-02   4.99995022E-02   3.44919647E-02   6.85961897E-02   6.25897909E-02   3.77488968E-06   1.64529636E-02   1.37828775E-08   6.49499030E-02   6.48054900E-02   4.04728797E-09   9.99999965E-04   9.85217940E-04   4.94001910E-11   5.96539340E-11   1.00050436E-10
   1.24250000E+03   5.00000000E-01   5.00000000E-01   8.91432361E-02   1.11220322E-01   2.51268037E-11   5.09247430E-13   4.76115074E-13   0.00000000E+00   4.99975487E-02   4.99995767E-02   3.44973097E-02   6.96844035E-02   6.08970345E-02   4.99222942E-06   1.68563328E-02   1.37273432E-08   6.49499221E-02   6.48054900E-02   6.48896833E-09   9.99999960E-04   9.85719479E-04   4.94001910E-11   5.96537322E-11   1.00050603E-10
   1.27750000E+03   5.00000000E-01   5.00000000E-01   8.91434386E-02   1.11316755E-01   2.51271649E-11   6.71591104E-13   6.31183500E-13   0.00000000E+00   4.99975502E-02   4.99995723E-02   3.45546682E-02   7.27054901E-02   5.96590931E-02   8.05671708E-06   1.52638436E-02   1.37950772E-08   6.49504259E-02   6.48054900E-02   1.08802377E-08   9.99999954E-04   9.89963427E-04   4.94001910E-11   5.96534908E-11   1.00049069E-10
   1.31250000E+03   5.00000000E-01   5.00000000E-01   8.91436618E-02   1.11254677E-01   2.51276326E-11   7.52443348E-13   7.13993367E-13   0.00000000E+00   4.99975515E-02   4.99995380E-02   3.53468313E-02   7.68846510E-02   5.88319810E-02   9.10610717E-06   1.12219985E-02   1.35026046E-08   6.49632011E-02   6.48054900E-02   1.91088147E-08   9.99999948E-04   1.02208361E-03   4.94001910E-11   5.96532641E-11   1.00047120E-10
   1.34750000E+03   5.00000000E-01   5.00000000E-01   8.91438973E-02   1.11274212E-01   2.51283511E-11   7.05926045E-13   6.78349213E-13   0.00000000E+00   4.99975533E-02   4.99995054E-02   3.67257222E-02   7.76074228E-02   5.75312759E-02   5.83450194E-06   9.40122110E-03   1.29264288E-08   6.56573956E-02   6.48054900E-02   3.51523250E-08   9.99999941E-04   1.04904982E-03   4.94001910E-11   5.96530934E-11   1.00045333E-10
   1.38250000E+03   5.00000000E-01   5.00000000E-01   8.91440877E-02   1.09947082E-01   2.51290276E-11   5.76950270E-13   5.61985334E-13   1.44125840E-02   4.99975444E-02   4.99991223E-02   3.79869737E-02   7.63746712E-02   4.34282340E-02   3.82685585E-05   1.62252352E-02   1.61112095E-08   6.69366126E-02   6.48054900E-02   6.77305245E-08   9.99999935E-04   1.05808865E-03   4.94001910E-11   5.96529538E-11   1.00026855E-10
   1.41750000E+03   5.00000000E-01   5.00000000E-01   8.91443321E-02   1.10347368E-01   2.51300956E-11   4.58087992E-13   4.51689931E-13   1.57123239E-03   4.99975451E-02   4.99991348E-02   3.91343943E-02   7.60566957E-02   5.44753696E-02   3.32051788E-05   8.76071267E-03   1.51874816E-08   6.81118433E-02   6.48054900E-02   1.37790484E-07   9.99999928E-04   1.06055716E-03   4.94001910E-11   5.96528689E-11   1.00024831E-10
   1.45250000E+03   5.00000000E-01   5.00000000E-01   8.91445905E-02   1.10729126E-01   2.51313971E-11   3.63511266E-13   3.62155105E-13   4.15793888E-04   4.99975460E-02   4.99991421E-02   4.02212097E-02   7.58682506E-02   5.34026589E-02   2.99977264E-05   8.22482093E-03   1.44116895E-08   6.92082852E-02   6.48054900E-02   2.97220007E-07   9.99999923E-04   1.06046627E-03   4.94001910E-11   5.96527906E-11   1.00023144E-10
   1.48750000E+03   5.00000000E-01   5.00000000E-01   8.91448628E-02   1.10964361E-01   2.51329922E-11   2.92367969E-13   2.93737273E-13   2.71196394E-08   4.99975466E-02   4.99991278E-02   4.12827306E-02   7.56747330E-02   5.19069486E-02   3.40061456E-05   7.89981722E-03   1.39761559E-08   7.02576650E-02   6.48054900E-02   6.82314760E-07   9.99999919E-04   1.05908660E-03   4.94001910E-11   5.96527193E-11   1.00021174E-10
   1.52250000E+03   5.00000000E-01   5.00000000E-01   8.91451475E-02   1.11035874E-01   2.51349580E-11   2.38749747E-13   2.41480404E-13   3.55902695E-17   4.99975470E-02   4.99990916E-02   4.23345223E-02   7.54422506E-02   5.03576980E-02   4.70216331E-05   7.56693134E-03   1.38695919E-08   7.12743728E-02   6.48054901E-02   1.67320451E-06   9.99999918E-04   1.05695196E-03   4.94001910E-11   5.96526567E-11   1.00018824E-10
   1.55750000E+03   5.00000000E-01   5.00000000E-01   8.91454433E-02   1.11028795E-01   2.51373974E-11   1.97832144E-13   2.01141012E-13   3.20683246E-28   4.99975471E-02   4.99990453E-02   4.33767516E-02   7.52034314E-02   4.90083049E-02   7.38294316E-05   7.08080852E-03   1.39613328E-08   7.22589893E-02   6.48054901E-02   4.40070500E-06   9.99999919E-04   1.05424043E-03   4.94001910E-11   5.96526036E-11   1.00016316E-10
   1.59250000E+03   5.00000000E-01   5.00000000E-01   8.91457480E-02   1.10998446E-01   2.51404382E-11   1.66219712E-13   1.69666921E-13   6.08490651E-40   4.99975472E-02   4.99989956E-02   4.44094211E-02   7.49967272E-02   4.77370192E-02   1.39894786E-04   6.46303718E-03   1.42497022E-08   7.32131750E-02   6.48054901E-02   1.24659971E-05   9.99999923E-04   1.05119298E-03   4.94001910E-11   5.96525593E-11   1.00013780E-10
   1.62750000E+03   5.00000000E-01   5.00000000E-01   8.91460596E-02   1.10980169E-01   2.51442425E-11   1.41570360E-13   1.44920306E-13   1.62104022E-51   4.99975473E-02   4.99989475E-02   4.54386534E-02   7.48535952E-02   4.64526313E-02   3.05705179E-04   5.65263170E-03   1.46147234E-08   7.41403674E-02   6.48054901E-02   3.81823583E-05   9.99999928E-04   1.04804714E-03   4.94001910E-11   5.96525224E-11   1.00011336E-10
   1.66250000E+03   5.00000000E-01   5.00000000E-01   8.91463777E-02   1.10987692E-01   2.51490146E-11   1.22291536E-13   1.25431031E-13   9.53030724E-61   4.99975474E-02   4.99989050E-02   4.64702998E-02   7.48448310E-02   4.50872678E-02   6.58021030E-04   4.49822170E-03   1.49028530E-08   7.50404941E-02   6.48054902E-02   1.26715394E-04   9.99999935E-04   1.04496774E-03   4.94001910E-11   5.96524910E-11   1.00009135E-10
   1.69750000E+03   5.00000000E-01   5.00000000E-01   8.91467040E-02   1.10999741E-01   2.51550126E-11   1.07293944E-13   1.10182863E-13   1.87421468E-66   4.99975478E-02   4.99988670E-02   4.75323522E-02   7.50343353E-02   4.36539418E-02   1.07865782E-03   3.07910867E-03   1.49994210E-08   7.59201720E-02   6.48054902E-02   4.52738538E-04   9.99999942E-04   1.04232435E-03   4.94001910E-11   5.96524630E-11   1.00007206E-10
   1.73250000E+03   5.00000000E-01   5.00000000E-01   8.91470422E-02   1.10981905E-01   2.51625676E-11   9.57499527E-14   9.83902171E-14   1.09222614E-68   4.99975485E-02   4.99988331E-02   4.86366601E-02   7.52136558E-02   4.21943576E-02   1.60028040E-03   1.46140429E-03   1.45910017E-08   7.67930116E-02   6.48054903E-02   1.67266722E-03   9.99999949E-04   1.03993694E-03   4.94001910E-11   5.96524368E-11   1.00005656E-10
   1.76750000E+03   5.00000000E-01   5.00000000E-01   8.91473941E-02   1.10930932E-01   2.51720675E-11   8.68912241E-14   8.93041886E-14   4.32610532E-70   4.99975494E-02   4.99987963E-02   4.98528219E-02   7.52233275E-02   4.07863111E-02   1.73606107E-03   3.68748925E-04   1.38154399E-08   7.78150484E-02   6.48054903E-02   5.55336008E-03   9.99999955E-04   1.03797099E-03   4.94001910E-11   5.96524144E-11   1.00004124E-10
   1.80250000E+03   5.00000000E-01   5.00000000E-01   8.91477578E-02   1.10818891E-01   2.51839796E-11   7.99639292E-14   8.21736871E-14   3.70539597E-73   4.99975502E-02   4.99987483E-02   5.11882271E-02   7.49933891E-02   3.95691083E-02   1.31071123E-03   1.56868733E-05   1.27043110E-08   7.89098801E-02   6.48054904E-02   1.31900504E-02   9.99999961E-04   1.03600972E-03   4.94001910E-11   5.96523960E-11   1.00002284E-10
   1.83750000E+03   5.00000000E-01   5.00000000E-01   8.91481335E-02   1.10645350E-01   2.51989017E-11   7.43152882E-14   7.63397713E-14   2.46861549E-77   4.99975509E-02   4.99986900E-02   5.25581809E-02   7.45290118E-02   3.85164277E-02   6.76370760E-04   5.34964334E-08   1.12328746E-08   7.99568083E-02   6.48054905E-02   2.08851700E-02   9.99999966E-04   1.03367720E-03   4.94001910E-11   5.96523802E-11   1.00000181E-10
   1.87250000E+03   5.00000000E-01   5.00000000E-01   8.91485216E-02   1.10459161E-01   2.52175705E-11   6.94634305E-14   7.13117635E-14   2.15543564E-80   4.99975519E-02   4.99986301E-02   5.39390626E-02   7.36745168E-02   3.74225328E-02   2.41017615E-04   1.35955415E-11   9.41120874E-09   8.10183636E-02   6.48054906E-02   2.48821274E-02   9.99999971E-04   1.03096572E-03   4.94001910E-11   5.96523665E-11   9.99980707E-11
   1.90750000E+03   5.00000000E-01   5.00000000E-01   8.91489168E-02   1.10294327E-01   2.52408496E-11   6.51071080E-14   6.67807726E-14   2.01138944E-82   4.99975530E-02   4.99985738E-02   5.54165018E-02   7.23373755E-02   3.62291497E-02   2.62011787E-06   6.07546833E-16   7.04796252E-09   8.22153595E-02   6.48054908E-02   2.55448996E-02   9.99999974E-04   1.02825727E-03   4.94001910E-11   5.96523552E-11   9.99961249E-11
   1.94250000E+03   5.00000000E-01   5.00000000E-01   8.91493174E-02   1.10142331E-01   2.52698136E-11   6.11136335E-14   6.26111867E-14   1.20839871E-82   4.99975545E-02   4.99985251E-02   5.69247222E-02   7.04920461E-02   3.50221884E-02   1.12879841E-09   3.95674607E-20   4.90416673E-09   8.34348273E-02   6.48054910E-02   2.45739231E-02   9.99999977E-04   1.02511241E-03   4.94001910E-11   5.96523457E-11   9.99945502E-11
   1.97750000E+03   5.00000000E-01   5.00000000E-01   8.91497125E-02   1.10026655E-01   2.53056916E-11   5.74486569E-14   5.87692439E-14   1.22612129E-83   4.99975557E-02   4.99984837E-02   5.83960845E-02   6.86487040E-02   3.38853165E-02   2.87767738E-10   1.17479840E-21   4.41377199E-09   8.47103830E-02   6.48054913E-02   2.30610771E-02   9.99999979E-04   1.02162406E-03   4.94001910E-11   5.96523394E-11   9.99932445E-11
   2.01250000E+03   5.00000000E-01   5.00000000E-01   8.91500905E-02   1.10007154E-01   2.53500056E-11   5.41318679E-14   5.52782254E-14   2.69834503E-86   4.99975565E-02   4.99984532E-02   5.96757133E-02   6.69555817E-02   3.29928109E-02   2.58008356E-10   4.41038725E-22   4.31128053E-09   8.58040554E-02   6.48054916E-02   2.14760714E-02   9.99999981E-04   1.01770646E-03   4.94001910E-11   5.96523362E-11   9.99921653E-11
   2.04750000E+03   5.00000000E-01   5.00000000E-01   8.91504600E-02   1.10007993E-01   2.54047005E-11   5.12134980E-14   5.21948490E-14   5.21922067E-88   4.99975574E-02   4.99984299E-02   6.05531679E-02   6.56748547E-02   3.25094269E-02   2.39464283E-10   2.72886037E-22   4.25496612E-09   8.64005430E-02   6.48054921E-02   1.99791402E-02   9.99999982E-04   1.01350133E-03   4.94001910E-11   5.96523341E-11   9.99913642E-11
   2.08250000E+03   5.00000000E-01   5.00000000E-01   8.91508258E-02   1.10010099E-01   2.54720918E-11   4.87201251E-14   4.95510558E-14   8.00698571E-89   4.99975585E-02   4.99984115E-02   6.11230508E-02   6.48255879E-02   3.22152109E-02   2.23276540E-10   2.02678340E-22   4.22387736E-09   8.67550409E-02   6.48054927E-02   1.86049677E-02   9.99999983E-04   1.00967838E-03   4.94001910E-11   5.96523324E-11   9.99907653E-11
   2.11750000E+03   5.00000000E-01   5.00000000E-01   8.91511917E-02   1.10012586E-01   2.55549740E-11   4.66492353E-14   4.73478903E-14   3.67562068E-89   4.99975597E-02   4.99983964E-02   6.15172367E-02   6.42541194E-02   3.19953661E-02   2.08176207E-10   1.60902351E-22   4.21032234E-09   8.70131978E-02   6.48054934E-02   1.73473985E-02   9.99999984E-04   1.00643006E-03   4.94001910E-11   5.96523310E-11   9.99902920E-11
   2.15250000E+03   5.00000000E-01   5.00000000E-01   8.91515631E-02   1.10015468E-01   2.56567256E-11   4.49724638E-14   4.55585351E-14   3.01885539E-89   4.99975610E-02   4.99983836E-02   6.18096121E-02   6.38473049E-02   3.18144398E-02   1.94214017E-10   1.29653043E-22   4.20628253E-09   8.72200580E-02   6.48054944E-02   1.61899489E-02   9.99999985E-04   1.00370131E-03   4.94001910E-11   5.96523298E-11   9.99898974E-11
   2.18750000E+03   5.00000000E-01   5.00000000E-01   8.91519463E-02   1.10018860E-01   2.57814254E-11   4.36429210E-14   4.41357806E-14   3.44187621E-89   4.99975623E-02   4.99983724E-02   6.20397358E-02   6.35403102E-02   3.16580347E-02   1.82211684E-10   1.03128214E-22   4.20206088E-09   8.73938219E-02   6.48054956E-02   1.51171480E-02   9.99999985E-04   1.00139955E-03   4.94001910E-11   5.96523286E-11   9.99895548E-11
   2.22250000E+03   5.00000000E-01   5.00000000E-01   8.91523483E-02   1.10022737E-01   2.59339950E-11   4.26050221E-14   4.30223834E-14   4.77158595E-89   4.99975638E-02   4.99983624E-02   6.22298603E-02   6.32961458E-02   3.15186400E-02   1.72743482E-10   7.99140855E-23   4.18905877E-09   8.75442487E-02   6.48054972E-02   1.41178203E-02   9.99999985E-04   9.99443620E-04   4.94001910E-11   5.96523276E-11   9.99892488E-11
   2.25750000E+03   5.00000000E-01   5.00000000E-01   8.91527763E-02   1.10026790E-01   2.61203736E-11   4.18029441E-14   4.21601381E-14   7.48780158E-89   4.99975653E-02   4.99983532E-02   6.23924198E-02   6.30939216E-02   3.13923202E-02   1.65141272E-10   6.04281280E-23   4.16457738E-09   8.76770149E-02   6.48054991E-02   1.31822943E-02   9.99999984E-04   9.97769152E-04   4.94001910E-11   5.96523267E-11   9.99889701E-11
   2.29250000E+03   5.00000000E-01   5.00000000E-01   8.91532376E-02   1.10030613E-01   2.63477332E-11   4.11863759E-14   4.14961642E-14   1.28614984E-88   4.99975669E-02   4.99983447E-02   6.25339825E-02   6.29222760E-02   3.12773654E-02   1.57921636E-10   4.50421872E-23   4.13181425E-09   8.77950375E-02   6.48055015E-02   1.23024573E-02   9.99999983E-04   9.96325856E-04   4.94001910E-11   5.96523258E-11   9.99887133E-11
   2.32750000E+03   5.00000000E-01   5.00000000E-01   8.91537396E-02   1.10033964E-01   2.66247430E-11   4.07129894E-14   4.09857074E-14   2.38736742E-88   4.99975685E-02   4.99983367E-02   6.26584067E-02   6.27746626E-02   3.11726467E-02   1.49979223E-10   3.33977821E-23   4.09517725E-09   8.79001433E-02   6.48055046E-02   1.14756968E-02   9.99999981E-04   9.95074618E-04   4.94001910E-11   5.96523250E-11   9.99884746E-11
   2.36250000E+03   5.00000000E-01   5.00000000E-01   8.91542901E-02   1.10036767E-01   2.69618954E-11   4.03488981E-14   4.05927747E-14   4.76382377E-88   4.99975702E-02   4.99983291E-02   6.27685662E-02   6.26466659E-02   3.10768332E-02   1.40918142E-10   2.47469206E-23   4.05739854E-09   8.79940928E-02   6.48055083E-02   1.07019445E-02   9.99999979E-04   9.93984852E-04   4.94001910E-11   5.96523243E-11   9.99882513E-11
   2.39750000E+03   5.00000000E-01   5.00000000E-01   8.91548971E-02   1.10038976E-01   2.73719105E-11   4.00677779E-14   4.02892992E-14   1.01913579E-87   4.99975720E-02   4.99983218E-02   6.28668701E-02   6.25348898E-02   3.09884789E-02   1.30707624E-10   1.83455739E-23   4.01958030E-09   8.80786632E-02   6.48055130E-02   9.97516786E-03   9.99999976E-04   9.93032253E-04   4.94001910E-11   5.96523235E-11   9.99880416E-11