 TITLE = "Mineral Volumes" 
VARIABLES = "X"          "Y"              "Z"            "Forsterite"     "Fayalite"       "Brucite"        "Lizardite"      "Chrysotile"     "Hematite"       "Magnetite(am)"  "Saponite(Ca)"   "Saponite(K)"    "Saponite(Mg)"   "Saponite(Na)"   "Beidellite(Ca)" "Beidellite(K)"  "Beidellite(Mg)" "Beidellite(Na)" "Enstatite(alph" "Ferrosilite(al" "Anorthite"      "Albite(low)"    "Clinochlore"    "Sudoite"        "Montmor(MgCa)"  "Montmor(MgK)"   "Montmor(MgMg)"  "Montmor(MgNa)"  "Kaolinite"      "Tremolite"      "Pargasite"      "Anhydrite"      "Epidote"        "Scolecite"      "Pyrite"         "FeS(am)"        "Quartz(alpha)"  "Titanite"       "Rutile"         "Barite"         "Fluorite"       "Spessartine(al" "Andradite"      "Celestite"      "Zincite"        "Chalcocyanite"  "Chalcocite(alp"
 ZONE I=         200 , J=           1 , K=           1  F=POINT
   8.75000000E+00   5.00000000E-01   5.00000000E-01   1.07438952E-01   1.09017643E-01   8.56281873E-11   5.67866640E-11   5.25440403E-11   2.10512439E-04   1.82706742E-13   1.04954976E-10   2.25237597E-09   1.25421551E-10   5.09188577E-04   9.78158477E-11   9.97756384E-11   9.78316557E-11   9.78099382E-11   4.99972452E-02   4.99975657E-02   6.46569126E-02   6.87003482E-02   2.24882730E-02   0.00000000E+00   9.95160616E-11   9.99506746E-11   9.95196314E-11   9.95149183E-11   9.98496552E-04   6.43671258E-02   6.41957065E-02   0.00000000E+00   8.06843307E-03   8.40245943E-11   9.23946627E-11   9.43719776E-11   1.00111290E-10   9.99994514E-05   1.00000144E-04   1.03354530E-04   9.99997481E-05   8.02598182E-04   9.99977564E-05   9.99999205E-05   9.96414166E-04   9.99999295E-05   1.00002299E-04
   2.62500000E+01   5.00000000E-01   5.00000000E-01   1.07438951E-01   1.09022412E-01   8.56280288E-11   5.06768854E-11   4.81998492E-11   2.10512438E-04   1.82723990E-13   1.07284271E-10   4.52692531E-09   1.37975149E-10   1.31825948E-03   9.78158639E-11   9.97756610E-11   9.78317293E-11   9.78101320E-11   4.99972441E-02   4.99976758E-02   6.46569126E-02   6.88222846E-02   2.21560298E-02   0.00000000E+00   9.95164363E-11   9.99515660E-11   9.95212073E-11   9.95212638E-11   9.98496642E-04   6.43971315E-02   6.41957065E-02   0.00000000E+00   8.06843307E-03   8.40246284E-11   9.23946627E-11   9.43719776E-11   1.00178845E-10   9.99994228E-05   1.00000160E-04   1.01258493E-04   9.99997446E-05   8.02598182E-04   9.99977564E-05   9.99999205E-05   9.96414203E-04   9.99999295E-05   1.00000025E-04
   4.37500000E+01   5.00000000E-01   5.00000000E-01   1.07438951E-01   1.09027183E-01   8.56279650E-11   4.75734071E-11   4.59345366E-11   2.10512438E-04   1.82735471E-13   1.08801086E-10   5.73556935E-09   1.46361663E-10   1.44641475E-03   9.78160161E-11   9.97758625E-11   9.78324197E-11   9.78119036E-11   4.99972436E-02   4.99977728E-02   6.46569126E-02   6.91410705E-02   2.17874730E-02   0.00000000E+00   9.95186158E-11   9.99564680E-11   9.95303645E-11   9.95570488E-11   9.98497083E-04   6.44182052E-02   6.41957065E-02   0.00000000E+00   8.06843307E-03   8.40247766E-11   9.23946627E-11   9.43719776E-11   1.00237192E-10   9.99994052E-05   1.00000175E-04   1.00426444E-04   9.99997413E-05   8.02598182E-04   9.99977564E-05   9.99999205E-05   9.96414205E-04   9.99999295E-05   1.00000025E-04
   6.12500000E+01   5.00000000E-01   5.00000000E-01   1.07438951E-01   1.09032170E-01   8.56279352E-11   4.59815293E-11   4.47589453E-11   2.10512438E-04   1.82745498E-13   1.10054740E-10   6.57082627E-09   1.53460364E-10   1.78408562E-03   9.78164662E-11   9.97764250E-11   9.78344579E-11   9.78169784E-11   4.99972435E-02   4.99978667E-02   6.46569126E-02   6.96072507E-02   2.12113148E-02   0.00000000E+00   9.95236961E-11   9.99671799E-11   9.95516884E-11   9.96375766E-11   9.98497911E-04   6.44356030E-02   6.41957065E-02   0.00000000E+00   8.06843307E-03   8.40250507E-11   9.23946627E-11   9.43719776E-11   1.00285035E-10   9.99993974E-05   1.00000189E-04   1.00073583E-04   9.99997383E-05   8.02598182E-04   9.99977564E-05   9.99999204E-05   9.96414242E-04   9.99999295E-05   1.00000025E-04
   7.87500000E+01   5.00000000E-01   5.00000000E-01   1.07438951E-01   1.09037719E-01   8.56279200E-11   4.51810767E-11   4.41678337E-11   2.10512438E-04   1.82755705E-13   1.11370086E-10   7.47622936E-09   1.61112372E-10   2.27123392E-03   9.78173009E-11   9.97774054E-11   9.78382319E-11   9.78260767E-11   4.99972437E-02   4.99979596E-02   6.46569126E-02   7.01326940E-02   2.05355370E-02   0.00000000E+00   9.95316037E-11   9.99827154E-11   9.95848498E-11   9.97582350E-11   9.98499057E-04   6.44579823E-02   6.41957065E-02   0.00000000E+00   8.06843307E-03   8.40254235E-11   9.23946627E-11   9.43719776E-11   1.00322126E-10   9.99993946E-05   1.00000203E-04   9.99134930E-05   9.99997355E-05   8.02598182E-04   9.99977564E-05   9.99999204E-05   9.96414310E-04   9.99999295E-05   1.00000025E-04
   9.62500000E+01   5.00000000E-01   5.00000000E-01   1.07438951E-01   1.09043934E-01   8.56279121E-11   4.47575257E-11   4.38584160E-11   2.10512437E-04   1.82766571E-13   1.12758517E-10   8.41434551E-09   1.69404703E-10   2.76836991E-03   9.78184847E-11   9.97787060E-11   9.78435762E-11   9.78385195E-11   4.99972441E-02   4.99980512E-02   6.46569126E-02   7.06382656E-02   1.98782831E-02   0.00000000E+00   9.95413369E-11   1.00000385E-10   9.96256303E-11   9.99006192E-11   9.98500392E-04   6.44866076E-02   6.41957065E-02   0.00000000E+00   8.06843307E-03   8.40258502E-11   9.23946627E-11   9.43719776E-11   1.00349609E-10   9.99993940E-05   1.00000214E-04   9.98347582E-05   9.99997330E-05   8.02598182E-04   9.99977564E-05   9.99999204E-05   9.96414400E-04   9.99999295E-05   1.00000025E-04
   1.13750000E+02   5.00000000E-01   5.00000000E-01   1.07438951E-01   1.09050781E-01   8.56279085E-11   4.45154091E-11   4.36854798E-11   2.10512437E-04   1.82778212E-13   1.14146576E-10   9.23796380E-09   1.77904474E-10   3.18681040E-03   9.78198516E-11   9.97800965E-11   9.78497363E-11   9.78523013E-11   4.99972446E-02   4.99981409E-02   6.46569126E-02   7.10684230E-02   1.93201925E-02   0.00000000E+00   9.95514318E-11   1.00017073E-10   9.96678845E-11   1.00041167E-10   9.98501722E-04   6.45196127E-02   6.41957065E-02   0.00000000E+00   8.06843308E-03   8.40262733E-11   9.23946627E-11   9.43719776E-11   1.00369330E-10   9.99993944E-05   1.00000225E-04   9.97918326E-05   9.99997307E-05   8.02598182E-04   9.99977564E-05   9.99999204E-05   9.96414505E-04   9.99999295E-05   1.00000025E-04
   1.31250000E+02   5.00000000E-01   5.00000000E-01   1.07438951E-01   1.09058186E-01   8.56279076E-11   4.43676541E-11   4.35838261E-11   2.10512437E-04   1.82790672E-13   1.15472589E-10   9.83841947E-09   1.86213960E-10   3.49875456E-03   9.78212168E-11   9.97813629E-11   9.78558763E-11   9.78654058E-11   4.99972451E-02   4.99982285E-02   6.46569126E-02   7.14021023E-02   1.88904038E-02   0.00000000E+00   9.95607489E-11   1.00030783E-10   9.97068359E-11   1.00163272E-10   9.98502893E-04   6.45546564E-02   6.41957065E-02   0.00000000E+00   8.06843308E-03   8.40266509E-11   9.23946627E-11   9.43719776E-11   1.00383166E-10   9.99993950E-05   1.00000234E-04   9.97652908E-05   9.99997285E-05   8.02598182E-04   9.99977564E-05   9.99999204E-05   9.96414623E-04   9.99999295E-05   1.00000025E-04
   1.48750000E+02   5.00000000E-01   5.00000000E-01   1.07438951E-01   1.09066084E-01   8.56279085E-11   4.42754648E-11   4.35243401E-11   2.10512437E-04   1.82803995E-13   1.16704734E-10   1.01756867E-08   1.94097140E-10   3.71081307E-03   9.78224625E-11   9.97823950E-11   9.78614656E-11   9.78766780E-11   4.99972457E-02   4.99983138E-02   6.46569126E-02   7.16439855E-02   1.85823334E-02   0.00000000E+00   9.95687691E-11   1.00040947E-10   9.97403163E-11   1.00260749E-10   9.98503839E-04   6.45899440E-02   6.41957065E-02   0.00000000E+00   8.06843308E-03   8.40269659E-11   9.23946627E-11   9.43719776E-11   1.00392697E-10   9.99993956E-05   1.00000242E-04   9.97465263E-05   9.99997265E-05   8.02598182E-04   9.99977564E-05   9.99999204E-05   9.96414751E-04   9.99999295E-05   1.00000025E-04
   1.66250000E+02   5.00000000E-01   5.00000000E-01   1.07438951E-01   1.09074420E-01   8.56279107E-11   4.42203106E-11   4.34931409E-11   2.10512437E-04   1.82818226E-13   1.17831975E-10   1.02613471E-08   2.01443065E-10   3.84250369E-03   9.78235448E-11   9.97831740E-11   9.78663095E-11   9.78858022E-11   4.99972464E-02   4.99983969E-02   6.46569126E-02   7.18101658E-02   1.83741459E-02   0.00000000E+00   9.95754423E-11   1.00047887E-10   9.97681238E-11   1.00334549E-10   9.98504559E-04   6.46243013E-02   6.41957065E-02   0.00000000E+00   8.06843308E-03   8.40272191E-11   9.23946627E-11   9.43719776E-11   1.00399122E-10   9.99993960E-05   1.00000249E-04   9.97315921E-05   9.99997246E-05   8.02598182E-04   9.99977564E-05   9.99999204E-05   9.96414888E-04   9.99999295E-05   1.00000025E-04
   1.83750000E+02   5.00000000E-01   5.00000000E-01   1.07438951E-01   1.09083148E-01   8.56279140E-11   4.41921938E-11   4.34827677E-11   2.10512436E-04   1.82833403E-13   1.18853728E-10   1.01339209E-08   2.08211157E-10   3.91482707E-03   9.78244679E-11   9.97837309E-11   9.78704280E-11   9.78929534E-11   4.99972471E-02   4.99984777E-02   6.46569126E-02   7.19185530E-02   1.82417193E-02   0.00000000E+00   9.95809501E-11   1.00052262E-10   9.97910274E-11   1.00388732E-10   9.98505083E-04   6.46569713E-02   6.41957065E-02   0.00000000E+00   8.06843309E-03   8.40274194E-11   9.23946627E-11   9.43719776E-11   1.00403303E-10   9.99993961E-05   1.00000255E-04   9.97186206E-05   9.99997229E-05   8.02598182E-04   9.99977564E-05   9.99999203E-05   9.96415031E-04   9.99999295E-05   1.00000025E-04
   2.01250000E+02   5.00000000E-01   5.00000000E-01   1.07438951E-01   1.09092221E-01   8.56279181E-11   4.41850277E-11   4.34886973E-11   2.10512436E-04   1.82849561E-13   1.19774142E-10   9.84119735E-09   2.14398215E-10   3.94560563E-03   9.78252569E-11   9.97841125E-11   9.78739371E-11   9.78984964E-11   4.99972478E-02   4.99985562E-02   6.46569126E-02   7.19846088E-02   1.81643045E-02   0.00000000E+00   9.95855418E-11   1.00054747E-10   9.98100772E-11   1.00427917E-10   9.98505454E-04   6.46874569E-02   6.41957065E-02   0.00000000E+00   8.06843309E-03   8.40275780E-11   9.23946627E-11   9.43719776E-11   1.00405845E-10   9.99993959E-05   1.00000259E-04   9.97067032E-05   9.99997213E-05   8.02598182E-04   9.99977564E-05   9.99999203E-05   9.96415181E-04   9.99999295E-05   1.00000025E-04
   2.18750000E+02   5.00000000E-01   5.00000000E-01   1.07438951E-01   1.09101593E-01   8.56279230E-11   4.41947776E-11   4.35079436E-11   2.10512436E-04   1.82866730E-13   1.20599637E-10   9.43025545E-09   2.20022868E-10   3.94840101E-03   9.78259426E-11   9.97843641E-11   9.78769760E-11   9.79028147E-11   4.99972486E-02   4.99986324E-02   6.46569126E-02   7.20202552E-02   1.81259477E-02   0.00000000E+00   9.95894523E-11   1.00055899E-10   9.98262616E-11   1.00456145E-10   9.98505709E-04   6.47154428E-02   6.41957065E-02   0.00000000E+00   8.06843309E-03   8.40277052E-11   9.23946627E-11   9.43719776E-11   1.00407167E-10   9.99993953E-05   1.00000262E-04   9.96953880E-05   9.99997199E-05   8.02598182E-04   9.99977564E-05   9.99999203E-05   9.96415336E-04   9.99999295E-05   1.00000025E-04
   2.36250000E+02   5.00000000E-01   5.00000000E-01   1.07438951E-01   1.09111222E-01   8.56279285E-11   4.42186217E-11   4.35384285E-11   2.10512436E-04   1.82884938E-13   1.21337859E-10   8.94257958E-09   2.25118049E-10   3.93291783E-03   9.78265528E-11   9.97845231E-11   9.78796717E-11   9.79062375E-11   4.99972494E-02   4.99987061E-02   6.46569126E-02   7.20341605E-02   1.81150876E-02   0.00000000E+00   9.95928730E-11   1.00056138E-10   9.98403846E-11   1.00476560E-10   9.98505879E-04   6.47407596E-02   6.41957065E-02   0.00000000E+00   8.06843309E-03   8.40278094E-11   9.23946627E-11   9.43719776E-11   1.00407560E-10   9.99993943E-05   1.00000263E-04   9.96844464E-05   9.99997185E-05   8.02598182E-04   9.99977564E-05   9.99999203E-05   9.96415496E-04   9.99999295E-05   1.00000025E-04
   2.53750000E+02   5.00000000E-01   5.00000000E-01   1.07438951E-01   1.09121068E-01   8.56279345E-11   4.42545050E-11   4.35786469E-11   2.10512435E-04   1.82904216E-13   1.21997135E-10   8.41216716E-09   2.29726354E-10   3.90582154E-03   9.78271105E-11   9.97846174E-11   9.78821269E-11   9.79090202E-11   4.99972502E-02   4.99987775E-02   6.46569126E-02   7.20324298E-02   1.81236235E-02   0.00000000E+00   9.95959475E-11   1.00055760E-10   9.98530492E-11   1.00491447E-10   9.98505989E-04   6.47633615E-02   6.41957065E-02   0.00000000E+00   8.06843309E-03   8.40278970E-11   9.23946627E-11   9.43719776E-11   1.00407230E-10   9.99993929E-05   1.00000264E-04   9.96737621E-05   9.99997173E-05   8.02598182E-04   9.99977564E-05   9.99999203E-05   9.96415660E-04   9.99999295E-05   1.00000025E-04
   2.71250000E+02   5.00000000E-01   5.00000000E-01   1.07438951E-01   1.09131096E-01   8.56279411E-11   4.43008861E-11   4.36274778E-11   2.10512435E-04   1.82924602E-13   1.22586077E-10   7.86531886E-09   2.33896364E-10   3.87153779E-03   9.78276324E-11   9.97846669E-11   9.78844184E-11   9.79113485E-11   4.99972511E-02   4.99988464E-02   6.46569126E-02   7.20192922E-02   1.81459912E-02   0.00000000E+00   9.95987780E-11   1.00054967E-10   9.98646838E-11   1.00502396E-10   9.98506056E-04   6.47833060E-02   6.41957065E-02   0.00000000E+00   8.06843310E-03   8.40279726E-11   9.23946627E-11   9.43719776E-11   1.00406324E-10   9.99993911E-05   1.00000263E-04   9.96632766E-05   9.99997161E-05   8.02598182E-04   9.99977564E-05   9.99999203E-05   9.96415827E-04   9.99999295E-05   1.00000025E-04
   2.88750000E+02   5.00000000E-01   5.00000000E-01   1.07438952E-01   1.09141276E-01   8.56279481E-11   4.43566093E-11   4.36840901E-11   2.10512435E-04   1.82946135E-13   1.23113249E-10   7.32131758E-09   2.37679426E-10   3.83290175E-03   9.78281307E-11   9.97846851E-11   9.78866002E-11   9.79133501E-11   4.99972520E-02   4.99989130E-02   6.46569126E-02   7.19976562E-02   1.81784158E-02   0.00000000E+00   9.96014333E-11   1.00053892E-10   9.98755772E-11   1.00510472E-10   9.98506092E-04   6.48007322E-02   6.41957065E-02   0.00000000E+00   8.06843310E-03   8.40280394E-11   9.23946627E-11   9.43719776E-11   1.00404954E-10   9.99993889E-05   1.00000261E-04   9.96529616E-05   9.99997150E-05   8.02598182E-04   9.99977564E-05   9.99999203E-05   9.96415998E-04   9.99999295E-05   1.00000025E-04
   3.06250000E+02   5.00000000E-01   5.00000000E-01   1.07438952E-01   1.09151583E-01   8.56279557E-11   4.44208579E-11   4.37479103E-11   2.10512435E-04   1.82968868E-13   1.23586880E-10   6.79350915E-09   2.41126896E-10   3.79164725E-03   9.78286131E-11   9.97846809E-11   9.78887072E-11   9.79151082E-11   4.99972529E-02   4.99989772E-02   6.46569126E-02   7.19695209E-02   1.82183559E-02   0.00000000E+00   9.96039574E-11   1.00052620E-10   9.98859132E-11   1.00516362E-10   9.98506104E-04   6.48158394E-02   6.41957065E-02   0.00000000E+00   8.06843310E-03   8.40280995E-11   9.23946627E-11   9.43719776E-11   1.00403201E-10   9.99993864E-05   1.00000258E-04   9.96428052E-05   9.99997140E-05   8.02598182E-04   9.99977564E-05   9.99999203E-05   9.96416172E-04   9.99999295E-05   1.00000025E-04
   3.23750000E+02   5.00000000E-01   5.00000000E-01   1.07438952E-01   1.09161994E-01   8.56279637E-11   4.44931505E-11   4.38186269E-11   2.10512434E-04   1.82992859E-13   1.24014647E-10   6.29049146E-09   2.44287908E-10   3.74876496E-03   9.78290840E-11   9.97846594E-11   9.78907594E-11   9.79166726E-11   4.99972539E-02   4.99990391E-02   6.46569126E-02   7.19362695E-02   1.82641047E-02   0.00000000E+00   9.96063758E-11   1.00051206E-10   9.98957984E-11   1.00520493E-10   9.98506099E-04   6.48288648E-02   6.41957065E-02   0.00000000E+00   8.06843310E-03   8.40281544E-11   9.23946627E-11   9.43719776E-11   1.00401133E-10   9.99993835E-05   1.00000254E-04   9.96328040E-05   9.99997130E-05   8.02598182E-04   9.99977564E-05   9.99999203E-05   9.96416349E-04   9.99999295E-05   1.00000025E-04
   3.41250000E+02   5.00000000E-01   5.00000000E-01   1.07438952E-01   1.09172495E-01   8.56279722E-11   4.45733475E-11   4.38961995E-11   2.10512434E-04   1.83018176E-13   1.24403521E-10   5.81724642E-09   2.47207774E-10   3.70476377E-03   9.78295455E-11   9.97846239E-11   9.78927657E-11   9.79180698E-11   4.99972549E-02   4.99990988E-02   6.46569126E-02   7.18988741E-02   1.83145090E-02   0.00000000E+00   9.96087010E-11   1.00049681E-10   9.99052855E-11   1.00523114E-10   9.98506079E-04   6.48400638E-02   6.41957065E-02   0.00000000E+00   8.06843311E-03   8.40282047E-11   9.23946627E-11   9.43719776E-11   1.00398801E-10   9.99993803E-05   1.00000249E-04   9.96229594E-05   9.99997122E-05   8.02598182E-04   9.99977564E-05   9.99999203E-05   9.96416530E-04   9.99999295E-05   1.00000025E-04
   3.58750000E+02   5.00000000E-01   5.00000000E-01   1.07438952E-01   1.09183071E-01   8.56279813E-11   4.46616404E-11   4.39808563E-11   2.10512434E-04   1.83044897E-13   1.24759685E-10   5.37613101E-09   2.49927043E-10   3.65986212E-03   9.78299977E-11   9.97845760E-11   9.78947274E-11   9.79193111E-11   4.99972559E-02   4.99991564E-02   6.46569126E-02   7.18580401E-02   1.83687695E-02   0.00000000E+00   9.96109372E-11   1.00048067E-10   9.99143916E-11   1.00524365E-10   9.98506045E-04   6.48496916E-02   6.41957065E-02   0.00000000E+00   8.06843311E-03   8.40282508E-11   9.23946627E-11   9.43719776E-11   1.00396249E-10   9.99993768E-05   1.00000243E-04   9.96132753E-05   9.99997114E-05   8.02598182E-04   9.99977564E-05   9.99999203E-05   9.96416714E-04   9.99999295E-05   1.00000025E-04
   3.76250000E+02   5.00000000E-01   5.00000000E-01   1.07438952E-01   1.09193714E-01   8.56279908E-11   4.47585191E-11   4.40730723E-11   2.10512433E-04   1.83073107E-13   1.25088534E-10   4.96769252E-09   2.52481212E-10   3.61412543E-03   9.78304399E-11   9.97845165E-11   9.78966410E-11   9.79203989E-11   4.99972570E-02   4.99992120E-02   6.46569126E-02   7.18143056E-02   1.84263014E-02   0.00000000E+00   9.96130834E-11   1.00046375E-10   9.99231130E-11   1.00524325E-10   9.98506000E-04   6.48579894E-02   6.41957065E-02   0.00000000E+00   8.06843311E-03   8.40282928E-11   9.23946627E-11   9.43719776E-11   1.00393513E-10   9.99993730E-05   1.00000237E-04   9.96037567E-05   9.99997106E-05   8.02598182E-04   9.99977565E-05   9.99999203E-05   9.96416901E-04   9.99999295E-05   1.00000025E-04
   3.93750000E+02   5.00000000E-01   5.00000000E-01   1.07438952E-01   1.09204414E-01   8.56280010E-11   4.48647255E-11   4.41735351E-11   2.10512433E-04   1.83102899E-13   1.25394728E-10   4.59130041E-09   2.54900975E-10   3.56755677E-03   9.78308708E-11   9.97844460E-11   9.78985008E-11   9.79213322E-11   4.99972581E-02   4.99992656E-02   6.46569126E-02   7.17681090E-02   1.84866408E-02   0.00000000E+00   9.96151365E-11   1.00044616E-10   9.99314368E-11   1.00523044E-10   9.98505943E-04   6.48651748E-02   6.41957065E-02   0.00000000E+00   8.06843312E-03   8.40283308E-11   9.23946627E-11   9.43719776E-11   1.00390624E-10   9.99993691E-05   1.00000229E-04   9.95944092E-05   9.99997099E-05   8.02598182E-04   9.99977565E-05   9.99999203E-05   9.96417092E-04   9.99999295E-05   1.00000025E-04
   4.11250000E+02   5.00000000E-01   5.00000000E-01   1.07438952E-01   1.09215167E-01   8.56280117E-11   4.49812054E-11   4.42831093E-11   2.10512432E-04   1.83134373E-13   1.25682274E-10   4.24560484E-09   2.57212755E-10   3.52014446E-03   9.78312890E-11   9.97843648E-11   9.79003004E-11   9.79221091E-11   4.99972592E-02   4.99993175E-02   6.46569126E-02   7.17198299E-02   1.85493894E-02   0.00000000E+00   9.96170931E-11   1.00042796E-10   9.99393484E-11   1.00520567E-10   9.98505874E-04   6.48714384E-02   6.41957065E-02   0.00000000E+00   8.06843312E-03   8.40283647E-11   9.23946627E-11   9.43719776E-11   1.00387608E-10   9.99993650E-05   1.00000221E-04   9.95852389E-05   9.99997093E-05   8.02598182E-04   9.99977565E-05   9.99999204E-05   9.96417287E-04   9.99999295E-05   1.00000025E-04
   4.28750000E+02   5.00000000E-01   5.00000000E-01   1.07438953E-01   1.09225968E-01   8.56280230E-11   4.51090680E-11   4.44028051E-11   2.10512432E-04   1.83167634E-13   1.25954614E-10   3.92884605E-09   2.59439252E-10   3.47187418E-03   9.78316931E-11   9.97842734E-11   9.79020340E-11   9.79227288E-11   4.99972604E-02   4.99993676E-02   6.46569126E-02   7.16698104E-02   1.86141893E-02   0.00000000E+00   9.96189500E-11   1.00040926E-10   9.99468354E-11   1.00516942E-10   9.98505796E-04   6.48769450E-02   6.41957065E-02   8.77773390E-30   8.06843313E-03   8.40283947E-11   9.23946627E-11   9.43719776E-11   1.00384486E-10   9.99993607E-05   1.00000212E-04   9.95762515E-05   9.99997087E-05   8.02598182E-04   9.99977565E-05   9.99999204E-05   9.96417486E-04   9.99999295E-05   1.00000025E-04
   4.46250000E+02   5.00000000E-01   5.00000000E-01   1.07438953E-01   1.09236812E-01   8.56280349E-11   4.52495576E-11   4.45337576E-11   2.10512431E-04   1.83202795E-13   1.26214672E-10   3.63904982E-09   2.61599742E-10   3.42271965E-03   9.78320818E-11   9.97841724E-11   9.79036961E-11   9.79231915E-11   4.99972616E-02   4.99994160E-02   6.46569126E-02   7.16183623E-02   1.86807176E-02   0.00000000E+00   9.96207050E-11   1.00039011E-10   9.99538883E-11   1.00512222E-10   9.98505707E-04   6.48818381E-02   6.41957065E-02   0.00000000E+00   8.06843313E-03   8.40284207E-11   9.23946627E-11   9.43719776E-11   1.00381278E-10   9.99993562E-05   1.00000203E-04   9.95674527E-05   9.99997082E-05   8.02598182E-04   9.99977565E-05   9.99999204E-05   9.96417689E-04   9.99999295E-05   1.00000025E-04
   4.63750000E+02   5.00000000E-01   5.00000000E-01   1.07438953E-01   1.09247694E-01   8.56280475E-11   4.54040375E-11   4.46772142E-11   2.10512431E-04   1.83239975E-13   1.26464877E-10   3.37414807E-09   2.63710083E-10   3.37262934E-03   9.78324541E-11   9.97840622E-11   9.79052815E-11   9.79234976E-11   4.99972629E-02   4.99994628E-02   6.46569126E-02   7.15657676E-02   1.87486891E-02   0.00000000E+00   9.96223561E-11   1.00037061E-10   9.99604991E-11   1.00506460E-10   9.98505608E-04   6.48862442E-02   6.41957065E-02   6.56776958E-16   8.06843313E-03   8.40284427E-11   9.23946627E-11   9.43719776E-11   1.00378000E-10   9.99993517E-05   1.00000193E-04   9.95588480E-05   9.99997077E-05   8.02598182E-04   9.99977565E-05   9.99999204E-05   9.96417896E-04   9.99999295E-05   1.00000025E-04
   4.81250000E+02   5.00000000E-01   5.00000000E-01   1.07438953E-01   1.09258608E-01   8.56280608E-11   4.55739867E-11   4.48345339E-11   2.10512430E-04   1.83279301E-13   1.26707154E-10   3.13205829E-09   2.65782532E-10   3.32152282E-03   9.78328085E-11   9.97839435E-11   9.79067847E-11   9.79236475E-11   4.99972642E-02   4.99995082E-02   6.46569126E-02   7.15122787E-02   1.88178569E-02   0.00000000E+00   9.96239013E-11   1.00035081E-10   9.99666602E-11   1.00499707E-10   9.98505501E-04   6.48902753E-02   6.41957065E-02   4.15516716E-15   8.06843314E-03   8.40284609E-11   9.23946627E-11   9.43719776E-11   1.00374665E-10   9.99993470E-05   1.00000183E-04   9.95504428E-05   9.99997072E-05   8.02598182E-04   9.99977565E-05   9.99999204E-05   9.96418107E-04   9.99999295E-05   1.00000025E-04
   4.98750000E+02   5.00000000E-01   5.00000000E-01   1.07438954E-01   1.09269546E-01   8.56280748E-11   4.57610097E-11   4.50071967E-11   2.10512430E-04   1.83320908E-13   1.26942920E-10   2.91074402E-09   2.67825618E-10   3.26930198E-03   9.78331437E-11   9.97838165E-11   9.79082000E-11   9.79236414E-11   4.99972656E-02   4.99995520E-02   6.46569126E-02   7.14581212E-02   1.88880070E-02   0.00000000E+00   9.96253391E-11   1.00033078E-10   9.99723646E-11   1.00492014E-10   9.98505384E-04   6.48940275E-02   6.41957065E-02   9.58223142E-15   8.06843314E-03   8.40284751E-11   9.23946627E-11   9.43719776E-11   1.00371286E-10   9.99993423E-05   1.00000172E-04   9.95422419E-05   9.99997068E-05   8.02598182E-04   9.99977565E-05   9.99999204E-05   9.96418323E-04   9.99999295E-05   1.00000025E-04
   5.16250000E+02   5.00000000E-01   5.00000000E-01   1.07438954E-01   1.09280501E-01   8.56280897E-11   4.59668613E-11   4.51968254E-11   2.10512429E-04   1.83364941E-13   1.27173117E-10   2.70826557E-09   2.69844311E-10   3.21587321E-03   9.78334587E-11   9.97836819E-11   9.79095222E-11   9.79234804E-11   4.99972670E-02   4.99995944E-02   6.46569126E-02   7.14034999E-02   1.89589462E-02   0.00000000E+00   9.96266679E-11   1.00031058E-10   9.99776075E-11   1.00483432E-10   9.98505260E-04   6.48975776E-02   6.41957065E-02   1.78789662E-14   8.06843315E-03   8.40284855E-11   9.23946627E-11   9.43719776E-11   1.00367873E-10   9.99993375E-05   1.00000161E-04   9.95342501E-05   9.99997064E-05   8.02598182E-04   9.99977565E-05   9.99999204E-05   9.96418544E-04   9.99999295E-05   1.00000025E-04
   5.33750000E+02   5.00000000E-01   5.00000000E-01   1.07438954E-01   1.09291464E-01   8.56281054E-11   4.61934840E-11   4.54052196E-11   2.10512429E-04   1.83411556E-13   1.27398288E-10   2.52282131E-09   2.71840601E-10   3.16117040E-03   9.78337523E-11   9.97835401E-11   9.79107472E-11   9.79231672E-11   4.99972684E-02   4.99996355E-02   6.46569127E-02   7.13486067E-02   1.90304881E-02   0.00000000E+00   9.96278878E-11   1.00029027E-10   9.99823885E-11   1.00474019E-10   9.98505127E-04   6.49009794E-02   6.41957065E-02   3.04474006E-14   8.06843316E-03   8.40284920E-11   9.23946627E-11   9.43719776E-11   1.00364435E-10   9.99993327E-05   1.00000150E-04   9.95264720E-05   9.99997060E-05   8.02598182E-04   9.99977565E-05   9.99999204E-05   9.96418770E-04   9.99999295E-05   1.00000025E-04
   5.51250000E+02   5.00000000E-01   5.00000000E-01   1.07438955E-01   1.09302427E-01   8.56281219E-11   4.64430575E-11   4.56343996E-11   2.10512428E-04   1.83460919E-13   1.27618692E-10   2.35277465E-09   2.73814415E-10   3.10516844E-03   9.78340241E-11   9.97833919E-11   9.79118731E-11   9.79227073E-11   4.99972699E-02   4.99996752E-02   6.46569127E-02   7.12936266E-02   1.91024434E-02   0.00000000E+00   9.96290001E-11   1.00026992E-10   9.99867143E-11   1.00463845E-10   9.98504988E-04   6.49042622E-02   6.41957065E-02   4.93848922E-14   8.06843316E-03   8.40284949E-11   9.23946627E-11   9.43719776E-11   1.00360981E-10   9.99993278E-05   1.00000138E-04   9.95189117E-05   9.99997057E-05   8.02598182E-04   9.99977565E-05   9.99999204E-05   9.96419000E-04   9.99999295E-05   1.00000025E-04
   5.68750000E+02   5.00000000E-01   5.00000000E-01   1.07438955E-01   1.09313379E-01   8.56281394E-11   4.67180567E-11   4.58866585E-11   2.10512427E-04   1.83513210E-13   1.27834428E-10   2.19666318E-09   2.75764637E-10   3.04788069E-03   9.78342741E-11   9.97832382E-11   9.79128999E-11   9.79221092E-11   4.99972714E-02   4.99997136E-02   6.46569127E-02   7.12387402E-02   1.91746181E-02   0.00000000E+00   9.96300083E-11   1.00024959E-10   9.99905996E-11   1.00452990E-10   9.98504842E-04   6.49074335E-02   6.41957065E-02   7.78432203E-14   8.06843317E-03   8.40284943E-11   9.23946627E-11   9.43719776E-11   1.00357518E-10   9.99993229E-05   1.00000127E-04   9.95115732E-05   9.99997054E-05   8.02598182E-04   9.99977565E-05   9.99999205E-05   9.96419237E-04   9.99999295E-05   1.00000025E-04
   5.86250000E+02   5.00000000E-01   5.00000000E-01   1.07438956E-01   1.09324311E-01   8.56281580E-11   4.70213123E-11   4.61646175E-11   2.10512427E-04   1.83568622E-13   1.28045536E-10   2.05319003E-09   2.77689901E-10   2.98934146E-03   9.78345027E-11   9.97830800E-11   9.79138300E-11   9.79213836E-11   4.99972730E-02   4.99997507E-02   6.46569127E-02   7.11841217E-02   1.92468193E-02   0.00000000E+00   9.96309175E-11   1.00022937E-10   9.99940660E-11   1.00441543E-10   9.98504691E-04   6.49104847E-02   6.41957065E-02   1.20582373E-13   8.06843317E-03   8.40284904E-11   9.23946627E-11   9.43719776E-11   1.00354052E-10   9.99993180E-05   1.00000114E-04   9.95044603E-05   9.99997052E-05   8.02598182E-04   9.99977565E-05   9.99999205E-05   9.96419478E-04   9.99999295E-05   1.00000025E-04
   6.03750000E+02   5.00000000E-01   5.00000000E-01   1.07438956E-01   1.09335211E-01   8.56281775E-11   4.73560748E-11   4.64712845E-11   2.10512426E-04   1.83627366E-13   1.28252043E-10   1.92120220E-09   2.79588909E-10   2.92958129E-03   9.78347107E-11   9.97829182E-11   9.79146668E-11   9.79205421E-11   4.99972747E-02   4.99997865E-02   6.46569127E-02   7.11299341E-02   1.93188676E-02   0.00000000E+00   9.96317337E-11   1.00020932E-10   9.99971393E-11   1.00429595E-10   9.98504535E-04   6.49133999E-02   6.41957065E-02   1.84830084E-13   8.06843318E-03   8.40284834E-11   9.23946627E-11   9.43719776E-11   1.00350588E-10   9.99993131E-05   1.00000102E-04   9.94975767E-05   9.99997050E-05   8.02598182E-04   9.99977565E-05   9.99999205E-05   9.96419725E-04   9.99999295E-05   1.00000025E-04
   6.21250000E+02   5.00000000E-01   5.00000000E-01   1.07438957E-01   1.09346067E-01   8.56281982E-11   4.77260803E-11   4.68101160E-11   2.10512425E-04   1.83689667E-13   1.28453949E-10   1.79966389E-09   2.81460221E-10   2.86860541E-03   9.78348987E-11   9.97827538E-11   9.79154136E-11   9.79195955E-11   4.99972764E-02   4.99998211E-02   6.46569127E-02   7.10763226E-02   1.93906080E-02   0.00000000E+00   9.96324633E-11   1.00018951E-10   9.99998457E-11   1.00417231E-10   9.98504375E-04   6.49161632E-02   6.41957065E-02   2.81624834E-13   8.06843319E-03   8.40284738E-11   9.23946627E-11   9.43719776E-11   1.00347131E-10   9.99993082E-05   1.00000090E-04   9.94909255E-05   9.99997048E-05   8.02598182E-04   9.99977565E-05   9.99999205E-05   9.96419978E-04   9.99999295E-05   1.00000025E-04