 TITLE = "Mineral Volumes" 
VARIABLES = "X"          "Y"              "Z"            "Forsterite"     "Fayalite"       "Brucite"        "Lizardite"      "Chrysotile"     "Hematite"       "Magnetite(am)"  "Saponite(Ca)"   "Saponite(K)"    "Saponite(Mg)"   "Saponite(Na)"   "Beidellite(Ca)" "Beidellite(K)"  "Beidellite(Mg)" "Beidellite(Na)" "Enstatite(alph" "Ferrosilite(al" "Anorthite"      "Albite(low)"    "Clinochlore"    "Sudoite"        "Montmor(MgCa)"  "Montmor(MgK)"   "Montmor(MgMg)"  "Montmor(MgNa)"  "Kaolinite"      "Tremolite"      "Pargasite"      "Anhydrite"      "Epidote"        "Scolecite"      "Pyrite"         "FeS(am)"        "Quartz(alpha)"  "Titanite"       "Rutile"         "Barite"         "Fluorite"       "Spessartine(al" "Andradite"      "Celestite"      "Zincite"        "Chalcocyanite"  "Chalcocite(alp"
 ZONE I=         200 , J=           1 , K=           1  F=POINT
   8.75000000E+00   5.00000000E-01   5.00000000E-01   1.07619809E-01   1.09087658E-01   8.65796374E-11   6.02943690E-11   5.58298789E-11   1.96983635E-04   2.67928776E-13   1.04907791E-10   2.16030657E-09   1.25091578E-10   3.76868443E-04   9.79701996E-11   9.97916468E-11   9.79849024E-11   9.79647028E-11   4.99974425E-02   4.99977438E-02   6.50240993E-02   6.87911375E-02   2.09817060E-02   0.00000000E+00   9.95505459E-11   9.99541927E-11   9.95538565E-11   9.95494557E-11   9.98603863E-04   6.47544393E-02   6.45931908E-02   0.00000000E+00   8.19256732E-03   8.50722977E-11   9.29173920E-11   9.47628285E-11   1.00104294E-10   9.99995016E-05   1.00000134E-04   1.03113428E-04   9.99997661E-05   8.15250890E-04   9.99979167E-05   9.99999262E-05   9.96669896E-04   9.99999346E-05   1.00002135E-04
   2.62500000E+01   5.00000000E-01   5.00000000E-01   1.07619809E-01   1.09092408E-01   8.65794861E-11   5.39401583E-11   5.13104633E-11   1.96983634E-04   2.67954072E-13   1.07267942E-10   4.43608633E-09   1.37798660E-10   1.13289324E-03   9.79702106E-11   9.97916621E-11   9.79849524E-11   9.79648345E-11   4.99974416E-02   4.99978519E-02   6.50240993E-02   6.88934165E-02   2.06835874E-02   0.00000000E+00   9.95508316E-11   9.99548720E-11   9.95550577E-11   9.95542927E-11   9.98603925E-04   6.47846294E-02   6.45931908E-02   0.00000000E+00   8.19256732E-03   8.50723230E-11   9.29173920E-11   9.47628285E-11   1.00167876E-10   9.99994768E-05   1.00000148E-04   1.01169529E-04   9.99997628E-05   8.15250890E-04   9.99979167E-05   9.99999262E-05   9.96669945E-04   9.99999346E-05   1.00000024E-04
   4.37500000E+01   5.00000000E-01   5.00000000E-01   1.07619809E-01   1.09097140E-01   8.65794236E-11   5.06494686E-11   4.89082526E-11   1.96983634E-04   2.67970842E-13   1.08785840E-10   5.63064260E-09   1.46182712E-10   1.25608370E-03   9.79703237E-11   9.97918116E-11   9.79854651E-11   9.79661503E-11   4.99974411E-02   4.99979464E-02   6.50240993E-02   6.91697570E-02   2.03611082E-02   0.00000000E+00   9.95525946E-11   9.99588377E-11   9.95624645E-11   9.95832446E-11   9.98604255E-04   6.48058300E-02   6.45931908E-02   0.00000000E+00   8.19256732E-03   8.50724411E-11   9.29173920E-11   9.47628285E-11   1.00222870E-10   9.99994599E-05   1.00000163E-04   1.00396823E-04   9.99997598E-05   8.15250890E-04   9.99979167E-05   9.99999261E-05   9.96669946E-04   9.99999346E-05   1.00000024E-04
   6.12500000E+01   5.00000000E-01   5.00000000E-01   1.07619809E-01   1.09102072E-01   8.65793942E-11   4.89584570E-11   4.76593602E-11   1.96983634E-04   2.67985449E-13   1.10037872E-10   6.45187171E-09   1.53263845E-10   1.54712050E-03   9.79706699E-11   9.97922439E-11   9.79870329E-11   9.79700555E-11   4.99974410E-02   4.99980376E-02   6.50240993E-02   6.95815886E-02   1.98539192E-02   0.00000000E+00   9.95568235E-11   9.99677594E-11   9.95802133E-11   9.96502983E-11   9.98604896E-04   6.48233326E-02   6.45931908E-02   0.00000000E+00   8.19256732E-03   8.50726655E-11   9.29173920E-11   9.47628285E-11   1.00268275E-10   9.99994522E-05   1.00000176E-04   1.00068959E-04   9.99997570E-05   8.15250890E-04   9.99979167E-05   9.99999261E-05   9.96669981E-04   9.99999346E-05   1.00000024E-04
   7.87500000E+01   5.00000000E-01   5.00000000E-01   1.07619809E-01   1.09107560E-01   8.65793792E-11   4.81082057E-11   4.70314416E-11   1.96983634E-04   2.68000305E-13   1.11352649E-10   7.34641800E-09   1.60903897E-10   1.97550397E-03   9.79713234E-11   9.97930111E-11   9.79899872E-11   9.79771816E-11   4.99974412E-02   4.99981281E-02   6.50240993E-02   7.00521278E-02   1.92507006E-02   0.00000000E+00   9.95635221E-11   9.99809329E-11   9.96083001E-11   9.97525496E-11   9.98605792E-04   6.48458465E-02   6.45931908E-02   0.00000000E+00   8.19256732E-03   8.50729747E-11   9.29173920E-11   9.47628285E-11   1.00303828E-10   9.99994495E-05   1.00000188E-04   9.99201795E-05   9.99997545E-05   8.15250890E-04   9.99979167E-05   9.99999261E-05   9.96670044E-04   9.99999346E-05   1.00000024E-04
   9.62500000E+01   5.00000000E-01   5.00000000E-01   1.07619809E-01   1.09113707E-01   8.65793714E-11   4.76584426E-11   4.67028695E-11   1.96983634E-04   2.68016110E-13   1.12741276E-10   8.27717453E-09   1.69188556E-10   2.42201989E-03   9.79722685E-11   9.97940497E-11   9.79942534E-11   9.79871240E-11   4.99974416E-02   4.99982173E-02   6.50240993E-02   7.05118670E-02   1.86544045E-02   0.00000000E+00   9.95719198E-11   9.99962123E-11   9.96434782E-11   9.98755041E-11   9.98606852E-04   6.48746441E-02   6.45931908E-02   0.00000000E+00   8.19256732E-03   8.50733341E-11   9.29173920E-11   9.47628285E-11   1.00330473E-10   9.99994491E-05   1.00000199E-04   9.98469994E-05   9.99997521E-05   8.15250890E-04   9.99979167E-05   9.99999261E-05   9.96670129E-04   9.99999346E-05   1.00000024E-04
   1.13750000E+02   5.00000000E-01   5.00000000E-01   1.07619809E-01   1.09120475E-01   8.65793678E-11   4.74013675E-11   4.65192537E-11   1.96983634E-04   2.68033030E-13   1.14129646E-10   9.09693093E-09   1.77681412E-10   2.80474674E-03   9.79733824E-11   9.97951849E-11   9.79992725E-11   9.79983730E-11   4.99974421E-02   4.99983048E-02   6.50240993E-02   7.09096634E-02   1.81393478E-02   0.00000000E+00   9.95807916E-11   1.00010946E-10   9.96806040E-11   9.99992595E-11   9.98607928E-04   6.49078479E-02   6.45931908E-02   0.00000000E+00   8.19256732E-03   8.50736966E-11   9.29173920E-11   9.47628285E-11   1.00349822E-10   9.99994495E-05   1.00000209E-04   9.98070972E-05   9.99997499E-05   8.15250890E-04   9.99979167E-05   9.99999261E-05   9.96670228E-04   9.99999346E-05   1.00000024E-04
   1.31250000E+02   5.00000000E-01   5.00000000E-01   1.07619809E-01   1.09127787E-01   8.65793667E-11   4.72444553E-11   4.64113066E-11   1.96983633E-04   2.68051130E-13   1.15455785E-10   9.69689468E-09   1.85983068E-10   3.09461140E-03   9.79745144E-11   9.97962398E-11   9.80043630E-11   9.80092706E-11   4.99974426E-02   4.99983901E-02   6.50240993E-02   7.12235412E-02   1.77359474E-02   0.00000000E+00   9.95891104E-11   1.00023295E-10   9.97153736E-11   1.00108690E-10   9.98608892E-04   6.49431024E-02   6.45931908E-02   0.00000000E+00   8.19256733E-03   8.50740249E-11   9.29173920E-11   9.47628285E-11   1.00363564E-10   9.99994501E-05   1.00000217E-04   9.97824201E-05   9.99997479E-05   8.15250890E-04   9.99979167E-05   9.99999261E-05   9.96670339E-04   9.99999346E-05   1.00000024E-04
   1.48750000E+02   5.00000000E-01   5.00000000E-01   1.07619809E-01   1.09135578E-01   8.65793675E-11   4.71465122E-11   4.63481112E-11   1.96983633E-04   2.68070474E-13   1.16687777E-10   1.00365521E-08   1.93856925E-10   3.29454176E-03   9.79755604E-11   9.97971137E-11   9.80090561E-11   9.80187807E-11   4.99974432E-02   4.99984732E-02   6.50240993E-02   7.14550285E-02   1.74418639E-02   0.00000000E+00   9.95963588E-11   1.00032621E-10   9.97456241E-11   1.00197361E-10   9.98609681E-04   6.49786023E-02   6.45931908E-02   0.00000000E+00   8.19256733E-03   8.50743021E-11   9.29173920E-11   9.47628285E-11   1.00373152E-10   9.99994508E-05   1.00000225E-04   9.97649697E-05   9.99997461E-05   8.15250890E-04   9.99979167E-05   9.99999261E-05   9.96670460E-04   9.99999346E-05   1.00000024E-04
   1.66250000E+02   5.00000000E-01   5.00000000E-01   1.07619809E-01   1.09143794E-01   8.65793696E-11   4.70878761E-11   4.63149383E-11   1.96983633E-04   2.68091126E-13   1.17814582E-10   1.01268122E-08   2.01191916E-10   3.42054921E-03   9.79764762E-11   9.97977818E-11   9.80131546E-11   9.80265540E-11   4.99974438E-02   4.99985540E-02   6.50240993E-02   7.16170518E-02   1.72394758E-02   0.00000000E+00   9.96024397E-11   1.00039109E-10   9.97709575E-11   1.00265319E-10   9.98610287E-04   6.50131664E-02   6.45931908E-02   0.00000000E+00   8.19256733E-03   8.50745265E-11   9.29173920E-11   9.47628285E-11   1.00379708E-10   9.99994512E-05   1.00000231E-04   9.97510780E-05   9.99997443E-05   8.15250890E-04   9.99979167E-05   9.99999260E-05   9.96670589E-04   9.99999346E-05   1.00000024E-04
   1.83750000E+02   5.00000000E-01   5.00000000E-01   1.07619809E-01   1.09152385E-01   8.65793727E-11   4.70579441E-11   4.63038757E-11   1.96983633E-04   2.68113145E-13   1.18835640E-10   1.00055410E-08   2.07947548E-10   3.49104505E-03   9.79772594E-11   9.97982637E-11   9.80166487E-11   9.80326767E-11   4.99974445E-02   4.99986326E-02   6.50240993E-02   7.17251213E-02   1.71078373E-02   0.00000000E+00   9.96074816E-11   1.00043289E-10   9.97919187E-11   1.00315699E-10   9.98610732E-04   6.50460330E-02   6.45931908E-02   0.00000000E+00   8.19256733E-03   8.50747047E-11   9.29173920E-11   9.47628285E-11   1.00384053E-10   9.99994513E-05   1.00000236E-04   9.97390092E-05   9.99997428E-05   8.15250890E-04   9.99979167E-05   9.99999260E-05   9.96670725E-04   9.99999346E-05   1.00000024E-04
   2.01250000E+02   5.00000000E-01   5.00000000E-01   1.07619809E-01   1.09161307E-01   8.65793766E-11   4.70502625E-11   4.63101272E-11   1.96983633E-04   2.68136581E-13   1.19755137E-10   9.71997493E-09   2.14120792E-10   3.52215981E-03   9.79779277E-11   9.97985955E-11   9.80196208E-11   9.80374226E-11   4.99974452E-02   4.99987088E-02   6.50240993E-02   7.17930991E-02   1.70283087E-02   0.00000000E+00   9.96116900E-11   1.00045736E-10   9.98093743E-11   1.00352403E-10   9.98611048E-04   6.50767020E-02   6.45931908E-02   0.00000000E+00   8.19256733E-03   8.50748459E-11   9.29173920E-11   9.47628285E-11   1.00386768E-10   9.99994510E-05   1.00000239E-04   9.97279194E-05   9.99997413E-05   8.15250890E-04   9.99979167E-05   9.99999260E-05   9.96670867E-04   9.99999346E-05   1.00000024E-04
   2.18750000E+02   5.00000000E-01   5.00000000E-01   1.07619809E-01   1.09170514E-01   8.65793813E-11   4.70605524E-11   4.63305264E-11   1.96983632E-04   2.68161477E-13   1.20579528E-10   9.31675119E-09   2.19730476E-10   3.52642755E-03   9.79785054E-11   9.97988143E-11   9.80221809E-11   9.80411016E-11   4.99974460E-02   4.99987826E-02   6.50240993E-02   7.18319142E-02   1.69862395E-02   0.00000000E+00   9.96152686E-11   1.00046946E-10   9.98241817E-11   1.00378978E-10   9.98611264E-04   6.51048563E-02   6.45931908E-02   0.00000000E+00   8.19256734E-03   8.50749586E-11   9.29173920E-11   9.47628285E-11   1.00388262E-10   9.99994504E-05   1.00000242E-04   9.97173885E-05   9.99997399E-05   8.15250890E-04   9.99979167E-05   9.99999260E-05   9.96671014E-04   9.99999346E-05   1.00000024E-04
   2.36250000E+02   5.00000000E-01   5.00000000E-01   1.07619809E-01   1.09179964E-01   8.65793866E-11   4.70858214E-11   4.63628695E-11   1.96983632E-04   2.68187876E-13   1.21316490E-10   8.83701155E-09   2.24809718E-10   3.51296083E-03   9.79790157E-11   9.97989516E-11   9.80244342E-11   9.80439896E-11   4.99974468E-02   4.99988540E-02   6.50240993E-02   7.18496461E-02   1.69708370E-02   0.00000000E+00   9.96183881E-11   1.00047298E-10   9.98370578E-11   1.00398249E-10   9.98611407E-04   6.51303254E-02   6.45931908E-02   0.00000000E+00   8.19256734E-03   8.50750504E-11   9.29173920E-11   9.47628285E-11   1.00388823E-10   9.99994494E-05   1.00000243E-04   9.97072043E-05   9.99997387E-05   8.15250890E-04   9.99979167E-05   9.99999260E-05   9.96671165E-04   9.99999346E-05   1.00000024E-04
   2.53750000E+02   5.00000000E-01   5.00000000E-01   1.07619809E-01   1.09189616E-01   8.65793924E-11   4.71238889E-11   4.64055599E-11   1.96983632E-04   2.68215822E-13   1.21974377E-10   8.31449484E-09   2.29401273E-10   3.48810079E-03   9.79794779E-11   9.97990314E-11   9.80264682E-11   9.80463057E-11   4.99974476E-02   4.99989230E-02   6.50240993E-02   7.18520640E-02   1.69744359E-02   0.00000000E+00   9.96211792E-11   1.00047063E-10   9.98485509E-11   1.00412305E-10   9.98611498E-04   6.51530633E-02   6.45931908E-02   0.00000000E+00   8.19256734E-03   8.50751268E-11   9.29173920E-11   9.47628285E-11   1.00388654E-10   9.99994480E-05   1.00000244E-04   9.96972586E-05   9.99997375E-05   8.15250890E-04   9.99979167E-05   9.99999260E-05   9.96671320E-04   9.99999346E-05   1.00000023E-04
   2.71250000E+02   5.00000000E-01   5.00000000E-01   1.07619809E-01   1.09199437E-01   8.65793987E-11   4.71731190E-11   4.64574080E-11   1.96983632E-04   2.68245368E-13   1.22561822E-10   7.77531362E-09   2.33553846E-10   3.45610706E-03   9.79799067E-11   9.97990711E-11   9.80283494E-11   9.80482120E-11   4.99974484E-02   4.99989896E-02   6.50240994E-02   7.18432127E-02   1.69917078E-02   0.00000000E+00   9.96237361E-11   1.00046430E-10   9.98590565E-11   1.00422620E-10   9.98611550E-04   6.51731278E-02   6.45931908E-02   0.00000000E+00   8.19256734E-03   8.50751921E-11   9.29173920E-11   9.47628285E-11   1.00387904E-10   9.99994462E-05   1.00000243E-04   9.96874972E-05   9.99997364E-05   8.15250890E-04   9.99979167E-05   9.99999260E-05   9.96671479E-04   9.99999346E-05   1.00000023E-04
   2.88750000E+02   5.00000000E-01   5.00000000E-01   1.07619809E-01   1.09209396E-01   8.65794055E-11   4.72322849E-11   4.65175314E-11   1.96983632E-04   2.68276575E-13   1.23087404E-10   7.23862124E-09   2.37318867E-10   3.41973965E-03   9.79803127E-11   9.97990828E-11   9.80301254E-11   9.80498220E-11   4.99974493E-02   4.99990538E-02   6.50240994E-02   7.18259052E-02   1.70189974E-02   0.00000000E+00   9.96261233E-11   1.00045524E-10   9.98688449E-11   1.00430195E-10   9.98611576E-04   6.51906588E-02   6.45931908E-02   0.00000000E+00   8.19256734E-03   8.50752491E-11   9.29173920E-11   9.47628285E-11   1.00386685E-10   9.99994440E-05   1.00000241E-04   9.96778939E-05   9.99997354E-05   8.15250890E-04   9.99979167E-05   9.99999260E-05   9.96671641E-04   9.99999346E-05   1.00000023E-04
   3.06250000E+02   5.00000000E-01   5.00000000E-01   1.07619809E-01   1.09219469E-01   8.65794128E-11   4.73005188E-11   4.65853213E-11   1.96983631E-04   2.68309515E-13   1.23559363E-10   6.71768158E-09   2.40747740E-10   3.38070784E-03   9.79807028E-11   9.97990743E-11   9.80318276E-11   9.80512105E-11   4.99974502E-02   4.99991156E-02   6.50240994E-02   7.18020955E-02   1.70538168E-02   0.00000000E+00   9.96283825E-11   1.00044427E-10   9.98780910E-11   1.00435684E-10   9.98611581E-04   6.52058569E-02   6.45931908E-02   0.00000000E+00   8.19256735E-03   8.50753000E-11   9.29173920E-11   9.47628285E-11   1.00385080E-10   9.99994415E-05   1.00000238E-04   9.96684375E-05   9.99997344E-05   8.15250890E-04   9.99979167E-05   9.99999260E-05   9.96671806E-04   9.99999346E-05   1.00000023E-04
   3.23750000E+02   5.00000000E-01   5.00000000E-01   1.07619809E-01   1.09229633E-01   8.65794206E-11   4.73773096E-11   4.66604466E-11   1.96983631E-04   2.68344275E-13   1.23985383E-10   6.22104816E-09   2.43889616E-10   3.34000468E-03   9.79810812E-11   9.97990504E-11   9.80334744E-11   9.80524234E-11   4.99974511E-02   4.99991752E-02   6.50240994E-02   7.17731493E-02   1.70944772E-02   0.00000000E+00   9.96305386E-11   1.00043192E-10   9.98868982E-11   1.00439498E-10   9.98611570E-04   6.52189607E-02   6.45931908E-02   0.00000000E+00   8.19256735E-03   8.50753459E-11   9.29173920E-11   9.47628285E-11   1.00383155E-10   9.99994386E-05   1.00000235E-04   9.96591250E-05   9.99997336E-05   8.15250890E-04   9.99979167E-05   9.99999260E-05   9.96671974E-04   9.99999346E-05   1.00000023E-04
   3.41250000E+02   5.00000000E-01   5.00000000E-01   1.07619809E-01   1.09239874E-01   8.65794289E-11   4.74625092E-11   4.67428650E-11   1.96983631E-04   2.68380953E-13   1.24372439E-10   5.75368695E-09   2.46789794E-10   3.29815430E-03   9.79814498E-11   9.97990142E-11   9.80350746E-11   9.80534860E-11   4.99974521E-02   4.99992326E-02   6.50240994E-02   7.17400358E-02   1.71398249E-02   0.00000000E+00   9.96326043E-11   1.00041849E-10   9.98953198E-11   1.00441882E-10   9.98611546E-04   6.52302270E-02   6.45931908E-02   0.00000000E+00   8.19256735E-03   8.50753875E-11   9.29173920E-11   9.47628285E-11   1.00380965E-10   9.99994355E-05   1.00000230E-04   9.96499576E-05   9.99997328E-05   8.15250890E-04   9.99979167E-05   9.99999260E-05   9.96672146E-04   9.99999346E-05   1.00000023E-04
   3.58750000E+02   5.00000000E-01   5.00000000E-01   1.07619809E-01   1.09250178E-01   8.65794376E-11   4.75563215E-11   4.68328194E-11   1.96983630E-04   2.68419662E-13   1.24726714E-10   5.31795960E-09   2.49488793E-10   3.25539495E-03   9.79818090E-11   9.97989672E-11   9.80366301E-11   9.80544098E-11   4.99974531E-02   4.99992879E-02   6.50240994E-02   7.17034629E-02   1.71890528E-02   0.00000000E+00   9.96345842E-11   1.00040418E-10   9.99033756E-11   1.00442978E-10   9.98611511E-04   6.52399127E-02   6.45931908E-02   0.00000000E+00   8.19256735E-03   8.50754252E-11   9.29173920E-11   9.47628285E-11   1.00378552E-10   9.99994320E-05   1.00000225E-04   9.96409390E-05   9.99997320E-05   8.15250890E-04   9.99979167E-05   9.99999260E-05   9.96672321E-04   9.99999346E-05   1.00000023E-04
   3.76250000E+02   5.00000000E-01   5.00000000E-01   1.07619810E-01   1.09260535E-01   8.65794469E-11   4.76592680E-11   4.69308154E-11   1.96983630E-04   2.68460525E-13   1.25053604E-10   4.91443199E-09   2.52022068E-10   3.21181173E-03   9.79821582E-11   9.97989101E-11   9.80381384E-11   9.80551986E-11   4.99974541E-02   4.99993412E-02   6.50240994E-02   7.16639730E-02   1.72415667E-02   0.00000000E+00   9.96364783E-11   1.00038914E-10   9.99110653E-11   1.00442869E-10   9.98611466E-04   6.52482604E-02   6.45931908E-02   0.00000000E+00   8.19256736E-03   8.50754592E-11   9.29173920E-11   9.47628285E-11   1.00375955E-10   9.99994284E-05   1.00000218E-04   9.96320738E-05   9.99997313E-05   8.15250890E-04   9.99979167E-05   9.99999260E-05   9.96672499E-04   9.99999346E-05   1.00000023E-04
   3.93750000E+02   5.00000000E-01   5.00000000E-01   1.07619810E-01   1.09270938E-01   8.65794567E-11   4.77721385E-11   4.70375848E-11   1.96983630E-04   2.68503679E-13   1.25357766E-10   4.54250086E-09   2.54420260E-10   3.16742494E-03   9.79824965E-11   9.97988437E-11   9.80395952E-11   9.80558525E-11   4.99974552E-02   4.99993926E-02   6.50240994E-02   7.16220075E-02   1.72968955E-02   0.00000000E+00   9.96382843E-11   1.00037344E-10   9.99183795E-11   1.00441607E-10   9.98611411E-04   6.52554890E-02   6.45931908E-02   0.00000000E+00   8.19256736E-03   8.50754896E-11   9.29173920E-11   9.47628285E-11   1.00373203E-10   9.99994245E-05   1.00000211E-04   9.96233674E-05   9.99997307E-05   8.15250890E-04   9.99979167E-05   9.99999260E-05   9.96672680E-04   9.99999346E-05   1.00000023E-04
   4.11250000E+02   5.00000000E-01   5.00000000E-01   1.07619810E-01   1.09281381E-01   8.65794671E-11   4.78959394E-11   4.71540477E-11   1.96983629E-04   2.68549266E-13   1.25643205E-10   4.20084825E-09   2.56709738E-10   3.12223735E-03   9.79828228E-11   9.97987682E-11   9.80409955E-11   9.80563707E-11   4.99974563E-02   4.99994421E-02   6.50240994E-02   7.15779468E-02   1.73546361E-02   0.00000000E+00   9.96399994E-11   1.00035718E-10   9.99253070E-11   1.00439241E-10   9.98611347E-04   6.52617903E-02   6.45931908E-02   0.00000000E+00   8.19256736E-03   8.50755163E-11   9.29173920E-11   9.47628285E-11   1.00370323E-10   9.99994204E-05   1.00000204E-04   9.96148252E-05   9.99997301E-05   8.15250890E-04   9.99979167E-05   9.99999260E-05   9.96672865E-04   9.99999346E-05   1.00000023E-04
   4.28750000E+02   5.00000000E-01   5.00000000E-01   1.07619810E-01   1.09291859E-01   8.65794781E-11   4.80318515E-11   4.72812796E-11   1.96983629E-04   2.68597441E-13   1.25913359E-10   3.88774815E-09   2.58913147E-10   3.07624727E-03   9.79831358E-11   9.97986842E-11   9.80423347E-11   9.80567535E-11   4.99974575E-02   4.99994900E-02   6.50240994E-02   7.15321321E-02   1.74144287E-02   0.00000000E+00   9.96416213E-11   1.00034043E-10   9.99318379E-11   1.00435817E-10   9.98611273E-04   6.52673300E-02   6.45931908E-02   1.51339592E-29   8.19256737E-03   8.50755394E-11   9.29173920E-11   9.47628285E-11   1.00367336E-10   9.99994162E-05   1.00000196E-04   9.96064527E-05   9.99997295E-05   8.15250890E-04   9.99979167E-05   9.99999261E-05   9.96673054E-04   9.99999346E-05   1.00000023E-04
   4.46250000E+02   5.00000000E-01   5.00000000E-01   1.07619810E-01   1.09302368E-01   8.65794897E-11   4.81811991E-11   4.74204884E-11   1.96983629E-04   2.68648368E-13   1.26171151E-10   3.60126007E-09   2.61049705E-10   3.02944077E-03   9.79834347E-11   9.97985921E-11   9.80436084E-11   9.80570014E-11   4.99974587E-02   4.99995361E-02   6.50240994E-02   7.14848726E-02   1.74759502E-02   0.00000000E+00   9.96431481E-11   1.00032327E-10   9.99379649E-11   1.00431389E-10   9.98611192E-04   6.52722524E-02   6.45931908E-02   0.00000000E+00   8.19256737E-03   8.50755589E-11   9.29173920E-11   9.47628285E-11   1.00364262E-10   9.99994119E-05   1.00000187E-04   9.95982552E-05   9.99997290E-05   8.15250890E-04   9.99979167E-05   9.99999261E-05   9.96673246E-04   9.99999346E-05   1.00000023E-04
   4.63750000E+02   5.00000000E-01   5.00000000E-01   1.07619811E-01   1.09312902E-01   8.65795019E-11   4.83454332E-11   4.75730021E-11   1.96983628E-04   2.68702220E-13   1.26419006E-10   3.33934861E-09   2.63135211E-10   2.98177948E-03   9.79837185E-11   9.97984924E-11   9.80448124E-11   9.80571156E-11   4.99974599E-02   4.99995808E-02   6.50240994E-02   7.14364469E-02   1.75389153E-02   0.00000000E+00   9.96445783E-11   1.00030576E-10   9.99436818E-11   1.00426007E-10   9.98611103E-04   6.52766850E-02   6.45931908E-02   1.10285846E-15   8.19256738E-03   8.50755749E-11   9.29173920E-11   9.47628285E-11   1.00361117E-10   9.99994074E-05   1.00000178E-04   9.95902378E-05   9.99997286E-05   8.15250890E-04   9.99979167E-05   9.99999261E-05   9.96673443E-04   9.99999346E-05   1.00000023E-04
   4.81250000E+02   5.00000000E-01   5.00000000E-01   1.07619811E-01   1.09323455E-01   8.65795149E-11   4.85261278E-11   4.77402668E-11   1.96983628E-04   2.68759181E-13   1.26658844E-10   3.09996224E-09   2.65181861E-10   2.93319726E-03   9.79839861E-11   9.97983857E-11   9.80459423E-11   9.80570969E-11   4.99974612E-02   4.99996238E-02   6.50240994E-02   7.13871040E-02   1.76030776E-02   0.00000000E+00   9.96459105E-11   1.00028798E-10   9.99489829E-11   1.00419722E-10   9.98611006E-04   6.52807403E-02   6.45931908E-02   6.87933638E-15   8.19256738E-03   8.50755874E-11   9.29173920E-11   9.47628285E-11   1.00357914E-10   9.99994028E-05   1.00000169E-04   9.95824054E-05   9.99997281E-05   8.15250890E-04   9.99979167E-05   9.99999261E-05   9.96673644E-04   9.99999346E-05   1.00000023E-04
   4.98750000E+02   5.00000000E-01   5.00000000E-01   1.07619811E-01   1.09334021E-01   8.65795286E-11   4.87249908E-11   4.79238577E-11   1.96983627E-04   2.68819448E-13   1.26892078E-10   2.88109342E-09   2.67198124E-10   2.88361076E-03   9.79842364E-11   9.97982722E-11   9.80469935E-11   9.80569458E-11   4.99974625E-02   4.99996655E-02   6.50240994E-02   7.13370655E-02   1.76682233E-02   0.00000000E+00   9.96471432E-11   1.00026999E-10   9.99538627E-11   1.00412580E-10   9.98610902E-04   6.52845150E-02   6.45931908E-02   1.56312327E-14   8.19256738E-03   8.50755964E-11   9.29173920E-11   9.47628285E-11   1.00354666E-10   9.99993982E-05   1.00000159E-04   9.95747627E-05   9.99997277E-05   8.15250890E-04   9.99979167E-05   9.99999261E-05   9.96673849E-04   9.99999346E-05   1.00000023E-04
   5.16250000E+02   5.00000000E-01   5.00000000E-01   1.07619812E-01   1.09344591E-01   8.65795431E-11   4.89438896E-11   4.81255020E-11   1.96983627E-04   2.68883232E-13   1.27119645E-10   2.68082921E-09   2.69188907E-10   2.83294031E-03   9.79844686E-11   9.97981523E-11   9.80479619E-11   9.80566637E-11   4.99974638E-02   4.99997057E-02   6.50240994E-02   7.12865324E-02   1.77341602E-02   0.00000000E+00   9.96482754E-11   1.00025183E-10   9.99583174E-11   1.00404630E-10   9.98610791E-04   6.52880864E-02   6.45931908E-02   2.87169681E-14   8.19256739E-03   8.50756020E-11   9.29173920E-11   9.47628285E-11   1.00351382E-10   9.99993935E-05   1.00000148E-04   9.95673140E-05   9.99997274E-05   8.15250890E-04   9.99979167E-05   9.99999261E-05   9.96674059E-04   9.99999346E-05   1.00000023E-04
   5.33750000E+02   5.00000000E-01   5.00000000E-01   1.07619812E-01   1.09355157E-01   8.65795583E-11   4.91848914E-11   4.83471148E-11   1.96983626E-04   2.68950760E-13   1.27342084E-10   2.49739231E-09   2.71156145E-10   2.78113196E-03   9.79846818E-11   9.97980267E-11   9.80488441E-11   9.80562532E-11   4.99974652E-02   4.99997446E-02   6.50240994E-02   7.12356916E-02   1.78007037E-02   0.00000000E+00   9.96493071E-11   1.00023357E-10   9.99623474E-11   1.00395927E-10   9.98610674E-04   6.52915086E-02   6.45931908E-02   4.81177740E-14   8.19256739E-03   8.50756042E-11   9.29173920E-11   9.47628285E-11   1.00348073E-10   9.99993888E-05   1.00000138E-04   9.95600636E-05   9.99997271E-05   8.15250890E-04   9.99979167E-05   9.99999261E-05   9.96674274E-04   9.99999346E-05   1.00000023E-04
   5.51250000E+02   5.00000000E-01   5.00000000E-01   1.07619812E-01   1.09365709E-01   8.65795745E-11   4.94503163E-11   4.85908466E-11   1.96983625E-04   2.69022275E-13   1.27559648E-10   2.32916804E-09   2.73099712E-10   2.72817051E-03   9.79848756E-11   9.97978959E-11   9.80496388E-11   9.80557193E-11   4.99974667E-02   4.99997821E-02   6.50240994E-02   7.11847224E-02   1.78676683E-02   0.00000000E+00   9.96502398E-11   1.00021527E-10   9.99659594E-11   1.00386535E-10   9.98610551E-04   6.52948110E-02   6.45931908E-02   7.67337074E-14   8.19256740E-03   8.50756031E-11   9.29173920E-11   9.47628285E-11   1.00344746E-10   9.99993840E-05   1.00000127E-04   9.95530154E-05   9.99997268E-05   8.15250890E-04   9.99979167E-05   9.99999261E-05   9.96674493E-04   9.99999346E-05   1.00000023E-04
   5.68750000E+02   5.00000000E-01   5.00000000E-01   1.07619813E-01   1.09376239E-01   8.65795916E-11   4.97427982E-11   4.88591380E-11   1.96983625E-04   2.69098039E-13   1.27772432E-10   2.17471350E-09   2.75018448E-10   2.67407748E-03   9.79850501E-11   9.97977608E-11   9.80503463E-11   9.80550696E-11   4.99974682E-02   4.99998183E-02   6.50240994E-02   7.11337993E-02   1.79348644E-02   0.00000000E+00   9.96510768E-11   1.00019700E-10   9.99691672E-11   1.00376528E-10   9.98610423E-04   6.52980013E-02   6.45931908E-02   1.18826993E-13   8.19256741E-03   8.50755989E-11   9.29173920E-11   9.47628285E-11   1.00341409E-10   9.99993792E-05   1.00000116E-04   9.95461732E-05   9.99997265E-05   8.15250890E-04   9.99979167E-05   9.99999261E-05   9.96674717E-04   9.99999346E-05   1.00000023E-04
   5.86250000E+02   5.00000000E-01   5.00000000E-01   1.07619813E-01   1.09386737E-01   8.65796097E-11   5.00653503E-11   4.91547789E-11   1.96983624E-04   2.69178333E-13   1.27980471E-10   2.03274902E-09   2.76910942E-10   2.61889484E-03   9.79852057E-11   9.97976221E-11   9.80509689E-11   9.80543137E-11   4.99974697E-02   4.99998533E-02   6.50240994E-02   7.10830900E-02   1.80021044E-02   0.00000000E+00   9.96518228E-11   1.00017882E-10   9.99719910E-11   1.00365987E-10   9.98610291E-04   6.53010707E-02   6.45931908E-02   1.80689702E-13   8.19256741E-03   8.50755919E-11   9.29173920E-11   9.47628285E-11   1.00338066E-10   9.99993744E-05   1.00000105E-04   9.95395404E-05   9.99997263E-05   8.15250890E-04   9.99979167E-05   9.99999262E-05   9.96674947E-04   9.99999346E-05   1.00000023E-04
   6.03750000E+02   5.00000000E-01   5.00000000E-01   1.07619814E-01   1.09397192E-01   8.65796288E-11   5.04214322E-11   4.94809712E-11   1.96983624E-04   2.69263464E-13   1.28183789E-10   1.90213673E-09   2.78775855E-10   2.56266167E-03   9.79853431E-11   9.97974807E-11   9.80515097E-11   9.80534616E-11   4.99974713E-02   4.99998870E-02   6.50240994E-02   7.10327513E-02   1.80692127E-02   0.00000000E+00   9.96524835E-11   1.00016079E-10   9.99744551E-11   1.00354997E-10   9.98610156E-04   6.53040034E-02   6.45931908E-02   2.71655043E-13   8.19256742E-03   8.50755822E-11   9.29173920E-11   9.47628285E-11   1.00334725E-10   9.99993696E-05   1.00000094E-04   9.95331204E-05   9.99997260E-05   8.15250890E-04   9.99979167E-05   9.99999262E-05   9.96675182E-04   9.99999346E-05   1.00000023E-04
   6.21250000E+02   5.00000000E-01   5.00000000E-01   1.07619815E-01   1.09407591E-01   8.65796491E-11   5.08150208E-11   4.98413937E-11   1.96983623E-04   2.69353762E-13   1.28382380E-10   1.78185416E-09   2.80611698E-10   2.50539362E-03   9.79854630E-11   9.97973373E-11   9.80519720E-11   9.80525231E-11   4.99974729E-02   4.99999194E-02   6.50240994E-02   7.09829237E-02   1.81360372E-02   0.00000000E+00   9.96530648E-11   1.00014297E-10   9.99765843E-11   1.00343636E-10   9.98610018E-04   6.53067831E-02   6.45931908E-02   4.05638201E-13   8.19256742E-03   8.50755701E-11   9.29173920E-11   9.47628285E-11   1.00331389E-10   9.99993648E-05   1.00000082E-04   9.95269163E-05   9.99997259E-05   8.15250890E-04   9.99979167E-05   9.99999262E-05   9.96675422E-04   9.99999346E-05   1.00000023E-04