 TITLE = "Mineral Volumes" 
VARIABLES = "X"          "Y"              "Z"            "Forsterite"     "Fayalite"       "Saponite(Mg)"   "Enstatite(alph" "Ferrosilite(al" "Anorthite"      "Albite(low)"    "Clinochlore"    "Sudoite"        "Montmorillonit" "Kaolinite"      "Tremolite"      "Pargasite"      "Anhydrite"      "Epidote"        "Scolecite"      "Pyrite"         "FeS(am)"        "Quartz(alpha)" 
 ZONE I=         100 , J=           1 , K=           1  F=POINT
   1.75000000E+01   5.00000000E-01   5.00000000E-01   1.08786260E-01   1.08320043E-01   4.14892676E-03   4.99995058E-02   4.99996239E-02   6.90163120E-02   6.83609368E-02   4.46959298E-03   7.79896205E-12   4.52491107E-11   7.63559520E-04   6.89594798E-02   6.89284835E-02   3.74342617E-11   9.99999994E-04   9.96911489E-04   8.68104187E-11   9.01669929E-11   1.00017544E-10
   5.25000000E+01   5.00000000E-01   5.00000000E-01   1.08786260E-01   1.08464182E-01   4.20141840E-03   4.99995058E-02   4.99996903E-02   6.90163120E-02   6.88507513E-02   3.93655023E-03   4.13806029E-12   5.17565971E-11   7.64312456E-04   6.89594217E-02   6.89284835E-02   3.77936310E-11   1.00000000E-03   9.96911662E-04   8.68104187E-11   9.01691792E-11   1.00019852E-10
   8.75000000E+01   5.00000000E-01   5.00000000E-01   1.08786260E-01   1.08650823E-01   3.99766165E-03   4.99995058E-02   4.99997458E-02   6.90163120E-02   6.90519989E-02   3.77564609E-03   3.38110469E-12   5.62489692E-11   7.64839264E-04   6.89592124E-02   6.89284835E-02   3.81965780E-11   1.00000000E-03   9.96911786E-04   8.68104187E-11   9.01708499E-11   1.00020151E-10
   1.22500000E+02   5.00000000E-01   5.00000000E-01   1.08786260E-01   1.08840740E-01   3.72992973E-03   4.99995059E-02   4.99997896E-02   6.90163120E-02   6.91962310E-02   3.69155060E-03   3.24327451E-12   6.07909557E-11   7.65380556E-04   6.89591092E-02   6.89284835E-02   3.86487155E-11   1.00000000E-03   9.96911915E-04   8.68104187E-11   9.01719229E-11   1.00020127E-10
   1.57500000E+02   5.00000000E-01   5.00000000E-01   1.08786260E-01   1.09011071E-01   3.48075504E-03   4.99995059E-02   4.99998229E-02   6.90163120E-02   6.93207522E-02   3.62331922E-03   3.27464769E-12   6.59618574E-11   7.65991563E-04   6.89591157E-02   6.89284835E-02   3.91561591E-11   1.00000000E-03   9.96912061E-04   8.68104187E-11   9.01724797E-11   1.00019996E-10
   1.92500000E+02   5.00000000E-01   5.00000000E-01   1.08786260E-01   1.09153888E-01   3.27053167E-03   4.99995059E-02   4.99998476E-02   6.90163120E-02   6.94253548E-02   3.56588977E-03   3.36784327E-12   7.17360824E-11   7.66668191E-04   6.89590768E-02   6.89284835E-02   3.97257143E-11   1.00000000E-03   9.96912224E-04   8.68104187E-11   9.01726453E-11   1.00019779E-10
   2.27500000E+02   5.00000000E-01   5.00000000E-01   1.08786260E-01   1.09269039E-01   3.10101313E-03   4.99995060E-02   4.99998656E-02   6.90163120E-02   6.95086472E-02   3.52030158E-03   3.49590725E-12   7.79938235E-11   7.67399196E-04   6.89589545E-02   6.89284835E-02   4.03650565E-11   1.00000000E-03   9.96912399E-04   8.68104187E-11   9.01725335E-11   1.00019490E-10
   2.62500000E+02   5.00000000E-01   5.00000000E-01   1.08786260E-01   1.09359640E-01   2.96769995E-03   4.99995060E-02   4.99998784E-02   6.90163120E-02   6.95717451E-02   3.48656074E-03   3.65355938E-12   8.46352870E-11   7.68176297E-04   6.89589044E-02   6.89284835E-02   4.10829156E-11   1.00000000E-03   9.96912585E-04   8.68104187E-11   9.01722342E-11   1.00019146E-10
   2.97500000E+02   5.00000000E-01   5.00000000E-01   1.08786260E-01   1.09429740E-01   2.86487510E-03   4.99995061E-02   4.99998872E-02   6.90163120E-02   6.96172298E-02   3.46343118E-03   3.84241540E-12   9.15998448E-11   7.68995597E-04   6.89589187E-02   6.89284835E-02   4.18892983E-11   9.99999999E-04   9.96912782E-04   8.68104187E-11   9.01718148E-11   1.00018760E-10
   3.32500000E+02   5.00000000E-01   5.00000000E-01   1.08786260E-01   1.09483332E-01   2.78682713E-03   4.99995061E-02   4.99998930E-02   6.90163121E-02   6.96480653E-02   3.44926480E-03   4.06706911E-12   9.88586699E-11   7.69856144E-04   6.89589296E-02   6.89284835E-02   4.27957410E-11   9.99999999E-04   9.96912989E-04   8.68104187E-11   9.01713245E-11   1.00018347E-10
   3.67500000E+02   5.00000000E-01   5.00000000E-01   1.08786260E-01   1.09523952E-01   2.72819278E-03   4.99995062E-02   4.99998966E-02   6.90163121E-02   6.96670776E-02   3.44246560E-03   4.33413858E-12   1.06406069E-10   7.70758533E-04   6.89589904E-02   6.89284835E-02   4.38155966E-11   9.99999999E-04   9.96913206E-04   8.68104187E-11   9.01707983E-11   1.00017916E-10
   4.02500000E+02   5.00000000E-01   5.00000000E-01   1.08786260E-01   1.09554505E-01   2.68463305E-03   4.99995062E-02   4.99998986E-02   6.90163121E-02   6.96767701E-02   3.44150985E-03   4.65253350E-12   1.14256237E-10   7.71704789E-04   6.89591063E-02   6.89284835E-02   4.49643927E-11   9.99999999E-04   9.96913435E-04   8.68104187E-11   9.01702606E-11   1.00017476E-10
   4.37500000E+02   5.00000000E-01   5.00000000E-01   1.08786260E-01   1.09577299E-01   2.65265577E-03   4.99995063E-02   4.99998994E-02   6.90163121E-02   6.96792489E-02   3.44507198E-03   5.03394195E-12   1.22437766E-10   7.72697760E-04   6.89592586E-02   6.89284835E-02   4.62602695E-11   9.99999999E-04   9.96913675E-04   8.68104187E-11   9.01697285E-11   1.00017032E-10
   4.72500000E+02   5.00000000E-01   5.00000000E-01   1.08786260E-01   1.09594129E-01   2.62945449E-03   4.99995063E-02   4.99998992E-02   6.90163121E-02   6.96762508E-02   3.45203774E-03   5.49365383E-12   1.30991264E-10   7.73740818E-04   6.89594405E-02   6.89284835E-02   4.77245168E-11   9.99999998E-04   9.96913928E-04   8.68104187E-11   9.01692130E-11   1.00016589E-10
   5.07500000E+02   5.00000000E-01   5.00000000E-01   1.08786260E-01   1.09606365E-01   2.61283197E-03   4.99995064E-02   4.99998984E-02   6.90163121E-02   6.96691998E-02   3.46146434E-03   6.05184999E-12   1.39969226E-10   7.74837838E-04   6.89596460E-02   6.89284835E-02   4.93822420E-11   9.99999998E-04   9.96914195E-04   8.68104187E-11   9.01687216E-11   1.00016150E-10
   5.42500000E+02   5.00000000E-01   5.00000000E-01   1.08786260E-01   1.09615033E-01   2.60107788E-03   4.99995065E-02   4.99998970E-02   6.90163121E-02   6.96592591E-02   3.47255698E-03   6.73543334E-12   1.49436228E-10   7.75993172E-04   6.89598688E-02   6.89284835E-02   5.12632060E-11   9.99999997E-04   9.96914478E-04   8.68104187E-11   9.01682586E-11   1.00015718E-10
   5.77500000E+02   5.00000000E-01   5.00000000E-01   1.08786261E-01   1.09620895E-01   2.59286544E-03   4.99995066E-02   4.99998953E-02   6.90163122E-02   6.96473769E-02   3.48464799E-03   7.58067516E-12   1.59469452E-10   7.77211634E-04   6.89601040E-02   6.89284835E-02   5.34028733E-11   9.99999997E-04   9.96914778E-04   8.68104187E-11   9.01678264E-11   1.00015294E-10
   6.12500000E+02   5.00000000E-01   5.00000000E-01   1.08786261E-01   1.09624511E-01   2.58717197E-03   4.99995066E-02   4.99998933E-02   6.90163122E-02   6.96343204E-02   3.49718063E-03   8.63707007E-12   1.70159049E-10   7.78498459E-04   6.89603482E-02   6.89284835E-02   5.58437413E-11   9.99999995E-04   9.96915097E-04   8.68104187E-11   9.01674261E-11   1.00014881E-10
   6.47500000E+02   5.00000000E-01   5.00000000E-01   1.08786261E-01   1.09626291E-01   2.58321834E-03   4.99995067E-02   4.99998910E-02   6.90163123E-02   6.96207016E-02   3.50969860E-03   9.97299922E-12   1.81607906E-10   7.79859221E-04   6.89605996E-02   6.89284835E-02   5.86370341E-11   9.99999993E-04   9.96915436E-04   8.68104187E-11   9.01670575E-11   1.00014478E-10
   6.82500000E+02   5.00000000E-01   5.00000000E-01   1.08786262E-01   1.09626531E-01   2.58042356E-03   4.99995068E-02   4.99998886E-02   6.90163124E-02   6.96069946E-02   3.52183946E-03   1.16841367E-11   1.93930536E-10   7.81299679E-04   6.89608573E-02   6.89284835E-02   6.18448728E-11   9.99999991E-04   9.96915797E-04   8.68104187E-11   9.01667199E-11   1.00014087E-10
   7.17500000E+02   5.00000000E-01   5.00000000E-01   1.08786263E-01   1.09625447E-01   2.57837039E-03   4.99995069E-02   4.99998861E-02   6.90163125E-02   6.95935487E-02   3.53333007E-03   1.39060651E-11   2.07250865E-10   7.82825570E-04   6.89611214E-02   6.89284835E-02   6.55430790E-11   9.99999987E-04   9.96916183E-04   8.68104187E-11   9.01664121E-11   1.00013708E-10
   7.52500000E+02   5.00000000E-01   5.00000000E-01   1.08786265E-01   1.09623198E-01   2.57677897E-03   4.99995070E-02   4.99998835E-02   6.90163126E-02   6.95806000E-02   3.54398203E-03   1.68334208E-11   2.21698790E-10   7.84442348E-04   6.89613926E-02   6.89284835E-02   6.98248196E-11   9.99999981E-04   9.96916595E-04   8.68104187E-11   9.01661326E-11   1.00013342E-10
   7.87500000E+02   5.00000000E-01   5.00000000E-01   1.08786267E-01   1.09619901E-01   2.57548572E-03   4.99995071E-02   4.99998808E-02   6.90163128E-02   6.95682824E-02   3.55368575E-03   2.07492705E-11   2.37405442E-10   7.86154882E-04   6.89616709E-02   6.89284835E-02   7.48053840E-11   9.99999974E-04   9.96917034E-04   8.68104187E-11   9.01658798E-11   1.00012988E-10
   8.22500000E+02   5.00000000E-01   5.00000000E-01   1.08786270E-01   1.09615649E-01   2.57442527E-03   4.99995072E-02   4.99998780E-02   6.90163130E-02   6.95566406E-02   3.56240261E-03   2.60706710E-11   2.54497203E-10   7.87967158E-04   6.89619551E-02   6.89284835E-02   8.06284929E-11   9.99999962E-04   9.96917503E-04   8.68104187E-11   9.01656518E-11   1.00012646E-10
   8.57500000E+02   5.00000000E-01   5.00000000E-01   1.08786275E-01   1.09610518E-01   2.57361164E-03   4.99995073E-02   4.99998751E-02   6.90163133E-02   6.95456437E-02   3.57015549E-03   3.34200224E-11   2.73088572E-10   7.89881974E-04   6.89622415E-02   6.89284835E-02   8.74747003E-11   9.99999946E-04   9.96918003E-04   8.68104187E-11   9.01654468E-11   1.00012316E-10
   8.92500000E+02   5.00000000E-01   5.00000000E-01   1.08786282E-01   1.09604571E-01   2.57311565E-03   4.99995074E-02   4.99998722E-02   6.90163136E-02   6.95352011E-02   3.57701890E-03   4.37377956E-11   2.93274129E-10   7.91900683E-04   6.89625256E-02   6.89284835E-02   9.55726777E-11   9.99999925E-04   9.96918536E-04   8.68104187E-11   9.01652629E-11   1.00011998E-10
   9.27500000E+02   5.00000000E-01   5.00000000E-01   1.08786292E-01   1.09597867E-01   2.57303852E-03   4.99995075E-02   4.99998693E-02   6.90163140E-02   6.95251788E-02   3.58310892E-03   5.84619972E-11   3.15119964E-10   7.94022968E-04   6.89628056E-02   6.89284835E-02   1.05214504E-10   9.99999895E-04   9.96919101E-04   8.68104187E-11   9.01650985E-11   1.00011689E-10
   9.62500000E+02   5.00000000E-01   5.00000000E-01   1.08786308E-01   1.09590462E-01   2.57348742E-03   4.99995076E-02   4.99998663E-02   6.90163146E-02   6.95154156E-02   3.58857235E-03   7.98158457E-11   3.38655216E-10   7.96246705E-04   6.89630869E-02   6.89284835E-02   1.16776579E-10   9.99999857E-04   9.96919699E-04   8.68104187E-11   9.01649517E-11   1.00011391E-10
   9.97500000E+02   5.00000000E-01   5.00000000E-01   1.08786331E-01   1.09582409E-01   2.57456519E-03   4.99995078E-02   4.99998632E-02   6.90163153E-02   6.95057395E-02   3.59357262E-03   1.11272067E-10   3.63864651E-10   7.98567950E-04   6.89633810E-02   6.89284835E-02   1.30748501E-10   9.99999809E-04   9.96920332E-04   8.68104187E-11   9.01648209E-11   1.00011103E-10
   1.03250000E+03   5.00000000E-01   5.00000000E-01   1.08786364E-01   1.09573756E-01   2.57638762E-03   4.99995079E-02   4.99998602E-02   6.90163161E-02   6.94959821E-02   3.59826966E-03   1.58307891E-10   3.90683411E-10   8.00981103E-04   6.89636929E-02   6.89284835E-02   1.47773382E-10   9.99999749E-04   9.96920998E-04   8.68104187E-11   9.01647047E-11   1.00010823E-10
   1.06750000E+03   5.00000000E-01   5.00000000E-01   1.08786413E-01   1.09564544E-01   2.57910030E-03   4.99995081E-02   4.99998571E-02   6.90163171E-02   6.94859890E-02   3.60280340E-03   2.29638544E-10   4.18993653E-10   8.03479162E-04   6.89640061E-02   6.89284835E-02   1.68704719E-10   9.99999678E-04   9.96921698E-04   8.68104187E-11   9.01646014E-11   1.00010552E-10
   1.10250000E+03   5.00000000E-01   5.00000000E-01   1.08786484E-01   1.09554811E-01   2.58283672E-03   4.99995082E-02   4.99998539E-02   6.90163184E-02   6.94756265E-02   3.60729823E-03   3.39227823E-10   4.48621083E-10   8.06053788E-04   6.89642941E-02   6.89284835E-02   1.94687524E-10   9.99999596E-04   9.96922430E-04   8.68104187E-11   9.01645099E-11   1.00010288E-10
   1.13750000E+03   5.00000000E-01   5.00000000E-01   1.08786587E-01   1.09544599E-01   2.58764866E-03   4.99995084E-02   4.99998508E-02   6.90163200E-02   6.94647847E-02   3.61187739E-03   5.09551702E-10   4.79332661E-10   8.08695226E-04   6.89645500E-02   6.89284835E-02   2.27275326E-10   9.99999505E-04   9.96923195E-04   8.68104187E-11   9.01644289E-11   1.00010031E-10
   1.17250000E+03   5.00000000E-01   5.00000000E-01   1.08786735E-01   1.09533959E-01   2.59347754E-03   4.99995086E-02   4.99998476E-02   6.90163219E-02   6.94533817E-02   3.61666617E-03   7.76879046E-10   5.10838980E-10   8.11392387E-04   6.89648064E-02   6.89284835E-02   2.68600967E-10   9.99999407E-04   9.96923991E-04   8.68104187E-11   9.01643572E-11   1.00009781E-10
   1.20750000E+03   5.00000000E-01   5.00000000E-01   1.08786942E-01   1.09522941E-01   2.60021721E-03   4.99995088E-02   4.99998444E-02   6.90163243E-02   6.94413674E-02   3.62176979E-03   1.19982282E-09   5.42804558E-10   8.14133371E-04   6.89651130E-02   6.89284835E-02   3.21629117E-10   9.99999305E-04   9.96924818E-04   8.68104187E-11   9.01642938E-11   1.00009537E-10
   1.24250000E+03   5.00000000E-01   5.00000000E-01   1.08787225E-01   1.09511577E-01   2.60789012E-03   4.99995090E-02   4.99998412E-02   6.90163272E-02   6.94287289E-02   3.62722052E-03   1.87332988E-09   5.74868153E-10   8.16906651E-04   6.89654543E-02   6.89284835E-02   3.90534849E-10   9.99999203E-04   9.96925675E-04   8.68104187E-11   9.01642378E-11   1.00009299E-10
   1.27750000E+03   5.00000000E-01   5.00000000E-01   1.08787603E-01   1.09499886E-01   2.61664696E-03   4.99995092E-02   4.99998380E-02   6.90163307E-02   6.94154816E-02   3.63298544E-03   2.95131917E-09   6.06652394E-10   8.19701341E-04   6.89657327E-02   6.89284835E-02   4.81278974E-10   9.99999105E-04   9.96926560E-04   8.68104187E-11   9.01641884E-11   1.00009067E-10
   1.31250000E+03   5.00000000E-01   5.00000000E-01   1.08788097E-01   1.09487906E-01   2.62650997E-03   4.99995094E-02   4.99998347E-02   6.90163349E-02   6.94016539E-02   3.63905269E-03   4.68210329E-09   6.37754826E-10   8.22505849E-04   6.89658785E-02   6.89284835E-02   6.02494124E-10   9.99999019E-04   9.96927475E-04   8.68104187E-11   9.01641448E-11   1.00008841E-10
   1.34750000E+03   5.00000000E-01   5.00000000E-01   1.08788728E-01   1.09475710E-01   2.63718964E-03   4.99995097E-02   4.99998315E-02   6.90163400E-02   6.93872818E-02   3.64548668E-03   7.46229802E-09   6.67747060E-10   8.25306802E-04   6.89659567E-02   6.89284835E-02   7.66868800E-10   9.99998953E-04   9.96928417E-04   8.68104187E-11   9.01641063E-11   1.00008620E-10
   1.38250000E+03   5.00000000E-01   5.00000000E-01   1.08789503E-01   1.09463431E-01   2.64781661E-03   4.99995099E-02   4.99998283E-02   6.90163462E-02   6.93724024E-02   3.65250837E-03   1.19128877E-08   6.96166492E-10   8.28087201E-04   6.89663136E-02   6.89284835E-02   9.93339534E-10   9.99998917E-04   9.96929386E-04   8.68104187E-11   9.01640724E-11   1.00008404E-10
   1.41750000E+03   5.00000000E-01   5.00000000E-01   1.08790388E-01   1.09451229E-01   2.65762660E-03   4.99995102E-02   4.99998252E-02   6.90163535E-02   6.93570903E-02   3.66026851E-03   1.89953019E-08   7.22603790E-10   8.30831198E-04   6.89672691E-02   6.89284835E-02   1.31062254E-09   9.99998901E-04   9.96930381E-04   8.68104187E-11   9.01640424E-11   1.00008194E-10
   1.45250000E+03   5.00000000E-01   5.00000000E-01   1.08791333E-01   1.09438993E-01   2.66852123E-03   4.99995105E-02   4.99998221E-02   6.90163623E-02   6.93415529E-02   3.66804072E-03   3.02733779E-08   7.46980033E-10   8.33543593E-04   6.89679828E-02   6.89284835E-02   1.76302940E-09   9.99998872E-04   9.96931405E-04   8.68104187E-11   9.01640160E-11   1.00007989E-10
   1.48750000E+03   5.00000000E-01   5.00000000E-01   1.08792349E-01   1.09426648E-01   2.68111709E-03   4.99995109E-02   4.99998190E-02   6.90163728E-02   6.93258808E-02   3.67557477E-03   4.81850004E-08   7.69052625E-10   8.36219232E-04   6.89681771E-02   6.89284835E-02   2.42013489E-09   9.99998845E-04   9.96932459E-04   8.68104187E-11   9.01639927E-11   1.00007788E-10
   1.52250000E+03   5.00000000E-01   5.00000000E-01   1.08793446E-01   1.09414520E-01   2.69270887E-03   4.99995112E-02   4.99998159E-02   6.90163854E-02   6.93100150E-02   3.68369506E-03   7.61871930E-08   7.88228592E-10   8.38826090E-04   6.89689541E-02   6.89284835E-02   3.39308298E-09   9.99998880E-04   9.96933541E-04   8.68104187E-11   9.01639722E-11   1.00007593E-10
   1.55750000E+03   5.00000000E-01   5.00000000E-01   1.08794577E-01   1.09402925E-01   2.70210722E-03   4.99995116E-02   4.99998129E-02   6.90164002E-02   6.92940525E-02   3.69263403E-03   1.19298513E-07   8.04261645E-10   8.41346665E-04   6.89707122E-02   6.89284835E-02   4.86273321E-09   9.99998937E-04   9.96934650E-04   8.68104187E-11   9.01639541E-11   1.00007403E-10
   1.59250000E+03   5.00000000E-01   5.00000000E-01   1.08795735E-01   1.09391652E-01   2.71279001E-03   4.99995119E-02   4.99998100E-02   6.90164178E-02   6.92783182E-02   3.70107417E-03   1.85770610E-07   8.17586218E-10   8.43806295E-04   6.89719206E-02   6.89284835E-02   7.12930975E-09   9.99998926E-04   9.96935792E-04   8.68104187E-11   9.01639382E-11   1.00007218E-10
   1.62750000E+03   5.00000000E-01   5.00000000E-01   1.08796938E-01   1.09380671E-01   2.72537408E-03   4.99995122E-02   4.99998071E-02   6.90164386E-02   6.92628912E-02   3.70875069E-03   2.87637123E-07   8.28151161E-10   8.46202856E-04   6.89722182E-02   6.89284835E-02   1.07010399E-08   9.99998871E-04   9.96936971E-04   8.68104187E-11   9.01639241E-11   1.00007037E-10
   1.66250000E+03   5.00000000E-01   5.00000000E-01   1.08798150E-01   1.09370389E-01   2.73789202E-03   4.99995126E-02   4.99998044E-02   6.90164633E-02   6.92477288E-02   3.71624147E-03   4.40955356E-07   8.35601529E-10   8.48509781E-04   6.89720946E-02   6.89284835E-02   1.64555370E-08   9.99998735E-04   9.96938186E-04   8.68104187E-11   9.01639117E-11   1.00006859E-10
   1.69750000E+03   5.00000000E-01   5.00000000E-01   1.08799367E-01   1.09360899E-01   2.75012325E-03   4.99995130E-02   4.99998017E-02   6.90164923E-02   6.92329370E-02   3.72345821E-03   6.68527561E-07   8.39986455E-10   8.50720019E-04   6.89717687E-02   6.89284835E-02   2.59395472E-08   9.99998554E-04   9.96939440E-04   8.68104187E-11   9.01639008E-11   1.00006686E-10
   1.73250000E+03   5.00000000E-01   5.00000000E-01   1.08800637E-01   1.09351939E-01   2.76290789E-03   4.99995134E-02   4.99997991E-02   6.90165265E-02   6.92186663E-02   3.72994549E-03   1.00308733E-06   8.41541324E-10   8.52837832E-04   6.89713926E-02   6.89284835E-02   4.19360179E-08   9.99998526E-04   9.96940736E-04   8.68104187E-11   9.01638912E-11   1.00006517E-10
   1.76750000E+03   5.00000000E-01   5.00000000E-01   1.08801957E-01   1.09343634E-01   2.77566651E-03   4.99995138E-02   4.99997966E-02   6.90165668E-02   6.92049646E-02   3.73573824E-03   1.48689091E-06   8.40275956E-10   8.54851840E-04   6.89711171E-02   6.89284835E-02   6.95576090E-08   9.99998667E-04   9.96942079E-04   8.68104187E-11   9.01638827E-11   1.00006350E-10
   1.80250000E+03   5.00000000E-01   5.00000000E-01   1.08803281E-01   1.09336396E-01   2.78719767E-03   4.99995142E-02   4.99997942E-02   6.90166141E-02   6.91918624E-02   3.74104541E-03   2.17121722E-06   8.36173775E-10   8.56744636E-04   6.89710386E-02   6.89284835E-02   1.18395648E-07   9.99998815E-04   9.96943471E-04   8.68104187E-11   9.01638752E-11   1.00006187E-10
   1.83750000E+03   5.00000000E-01   5.00000000E-01   1.08804546E-01   1.09330597E-01   2.79639396E-03   4.99995146E-02   4.99997920E-02   6.90166696E-02   6.91794190E-02   3.74599917E-03   3.11529570E-06   8.29317193E-10   8.58501200E-04   6.89714395E-02   6.89284835E-02   2.06820623E-07   9.99998880E-04   9.96944915E-04   8.68104187E-11   9.01638686E-11   1.00006027E-10
   1.87250000E+03   5.00000000E-01   5.00000000E-01   1.08805687E-01   1.09326482E-01   2.80286379E-03   4.99995150E-02   4.99997900E-02   6.90167347E-02   6.91677430E-02   3.75045540E-03   4.38718705E-06   8.19950666E-10   8.60115744E-04   6.89724903E-02   6.89284835E-02   3.70747417E-07   9.99998898E-04   9.96946416E-04   8.68104187E-11   9.01638627E-11   1.00005872E-10
   1.90750000E+03   5.00000000E-01   5.00000000E-01   1.08806718E-01   1.09324067E-01   2.80833612E-03   4.99995154E-02   4.99997883E-02   6.90168110E-02   6.91570369E-02   3.75351263E-03   6.08173037E-06   8.08609403E-10   8.61606908E-04   6.89735254E-02   6.89284835E-02   6.81833913E-07   9.99998926E-04   9.96947984E-04   8.68104187E-11   9.01638576E-11   1.00005719E-10
   1.94250000E+03   5.00000000E-01   5.00000000E-01   1.08807703E-01   1.09323195E-01   2.81485929E-03   4.99995159E-02   4.99997867E-02   6.90169003E-02   6.91474628E-02   3.75415852E-03   8.32625996E-06   7.95746878E-10   8.62994860E-04   6.89738700E-02   6.89284835E-02   1.28589945E-06   9.99998953E-04   9.96949628E-04   8.68104187E-11   9.01638530E-11   1.00005570E-10
   1.97750000E+03   5.00000000E-01   5.00000000E-01   1.08808672E-01   1.09323729E-01   2.82283725E-03   4.99995163E-02   4.99997852E-02   6.90170051E-02   6.91390567E-02   3.75196958E-03   1.12561439E-05   7.81491521E-10   8.64278242E-04   6.89735990E-02   6.89284835E-02   2.48525218E-06   9.99998990E-04   9.96951354E-04   8.68104187E-11   9.01638490E-11   1.00005423E-10
   2.01250000E+03   5.00000000E-01   5.00000000E-01   1.08809633E-01   1.09325836E-01   2.83128584E-03   4.99995167E-02   4.99997840E-02   6.90171277E-02   6.91317971E-02   3.74701946E-03   1.49849864E-05   7.65823693E-10   8.65440413E-04   6.89730058E-02   6.89284835E-02   4.91742866E-06   9.99999036E-04   9.96953168E-04   8.68104187E-11   9.01638454E-11   1.00005277E-10
   2.04750000E+03   5.00000000E-01   5.00000000E-01   1.08810586E-01   1.09329907E-01   2.83884878E-03   4.99995171E-02   4.99997829E-02   6.90172710E-02   6.91256962E-02   3.73952068E-03   1.95880465E-05   7.48803507E-10   8.66465108E-04   6.89722851E-02   6.89284835E-02   9.94653525E-06   9.99999066E-04   9.96955074E-04   8.68104187E-11   9.01638422E-11   1.00005133E-10
   2.08250000E+03   5.00000000E-01   5.00000000E-01   1.08811528E-01   1.09336266E-01   2.84468686E-03   4.99995176E-02   4.99997821E-02   6.90174385E-02   6.91208433E-02   3.72950316E-03   2.51117685E-05   7.30672543E-10   8.67347888E-04   6.89715327E-02   6.89284835E-02   2.05195637E-05   9.99999070E-04   9.96957079E-04   8.68104187E-11   9.01638394E-11   1.00004991E-10
   2.11750000E+03   5.00000000E-01   5.00000000E-01   1.08812458E-01   1.09345108E-01   2.84837102E-03   4.99995180E-02   4.99997815E-02   6.90176340E-02   6.91173822E-02   3.71685442E-03   3.15814387E-05   7.11781580E-10   8.68094091E-04   6.89707935E-02   6.89284835E-02   4.30041594E-05   9.99999050E-04   9.96959187E-04   8.68104187E-11   9.01638369E-11   1.00004851E-10
   2.15250000E+03   5.00000000E-01   5.00000000E-01   1.08813373E-01   1.09356537E-01   2.84956657E-03   4.99995184E-02   4.99997812E-02   6.90178619E-02   6.91154930E-02   3.70141275E-03   3.90091514E-05   6.92526280E-10   8.68715111E-04   6.89700900E-02   6.89284835E-02   9.08915520E-05   9.99999010E-04   9.96961399E-04   8.68104187E-11   9.01638347E-11   1.00004713E-10
   2.18750000E+03   5.00000000E-01   5.00000000E-01   1.08814273E-01   1.09370567E-01   2.84789961E-03   4.99995189E-02   4.99997812E-02   6.90181263E-02   6.91153980E-02   3.68294229E-03   4.74205200E-05   6.73337805E-10   8.69227966E-04   6.89694342E-02   6.89284835E-02   1.91028886E-04   9.99998951E-04   9.96963701E-04   8.68104187E-11   9.01638327E-11   1.00004578E-10
   2.22250000E+03   5.00000000E-01   5.00000000E-01   1.08815158E-01   1.09387067E-01   2.84297202E-03   4.99995194E-02   4.99997815E-02   6.90184309E-02   6.91173748E-02   3.66100385E-03   5.69082525E-05   6.54690763E-10   8.69656360E-04   6.89688321E-02   6.89284835E-02   3.88951565E-04   9.99998873E-04   9.96966049E-04   8.68104187E-11   9.01638310E-11   1.00004444E-10
   2.25750000E+03   5.00000000E-01   5.00000000E-01   1.08816033E-01   1.09405690E-01   2.83460124E-03   4.99995199E-02   4.99997820E-02   6.90187771E-02   6.91217316E-02   3.63482017E-03   6.76832797E-05   6.37057196E-10   8.70028783E-04   6.89682856E-02   6.89284835E-02   7.35887698E-04   9.99998777E-04   9.96968363E-04   8.68104187E-11   9.01638294E-11   1.00004314E-10
   2.29250000E+03   5.00000000E-01   5.00000000E-01   1.08816902E-01   1.09425905E-01   2.82338996E-03   4.99995204E-02   4.99997826E-02   6.90191642E-02   6.91286661E-02   3.60345213E-03   8.00028559E-05   6.20709633E-10   8.70366563E-04   6.89677934E-02   6.89284835E-02   1.23321759E-03   9.99998663E-04   9.96970534E-04   8.68104187E-11   9.01638280E-11   1.00004187E-10
   2.32750000E+03   5.00000000E-01   5.00000000E-01   1.08817772E-01   1.09447252E-01   2.81099921E-03   4.99995210E-02   4.99997834E-02   6.90195909E-02   6.91380666E-02   3.56655637E-03   9.38863100E-05   6.05483110E-10   8.70666544E-04   6.89673519E-02   6.89284835E-02   1.78058396E-03   9.99998532E-04   9.96972483E-04   8.68104187E-11   9.01638267E-11   1.00004062E-10
   2.36250000E+03   5.00000000E-01   5.00000000E-01   1.08818648E-01   1.09469603E-01   2.79902240E-03   4.99995216E-02   4.99997843E-02   6.90200591E-02   6.91495574E-02   3.52505580E-03   1.08901351E-04   5.90894484E-10   8.70904463E-04   6.89669557E-02   6.89284835E-02   2.23861479E-03   9.99998381E-04   9.96974208E-04   8.68104187E-11   9.01638255E-11   1.00003940E-10
   2.39750000E+03   5.00000000E-01   5.00000000E-01   1.08819537E-01   1.09493096E-01   2.78755165E-03   4.99995222E-02   4.99997853E-02   6.90205742E-02   6.91627974E-02   3.48077011E-03   1.24344002E-04   5.76559497E-10   8.71060043E-04   6.89665988E-02   6.89284835E-02   2.54046653E-03   9.99998212E-04   9.96975763E-04   8.68104187E-11   9.01638244E-11   1.00003821E-10
   2.43250000E+03   5.00000000E-01   5.00000000E-01   1.08820448E-01   1.09517909E-01   2.77548576E-03   4.99995228E-02   4.99997865E-02   6.90211440E-02   6.91776142E-02   3.43550735E-03   1.39562731E-04   5.62340966E-10   8.71127046E-04   6.89662744E-02   6.89284835E-02   2.69436807E-03   9.99998022E-04   9.96977215E-04   8.68104187E-11   9.01638235E-11   1.00003703E-10
   2.46750000E+03   5.00000000E-01   5.00000000E-01   1.08821387E-01   1.09544175E-01   2.76169837E-03   4.99995234E-02   4.99997877E-02   6.90217786E-02   6.91939093E-02   3.39058183E-03   1.54104447E-04   5.48196658E-10   8.71103215E-04   6.89659760E-02   6.89284835E-02   2.72700812E-03   9.99997809E-04   9.96978628E-04   8.68104187E-11   9.01638226E-11   1.00003586E-10
   2.50250000E+03   5.00000000E-01   5.00000000E-01   1.08822362E-01   1.09571924E-01   2.74538978E-03   4.99995241E-02   4.99997891E-02   6.90224902E-02   6.92116311E-02   3.34678523E-03   1.67699667E-04   5.34124122E-10   8.70988470E-04   6.89656973E-02   6.89284835E-02   2.67119814E-03   9.99997570E-04   9.96980070E-04   8.68104187E-11   9.01638218E-11   1.00003472E-10
   2.53750000E+03   5.00000000E-01   5.00000000E-01   1.08823380E-01   1.09600984E-01   2.72597262E-03   4.99995248E-02   4.99997906E-02   6.90232921E-02   6.92308296E-02   3.30452416E-03   1.80175908E-04   5.20217631E-10   8.70792480E-04   6.89654328E-02   6.89284835E-02   2.56949422E-03   9.99997303E-04   9.96981585E-04   8.68104187E-11   9.01638211E-11   1.00003360E-10
   2.57250000E+03   5.00000000E-01   5.00000000E-01   1.08824450E-01   1.09630956E-01   2.70318333E-03   4.99995256E-02   4.99997921E-02   6.90241964E-02   6.92516230E-02   3.26402963E-03   1.91363037E-04   5.06632685E-10   8.70532961E-04   6.89651777E-02   6.89284835E-02   2.45875798E-03   9.99997005E-04   9.96983186E-04   8.68104187E-11   9.01638205E-11   1.00003250E-10
   2.60750000E+03   5.00000000E-01   5.00000000E-01   1.08825579E-01   1.09661327E-01   2.67718369E-03   4.99995263E-02   4.99997937E-02   6.90252133E-02   6.92741005E-02   3.22554135E-03   2.01051796E-04   4.93483530E-10   8.70225837E-04   6.89649283E-02   6.89284835E-02   2.35731473E-03   9.99996671E-04   9.96984853E-04   8.68104187E-11   9.01638199E-11   1.00003143E-10
   2.64250000E+03   5.00000000E-01   5.00000000E-01   1.08826779E-01   1.09691611E-01   2.64843892E-03   4.99995271E-02   4.99997953E-02   6.90263523E-02   6.92982600E-02   3.18936377E-03   2.09020478E-04   4.80783859E-10   8.69877943E-04   6.89646821E-02   6.89284835E-02   2.26647245E-03   9.99996299E-04   9.96986558E-04   8.68104187E-11   9.01638193E-11   1.00003039E-10
   2.67750000E+03   5.00000000E-01   5.00000000E-01   1.08828059E-01   1.09721441E-01   2.61750810E-03   4.99995280E-02   4.99997968E-02   6.90276239E-02   6.93240053E-02   3.15578792E-03   2.15099419E-04   4.68455434E-10   8.69486057E-04   6.89644381E-02   6.89284835E-02   2.18017987E-03   9.99995887E-04   9.96988277E-04   8.68104187E-11   9.01638188E-11   1.00002937E-10
   2.71250000E+03   5.00000000E-01   5.00000000E-01   1.08829432E-01   1.09750556E-01   2.58488350E-03   4.99995289E-02   4.99997983E-02   6.90290401E-02   6.93511891E-02   3.12499082E-03   2.19213186E-04   4.56380288E-10   8.69041168E-04   6.89641971E-02   6.89284835E-02   2.09476473E-03   9.99995434E-04   9.96989999E-04   8.68104187E-11   9.01638183E-11   1.00002839E-10