 TITLE = "Mineral Volumes" 
VARIABLES = "X"          "Y"              "Z"            "Forsterite"     "Enstatite(alph" "Anorthite"      "Ferropargasite" "Anhydrite"      "Clinochlore"    "Albite(low)"    "Fayalite"       "Epidote"        "Kaolinite"      "Muscovite(orde" "Sudoite"        "Saponite(Mg)"   "Scolecite"      "Pyrite"         "Quartz(alpha)" 
 ZONE I=         100 , J=           1 , K=           1  F=POINT
   1.75000000E+01   5.00000000E-01   5.00000000E-01   2.79972382E-01   2.09998029E-01   9.99364430E-03   6.99823482E-02   1.21648954E-01   2.70680870E-04   1.29606253E-01   2.79707517E-02   9.99999996E-04   9.93852462E-04   1.28776665E-04   0.00000000E+00   1.17546998E-04   8.95233095E-04   0.00000000E+00   3.46793157E-07
   5.25000000E+01   5.00000000E-01   5.00000000E-01   2.79972382E-01   2.09998029E-01   9.99364430E-03   6.99823482E-02   1.78933315E-01   1.21189410E-04   1.29710461E-01   2.79707534E-02   9.99999997E-04   9.93881246E-04   1.45462968E-04   0.00000000E+00   1.23194758E-04   8.95269769E-04   0.00000000E+00   4.48152241E-07
   8.75000000E+01   5.00000000E-01   5.00000000E-01   2.79972382E-01   2.09998029E-01   9.99364430E-03   6.99823482E-02   1.96873497E-01   7.82860337E-05   1.29758949E-01   2.79707557E-02   9.99999996E-04   9.93893996E-04   1.38718229E-04   0.00000000E+00   1.49502875E-04   8.95280112E-04   0.00000000E+00   4.95291458E-07
   1.22500000E+02   5.00000000E-01   5.00000000E-01   2.79972382E-01   2.09998029E-01   9.99364430E-03   6.99823482E-02   2.01433280E-01   6.12767321E-05   1.29784091E-01   2.79707588E-02   9.99999996E-04   9.93905824E-04   1.33187947E-04   0.00000000E+00   1.60570981E-04   8.95285415E-04   0.00000000E+00   5.16383378E-07
   1.57500000E+02   5.00000000E-01   5.00000000E-01   2.79972382E-01   2.09998029E-01   9.99364430E-03   6.99823482E-02   2.02550032E-01   5.33553257E-05   1.29797197E-01   2.79707625E-02   9.99999995E-04   9.93918636E-04   1.29810442E-04   0.00000000E+00   1.66927953E-04   8.95289956E-04   0.00000000E+00   5.23542574E-07
   1.92500000E+02   5.00000000E-01   5.00000000E-01   2.79972382E-01   2.09998029E-01   9.99364430E-03   6.99823482E-02   2.02842095E-01   4.95185332E-05   1.29803486E-01   2.79707667E-02   9.99999993E-04   9.93932788E-04   1.28017541E-04   0.00000000E+00   1.71530822E-04   8.95294597E-04   0.00000000E+00   5.22749726E-07
   2.27500000E+02   5.00000000E-01   5.00000000E-01   2.79972382E-01   2.09998029E-01   9.99364430E-03   6.99823482E-02   2.02934689E-01   4.78271750E-05   1.29805660E-01   2.79707715E-02   9.99999992E-04   9.93948338E-04   1.27285239E-04   0.00000000E+00   1.75406834E-04   8.95299434E-04   0.00000000E+00   5.17244087E-07
   2.62500000E+02   5.00000000E-01   5.00000000E-01   2.79972382E-01   2.09998029E-01   9.99364430E-03   6.99823482E-02   2.02973569E-01   4.73914026E-05   1.29805225E-01   2.79707767E-02   9.99999991E-04   9.93965280E-04   1.27252715E-04   0.00000000E+00   1.78978428E-04   8.95304407E-04   0.00000000E+00   5.08887697E-07
   2.97500000E+02   5.00000000E-01   5.00000000E-01   2.79972382E-01   2.09998030E-01   9.99364430E-03   6.99823482E-02   2.02992560E-01   4.77540878E-05   1.29803070E-01   2.79707823E-02   9.99999990E-04   9.93983610E-04   1.27683451E-04   0.00000000E+00   1.82441726E-04   8.95309439E-04   0.00000000E+00   4.98794469E-07
   3.32500000E+02   5.00000000E-01   5.00000000E-01   2.79972382E-01   2.09998030E-01   9.99364430E-03   6.99823482E-02   2.02999835E-01   4.86613946E-05   1.29799742E-01   2.79707883E-02   9.99999989E-04   9.94003332E-04   1.28422809E-04   0.00000000E+00   1.85894907E-04   8.95314467E-04   0.00000000E+00   4.87650351E-07
   3.67500000E+02   5.00000000E-01   5.00000000E-01   2.79972382E-01   2.09998030E-01   9.99364430E-03   6.99823482E-02   2.02997790E-01   4.99642545E-05   1.29795586E-01   2.79707946E-02   9.99999987E-04   9.94024460E-04   1.29368492E-04   0.00000000E+00   1.89388086E-04   8.95319438E-04   0.00000000E+00   4.75887720E-07
   4.02500000E+02   5.00000000E-01   5.00000000E-01   2.79972382E-01   2.09998030E-01   9.99364430E-03   6.99823482E-02   2.02987539E-01   5.15713472E-05   1.29790832E-01   2.79708011E-02   9.99999986E-04   9.94047014E-04   1.30451555E-04   0.00000000E+00   1.92944763E-04   8.95324311E-04   0.00000000E+00   4.63784987E-07
   4.37500000E+02   5.00000000E-01   5.00000000E-01   2.79972382E-01   2.09998030E-01   9.99364430E-03   6.99823482E-02   2.02969909E-01   5.34231523E-05   1.29785633E-01   2.79708079E-02   9.99999984E-04   9.94071024E-04   1.31625011E-04   0.00000000E+00   1.96573741E-04   8.95329057E-04   0.00000000E+00   4.51524928E-07
   4.72500000E+02   5.00000000E-01   5.00000000E-01   2.79972382E-01   2.09998030E-01   9.99364430E-03   6.99823482E-02   2.02945647E-01   5.54790519E-05   1.29780097E-01   2.79708149E-02   9.99999982E-04   9.94096519E-04   1.32856129E-04   0.00000000E+00   2.00273307E-04   8.95333649E-04   0.00000000E+00   4.39230276E-07
   5.07500000E+02   5.00000000E-01   5.00000000E-01   2.79972382E-01   2.09998030E-01   9.99364430E-03   6.99823482E-02   2.02915458E-01   5.77187764E-05   1.29774307E-01   2.79708220E-02   9.99999980E-04   9.94123529E-04   1.34118101E-04   0.00000000E+00   2.04022651E-04   8.95338065E-04   0.00000000E+00   4.26988400E-07
   5.42500000E+02   5.00000000E-01   5.00000000E-01   2.79972382E-01   2.09998030E-01   9.99364430E-03   6.99823482E-02   2.02880016E-01   6.01229538E-05   1.29768325E-01   2.79708293E-02   9.99999979E-04   9.94152085E-04   1.35391829E-04   0.00000000E+00   2.07803008E-04   8.95342289E-04   0.00000000E+00   4.14862052E-07
   5.77500000E+02   5.00000000E-01   5.00000000E-01   2.79972382E-01   2.09998031E-01   9.99364430E-03   6.99823482E-02   2.02839957E-01   6.26763045E-05   1.29762205E-01   2.79708366E-02   9.99999978E-04   9.94182217E-04   1.36662388E-04   0.00000000E+00   2.11588276E-04   8.95346305E-04   0.00000000E+00   4.02898638E-07
   6.12500000E+02   5.00000000E-01   5.00000000E-01   2.79972382E-01   2.09998031E-01   9.99364430E-03   6.99823482E-02   2.02795879E-01   6.53651551E-05   1.29755992E-01   2.79708441E-02   9.99999977E-04   9.94213956E-04   1.37917841E-04   0.00000000E+00   2.15347576E-04   8.95350102E-04   0.00000000E+00   3.91135697E-07
   6.47500000E+02   5.00000000E-01   5.00000000E-01   2.79972382E-01   2.09998031E-01   9.99364430E-03   6.99823482E-02   2.02748339E-01   6.81654595E-05   1.29749713E-01   2.79708516E-02   9.99999975E-04   9.94247273E-04   1.39121672E-04   4.21685501E-08   2.19048827E-04   8.95353647E-04   0.00000000E+00   3.79609887E-07
   6.82500000E+02   5.00000000E-01   5.00000000E-01   2.79972382E-01   2.09998031E-01   9.99364430E-03   6.99823482E-02   2.02697858E-01   7.10351102E-05   1.29743376E-01   2.79708591E-02   9.99999974E-04   9.94282041E-04   1.40204015E-04   2.22591644E-07   2.22664460E-04   8.95356878E-04   0.00000000E+00   3.68362595E-07
   7.17500000E+02   5.00000000E-01   5.00000000E-01   2.79972382E-01   2.09998031E-01   9.99364430E-03   6.99823482E-02   2.02644913E-01   7.39780871E-05   1.29737073E-01   2.79708666E-02   9.99999972E-04   9.94318438E-04   1.41231215E-04   4.23944921E-07   2.26156818E-04   8.95359853E-04   0.00000000E+00   3.57411051E-07
   7.52500000E+02   5.00000000E-01   5.00000000E-01   2.79972382E-01   2.09998031E-01   9.99364430E-03   6.99823482E-02   2.02589944E-01   7.69759857E-05   1.29730840E-01   2.79708741E-02   9.99999970E-04   9.94356491E-04   1.42199417E-04   6.47909657E-07   2.29477530E-04   8.95362571E-04   0.00000000E+00   3.46773426E-07
   7.87500000E+02   5.00000000E-01   5.00000000E-01   2.79972382E-01   2.09998031E-01   9.99364430E-03   6.99823482E-02   2.02533351E-01   8.00072620E-05   1.29724708E-01   2.79708816E-02   9.99999969E-04   9.94396226E-04   1.43105653E-04   8.96151980E-07   2.32584805E-04   8.95365030E-04   0.00000000E+00   3.36466943E-07
   8.22500000E+02   5.00000000E-01   5.00000000E-01   2.79972382E-01   2.09998032E-01   9.99364430E-03   6.99823482E-02   2.02475501E-01   8.30474322E-05   1.29718713E-01   2.79708889E-02   9.99999967E-04   9.94437675E-04   1.43948424E-04   1.17031094E-06   2.35437390E-04   8.95367232E-04   0.00000000E+00   3.26507726E-07
   8.57500000E+02   5.00000000E-01   5.00000000E-01   2.79972382E-01   2.09998032E-01   9.99364430E-03   6.99823482E-02   2.02416722E-01   8.60692537E-05   1.29712885E-01   2.79708961E-02   9.99999966E-04   9.94480873E-04   1.44727751E-04   1.47196397E-06   2.37995423E-04   8.95369182E-04   0.00000000E+00   3.16910537E-07
   8.92500000E+02   5.00000000E-01   5.00000000E-01   2.79972382E-01   2.09998032E-01   9.99364430E-03   6.99823482E-02   2.02357312E-01   8.90430902E-05   1.29707257E-01   2.79709032E-02   9.99999966E-04   9.94525862E-04   1.45445148E-04   1.80260836E-06   2.40221318E-04   8.95370884E-04   0.00000000E+00   3.07688559E-07
   9.27500000E+02   5.00000000E-01   5.00000000E-01   2.79972382E-01   2.09998032E-01   9.99364430E-03   6.99823482E-02   2.02297538E-01   9.19374740E-05   1.29701856E-01   2.79709100E-02   9.99999967E-04   9.94572693E-04   1.46103532E-04   2.16363307E-06   2.42080671E-04   8.95372347E-04   0.00000000E+00   2.98853087E-07
   9.62500000E+02   5.00000000E-01   5.00000000E-01   2.79972382E-01   2.09998032E-01   9.99364430E-03   6.99823482E-02   2.02237636E-01   9.47197939E-05   1.29696711E-01   2.79709166E-02   9.99999967E-04   9.94621424E-04   1.46707074E-04   2.55629906E-06   2.43543028E-04   8.95373581E-04   0.00000000E+00   2.90413324E-07
   9.97500000E+02   5.00000000E-01   5.00000000E-01   2.79972382E-01   2.09998033E-01   9.99364430E-03   6.99823482E-02   2.02177817E-01   9.73571728E-05   1.29691846E-01   2.79709230E-02   9.99999968E-04   9.94672123E-04   1.47260965E-04   2.98172115E-06   2.44582657E-04   8.95374595E-04   0.00000000E+00   2.82376105E-07
   1.03250000E+03   5.00000000E-01   5.00000000E-01   2.79972382E-01   2.09998033E-01   9.99364430E-03   6.99823482E-02   2.02118267E-01   9.98173163E-05   1.29687280E-01   2.79709290E-02   9.99999970E-04   9.94724866E-04   1.47771177E-04   3.44084889E-06   2.45179304E-04   8.95375402E-04   0.00000000E+00   2.74745747E-07
   1.06750000E+03   5.00000000E-01   5.00000000E-01   2.79972382E-01   2.09998033E-01   9.99364430E-03   6.99823482E-02   2.02059148E-01   1.02069709E-04   1.29683031E-01   2.79709346E-02   9.99999971E-04   9.94779738E-04   1.48244064E-04   3.93446493E-06   2.45318707E-04   8.95376013E-04   0.00000000E+00   2.67523784E-07
   1.10250000E+03   5.00000000E-01   5.00000000E-01   2.79972382E-01   2.09998033E-01   9.99364430E-03   6.99823482E-02   2.02000603E-01   1.04086405E-04   1.29679112E-01   2.79709399E-02   9.99999971E-04   9.94836832E-04   1.48686104E-04   4.46317546E-06   2.44993202E-04   8.95376439E-04   0.00000000E+00   2.60708948E-07
   1.13750000E+03   5.00000000E-01   5.00000000E-01   2.79972382E-01   2.09998033E-01   9.99364430E-03   6.99823482E-02   2.01942755E-01   1.05843334E-04   1.29675533E-01   2.79709448E-02   9.99999972E-04   9.94896244E-04   1.49103429E-04   5.02740348E-06   2.44201914E-04   8.95376692E-04   0.00000000E+00   2.54296981E-07
   1.17250000E+03   5.00000000E-01   5.00000000E-01   2.79972382E-01   2.09998034E-01   9.99364431E-03   6.99823482E-02   2.01885708E-01   1.07320851E-04   1.29672297E-01   2.79709491E-02   9.99999973E-04   9.94958074E-04   1.49501588E-04   5.62742550E-06   2.42951207E-04   8.95376781E-04   0.00000000E+00   2.48280776E-07
   1.20750000E+03   5.00000000E-01   5.00000000E-01   2.79972382E-01   2.09998034E-01   9.99364431E-03   6.99823482E-02   2.01829554E-01   1.08504885E-04   1.29669404E-01   2.79709530E-02   9.99999975E-04   9.95022424E-04   1.49885133E-04   6.26333399E-06   2.41254477E-04   8.95376715E-04   0.00000000E+00   2.42650139E-07
   1.24250000E+03   5.00000000E-01   5.00000000E-01   2.79972382E-01   2.09998034E-01   9.99364431E-03   6.99823482E-02   2.01774366E-01   1.09387049E-04   1.29666851E-01   2.79709564E-02   9.99999976E-04   9.95089390E-04   1.50257506E-04   6.93510077E-06   2.39132316E-04   8.95376500E-04   0.00000000E+00   2.37392647E-07
   1.27750000E+03   5.00000000E-01   5.00000000E-01   2.79972382E-01   2.09998034E-01   9.99364431E-03   6.99823482E-02   2.01720208E-01   1.09965591E-04   1.29664627E-01   2.79709592E-02   9.99999977E-04   9.95159064E-04   1.50620660E-04   7.64254593E-06   2.36611745E-04   8.95376141E-04   0.00000000E+00   2.32493621E-07
   1.31250000E+03   5.00000000E-01   5.00000000E-01   2.79972383E-01   2.09998035E-01   9.99364431E-03   6.99823482E-02   2.01667131E-01   1.10244864E-04   1.29662720E-01   2.79709615E-02   9.99999978E-04   9.95231528E-04   1.50975180E-04   8.38538977E-06   2.33726010E-04   8.95375641E-04   0.00000000E+00   2.27935617E-07
   1.34750000E+03   5.00000000E-01   5.00000000E-01   2.79972383E-01   2.09998035E-01   9.99364431E-03   6.99823482E-02   2.01615175E-01   1.10235148E-04   1.29661113E-01   2.79709632E-02   9.99999979E-04   9.95306852E-04   1.51320257E-04   9.16329325E-06   2.30513821E-04   8.95375002E-04   0.00000000E+00   2.23699103E-07
   1.38250000E+03   5.00000000E-01   5.00000000E-01   2.79972384E-01   2.09998035E-01   9.99364431E-03   6.99823482E-02   2.01564372E-01   1.09952054E-04   1.29659785E-01   2.79709643E-02   9.99999979E-04   9.95385091E-04   1.51653842E-04   9.97587815E-06   2.27018457E-04   8.95374223E-04   0.00000000E+00   2.19762944E-07
   1.41750000E+03   5.00000000E-01   5.00000000E-01   2.79972385E-01   2.09998035E-01   9.99364432E-03   6.99823482E-02   2.01514746E-01   1.09415827E-04   1.29658713E-01   2.79709649E-02   9.99999978E-04   9.95466286E-04   1.51972806E-04   1.08227751E-05   2.23286653E-04   8.95373302E-04   0.00000000E+00   2.16104661E-07
   1.45250000E+03   5.00000000E-01   5.00000000E-01   2.79972386E-01   2.09998036E-01   9.99364432E-03   6.99823482E-02   2.01466312E-01   1.08650440E-04   1.29657871E-01   2.79709650E-02   9.99999976E-04   9.95550459E-04   1.52273173E-04   1.17036540E-05   2.19367387E-04   8.95372238E-04   0.00000000E+00   2.12700757E-07
   1.48750000E+03   5.00000000E-01   5.00000000E-01   2.79972388E-01   2.09998036E-01   9.99364432E-03   6.99823482E-02   2.01419079E-01   1.07682729E-04   1.29657233E-01   2.79709645E-02   9.99999972E-04   9.95637617E-04   1.52550336E-04   1.26182684E-05   2.15310480E-04   8.95371026E-04   0.00000000E+00   2.09527315E-07
   1.52250000E+03   5.00000000E-01   5.00000000E-01   2.79972390E-01   2.09998036E-01   9.99364432E-03   6.99823482E-02   2.01373051E-01   1.06541092E-04   1.29656769E-01   2.79709635E-02   9.99999966E-04   9.95727748E-04   1.52799422E-04   1.35664914E-05   2.11165500E-04   8.95369664E-04   0.00000000E+00   2.06560263E-07
   1.55750000E+03   5.00000000E-01   5.00000000E-01   2.79972393E-01   2.09998037E-01   9.99364433E-03   6.99823482E-02   2.01328227E-01   1.05254663E-04   1.29656451E-01   2.79709620E-02   9.99999956E-04   9.95820825E-04   1.53015483E-04   1.45483409E-05   2.06980421E-04   8.95368149E-04   0.00000000E+00   2.03775792E-07
   1.59250000E+03   5.00000000E-01   5.00000000E-01   2.79972398E-01   2.09998037E-01   9.99364433E-03   6.99823482E-02   2.01284600E-01   1.03852258E-04   1.29656251E-01   2.79709601E-02   9.99999942E-04   9.95916809E-04   1.53193766E-04   1.55640063E-05   2.02800631E-04   8.95366478E-04   0.00000000E+00   2.01150797E-07
   1.62750000E+03   5.00000000E-01   5.00000000E-01   2.79972403E-01   2.09998037E-01   9.99364433E-03   6.99823482E-02   2.01242163E-01   1.02361553E-04   1.29656140E-01   2.79709577E-02   9.99999922E-04   9.96015645E-04   1.53329910E-04   1.66138564E-05   1.98668060E-04   8.95364651E-04   0.00000000E+00   1.98663215E-07
   1.66250000E+03   5.00000000E-01   5.00000000E-01   2.79972409E-01   2.09998038E-01   9.99364433E-03   6.99823482E-02   2.01200901E-01   1.00808530E-04   1.29656092E-01   2.79709549E-02   9.99999893E-04   9.96117269E-04   1.53420029E-04   1.76984527E-05   1.94620435E-04   8.95362665E-04   0.00000000E+00   1.96292308E-07
   1.69750000E+03   5.00000000E-01   5.00000000E-01   2.79972417E-01   2.09998038E-01   9.99364434E-03   6.99823482E-02   2.01160800E-01   9.92169034E-05   1.29656082E-01   2.79709518E-02   9.99999853E-04   9.96221609E-04   1.53460834E-04   1.88185341E-05   1.90690911E-04   8.95360522E-04   0.00000000E+00   1.94018854E-07
   1.73250000E+03   5.00000000E-01   5.00000000E-01   2.79972427E-01   2.09998039E-01   9.99364434E-03   6.99823482E-02   2.01121842E-01   9.76078307E-05   1.29656087E-01   2.79709483E-02   9.99999799E-04   9.96328582E-04   1.53449656E-04   1.99750090E-05   1.86907819E-04   8.95358224E-04   0.00000000E+00   1.91825280E-07
   1.76750000E+03   5.00000000E-01   5.00000000E-01   2.79972438E-01   2.09998039E-01   9.99364435E-03   6.99823482E-02   2.01084008E-01   9.59997803E-05   1.29656087E-01   2.79709444E-02   9.99999725E-04   9.96438102E-04   1.53384424E-04   2.11689279E-05   1.83294652E-04   8.95355773E-04   0.00000000E+00   1.89695840E-07
   1.80250000E+03   5.00000000E-01   5.00000000E-01   2.79972450E-01   2.09998039E-01   9.99364435E-03   6.99823482E-02   2.01047275E-01   9.44084725E-05   1.29656063E-01   2.79709404E-02   9.99999629E-04   9.96550079E-04   1.53263638E-04   2.24014556E-05   1.79870228E-04   8.95353173E-04   0.00000000E+00   1.87616561E-07
   1.83750000E+03   5.00000000E-01   5.00000000E-01   2.79972463E-01   2.09998040E-01   9.99364436E-03   6.99823482E-02   2.01011623E-01   9.28469660E-05   1.29655999E-01   2.79709360E-02   9.99999505E-04   9.96664417E-04   1.53086307E-04   2.36738420E-05   1.76649000E-04   8.95350430E-04   0.00000000E+00   1.85575290E-07
   1.87250000E+03   5.00000000E-01   5.00000000E-01   2.79972477E-01   2.09998040E-01   9.99364436E-03   6.99823482E-02   2.00977027E-01   9.13257868E-05   1.29655882E-01   2.79709314E-02   9.99999346E-04   9.96781016E-04   1.52851878E-04   2.49873871E-05   1.73641508E-04   8.95347549E-04   0.00000000E+00   1.83561611E-07
   1.90750000E+03   5.00000000E-01   5.00000000E-01   2.79972493E-01   2.09998040E-01   9.99364437E-03   6.99823482E-02   2.00943466E-01   8.98531859E-05   1.29655699E-01   2.79709267E-02   9.99999146E-04   9.96899777E-04   1.52560153E-04   2.63434056E-05   1.70854786E-04   8.95344538E-04   0.00000000E+00   1.81566756E-07
   1.94250000E+03   5.00000000E-01   5.00000000E-01   2.79972509E-01   2.09998041E-01   9.99364437E-03   6.99823482E-02   2.00910913E-01   8.84354095E-05   1.29655442E-01   2.79709218E-02   9.99998898E-04   9.97020593E-04   1.52211192E-04   2.77431918E-05   1.68292926E-04   8.95341403E-04   0.00000000E+00   1.79583441E-07
   1.97750000E+03   5.00000000E-01   5.00000000E-01   2.79972527E-01   2.09998041E-01   9.99364438E-03   6.99823482E-02   2.00879347E-01   8.70768464E-05   1.29655103E-01   2.79709168E-02   9.99998593E-04   9.97143357E-04   1.51805289E-04   2.91879935E-05   1.65957659E-04   8.95338152E-04   0.00000000E+00   1.77605802E-07
   2.01250000E+03   5.00000000E-01   5.00000000E-01   2.79972545E-01   2.09998042E-01   9.99364438E-03   6.99823482E-02   2.00848741E-01   8.57804572E-05   1.29654677E-01   2.79709116E-02   9.99998222E-04   9.97267960E-04   1.51342845E-04   3.06789808E-05   1.63848776E-04   8.95334795E-04   0.00000000E+00   1.75629194E-07
   2.04750000E+03   5.00000000E-01   5.00000000E-01   2.79972564E-01   2.09998042E-01   9.99364439E-03   6.99823482E-02   2.00819072E-01   8.45478734E-05   1.29654159E-01   2.79709064E-02   9.99997776E-04   9.97394286E-04   1.50824373E-04   3.22172167E-05   1.61964708E-04   8.95331339E-04   0.00000000E+00   1.73650070E-07
   2.08250000E+03   5.00000000E-01   5.00000000E-01   2.79972583E-01   2.09998042E-01   9.99364440E-03   6.99823482E-02   2.00790317E-01   8.33796931E-05   1.29653546E-01   2.79709011E-02   9.99997243E-04   9.97522218E-04   1.50250432E-04   3.38036456E-05   1.60302911E-04   8.95327794E-04   0.00000000E+00   1.71665843E-07
   2.11750000E+03   5.00000000E-01   5.00000000E-01   2.79972603E-01   2.09998043E-01   9.99364440E-03   6.99823482E-02   2.00762451E-01   8.22757478E-05   1.29652838E-01   2.79708958E-02   9.99996612E-04   9.97651634E-04   1.49621584E-04   3.54390675E-05   1.58860180E-04   8.95324168E-04   0.00000000E+00   1.69674647E-07
   2.15250000E+03   5.00000000E-01   5.00000000E-01   2.79972624E-01   2.09998043E-01   9.99364441E-03   6.99823482E-02   2.00735452E-01   8.11750840E-05   1.29652032E-01   2.79708905E-02   9.99995870E-04   9.97782675E-04   1.48952093E-04   3.71296470E-05   1.57702225E-04   8.95320474E-04   0.00000000E+00   1.67673082E-07
   2.18750000E+03   5.00000000E-01   5.00000000E-01   2.79972645E-01   2.09998043E-01   9.99364442E-03   6.99823482E-02   2.00709296E-01   8.00887365E-05   1.29651128E-01   2.79708852E-02   9.99995007E-04   9.97915161E-04   1.48238989E-04   3.88781345E-05   1.56796482E-04   8.95316720E-04   0.00000000E+00   1.65659639E-07
   2.22250000E+03   5.00000000E-01   5.00000000E-01   2.79972667E-01   2.09998044E-01   9.99364443E-03   6.99823482E-02   2.00683963E-01   7.90534122E-05   1.29650126E-01   2.79708800E-02   9.99994011E-04   9.98048785E-04   1.47473405E-04   4.06821334E-05   1.56100838E-04   8.95312912E-04   0.00000000E+00   1.63634614E-07
   2.25750000E+03   5.00000000E-01   5.00000000E-01   2.79972689E-01   2.09998044E-01   9.99364444E-03   6.99823482E-02   2.00659430E-01   7.80736360E-05   1.29649027E-01   2.79708747E-02   9.99992873E-04   9.98183369E-04   1.46653749E-04   4.25408588E-05   1.55613308E-04   8.95309059E-04   0.00000000E+00   1.61598497E-07
   2.29250000E+03   5.00000000E-01   5.00000000E-01   2.79972711E-01   2.09998045E-01   9.99364445E-03   6.99823482E-02   2.00635677E-01   7.71538911E-05   1.29647833E-01   2.79708696E-02   9.99991585E-04   9.98318730E-04   1.45778819E-04   4.44535419E-05   1.55325749E-04   8.95305169E-04   0.00000000E+00   1.59552131E-07
   2.32750000E+03   5.00000000E-01   5.00000000E-01   2.79972734E-01   2.09998045E-01   9.99364446E-03   6.99823482E-02   2.00612683E-01   7.62930588E-05   1.29646547E-01   2.79708646E-02   9.99990145E-04   9.98454707E-04   1.44848784E-04   4.64195399E-05   1.55237125E-04   8.95301251E-04   0.00000000E+00   1.57496412E-07
   2.36250000E+03   5.00000000E-01   5.00000000E-01   2.79972757E-01   2.09998046E-01   9.99364447E-03   6.99823482E-02   2.00590428E-01   7.54824055E-05   1.29645171E-01   2.79708596E-02   9.99988553E-04   9.98591177E-04   1.43865692E-04   4.84387137E-05   1.55354700E-04   8.95297313E-04   0.00000000E+00   1.55432371E-07
   2.39750000E+03   5.00000000E-01   5.00000000E-01   2.79972782E-01   2.09998046E-01   9.99364448E-03   6.99823482E-02   2.00568892E-01   7.47148036E-05   1.29643708E-01   2.79708548E-02   9.99986825E-04   9.98728008E-04   1.42831196E-04   5.05109596E-05   1.55683183E-04   8.95293365E-04   0.00000000E+00   1.53361553E-07
   2.43250000E+03   5.00000000E-01   5.00000000E-01   2.79972808E-01   2.09998047E-01   9.99364449E-03   6.99823482E-02   2.00548056E-01   7.39976845E-05   1.29642160E-01   2.79708500E-02   9.99984982E-04   9.98864975E-04   1.41743609E-04   5.26347777E-05   1.56212120E-04   8.95289414E-04   0.00000000E+00   1.51284793E-07
   2.46750000E+03   5.00000000E-01   5.00000000E-01   2.79972835E-01   2.09998047E-01   9.99364450E-03   6.99823482E-02   2.00527903E-01   7.33302749E-05   1.29640530E-01   2.79708455E-02   9.99983060E-04   9.99001890E-04   1.40603035E-04   5.48089309E-05   1.56944201E-04   8.95285468E-04   0.00000000E+00   1.49202890E-07
   2.50250000E+03   5.00000000E-01   5.00000000E-01   2.79972865E-01   2.09998048E-01   9.99364451E-03   6.99823482E-02   2.00508414E-01   7.27103350E-05   1.29638821E-01   2.79708410E-02   9.99981107E-04   9.99138572E-04   1.39410102E-04   5.70322763E-05   1.57882939E-04   8.95281533E-04   0.00000000E+00   1.47116476E-07
   2.53750000E+03   5.00000000E-01   5.00000000E-01   2.79972897E-01   2.09998048E-01   9.99364452E-03   6.99823482E-02   2.00489571E-01   7.21358602E-05   1.29637034E-01   2.79708367E-02   9.99979184E-04   9.99274835E-04   1.38165403E-04   5.93035050E-05   1.59032802E-04   8.95277618E-04   0.00000000E+00   1.45026087E-07
   2.57250000E+03   5.00000000E-01   5.00000000E-01   2.79972934E-01   2.09998049E-01   9.99364453E-03   6.99823482E-02   2.00471357E-01   7.16041406E-05   1.29635173E-01   2.79708325E-02   9.99977367E-04   9.99410489E-04   1.36869660E-04   6.16215279E-05   1.60399175E-04   8.95273729E-04   0.00000000E+00   1.42932162E-07
   2.60750000E+03   5.00000000E-01   5.00000000E-01   2.79972975E-01   2.09998049E-01   9.99364455E-03   6.99823482E-02   2.00453757E-01   7.11131008E-05   1.29633237E-01   2.79708284E-02   9.99975744E-04   9.99545342E-04   1.35523339E-04   6.39851793E-05   1.61988307E-04   8.95269873E-04   0.00000000E+00   1.40834954E-07
   2.64250000E+03   5.00000000E-01   5.00000000E-01   2.79973022E-01   2.09998050E-01   9.99364456E-03   6.99823482E-02   2.00436752E-01   7.06602943E-05   1.29631231E-01   2.79708245E-02   9.99974409E-04   9.99679192E-04   1.34127152E-04   6.63932491E-05   1.63807234E-04   8.95266055E-04   0.00000000E+00   1.38734519E-07
   2.67750000E+03   5.00000000E-01   5.00000000E-01   2.79973076E-01   2.09998050E-01   9.99364457E-03   6.99823482E-02   2.00420326E-01   7.02241354E-05   1.29629154E-01   2.79708207E-02   9.99973463E-04   9.99811959E-04   1.32685695E-04   6.88466575E-05   1.65886229E-04   8.95262283E-04   0.00000000E+00   1.36629991E-07
   2.71250000E+03   5.00000000E-01   5.00000000E-01   2.79973136E-01   2.09998051E-01   9.99364458E-03   6.99823482E-02   2.00404464E-01   6.98157412E-05   1.29627008E-01   2.79708170E-02   9.99973005E-04   9.99943349E-04   1.31196933E-04   7.13432556E-05   1.68214904E-04   8.95258560E-04   0.00000000E+00   1.34521323E-07
   2.74750000E+03   5.00000000E-01   5.00000000E-01   2.79973183E-01   2.09998052E-01   9.99364460E-03   6.99823482E-02   2.00389152E-01   6.94537119E-05   1.29624793E-01   2.79708135E-02   9.99972614E-04   1.00007302E-03   1.29659209E-04   7.38755511E-05   1.70797801E-04   8.95254892E-04   0.00000000E+00   1.32407457E-07
   2.78250000E+03   5.00000000E-01   5.00000000E-01   2.79973230E-01   2.09998052E-01   9.99364461E-03   6.99823482E-02   2.00374373E-01   6.91343219E-05   1.29622512E-01   2.79708101E-02   9.99972170E-04   1.00020076E-03   1.28073467E-04   7.64427943E-05   1.73644155E-04   8.95251282E-04   0.00000000E+00   1.30289775E-07
   2.81750000E+03   5.00000000E-01   5.00000000E-01   2.79973279E-01   2.09998053E-01   9.99364463E-03   6.99823482E-02   2.00360112E-01   6.88553383E-05   1.29620164E-01   2.79708069E-02   9.99971807E-04   1.00032633E-03   1.26440822E-04   7.90433512E-05   1.76763383E-04   8.95247736E-04   0.00000000E+00   1.28166320E-07
   2.85250000E+03   5.00000000E-01   5.00000000E-01   2.79973329E-01   2.09998053E-01   9.99364464E-03   6.99823482E-02   2.00346355E-01   6.86184849E-05   1.29617750E-01   2.79708038E-02   9.99971712E-04   1.00044950E-03   1.24762103E-04   8.16740280E-05   1.80164971E-04   8.95244257E-04   0.00000000E+00   1.26035627E-07
   2.88750000E+03   5.00000000E-01   5.00000000E-01   2.79973379E-01   2.09998054E-01   9.99364466E-03   6.99823482E-02   2.00333087E-01   6.84262291E-05   1.29615272E-01   2.79708008E-02   9.99972012E-04   1.00057000E-03   1.23038164E-04   8.43313432E-05   1.83858298E-04   8.95240849E-04   0.00000000E+00   1.23897252E-07
   2.92250000E+03   5.00000000E-01   5.00000000E-01   2.79973431E-01   2.09998055E-01   9.99364467E-03   6.99823482E-02   2.00320293E-01   6.82805877E-05   1.29612729E-01   2.79707980E-02   9.99972748E-04   1.00068759E-03   1.21269989E-04   8.70120327E-05   1.87852416E-04   8.95237514E-04   0.00000000E+00   1.21756015E-07
   2.95750000E+03   5.00000000E-01   5.00000000E-01   2.79973482E-01   2.09998055E-01   9.99364469E-03   6.99823482E-02   2.00307960E-01   6.81837675E-05   1.29610123E-01   2.79707953E-02   9.99973900E-04   1.00080201E-03   1.19458690E-04   8.97127366E-05   1.92155814E-04   8.95234257E-04   0.00000000E+00   1.19605160E-07
   2.99250000E+03   5.00000000E-01   5.00000000E-01   2.79973533E-01   2.09998056E-01   9.99364470E-03   6.99823482E-02   2.00296072E-01   6.81374474E-05   1.29607453E-01   2.79707927E-02   9.99975414E-04   1.00091302E-03   1.17605509E-04   9.24303453E-05   1.96776159E-04   8.95231078E-04   0.00000000E+00   1.17443852E-07
   3.02750000E+03   5.00000000E-01   5.00000000E-01   2.79973584E-01   2.09998057E-01   9.99364472E-03   6.99823482E-02   2.00284616E-01   6.81435864E-05   1.29604720E-01   2.79707902E-02   9.99977210E-04   1.00102037E-03   1.15711747E-04   9.51616809E-05   2.01720013E-04   8.95227980E-04   0.00000000E+00   1.15271237E-07
   3.06250000E+03   5.00000000E-01   5.00000000E-01   2.79973634E-01   2.09998057E-01   9.99364474E-03   6.99823482E-02   2.00273578E-01   6.82042474E-05   1.29601926E-01   2.79707879E-02   9.99979202E-04   1.00112380E-03   1.13778819E-04   9.79035332E-05   2.06992536E-04   8.95224965E-04   0.00000000E+00   1.13086464E-07
   3.09750000E+03   5.00000000E-01   5.00000000E-01   2.79973683E-01   2.09998058E-01   9.99364475E-03   6.99823482E-02   2.00262945E-01   6.83215487E-05   1.29599070E-01   2.79707856E-02   9.99981294E-04   1.00122307E-03   1.11808282E-04   1.00652657E-04   2.12597177E-04   8.95222035E-04   0.00000000E+00   1.10888705E-07
   3.13250000E+03   5.00000000E-01   5.00000000E-01   2.79973731E-01   2.09998059E-01   9.99364477E-03   6.99823482E-02   2.00252702E-01   6.84977134E-05   1.29596154E-01   2.79707835E-02   9.99983398E-04   1.00131795E-03   1.09801824E-04   1.03405763E-04   2.18535349E-04   8.95219189E-04   0.00000000E+00   1.08678447E-07
   3.16750000E+03   5.00000000E-01   5.00000000E-01   2.79973777E-01   2.09998059E-01   9.99364479E-03   6.99823482E-02   2.00242837E-01   6.87349901E-05   1.29593178E-01   2.79707814E-02   9.99985424E-04   1.00140820E-03   1.07761238E-04   1.06159602E-04   2.24806115E-04   8.95216431E-04   0.00000000E+00   1.06462874E-07