 TITLE = "Mineral Volumes" 
VARIABLES = "X"          "Y"              "Z"            "Forsterite"     "Enstatite(alph" "Anorthite"      "Ferropargasite" "Anhydrite"      "Clinochlore"    "Albite(low)"    "Fayalite"       "Epidote"        "Kaolinite"      "Muscovite(orde" "Sudoite"        "Saponite(Mg)"   "Scolecite"      "Pyrite"         "Quartz(alpha)" 
 ZONE I=         100 , J=           1 , K=           1  F=POINT
   1.75000000E+01   5.00000000E-01   5.00000000E-01   2.79986191E-01   2.09999014E-01   9.99682181E-03   6.99911737E-02   1.59843068E-01   1.35595822E-04   1.29803257E-01   2.79853733E-02   9.99999995E-04   9.96923276E-04   6.47474762E-05   0.00000000E+00   5.87302183E-05   9.46652650E-04   0.00000000E+00   1.73519669E-07
   5.25000000E+01   5.00000000E-01   5.00000000E-01   2.79986191E-01   2.09999014E-01   9.99682181E-03   6.99911737E-02   1.90076456E-01   6.09373853E-05   1.29855337E-01   2.79853741E-02   9.99999997E-04   9.96937688E-04   7.30620890E-05   0.00000000E+00   6.15638574E-05   9.46671230E-04   0.00000000E+00   2.24036063E-07
   8.75000000E+01   5.00000000E-01   5.00000000E-01   2.79986191E-01   2.09999015E-01   9.99682181E-03   6.99911737E-02   1.98590544E-01   3.95370929E-05   1.29879542E-01   2.79853753E-02   9.99999996E-04   9.96944091E-04   6.96898730E-05   0.00000000E+00   7.46731363E-05   9.46676423E-04   0.00000000E+00   2.47486570E-07
   1.22500000E+02   5.00000000E-01   5.00000000E-01   2.79986191E-01   2.09999015E-01   9.99682181E-03   6.99911737E-02   2.00706794E-01   3.10769308E-05   1.29892068E-01   2.79853768E-02   9.99999996E-04   9.96950038E-04   6.69289765E-05   0.00000000E+00   8.01823584E-05   9.46679138E-04   0.00000000E+00   2.57941713E-07
   1.57500000E+02   5.00000000E-01   5.00000000E-01   2.79986191E-01   2.09999015E-01   9.99682181E-03   6.99911737E-02   2.01226784E-01   2.71614449E-05   1.29898573E-01   2.79853787E-02   9.99999995E-04   9.96956478E-04   6.52447102E-05   0.00000000E+00   8.33426124E-05   9.46681493E-04   0.00000000E+00   2.61447427E-07
   1.92500000E+02   5.00000000E-01   5.00000000E-01   2.79986191E-01   2.09999015E-01   9.99682181E-03   6.99911737E-02   2.01365371E-01   2.52892900E-05   1.29901671E-01   2.79853808E-02   9.99999993E-04   9.96963589E-04   6.43516815E-05   0.00000000E+00   8.56273671E-05   9.46683906E-04   0.00000000E+00   2.60990571E-07
   2.27500000E+02   5.00000000E-01   5.00000000E-01   2.79986191E-01   2.09999015E-01   9.99682181E-03   6.99911737E-02   2.01411421E-01   2.44908176E-05   1.29902713E-01   2.79853831E-02   9.99999992E-04   9.96971399E-04   6.39872284E-05   0.00000000E+00   8.75489127E-05   9.46686421E-04   0.00000000E+00   2.58188653E-07
   2.62500000E+02   5.00000000E-01   5.00000000E-01   2.79986191E-01   2.09999015E-01   9.99682181E-03   6.99911737E-02   2.01432265E-01   2.43211742E-05   1.29902454E-01   2.79853857E-02   9.99999991E-04   9.96979905E-04   6.39707148E-05   0.00000000E+00   8.93181450E-05   9.46689004E-04   0.00000000E+00   2.53970668E-07
   2.97500000E+02   5.00000000E-01   5.00000000E-01   2.79986191E-01   2.09999015E-01   9.99682181E-03   6.99911737E-02   2.01443542E-01   2.45520018E-05   1.29901339E-01   2.79853885E-02   9.99999990E-04   9.96989104E-04   6.41838721E-05   0.00000000E+00   9.10330026E-05   9.46691617E-04   0.00000000E+00   2.48891684E-07
   3.32500000E+02   5.00000000E-01   5.00000000E-01   2.79986191E-01   2.09999015E-01   9.99682181E-03   6.99911737E-02   2.01449046E-01   2.50566401E-05   1.29899639E-01   2.79853914E-02   9.99999989E-04   9.96998998E-04   6.45494622E-05   0.00000000E+00   9.27425013E-05   9.46694224E-04   0.00000000E+00   2.43293039E-07
   3.67500000E+02   5.00000000E-01   5.00000000E-01   2.79986191E-01   2.09999015E-01   9.99682181E-03   6.99911737E-02   2.01449905E-01   2.57607346E-05   1.29897528E-01   2.79853945E-02   9.99999987E-04   9.97009593E-04   6.50164757E-05   0.00000000E+00   9.44717381E-05   9.46696799E-04   0.00000000E+00   2.37389554E-07
   4.02500000E+02   5.00000000E-01   5.00000000E-01   2.79986191E-01   2.09999015E-01   9.99682181E-03   6.99911737E-02   2.01446658E-01   2.66186866E-05   1.29895119E-01   2.79853978E-02   9.99999986E-04   9.97020900E-04   6.55506185E-05   0.00000000E+00   9.62326154E-05   9.46699323E-04   0.00000000E+00   2.31319304E-07
   4.37500000E+02   5.00000000E-01   5.00000000E-01   2.79986191E-01   2.09999015E-01   9.99682181E-03   6.99911737E-02   2.01439710E-01   2.75999089E-05   1.29892489E-01   2.79854011E-02   9.99999984E-04   9.97032932E-04   6.61289031E-05   0.00000000E+00   9.80306945E-05   9.46701777E-04   0.00000000E+00   2.25172505E-07
   4.72500000E+02   5.00000000E-01   5.00000000E-01   2.79986191E-01   2.09999015E-01   9.99682181E-03   6.99911737E-02   2.01429430E-01   2.86827293E-05   1.29889691E-01   2.79854045E-02   9.99999982E-04   9.97045706E-04   6.67357112E-05   0.00000000E+00   9.98667805E-05   9.46704150E-04   0.00000000E+00   2.19009259E-07
   5.07500000E+02   5.00000000E-01   5.00000000E-01   2.79986191E-01   2.09999015E-01   9.99682181E-03   6.99911737E-02   2.01416166E-01   2.98598477E-05   1.29886766E-01   2.79854080E-02   9.99999980E-04   9.97059234E-04   6.73568361E-05   0.00000000E+00   1.01726907E-04   9.46706429E-04   0.00000000E+00   2.12873243E-07
   5.42500000E+02   5.00000000E-01   5.00000000E-01   2.79986191E-01   2.09999015E-01   9.99682181E-03   6.99911737E-02   2.01400252E-01   3.11213734E-05   1.29883746E-01   2.79854115E-02   9.99999979E-04   9.97073531E-04   6.79827699E-05   0.00000000E+00   1.03602589E-04   9.46708607E-04   0.00000000E+00   2.06795576E-07
   5.77500000E+02   5.00000000E-01   5.00000000E-01   2.79986191E-01   2.09999015E-01   9.99682181E-03   6.99911737E-02   2.01382002E-01   3.24596324E-05   1.29880656E-01   2.79854151E-02   9.99999978E-04   9.97088612E-04   6.86061004E-05   0.00000000E+00   1.05480848E-04   9.46710675E-04   0.00000000E+00   2.00799757E-07
   6.12500000E+02   5.00000000E-01   5.00000000E-01   2.79986191E-01   2.09999015E-01   9.99682181E-03   6.99911737E-02   2.01361712E-01   3.38677686E-05   1.29877521E-01   2.79854188E-02   9.99999977E-04   9.97104492E-04   6.92209001E-05   0.00000000E+00   1.07346290E-04   9.46712627E-04   0.00000000E+00   1.94904403E-07
   6.47500000E+02   5.00000000E-01   5.00000000E-01   2.79986191E-01   2.09999015E-01   9.99682181E-03   6.99911737E-02   2.01339660E-01   3.53319137E-05   1.29874349E-01   2.79854224E-02   9.99999975E-04   9.97121144E-04   6.98041912E-05   2.85294636E-08   1.09183370E-04   9.46714443E-04   0.00000000E+00   1.89128713E-07
   6.82500000E+02   5.00000000E-01   5.00000000E-01   2.79986191E-01   2.09999015E-01   9.99682181E-03   6.99911737E-02   2.01316102E-01   3.68340003E-05   1.29871151E-01   2.79854261E-02   9.99999974E-04   9.97138523E-04   7.03299419E-05   1.19441522E-07   1.10978071E-04   9.46716098E-04   0.00000000E+00   1.83492020E-07
   7.17500000E+02   5.00000000E-01   5.00000000E-01   2.79986191E-01   2.09999016E-01   9.99682181E-03   6.99911737E-02   2.01291277E-01   3.83748295E-05   1.29867971E-01   2.79854297E-02   9.99999972E-04   9.97156709E-04   7.08273130E-05   2.20849877E-07   1.12710982E-04   9.46717618E-04   0.00000000E+00   1.78003051E-07
   7.52500000E+02   5.00000000E-01   5.00000000E-01   2.79986191E-01   2.09999016E-01   9.99682181E-03   6.99911737E-02   2.01265402E-01   3.99451203E-05   1.29864825E-01   2.79854334E-02   9.99999970E-04   9.97175715E-04   7.12943818E-05   3.33590401E-07   1.14358351E-04   9.46719003E-04   0.00000000E+00   1.72670907E-07
   7.87500000E+02   5.00000000E-01   5.00000000E-01   2.79986191E-01   2.09999016E-01   9.99682181E-03   6.99911737E-02   2.01238677E-01   4.15340165E-05   1.29861729E-01   2.79854369E-02   9.99999969E-04   9.97195552E-04   7.17297113E-05   4.58489255E-07   1.15899326E-04   9.46720252E-04   0.00000000E+00   1.67504223E-07
   8.22500000E+02   5.00000000E-01   5.00000000E-01   2.79986191E-01   2.09999016E-01   9.99682181E-03   6.99911737E-02   2.01211284E-01   4.31291903E-05   1.29858701E-01   2.79854405E-02   9.99999968E-04   9.97216236E-04   7.21326014E-05   5.96360228E-07   1.17313315E-04   9.46721366E-04   0.00000000E+00   1.62511100E-07
   8.57500000E+02   5.00000000E-01   5.00000000E-01   2.79986191E-01   2.09999016E-01   9.99682181E-03   6.99911737E-02   2.01183387E-01   4.47169276E-05   1.29855757E-01   2.79854439E-02   9.99999966E-04   9.97237782E-04   7.25031214E-05   7.47983179E-07   1.18580417E-04   9.46722348E-04   0.00000000E+00   1.57698951E-07
   8.92500000E+02   5.00000000E-01   5.00000000E-01   2.79986191E-01   2.09999016E-01   9.99682181E-03   6.99911737E-02   2.01155134E-01   4.62823118E-05   1.29852912E-01   2.79854473E-02   9.99999966E-04   9.97260212E-04   7.28420921E-05   9.14098366E-07   1.19681867E-04   9.46723200E-04   0.00000000E+00   1.53074404E-07
   9.27500000E+02   5.00000000E-01   5.00000000E-01   2.79986191E-01   2.09999016E-01   9.99682181E-03   6.99911737E-02   2.01126658E-01   4.78095191E-05   1.29850181E-01   2.79854506E-02   9.99999967E-04   9.97283550E-04   7.31510376E-05   1.09539045E-06   1.20600494E-04   9.46723927E-04   0.00000000E+00   1.48643125E-07
   9.62500000E+02   5.00000000E-01   5.00000000E-01   2.79986191E-01   2.09999016E-01   9.99682181E-03   6.99911737E-02   2.01098078E-01   4.92821586E-05   1.29847577E-01   2.79854538E-02   9.99999967E-04   9.97307823E-04   7.34321114E-05   1.29247980E-06   1.21321089E-04   9.46724534E-04   0.00000000E+00   1.44409739E-07
   9.97500000E+02   5.00000000E-01   5.00000000E-01   2.79986191E-01   2.09999016E-01   9.99682181E-03   6.99911737E-02   2.01069500E-01   5.06837288E-05   1.29845111E-01   2.79854568E-02   9.99999968E-04   9.97333065E-04   7.36879708E-05   1.50591377E-06   1.21830779E-04   9.46725027E-04   0.00000000E+00   1.40377660E-07
   1.03250000E+03   5.00000000E-01   5.00000000E-01   2.79986191E-01   2.09999016E-01   9.99682181E-03   6.99911737E-02   2.01041015E-01   5.19979895E-05   1.29842796E-01   2.79854596E-02   9.99999970E-04   9.97359313E-04   7.39216826E-05   1.73615510E-06   1.22119443E-04   9.46725411E-04   0.00000000E+00   1.36549045E-07
   1.06750000E+03   5.00000000E-01   5.00000000E-01   2.79986191E-01   2.09999017E-01   9.99682181E-03   6.99911737E-02   2.01012706E-01   5.32096442E-05   1.29840638E-01   2.79854623E-02   9.99999971E-04   9.97386608E-04   7.41364806E-05   1.98358550E-06   1.22179927E-04   9.46725693E-04   0.00000000E+00   1.32924608E-07
   1.10250000E+03   5.00000000E-01   5.00000000E-01   2.79986191E-01   2.09999017E-01   9.99682182E-03   6.99911737E-02   2.00984645E-01   5.43046070E-05   1.29838645E-01   2.79854648E-02   9.99999972E-04   9.97414996E-04   7.43356928E-05   2.24849918E-06   1.22008401E-04   9.46725879E-04   0.00000000E+00   1.29503654E-07
   1.13750000E+03   5.00000000E-01   5.00000000E-01   2.79986191E-01   2.09999017E-01   9.99682182E-03   6.99911737E-02   2.00956893E-01   5.52708037E-05   1.29836820E-01   2.79854670E-02   9.99999972E-04   9.97444523E-04   7.45224472E-05   2.53109656E-06   1.21604368E-04   9.46725974E-04   0.00000000E+00   1.26283934E-07
   1.17250000E+03   5.00000000E-01   5.00000000E-01   2.79986191E-01   2.09999017E-01   9.99682182E-03   6.99911737E-02   2.00929504E-01   5.60982683E-05   1.29835166E-01   2.79854691E-02   9.99999973E-04   9.97475240E-04   7.46996100E-05   2.83151906E-06   1.20971000E-04   9.46725984E-04   0.00000000E+00   1.23261779E-07
   1.20750000E+03   5.00000000E-01   5.00000000E-01   2.79986191E-01   2.09999017E-01   9.99682182E-03   6.99911737E-02   2.00902523E-01   5.67799171E-05   1.29833684E-01   2.79854709E-02   9.99999975E-04   9.97507196E-04   7.48695201E-05   3.14980691E-06   1.20114901E-04   9.46725914E-04   0.00000000E+00   1.20431857E-07
   1.24250000E+03   5.00000000E-01   5.00000000E-01   2.79986191E-01   2.09999017E-01   9.99682182E-03   6.99911737E-02   2.00875988E-01   5.73113864E-05   1.29832369E-01   2.79854724E-02   9.99999976E-04   9.97540439E-04   7.50339963E-05   3.48595533E-06   1.19046334E-04   9.46725767E-04   0.00000000E+00   1.17787970E-07
   1.27750000E+03   5.00000000E-01   5.00000000E-01   2.79986191E-01   2.09999017E-01   9.99682182E-03   6.99911737E-02   2.00849933E-01   5.76918445E-05   1.29831219E-01   2.79854737E-02   9.99999978E-04   9.97575012E-04   7.51940389E-05   3.83987336E-06   1.17778600E-04   9.46725545E-04   0.00000000E+00   1.15322951E-07
   1.31250000E+03   5.00000000E-01   5.00000000E-01   2.79986192E-01   2.09999017E-01   9.99682182E-03   6.99911737E-02   2.00824382E-01   5.79234549E-05   1.29830226E-01   2.79854747E-02   9.99999979E-04   9.97610957E-04   7.53499816E-05   4.21142294E-06   1.16328112E-04   9.46725251E-04   0.00000000E+00   1.13028047E-07
   1.34750000E+03   5.00000000E-01   5.00000000E-01   2.79986192E-01   2.09999018E-01   9.99682182E-03   6.99911737E-02   2.00799357E-01   5.80113304E-05   1.29829382E-01   2.79854754E-02   9.99999980E-04   9.97648307E-04   7.55014565E-05   4.60044396E-06   1.14713984E-04   9.46724885E-04   0.00000000E+00   1.10893453E-07
   1.38250000E+03   5.00000000E-01   5.00000000E-01   2.79986193E-01   2.09999018E-01   9.99682182E-03   6.99911737E-02   2.00774876E-01   5.79632010E-05   1.29828677E-01   2.79854759E-02   9.99999980E-04   9.97687091E-04   7.56474903E-05   5.00675675E-06   1.12957608E-04   9.46724447E-04   0.00000000E+00   1.08908633E-07
   1.41750000E+03   5.00000000E-01   5.00000000E-01   2.79986194E-01   2.09999018E-01   9.99682182E-03   6.99911737E-02   2.00750949E-01   5.77890881E-05   1.29828099E-01   2.79854761E-02   9.99999979E-04   9.97727326E-04   7.57865695E-05   5.43019067E-06   1.11082089E-04   9.46723936E-04   0.00000000E+00   1.07062395E-07
   1.45250000E+03   5.00000000E-01   5.00000000E-01   2.79986195E-01   2.09999018E-01   9.99682182E-03   6.99911737E-02   2.00727586E-01   5.75008591E-05   1.29827635E-01   2.79854760E-02   9.99999977E-04   9.97769023E-04   7.59167627E-05   5.87059459E-06   1.09111631E-04   9.46723352E-04   0.00000000E+00   1.05343009E-07
   1.48750000E+03   5.00000000E-01   5.00000000E-01   2.79986197E-01   2.09999018E-01   9.99682182E-03   6.99911737E-02   2.00704793E-01   5.71118713E-05   1.29827272E-01   2.79854757E-02   9.99999973E-04   9.97812186E-04   7.60357921E-05   6.32786132E-06   1.07070794E-04   9.46722693E-04   0.00000000E+00   1.03738600E-07
   1.52250000E+03   5.00000000E-01   5.00000000E-01   2.79986199E-01   2.09999018E-01   9.99682182E-03   6.99911737E-02   2.00682572E-01   5.66361968E-05   1.29826995E-01   2.79854752E-02   9.99999967E-04   9.97856807E-04   7.61412657E-05   6.80194573E-06   1.04984028E-04   9.46721956E-04   0.00000000E+00   1.02237191E-07
   1.55750000E+03   5.00000000E-01   5.00000000E-01   2.79986202E-01   2.09999019E-01   9.99682183E-03   6.99911737E-02   2.00660924E-01   5.60883126E-05   1.29826790E-01   2.79854744E-02   9.99999958E-04   9.97902874E-04   7.62307357E-05   7.29287424E-06   1.02874957E-04   9.46721142E-04   0.00000000E+00   1.00826923E-07
   1.59250000E+03   5.00000000E-01   5.00000000E-01   2.79986206E-01   2.09999019E-01   9.99682183E-03   6.99911737E-02   2.00639846E-01   5.54825152E-05   1.29826644E-01   2.79854734E-02   9.99999944E-04   9.97950364E-04   7.63018535E-05   7.80076014E-06   1.00765926E-04   9.46720248E-04   0.00000000E+00   9.94962991E-08
   1.62750000E+03   5.00000000E-01   5.00000000E-01   2.79986212E-01   2.09999019E-01   9.99682183E-03   6.99911737E-02   2.00619334E-01   5.48325070E-05   1.29826542E-01   2.79854721E-02   9.99999924E-04   9.97999252E-04   7.63524693E-05   8.32580444E-06   9.86775886E-05   9.46719274E-04   0.00000000E+00   9.82343566E-08
   1.66250000E+03   5.00000000E-01   5.00000000E-01   2.79986218E-01   2.09999019E-01   9.99682183E-03   6.99911737E-02   2.00599384E-01   5.41511666E-05   1.29826471E-01   2.79854707E-02   9.99999896E-04   9.98049504E-04   7.63806545E-05   8.86830670E-06   9.66285157E-05   9.46718220E-04   0.00000000E+00   9.70308055E-08
   1.69750000E+03   5.00000000E-01   5.00000000E-01   2.79986226E-01   2.09999019E-01   9.99682183E-03   6.99911737E-02   2.00579987E-01   5.34502246E-05   1.29826419E-01   2.79854692E-02   9.99999856E-04   9.98101084E-04   7.63847793E-05   9.42865264E-06   9.46350576E-05   9.46717086E-04   0.00000000E+00   9.58761079E-08
   1.73250000E+03   5.00000000E-01   5.00000000E-01   2.79986236E-01   2.09999020E-01   9.99682183E-03   6.99911737E-02   2.00561137E-01   5.27401307E-05   1.29826374E-01   2.79854674E-02   9.99999802E-04   9.98153950E-04   7.63635159E-05   1.00073134E-05   9.27112097E-05   9.46715873E-04   0.00000000E+00   9.47615305E-08
   1.76750000E+03   5.00000000E-01   5.00000000E-01   2.79986246E-01   2.09999020E-01   9.99682184E-03   6.99911737E-02   2.00542823E-01   5.20300068E-05   1.29826326E-01   2.79854655E-02   9.99999729E-04   9.98208060E-04   7.63158266E-05   1.06048288E-05   9.08686074E-05   9.46714582E-04   0.00000000E+00   9.36792744E-08
   1.80250000E+03   5.00000000E-01   5.00000000E-01   2.79986259E-01   2.09999020E-01   9.99682184E-03   6.99911737E-02   2.00525037E-01   5.13276050E-05   1.29826267E-01   2.79854635E-02   9.99999634E-04   9.98263367E-04   7.62409537E-05   1.12217934E-05   8.91166055E-05   9.46713216E-04   0.00000000E+00   9.26224038E-08
   1.83750000E+03   5.00000000E-01   5.00000000E-01   2.79986272E-01   2.09999020E-01   9.99682184E-03   6.99911737E-02   2.00507768E-01   5.06393580E-05   1.29826187E-01   2.79854614E-02   9.99999510E-04   9.98319823E-04   7.61383875E-05   1.18588429E-05   8.74624280E-05   9.46711777E-04   0.00000000E+00   9.15848954E-08
   1.87250000E+03   5.00000000E-01   5.00000000E-01   2.79986286E-01   2.09999020E-01   9.99682184E-03   6.99911737E-02   2.00491006E-01   4.99704305E-05   1.29826082E-01   2.79854592E-02   9.99999352E-04   9.98377379E-04   7.60078365E-05   1.25166365E-05   8.59114040E-05   9.46710268E-04   0.00000000E+00   9.05615888E-08
   1.90750000E+03   5.00000000E-01   5.00000000E-01   2.79986302E-01   2.09999021E-01   9.99682185E-03   6.99911737E-02   2.00474738E-01   4.93248722E-05   1.29825944E-01   2.79854569E-02   9.99999153E-04   9.98435983E-04   7.58491812E-05   1.31958376E-05   8.44671273E-05   9.46708693E-04   0.00000000E+00   8.95481441E-08
   1.94250000E+03   5.00000000E-01   5.00000000E-01   2.79986318E-01   2.09999021E-01   9.99682185E-03   6.99911737E-02   2.00458955E-01   4.87057650E-05   1.29825769E-01   2.79854545E-02   9.99998906E-04   9.98495583E-04   7.56624220E-05   1.38970965E-05   8.31317477E-05   9.46707056E-04   0.00000000E+00   8.85409372E-08
   1.97750000E+03   5.00000000E-01   5.00000000E-01   2.79986336E-01   2.09999021E-01   9.99682185E-03   6.99911737E-02   2.00443644E-01   4.81152413E-05   1.29825554E-01   2.79854521E-02   9.99998603E-04   9.98556124E-04   7.54476849E-05   1.46210384E-05   8.19062829E-05   9.46705361E-04   0.00000000E+00   8.75370640E-08
   2.01250000E+03   5.00000000E-01   5.00000000E-01   2.79986354E-01   2.09999021E-01   9.99682185E-03   6.99911737E-02   2.00428794E-01   4.75547816E-05   1.29825295E-01   2.79854497E-02   9.99998233E-04   9.98617550E-04   7.52051301E-05   1.53682473E-05   8.07907718E-05   9.46703611E-04   0.00000000E+00   8.65342137E-08
   2.04750000E+03   5.00000000E-01   5.00000000E-01   2.79986373E-01   2.09999021E-01   9.99682186E-03   6.99911737E-02   2.00414394E-01   4.70251896E-05   1.29824992E-01   2.79854472E-02   9.99997788E-04   9.98679805E-04   7.49349852E-05   1.61392487E-05   7.97846122E-05   9.46701812E-04   0.00000000E+00   8.55306265E-08
   2.08250000E+03   5.00000000E-01   5.00000000E-01   2.79986392E-01   2.09999022E-01   9.99682186E-03   6.99911737E-02   2.00400432E-01   4.65267695E-05   1.29824642E-01   2.79854447E-02   9.99997257E-04   9.98742828E-04   7.46374976E-05   1.69345086E-05   7.88867153E-05   9.46699968E-04   0.00000000E+00   8.45250284E-08
   2.11750000E+03   5.00000000E-01   5.00000000E-01   2.79986412E-01   2.09999022E-01   9.99682187E-03   6.99911737E-02   2.00386898E-01   4.60594875E-05   1.29824244E-01   2.79854422E-02   9.99996628E-04   9.98806558E-04   7.43129071E-05   1.77544162E-05   7.80956215E-05   9.46698083E-04   0.00000000E+00   8.35164625E-08
   2.15250000E+03   5.00000000E-01   5.00000000E-01   2.79986433E-01   2.09999022E-01   9.99682187E-03   6.99911737E-02   2.00373780E-01   4.55628587E-05   1.29823799E-01   2.79854397E-02   9.99995889E-04   9.98871198E-04   7.39751597E-05   1.86048008E-05   7.74789076E-05   9.46696167E-04   0.00000000E+00   8.25021076E-08
   2.18750000E+03   5.00000000E-01   5.00000000E-01   2.79986454E-01   2.09999022E-01   9.99682187E-03   6.99911737E-02   2.00361067E-01   4.50486380E-05   1.29823304E-01   2.79854372E-02   9.99995028E-04   9.98936631E-04   7.36209772E-05   1.94881571E-05   7.70058423E-05   9.46694221E-04   0.00000000E+00   8.14807605E-08
   2.22250000E+03   5.00000000E-01   5.00000000E-01   2.79986475E-01   2.09999022E-01   9.99682188E-03   6.99911737E-02   2.00348750E-01   4.45544332E-05   1.29822759E-01   2.79854348E-02   9.99994035E-04   9.99002619E-04   7.32411957E-05   2.04019170E-05   7.66359940E-05   9.46692249E-04   0.00000000E+00   8.04528093E-08
   2.25750000E+03   5.00000000E-01   5.00000000E-01   2.79986497E-01   2.09999023E-01   9.99682188E-03   6.99911737E-02   2.00336817E-01   4.40857909E-05   1.29822165E-01   2.79854324E-02   9.99992900E-04   9.99069053E-04   7.28339441E-05   2.13452103E-05   7.63688064E-05   9.46690253E-04   0.00000000E+00   7.94186720E-08
   2.29250000E+03   5.00000000E-01   5.00000000E-01   2.79986520E-01   2.09999023E-01   9.99682189E-03   6.99911737E-02   2.00325260E-01   4.36482871E-05   1.29821523E-01   2.79854300E-02   9.99991616E-04   9.99135822E-04   7.23977559E-05   2.23172700E-05   7.61972327E-05   9.46688239E-04   0.00000000E+00   7.83790021E-08
   2.32750000E+03   5.00000000E-01   5.00000000E-01   2.79986543E-01   2.09999023E-01   9.99682189E-03   6.99911737E-02   2.00314068E-01   4.32419258E-05   1.29820835E-01   2.79854277E-02   9.99990179E-04   9.99202839E-04   7.19325482E-05   2.33175418E-05   7.61209363E-05   9.46686210E-04   0.00000000E+00   7.73344243E-08
   2.36250000E+03   5.00000000E-01   5.00000000E-01   2.79986566E-01   2.09999023E-01   9.99682190E-03   6.99911737E-02   2.00303232E-01   4.28590929E-05   1.29820102E-01   2.79854254E-02   9.99988593E-04   9.99270060E-04   7.14401301E-05   2.43460618E-05   7.61474426E-05   9.46684172E-04   0.00000000E+00   7.62856507E-08
   2.39750000E+03   5.00000000E-01   5.00000000E-01   2.79986591E-01   2.09999024E-01   9.99682190E-03   6.99911737E-02   2.00292742E-01   4.24937503E-05   1.29819325E-01   2.79854232E-02   9.99986869E-04   9.99337431E-04   7.09219224E-05   2.54029852E-05   7.62812479E-05   9.46682128E-04   0.00000000E+00   7.52338893E-08
   2.43250000E+03   5.00000000E-01   5.00000000E-01   2.79986616E-01   2.09999024E-01   9.99682191E-03   6.99911737E-02   2.00282590E-01   4.21543677E-05   1.29818506E-01   2.79854211E-02   9.99985032E-04   9.99404813E-04   7.03760137E-05   2.64871527E-05   7.65111932E-05   9.46680084E-04   0.00000000E+00   7.41796412E-08
   2.46750000E+03   5.00000000E-01   5.00000000E-01   2.79986644E-01   2.09999024E-01   9.99682191E-03   6.99911737E-02   2.00272766E-01   4.18411432E-05   1.29817647E-01   2.79854190E-02   9.99983117E-04   9.99472105E-04   6.98022863E-05   2.75977463E-05   7.68387618E-05   9.46678043E-04   0.00000000E+00   7.31233961E-08
   2.50250000E+03   5.00000000E-01   5.00000000E-01   2.79986674E-01   2.09999024E-01   9.99682192E-03   6.99911737E-02   2.00263262E-01   4.15527287E-05   1.29816748E-01   2.79854170E-02   9.99981173E-04   9.99539215E-04   6.92011466E-05   2.87341174E-05   7.72657599E-05   9.46676008E-04   0.00000000E+00   7.20655122E-08
   2.53750000E+03   5.00000000E-01   5.00000000E-01   2.79986706E-01   2.09999025E-01   9.99682192E-03   6.99911737E-02   2.00254071E-01   4.12879237E-05   1.29815811E-01   2.79854151E-02   9.99979258E-04   9.99606049E-04   6.85729641E-05   2.98955220E-05   7.77944514E-05   9.46673984E-04   0.00000000E+00   7.10063038E-08
   2.57250000E+03   5.00000000E-01   5.00000000E-01   2.79986743E-01   2.09999025E-01   9.99682193E-03   6.99911737E-02   2.00245183E-01   4.10447275E-05   1.29814837E-01   2.79854132E-02   9.99977451E-04   9.99672514E-04   6.79182333E-05   3.10815034E-05   7.84275473E-05   9.46671974E-04   0.00000000E+00   6.99460442E-08
   2.60750000E+03   5.00000000E-01   5.00000000E-01   2.79986784E-01   2.09999025E-01   9.99682194E-03   6.99911737E-02   2.00236590E-01   4.08216764E-05   1.29813827E-01   2.79854114E-02   9.99975839E-04   9.99738518E-04   6.72371869E-05   3.22915909E-05   7.91681693E-05   9.46669981E-04   0.00000000E+00   6.88848885E-08
   2.64250000E+03   5.00000000E-01   5.00000000E-01   2.79986831E-01   2.09999025E-01   9.99682194E-03   6.99911737E-02   2.00228285E-01   4.06168353E-05   1.29812782E-01   2.79854097E-02   9.99974516E-04   9.99803961E-04   6.65302927E-05   3.35253282E-05   8.00198094E-05   9.46668009E-04   0.00000000E+00   6.78228603E-08
   2.67750000E+03   5.00000000E-01   5.00000000E-01   2.79986884E-01   2.09999026E-01   9.99682195E-03   6.99911737E-02   2.00220258E-01   4.04090292E-05   1.29811703E-01   2.79854080E-02   9.99973585E-04   9.99868869E-04   6.58018959E-05   3.47844436E-05   8.10088226E-05   9.46666060E-04   0.00000000E+00   6.67591337E-08
   2.71250000E+03   5.00000000E-01   5.00000000E-01   2.79986945E-01   2.09999026E-01   9.99682195E-03   6.99911737E-02   2.00212505E-01   4.02096866E-05   1.29810590E-01   2.79854063E-02   9.99973142E-04   9.99933057E-04   6.50496958E-05   3.60676475E-05   8.21205733E-05   9.46664139E-04   0.00000000E+00   6.56937693E-08
   2.74750000E+03   5.00000000E-01   5.00000000E-01   2.79986991E-01   2.09999026E-01   9.99682196E-03   6.99911737E-02   2.00205017E-01   4.00376205E-05   1.29809444E-01   2.79854046E-02   9.99972769E-04   9.99996299E-04   6.42717547E-05   3.73683516E-05   8.33550962E-05   9.46662245E-04   0.00000000E+00   6.46258866E-08
   2.78250000E+03   5.00000000E-01   5.00000000E-01   2.79987039E-01   2.09999027E-01   9.99682197E-03   6.99911737E-02   2.00197786E-01   3.98892225E-05   1.29808265E-01   2.79854031E-02   9.99972345E-04   1.00005850E-03   6.34687183E-05   3.86867533E-05   8.47169162E-05   9.46660383E-04   0.00000000E+00   6.35571094E-08
   2.81750000E+03   5.00000000E-01   5.00000000E-01   2.79987087E-01   2.09999027E-01   9.99682198E-03   6.99911737E-02   2.00190806E-01   3.97622857E-05   1.29807054E-01   2.79854016E-02   9.99972004E-04   1.00011955E-03   6.26413835E-05   4.00222062E-05   8.62106175E-05   9.46658553E-04   0.00000000E+00   6.24857821E-08
   2.85250000E+03   5.00000000E-01   5.00000000E-01   2.79987137E-01   2.09999027E-01   9.99682198E-03   6.99911737E-02   2.00184070E-01   3.96584716E-05   1.29805811E-01   2.79854002E-02   9.99971934E-04   1.00017932E-03   6.17902411E-05   4.13725417E-05   8.78408232E-05   9.46656759E-04   0.00000000E+00   6.14107948E-08
   2.88750000E+03   5.00000000E-01   5.00000000E-01   2.79987188E-01   2.09999028E-01   9.99682199E-03   6.99911737E-02   2.00177569E-01   3.95801020E-05   1.29804537E-01   2.79853988E-02   9.99972261E-04   1.00023768E-03   6.09157785E-05   4.27353368E-05   8.96121127E-05   9.46655001E-04   0.00000000E+00   6.03321051E-08
   2.92250000E+03   5.00000000E-01   5.00000000E-01   2.79987239E-01   2.09999028E-01   9.99682200E-03   6.99911737E-02   2.00171299E-01   3.95289693E-05   1.29803232E-01   2.79853975E-02   9.99973028E-04   1.00029451E-03   6.00185806E-05   4.41084176E-05   9.15289172E-05   9.46653282E-04   0.00000000E+00   5.92549736E-08
   2.95750000E+03   5.00000000E-01   5.00000000E-01   2.79987291E-01   2.09999028E-01   9.99682201E-03   6.99911737E-02   2.00165251E-01   3.95069829E-05   1.29801897E-01   2.79853962E-02   9.99974215E-04   1.00034968E-03   5.90993250E-05   4.54895433E-05   9.35954016E-05   9.46651603E-04   0.00000000E+00   5.81731124E-08
   2.99250000E+03   5.00000000E-01   5.00000000E-01   2.79987342E-01   2.09999028E-01   9.99682201E-03   6.99911737E-02   2.00159419E-01   3.95154572E-05   1.29800532E-01   2.79853950E-02   9.99975766E-04   1.00040307E-03   5.81587725E-05   4.68767506E-05   9.58153352E-05   9.46649966E-04   0.00000000E+00   5.70861736E-08
   3.02750000E+03   5.00000000E-01   5.00000000E-01   2.79987393E-01   2.09999029E-01   9.99682202E-03   6.99911737E-02   2.00153796E-01   3.95559259E-05   1.29799137E-01   2.79853938E-02   9.99977604E-04   1.00045456E-03   5.71977001E-05   4.82680329E-05   9.81919513E-05   9.46648370E-04   0.00000000E+00   5.59937970E-08
   3.06250000E+03   5.00000000E-01   5.00000000E-01   2.79987443E-01   2.09999029E-01   9.99682203E-03   6.99911737E-02   2.00148375E-01   3.96299733E-05   1.29797713E-01   2.79853927E-02   9.99979642E-04   1.00050402E-03   5.62169379E-05   4.96613745E-05   1.00727798E-04   9.46646818E-04   0.00000000E+00   5.48956193E-08
   3.09750000E+03   5.00000000E-01   5.00000000E-01   2.79987492E-01   2.09999029E-01   9.99682204E-03   6.99911737E-02   2.00143151E-01   3.97391929E-05   1.29796260E-01   2.79853916E-02   9.99981785E-04   1.00055134E-03   5.52173966E-05   5.10547463E-05   1.03424582E-04   9.46645310E-04   0.00000000E+00   5.37912842E-08
   3.13250000E+03   5.00000000E-01   5.00000000E-01   2.79987540E-01   2.09999030E-01   9.99682205E-03   6.99911737E-02   2.00138116E-01   3.98852454E-05   1.29794778E-01   2.79853905E-02   9.99983945E-04   1.00059640E-03   5.42000473E-05   5.24460939E-05   1.06283007E-04   9.46643846E-04   0.00000000E+00   5.26817154E-08
   3.16750000E+03   5.00000000E-01   5.00000000E-01   2.79987586E-01   2.09999030E-01   9.99682206E-03   6.99911737E-02   2.00133264E-01   4.00697882E-05   1.29793269E-01   2.79853894E-02   9.99986030E-04   1.00063909E-03   5.31658888E-05   5.38334218E-05   1.09302616E-04   9.46642427E-04   0.00000000E+00   5.15744898E-08