 TITLE = "Mineral Volumes" 
VARIABLES = "X"          "Y"              "Z"            "Forsterite"     "Fayalite"       "Brucite"        "Lizardite"      "Chrysotile"     "Hematite"       "Magnetite(am)"  "Saponite(Ca)"   "Saponite(K)"    "Saponite(Mg)"   "Saponite(Na)"   "Beidellite(Ca)" "Beidellite(K)"  "Beidellite(Mg)" "Beidellite(Na)" "Enstatite(alph" "Ferrosilite(al" "Anorthite"      "Albite(low)"    "Clinochlore"    "Sudoite"        "Montmor(MgCa)"  "Montmor(MgK)"   "Montmor(MgMg)"  "Montmor(MgNa)"  "Kaolinite"      "Tremolite"      "Pargasite"      "Anhydrite"      "Epidote"        "Scolecite"      "Pyrite"         "FeS(am)"        "Quartz(alpha)" 
 ZONE I=         200 , J=           1 , K=           1  F=POINT
   8.75000000E+00   5.00000000E-01   5.00000000E-01   1.07797980E-01   1.09157823E-01   0.00000000E+00   0.00000000E+00   0.00000000E+00   1.85393605E-04   0.00000000E+00   1.00721949E-10   1.95826549E-04   1.38209917E-10   2.72272011E-05   9.81224035E-11   9.98076330E-11   9.81360329E-11   9.81173102E-11   4.99976413E-02   4.99979326E-02   6.53725892E-02   6.88862517E-02   1.92594038E-02   2.27884826E-10   9.95849313E-11   9.95778820E-11   9.95880030E-11   9.95839906E-11   9.98711074E-04   6.51314532E-02   6.49685628E-02   0.00000000E+00   8.29890815E-03   8.59996746E-11   9.34136070E-11   9.51394439E-11   1.00097563E-10
   2.62500000E+01   5.00000000E-01   5.00000000E-01   1.07797980E-01   1.09161897E-01   0.00000000E+00   0.00000000E+00   0.00000000E+00   1.85393604E-04   0.00000000E+00   1.00896160E-10   1.15434275E-03   1.48746997E-10   1.59834481E-04   9.81224195E-11   9.98076552E-11   9.81361056E-11   9.81175018E-11   4.99976387E-02   4.99980223E-02   6.53725892E-02   6.90144240E-02   1.88524239E-02   1.81065428E-10   9.95853089E-11   9.95868219E-11   9.95895908E-11   9.95903837E-11   9.98711158E-04   6.51636862E-02   6.49685628E-02   0.00000000E+00   8.29890815E-03   8.59997115E-11   9.34136070E-11   9.51395114E-11   1.00154141E-10
   4.37500000E+01   5.00000000E-01   5.00000000E-01   1.07797980E-01   1.09165214E-01   0.00000000E+00   0.00000000E+00   0.00000000E+00   1.85393603E-04   0.00000000E+00   1.00965311E-10   1.40932579E-03   1.52987874E-10   2.20205278E-04   9.81226530E-11   9.98079629E-11   9.81371644E-11   9.81202212E-11   4.99976372E-02   4.99980884E-02   6.53725892E-02   6.94162402E-02   1.83501235E-02   1.21556139E-10   9.95883067E-11   9.96540854E-11   9.96021837E-11   9.96396550E-11   9.98711799E-04   6.51787944E-02   6.49685628E-02   0.00000000E+00   8.29890815E-03   8.59999487E-11   9.34136070E-11   9.51395396E-11   1.00200784E-10
   6.12500000E+01   5.00000000E-01   5.00000000E-01   1.07797980E-01   1.09168825E-01   0.00000000E+00   0.00000000E+00   0.00000000E+00   1.85393603E-04   0.00000000E+00   1.01033064E-10   1.72287998E-03   1.57384481E-10   3.08296241E-04   9.81233622E-11   9.98088435E-11   9.81403749E-11   9.81282194E-11   4.99976368E-02   4.99981561E-02   6.53725892E-02   6.99862660E-02   1.76488044E-02   6.93291691E-11   9.95953270E-11   9.98016154E-11   9.96316424E-11   9.97509613E-11   9.98713040E-04   6.51908418E-02   6.49685628E-02   0.00000000E+00   8.29890816E-03   8.60003972E-11   9.34136070E-11   9.51395620E-11   1.00237137E-10
   7.87500000E+01   5.00000000E-01   5.00000000E-01   1.07797980E-01   1.09173091E-01   0.00000000E+00   0.00000000E+00   0.00000000E+00   1.85393603E-04   0.00000000E+00   1.01121677E-10   2.11204347E-03   1.63183970E-10   4.35754387E-04   9.81245185E-11   9.98101854E-11   9.81456007E-11   9.81407909E-11   4.99976368E-02   4.99982260E-02   6.53725892E-02   7.05646072E-02   1.69103342E-02   3.97157395E-11   9.96051019E-11   9.99919195E-11   9.96726146E-11   9.98996220E-11   9.98714549E-04   6.52110879E-02   6.49685628E-02   0.00000000E+00   8.29890816E-03   8.60009403E-11   9.34136070E-11   9.51395812E-11   1.00263434E-10
   9.62500000E+01   5.00000000E-01   5.00000000E-01   1.07797980E-01   1.09178130E-01   0.00000000E+00   0.00000000E+00   0.00000000E+00   1.85393603E-04   0.00000000E+00   1.01223566E-10   2.43823758E-03   1.69975353E-10   5.83439990E-04   9.81259280E-11   9.98117003E-11   9.81519585E-11   9.81554946E-11   4.99976371E-02   4.99982971E-02   6.53725892E-02   7.10601458E-02   1.62698540E-02   2.63793026E-11   9.96156965E-11   1.00180481E-10   9.97169714E-11   1.00053151E-10   9.98716060E-04   6.52365029E-02   6.49685628E-02   0.00000000E+00   8.29890816E-03   8.60014851E-11   9.34136070E-11   9.51395977E-11   1.00281417E-10
   1.13750000E+02   5.00000000E-01   5.00000000E-01   1.07797980E-01   1.09183960E-01   0.00000000E+00   0.00000000E+00   0.00000000E+00   1.85393603E-04   0.00000000E+00   1.01328560E-10   2.63757602E-03   1.77153620E-10   7.33772327E-04   9.81273272E-11   9.98130692E-11   9.81582568E-11   9.81693800E-11   4.99976375E-02   4.99983692E-02   6.53725892E-02   7.14332387E-02   1.57893358E-02   2.04915905E-11   9.96254074E-11   1.00334686E-10   9.97575733E-11   1.00185653E-10   9.98717344E-04   6.52639664E-02   6.49685628E-02   0.00000000E+00   8.29890816E-03   8.60019587E-11   9.34136070E-11   9.51396118E-11   1.00293314E-10
   1.31250000E+02   5.00000000E-01   5.00000000E-01   1.07797980E-01   1.09190611E-01   0.00000000E+00   0.00000000E+00   0.00000000E+00   1.85393602E-04   0.00000000E+00   1.01432442E-10   2.71052837E-03   1.84456348E-10   8.77060307E-04   9.81285157E-11   9.98140925E-11   9.81635916E-11   9.81804194E-11   4.99976380E-02   4.99984427E-02   6.53725892E-02   7.16837455E-02   1.54712117E-02   1.77644334E-11   9.96332999E-11   1.00441492E-10   9.97905140E-11   1.00284934E-10   9.98718271E-04   6.52916192E-02   6.49685628E-02   0.00000000E+00   8.29890817E-03   8.60023227E-11   9.34136070E-11   9.51396237E-11   1.00301106E-10
   1.48750000E+02   5.00000000E-01   5.00000000E-01   1.07797980E-01   1.09198149E-01   0.00000000E+00   0.00000000E+00   0.00000000E+00   1.85393602E-04   0.00000000E+00   1.01535103E-10   2.68299923E-03   1.91884981E-10   1.00936206E-03   9.81294093E-11   9.98147233E-11   9.81675878E-11   9.81879514E-11   4.99976386E-02   4.99985182E-02   6.53725892E-02   7.18323667E-02   1.52882058E-02   1.64416023E-11   9.96391866E-11   1.00503270E-10   9.98150243E-11   1.00350644E-10   9.98718827E-04   6.53185036E-02   6.49685628E-02   0.00000000E+00   8.29890817E-03   8.60025726E-11   9.34136070E-11   9.51396338E-11   1.00306287E-10
   1.66250000E+02   5.00000000E-01   5.00000000E-01   1.07797980E-01   1.09206621E-01   0.00000000E+00   0.00000000E+00   0.00000000E+00   1.85393602E-04   0.00000000E+00   1.01637190E-10   2.58871493E-03   1.99490807E-10   1.13047637E-03   9.81300279E-11   9.98150262E-11   9.81703393E-11   9.81924062E-11   4.99976393E-02   4.99985957E-02   6.53725892E-02   7.19070782E-02   1.52025027E-02   1.57782893E-11   9.96433829E-11   1.00530626E-10   9.98324385E-11   1.00389495E-10   9.98719080E-04   6.53440856E-02   6.49685628E-02   0.00000000E+00   8.29890817E-03   8.60027280E-11   9.34136070E-11   9.51396419E-11   1.00309847E-10
   1.83750000E+02   5.00000000E-01   5.00000000E-01   1.07797980E-01   1.09215999E-01   0.00000000E+00   0.00000000E+00   0.00000000E+00   1.85393602E-04   0.00000000E+00   1.01738435E-10   2.45845805E-03   2.07249477E-10   1.24236069E-03   9.81304498E-11   9.98151121E-11   9.81722014E-11   9.81947411E-11   4.99976401E-02   4.99986746E-02   6.53725892E-02   7.19347108E-02   1.51776874E-02   1.54383220E-11   9.96464239E-11   1.00536148E-10   9.98450061E-11   1.00410593E-10   9.98719134E-04   6.53680347E-02   6.49685628E-02   0.00000000E+00   8.29890817E-03   8.60028190E-11   9.34136070E-11   9.51396479E-11   1.00312363E-10
   2.01250000E+02   5.00000000E-01   5.00000000E-01   1.07797980E-01   1.09226260E-01   0.00000000E+00   0.00000000E+00   0.00000000E+00   1.85393602E-04   0.00000000E+00   1.01839394E-10   2.30801077E-03   2.15190389E-10   1.34512694E-03   9.81307302E-11   9.98150556E-11   9.81734256E-11   9.81956179E-11   4.99976410E-02   4.99987545E-02   6.53725892E-02   7.19323095E-02   1.51918357E-02   1.52603048E-11   9.96486756E-11   1.00528014E-10   9.98542657E-11   1.00420002E-10   9.98719054E-04   6.53905607E-02   6.49685628E-02   0.00000000E+00   8.29890817E-03   8.60028655E-11   9.34136070E-11   9.51396517E-11   1.00314192E-10
   2.18750000E+02   5.00000000E-01   5.00000000E-01   1.07797980E-01   1.09237392E-01   0.00000000E+00   0.00000000E+00   0.00000000E+00   1.85393601E-04   0.00000000E+00   1.01941219E-10   2.14560589E-03   2.23388433E-10   1.43762282E-03   9.81308959E-11   9.98148965E-11   9.81741334E-11   9.81953782E-11   4.99976419E-02   4.99988351E-02   6.53725892E-02   7.19094663E-02   1.52330702E-02   1.51641705E-11   9.96503276E-11   1.00510649E-10   9.98610142E-11   1.00420975E-10   9.98718876E-04   6.54123865E-02   6.49685628E-02   0.00000000E+00   8.29890817E-03   8.60028774E-11   9.34136070E-11   9.51396536E-11   1.00315568E-10
   2.36250000E+02   5.00000000E-01   5.00000000E-01   1.07797980E-01   1.09249274E-01   0.00000000E+00   0.00000000E+00   0.00000000E+00   1.85393601E-04   0.00000000E+00   1.02042994E-10   1.98095153E-03   2.31754163E-10   1.52120570E-03   9.81309861E-11   9.98146794E-11   9.81745016E-11   9.81944480E-11   4.99976429E-02   4.99989158E-02   6.53725892E-02   7.18749799E-02   1.52893674E-02   1.51101622E-11   9.96516068E-11   1.00488353E-10   9.98662034E-11   1.00416951E-10   9.98718640E-04   6.54342020E-02   6.49685628E-02   0.00000000E+00   8.29890818E-03   8.60028671E-11   9.34136070E-11   9.51396536E-11   1.00316611E-10
   2.53750000E+02   5.00000000E-01   5.00000000E-01   1.07797980E-01   1.09261784E-01   0.00000000E+00   0.00000000E+00   0.00000000E+00   1.85393601E-04   0.00000000E+00   1.02143602E-10   1.81695400E-03   2.40180244E-10   1.59460965E-03   9.81310125E-11   9.98144207E-11   9.81745839E-11   9.81929764E-11   4.99976439E-02   4.99989959E-02   6.53725892E-02   7.18328632E-02   1.53560848E-02   1.50777595E-11   9.96525927E-11   1.00462837E-10   9.98701663E-11   1.00409252E-10   9.98718363E-04   6.54566315E-02   6.49685628E-02   0.00000000E+00   8.29890818E-03   8.60028391E-11   9.34136070E-11   9.51396518E-11   1.00317401E-10
   2.71250000E+02   5.00000000E-01   5.00000000E-01   1.07797980E-01   1.09274791E-01   0.00000000E+00   0.00000000E+00   0.00000000E+00   1.85393601E-04   0.00000000E+00   1.02241518E-10   1.65641337E-03   2.48528402E-10   1.65716792E-03   9.81309826E-11   9.98141317E-11   9.81744149E-11   9.81910648E-11   4.99976449E-02   4.99990750E-02   6.53725892E-02   7.17855176E-02   1.54301607E-02   1.50565325E-11   9.96533293E-11   1.00435124E-10   9.98730888E-11   1.00398668E-10   9.98718054E-04   6.54799284E-02   6.49685628E-02   0.00000000E+00   8.29890818E-03   8.60027962E-11   9.34136070E-11   9.51396485E-11   1.00317992E-10
   2.88750000E+02   5.00000000E-01   5.00000000E-01   1.07797980E-01   1.09288170E-01   0.00000000E+00   0.00000000E+00   0.00000000E+00   1.85393601E-04   0.00000000E+00   1.02335101E-10   1.50199302E-03   2.56654362E-10   1.70897578E-03   9.81309066E-11   9.98138242E-11   9.81740407E-11   9.81888285E-11   4.99976461E-02   4.99991528E-02   6.53725892E-02   7.17347249E-02   1.55090327E-02   1.50412644E-11   9.96538616E-11   1.00406105E-10   9.98751597E-11   1.00385930E-10   9.98717725E-04   6.55038468E-02   6.49685628E-02   0.00000000E+00   8.29890818E-03   8.60027416E-11   9.34136070E-11   9.51396438E-11   1.00318415E-10
   3.06250000E+02   5.00000000E-01   5.00000000E-01   1.07797980E-01   1.09301830E-01   0.00000000E+00   0.00000000E+00   0.00000000E+00   1.85393600E-04   0.00000000E+00   1.02423121E-10   1.35589479E-03   2.64452121E-10   1.75072199E-03   9.81307974E-11   9.98135099E-11   9.81735189E-11   9.81863952E-11   4.99976472E-02   4.99992291E-02   6.53725892E-02   7.16818588E-02   1.55905367E-02   1.50293807E-11   9.96542398E-11   1.00376604E-10   9.98765891E-11   1.00371770E-10   9.98717389E-04   6.55277468E-02   6.49685628E-02   0.00000000E+00   8.29890818E-03   8.60026788E-11   9.34136070E-11   9.51396379E-11   1.00318688E-10
   3.23750000E+02   5.00000000E-01   5.00000000E-01   1.07797980E-01   1.09315721E-01   0.00000000E+00   0.00000000E+00   0.00000000E+00   1.85393600E-04   0.00000000E+00   1.02505068E-10   1.21969065E-03   2.71879540E-10   1.78345683E-03   9.81306686E-11   9.98131999E-11   9.81729111E-11   9.81838896E-11   4.99976484E-02   4.99993039E-02   6.53725892E-02   7.16279714E-02   1.56729140E-02   1.50196326E-11   9.96545160E-11   1.00347344E-10   9.98775944E-11   1.00356873E-10   9.98717056E-04   6.55508488E-02   6.49685628E-02   0.00000000E+00   8.29890818E-03   8.60026117E-11   9.34136070E-11   9.51396311E-11   1.00318817E-10
   3.41250000E+02   5.00000000E-01   5.00000000E-01   1.07797981E-01   1.09329836E-01   0.00000000E+00   0.00000000E+00   0.00000000E+00   1.85393600E-04   0.00000000E+00   1.02581157E-10   1.09427007E-03   2.78958572E-10   1.80834185E-03   9.81305329E-11   9.98129026E-11   9.81722737E-11   9.81814177E-11   4.99976496E-02   4.99993771E-02   6.53725892E-02   7.15738499E-02   1.57548262E-02   1.50113984E-11   9.96547387E-11   1.00318899E-10   9.98783787E-11   1.00341833E-10   9.98716736E-04   6.55724658E-02   6.49685628E-02   0.00000000E+00   8.29890819E-03   8.60025435E-11   9.34136070E-11   9.51396233E-11   1.00318803E-10
   3.58750000E+02   5.00000000E-01   5.00000000E-01   1.07797981E-01   1.09344195E-01   0.00000000E+00   0.00000000E+00   0.00000000E+00   1.85393600E-04   0.00000000E+00   1.02652162E-10   9.79814500E-04   2.85760723E-10   1.82628166E-03   9.81303994E-11   9.98126231E-11   9.81716474E-11   9.81790496E-11   4.99976509E-02   4.99994488E-02   6.53725892E-02   7.15199778E-02   1.58354937E-02   1.50043315E-11   9.96549441E-11   1.00291628E-10   9.98790918E-11   1.00327054E-10   9.98716434E-04   6.55921502E-02   6.49685628E-02   0.00000000E+00   8.29890819E-03   8.60024767E-11   9.34136070E-11   9.51396149E-11   1.00318645E-10
   3.76250000E+02   5.00000000E-01   5.00000000E-01   1.07797981E-01   1.09358829E-01   0.00000000E+00   0.00000000E+00   0.00000000E+00   1.85393600E-04   0.00000000E+00   1.02719161E-10   8.76057270E-04   2.92384670E-10   1.83798830E-03   9.81302739E-11   9.98123639E-11   9.81710580E-11   9.81768245E-11   4.99976523E-02   4.99995191E-02   6.53725892E-02   7.14666406E-02   1.59145043E-02   1.49982114E-11   9.96551564E-11   1.00265712E-10   9.98798344E-11   1.00312783E-10   9.98716153E-04   6.56097080E-02   6.49685628E-02   0.00000000E+00   8.29890819E-03   8.60024128E-11   9.34136070E-11   9.51396059E-11   1.00318342E-10
   3.93750000E+02   5.00000000E-01   5.00000000E-01   1.07797981E-01   1.09373769E-01   0.00000000E+00   0.00000000E+00   0.00000000E+00   1.85393599E-04   0.00000000E+00   1.02783345E-10   7.82397023E-04   2.98939195E-10   1.84387032E-03   9.81301587E-11   9.98121247E-11   9.81705155E-11   9.81747523E-11   4.99976537E-02   4.99995881E-02   6.53725892E-02   7.14139463E-02   1.59917909E-02   1.49928706E-11   9.96553868E-11   1.00241174E-10   9.98806523E-11   1.00299112E-10   9.98715893E-04   6.56251663E-02   6.49685628E-02   0.00000000E+00   8.29890819E-03   8.60023526E-11   9.34136070E-11   9.51395965E-11   1.00317893E-10
   4.11250000E+02   5.00000000E-01   5.00000000E-01   1.07797981E-01   1.09389031E-01   0.00000000E+00   0.00000000E+00   0.00000000E+00   1.85393599E-04   0.00000000E+00   1.02845872E-10   6.98072637E-04   3.05529873E-10   1.84413501E-03   9.81300535E-11   9.98119038E-11   9.81700183E-11   9.81728227E-11   4.99976551E-02   4.99996556E-02   6.53725892E-02   7.13618927E-02   1.60674920E-02   1.49881724E-11   9.96556358E-11   1.00217932E-10   9.98815475E-11   1.00286018E-10   9.98715652E-04   6.56387152E-02   6.49685628E-02   0.00000000E+00   8.29890819E-03   8.60022961E-11   9.34136070E-11   9.51395866E-11   1.00317301E-10
   4.28750000E+02   5.00000000E-01   5.00000000E-01   1.07797981E-01   1.09404615E-01   0.00000000E+00   0.00000000E+00   0.00000000E+00   1.85393599E-04   0.00000000E+00   1.02907774E-10   6.22279891E-04   3.12250141E-10   1.83889799E-03   9.81299563E-11   9.98116989E-11   9.81695577E-11   9.81710150E-11   4.99976566E-02   4.99997218E-02   6.53725892E-02   7.13104344E-02   1.61418248E-02   1.49840036E-11   9.96558977E-11   1.00195854E-10   9.98824958E-11   1.00273419E-10   9.98715429E-04   6.56506529E-02   6.49685628E-02   0.00000000E+00   8.29890820E-03   8.60022430E-11   9.34136070E-11   9.51395765E-11   1.00316568E-10
   4.46250000E+02   5.00000000E-01   5.00000000E-01   1.07797982E-01   1.09420499E-01   0.00000000E+00   0.00000000E+00   0.00000000E+00   1.85393599E-04   0.00000000E+00   1.02969905E-10   5.54208500E-04   3.19175687E-10   1.82816819E-03   9.81298641E-11   9.98115072E-11   9.81691200E-11   9.81693016E-11   4.99976581E-02   4.99997866E-02   6.53725892E-02   7.12594991E-02   1.62150633E-02   1.49802693E-11   9.96561617E-11   1.00174779E-10   9.98834520E-11   1.00261190E-10   9.98715219E-04   6.56613501E-02   6.49685628E-02   0.00000000E+00   8.29890820E-03   8.60021925E-11   9.34136070E-11   9.51395661E-11   1.00315702E-10
   4.63750000E+02   5.00000000E-01   5.00000000E-01   1.07797982E-01   1.09436635E-01   0.00000000E+00   0.00000000E+00   0.00000000E+00   1.85393598E-04   0.00000000E+00   1.03032905E-10   4.93088646E-04   3.26360166E-10   1.81191554E-03   9.81297733E-11   9.98113260E-11   9.81686892E-11   9.81676536E-11   4.99976598E-02   4.99998497E-02   6.53725892E-02   7.12090133E-02   1.62874820E-02   1.49768913E-11   9.96564143E-11   1.00154544E-10   9.98843602E-11   1.00249191E-10   9.98715022E-04   6.56712224E-02   6.49685628E-02   0.00000000E+00   8.29890820E-03   8.60021440E-11   9.34136070E-11   9.51395557E-11   1.00314707E-10
   4.81250000E+02   5.00000000E-01   5.00000000E-01   1.07797982E-01   1.09452957E-01   0.00000000E+00   0.00000000E+00   0.00000000E+00   1.85393598E-04   0.00000000E+00   1.03097166E-10   4.38214470E-04   3.33831792E-10   1.79012547E-03   9.81296802E-11   9.98111529E-11   9.81682490E-11   9.81660437E-11   4.99976614E-02   4.99999112E-02   6.53725892E-02   7.11589242E-02   1.63593142E-02   1.49738074E-11   9.96566418E-11   1.00135000E-10   9.98851625E-11   1.00237290E-10   9.98714834E-04   6.56807058E-02   6.49685628E-02   0.00000000E+00   8.29890821E-03   8.60020967E-11   9.34136070E-11   9.51395451E-11   1.00313590E-10
   4.98750000E+02   5.00000000E-01   5.00000000E-01   1.07797982E-01   1.09469625E-01   0.00000000E+00   0.00000000E+00   0.00000000E+00   1.85393598E-04   0.00000000E+00   1.03163978E-10   3.87848002E-04   3.41716380E-10   1.75648594E-03   9.81295554E-11   9.98109738E-11   9.81676695E-11   9.81642777E-11   4.99976632E-02   4.99999717E-02   6.53725892E-02   7.11072200E-02   1.64346760E-02   1.49708100E-11   9.96566953E-11   1.00115009E-10   9.98852427E-11   1.00224161E-10   9.98714641E-04   6.56902360E-02   6.49685628E-02   0.00000000E+00   8.29890821E-03   8.60020438E-11   9.34136070E-11   9.51395346E-11   1.00312381E-10
   5.16250000E+02   5.00000000E-01   5.00000000E-01   1.07797983E-01   1.09486402E-01   0.00000000E+00   0.00000000E+00   0.00000000E+00   1.85393597E-04   0.00000000E+00   1.03232802E-10   3.43075397E-04   3.49955500E-10   1.71880275E-03   9.81294172E-11   9.98107978E-11   9.81670316E-11   9.81624831E-11   4.99976650E-02   5.00000306E-02   6.53725892E-02   7.10555632E-02   1.65096110E-02   1.49680176E-11   9.96566697E-11   1.00095352E-10   9.98849941E-11   1.00210718E-10   9.98714451E-04   6.57003558E-02   6.49685628E-02   0.00000000E+00   8.29890821E-03   8.60019897E-11   9.34136070E-11   9.51395241E-11   1.00311079E-10
   5.33750000E+02   5.00000000E-01   5.00000000E-01   1.07797983E-01   1.09503103E-01   0.00000000E+00   0.00000000E+00   0.00000000E+00   1.85393597E-04   0.00000000E+00   1.03302871E-10   3.03136465E-04   3.58450868E-10   1.67668902E-03   9.81292703E-11   9.98106272E-11   9.81663565E-11   9.81606927E-11   4.99976669E-02   5.00000873E-02   6.53725892E-02   7.10045383E-02   1.65837848E-02   1.49654452E-11   9.96565931E-11   1.00076237E-10   9.98845344E-11   1.00197231E-10   9.98714268E-04   6.57113853E-02   6.49685628E-02   0.00000000E+00   8.29890821E-03   8.60019353E-11   9.34136070E-11   9.51395136E-11   1.00309687E-10
   5.51250000E+02   5.00000000E-01   5.00000000E-01   1.07797984E-01   1.09519598E-01   0.00000000E+00   0.00000000E+00   0.00000000E+00   1.85393597E-04   0.00000000E+00   1.03373419E-10   2.67410848E-04   3.67105217E-10   1.62974811E-03   9.81291141E-11   9.98104615E-11   9.81656414E-11   9.81589032E-11   4.99976688E-02   5.00001417E-02   6.53725892E-02   7.09542394E-02   1.66573488E-02   1.49630745E-11   9.96564641E-11   1.00057646E-10   9.98838579E-11   1.00183701E-10   9.98714090E-04   6.57235356E-02   6.49685628E-02   0.00000000E+00   8.29890822E-03   8.60018805E-11   9.34136070E-11   9.51395033E-11   1.00308207E-10
   5.68750000E+02   5.00000000E-01   5.00000000E-01   1.07797984E-01   1.09535789E-01   0.00000000E+00   0.00000000E+00   0.00000000E+00   1.85393596E-04   0.00000000E+00   1.03443629E-10   2.35466035E-04   3.75818266E-10   1.57824756E-03   9.81289485E-11   9.98103006E-11   9.81648861E-11   9.81571151E-11   4.99976708E-02   5.00001935E-02   6.53725892E-02   7.09046994E-02   1.67303086E-02   1.49608920E-11   9.96562811E-11   1.00039557E-10   9.98829576E-11   1.00170126E-10   9.98713918E-04   6.57368705E-02   6.49685628E-02   0.00000000E+00   8.29890822E-03   8.60018253E-11   9.34136070E-11   9.51394931E-11   1.00306644E-10
   5.86250000E+02   5.00000000E-01   5.00000000E-01   1.07797985E-01   1.09551607E-01   0.00000000E+00   0.00000000E+00   0.00000000E+00   1.85393596E-04   0.00000000E+00   1.03512693E-10   2.06952301E-04   3.84493440E-10   1.52274798E-03   9.81287749E-11   9.98101449E-11   9.81640968E-11   9.81553379E-11   4.99976729E-02   5.00002429E-02   6.53725892E-02   7.08559704E-02   1.68025563E-02   1.49588912E-11   9.96560475E-11   1.00021983E-10   9.98818490E-11   1.00156547E-10   9.98713750E-04   6.57512844E-02   6.49685628E-02   0.00000000E+00   8.29890822E-03   8.60017700E-11   9.34136070E-11   9.51394830E-11   1.00305003E-10
   6.03750000E+02   5.00000000E-01   5.00000000E-01   1.07797985E-01   1.09567018E-01   0.00000000E+00   0.00000000E+00   0.00000000E+00   1.85393595E-04   0.00000000E+00   1.03579914E-10   1.81566856E-04   3.93049138E-10   1.46397554E-03   9.81285960E-11   9.98099953E-11   9.81632861E-11   9.81535883E-11   4.99976750E-02   5.00002896E-02   6.53725892E-02   7.08081320E-02   1.68739028E-02   1.49570695E-11   9.96557732E-11   1.00004970E-10   9.98805721E-11   1.00143048E-10   9.98713589E-04   6.57665206E-02   6.49685628E-02   0.00000000E+00   8.29890823E-03   8.60017148E-11   9.34136070E-11   9.51394731E-11   1.00303288E-10
   6.21250000E+02   5.00000000E-01   5.00000000E-01   1.07797986E-01   1.09582022E-01   0.00000000E+00   0.00000000E+00   0.00000000E+00   1.85393595E-04   0.00000000E+00   1.03644791E-10   1.59035032E-04   4.01427694E-10   1.40273667E-03   9.81284157E-11   9.98098529E-11   9.81624703E-11   9.81518872E-11   4.99976771E-02   5.00003340E-02   6.53725892E-02   7.07612838E-02   1.69441108E-02   1.49554250E-11   9.96554722E-11   9.99885841E-11   9.98791859E-11   1.00129745E-10   9.98713436E-04   6.57822200E-02   6.49685628E-02   7.06338326E-29   8.29890823E-03   8.60016606E-11   9.34136070E-11   9.51394635E-11   1.00301503E-10
   6.38750000E+02   5.00000000E-01   5.00000000E-01   1.07797986E-01   1.09596638E-01   0.00000000E+00   0.00000000E+00   0.00000000E+00   1.85393595E-04   0.00000000E+00   1.03707052E-10   1.39098426E-04   4.09598957E-10   1.33983641E-03   9.81282379E-11   9.98097188E-11   9.81616674E-11   9.81502561E-11   4.99976793E-02   5.00003759E-02   6.53725892E-02   7.07155355E-02   1.70129289E-02   1.49539537E-11   9.96551618E-11   9.99728947E-11   9.98777614E-11   1.00116764E-10   9.98713291E-04   6.57979855E-02   6.49685628E-02   1.44255919E-28   8.29890824E-03   8.60016081E-11   9.34136070E-11   9.51394540E-11   1.00299651E-10
   6.56250000E+02   5.00000000E-01   5.00000000E-01   1.07797987E-01   1.09610899E-01   0.00000000E+00   0.00000000E+00   0.00000000E+00   1.85393594E-04   0.00000000E+00   1.03766648E-10   1.21508817E-04   4.17558178E-10   1.27600886E-03   9.81280667E-11   9.98095939E-11   9.81608945E-11   9.81487136E-11   4.99976816E-02   5.00004155E-02   6.53725892E-02   7.06709964E-02   1.70801208E-02   1.49526484E-11   9.96548599E-11   9.99579654E-11   9.98763727E-11   1.00104231E-10   9.98713155E-04   6.58134418E-02   6.49685628E-02   2.94893179E-28   8.29890824E-03   8.60015580E-11   9.34136070E-11   9.51394449E-11   1.00297736E-10
   6.73750000E+02   5.00000000E-01   5.00000000E-01   1.07797988E-01   1.09624833E-01   0.00000000E+00   0.00000000E+00   0.00000000E+00   1.85393594E-04   0.00000000E+00   1.03823707E-10   1.06027388E-04   4.25319637E-10   1.21187950E-03   9.81279053E-11   9.98094785E-11   9.81601663E-11   9.81472741E-11   4.99976839E-02   5.00004529E-02   6.53725892E-02   7.06277685E-02   1.71454828E-02   1.49514986E-11   9.96545840E-11   9.99438444E-11   9.98750910E-11   1.00092253E-10   9.98713030E-04   6.58282791E-02   6.49685628E-02   6.03422509E-28   8.29890825E-03   8.60015110E-11   9.34136070E-11   9.51394360E-11   1.00295761E-10
   6.91250000E+02   5.00000000E-01   5.00000000E-01   1.07797989E-01   1.09638454E-01   0.00000000E+00   0.00000000E+00   0.00000000E+00   1.85393593E-04   0.00000000E+00   1.03878476E-10   9.24258194E-05   4.32908494E-10   1.14793496E-03   9.81277563E-11   9.98093731E-11   9.81594937E-11   9.81459467E-11   4.99976863E-02   5.00004881E-02   6.53725892E-02   7.05859393E-02   1.72088582E-02   1.49504915E-11   9.96543491E-11   9.99305604E-11   9.98739787E-11   1.00080916E-10   9.98712914E-04   6.58422768E-02   6.49685628E-02   1.23600393E-27   8.29890825E-03   8.60014674E-11   9.34136070E-11   9.51394273E-11   1.00293729E-10
   7.08750000E+02   5.00000000E-01   5.00000000E-01   1.07797990E-01   1.09651757E-01   0.00000000E+00   0.00000000E+00   0.00000000E+00   1.85393592E-04   0.00000000E+00   1.03931251E-10   8.04905901E-05   4.40352344E-10   1.08454837E-03   9.81276215E-11   9.98092773E-11   9.81588845E-11   9.81447354E-11   4.99976888E-02   5.00005212E-02   6.53725892E-02   7.05455815E-02   1.72701305E-02   1.49496127E-11   9.96541682E-11   9.99181230E-11   9.98730880E-11   1.00070280E-10   9.98712808E-04   6.58553086E-02   6.49685628E-02   4.49387018E-13   8.29890826E-03   8.60014279E-11   9.34136070E-11   9.51394190E-11   1.00291644E-10
   7.26250000E+02   5.00000000E-01   5.00000000E-01   1.07797991E-01   1.09664708E-01   0.00000000E+00   0.00000000E+00   0.00000000E+00   1.85393592E-04   0.00000000E+00   1.03982321E-10   7.00254400E-05   4.47673639E-10   1.02199869E-03   9.81275019E-11   9.98091908E-11   9.81583429E-11   9.81436403E-11   4.99976913E-02   5.00005520E-02   6.53725892E-02   7.05067539E-02   1.73292167E-02   1.49488476E-11   9.96540515E-11   9.99065258E-11   9.98724611E-11   1.00060384E-10   9.98712713E-04   6.58673361E-02   6.49685628E-02   1.78751809E-12   8.29890826E-03   8.60013924E-11   9.34136070E-11   9.51394109E-11   1.00289510E-10
   7.43750000E+02   5.00000000E-01   5.00000000E-01   1.07797992E-01   1.09677247E-01   0.00000000E+00   0.00000000E+00   0.00000000E+00   1.85393591E-04   0.00000000E+00   1.04031924E-10   6.08527603E-05   4.54883497E-10   9.60492518E-04   9.81273980E-11   9.98091132E-11   9.81578711E-11   9.81426584E-11   4.99976939E-02   5.00005806E-02   6.53725892E-02   7.04695031E-02   1.73860603E-02   1.49481824E-11   9.96540073E-11   9.98957500E-11   9.98721311E-11   1.00051250E-10   9.98712626E-04   6.58783967E-02   6.49685628E-02   4.15667865E-12   8.29890827E-03   8.60013612E-11   9.34136070E-11   9.51394031E-11   1.00287328E-10
   7.61250000E+02   5.00000000E-01   5.00000000E-01   1.07797993E-01   1.09689289E-01   0.00000000E+00   0.00000000E+00   0.00000000E+00   1.85393591E-04   0.00000000E+00   1.04080203E-10   5.28139774E-05   4.61976943E-10   9.00186602E-04   9.81273100E-11   9.98090437E-11   9.81574693E-11   9.81417850E-11   4.99976965E-02   5.00006067E-02   6.53725892E-02   7.04338653E-02   1.74406231E-02   1.49476041E-11   9.96540421E-11   9.98857681E-11   9.98721240E-11   1.00042882E-10   9.98712548E-04   6.58885875E-02   6.49685628E-02   8.08163505E-12   8.29890827E-03   8.60013342E-11   9.34136070E-11   9.51393955E-11   1.00285103E-10
   7.78750000E+02   5.00000000E-01   5.00000000E-01   1.07797994E-01   1.09700725E-01   0.00000000E+00   0.00000000E+00   0.00000000E+00   1.85393590E-04   0.00000000E+00   1.04127180E-10   4.57691160E-05   4.68929613E-10   8.41208813E-04   9.81272377E-11   9.98089818E-11   9.81571370E-11   9.81410147E-11   4.99976992E-02   5.00006302E-02   6.53725892E-02   7.03998684E-02   1.74928786E-02   1.49471017E-11   9.96541611E-11   9.98765478E-11   9.98724605E-11   1.00035279E-10   9.98712478E-04   6.58980474E-02   6.49685628E-02   1.43099009E-11   8.29890828E-03   8.60013115E-11   9.34136070E-11   9.51393883E-11   1.00282837E-10
   7.96250000E+02   5.00000000E-01   5.00000000E-01   1.07797996E-01   1.09711432E-01   0.00000000E+00   0.00000000E+00   0.00000000E+00   1.85393589E-04   0.00000000E+00   1.04172743E-10   3.95957942E-05   4.75696056E-10   7.83677283E-04   9.81271810E-11   9.98089269E-11   9.81568732E-11   9.81403416E-11   4.99977020E-02   5.00006510E-02   6.53725892E-02   7.03675334E-02   1.75428056E-02   1.49466653E-11   9.96543687E-11   9.98680546E-11   9.98731583E-11   1.00028432E-10   9.98712415E-04   6.59069367E-02   6.49685628E-02   2.38995869E-11   8.29890829E-03   8.60012930E-11   9.34136070E-11   9.51393812E-11   1.00280533E-10