 TITLE = "Mineral Volumes" 
VARIABLES = "X"          "Y"              "Z"            "Forsterite"     "Fayalite"       "Brucite"        "Lizardite"      "Chrysotile"     "Hematite"       "Magnetite(am)"  "Saponite(Ca)"   "Saponite(K)"    "Saponite(Mg)"   "Saponite(Na)"   "Beidellite(Ca)" "Beidellite(K)"  "Beidellite(Mg)" "Beidellite(Na)" "Enstatite(alph" "Ferrosilite(al" "Anorthite"      "Albite(low)"    "Clinochlore"    "Sudoite"        "Montmor(MgCa)"  "Montmor(MgK)"   "Montmor(MgMg)"  "Montmor(MgNa)"  "Kaolinite"      "Tremolite"      "Pargasite"      "Anhydrite"      "Epidote"        "Scolecite"      "Pyrite"         "FeS(am)"        "Quartz(alpha)" 
 ZONE I=         200 , J=           1 , K=           1  F=POINT
   8.75000000E+00   5.00000000E-01   5.00000000E-01   1.07571575E-01   1.09070262E-01   0.00000000E+00   0.00000000E+00   0.00000000E+00   2.02496386E-04   0.00000000E+00   1.00729133E-10   3.51130708E-04   1.38761049E-10   4.23923848E-05   9.79291962E-11   9.97876197E-11   9.79442110E-11   9.79235858E-11   4.99973947E-02   4.99977104E-02   6.49114230E-02   6.87729602E-02   2.11232084E-02   1.93435949E-10   9.95418131E-11   9.95340918E-11   9.95452109E-11   9.95408150E-11   9.98576923E-04   6.46448048E-02   6.44691472E-02   0.00000000E+00   8.14198026E-03   8.46775067E-11   9.27570990E-11   9.46491681E-11   1.00106298E-10
   2.62500000E+01   5.00000000E-01   5.00000000E-01   1.07571574E-01   1.09074333E-01   0.00000000E+00   0.00000000E+00   0.00000000E+00   2.02496385E-04   0.00000000E+00   1.00897334E-10   1.41076890E-03   1.48935140E-10   1.86312183E-04   9.79292285E-11   9.97876645E-11   9.79443576E-11   9.79239718E-11   4.99973918E-02   4.99978013E-02   6.49114230E-02   6.89356600E-02   2.06517642E-02   1.53698155E-10   9.95423906E-11   9.95477674E-11   9.95476394E-11   9.95505941E-11   9.98577088E-04   6.46767895E-02   6.44691472E-02   0.00000000E+00   8.14198026E-03   8.46775666E-11   9.27570990E-11   9.46492375E-11   1.00167423E-10
   4.37500000E+01   5.00000000E-01   5.00000000E-01   1.07571574E-01   1.09077688E-01   0.00000000E+00   0.00000000E+00   0.00000000E+00   2.02496385E-04   0.00000000E+00   1.00966121E-10   1.66891149E-03   1.53156066E-10   2.51212514E-04   9.79295884E-11   9.97881397E-11   9.79459898E-11   9.79281618E-11   4.99973903E-02   4.99978700E-02   6.49114230E-02   6.94085809E-02   2.00724338E-02   1.03206692E-10   9.95463064E-11   9.96355530E-11   9.95640907E-11   9.96149303E-11   9.98578060E-04   6.46917847E-02   6.44691472E-02   0.00000000E+00   8.14198026E-03   8.46778838E-11   9.27570990E-11   9.46492678E-11   1.00217770E-10
   6.12500000E+01   5.00000000E-01   5.00000000E-01   1.07571574E-01   1.09081357E-01   0.00000000E+00   0.00000000E+00   0.00000000E+00   2.02496385E-04   0.00000000E+00   1.01033968E-10   2.03297303E-03   1.57563832E-10   3.51681493E-04   9.79305762E-11   9.97893672E-11   9.79504625E-11   9.79392917E-11   4.99973899E-02   4.99979406E-02   6.49114230E-02   7.00573003E-02   1.92724632E-02   5.88902724E-11   9.95549099E-11   9.98160621E-11   9.96001985E-11   9.97512415E-11   9.98579781E-04   6.47037421E-02   6.44691472E-02   0.00000000E+00   8.14198026E-03   8.46784433E-11   9.27570990E-11   9.46492922E-11   1.00256641E-10
   7.87500000E+01   5.00000000E-01   5.00000000E-01   1.07571574E-01   1.09085693E-01   0.00000000E+00   0.00000000E+00   0.00000000E+00   2.02496384E-04   0.00000000E+00   1.01122625E-10   2.47693833E-03   1.63372874E-10   4.95952441E-04   9.79321312E-11   9.97911718E-11   9.79574915E-11   9.79561769E-11   4.99973899E-02   4.99980133E-02   6.49114230E-02   7.07044918E-02   1.84435868E-02   3.37566899E-11   9.95665759E-11   1.00042696E-10   9.96491104E-11   9.99285106E-11   9.98581824E-04   6.47238369E-02   6.44691472E-02   0.00000000E+00   8.14198026E-03   8.46791066E-11   9.27570990E-11   9.46493132E-11   1.00284394E-10
   9.62500000E+01   5.00000000E-01   5.00000000E-01   1.07571574E-01   1.09090815E-01   0.00000000E+00   0.00000000E+00   0.00000000E+00   2.02496384E-04   0.00000000E+00   1.01224528E-10   2.83848653E-03   1.70172880E-10   6.61742532E-04   9.79339748E-11   9.97931499E-11   9.79658095E-11   9.79753704E-11   4.99973902E-02   4.99980872E-02   6.49114230E-02   7.12498006E-02   1.77373299E-02   2.24360992E-11   9.95789505E-11   1.00262071E-10   9.97009373E-11   1.00107541E-10   9.98583827E-04   6.47490620E-02   6.44691472E-02   0.00000000E+00   8.14198026E-03   8.46797599E-11   9.27570990E-11   9.46493312E-11   1.00303101E-10
   1.13750000E+02   5.00000000E-01   5.00000000E-01   1.07571574E-01   1.09096745E-01   0.00000000E+00   0.00000000E+00   0.00000000E+00   2.02496384E-04   0.00000000E+00   1.01329554E-10   3.05191147E-03   1.77361746E-10   8.30095232E-04   9.79357587E-11   9.97948855E-11   9.79738407E-11   9.79930057E-11   4.99973906E-02   4.99981621E-02   6.49114230E-02   7.16530110E-02   1.72170589E-02   1.74380467E-11   9.95900761E-11   1.00437309E-10   9.97474720E-11   1.00258807E-10   9.98585485E-04   6.47763203E-02   6.44691472E-02   0.00000000E+00   8.14198027E-03   8.46803171E-11   9.27570990E-11   9.46493466E-11   1.00315291E-10
   1.31250000E+02   5.00000000E-01   5.00000000E-01   1.07571574E-01   1.09103516E-01   0.00000000E+00   0.00000000E+00   0.00000000E+00   2.02496384E-04   0.00000000E+00   1.01433505E-10   3.12331449E-03   1.84678381E-10   9.91100487E-04   9.79372463E-11   9.97961508E-11   9.79805191E-11   9.80067294E-11   4.99973911E-02   4.99982384E-02   6.49114230E-02   7.19186110E-02   1.68789826E-02   1.51227707E-11   9.95989905E-11   1.00555978E-10   9.97846932E-11   1.00370150E-10   9.98586656E-04   6.48037664E-02   6.44691472E-02   0.00000000E+00   8.14198027E-03   8.46807391E-11   9.27570990E-11   9.46493598E-11   1.00323156E-10
   1.48750000E+02   5.00000000E-01   5.00000000E-01   1.07571574E-01   1.09111195E-01   0.00000000E+00   0.00000000E+00   0.00000000E+00   2.02496383E-04   0.00000000E+00   1.01536274E-10   3.08430934E-03   1.92124819E-10   1.14102197E-03   9.79383563E-11   9.97969160E-11   9.79854839E-11   9.80159807E-11   4.99973918E-02   4.99983168E-02   6.49114230E-02   7.20725653E-02   1.66888059E-02   1.39992089E-11   9.96055894E-11   1.00622963E-10   9.98121795E-11   1.00442848E-10   9.98587346E-04   6.48304500E-02   6.44691472E-02   0.00000000E+00   8.14198027E-03   8.46810265E-11   9.27570990E-11   9.46493708E-11   1.00328309E-10
   1.66250000E+02   5.00000000E-01   5.00000000E-01   1.07571574E-01   1.09119830E-01   0.00000000E+00   0.00000000E+00   0.00000000E+00   2.02496383E-04   0.00000000E+00   1.01638504E-10   2.97297047E-03   1.99752395E-10   1.27989470E-03   9.79391298E-11   9.97972789E-11   9.79889251E-11   9.80214617E-11   4.99973925E-02   4.99983973E-02   6.49114230E-02   7.21469901E-02   1.66032096E-02   1.34350768E-11   9.96102933E-11   1.00651424E-10   9.98317083E-11   1.00485433E-10   9.98587658E-04   6.48558408E-02   6.44691472E-02   0.00000000E+00   8.14198027E-03   8.46812054E-11   9.27570990E-11   9.46493797E-11   1.00331801E-10
   1.83750000E+02   5.00000000E-01   5.00000000E-01   1.07571574E-01   1.09129394E-01   0.00000000E+00   0.00000000E+00   0.00000000E+00   2.02496383E-04   0.00000000E+00   1.01739917E-10   2.82298564E-03   2.07536328E-10   1.40980292E-03   9.79396696E-11   9.97973820E-11   9.79913095E-11   9.80244130E-11   4.99973933E-02   4.99984793E-02   6.49114230E-02   7.21714980E-02   1.65820926E-02   1.31451891E-11   9.96137279E-11   1.00655890E-10   9.98459094E-11   1.00508467E-10   9.98587725E-04   6.48796110E-02   6.44691472E-02   0.00000000E+00   8.14198028E-03   8.46813120E-11   9.27570990E-11   9.46493862E-11   1.00334238E-10
   2.01250000E+02   5.00000000E-01   5.00000000E-01   1.07571574E-01   1.09139863E-01   0.00000000E+00   0.00000000E+00   0.00000000E+00   2.02496383E-04   0.00000000E+00   1.01841067E-10   2.65142018E-03   2.15505980E-10   1.53078875E-03   9.79400455E-11   9.97973182E-11   9.79929536E-11   9.80256588E-11   4.99973942E-02   4.99985624E-02   6.49114230E-02   7.21645485E-02   1.66017371E-02   1.29926121E-11   9.96163085E-11   1.00645561E-10   9.98565293E-11   1.00518801E-10   9.98587633E-04   6.49019687E-02   6.44691472E-02   0.00000000E+00   8.14198028E-03   8.46813693E-11   9.27570990E-11   9.46493905E-11   1.00335987E-10
   2.18750000E+02   5.00000000E-01   5.00000000E-01   1.07571574E-01   1.09151226E-01   0.00000000E+00   0.00000000E+00   0.00000000E+00   2.02496382E-04   0.00000000E+00   1.01943106E-10   2.46715357E-03   2.23736588E-10   1.64154194E-03   9.79402906E-11   9.97971355E-11   9.79940083E-11   9.80256165E-11   4.99973951E-02   4.99986463E-02   6.49114230E-02   7.21363848E-02   1.66494577E-02   1.29093878E-11   9.96182471E-11   1.00625339E-10   9.98644594E-11   1.00520050E-10   9.98587424E-04   6.49236314E-02   6.44691472E-02   0.00000000E+00   8.14198028E-03   8.46813887E-11   9.27570990E-11   9.46493926E-11   1.00337289E-10
   2.36250000E+02   5.00000000E-01   5.00000000E-01   1.07571574E-01   1.09163363E-01   0.00000000E+00   0.00000000E+00   0.00000000E+00   2.02496382E-04   0.00000000E+00   1.02045112E-10   2.28060692E-03   2.32138479E-10   1.74337759E-03   9.79404519E-11   9.97968870E-11   9.79946865E-11   9.80247946E-11   4.99973961E-02   4.99987302E-02   6.49114230E-02   7.20963077E-02   1.67125352E-02   1.28618880E-11   9.96197932E-11   1.00599924E-10   9.98707455E-11   1.00515983E-10   9.98587148E-04   6.49452839E-02   6.44691472E-02   0.00000000E+00   8.14198028E-03   8.46813843E-11   9.27570990E-11   9.46493927E-11   1.00338261E-10
   2.53750000E+02   5.00000000E-01   5.00000000E-01   1.07571574E-01   1.09176151E-01   0.00000000E+00   0.00000000E+00   0.00000000E+00   2.02496382E-04   0.00000000E+00   1.02145970E-10   2.09487039E-03   2.40604395E-10   1.83477990E-03   9.79405429E-11   9.97965916E-11   9.79950485E-11   9.80233617E-11   4.99973972E-02   4.99988136E-02   6.49114230E-02   7.20484568E-02   1.67862097E-02   1.28327030E-11   9.96210304E-11   1.00571129E-10   9.98757394E-11   1.00508000E-10   9.98586825E-04   6.49675459E-02   6.44691472E-02   0.00000000E+00   8.14198028E-03   8.46813607E-11   9.27570990E-11   9.46493909E-11   1.00338985E-10
   2.71250000E+02   5.00000000E-01   5.00000000E-01   1.07571574E-01   1.09189461E-01   0.00000000E+00   0.00000000E+00   0.00000000E+00   2.02496382E-04   0.00000000E+00   1.02244156E-10   1.91298524E-03   2.48996067E-10   1.91489063E-03   9.79405718E-11   9.97962617E-11   9.79951327E-11   9.80214301E-11   4.99973983E-02   4.99988961E-02   6.49114230E-02   7.19952955E-02   1.68673421E-02   1.28129933E-11   9.96220049E-11   1.00540031E-10   9.98796351E-11   1.00496933E-10   9.98586465E-04   6.49906688E-02   6.44691472E-02   0.00000000E+00   8.14198029E-03   8.46813211E-11   9.27570990E-11   9.46493874E-11   1.00339512E-10
   2.88750000E+02   5.00000000E-01   5.00000000E-01   1.07571574E-01   1.09203169E-01   0.00000000E+00   0.00000000E+00   0.00000000E+00   2.02496382E-04   0.00000000E+00   1.02338028E-10   1.73785087E-03   2.57169070E-10   1.98365654E-03   9.79405500E-11   9.97959106E-11   9.79949908E-11   9.80191297E-11   4.99973994E-02   4.99989774E-02   6.49114230E-02   7.19386654E-02   1.69532854E-02   1.27983608E-11   9.96227644E-11   1.00507577E-10   9.98826332E-11   1.00483560E-10   9.98586082E-04   6.50144085E-02   6.44691472E-02   0.00000000E+00   8.14198029E-03   8.46812688E-11   9.27570990E-11   9.46493825E-11   1.00339874E-10
   3.06250000E+02   5.00000000E-01   5.00000000E-01   1.07571575E-01   1.09217182E-01   0.00000000E+00   0.00000000E+00   0.00000000E+00   2.02496381E-04   0.00000000E+00   1.02426354E-10   1.57186918E-03   2.65017161E-10   2.04164832E-03   9.79404921E-11   9.97955517E-11   9.79946880E-11   9.80166049E-11   4.99974006E-02   4.99990571E-02   6.49114230E-02   7.18799992E-02   1.70417932E-02   1.27866555E-11   9.96233626E-11   1.00474650E-10   9.98849589E-11   1.00468664E-10   9.98585690E-04   6.50381300E-02   6.44691472E-02   0.00000000E+00   8.14198029E-03   8.46812079E-11   9.27570990E-11   9.46493763E-11   1.00340087E-10
   3.23750000E+02   5.00000000E-01   5.00000000E-01   1.07571575E-01   1.09231452E-01   0.00000000E+00   0.00000000E+00   0.00000000E+00   2.02496381E-04   0.00000000E+00   1.02508624E-10   1.41676839E-03   2.72497942E-10   2.08982061E-03   9.79404136E-11   9.97951975E-11   9.79942943E-11   9.80139972E-11   4.99974019E-02   4.99991354E-02   6.49114230E-02   7.18203991E-02   1.71310388E-02   1.27768492E-11   9.96238555E-11   1.00442024E-10   9.98868459E-11   1.00452984E-10   9.98585303E-04   6.50610594E-02   6.44691472E-02   0.00000000E+00   8.14198029E-03   8.46811423E-11   9.27570990E-11   9.46493690E-11   1.00340155E-10
   3.41250000E+02   5.00000000E-01   5.00000000E-01   1.07571575E-01   1.09245970E-01   0.00000000E+00   0.00000000E+00   0.00000000E+00   2.02496381E-04   0.00000000E+00   1.02585049E-10   1.27354813E-03   2.79633161E-10   2.12925443E-03   9.79403289E-11   9.97948576E-11   9.79938737E-11   9.80114267E-11   4.99974032E-02   4.99992121E-02   6.49114230E-02   7.17606880E-02   1.72196391E-02   1.27684364E-11   9.96242952E-11   1.00410313E-10   9.98885110E-11   1.00437153E-10   9.98584930E-04   6.50825150E-02   6.44691472E-02   0.00000000E+00   8.14198029E-03   8.46810756E-11   9.27570990E-11   9.46493608E-11   1.00340077E-10
   3.58750000E+02   5.00000000E-01   5.00000000E-01   1.07571575E-01   1.09260755E-01   0.00000000E+00   0.00000000E+00   0.00000000E+00   2.02496381E-04   0.00000000E+00   1.02656403E-10   1.14245048E-03   2.86494261E-10   2.16077008E-03   9.79402481E-11   9.97945378E-11   9.79934714E-11   9.80089714E-11   4.99974045E-02   4.99992873E-02   6.49114230E-02   7.17013592E-02   1.73068101E-02   1.27611299E-11   9.96247193E-11   1.00379889E-10   9.98901111E-11   1.00421595E-10   9.98584578E-04   6.51020524E-02   6.44691472E-02   0.00000000E+00   8.14198030E-03   8.46810106E-11   9.27570990E-11   9.46493519E-11   1.00339852E-10
   3.76250000E+02   5.00000000E-01   5.00000000E-01   1.07571575E-01   1.09275839E-01   0.00000000E+00   0.00000000E+00   0.00000000E+00   2.02496380E-04   0.00000000E+00   1.02723763E-10   1.02323635E-03   2.93179995E-10   2.18500857E-03   9.79401774E-11   9.97942405E-11   9.79931150E-11   9.80066732E-11   4.99974059E-02   4.99993611E-02   6.49114230E-02   7.16426911E-02   1.73921579E-02   1.27547396E-11   9.96251523E-11   1.00350931E-10   9.98917483E-11   1.00406561E-10   9.98584249E-04   6.51194791E-02   6.44691472E-02   0.00000000E+00   8.14198030E-03   8.46809487E-11   9.27570990E-11   9.46493423E-11   1.00339477E-10
   3.93750000E+02   5.00000000E-01   5.00000000E-01   1.07571575E-01   1.09291249E-01   0.00000000E+00   0.00000000E+00   0.00000000E+00   2.02496380E-04   0.00000000E+00   1.02788317E-10   9.15300882E-04   2.99799388E-10   2.20231238E-03   9.79401189E-11   9.97939652E-11   9.79928138E-11   9.80045394E-11   4.99974073E-02   4.99994335E-02   6.49114230E-02   7.15847692E-02   1.74756562E-02   1.27491115E-11   9.96256043E-11   1.00323447E-10   9.98934631E-11   1.00392129E-10   9.98583945E-04   6.51348220E-02   6.44691472E-02   0.00000000E+00   8.14198030E-03   8.46808906E-11   9.27570990E-11   9.46493322E-11   1.00338951E-10
   4.11250000E+02   5.00000000E-01   5.00000000E-01   1.07571575E-01   1.09307004E-01   0.00000000E+00   0.00000000E+00   0.00000000E+00   2.02496380E-04   0.00000000E+00   1.02851225E-10   8.17858157E-04   3.06458410E-10   2.21283824E-03   9.79400717E-11   9.97937098E-11   9.79925627E-11   9.80025540E-11   4.99974088E-02   4.99995045E-02   6.49114230E-02   7.15275617E-02   1.75574936E-02   1.27441132E-11   9.96260735E-11   1.00297329E-10   9.98952478E-11   1.00378254E-10   9.98583662E-04   6.51482698E-02   6.44691472E-02   0.00000000E+00   8.14198030E-03   8.46808363E-11   9.27570990E-11   9.46493217E-11   1.00338276E-10
   4.28750000E+02   5.00000000E-01   5.00000000E-01   1.07571576E-01   1.09323103E-01   0.00000000E+00   0.00000000E+00   0.00000000E+00   2.02496379E-04   0.00000000E+00   1.02913520E-10   7.30063935E-04   3.13251014E-10   2.21667288E-03   9.79400326E-11   9.97934712E-11   9.79923484E-11   9.80006883E-11   4.99974103E-02   4.99995742E-02   6.49114230E-02   7.14709933E-02   1.76379358E-02   1.27396315E-11   9.96265512E-11   1.00272419E-10   9.98970661E-11   1.00364827E-10   9.98583397E-04   6.51601183E-02   6.44691472E-02   0.00000000E+00   8.14198031E-03   8.46807852E-11   9.27570990E-11   9.46493109E-11   1.00337457E-10
   4.46250000E+02   5.00000000E-01   5.00000000E-01   1.07571576E-01   1.09339523E-01   0.00000000E+00   0.00000000E+00   0.00000000E+00   2.02496379E-04   0.00000000E+00   1.02976059E-10   6.51054558E-04   3.20253516E-10   2.21380947E-03   9.79399973E-11   9.97932458E-11   9.79921513E-11   9.79989059E-11   4.99974120E-02   4.99996423E-02   6.49114230E-02   7.14149627E-02   1.77173045E-02   1.27355686E-11   9.96270233E-11   1.00248530E-10   9.98988589E-11   1.00351695E-10   9.98583147E-04   6.51707358E-02   6.44691472E-02   0.00000000E+00   8.14198031E-03   8.46807365E-11   9.27570990E-11   9.46492999E-11   1.00336499E-10
   4.63750000E+02   5.00000000E-01   5.00000000E-01   1.07571576E-01   1.09356219E-01   0.00000000E+00   0.00000000E+00   0.00000000E+00   2.02496379E-04   0.00000000E+00   1.03039481E-10   5.79998477E-04   3.27520281E-10   2.20421719E-03   9.79399608E-11   9.97930304E-11   9.79919489E-11   9.79971683E-11   4.99974136E-02   4.99997089E-02   6.49114230E-02   7.13593706E-02   1.77959168E-02   1.27318426E-11   9.96274728E-11   1.00225475E-10   9.99005555E-11   1.00338689E-10   9.98582909E-04   6.51805345E-02   6.44691472E-02   0.00000000E+00   8.14198031E-03   8.46806892E-11   9.27570990E-11   9.46492887E-11   1.00335409E-10
   4.81250000E+02   5.00000000E-01   5.00000000E-01   1.07571576E-01   1.09373125E-01   0.00000000E+00   0.00000000E+00   0.00000000E+00   2.02496378E-04   0.00000000E+00   1.03104183E-10   5.16123281E-04   3.35080289E-10   2.18789535E-03   9.79399179E-11   9.97928219E-11   9.79917184E-11   9.79954395E-11   4.99974154E-02   4.99997738E-02   6.49114230E-02   7.13041441E-02   1.78740403E-02   1.27283873E-11   9.96278824E-11   1.00203085E-10   9.99020835E-11   1.00325654E-10   9.98582680E-04   6.51899473E-02   6.44691472E-02   0.00000000E+00   8.14198032E-03   8.46806424E-11   9.27570990E-11   9.46492774E-11   1.00334194E-10
   4.98750000E+02   5.00000000E-01   5.00000000E-01   1.07571577E-01   1.09390414E-01   0.00000000E+00   0.00000000E+00   0.00000000E+00   2.02496378E-04   0.00000000E+00   1.03171472E-10   4.57542590E-04   3.43062848E-10   2.15779958E-03   9.79398275E-11   9.97926009E-11   9.79912779E-11   9.79934504E-11   4.99974172E-02   4.99998378E-02   6.49114230E-02   7.12470250E-02   1.79562693E-02   1.27249388E-11   9.96280751E-11   1.00180017E-10   9.99027090E-11   1.00311015E-10   9.98582438E-04   6.51994065E-02   6.44691472E-02   0.00000000E+00   8.14198032E-03   8.46805878E-11   9.27570990E-11   9.46492662E-11   1.00332888E-10
   5.16250000E+02   5.00000000E-01   5.00000000E-01   1.07571577E-01   1.09407841E-01   0.00000000E+00   0.00000000E+00   0.00000000E+00   2.02496378E-04   0.00000000E+00   1.03240803E-10   4.05441394E-04   3.51408767E-10   2.12289461E-03   9.79397157E-11   9.97923808E-11   9.79907429E-11   9.79913840E-11   4.99974191E-02   4.99999002E-02   6.49114230E-02   7.11899007E-02   1.80380985E-02   1.27216662E-11   9.96281658E-11   1.00157230E-10   9.99029092E-11   1.00295890E-10   9.98582198E-04   6.52094509E-02   6.44691472E-02   0.00000000E+00   8.14198032E-03   8.46805307E-11   9.27570990E-11   9.46492550E-11   1.00331489E-10
   5.33750000E+02   5.00000000E-01   5.00000000E-01   1.07571577E-01   1.09425223E-01   0.00000000E+00   0.00000000E+00   0.00000000E+00   2.02496377E-04   0.00000000E+00   1.03311409E-10   3.58928613E-04   3.60020053E-10   2.08259054E-03   9.79395877E-11   9.97921645E-11   9.79901377E-11   9.79892808E-11   4.99974210E-02   4.99999605E-02   6.49114230E-02   7.11333924E-02   1.81192372E-02   1.27185919E-11   9.96281848E-11   1.00134962E-10   9.99028110E-11   1.00280578E-10   9.98581962E-04   6.52203984E-02   6.44691472E-02   0.00000000E+00   8.14198033E-03   8.46804724E-11   9.27570990E-11   9.46492439E-11   1.00329999E-10
   5.51250000E+02   5.00000000E-01   5.00000000E-01   1.07571578E-01   1.09442434E-01   0.00000000E+00   0.00000000E+00   0.00000000E+00   2.02496377E-04   0.00000000E+00   1.03382531E-10   3.17295887E-04   3.68800258E-10   2.03640767E-03   9.79394416E-11   9.97919511E-11   9.79894531E-11   9.79871306E-11   4.99974230E-02   5.00000184E-02   6.49114230E-02   7.10775762E-02   1.81998979E-02   1.27156941E-11   9.96281272E-11   1.00113179E-10   9.99023942E-11   1.00265062E-10   9.98581730E-04   6.52324582E-02   6.44691472E-02   0.00000000E+00   8.14198033E-03   8.46804125E-11   9.27570990E-11   9.46492328E-11   1.00328422E-10
   5.68750000E+02   5.00000000E-01   5.00000000E-01   1.07571578E-01   1.09459376E-01   0.00000000E+00   0.00000000E+00   0.00000000E+00   2.02496376E-04   0.00000000E+00   1.03453356E-10   2.80047651E-04   3.77649924E-10   1.98465493E-03   9.79392760E-11   9.97917402E-11   9.79886837E-11   9.79849300E-11   4.99974251E-02   5.00000739E-02   6.49114230E-02   7.10224776E-02   1.82800995E-02   1.27129592E-11   9.96279887E-11   1.00091855E-10   9.99016413E-11   1.00249328E-10   9.98581500E-04   6.52456940E-02   6.44691472E-02   0.00000000E+00   8.14198034E-03   8.46803509E-11   9.27570990E-11   9.46492219E-11   1.00326765E-10
   5.86250000E+02   5.00000000E-01   5.00000000E-01   1.07571579E-01   1.09475984E-01   0.00000000E+00   0.00000000E+00   0.00000000E+00   2.02496376E-04   0.00000000E+00   1.03523080E-10   2.46778587E-04   3.86473231E-10   1.92796257E-03   9.79390920E-11   9.97915326E-11   9.79878345E-11   9.79826891E-11   4.99974272E-02   5.00001269E-02   6.49114231E-02   7.09681555E-02   1.83597235E-02   1.27103846E-11   9.96277721E-11   1.00071009E-10   9.99005649E-11   1.00233424E-10   9.98581274E-04   6.52600008E-02   6.44691472E-02   0.00000000E+00   8.14198034E-03   8.46802877E-11   9.27570990E-11   9.46492112E-11   1.00325032E-10
   6.03750000E+02   5.00000000E-01   5.00000000E-01   1.07571579E-01   1.09492227E-01   0.00000000E+00   0.00000000E+00   0.00000000E+00   2.02496375E-04   0.00000000E+00   1.03591012E-10   2.17134843E-04   3.95189291E-10   1.86713449E-03   9.79388927E-11   9.97913294E-11   9.79869191E-11   9.79804294E-11   4.99974294E-02   5.00001775E-02   6.49114231E-02   7.09147063E-02   1.84385560E-02   1.27079741E-11   9.96274878E-11   1.00050703E-10   9.98992076E-11   1.00217450E-10   9.98581052E-04   6.52751238E-02   6.44691472E-02   0.00000000E+00   8.14198035E-03   8.46802235E-11   9.27570990E-11   9.46492007E-11   1.00323226E-10
   6.21250000E+02   5.00000000E-01   5.00000000E-01   1.07571580E-01   1.09508103E-01   0.00000000E+00   0.00000000E+00   0.00000000E+00   2.02496375E-04   0.00000000E+00   1.03656653E-10   1.90794447E-04   4.03741146E-10   1.80305551E-03   9.79386825E-11   9.97911323E-11   9.79859573E-11   9.79781788E-11   4.99974317E-02   5.00002256E-02   6.49114231E-02   7.08622529E-02   1.85163276E-02   1.27057335E-11   9.96271517E-11   1.00031023E-10   9.98976365E-11   1.00201546E-10   9.98580836E-04   6.52907067E-02   6.44691472E-02   4.46661080E-29   8.14198035E-03   8.46801591E-11   9.27570990E-11   9.46491904E-11   1.00321353E-10
   6.38750000E+02   5.00000000E-01   5.00000000E-01   1.07571581E-01   1.09523634E-01   0.00000000E+00   0.00000000E+00   0.00000000E+00   2.02496374E-04   0.00000000E+00   1.03719735E-10   1.67454957E-04   4.12099411E-10   1.73660321E-03   9.79384666E-11   9.97909431E-11   9.79849718E-11   9.79759672E-11   4.99974340E-02   5.00002714E-02   6.49114231E-02   7.08109299E-02   1.85927533E-02   1.27036670E-11   9.96267836E-11   1.00012060E-10   9.98959329E-11   1.00185868E-10   9.98580628E-04   6.53063553E-02   6.44691472E-02   9.37051618E-29   8.14198036E-03   8.46800954E-11   9.27570990E-11   9.46491804E-11   1.00319416E-10
   6.56250000E+02   5.00000000E-01   5.00000000E-01   1.07571581E-01   1.09538852E-01   0.00000000E+00   0.00000000E+00   0.00000000E+00   2.02496374E-04   0.00000000E+00   1.03780213E-10   1.46827077E-04   4.20260203E-10   1.66857310E-03   9.79382499E-11   9.97907630E-11   9.79839850E-11   9.79738216E-11   4.99974363E-02   5.00003150E-02   6.49114231E-02   7.07608701E-02   1.86675671E-02   1.27017749E-11   9.96264041E-11   9.99938970E-11   9.98941823E-11   1.00170567E-10   9.98580429E-04   6.53216973E-02   6.44691472E-02   1.96995268E-28   8.14198036E-03   8.46800333E-11   9.27570990E-11   9.46491706E-11   1.00317418E-10
   6.73750000E+02   5.00000000E-01   5.00000000E-01   1.07571582E-01   1.09553785E-01   0.00000000E+00   0.00000000E+00   0.00000000E+00   2.02496373E-04   0.00000000E+00   1.03838218E-10   1.28633851E-04   4.28238803E-10   1.59963920E-03   9.79380371E-11   9.97905932E-11   9.79830164E-11   9.79717640E-11   4.99974388E-02   5.00003563E-02   6.49114231E-02   7.07121950E-02   1.87405419E-02   1.27000532E-11   9.96260330E-11   9.99765991E-11   9.98924667E-11   1.00155777E-10   9.98580241E-04   6.53364251E-02   6.44691472E-02   4.15036844E-28   8.14198037E-03   8.46799736E-11   9.27570990E-11   9.46491611E-11   1.00315363E-10
   6.91250000E+02   5.00000000E-01   5.00000000E-01   1.07571583E-01   1.09568447E-01   0.00000000E+00   0.00000000E+00   0.00000000E+00   2.02496372E-04   0.00000000E+00   1.03893999E-10   1.12611734E-04   4.36061558E-10   1.53032086E-03   9.79378316E-11   9.97904341E-11   9.79820813E-11   9.79698097E-11   4.99974413E-02   5.00003956E-02   6.49114231E-02   7.06650060E-02   1.88115069E-02   1.26984935E-11   9.96256878E-11   9.99602068E-11   9.98908572E-11   1.00141602E-10   9.98580064E-04   6.53503199E-02   6.44691472E-02   8.76371807E-28   8.14198037E-03   8.46799170E-11   9.27570990E-11   9.46491519E-11   1.00313254E-10
   7.08750000E+02   5.00000000E-01   5.00000000E-01   1.07571584E-01   1.09582832E-01   0.00000000E+00   0.00000000E+00   0.00000000E+00   2.02496372E-04   0.00000000E+00   1.03947857E-10   9.85151349E-05   4.43757425E-10   1.46101409E-03   9.79376357E-11   9.97902858E-11   9.79811905E-11   9.79679671E-11   4.99974439E-02   5.00004327E-02   6.49114231E-02   7.06193840E-02   1.88803391E-02   1.26970849E-11   9.96253826E-11   9.99447370E-11   9.98894126E-11   1.00128116E-10   9.98579898E-04   6.53632563E-02   6.44691472E-02   3.28880730E-13   8.14198038E-03   8.46798638E-11   9.27570990E-11   9.46491430E-11   1.00311094E-10
   7.26250000E+02   5.00000000E-01   5.00000000E-01   1.07571585E-01   1.09596907E-01   0.00000000E+00   0.00000000E+00   0.00000000E+00   2.02496371E-04   0.00000000E+00   1.04000088E-10   8.61188416E-05   4.51350392E-10   1.39201345E-03   9.79374512E-11   9.97901481E-11   9.79803506E-11   9.79662394E-11   4.99974465E-02   5.00004677E-02   6.49114231E-02   7.05753916E-02   1.89469550E-02   1.26958146E-11   9.96251290E-11   9.99301869E-11   9.98881791E-11   1.00115369E-10   9.98579742E-04   6.53751963E-02   6.44691472E-02   1.35201177E-12   8.14198038E-03   8.46798143E-11   9.27570990E-11   9.46491344E-11   1.00308886E-10
   7.43750000E+02   5.00000000E-01   5.00000000E-01   1.07571586E-01   1.09610611E-01   0.00000000E+00   0.00000000E+00   0.00000000E+00   2.02496370E-04   0.00000000E+00   1.04050933E-10   7.52193105E-05   4.58853265E-10   1.32353620E-03   9.79372789E-11   9.97900206E-11   9.79795652E-11   9.79646259E-11   4.99974492E-02   5.00005003E-02   6.49114231E-02   7.05330749E-02   1.90113022E-02   1.26946698E-11   9.96249354E-11   9.99165386E-11   9.98871921E-11   1.00103384E-10   9.98579598E-04   6.53861772E-02   6.44691472E-02   3.25363118E-12   8.14198039E-03   8.46797688E-11   9.27570990E-11   9.46491261E-11   1.00306634E-10
   7.61250000E+02   5.00000000E-01   5.00000000E-01   1.07571587E-01   1.09623859E-01   0.00000000E+00   0.00000000E+00   0.00000000E+00   2.02496370E-04   0.00000000E+00   1.04100543E-10   6.56348970E-05   4.66262868E-10   1.25574734E-03   9.79371189E-11   9.97899027E-11   9.79788355E-11   9.79631229E-11   4.99974520E-02   5.00005306E-02   6.49114231E-02   7.04924668E-02   1.90733498E-02   1.26936378E-11   9.96248086E-11   9.99037632E-11   9.98864780E-11   1.00092172E-10   9.98579463E-04   6.53962953E-02   6.44691472E-02   6.55555945E-12   8.14198040E-03   8.46797272E-11   9.27570990E-11   9.46491180E-11   1.00304340E-10
   7.78750000E+02   5.00000000E-01   5.00000000E-01   1.07571589E-01   1.09636545E-01   0.00000000E+00   0.00000000E+00   0.00000000E+00   2.02496369E-04   0.00000000E+00   1.04148949E-10   5.72052265E-05   4.73556706E-10   1.18878311E-03   9.79369714E-11   9.97897938E-11   9.79781613E-11   9.79617256E-11   4.99974548E-02   5.00005584E-02   6.49114231E-02   7.04535899E-02   1.91330796E-02   1.26927071E-11   9.96247535E-11   9.98918257E-11   9.98860570E-11   1.00081729E-10   9.98579338E-04   6.54056888E-02   6.44691472E-02   1.20461928E-11   8.14198041E-03   8.46796896E-11   9.27570990E-11   9.46491102E-11   1.00302007E-10
   7.96250000E+02   5.00000000E-01   5.00000000E-01   1.07571590E-01   1.09648546E-01   0.00000000E+00   0.00000000E+00   0.00000000E+00   2.02496368E-04   0.00000000E+00   1.04196046E-10   4.97899831E-05   4.80691194E-10   1.12277274E-03   9.79368362E-11   9.97896931E-11   9.79775419E-11   9.79604286E-11   4.99974577E-02   5.00005834E-02   6.49114231E-02   7.04164594E-02   1.91904783E-02   1.26918674E-11   9.96247743E-11   9.98806887E-11   9.98859459E-11   1.00072046E-10   9.98579222E-04   6.54145169E-02   6.44691472E-02   2.09092039E-11   8.14198041E-03   8.46796558E-11   9.27570990E-11   9.46491027E-11   1.00299639E-10