 TITLE = "Mineral Volumes" 
VARIABLES = "X"          "Y"              "Z"            "Forsterite"     "Fayalite"       "Brucite"        "Lizardite"      "Chrysotile"     "Hematite"       "Magnetite(am)"  "Saponite(Ca)"   "Saponite(K)"    "Saponite(Mg)"   "Saponite(Na)"   "Beidellite(Ca)" "Beidellite(K)"  "Beidellite(Mg)" "Beidellite(Na)" "Enstatite(alph" "Ferrosilite(al" "Anorthite"      "Albite(low)"    "Clinochlore"    "Sudoite"        "Montmor(MgCa)"  "Montmor(MgK)"   "Montmor(MgMg)"  "Montmor(MgNa)"  "Kaolinite"      "Tremolite"      "Pargasite"      "Anhydrite"      "Epidote"        "Scolecite"      "Pyrite"         "FeS(am)"        "Quartz(alpha)"  "Titanite"       "Rutile"         "Barite"         "Fluorite"       "Spessartine(al" "Andradite"      "Celestite"      "Zincite"        "Chalcocyanite"  "Chalcocite(alp"
 ZONE I=         200 , J=           1 , K=           1  F=POINT
   8.75000000E+00   5.00000000E-01   5.00000000E-01   1.07710353E-01   1.09122678E-01   8.70593398E-11   6.21097387E-11   5.75358018E-11   1.90140973E-04   3.24553985E-13   1.04878445E-10   2.10777845E-09   1.24895722E-10   3.15923801E-04   9.80474674E-11   9.97996520E-11   9.80616162E-11   9.80421775E-11   4.99975412E-02   4.99978326E-02   6.52084780E-02   6.88366832E-02   2.02230226E-02   0.00000000E+00   9.95677928E-11   9.99559524E-11   9.95709743E-11   9.95667325E-11   9.98657522E-04   6.49489724E-02   6.47928597E-02   0.00000000E+00   8.25535253E-03   8.56010637E-11   9.31798704E-11   9.49588637E-11   1.00100743E-10   9.99995262E-05   1.00000128E-04   1.02992969E-04   9.99997751E-05   8.21652238E-04   9.99979968E-05   9.99999290E-05   9.96797784E-04   9.99999371E-05   1.00002053E-04
   2.62500000E+01   5.00000000E-01   5.00000000E-01   1.07710352E-01   1.09127419E-01   8.70591924E-11   5.56482649E-11   5.29392584E-11   1.90140972E-04   3.24584637E-13   1.07257854E-10   4.38626917E-09   1.37699286E-10   1.04134976E-03   9.80474762E-11   9.97996642E-11   9.80616562E-11   9.80422829E-11   4.99975403E-02   4.99979398E-02   6.52084780E-02   6.89294864E-02   1.99426023E-02   0.00000000E+00   9.95680378E-11   9.99565348E-11   9.95720045E-11   9.95708807E-11   9.98657573E-04   6.49792563E-02   6.47928597E-02   0.00000000E+00   8.25535253E-03   8.56010851E-11   9.31798704E-11   9.49588637E-11   1.00162320E-10   9.99995036E-05   1.00000143E-04   1.01125011E-04   9.99997720E-05   8.21652238E-04   9.99979968E-05   9.99999290E-05   9.96797840E-04   9.99999371E-05   1.00000023E-04
   4.37500000E+01   5.00000000E-01   5.00000000E-01   1.07710352E-01   1.09132131E-01   8.70591306E-11   5.22609115E-11   5.04663433E-11   1.90140972E-04   3.24604911E-13   1.08776672E-10   5.57405259E-09   1.46083907E-10   1.16292165E-03   9.80475717E-11   9.97997905E-11   9.80620896E-11   9.80433952E-11   4.99975398E-02   4.99980330E-02   6.52084780E-02   6.91849126E-02   1.96426221E-02   0.00000000E+00   9.95696033E-11   9.99600565E-11   9.95785813E-11   9.95965918E-11   9.98657854E-04   6.50005207E-02   6.47928597E-02   0.00000000E+00   8.25535253E-03   8.56011889E-11   9.31798704E-11   9.49588637E-11   1.00215614E-10   9.99994871E-05   1.00000156E-04   1.00381986E-04   9.99997690E-05   8.21652238E-04   9.99979968E-05   9.99999290E-05   9.96797841E-04   9.99999371E-05   1.00000023E-04
   6.12500000E+01   5.00000000E-01   5.00000000E-01   1.07710352E-01   1.09137035E-01   8.70591015E-11   5.05182717E-11   4.91792699E-11   1.90140972E-04   3.24622546E-13   1.10027827E-10   6.38777010E-09   1.53155522E-10   1.43137519E-03   9.80478710E-11   9.98001640E-11   9.80634445E-11   9.80467709E-11   4.99975397E-02   4.99981229E-02   6.52084780E-02   6.95698337E-02   1.91694574E-02   0.00000000E+00   9.95734242E-11   9.99681202E-11   9.95946170E-11   9.96571882E-11   9.98658410E-04   6.50180759E-02   6.47928597E-02   0.00000000E+00   8.25535253E-03   8.56013898E-11   9.31798704E-11   9.49588637E-11   1.00259773E-10   9.99994795E-05   1.00000169E-04   1.00066633E-04   9.99997664E-05   8.21652238E-04   9.99979968E-05   9.99999290E-05   9.96797874E-04   9.99999371E-05   1.00000023E-04
   7.87500000E+01   5.00000000E-01   5.00000000E-01   1.07710352E-01   1.09142491E-01   8.70590866E-11   4.96420763E-11   4.85321733E-11   1.90140972E-04   3.24640472E-13   1.11342252E-10   7.27631119E-09   1.60788796E-10   1.83048726E-03   9.80484416E-11   9.98008338E-11   9.80660241E-11   9.80529952E-11   4.99975400E-02   4.99982120E-02   6.52084780E-02   7.00129839E-02   1.86024242E-02   0.00000000E+00   9.95795375E-11   9.99801500E-11   9.96202479E-11   9.97505298E-11   9.98659192E-04   6.50406575E-02   6.47928597E-02   0.00000000E+00   8.25535253E-03   8.56016686E-11   9.31798704E-11   9.49588637E-11   1.00294531E-10   9.99994769E-05   1.00000180E-04   9.99235169E-05   9.99997639E-05   8.21652238E-04   9.99979968E-05   9.99999289E-05   9.96797935E-04   9.99999371E-05   1.00000023E-04
   9.62500000E+01   5.00000000E-01   5.00000000E-01   1.07710352E-01   1.09148602E-01   8.70590789E-11   4.91786737E-11   4.81936343E-11   1.90140972E-04   3.24659538E-13   1.12730969E-10   8.20300050E-09   1.69069154E-10   2.25132635E-03   9.80492759E-11   9.98017508E-11   9.80697897E-11   9.80617756E-11   4.99975403E-02   4.99983001E-02   6.52084780E-02   7.04495660E-02   1.80369523E-02   0.00000000E+00   9.95872792E-11   9.99942533E-11   9.96526750E-11   9.98639372E-11   9.98660126E-04   6.50695416E-02   6.47928597E-02   0.00000000E+00   8.25535253E-03   8.56019954E-11   9.31798704E-11   9.49588637E-11   1.00320736E-10   9.99994765E-05   1.00000191E-04   9.98531176E-05   9.99997616E-05   8.21652238E-04   9.99979968E-05   9.99999289E-05   9.96798017E-04   9.99999371E-05   1.00000023E-04
   1.13750000E+02   5.00000000E-01   5.00000000E-01   1.07710352E-01   1.09155328E-01   8.70590752E-11   4.89138215E-11   4.80044671E-11   1.90140971E-04   3.24679941E-13   1.14119511E-10   9.02065141E-09   1.77558256E-10   2.61567047E-03   9.80502703E-11   9.98027654E-11   9.80742703E-11   9.80718274E-11   4.99975408E-02   4.99983864E-02   6.52084780E-02   7.08307731E-02   1.75439747E-02   0.00000000E+00   9.95955415E-11   1.00008010E-10   9.96872464E-11   9.99793129E-11   9.98661083E-04   6.51028451E-02   6.47928597E-02   0.00000000E+00   8.25535253E-03   8.56023281E-11   9.31798704E-11   9.49588637E-11   1.00339886E-10   9.99994769E-05   1.00000200E-04   9.98147288E-05   9.99997596E-05   8.21652238E-04   9.99979968E-05   9.99999289E-05   9.96798114E-04   9.99999371E-05   1.00000023E-04
   1.31250000E+02   5.00000000E-01   5.00000000E-01   1.07710352E-01   1.09162592E-01   8.70590741E-11   4.87521489E-11   4.78932495E-11   1.90140971E-04   3.24701760E-13   1.15445728E-10   9.62037287E-09   1.85855725E-10   2.89401600E-03   9.80512908E-11   9.98037187E-11   9.80788593E-11   9.80816673E-11   4.99975413E-02   4.99984706E-02   6.52084780E-02   7.11343413E-02   1.71543191E-02   0.00000000E+00   9.96033575E-11   1.00019665E-10   9.97199101E-11   1.00082335E-10   9.98661948E-04   6.51382056E-02   6.47928597E-02   0.00000000E+00   8.25535254E-03   8.56026320E-11   9.31798704E-11   9.49588637E-11   1.00353573E-10   9.99994776E-05   1.00000208E-04   9.97909849E-05   9.99997576E-05   8.21652238E-04   9.99979968E-05   9.99999289E-05   9.96798222E-04   9.99999371E-05   1.00000023E-04
   1.48750000E+02   5.00000000E-01   5.00000000E-01   1.07710352E-01   1.09170328E-01   8.70590748E-11   4.86512130E-11   4.78281261E-11   1.90140971E-04   3.24725071E-13   1.16677649E-10   9.96136141E-09   1.93724603E-10   3.08752721E-03   9.80522406E-11   9.98045158E-11   9.80831206E-11   9.80903245E-11   4.99975419E-02   4.99985525E-02   6.52084780E-02   7.13603070E-02   1.68676589E-02   0.00000000E+00   9.96102145E-11   1.00028559E-10   9.97485236E-11   1.00166511E-10   9.98662662E-04   6.51738121E-02   6.47928597E-02   0.00000000E+00   8.25535254E-03   8.56028901E-11   9.31798704E-11   9.49588637E-11   1.00363186E-10   9.99994782E-05   1.00000216E-04   9.97741920E-05   9.99997558E-05   8.21652238E-04   9.99979968E-05   9.99999289E-05   9.96798339E-04   9.99999371E-05   1.00000023E-04
   1.66250000E+02   5.00000000E-01   5.00000000E-01   1.07710352E-01   1.09178480E-01   8.70590768E-11   4.85907643E-11   4.77939269E-11   1.90140971E-04   3.24749954E-13   1.17804228E-10   1.00541460E-08   2.01053740E-10   3.21046649E-03   9.80530759E-11   9.98051295E-11   9.80868586E-11   9.80974405E-11   4.99975426E-02   4.99986322E-02   6.52084780E-02   7.15200296E-02   1.66684613E-02   0.00000000E+00   9.96159945E-11   1.00034809E-10   9.97726006E-11   1.00231467E-10   9.98663214E-04   6.52084800E-02   6.47928597E-02   0.00000000E+00   8.25535254E-03   8.56031000E-11   9.31798704E-11   9.49588637E-11   1.00369808E-10   9.99994786E-05   1.00000221E-04   9.97608217E-05   9.99997542E-05   8.21652238E-04   9.99979968E-05   9.99999289E-05   9.96798464E-04   9.99999371E-05   1.00000023E-04
   1.83750000E+02   5.00000000E-01   5.00000000E-01   1.07710352E-01   1.09187001E-01   8.70590798E-11   4.85598860E-11   4.77825054E-11   1.90140971E-04   3.24776480E-13   1.18824917E-10   9.93623046E-09   2.07802677E-10   3.27992542E-03   9.80537915E-11   9.98055745E-11   9.80900512E-11   9.81030623E-11   4.99975432E-02   4.99987096E-02   6.52084780E-02   7.16278044E-02   1.65373910E-02   0.00000000E+00   9.96208002E-11   1.00038882E-10   9.97925778E-11   1.00279889E-10   9.98663621E-04   6.52414454E-02   6.47928597E-02   0.00000000E+00   8.25535254E-03   8.56032672E-11   9.31798704E-11   9.49588637E-11   1.00374235E-10   9.99994787E-05   1.00000226E-04   9.97492046E-05   9.99997527E-05   8.21652238E-04   9.99979968E-05   9.99999289E-05   9.96798596E-04   9.99999371E-05   1.00000023E-04
   2.01250000E+02   5.00000000E-01   5.00000000E-01   1.07710352E-01   1.09195845E-01   8.70590837E-11   4.85519339E-11   4.77889240E-11   1.90140970E-04   3.24804708E-13   1.19743921E-10   9.65454941E-09   2.13968474E-10   3.31115863E-03   9.80544018E-11   9.98058818E-11   9.80927649E-11   9.81074215E-11   4.99975439E-02   4.99987845E-02   6.52084780E-02   7.16966708E-02   1.64568942E-02   0.00000000E+00   9.96248153E-11   1.00041305E-10   9.98092307E-11   1.00315319E-10   9.98663910E-04   6.52722065E-02   6.47928597E-02   0.00000000E+00   8.25535254E-03   8.56033995E-11   9.31798704E-11   9.49588637E-11   1.00377039E-10   9.99994785E-05   1.00000230E-04   9.97385287E-05   9.99997512E-05   8.21652238E-04   9.99979968E-05   9.99999289E-05   9.96798734E-04   9.99999371E-05   1.00000023E-04
   2.18750000E+02   5.00000000E-01   5.00000000E-01   1.07710352E-01   1.09204966E-01   8.70590882E-11   4.85625031E-11   4.78099230E-11   1.90140970E-04   3.24834691E-13   1.20567714E-10   9.25550197E-09   2.19570061E-10   3.31616112E-03   9.80549278E-11   9.98060847E-11   9.80950961E-11   9.81107928E-11   4.99975447E-02   4.99988572E-02   6.52084780E-02   7.17370405E-02   1.64130005E-02   0.00000000E+00   9.96282280E-11   1.00042541E-10   9.98233499E-11   1.00341054E-10   9.98664107E-04   6.53004454E-02   6.47928597E-02   0.00000000E+00   8.25535254E-03   8.56035051E-11   9.31798704E-11   9.49588637E-11   1.00378622E-10   9.99994779E-05   1.00000232E-04   9.97283901E-05   9.99997499E-05   8.21652238E-04   9.99979968E-05   9.99999289E-05   9.96798877E-04   9.99999371E-05   1.00000023E-04
   2.36250000E+02   5.00000000E-01   5.00000000E-01   1.07710352E-01   1.09214321E-01   8.70590934E-11   4.85885122E-11   4.78432334E-11   1.90140970E-04   3.24866481E-13   1.21303991E-10   8.78004704E-09   2.24640659E-10   3.30373091E-03   9.80553906E-11   9.98062115E-11   9.80971394E-11   9.81134259E-11   4.99975454E-02   4.99989274E-02   6.52084780E-02   7.17566831E-02   1.63953227E-02   0.00000000E+00   9.96311979E-11   1.00042947E-10   9.98356074E-11   1.00359753E-10   9.98664238E-04   6.53259910E-02   6.47928597E-02   0.00000000E+00   8.25535255E-03   8.56035907E-11   9.31798704E-11   9.49588637E-11   1.00379268E-10   9.99994769E-05   1.00000234E-04   9.97185847E-05   9.99997487E-05   8.21652238E-04   9.99979968E-05   9.99999289E-05   9.96799023E-04   9.99999371E-05   1.00000023E-04
   2.53750000E+02   5.00000000E-01   5.00000000E-01   1.07710352E-01   1.09223873E-01   8.70590991E-11   4.86277158E-11   4.78872111E-11   1.90140970E-04   3.24900132E-13   1.21961120E-10   8.26178643E-09   2.29223110E-10   3.28003445E-03   9.80558077E-11   9.98062845E-11   9.80989745E-11   9.81155219E-11   4.99975462E-02   4.99989951E-02   6.52084780E-02   7.17611887E-02   1.63964276E-02   0.00000000E+00   9.96338491E-11   1.00042784E-10   9.98465232E-11   1.00373403E-10   9.98664319E-04   6.53487972E-02   6.47928597E-02   0.00000000E+00   8.25535255E-03   8.56036617E-11   9.31798704E-11   9.49588637E-11   1.00379182E-10   9.99994755E-05   1.00000234E-04   9.97090085E-05   9.99997476E-05   8.21652238E-04   9.99979968E-05   9.99999289E-05   9.96799174E-04   9.99999371E-05   1.00000023E-04
   2.71250000E+02   5.00000000E-01   5.00000000E-01   1.07710353E-01   1.09233585E-01   8.70591053E-11   4.86784291E-11   4.79406311E-11   1.90140970E-04   3.24935706E-13   1.22547746E-10   7.72673364E-09   2.33366185E-10   3.24924031E-03   9.80561927E-11   9.98063198E-11   9.81006631E-11   9.81172312E-11   4.99975471E-02   4.99990605E-02   6.52084780E-02   7.17545030E-02   1.64111145E-02   0.00000000E+00   9.96362716E-11   1.00042231E-10   9.98564750E-11   1.00383418E-10   9.98664366E-04   6.53689219E-02   6.47928597E-02   0.00000000E+00   8.25535255E-03   8.56037220E-11   9.31798704E-11   9.49588637E-11   1.00378512E-10   9.99994737E-05   1.00000233E-04   9.96996093E-05   9.99997465E-05   8.21652238E-04   9.99979968E-05   9.99999289E-05   9.96799329E-04   9.99999371E-05   1.00000023E-04
   2.88750000E+02   5.00000000E-01   5.00000000E-01   1.07710353E-01   1.09243429E-01   8.70591120E-11   4.87393879E-11   4.80025841E-11   1.90140969E-04   3.24973277E-13   1.23072455E-10   7.19397413E-09   2.37121363E-10   3.21406608E-03   9.80565555E-11   9.98063287E-11   9.81022494E-11   9.81186598E-11   4.99975479E-02   4.99991235E-02   6.52084780E-02   7.17393864E-02   1.64357938E-02   0.00000000E+00   9.96385275E-11   1.00041411E-10   9.98657234E-11   1.00390762E-10   9.98664386E-04   6.53865057E-02   6.47928597E-02   0.00000000E+00   8.25535255E-03   8.56037744E-11   9.31798704E-11   9.49588637E-11   1.00377369E-10   9.99994715E-05   1.00000231E-04   9.96903620E-05   9.99997456E-05   8.21652238E-04   9.99979968E-05   9.99999289E-05   9.96799486E-04   9.99999371E-05   1.00000023E-04
   3.06250000E+02   5.00000000E-01   5.00000000E-01   1.07710353E-01   1.09253379E-01   8.70591192E-11   4.88096981E-11   4.80724431E-11   1.90140969E-04   3.25012932E-13   1.23543496E-10   6.67672903E-09   2.40540074E-10   3.17620603E-03   9.80569027E-11   9.98063186E-11   9.81037631E-11   9.81198784E-11   4.99975488E-02   4.99991842E-02   6.52084780E-02   7.17177679E-02   1.64680078E-02   0.00000000E+00   9.96406575E-11   1.00040403E-10   9.98744380E-11   1.00396071E-10   9.98664388E-04   6.54017494E-02   6.47928597E-02   0.00000000E+00   8.25535255E-03   8.56038207E-11   9.31798704E-11   9.49588637E-11   1.00375839E-10   9.99994690E-05   1.00000228E-04   9.96812558E-05   9.99997447E-05   8.21652238E-04   9.99979968E-05   9.99999289E-05   9.96799647E-04   9.99999371E-05   1.00000023E-04
   3.23750000E+02   5.00000000E-01   5.00000000E-01   1.07710353E-01   1.09263415E-01   8.70591268E-11   4.88888332E-11   4.81498670E-11   1.90140969E-04   3.25054776E-13   1.23968556E-10   6.18352886E-09   2.43671478E-10   3.13665300E-03   9.80572380E-11   9.98062940E-11   9.81052216E-11   9.81209308E-11   4.99975497E-02   4.99992426E-02   6.52084780E-02   7.16910032E-02   1.65060786E-02   0.00000000E+00   9.96426858E-11   1.00039257E-10   9.98827207E-11   1.00399749E-10   9.98664375E-04   6.54148925E-02   6.47928597E-02   0.00000000E+00   8.25535256E-03   8.56038623E-11   9.31798704E-11   9.49588637E-11   1.00373987E-10   9.99994661E-05   1.00000225E-04   9.96722877E-05   9.99997438E-05   8.21652238E-04   9.99979968E-05   9.99999289E-05   9.96799811E-04   9.99999371E-05   1.00000023E-04
   3.41250000E+02   5.00000000E-01   5.00000000E-01   1.07710353E-01   1.09273519E-01   8.70591349E-11   4.89766407E-11   4.82348123E-11   1.90140969E-04   3.25098926E-13   1.24354610E-10   5.71933161E-09   2.46560870E-10   3.09593820E-03   9.80575635E-11   9.98062579E-11   9.81066335E-11   9.81218414E-11   4.99975507E-02   4.99992988E-02   6.52084780E-02   7.16600589E-02   1.65488532E-02   0.00000000E+00   9.96446251E-11   1.00038006E-10   9.98906247E-11   1.00402038E-10   9.98664351E-04   6.54261927E-02   6.47928597E-02   0.00000000E+00   8.25535256E-03   8.56038998E-11   9.31798704E-11   9.49588637E-11   1.00371869E-10   9.99994630E-05   1.00000220E-04   9.96634591E-05   9.99997431E-05   8.21652238E-04   9.99979968E-05   9.99999289E-05   9.96799977E-04   9.99999371E-05   1.00000023E-04
   3.58750000E+02   5.00000000E-01   5.00000000E-01   1.07710353E-01   1.09283681E-01   8.70591435E-11   4.90733310E-11   4.83275296E-11   1.90140968E-04   3.25145519E-13   1.24707844E-10   5.28650173E-09   2.49248752E-10   3.05430971E-03   9.80578797E-11   9.98062118E-11   9.81080011E-11   9.81226219E-11   4.99975517E-02   4.99993529E-02   6.52084780E-02   7.16256441E-02   1.65955209E-02   0.00000000E+00   9.96464805E-11   1.00036668E-10   9.98981709E-11   1.00403080E-10   9.98664315E-04   6.54359074E-02   6.47928597E-02   0.00000000E+00   8.25535256E-03   8.56039336E-11   9.31798704E-11   9.49588637E-11   1.00369528E-10   9.99994596E-05   1.00000215E-04   9.96547734E-05   9.99997423E-05   8.21652238E-04   9.99979968E-05   9.99999289E-05   9.96800147E-04   9.99999371E-05   1.00000023E-04
   3.76250000E+02   5.00000000E-01   5.00000000E-01   1.07710353E-01   1.09293888E-01   8.70591527E-11   4.91794422E-11   4.84285406E-11   1.90140968E-04   3.25194705E-13   1.25033653E-10   4.88561527E-09   2.51770554E-10   3.01186262E-03   9.80581860E-11   9.98061565E-11   9.81093225E-11   9.81232765E-11   4.99975527E-02   4.99994050E-02   6.52084780E-02   7.15883034E-02   1.66454827E-02   0.00000000E+00   9.96482523E-11   1.00035258E-10   9.99053608E-11   1.00402959E-10   9.98664271E-04   6.54442802E-02   6.47928597E-02   0.00000000E+00   8.25535256E-03   8.56039638E-11   9.31798704E-11   9.49588637E-11   1.00367000E-10   9.99994559E-05   1.00000209E-04   9.96462351E-05   9.99997417E-05   8.21652238E-04   9.99979968E-05   9.99999289E-05   9.96800321E-04   9.99999371E-05   1.00000023E-04
   3.93750000E+02   5.00000000E-01   5.00000000E-01   1.07710353E-01   1.09304135E-01   8.70591623E-11   4.92957889E-11   4.85386003E-11   1.90140968E-04   3.25246645E-13   1.25336691E-10   4.51608364E-09   2.54156888E-10   2.96862605E-03   9.80584816E-11   9.98060925E-11   9.81105939E-11   9.81238058E-11   4.99975538E-02   4.99994551E-02   6.52084780E-02   7.15484797E-02   1.66982636E-02   0.00000000E+00   9.96499385E-11   1.00033784E-10   9.99121869E-11   1.00401730E-10   9.98664217E-04   6.54515305E-02   6.47928597E-02   0.00000000E+00   8.25535257E-03   8.56039906E-11   9.31798704E-11   9.49588637E-11   1.00364318E-10   9.99994521E-05   1.00000203E-04   9.96378494E-05   9.99997410E-05   8.21652238E-04   9.99979968E-05   9.99999289E-05   9.96800497E-04   9.99999371E-05   1.00000023E-04
   4.11250000E+02   5.00000000E-01   5.00000000E-01   1.07710353E-01   1.09314416E-01   8.70591726E-11   4.94234096E-11   4.86586579E-11   1.90140967E-04   3.25301513E-13   1.25620964E-10   4.17660608E-09   2.56434095E-10   2.92461018E-03   9.80587655E-11   9.98060203E-11   9.81118110E-11   9.81242097E-11   4.99975549E-02   4.99995035E-02   6.52084780E-02   7.15065543E-02   1.67534582E-02   0.00000000E+00   9.96515369E-11   1.00032255E-10   9.99186393E-11   1.00399441E-10   9.98664155E-04   6.54578507E-02   6.47928597E-02   0.00000000E+00   8.25535257E-03   8.56040139E-11   9.31798704E-11   9.49588637E-11   1.00361506E-10   9.99994481E-05   1.00000195E-04   9.96296215E-05   9.99997405E-05   8.21652238E-04   9.99979968E-05   9.99999289E-05   9.96800677E-04   9.99999371E-05   1.00000023E-04
   4.28750000E+02   5.00000000E-01   5.00000000E-01   1.07710354E-01   1.09324724E-01   8.70591834E-11   4.95635224E-11   4.87898228E-11   1.90140967E-04   3.25359496E-13   1.25889908E-10   3.86547467E-09   2.58624785E-10   2.87981980E-03   9.80590368E-11   9.98059403E-11   9.81129697E-11   9.81244889E-11   4.99975560E-02   4.99995502E-02   6.52084780E-02   7.14628676E-02   1.68107053E-02   0.00000000E+00   9.96530453E-11   1.00030679E-10   9.99247096E-11   1.00396142E-10   9.98664085E-04   6.54634070E-02   6.47928597E-02   1.98804418E-29   8.25535257E-03   8.56040338E-11   9.31798704E-11   9.49588637E-11   1.00358588E-10   9.99994439E-05   1.00000188E-04   9.96215566E-05   9.99997399E-05   8.21652238E-04   9.99979968E-05   9.99999289E-05   9.96800861E-04   9.99999371E-05   1.00000023E-04
   4.46250000E+02   5.00000000E-01   5.00000000E-01   1.07710354E-01   1.09335057E-01   8.70591948E-11   4.97174934E-11   4.89333414E-11   1.90140967E-04   3.25420791E-13   1.26146444E-10   3.58076704E-09   2.60748146E-10   2.83424725E-03   9.80592947E-11   9.98058530E-11   9.81140662E-11   9.81246441E-11   4.99975571E-02   4.99995952E-02   6.52084780E-02   7.14177279E-02   1.68696815E-02   0.00000000E+00   9.96544622E-11   1.00029063E-10   9.99303917E-11   1.00391882E-10   9.98664008E-04   6.54683442E-02   6.47928597E-02   0.00000000E+00   8.25535258E-03   8.56040503E-11   9.31798704E-11   9.49588637E-11   1.00355582E-10   9.99994396E-05   1.00000179E-04   9.96136599E-05   9.99997395E-05   8.21652238E-04   9.99979968E-05   9.99999289E-05   9.96801048E-04   9.99999371E-05   1.00000023E-04
   4.63750000E+02   5.00000000E-01   5.00000000E-01   1.07710354E-01   1.09345408E-01   8.70592069E-11   4.98868196E-11   4.90905834E-11   1.90140966E-04   3.25485605E-13   1.26392994E-10   3.32046528E-09   2.62819943E-10   2.78786091E-03   9.80595381E-11   9.98057589E-11   9.81150968E-11   9.81246768E-11   4.99975584E-02   4.99996387E-02   6.52084780E-02   7.13714123E-02   1.69301014E-02   0.00000000E+00   9.96557863E-11   1.00027413E-10   9.99356803E-11   1.00386713E-10   9.98663923E-04   6.54727900E-02   6.47928597E-02   1.42960358E-15   8.25535258E-03   8.56040635E-11   9.31798704E-11   9.49588637E-11   1.00352503E-10   9.99994351E-05   1.00000170E-04   9.96059363E-05   9.99997390E-05   8.21652238E-04   9.99979968E-05   9.99999289E-05   9.96801240E-04   9.99999371E-05   1.00000023E-04
   4.81250000E+02   5.00000000E-01   5.00000000E-01   1.07710354E-01   1.09355773E-01   8.70592197E-11   5.00731249E-11   4.92630409E-11   1.90140966E-04   3.25554163E-13   1.26631477E-10   3.08253450E-09   2.64852338E-10   2.74060192E-03   9.80597664E-11   9.98056584E-11   9.81160577E-11   9.81245880E-11   4.99975596E-02   4.99996806E-02   6.52084780E-02   7.13241681E-02   1.69917187E-02   0.00000000E+00   9.96570163E-11   1.00025737E-10   9.99405705E-11   1.00380683E-10   9.98663832E-04   6.54768575E-02   6.47928597E-02   8.85416953E-15   8.25535259E-03   8.56040734E-11   9.31798704E-11   9.49588637E-11   1.00349367E-10   9.99994306E-05   1.00000161E-04   9.95983906E-05   9.99997386E-05   8.21652238E-04   9.99979969E-05   9.99999289E-05   9.96801435E-04   9.99999371E-05   1.00000023E-04
   4.98750000E+02   5.00000000E-01   5.00000000E-01   1.07710355E-01   1.09366142E-01   8.70592331E-11   5.02781709E-11   4.94523387E-11   1.90140965E-04   3.25626702E-13   1.26863303E-10   2.86498268E-09   2.66853763E-10   2.69239444E-03   9.80599784E-11   9.98055519E-11   9.81169448E-11   9.81243784E-11   4.99975609E-02   4.99997211E-02   6.52084780E-02   7.12762152E-02   1.70543194E-02   0.00000000E+00   9.96581511E-11   1.00024040E-10   9.99450577E-11   1.00373840E-10   9.98663735E-04   6.54806435E-02   6.47928597E-02   1.99689650E-14   8.25535259E-03   8.56040801E-11   9.31798704E-11   9.49588637E-11   1.00346185E-10   9.99994261E-05   1.00000152E-04   9.95910271E-05   9.99997382E-05   8.21652238E-04   9.99979969E-05   9.99999289E-05   9.96801635E-04   9.99999371E-05   1.00000023E-04
   5.16250000E+02   5.00000000E-01   5.00000000E-01   1.07710355E-01   1.09376510E-01   8.70592474E-11   5.05038840E-11   4.96602586E-11   1.90140965E-04   3.25703475E-13   1.27089405E-10   2.66591120E-09   2.68829091E-10   2.64316597E-03   9.80601733E-11   9.98054397E-11   9.81177544E-11   9.81240495E-11   4.99975622E-02   4.99997602E-02   6.52084780E-02   7.12277526E-02   1.71177115E-02   0.00000000E+00   9.96591898E-11   1.00022327E-10   9.99491389E-11   1.00366230E-10   9.98663631E-04   6.54842255E-02   6.47928597E-02   3.64008850E-14   8.25535259E-03   8.56040835E-11   9.31798704E-11   9.49588637E-11   1.00342967E-10   9.99994214E-05   1.00000142E-04   9.95838502E-05   9.99997379E-05   8.21652238E-04   9.99979969E-05   9.99999289E-05   9.96801839E-04   9.99999371E-05   1.00000023E-04
   5.33750000E+02   5.00000000E-01   5.00000000E-01   1.07710355E-01   1.09386867E-01   8.70592625E-11   5.07523968E-11   4.98887764E-11   1.90140964E-04   3.25784758E-13   1.27310320E-10   2.48355581E-09   2.70780221E-10   2.59286871E-03   9.80603505E-11   9.98053224E-11   9.81184838E-11   9.81236039E-11   4.99975636E-02   4.99997979E-02   6.52084780E-02   7.11789651E-02   1.71817115E-02   0.00000000E+00   9.96601325E-11   1.00020605E-10   9.99528147E-11   1.00357906E-10   9.98663522E-04   6.54876579E-02   6.47928597E-02   6.04970429E-14   8.25535260E-03   8.56040838E-11   9.31798704E-11   9.49588637E-11   1.00339722E-10   9.99994167E-05   1.00000132E-04   9.95768639E-05   9.99997376E-05   8.21652238E-04   9.99979969E-05   9.99999290E-05   9.96802048E-04   9.99999371E-05   1.00000023E-04
   5.51250000E+02   5.00000000E-01   5.00000000E-01   1.07710356E-01   1.09397204E-01   8.70592785E-11   5.10261028E-11   5.01401104E-11   1.90140964E-04   3.25870842E-13   1.27526298E-10   2.31631360E-09   2.72707000E-10   2.54149242E-03   9.80605096E-11   9.98052005E-11   9.81191316E-11   9.81230464E-11   4.99975650E-02   4.99998343E-02   6.52084780E-02   7.11300291E-02   1.72461355E-02   0.00000000E+00   9.96609807E-11   1.00018878E-10   9.99560918E-11   1.00348929E-10   9.98663408E-04   6.54909703E-02   6.47928597E-02   9.56551586E-14   8.25535260E-03   8.56040810E-11   9.31798704E-11   9.49588637E-11   1.00336459E-10   9.99994120E-05   1.00000121E-04   9.95700720E-05   9.99997373E-05   8.21652238E-04   9.99979969E-05   9.99999290E-05   9.96802262E-04   9.99999371E-05   1.00000023E-04
   5.68750000E+02   5.00000000E-01   5.00000000E-01   1.07710356E-01   1.09407511E-01   8.70592953E-11   5.13277191E-11   5.04167784E-11   1.90140963E-04   3.25962045E-13   1.27737431E-10   2.16275213E-09   2.74608238E-10   2.48906267E-03   9.80606507E-11   9.98050747E-11   9.81196985E-11   9.81223842E-11   4.99975665E-02   4.99998694E-02   6.52084780E-02   7.10811160E-02   1.73107960E-02   0.00000000E+00   9.96617375E-11   1.00017153E-10   9.99589839E-11   1.00339370E-10   9.98663289E-04   6.54941700E-02   6.47928597E-02   1.46812559E-13   8.25535261E-03   8.56040754E-11   9.31798704E-11   9.49588637E-11   1.00333185E-10   9.99994073E-05   1.00000111E-04   9.95634780E-05   9.99997370E-05   8.21652238E-04   9.99979968E-05   9.99999290E-05   9.96802480E-04   9.99999371E-05   1.00000023E-04
   5.86250000E+02   5.00000000E-01   5.00000000E-01   1.07710357E-01   1.09417781E-01   8.70593132E-11   5.16603544E-11   5.07216589E-11   1.90140963E-04   3.26058707E-13   1.27943752E-10   2.02160099E-09   2.76482500E-10   2.43562516E-03   9.80607743E-11   9.98049458E-11   9.81201867E-11   9.81216261E-11   4.99975680E-02   4.99999032E-02   6.52084780E-02   7.10323903E-02   1.73755081E-02   0.00000000E+00   9.96624075E-11   1.00015438E-10   9.99615104E-11   1.00329308E-10   9.98663167E-04   6.54972486E-02   6.47928597E-02   2.21173704E-13   8.25535262E-03   8.56040670E-11   9.31798704E-11   9.49588637E-11   1.00329905E-10   9.99994025E-05   1.00000100E-04   9.95570855E-05   9.99997368E-05   8.21652238E-04   9.99979968E-05   9.99999290E-05   9.96802704E-04   9.99999371E-05   1.00000023E-04
   6.03750000E+02   5.00000000E-01   5.00000000E-01   1.07710357E-01   1.09428000E-01   8.70593321E-11   5.20275777E-11   5.10580550E-11   1.90140962E-04   3.26161197E-13   1.28145282E-10   1.89173043E-09   2.78328419E-10   2.38122316E-03   9.80608810E-11   9.98048147E-11   9.81205993E-11   9.81207817E-11   4.99975696E-02   4.99999358E-02   6.52084780E-02   7.09840058E-02   1.74400983E-02   0.00000000E+00   9.96629964E-11   1.00013737E-10   9.99636949E-11   1.00318822E-10   9.98663042E-04   6.55001900E-02   6.47928597E-02   3.29298416E-13   8.25535262E-03   8.56040562E-11   9.31798704E-11   9.49588637E-11   1.00326625E-10   9.99993978E-05   1.00000089E-04   9.95508976E-05   9.99997366E-05   8.21652238E-04   9.99979968E-05   9.99999290E-05   9.96802932E-04   9.99999371E-05   1.00000023E-04
   6.21250000E+02   5.00000000E-01   5.00000000E-01   1.07710358E-01   1.09438158E-01   8.70593521E-11   5.24334919E-11   5.14297620E-11   1.90140961E-04   3.26269916E-13   1.28342013E-10   1.77212515E-09   2.80144479E-10   2.32587747E-03   9.80609715E-11   9.98046820E-11   9.81209396E-11   9.81198601E-11   4.99975712E-02   4.99999671E-02   6.52084781E-02   7.09361005E-02   1.75044158E-02   0.00000000E+00   9.96635098E-11   1.00012056E-10   9.99655613E-11   1.00307990E-10   9.98662914E-04   6.55029780E-02   6.47928597E-02   4.86738644E-13   8.25535263E-03   8.56040432E-11   9.31798704E-11   9.49588637E-11   1.00323350E-10   9.99993931E-05   1.00000079E-04   9.95449173E-05   9.99997364E-05   8.21652238E-04   9.99979968E-05   9.99999290E-05   9.96803166E-04   9.99999371E-05   1.00000023E-04