 TITLE = "Mineral Volumes" 
VARIABLES = "X"          "Y"              "Z"            "Forsterite"     "Fayalite"       "Brucite"        "Lizardite"      "Chrysotile"     "Hematite"       "Magnetite(am)"  "Saponite(Ca)"   "Saponite(K)"    "Saponite(Mg)"   "Saponite(Na)"   "Beidellite(Ca)" "Beidellite(K)"  "Beidellite(Mg)" "Beidellite(Na)" "Enstatite(alph" "Ferrosilite(al" "Anorthite"      "Albite(low)"    "Clinochlore"    "Sudoite"        "Montmor(MgCa)"  "Montmor(MgK)"   "Montmor(MgMg)"  "Montmor(MgNa)"  "Kaolinite"      "Tremolite"      "Pargasite"      "Anhydrite"      "Epidote"        "Scolecite"      "Pyrite"         "FeS(am)"        "Quartz(alpha)"  "Titanite"       "Rutile"         "Barite"         "Fluorite"       "Spessartine(al" "Andradite"      "Celestite"      "Zincite"        "Chalcocyanite"  "Chalcocite(alp"
 ZONE I=         200 , J=           1 , K=           1  F=POINT
   8.75000000E+00   5.00000000E-01   5.00000000E-01   1.07964279E-01   1.09220773E-01   8.84166641E-11   6.73652698E-11   6.25071954E-11   1.70701781E-04   5.55132359E-13   1.04764142E-10   1.92655576E-09   1.24175503E-10   1.66793330E-04   9.82641409E-11   9.98220699E-11   9.82767341E-11   9.82594322E-11   4.99978172E-02   4.99980806E-02   6.57275190E-02   6.89647963E-02   1.80787369E-02   0.00000000E+00   9.96161007E-11   9.99608812E-11   9.96189228E-11   9.96151360E-11   9.98807785E-04   6.54967621E-02   6.53552159E-02   0.00000000E+00   8.43371787E-03   8.70991251E-11   9.39187536E-11   9.55099184E-11   1.00090586E-10   9.99995933E-05   1.00000114E-04   1.02656008E-04   9.99998003E-05   8.39844171E-04   9.99982211E-05   9.99999370E-05   9.97155949E-04   9.99999441E-05   1.00001823E-04
   2.62500000E+01   5.00000000E-01   5.00000000E-01   1.07964279E-01   1.09225496E-01   8.84165298E-11   6.07129704E-11   5.77718950E-11   1.70701780E-04   5.55184894E-13   1.07220099E-10   4.22541074E-09   1.37366069E-10   7.88499150E-04   9.82641449E-11   9.98220756E-11   9.82767526E-11   9.82594809E-11   4.99978167E-02   4.99981853E-02   6.57275190E-02   6.90326522E-02   1.78506635E-02   0.00000000E+00   9.96162471E-11   9.99612292E-11   9.96195387E-11   9.96176155E-11   9.98807809E-04   6.55273217E-02   6.53552159E-02   0.00000000E+00   8.43371787E-03   8.70991371E-11   9.39187536E-11   9.55099184E-11   1.00146488E-10   9.99995780E-05   1.00000127E-04   1.01000232E-04   9.99997975E-05   8.39844171E-04   9.99982212E-05   9.99999370E-05   9.97156029E-04   9.99999441E-05   1.00000021E-04
   4.37500000E+01   5.00000000E-01   5.00000000E-01   1.07964279E-01   1.09230149E-01   8.84164704E-11   5.70463832E-11   5.50946407E-11   1.70701780E-04   5.55219398E-13   1.08743867E-10   5.39685072E-09   1.45764224E-10   9.09217565E-04   9.82641991E-11   9.98221470E-11   9.82769982E-11   9.82601117E-11   4.99978162E-02   4.99982748E-02   6.57275190E-02   6.92309075E-02   1.76113022E-02   0.00000000E+00   9.96173030E-11   9.99636052E-11   9.96239742E-11   9.96349630E-11   9.98807973E-04   6.55487659E-02   6.53552159E-02   0.00000000E+00   8.43371787E-03   8.70992048E-11   9.39187536E-11   9.55099184E-11   1.00194930E-10   9.99995627E-05   1.00000138E-04   1.00340347E-04   9.99997949E-05   8.39844171E-04   9.99982212E-05   9.99999369E-05   9.97156032E-04   9.99999441E-05   1.00000021E-04
   6.12500000E+01   5.00000000E-01   5.00000000E-01   1.07964279E-01   1.09234969E-01   8.84164420E-11   5.51519876E-11   5.36953089E-11   1.70701780E-04   5.55249270E-13   1.09992419E-10   6.18777276E-09   1.52806785E-10   1.11770263E-03   9.82643843E-11   9.98223781E-11   9.82778367E-11   9.82622026E-11   4.99978162E-02   4.99983607E-02   6.57275190E-02   6.95415995E-02   1.72314134E-02   0.00000000E+00   9.96200514E-11   9.99694127E-11   9.96355072E-11   9.96785817E-11   9.98808323E-04   6.55664692E-02   6.53552159E-02   0.00000000E+00   8.43371787E-03   8.70993448E-11   9.39187536E-11   9.55099184E-11   1.00235488E-10   9.99995554E-05   1.00000150E-04   1.00060075E-04   9.99997926E-05   8.39844171E-04   9.99982212E-05   9.99999369E-05   9.97156060E-04   9.99999441E-05   1.00000021E-04
   7.87500000E+01   5.00000000E-01   5.00000000E-01   1.07964279E-01   1.09240329E-01   8.84164275E-11   5.41994378E-11   5.29917616E-11   1.70701779E-04   5.55279589E-13   1.11305565E-10   7.05697603E-09   1.60417547E-10   1.43560089E-03   9.82647511E-11   9.98228086E-11   9.82794950E-11   9.82662083E-11   4.99978164E-02   4.99984461E-02   6.57275190E-02   6.99084173E-02   1.67651377E-02   0.00000000E+00   9.96246043E-11   9.99783909E-11   9.96545922E-11   9.97481669E-11   9.98808828E-04   6.55892413E-02   6.53552159E-02   0.00000000E+00   8.43371787E-03   8.70995442E-11   9.39187536E-11   9.55099184E-11   1.00267910E-10   9.99995530E-05   1.00000160E-04   9.99328401E-05   9.99997904E-05   8.39844171E-04   9.99982212E-05   9.99999369E-05   9.97156116E-04   9.99999441E-05   1.00000021E-04
   9.62500000E+01   5.00000000E-01   5.00000000E-01   1.07964279E-01   1.09246332E-01   8.84164198E-11   5.36959703E-11   5.26239457E-11   1.70701779E-04   5.55311805E-13   1.12694485E-10   7.97050187E-09   1.68683712E-10   1.78322404E-03   9.82653068E-11   9.98234200E-11   9.82820027E-11   9.82720657E-11   4.99978168E-02   4.99985306E-02   6.57275190E-02   7.02792806E-02   1.62872292E-02   0.00000000E+00   9.96305608E-11   9.99892856E-11   9.96795351E-11   9.98355740E-11   9.98809448E-04   6.56183691E-02   6.53552159E-02   0.00000000E+00   8.43371787E-03   8.70997843E-11   9.39187536E-11   9.55099184E-11   1.00292800E-10   9.99995527E-05   1.00000169E-04   9.98702399E-05   9.99997884E-05   8.39844171E-04   9.99982212E-05   9.99999369E-05   9.97156190E-04   9.99999441E-05   1.00000021E-04
   1.13750000E+02   5.00000000E-01   5.00000000E-01   1.07964279E-01   1.09252934E-01   8.84164161E-11   5.34083085E-11   5.24185024E-11   1.70701779E-04   5.55346247E-13   1.14083581E-10   8.78144245E-09   1.77160954E-10   2.09398950E-03   9.82659941E-11   9.98241237E-11   9.82850990E-11   9.82790331E-11   4.99978172E-02   4.99986136E-02   6.57275190E-02   7.06124039E-02   1.58583206E-02   0.00000000E+00   9.96371295E-11   1.00000307E-10   9.97070118E-11   9.99276128E-11   9.98810103E-04   6.56519535E-02   6.53552159E-02   0.00000000E+00   8.43371787E-03   8.71000361E-11   9.39187536E-11   9.55099184E-11   1.00311333E-10   9.99995533E-05   1.00000177E-04   9.98360946E-05   9.99997865E-05   8.39844171E-04   9.99982212E-05   9.99999369E-05   9.97156279E-04   9.99999441E-05   1.00000021E-04
   1.31250000E+02   5.00000000E-01   5.00000000E-01   1.07964279E-01   1.09260055E-01   8.84164149E-11   5.32326784E-11   5.22977035E-11   1.70701779E-04   5.55383042E-13   1.15410097E-10   9.38048730E-09   1.85445500E-10   2.33807907E-03   9.82667226E-11   9.98248096E-11   9.82883744E-11   9.82860921E-11   4.99978178E-02   4.99986944E-02   6.57275190E-02   7.08854061E-02   1.55094415E-02   0.00000000E+00   9.96435248E-11   1.00009979E-10   9.97337300E-11   1.00012442E-10   9.98810713E-04   6.56876123E-02   6.53552159E-02   0.00000000E+00   8.43371788E-03   8.71002723E-11   9.39187536E-11   9.55099184E-11   1.00324835E-10   9.99995540E-05   1.00000184E-04   9.98149667E-05   9.99997848E-05   8.39844171E-04   9.99982212E-05   9.99999369E-05   9.97156377E-04   9.99999441E-05   1.00000021E-04
   1.48750000E+02   5.00000000E-01   5.00000000E-01   1.07964279E-01   1.09267626E-01   8.84164155E-11   5.31229626E-11   5.22269311E-11   1.70701779E-04   5.55422323E-13   1.16641853E-10   9.72580935E-09   1.93299072E-10   2.51208743E-03   9.82674173E-11   9.98254008E-11   9.82914911E-11   9.82924740E-11   4.99978183E-02   4.99987731E-02   6.57275190E-02   7.10945291E-02   1.52454056E-02   0.00000000E+00   9.96492645E-11   1.00017606E-10   9.97576738E-11   1.00083661E-10   9.98811230E-04   6.57235191E-02   6.53552159E-02   0.00000000E+00   8.43371788E-03   8.71004772E-11   9.39187536E-11   9.55099184E-11   1.00334503E-10   9.99995547E-05   1.00000190E-04   9.98000165E-05   9.99997832E-05   8.39844171E-04   9.99982212E-05   9.99999369E-05   9.97156485E-04   9.99999441E-05   1.00000021E-04
   1.66250000E+02   5.00000000E-01   5.00000000E-01   1.07964279E-01   1.09275592E-01   8.84164172E-11   5.30571899E-11   5.21897237E-11   1.70701779E-04   5.55464224E-13   1.17767770E-10   9.82666959E-09   2.00610142E-10   2.62542846E-03   9.82680380E-11   9.98258671E-11   9.82942682E-11   9.82978217E-11   4.99978189E-02   4.99988494E-02   6.57275190E-02   7.12468384E-02   1.50564172E-02   0.00000000E+00   9.96541824E-11   1.00023141E-10   9.97781539E-11   1.00139878E-10   9.98811638E-04   6.57584794E-02   6.53552159E-02   0.00000000E+00   8.43371788E-03   8.71006464E-11   9.39187536E-11   9.55099184E-11   1.00341304E-10   9.99995551E-05   1.00000196E-04   9.97881073E-05   9.99997818E-05   8.39844171E-04   9.99982212E-05   9.99999369E-05   9.97156599E-04   9.99999441E-05   1.00000021E-04
   1.83750000E+02   5.00000000E-01   5.00000000E-01   1.07964279E-01   1.09283903E-01   8.84164200E-11   5.30235267E-11   5.21772505E-11   1.70701779E-04   5.55508868E-13   1.18787335E-10   9.71939585E-09   2.07338304E-10   2.69141084E-03   9.82685734E-11   9.98262112E-11   9.82966570E-11   9.83020937E-11   4.99978196E-02   4.99989233E-02   6.57275190E-02   7.13531788E-02   1.49277233E-02   0.00000000E+00   9.96583132E-11   1.00026878E-10   9.97953222E-11   1.00182574E-10   9.98811942E-04   6.57917229E-02   6.53552159E-02   0.00000000E+00   8.43371788E-03   8.71007823E-11   9.39187536E-11   9.55099184E-11   1.00345966E-10   9.99995552E-05   1.00000200E-04   9.97777553E-05   9.99997804E-05   8.39844171E-04   9.99982212E-05   9.99999368E-05   9.97156720E-04   9.99999441E-05   1.00000021E-04
   2.01250000E+02   5.00000000E-01   5.00000000E-01   1.07964279E-01   1.09292513E-01   8.84164236E-11   5.30147735E-11   5.21841614E-11   1.70701778E-04   5.55556356E-13   1.19704809E-10   9.44996195E-09   2.13480866E-10   2.72271831E-03   9.82690296E-11   9.98264516E-11   9.82986859E-11   9.83054154E-11   4.99978203E-02   4.99989948E-02   6.57275190E-02   7.14241960E-02   1.48449356E-02   0.00000000E+00   9.96617807E-11   1.00029210E-10   9.98097010E-11   1.00214291E-10   9.98812159E-04   6.58227434E-02   6.53552159E-02   0.00000000E+00   8.43371788E-03   8.71008901E-11   9.39187536E-11   9.55099184E-11   1.00349023E-10   9.99995550E-05   1.00000203E-04   9.97682390E-05   9.99997791E-05   8.39844171E-04   9.99982212E-05   9.99999368E-05   9.97156846E-04   9.99999441E-05   1.00000021E-04
   2.18750000E+02   5.00000000E-01   5.00000000E-01   1.07964279E-01   1.09301378E-01   8.84164278E-11   5.30261569E-11   5.22069244E-11   1.70701778E-04   5.55606779E-13   1.20526726E-10   9.06402190E-09   2.19057075E-10   2.72973213E-03   9.82694199E-11   9.98266109E-11   9.83004154E-11   9.83079692E-11   4.99978210E-02   4.99990640E-02   6.57275190E-02   7.14687686E-02   1.47961033E-02   0.00000000E+00   9.96647274E-11   1.00030504E-10   9.98218914E-11   1.00237604E-10   9.98812308E-04   6.58512204E-02   6.53552159E-02   0.00000000E+00   8.43371788E-03   8.71009758E-11   9.39187536E-11   9.55099184E-11   1.00350860E-10   9.99995543E-05   1.00000205E-04   9.97591994E-05   9.99997780E-05   8.39844171E-04   9.99982212E-05   9.99999368E-05   9.97156977E-04   9.99999441E-05   1.00000021E-04
   2.36250000E+02   5.00000000E-01   5.00000000E-01   1.07964279E-01   1.09310455E-01   8.84164326E-11   5.30543369E-11   5.22430804E-11   1.70701778E-04   5.55660223E-13   1.21260838E-10   8.60197086E-09   2.24100466E-10   2.72029111E-03   9.82697589E-11   9.98267098E-11   9.83019118E-11   9.83099347E-11   4.99978217E-02   4.99991306E-02   6.57275190E-02   7.14937316E-02   1.47720641E-02   0.00000000E+00   9.96672824E-11   1.00031057E-10   9.98324349E-11   1.00254693E-10   9.98812405E-04   6.58769815E-02   6.53552159E-02   0.00000000E+00   8.43371789E-03   8.71010446E-11   9.39187536E-11   9.55099184E-11   1.00351754E-10   9.99995533E-05   1.00000206E-04   9.97504551E-05   9.99997769E-05   8.39844171E-04   9.99982212E-05   9.99999368E-05   9.97157112E-04   9.99999441E-05   1.00000021E-04
   2.53750000E+02   5.00000000E-01   5.00000000E-01   1.07964279E-01   1.09319705E-01   8.84164380E-11   5.30968783E-11   5.22908469E-11   1.70701778E-04   5.55716780E-13   1.21915560E-10   8.09699353E-09   2.28654155E-10   2.70001839E-03   9.82700596E-11   9.98267654E-11   9.83032342E-11   9.83114634E-11   4.99978225E-02   4.99991949E-02   6.57275190E-02   7.15041270E-02   1.47660984E-02   0.00000000E+00   9.96695491E-11   1.00031091E-10   9.98417660E-11   1.00267241E-10   9.98812464E-04   6.58999800E-02   6.53552159E-02   0.00000000E+00   8.43371789E-03   8.71011009E-11   9.39187536E-11   9.55099184E-11   1.00351907E-10   9.99995519E-05   1.00000206E-04   9.97419140E-05   9.99997759E-05   8.39844171E-04   9.99982212E-05   9.99999368E-05   9.97157250E-04   9.99999441E-05   1.00000021E-04
   2.71250000E+02   5.00000000E-01   5.00000000E-01   1.07964279E-01   1.09329095E-01   8.84164439E-11   5.31519526E-11   5.23488947E-11   1.70701778E-04   5.55776556E-13   1.22499572E-10   7.57480470E-09   2.32767130E-10   2.67279235E-03   9.82703325E-11   9.98267901E-11   9.83044301E-11   9.83126725E-11   4.99978233E-02   4.99992567E-02   6.57275190E-02   7.15035908E-02   1.47734044E-02   0.00000000E+00   9.96716050E-11   1.00030765E-10   9.98502098E-11   1.00276473E-10   9.98812494E-04   6.59202744E-02   6.53552159E-02   0.00000000E+00   8.43371789E-03   8.71011478E-11   9.39187536E-11   9.55099184E-11   1.00351467E-10   9.99995501E-05   1.00000205E-04   9.97335295E-05   9.99997750E-05   8.39844171E-04   9.99982212E-05   9.99999368E-05   9.97157392E-04   9.99999441E-05   1.00000021E-04
   2.88750000E+02   5.00000000E-01   5.00000000E-01   1.07964279E-01   1.09338594E-01   8.84164502E-11   5.32181873E-11   5.24162368E-11   1.70701778E-04   5.55839673E-13   1.23021492E-10   7.05428665E-09   2.36491025E-10   2.64118996E-03   9.82705855E-11   9.98267930E-11   9.83055345E-11   9.83136471E-11   4.99978241E-02   4.99993162E-02   6.57275190E-02   7.14947171E-02   1.47906032E-02   0.00000000E+00   9.96735050E-11   1.00030187E-10   9.98579962E-11   1.00283249E-10   9.98812505E-04   6.59380064E-02   6.53552159E-02   0.00000000E+00   8.43371789E-03   8.71011877E-11   9.39187536E-11   9.55099184E-11   1.00350546E-10   9.99995479E-05   1.00000204E-04   9.97252794E-05   9.99997741E-05   8.39844171E-04   9.99982212E-05   9.99999368E-05   9.97157537E-04   9.99999441E-05   1.00000021E-04
   3.06250000E+02   5.00000000E-01   5.00000000E-01   1.07964279E-01   1.09348179E-01   8.84164570E-11   5.32946108E-11   5.24921922E-11   1.70701777E-04   5.55906279E-13   1.23489586E-10   6.54853373E-09   2.39877361E-10   2.60685088E-03   9.82708238E-11   9.98267802E-11   9.83065717E-11   9.83144455E-11   4.99978249E-02   4.99993733E-02   6.57275190E-02   7.14793522E-02   1.48153381E-02   0.00000000E+00   9.96752857E-11   1.00029429E-10   9.98652785E-11   1.00288144E-10   9.98812500E-04   6.59533786E-02   6.53552159E-02   0.00000000E+00   8.43371789E-03   8.71012224E-11   9.39187536E-11   9.55099184E-11   1.00349231E-10   9.99995455E-05   1.00000201E-04   9.97171542E-05   9.99997733E-05   8.39844171E-04   9.99982212E-05   9.99999368E-05   9.97157684E-04   9.99999441E-05   1.00000021E-04
   3.23750000E+02   5.00000000E-01   5.00000000E-01   1.07964279E-01   1.09357828E-01   8.84164642E-11   5.33806511E-11   5.25763904E-11   1.70701777E-04   5.55976548E-13   1.23911555E-10   6.06600926E-09   2.42975329E-10   2.57076076E-03   9.82710508E-11   9.98267557E-11   9.83075565E-11   9.83151048E-11   4.99978258E-02   4.99994282E-02   6.57275190E-02   7.14588164E-02   1.48459702E-02   0.00000000E+00   9.96769698E-11   1.00028540E-10   9.98721518E-11   1.00291534E-10   9.98812484E-04   6.59666326E-02   6.53552159E-02   0.00000000E+00   8.43371789E-03   8.71012528E-11   9.39187536E-11   9.55099184E-11   1.00347589E-10   9.99995426E-05   1.00000198E-04   9.97091513E-05   9.99997725E-05   8.39844171E-04   9.99982212E-05   9.99999368E-05   9.97157835E-04   9.99999441E-05   1.00000021E-04
   3.41250000E+02   5.00000000E-01   5.00000000E-01   1.07964279E-01   1.09367527E-01   8.84164719E-11   5.34761429E-11   5.26687849E-11   1.70701777E-04   5.56050680E-13   1.24294382E-10   5.61164903E-09   2.45830211E-10   2.53346778E-03   9.82712682E-11   9.98267218E-11   9.83084970E-11   9.83156469E-11   4.99978267E-02   4.99994809E-02   6.57275190E-02   7.14340663E-02   1.48813528E-02   0.00000000E+00   9.96785699E-11   1.00027549E-10   9.98786688E-11   1.00293652E-10   9.98812458E-04   6.59780280E-02   6.53552159E-02   0.00000000E+00   8.43371790E-03   8.71012796E-11   9.39187536E-11   9.55099184E-11   1.00345676E-10   9.99995396E-05   1.00000194E-04   9.97012718E-05   9.99997719E-05   8.39844171E-04   9.99982212E-05   9.99999368E-05   9.97157988E-04   9.99999441E-05   1.00000021E-04
   3.58750000E+02   5.00000000E-01   5.00000000E-01   1.07964279E-01   1.09377261E-01   8.84164801E-11   5.35813165E-11   5.27696496E-11   1.70701777E-04   5.56128904E-13   1.24644253E-10   5.18782780E-09   2.48482452E-10   2.49524690E-03   9.82714766E-11   9.98266800E-11   9.83093958E-11   9.83160834E-11   4.99978277E-02   4.99995315E-02   6.57275190E-02   7.14058129E-02   1.49206668E-02   0.00000000E+00   9.96800917E-11   1.00026476E-10   9.98848532E-11   1.00294639E-10   9.98812425E-04   6.59878246E-02   6.53552159E-02   0.00000000E+00   8.43371790E-03   8.71013032E-11   9.39187536E-11   9.55099184E-11   1.00343537E-10   9.99995362E-05   1.00000189E-04   9.96935189E-05   9.99997712E-05   8.39844171E-04   9.99982212E-05   9.99999368E-05   9.97158145E-04   9.99999441E-05   1.00000021E-04
   3.76250000E+02   5.00000000E-01   5.00000000E-01   1.07964280E-01   1.09387022E-01   8.84164888E-11   5.36967590E-11   5.28795536E-11   1.70701776E-04   5.56211471E-13   1.24966562E-10   4.79515398E-09   2.50967406E-10   2.45622156E-03   9.82716760E-11   9.98266311E-11   9.83102525E-11   9.83164193E-11   4.99978286E-02   4.99995801E-02   6.57275190E-02   7.13746063E-02   1.49633003E-02   0.00000000E+00   9.96815365E-11   1.00025334E-10   9.98907110E-11   1.00294582E-10   9.98812384E-04   6.59962679E-02   6.53552159E-02   0.00000000E+00   8.43371790E-03   8.71013238E-11   9.39187536E-11   9.55099184E-11   1.00341209E-10   9.99995327E-05   1.00000184E-04   9.96858965E-05   9.99997706E-05   8.39844171E-04   9.99982212E-05   9.99999368E-05   9.97158304E-04   9.99999441E-05   1.00000020E-04
   3.93750000E+02   5.00000000E-01   5.00000000E-01   1.07964280E-01   1.09396801E-01   8.84164980E-11   5.38233591E-11   5.29993206E-11   1.70701776E-04   5.56298656E-13   1.25265959E-10   4.43308505E-09   2.53315590E-10   2.41644635E-03   9.82718657E-11   9.98265757E-11   9.83110649E-11   9.83166568E-11   4.99978297E-02   4.99996268E-02   6.57275190E-02   7.13408944E-02   1.50087666E-02   0.00000000E+00   9.96829036E-11   1.00024133E-10   9.98962394E-11   1.00293542E-10   9.98812337E-04   6.60035792E-02   6.53552159E-02   0.00000000E+00   8.43371790E-03   8.71013414E-11   9.39187536E-11   9.55099184E-11   1.00338724E-10   9.99995289E-05   1.00000178E-04   9.96784094E-05   9.99997701E-05   8.39844171E-04   9.99982212E-05   9.99999368E-05   9.97158467E-04   9.99999441E-05   1.00000020E-04
   4.11250000E+02   5.00000000E-01   5.00000000E-01   1.07964280E-01   1.09406594E-01   8.84165078E-11   5.39622496E-11   5.31299861E-11   1.70701776E-04   5.56390751E-13   1.25546446E-10   4.10037361E-09   2.55553243E-10   2.37595299E-03   9.82720453E-11   9.98265141E-11   9.83118304E-11   9.83167971E-11   4.99978307E-02   4.99996717E-02   6.57275190E-02   7.13050607E-02   1.50566526E-02   0.00000000E+00   9.96841917E-11   1.00022880E-10   9.99014332E-11   1.00291569E-10   9.98812283E-04   6.60099526E-02   6.53552159E-02   0.00000000E+00   8.43371791E-03   8.71013562E-11   9.39187536E-11   9.55099184E-11   1.00336108E-10   9.99995250E-05   1.00000171E-04   9.96710620E-05   9.99997696E-05   8.39844171E-04   9.99982212E-05   9.99999369E-05   9.97158633E-04   9.99999441E-05   1.00000020E-04
   4.28750000E+02   5.00000000E-01   5.00000000E-01   1.07964280E-01   1.09416395E-01   8.84165181E-11   5.41147595E-11   5.32727605E-11   1.70701776E-04   5.56488069E-13   1.25811452E-10   3.79536800E-09   2.57702870E-10   2.33476499E-03   9.82722140E-11   9.98264468E-11   9.83125465E-11   9.83168418E-11   4.99978318E-02   4.99997150E-02   6.57275190E-02   7.12674452E-02   1.51065932E-02   0.00000000E+00   9.96853997E-11   1.00021583E-10   9.99062878E-11   1.00288711E-10   9.98812224E-04   6.60155556E-02   6.53552159E-02   4.26424209E-29   8.43371791E-03   8.71013681E-11   9.39187536E-11   9.55099184E-11   1.00333383E-10   9.99995209E-05   1.00000164E-04   9.96638592E-05   9.99997691E-05   8.39844171E-04   9.99982212E-05   9.99999369E-05   9.97158802E-04   9.99999441E-05   1.00000020E-04
   4.46250000E+02   5.00000000E-01   5.00000000E-01   1.07964280E-01   1.09426199E-01   8.84165290E-11   5.42823794E-11   5.34290034E-11   1.70701775E-04   5.56590944E-13   1.26063892E-10   3.51620200E-09   2.59783548E-10   2.29289290E-03   9.82723714E-11   9.98263742E-11   9.83132107E-11   9.83167925E-11   4.99978329E-02   4.99997566E-02   6.57275190E-02   7.12283533E-02   1.51582631E-02   0.00000000E+00   9.96865268E-11   1.00020249E-10   9.99108001E-11   1.00285021E-10   9.98812159E-04   6.60205344E-02   6.53552159E-02   0.00000000E+00   8.43371791E-03   8.71013772E-11   9.39187536E-11   9.55099184E-11   1.00330569E-10   9.99995167E-05   1.00000157E-04   9.96568055E-05   9.99997687E-05   8.39844171E-04   9.99982212E-05   9.99999369E-05   9.97158974E-04   9.99999441E-05   1.00000020E-04
   4.63750000E+02   5.00000000E-01   5.00000000E-01   1.07964281E-01   1.09436002E-01   8.84165406E-11   5.44667421E-11   5.36002092E-11   1.70701775E-04   5.56699729E-13   1.26306181E-10   3.26091198E-09   2.61810930E-10   2.25032446E-03   9.82725169E-11   9.98262968E-11   9.83138209E-11   9.83166511E-11   4.99978340E-02   4.99997966E-02   6.57275190E-02   7.11880588E-02   1.52113761E-02   0.00000000E+00   9.96875723E-11   1.00018885E-10   9.99149680E-11   1.00280545E-10   9.98812090E-04   6.60250176E-02   6.53552159E-02   2.95379597E-15   8.43371791E-03   8.71013836E-11   9.39187536E-11   9.55099184E-11   1.00327681E-10   9.99995124E-05   1.00000149E-04   9.96499054E-05   9.99997682E-05   8.39844171E-04   9.99982212E-05   9.99999369E-05   9.97159151E-04   9.99999441E-05   1.00000020E-04
   4.81250000E+02   5.00000000E-01   5.00000000E-01   1.07964281E-01   1.09445797E-01   8.84165528E-11   5.46696190E-11   5.37880054E-11   1.70701775E-04   5.56814798E-13   1.26540229E-10   3.02751448E-09   2.63797057E-10   2.20702196E-03   9.82726499E-11   9.98262148E-11   9.83143745E-11   9.83164192E-11   4.99978352E-02   4.99998351E-02   6.57275190E-02   7.11468046E-02   1.52656848E-02   0.00000000E+00   9.96885356E-11   1.00017497E-10   9.99187891E-11   1.00275332E-10   9.98812016E-04   6.60291192E-02   6.53552159E-02   1.79312241E-14   8.43371792E-03   8.71013874E-11   9.39187536E-11   9.55099184E-11   1.00324733E-10   9.99995080E-05   1.00000141E-04   9.96431629E-05   9.99997679E-05   8.39844171E-04   9.99982212E-05   9.99999369E-05   9.97159331E-04   9.99999441E-05   1.00000020E-04
   4.98750000E+02   5.00000000E-01   5.00000000E-01   1.07964281E-01   1.09455578E-01   8.84165657E-11   5.48929317E-11   5.39941644E-11   1.70701774E-04   5.56936556E-13   1.26767436E-10   2.81406553E-09   2.65750236E-10   2.16293139E-03   9.82727698E-11   9.98261287E-11   9.83148692E-11   9.83160983E-11   4.99978365E-02   4.99998722E-02   6.57275190E-02   7.11048067E-02   1.53209744E-02   0.00000000E+00   9.96894162E-11   1.00016089E-10   9.99222613E-11   1.00269424E-10   9.98811937E-04   6.60329369E-02   6.53552159E-02   3.96013334E-14   8.43371792E-03   8.71013885E-11   9.39187536E-11   9.55099184E-11   1.00321738E-10   9.99995036E-05   1.00000133E-04   9.96365821E-05   9.99997675E-05   8.39844171E-04   9.99982212E-05   9.99999369E-05   9.97159515E-04   9.99999441E-05   1.00000020E-04
   5.16250000E+02   5.00000000E-01   5.00000000E-01   1.07964281E-01   1.09465335E-01   8.84165794E-11   5.51387811E-11   5.42206297E-11   1.70701774E-04   5.57065430E-13   1.26988726E-10   2.61871085E-09   2.67675219E-10   2.11800094E-03   9.82728761E-11   9.98260387E-11   9.83153025E-11   9.83156899E-11   4.99978377E-02   4.99999080E-02   6.57275190E-02   7.10622589E-02   1.53770528E-02   0.00000000E+00   9.96902138E-11   1.00014668E-10   9.99253836E-11   1.00262866E-10   9.98811854E-04   6.60365489E-02   6.53552159E-02   7.06216012E-14   8.43371793E-03   8.71013871E-11   9.39187536E-11   9.55099184E-11   1.00318705E-10   9.99994991E-05   1.00000124E-04   9.96301669E-05   9.99997672E-05   8.39844171E-04   9.99982212E-05   9.99999369E-05   9.97159703E-04   9.99999441E-05   1.00000020E-04
   5.33750000E+02   5.00000000E-01   5.00000000E-01   1.07964282E-01   1.09475062E-01   8.84165939E-11   5.54094933E-11   5.44695562E-11   1.70701773E-04   5.57201885E-13   1.27204624E-10   2.43972666E-09   2.69573784E-10   2.07220056E-03   9.82729683E-11   9.98259452E-11   9.83156728E-11   9.83151967E-11   4.99978390E-02   4.99999423E-02   6.57275190E-02   7.10193402E-02   1.54337386E-02   0.00000000E+00   9.96909286E-11   1.00013238E-10   9.99281582E-11   1.00255705E-10   9.98811768E-04   6.60400100E-02   6.53552159E-02   1.14708140E-13   8.43371793E-03   8.71013831E-11   9.39187536E-11   9.55099184E-11   1.00315643E-10   9.99994946E-05   1.00000115E-04   9.96239208E-05   9.99997670E-05   8.39844171E-04   9.99982212E-05   9.99999369E-05   9.97159896E-04   9.99999441E-05   1.00000020E-04
   5.51250000E+02   5.00000000E-01   5.00000000E-01   1.07964282E-01   1.09484748E-01   8.84166092E-11   5.57076792E-11   5.47433638E-11   1.70701773E-04   5.57346416E-13   1.27415369E-10   2.27554648E-09   2.71445667E-10   2.02553414E-03   9.82730464E-11   9.98258488E-11   9.83159798E-11   9.83146231E-11   4.99978404E-02   4.99999753E-02   6.57275190E-02   7.09762198E-02   1.54908519E-02   0.00000000E+00   9.96915625E-11   1.00011804E-10   9.99305921E-11   1.00247995E-10   9.98811679E-04   6.60433500E-02   6.53552159E-02   1.77071864E-13   8.43371793E-03   8.71013767E-11   9.39187536E-11   9.55099184E-11   1.00312561E-10   9.99994900E-05   1.00000106E-04   9.96178472E-05   9.99997667E-05   8.39844171E-04   9.99982212E-05   9.99999369E-05   9.97160093E-04   9.99999441E-05   1.00000020E-04
   5.68750000E+02   5.00000000E-01   5.00000000E-01   1.07964283E-01   1.09494385E-01   8.84166254E-11   5.60363028E-11   5.50447993E-11   1.70701772E-04   5.57499560E-13   1.27621043E-10   2.12477038E-09   2.73289577E-10   1.97803837E-03   9.82731106E-11   9.98257498E-11   9.83162243E-11   9.83139749E-11   4.99978418E-02   5.00000071E-02   6.57275190E-02   7.09330602E-02   1.55482117E-02   0.00000000E+00   9.96921182E-11   1.00010371E-10   9.99326980E-11   1.00239800E-10   9.98811586E-04   6.60465765E-02   6.53552159E-02   2.65042255E-13   8.43371794E-03   8.71013681E-11   9.39187536E-11   9.55099184E-11   1.00309465E-10   9.99994854E-05   1.00000096E-04   9.96119494E-05   9.99997665E-05   8.39844171E-04   9.99982212E-05   9.99999369E-05   9.97160294E-04   9.99999441E-05   1.00000020E-04
   5.86250000E+02   5.00000000E-01   5.00000000E-01   1.07964283E-01   1.09503962E-01   8.84166426E-11   5.63987555E-11   5.53770030E-11   1.70701772E-04   5.57661896E-13   1.27821671E-10   1.98615662E-09   2.75103982E-10   1.92976908E-03   9.82731612E-11   9.98256491E-11   9.83164086E-11   9.83132593E-11   4.99978432E-02   5.00000376E-02   6.57275191E-02   7.08900172E-02   1.56056400E-02   0.00000000E+00   9.96926001E-11   1.00008946E-10   9.99344939E-11   1.00231187E-10   9.98811491E-04   6.60496807E-02   6.53552159E-02   3.88963190E-13   8.43371794E-03   8.71013573E-11   9.39187536E-11   9.55099184E-11   1.00306361E-10   9.99994809E-05   1.00000087E-04   9.96062303E-05   9.99997663E-05   8.39844171E-04   9.99982212E-05   9.99999369E-05   9.97160499E-04   9.99999441E-05   1.00000020E-04
   6.03750000E+02   5.00000000E-01   5.00000000E-01   1.07964284E-01   1.09513471E-01   8.84166608E-11   5.67989311E-11   5.57435786E-11   1.70701771E-04   5.57834050E-13   1.28017263E-10   1.85860072E-09   2.76887419E-10   1.88078093E-03   9.82731989E-11   9.98255471E-11   9.83165357E-11   9.83124843E-11   4.99978447E-02   5.00000668E-02   6.57275191E-02   7.08472359E-02   1.56629697E-02   0.00000000E+00   9.96930133E-11   1.00007534E-10   9.99360013E-11   1.00222228E-10   9.98811395E-04   6.60526465E-02   6.53552159E-02   5.63485043E-13   8.43371795E-03   8.71013447E-11   9.39187536E-11   9.55099184E-11   1.00303255E-10   9.99994763E-05   1.00000077E-04   9.96006930E-05   9.99997661E-05   8.39844171E-04   9.99982212E-05   9.99999370E-05   9.97160710E-04   9.99999441E-05   1.00000020E-04
   6.21250000E+02   5.00000000E-01   5.00000000E-01   1.07964285E-01   1.09522898E-01   8.84166801E-11   5.72413057E-11   5.61486670E-11   1.70701771E-04   5.58016701E-13   1.28207800E-10   1.74110958E-09   2.78638263E-10   1.83110904E-03   9.82732244E-11   9.98254445E-11   9.83166086E-11   9.83116574E-11   4.99978462E-02   5.00000949E-02   6.57275191E-02   7.08048475E-02   1.57200534E-02   0.00000000E+00   9.96933630E-11   1.00006139E-10   9.99372425E-11   1.00212989E-10   9.98811298E-04   6.60554576E-02   6.53552159E-02   8.09436627E-13   8.43371795E-03   8.71013303E-11   9.39187536E-11   9.55099184E-11   1.00300150E-10   9.99994717E-05   1.00000068E-04   9.95953400E-05   9.99997659E-05   8.39844171E-04   9.99982212E-05   9.99999370E-05   9.97160925E-04   9.99999441E-05   1.00000020E-04