 TITLE = "Mineral Volumes" 
VARIABLES = "X"          "Y"              "Z"            "Forsterite"     "Fayalite"       "Brucite"        "Lizardite"      "Chrysotile"     "Hematite"       "Magnetite(am)"  "Saponite(Ca)"   "Saponite(K)"    "Saponite(Mg)"   "Saponite(Na)"   "Beidellite(Ca)" "Beidellite(K)"  "Beidellite(Mg)" "Beidellite(Na)" "Enstatite(alph" "Ferrosilite(al" "Anorthite"      "Albite(low)"    "Clinochlore"    "Sudoite"        "Montmor(MgCa)"  "Montmor(MgK)"   "Montmor(MgMg)"  "Montmor(MgNa)"  "Kaolinite"      "Tremolite"      "Pargasite"      "Anhydrite"      "Epidote"        "Scolecite"      "Pyrite"         "FeS(am)"        "Quartz(alpha)" 
 ZONE I=         200 , J=           1 , K=           1  F=POINT
   8.75000000E+00   5.00000000E-01   5.00000000E-01   1.07526352E-01   1.09052756E-01   0.00000000E+00   0.00000000E+00   0.00000000E+00   2.05876963E-04   0.00000000E+00   1.00730169E-10   3.85552079E-04   1.38846424E-10   4.54886770E-05   9.78906016E-11   9.97836175E-11   9.79058929E-11   9.78848880E-11   4.99973454E-02   4.99976658E-02   6.48195907E-02   6.87504122E-02   2.14930614E-02   1.87213718E-10   9.95331919E-11   9.95253410E-11   9.95366556E-11   9.95321855E-11   9.98550095E-04   6.45479225E-02   6.43697373E-02   0.00000000E+00   8.11096151E-03   8.44155836E-11   9.26263659E-11   9.45514241E-11   1.00108012E-10
   2.62500000E+01   5.00000000E-01   5.00000000E-01   1.07526352E-01   1.09056828E-01   0.00000000E+00   0.00000000E+00   0.00000000E+00   2.05876962E-04   0.00000000E+00   1.00897495E-10   1.46209147E-03   1.48967869E-10   1.91460470E-04   9.78906376E-11   9.97836676E-11   9.79060566E-11   9.78853193E-11   4.99973425E-02   4.99977571E-02   6.48195907E-02   6.89201946E-02   2.10094077E-02   1.48755153E-10   9.95338126E-11   9.95400397E-11   9.95392657E-11   9.95426963E-11   9.98550279E-04   6.45798585E-02   6.43697373E-02   0.00000000E+00   8.11096151E-03   8.44156486E-11   9.26263659E-11   9.45514938E-11   1.00170042E-10
   4.37500000E+01   5.00000000E-01   5.00000000E-01   1.07526351E-01   1.09060190E-01   0.00000000E+00   0.00000000E+00   0.00000000E+00   2.05876962E-04   0.00000000E+00   1.00966234E-10   1.72147497E-03   1.53186324E-10   2.57349254E-04   9.78910248E-11   9.97841789E-11   9.79078124E-11   9.78898262E-11   4.99973409E-02   4.99978263E-02   6.48195907E-02   6.94072963E-02   2.04145434E-02   9.98926655E-11   9.95379169E-11   9.96320364E-11   9.95565091E-11   9.96101245E-11   9.98551323E-04   6.45948312E-02   6.43697373E-02   0.00000000E+00   8.11096151E-03   8.44159822E-11   9.26263659E-11   9.45515246E-11   1.00221122E-10
   6.12500000E+01   5.00000000E-01   5.00000000E-01   1.07526351E-01   1.09063870E-01   0.00000000E+00   0.00000000E+00   0.00000000E+00   2.05876962E-04   0.00000000E+00   1.01034100E-10   2.09590630E-03   1.57596288E-10   3.60306019E-04   9.78920718E-11   9.97854802E-11   9.79125532E-11   9.79016213E-11   4.99973405E-02   4.99978974E-02   6.48195907E-02   7.00716919E-02   1.95948394E-02   5.70050705E-11   9.95468425E-11   9.98192558E-11   9.95939703E-11   9.97515245E-11   9.98553146E-04   6.46067707E-02   6.43697373E-02   0.00000000E+00   8.11096151E-03   8.44165643E-11   9.26263659E-11   9.45515495E-11   1.00260487E-10
   7.87500000E+01   5.00000000E-01   5.00000000E-01   1.07526351E-01   1.09068219E-01   0.00000000E+00   0.00000000E+00   0.00000000E+00   2.05876961E-04   0.00000000E+00   1.01122766E-10   2.55077777E-03   1.63407101E-10   5.07912453E-04   9.78937109E-11   9.97873826E-11   9.79199626E-11   9.79194161E-11   4.99973405E-02   4.99979707E-02   6.48195907E-02   7.07325477E-02   1.87480135E-02   3.26806001E-11   9.95588909E-11   1.00053234E-10   9.96444879E-11   9.99345791E-11   9.98555303E-04   6.46268354E-02   6.43697373E-02   0.00000000E+00   8.11096151E-03   8.44172521E-11   9.26263659E-11   9.45515708E-11   1.00288524E-10
   9.62500000E+01   5.00000000E-01   5.00000000E-01   1.07526351E-01   1.09073358E-01   0.00000000E+00   0.00000000E+00   0.00000000E+00   2.05876961E-04   0.00000000E+00   1.01224672E-10   2.91922261E-03   1.70208728E-10   6.77286935E-04   9.78956450E-11   9.97894572E-11   9.79286893E-11   9.79395447E-11   4.99973408E-02   4.99980451E-02   6.48195907E-02   7.12876488E-02   1.80288242E-02   2.17240445E-11   9.95716217E-11   1.00278769E-10   9.96978104E-11   1.00118712E-10   9.98557409E-04   6.46520227E-02   6.43697373E-02   0.00000000E+00   8.11096152E-03   8.44179272E-11   9.26263659E-11   9.45515891E-11   1.00307371E-10
   1.13750000E+02   5.00000000E-01   5.00000000E-01   1.07526351E-01   1.09079307E-01   0.00000000E+00   0.00000000E+00   0.00000000E+00   2.05876961E-04   0.00000000E+00   1.01329705E-10   3.13530525E-03   1.77399593E-10   8.49215726E-04   9.78975082E-11   9.97912683E-11   9.79370777E-11   9.79579515E-11   4.99973412E-02   4.99981205E-02   6.48195907E-02   7.16967256E-02   1.75008148E-02   1.68866208E-11   9.95830279E-11   1.00458161E-10   9.97455225E-11   1.00273695E-10   9.98559145E-04   6.46792401E-02   6.43697373E-02   0.00000000E+00   8.11096152E-03   8.44185010E-11   9.26263659E-11   9.45516047E-11   1.00319618E-10
   1.31250000E+02   5.00000000E-01   5.00000000E-01   1.07526351E-01   1.09086101E-01   0.00000000E+00   0.00000000E+00   0.00000000E+00   2.05876961E-04   0.00000000E+00   1.01433669E-10   3.20629144E-03   1.84718833E-10   1.01375177E-03   9.78990569E-11   9.97925827E-11   9.79440312E-11   9.79722228E-11   4.99973417E-02   4.99981974E-02   6.48195907E-02   7.19652315E-02   1.71588966E-02   1.46456933E-11   9.95921441E-11   1.00579146E-10   9.97835893E-11   1.00387411E-10   9.98560365E-04   6.47066452E-02   6.43697373E-02   0.00000000E+00   8.11096152E-03   8.44189344E-11   9.26263659E-11   9.45516181E-11   1.00327496E-10
   1.48750000E+02   5.00000000E-01   5.00000000E-01   1.07526351E-01   1.09093806E-01   0.00000000E+00   0.00000000E+00   0.00000000E+00   2.05876960E-04   0.00000000E+00   1.01536459E-10   3.16493163E-03   1.92168582E-10   1.16720140E-03   9.79002112E-11   9.97933751E-11   9.79491940E-11   9.79818234E-11   4.99973424E-02   4.99982764E-02   6.48195907E-02   7.21201891E-02   1.69673663E-02   1.35580949E-11   9.95988836E-11   1.00647134E-10   9.98116636E-11   1.00461479E-10   9.98561083E-04   6.47332887E-02   6.43697373E-02   0.00000000E+00   8.11096152E-03   8.44192291E-11   9.26263659E-11   9.45516293E-11   1.00332644E-10
   1.66250000E+02   5.00000000E-01   5.00000000E-01   1.07526351E-01   1.09102473E-01   0.00000000E+00   0.00000000E+00   0.00000000E+00   2.05876960E-04   0.00000000E+00   1.01638715E-10   3.05015152E-03   1.99800182E-10   1.30964582E-03   9.79010165E-11   9.97937500E-11   9.79527769E-11   9.79875137E-11   4.99973431E-02   4.99983575E-02   6.48195907E-02   7.21945311E-02   1.68818208E-02   1.30118627E-11   9.96036884E-11   1.00675796E-10   9.98316127E-11   1.00504798E-10   9.98561406E-04   6.47586415E-02   6.43697373E-02   0.00000000E+00   8.11096153E-03   8.44194127E-11   9.26263659E-11   9.45516384E-11   1.00336123E-10
   1.83750000E+02   5.00000000E-01   5.00000000E-01   1.07526351E-01   1.09112073E-01   0.00000000E+00   0.00000000E+00   0.00000000E+00   2.05876960E-04   0.00000000E+00   1.01740159E-10   2.89620221E-03   2.07588772E-10   1.44319218E-03   9.79015808E-11   9.97938566E-11   9.79552698E-11   9.79905927E-11   4.99973439E-02   4.99984401E-02   6.48195907E-02   7.22184115E-02   1.68614425E-02   1.27310164E-11   9.96072018E-11   1.00680046E-10   9.98461416E-11   1.00528219E-10   9.98561476E-04   6.47823761E-02   6.43697373E-02   0.00000000E+00   8.11096153E-03   8.44195224E-11   9.26263659E-11   9.45516450E-11   1.00338544E-10
   2.01250000E+02   5.00000000E-01   5.00000000E-01   1.07526352E-01   1.09122582E-01   0.00000000E+00   0.00000000E+00   0.00000000E+00   2.05876960E-04   0.00000000E+00   1.01841344E-10   2.72039711E-03   2.15563707E-10   1.56786736E-03   9.79019768E-11   9.97937914E-11   9.79570024E-11   9.79919173E-11   4.99973448E-02   4.99985238E-02   6.48195907E-02   7.22105635E-02   1.68821672E-02   1.25830377E-11   9.96098490E-11   1.00669283E-10   9.98570372E-11   1.00538745E-10   9.98561382E-04   6.48047003E-02   6.43697373E-02   0.00000000E+00   8.11096153E-03   8.44195819E-11   9.26263659E-11   9.45516494E-11   1.00340278E-10
   2.18750000E+02   5.00000000E-01   5.00000000E-01   1.07526352E-01   1.09133989E-01   0.00000000E+00   0.00000000E+00   0.00000000E+00   2.05876959E-04   0.00000000E+00   1.01943422E-10   2.53174153E-03   2.23800279E-10   1.68232887E-03   9.79022389E-11   9.97936042E-11   9.79581315E-11   9.79919204E-11   4.99973458E-02   4.99986083E-02   6.48195907E-02   7.21813557E-02   1.69311539E-02   1.25021538E-11   9.96118464E-11   1.00648500E-10   9.98652097E-11   1.00540064E-10   9.98561167E-04   6.48263305E-02   6.43697373E-02   0.00000000E+00   8.11096153E-03   8.44196030E-11   9.26263659E-11   9.45516515E-11   1.00341564E-10
   2.36250000E+02   5.00000000E-01   5.00000000E-01   1.07526352E-01   1.09146174E-01   0.00000000E+00   0.00000000E+00   0.00000000E+00   2.05876959E-04   0.00000000E+00   1.02045471E-10   2.34079536E-03   2.32208776E-10   1.78788108E-03   9.79024157E-11   9.97933498E-11   9.79588773E-11   9.79911269E-11   4.99973468E-02   4.99986928E-02   6.48195907E-02   7.21401847E-02   1.69955507E-02   1.24558417E-11   9.96134476E-11   1.00622477E-10   9.98717228E-11   1.00536007E-10   9.98560884E-04   6.48479506E-02   6.43697373E-02   0.00000000E+00   8.11096154E-03   8.44195998E-11   9.26263659E-11   9.45516516E-11   1.00342522E-10
   2.53750000E+02   5.00000000E-01   5.00000000E-01   1.07526352E-01   1.09159015E-01   0.00000000E+00   0.00000000E+00   0.00000000E+00   2.05876959E-04   0.00000000E+00   1.02146374E-10   2.15068585E-03   2.40681946E-10   1.88295735E-03   9.79025210E-11   9.97930473E-11   9.79593015E-11   9.79897093E-11   4.99973479E-02   4.99987769E-02   6.48195907E-02   7.20912140E-02   1.70705759E-02   1.24272523E-11   9.96147372E-11   1.00593044E-10   9.98769321E-11   1.00527989E-10   9.98560551E-04   6.48701792E-02   6.43697373E-02   0.00000000E+00   8.11096154E-03   8.44195773E-11   9.26263659E-11   9.45516498E-11   1.00343232E-10
   2.71250000E+02   5.00000000E-01   5.00000000E-01   1.07526352E-01   1.09172383E-01   0.00000000E+00   0.00000000E+00   0.00000000E+00   2.05876959E-04   0.00000000E+00   1.02244609E-10   1.96450318E-03   2.49081516E-10   1.96666008E-03   9.79025631E-11   9.97927096E-11   9.79594432E-11   9.79877822E-11   4.99973490E-02   4.99988601E-02   6.48195907E-02   7.20369186E-02   1.71530758E-02   1.24078328E-11   9.96157617E-11   1.00561289E-10   9.98810329E-11   1.00516850E-10   9.98560181E-04   6.48932674E-02   6.43697373E-02   0.00000000E+00   8.11096154E-03   8.44195385E-11   9.26263659E-11   9.45516463E-11   1.00343747E-10
   2.88750000E+02   5.00000000E-01   5.00000000E-01   1.07526352E-01   1.09186153E-01   0.00000000E+00   0.00000000E+00   0.00000000E+00   2.05876959E-04   0.00000000E+00   1.02338532E-10   1.78519457E-03   2.57263029E-10   2.03890470E-03   9.79025539E-11   9.97923502E-11   9.79593551E-11   9.79854780E-11   4.99973501E-02   4.99989420E-02   6.48195907E-02   7.19791514E-02   1.72403874E-02   1.23933322E-11   9.96165693E-11   1.00528171E-10   9.98842282E-11   1.00503376E-10   9.98559787E-04   6.49169716E-02   6.43697373E-02   0.00000000E+00   8.11096154E-03   8.44194869E-11   9.26263659E-11   9.45516413E-11   1.00344096E-10
   3.06250000E+02   5.00000000E-01   5.00000000E-01   1.07526352E-01   1.09200234E-01   0.00000000E+00   0.00000000E+00   0.00000000E+00   2.05876958E-04   0.00000000E+00   1.02426913E-10   1.61520264E-03   2.65120191E-10   2.10023636E-03   9.79025081E-11   9.97919828E-11   9.79591042E-11   9.79829447E-11   4.99973513E-02   4.99990224E-02   6.48195907E-02   7.19193560E-02   1.73302491E-02   1.23816766E-11   9.96172147E-11   1.00494582E-10   9.98867462E-11   1.00488363E-10   9.98559385E-04   6.49406575E-02   6.43697373E-02   0.00000000E+00   8.11096154E-03   8.44194265E-11   9.26263659E-11   9.45516351E-11   1.00344296E-10
   3.23750000E+02   5.00000000E-01   5.00000000E-01   1.07526352E-01   1.09214576E-01   0.00000000E+00   0.00000000E+00   0.00000000E+00   2.05876958E-04   0.00000000E+00   1.02509240E-10   1.45628766E-03   2.72610553E-10   2.15158844E-03   9.79024416E-11   9.97916202E-11   9.79587619E-11   9.79803269E-11   4.99973526E-02   4.99991013E-02   6.48195907E-02   7.18586442E-02   1.74208216E-02   1.23718770E-11   9.96177542E-11   1.00461306E-10   9.98888234E-11   1.00472556E-10   9.98558987E-04   6.49635526E-02   6.43697373E-02   0.00000000E+00   8.11096155E-03   8.44193615E-11   9.26263659E-11   9.45516277E-11   1.00344351E-10
   3.41250000E+02   5.00000000E-01   5.00000000E-01   1.07526352E-01   1.09229169E-01   0.00000000E+00   0.00000000E+00   0.00000000E+00   2.05876958E-04   0.00000000E+00   1.02585725E-10   1.30947233E-03   2.79755826E-10   2.19402376E-03   9.79023691E-11   9.97912723E-11   9.79583936E-11   9.79777474E-11   4.99973539E-02   4.99991787E-02   6.48195907E-02   7.17978450E-02   1.75107140E-02   1.23634484E-11   9.96182407E-11   1.00428965E-10   9.98906793E-11   1.00456597E-10   9.98558604E-04   6.49849760E-02   6.43697373E-02   0.00000000E+00   8.11096155E-03   8.44192954E-11   9.26263659E-11   9.45516194E-11   1.00344259E-10
   3.58750000E+02   5.00000000E-01   5.00000000E-01   1.07526352E-01   1.09244035E-01   0.00000000E+00   0.00000000E+00   0.00000000E+00   2.05876958E-04   0.00000000E+00   1.02657141E-10   1.17501195E-03   2.86627435E-10   2.22834397E-03   9.79023009E-11   9.97909449E-11   9.79580456E-11   9.79752857E-11   4.99973552E-02   4.99992545E-02   6.48195907E-02   7.17374532E-02   1.75991421E-02   1.23561142E-11   9.96187121E-11   1.00397933E-10   9.98924720E-11   1.00440914E-10   9.98558243E-04   6.50044841E-02   6.43697373E-02   0.00000000E+00   8.11096155E-03   8.44192309E-11   9.26263659E-11   9.45516104E-11   1.00344020E-10
   3.76250000E+02   5.00000000E-01   5.00000000E-01   1.07526352E-01   1.09259203E-01   0.00000000E+00   0.00000000E+00   0.00000000E+00   2.05876957E-04   0.00000000E+00   1.02724564E-10   1.05267401E-03   2.93324149E-10   2.25517462E-03   9.79022435E-11   9.97906405E-11   9.79577459E-11   9.79729841E-11   4.99973566E-02   4.99993290E-02   6.48195907E-02   7.16777456E-02   1.76857158E-02   1.23496896E-11   9.96191930E-11   1.00368388E-10   9.98943037E-11   1.00425757E-10   9.98557905E-04   6.50218848E-02   6.43697373E-02   0.00000000E+00   8.11096155E-03   8.44191697E-11   9.26263659E-11   9.45516007E-11   1.00343629E-10
   3.93750000E+02   5.00000000E-01   5.00000000E-01   1.07526353E-01   1.09274701E-01   0.00000000E+00   0.00000000E+00   0.00000000E+00   2.05876957E-04   0.00000000E+00   1.02789183E-10   9.41853866E-04   2.99955033E-10   2.27484424E-03   9.79021987E-11   9.97903586E-11   9.79575032E-11   9.79708495E-11   4.99973580E-02   4.99994021E-02   6.48195907E-02   7.16188033E-02   1.77704170E-02   1.23440231E-11   9.96196930E-11   1.00340333E-10   9.98962136E-11   1.00411202E-10   9.98557592E-04   6.50372047E-02   6.43697373E-02   0.00000000E+00   8.11096156E-03   8.44191123E-11   9.26263659E-11   9.45515905E-11   1.00343086E-10
   4.11250000E+02   5.00000000E-01   5.00000000E-01   1.07526353E-01   1.09290549E-01   0.00000000E+00   0.00000000E+00   0.00000000E+00   2.05876957E-04   0.00000000E+00   1.02852157E-10   8.41761291E-04   3.06626128E-10   2.28749926E-03   9.79021654E-11   9.97900967E-11   9.79573120E-11   9.79688643E-11   4.99973595E-02   4.99994738E-02   6.48195907E-02   7.15605888E-02   1.78534440E-02   1.23389830E-11   9.96202100E-11   1.00313659E-10   9.98981924E-11   1.00397199E-10   9.98557301E-04   6.50506323E-02   6.43697373E-02   0.00000000E+00   8.11096156E-03   8.44190587E-11   9.26263659E-11   9.45515798E-11   1.00342394E-10
   4.28750000E+02   5.00000000E-01   5.00000000E-01   1.07526353E-01   1.09306744E-01   0.00000000E+00   0.00000000E+00   0.00000000E+00   2.05876956E-04   0.00000000E+00   1.02914521E-10   7.51544422E-04   3.13431478E-10   2.29322094E-03   9.79021404E-11   9.97898518E-11   9.79571579E-11   9.79669984E-11   4.99973611E-02   4.99995441E-02   6.48195907E-02   7.15030211E-02   1.79350716E-02   1.23344560E-11   9.96207348E-11   1.00288200E-10   9.99002012E-11   1.00383635E-10   9.98557029E-04   6.50624631E-02   6.43697373E-02   0.00000000E+00   8.11096156E-03   8.44190083E-11   9.26263659E-11   9.45515689E-11   1.00341556E-10
   4.46250000E+02   5.00000000E-01   5.00000000E-01   1.07526353E-01   1.09323264E-01   0.00000000E+00   0.00000000E+00   0.00000000E+00   2.05876956E-04   0.00000000E+00   1.02977130E-10   6.70329060E-04   3.20447503E-10   2.29199993E-03   9.79021191E-11   9.97896202E-11   9.79570202E-11   9.79652136E-11   4.99973627E-02   4.99996129E-02   6.48195907E-02   7.14459935E-02   1.80156304E-02   1.23303441E-11   9.96212525E-11   1.00263765E-10   9.99021783E-11   1.00370349E-10   9.98556772E-04   6.50730647E-02   6.43697373E-02   0.00000000E+00   8.11096156E-03   8.44189602E-11   9.26263659E-11   9.45515577E-11   1.00340579E-10
   4.63750000E+02   5.00000000E-01   5.00000000E-01   1.07526353E-01   1.09340066E-01   0.00000000E+00   0.00000000E+00   0.00000000E+00   2.05876956E-04   0.00000000E+00   1.03040624E-10   5.97271230E-04   3.27728693E-10   2.28380622E-03   9.79020961E-11   9.97893983E-11   9.79568750E-11   9.79634693E-11   4.99973644E-02   4.99996801E-02   6.48195907E-02   7.13894022E-02   1.80954453E-02   1.23265645E-11   9.96217456E-11   1.00240160E-10   9.99040499E-11   1.00357170E-10   9.98556526E-04   6.50828488E-02   6.43697373E-02   0.00000000E+00   8.11096157E-03   8.44189135E-11   9.26263659E-11   9.45515464E-11   1.00339468E-10
   4.81250000E+02   5.00000000E-01   5.00000000E-01   1.07526354E-01   1.09357080E-01   0.00000000E+00   0.00000000E+00   0.00000000E+00   2.05876955E-04   0.00000000E+00   1.03105402E-10   5.31584976E-04   3.35304153E-10   2.26864299E-03   9.79020659E-11   9.97891832E-11   9.79566980E-11   9.79617277E-11   4.99973661E-02   4.99997456E-02   6.48195907E-02   7.13331704E-02   1.81747902E-02   1.23230506E-11   9.96221959E-11   1.00217216E-10   9.99057410E-11   1.00343935E-10   9.98556288E-04   6.50922475E-02   6.43697373E-02   0.00000000E+00   8.11096157E-03   8.44188670E-11   9.26263659E-11   9.45515350E-11   1.00338233E-10
   4.98750000E+02   5.00000000E-01   5.00000000E-01   1.07526354E-01   1.09374485E-01   0.00000000E+00   0.00000000E+00   0.00000000E+00   2.05876955E-04   0.00000000E+00   1.03172773E-10   4.71355149E-04   3.43303793E-10   2.23932769E-03   9.79019850E-11   9.97889541E-11   9.79562970E-11   9.79597043E-11   4.99973680E-02   4.99998103E-02   6.48195907E-02   7.12749938E-02   1.82583495E-02   1.23195277E-11   9.96224211E-11   1.00193548E-10   9.99064949E-11   1.00329024E-10   9.98556037E-04   6.51016925E-02   6.43697373E-02   0.00000000E+00   8.11096158E-03   8.44188124E-11   9.26263659E-11   9.45515236E-11   1.00336906E-10
   5.16250000E+02   5.00000000E-01   5.00000000E-01   1.07526354E-01   1.09392032E-01   0.00000000E+00   0.00000000E+00   0.00000000E+00   2.05876954E-04   0.00000000E+00   1.03242191E-10   4.17784215E-04   3.51668268E-10   2.20505141E-03   9.79018811E-11   9.97887255E-11   9.79557944E-11   9.79575940E-11   4.99973699E-02   4.99998734E-02   6.48195907E-02   7.12168038E-02   1.83415110E-02   1.23161748E-11   9.96225400E-11   1.00170152E-10   9.99068056E-11   1.00313592E-10   9.98555787E-04   6.51117219E-02   6.43697373E-02   0.00000000E+00   8.11096158E-03   8.44187550E-11   9.26263659E-11   9.45515123E-11   1.00335486E-10
   5.33750000E+02   5.00000000E-01   5.00000000E-01   1.07526355E-01   1.09409541E-01   0.00000000E+00   0.00000000E+00   0.00000000E+00   2.05876954E-04   0.00000000E+00   1.03312889E-10   3.69954663E-04   3.60299623E-10   2.16518332E-03   9.79017597E-11   9.97885003E-11   9.79552153E-11   9.79554385E-11   4.99973718E-02   4.99999343E-02   6.48195907E-02   7.11592282E-02   1.84239937E-02   1.23130154E-11   9.96225834E-11   1.00147271E-10   9.99068018E-11   1.00297948E-10   9.98555541E-04   6.51226530E-02   6.43697373E-02   0.00000000E+00   8.11096158E-03   8.44186961E-11   9.26263659E-11   9.45515010E-11   1.00333976E-10
   5.51250000E+02   5.00000000E-01   5.00000000E-01   1.07526355E-01   1.09426883E-01   0.00000000E+00   0.00000000E+00   0.00000000E+00   2.05876954E-04   0.00000000E+00   1.03384107E-10   3.27140403E-04   3.69101536E-10   2.11922895E-03   9.79016184E-11   9.97882776E-11   9.79545489E-11   9.79532262E-11   4.99973738E-02   4.99999929E-02   6.48195907E-02   7.11023400E-02   1.85060216E-02   1.23100270E-11   9.96225457E-11   1.00124867E-10   9.99064602E-11   1.00282068E-10   9.98555298E-04   6.51346949E-02   6.43697373E-02   0.00000000E+00   8.11096159E-03   8.44186356E-11   9.26263659E-11   9.45514899E-11   1.00332379E-10
   5.68750000E+02   5.00000000E-01   5.00000000E-01   1.07526356E-01   1.09443964E-01   0.00000000E+00   0.00000000E+00   0.00000000E+00   2.05876953E-04   0.00000000E+00   1.03455035E-10   2.88832961E-04   3.77974670E-10   2.06750688E-03   9.79014557E-11   9.97880570E-11   9.79537891E-11   9.79509528E-11   4.99973759E-02   5.00000491E-02   6.48195907E-02   7.10461632E-02   1.85876158E-02   1.23071959E-11   9.96224221E-11   1.00102913E-10   9.99057616E-11   1.00265936E-10   9.98555057E-04   6.51479108E-02   6.43697373E-02   0.00000000E+00   8.11096159E-03   8.44185730E-11   9.26263659E-11   9.45514788E-11   1.00330702E-10
   5.86250000E+02   5.00000000E-01   5.00000000E-01   1.07526356E-01   1.09460717E-01   0.00000000E+00   0.00000000E+00   0.00000000E+00   2.05876953E-04   0.00000000E+00   1.03524870E-10   2.54615566E-04   3.86823308E-10   2.01066208E-03   9.79012725E-11   9.97878391E-11   9.79529402E-11   9.79486286E-11   4.99973781E-02   5.00001029E-02   6.48195907E-02   7.09907582E-02   1.86686552E-02   1.23045201E-11   9.96222152E-11   1.00081432E-10   9.99047177E-11   1.00249602E-10   9.98554819E-04   6.51621963E-02   6.43697373E-02   0.00000000E+00   8.11096160E-03   8.44185086E-11   9.26263659E-11   9.45514680E-11   1.00328949E-10
   6.03750000E+02   5.00000000E-01   5.00000000E-01   1.07526357E-01   1.09477112E-01   0.00000000E+00   0.00000000E+00   0.00000000E+00   2.05876952E-04   0.00000000E+00   1.03592921E-10   2.24123832E-04   3.95566657E-10   1.94951427E-03   9.79010719E-11   9.97876254E-11   9.79520162E-11   9.79462758E-11   4.99973803E-02   5.00001541E-02   6.48195907E-02   7.09362251E-02   1.87489210E-02   1.23020047E-11   9.96219356E-11   1.00060487E-10   9.99033722E-11   1.00233171E-10   9.98554585E-04   6.51772967E-02   6.43697373E-02   0.00000000E+00   8.11096160E-03   8.44184430E-11   9.26263659E-11   9.45514573E-11   1.00327124E-10
   6.21250000E+02   5.00000000E-01   5.00000000E-01   1.07526357E-01   1.09493147E-01   0.00000000E+00   0.00000000E+00   0.00000000E+00   2.05876951E-04   0.00000000E+00   1.03658689E-10   1.97026056E-04   4.04147850E-10   1.88496389E-03   9.79008587E-11   9.97874176E-11   9.79510376E-11   9.79439241E-11   4.99973825E-02   5.00002029E-02   6.48195908E-02   7.08826912E-02   1.88281375E-02   1.22996568E-11   9.96215997E-11   1.00040168E-10   9.99017936E-11   1.00216786E-10   9.98554357E-04   6.51928564E-02   6.43697373E-02   4.07723152E-29   8.11096161E-03   8.44183769E-11   9.26263659E-11   9.45514469E-11   1.00325232E-10
   6.38750000E+02   5.00000000E-01   5.00000000E-01   1.07526358E-01   1.09508844E-01   0.00000000E+00   0.00000000E+00   0.00000000E+00   2.05876951E-04   0.00000000E+00   1.03721906E-10   1.73010768E-04   4.12537600E-10   1.81790280E-03   9.79006380E-11   9.97872174E-11   9.79500280E-11   9.79416046E-11   4.99973849E-02   5.00002494E-02   6.48195908E-02   7.08302959E-02   1.89060134E-02   1.22974822E-11   9.96212275E-11   1.00020569E-10   9.99000650E-11   1.00200608E-10   9.98554137E-04   6.52084816E-02   6.43697373E-02   8.59888729E-29   8.11096161E-03   8.44183114E-11   9.26263659E-11   9.45514368E-11   1.00323276E-10
   6.56250000E+02   5.00000000E-01   5.00000000E-01   1.07526359E-01   1.09524235E-01   0.00000000E+00   0.00000000E+00   0.00000000E+00   2.05876950E-04   0.00000000E+00   1.03782528E-10   1.51780291E-04   4.20732136E-10   1.74913843E-03   9.79004152E-11   9.97870264E-11   9.79490108E-11   9.79393463E-11   4.99973873E-02   5.00002937E-02   6.48195908E-02   7.07791763E-02   1.89822770E-02   1.22954827E-11   9.96208404E-11   1.00001780E-10   9.98982746E-11   1.00184795E-10   9.98553925E-04   6.52238007E-02   6.43697373E-02   1.81771594E-28   8.11096162E-03   8.44182472E-11   9.26263659E-11   9.45514269E-11   1.00321261E-10
   6.73750000E+02   5.00000000E-01   5.00000000E-01   1.07526360E-01   1.09539347E-01   0.00000000E+00   0.00000000E+00   0.00000000E+00   2.05876950E-04   0.00000000E+00   1.03840687E-10   1.33049922E-04   4.28746876E-10   1.67935419E-03   9.79001949E-11   9.97868457E-11   9.79480065E-11   9.79371727E-11   4.99973897E-02   5.00003358E-02   6.48195908E-02   7.07294578E-02   1.90566971E-02   1.22936552E-11   9.96204586E-11   9.99838665E-11   9.98965060E-11   1.00169484E-10   9.98553724E-04   6.52385067E-02   6.43697373E-02   3.85169435E-28   8.11096162E-03   8.44181854E-11   9.26263659E-11   9.45514173E-11   1.00319188E-10
   6.91250000E+02   5.00000000E-01   5.00000000E-01   1.07526360E-01   1.09554196E-01   0.00000000E+00   0.00000000E+00   0.00000000E+00   2.05876949E-04   0.00000000E+00   1.03896632E-10   1.16548989E-04   4.36608328E-10   1.60907574E-03   9.78999809E-11   9.97866759E-11   9.79470311E-11   9.79351001E-11   4.99973922E-02   5.00003758E-02   6.48195908E-02   7.06812442E-02   1.91291003E-02   1.22919925E-11   9.96200999E-11   9.99668723E-11   9.98948323E-11   1.00154784E-10   9.98553534E-04   6.52523808E-02   6.43697373E-02   8.18192501E-28   8.11096163E-03   8.44181265E-11   9.26263659E-11   9.45514080E-11   1.00317062E-10
   7.08750000E+02   5.00000000E-01   5.00000000E-01   1.07526361E-01   1.09568774E-01   0.00000000E+00   0.00000000E+00   0.00000000E+00   2.05876948E-04   0.00000000E+00   1.03950664E-10   1.02025433E-04   4.44345637E-10   1.53870360E-03   9.78997758E-11   9.97865171E-11   9.79460960E-11   9.79331379E-11   4.99973948E-02   5.00004137E-02   6.48195908E-02   7.06346180E-02   1.91993626E-02   1.22904841E-11   9.96197788E-11   9.99508154E-11   9.98933133E-11   1.00140771E-10   9.98553356E-04   6.52652981E-02   6.43697373E-02   3.08971217E-13   8.11096163E-03   8.44180709E-11   9.26263659E-11   9.45513990E-11   1.00314885E-10
   7.26250000E+02   5.00000000E-01   5.00000000E-01   1.07526362E-01   1.09583049E-01   0.00000000E+00   0.00000000E+00   0.00000000E+00   2.05876948E-04   0.00000000E+00   1.04003080E-10   8.92482158E-05   4.51983004E-10   1.46853548E-03   9.78995811E-11   9.97863691E-11   9.79452084E-11   9.79312899E-11   4.99973975E-02   5.00004494E-02   6.48195908E-02   7.05896421E-02   1.92674005E-02   1.22891179E-11   9.96195069E-11   9.99356938E-11   9.98919959E-11   1.00127496E-10   9.98553189E-04   6.52772206E-02   6.43697373E-02   1.27845890E-12   8.11096164E-03   8.44180191E-11   9.26263659E-11   9.45513902E-11   1.00312661E-10
   7.43750000E+02   5.00000000E-01   5.00000000E-01   1.07526363E-01   1.09596959E-01   0.00000000E+00   0.00000000E+00   0.00000000E+00   2.05876947E-04   0.00000000E+00   1.04054122E-10   7.80085813E-05   4.59533465E-10   1.39879093E-03   9.78993978E-11   9.97862316E-11   9.79443720E-11   9.79295556E-11   4.99974002E-02   5.00004828E-02   6.48195908E-02   7.05463625E-02   1.93331625E-02   1.22878810E-11   9.96192930E-11   9.99214893E-11   9.98909159E-11   1.00114984E-10   9.98553032E-04   6.52881853E-02   6.43697373E-02   3.09755630E-12   8.11096165E-03   8.44179711E-11   9.26263659E-11   9.45513818E-11   1.00310393E-10
   7.61250000E+02   5.00000000E-01   5.00000000E-01   1.07526365E-01   1.09610420E-01   0.00000000E+00   0.00000000E+00   0.00000000E+00   2.05876946E-04   0.00000000E+00   1.04103941E-10   6.81202535E-05   4.66994088E-10   1.32963685E-03   9.78992261E-11   9.97861039E-11   9.79435880E-11   9.79279316E-11   4.99974030E-02   5.00005138E-02   6.48195908E-02   7.05048114E-02   1.93966193E-02   1.22867610E-11   9.96191435E-11   9.99081728E-11   9.98900998E-11   1.00103245E-10   9.98552886E-04   6.52982887E-02   6.43697373E-02   6.28531207E-12   8.11096166E-03   8.44179270E-11   9.26263659E-11   9.45513736E-11   1.00308083E-10
   7.78750000E+02   5.00000000E-01   5.00000000E-01   1.07526366E-01   1.09623326E-01   0.00000000E+00   0.00000000E+00   0.00000000E+00   2.05876945E-04   0.00000000E+00   1.04152569E-10   5.94187645E-05   4.74342623E-10   1.26121145E-03   9.78990661E-11   9.97859854E-11   9.79428562E-11   9.79264130E-11   4.99974059E-02   5.00005423E-02   6.48195908E-02   7.04650102E-02   1.94577544E-02   1.22857464E-11   9.96190635E-11   9.98957086E-11   9.98895674E-11   1.00092276E-10   9.98552750E-04   6.53076686E-02   6.43697373E-02   1.16347879E-11   8.11096166E-03   8.44178867E-11   9.26263659E-11   9.45513658E-11   1.00305736E-10
   7.96250000E+02   5.00000000E-01   5.00000000E-01   1.07526368E-01   1.09635553E-01   0.00000000E+00   0.00000000E+00   0.00000000E+00   2.05876944E-04   0.00000000E+00   1.04199905E-10   5.17601990E-05   4.81535721E-10   1.19364648E-03   9.78989177E-11   9.97858754E-11   9.79421759E-11   9.79249947E-11   4.99974088E-02   5.00005681E-02   6.48195908E-02   7.04269729E-02   1.95165560E-02   1.22848267E-11   9.96190570E-11   9.98840586E-11   9.98893351E-11   1.00082068E-10   9.98552623E-04   6.53164840E-02   6.43697373E-02   2.03501171E-11   8.11096167E-03   8.44178503E-11   9.26263659E-11   9.45513582E-11   1.00303353E-10