 TITLE = "Mineral Volumes" 
VARIABLES = "X"          "Y"              "Z"            "Forsterite"     "Enstatite(alph" "Anorthite"      "Ferropargasite" "Anhydrite"      "Clinochlore"    "Albite(low)"    "Fayalite"       "Epidote"        "Kaolinite"      "Muscovite(orde" "Sudoite"        "Saponite(Mg)"   "Scolecite"      "Pyrite"         "Quartz(alpha)" 
 ZONE I=         100 , J=           1 , K=           1  F=POINT
   1.75000000E+01   5.00000000E-01   5.00000000E-01   2.79998619E-01   2.09999901E-01   9.99968215E-03   6.99991173E-02   1.95850731E-01   1.38343877E-05   1.29980236E-01   2.79985371E-02   9.99999995E-04   9.99692029E-04   6.45214765E-06   0.00000000E+00   5.78797010E-06   9.94579359E-04   0.00000000E+00   1.73416752E-08
   5.25000000E+01   5.00000000E-01   5.00000000E-01   2.79998619E-01   2.09999901E-01   9.99968215E-03   6.99991173E-02   1.98958425E-01   6.51087079E-06   1.29985324E-01   2.79985372E-02   9.99999997E-04   9.99693459E-04   7.28413323E-06   0.00000000E+00   6.00658359E-06   9.94581221E-04   0.00000000E+00   2.22518164E-08
   8.75000000E+01   5.00000000E-01   5.00000000E-01   2.79998619E-01   2.09999901E-01   9.99968215E-03   6.99991173E-02   1.99765305E-01   4.47383101E-06   1.29987633E-01   2.79985373E-02   9.99999996E-04   9.99694094E-04   6.95894317E-06   0.00000000E+00   7.27092000E-06   9.94581737E-04   0.00000000E+00   2.44661044E-08
   1.22500000E+02   5.00000000E-01   5.00000000E-01   2.79998619E-01   2.09999901E-01   9.99968215E-03   6.99991173E-02   1.99964112E-01   3.71693781E-06   1.29988785E-01   2.79985374E-02   9.99999996E-04   9.99694684E-04   6.69421065E-06   0.00000000E+00   7.78762904E-06   9.94582011E-04   0.00000000E+00   2.53973199E-08
   1.57500000E+02   5.00000000E-01   5.00000000E-01   2.79998619E-01   2.09999901E-01   9.99968215E-03   6.99991173E-02   2.00015314E-01   3.40914708E-06   1.29989347E-01   2.79985376E-02   9.99999995E-04   9.99695321E-04   6.53373017E-06   0.00000000E+00   8.07336005E-06   9.94582250E-04   0.00000000E+00   2.56502571E-08
   1.92500000E+02   5.00000000E-01   5.00000000E-01   2.79998619E-01   2.09999901E-01   9.99968215E-03   6.99991173E-02   2.00031487E-01   3.30373812E-06   1.29989578E-01   2.79985378E-02   9.99999993E-04   9.99696022E-04   6.44841222E-06   0.00000000E+00   8.27301262E-06   9.94582493E-04   0.00000000E+00   2.55217413E-08
   2.27500000E+02   5.00000000E-01   5.00000000E-01   2.79998619E-01   2.09999901E-01   9.99968215E-03   6.99991173E-02   2.00039196E-01   3.30569132E-06   1.29989611E-01   2.79985380E-02   9.99999992E-04   9.99696788E-04   6.41207699E-06   0.00000000E+00   8.43674395E-06   9.94582743E-04   0.00000000E+00   2.51710389E-08
   2.62500000E+02   5.00000000E-01   5.00000000E-01   2.79998619E-01   2.09999901E-01   9.99968215E-03   6.99991173E-02   2.00044595E-01   3.37173338E-06   1.29989521E-01   2.79985382E-02   9.99999991E-04   9.99697618E-04   6.40696682E-06   0.00000000E+00   8.58519379E-06   9.94582998E-04   0.00000000E+00   2.46885762E-08
   2.97500000E+02   5.00000000E-01   5.00000000E-01   2.79998619E-01   2.09999901E-01   9.99968215E-03   6.99991173E-02   2.00049099E-01   3.47993573E-06   1.29989351E-01   2.79985384E-02   9.99999990E-04   9.99698512E-04   6.42156487E-06   0.00000000E+00   8.72786027E-06   9.94583252E-04   0.00000000E+00   2.41277173E-08
   3.32500000E+02   5.00000000E-01   5.00000000E-01   2.79998619E-01   2.09999901E-01   9.99968215E-03   6.99991173E-02   2.00053043E-01   3.61834723E-06   1.29989126E-01   2.79985386E-02   9.99999989E-04   9.99699468E-04   6.44840520E-06   0.00000000E+00   8.86943411E-06   9.94583503E-04   0.00000000E+00   2.35208629E-08
   3.67500000E+02   5.00000000E-01   5.00000000E-01   2.79998619E-01   2.09999901E-01   9.99968215E-03   6.99991173E-02   2.00056522E-01   3.77996115E-06   1.29988862E-01   2.79985388E-02   9.99999987E-04   9.99700486E-04   6.48263999E-06   0.00000000E+00   9.01244074E-06   9.94583747E-04   0.00000000E+00   2.28880933E-08
   4.02500000E+02   5.00000000E-01   5.00000000E-01   2.79998619E-01   2.09999901E-01   9.99968215E-03   6.99991173E-02   2.00059578E-01   3.96035900E-06   1.29988571E-01   2.79985391E-02   9.99999986E-04   9.99701567E-04   6.52111665E-06   0.00000000E+00   9.15830956E-06   9.94583982E-04   0.00000000E+00   2.22420567E-08
   4.37500000E+02   5.00000000E-01   5.00000000E-01   2.79998619E-01   2.09999902E-01   9.99968215E-03   6.99991173E-02   2.00062243E-01   4.15499022E-06   1.29988259E-01   2.79985393E-02   9.99999984E-04   9.99702711E-04   6.56238506E-06   0.00000000E+00   9.30966340E-06   9.94584207E-04   0.00000000E+00   2.15903588E-08
   4.72500000E+02   5.00000000E-01   5.00000000E-01   2.79998619E-01   2.09999902E-01   9.99968215E-03   6.99991173E-02   2.00064544E-01   4.35921612E-06   1.29987931E-01   2.79985395E-02   9.99999982E-04   9.99703921E-04   6.60616634E-06   0.00000000E+00   9.46956324E-06   9.94584421E-04   0.00000000E+00   2.09372822E-08
   5.07500000E+02   5.00000000E-01   5.00000000E-01   2.79998619E-01   2.09999902E-01   9.99968215E-03   6.99991173E-02   2.00066511E-01   4.57738923E-06   1.29987590E-01   2.79985397E-02   9.99999980E-04   9.99705195E-04   6.64953984E-06   0.00000000E+00   9.63019188E-06   9.94584622E-04   0.00000000E+00   2.02875969E-08
   5.42500000E+02   5.00000000E-01   5.00000000E-01   2.79998619E-01   2.09999902E-01   9.99968215E-03   6.99991173E-02   2.00068169E-01   4.80813528E-06   1.29987239E-01   2.79985399E-02   9.99999979E-04   9.99706533E-04   6.69157967E-06   0.00000000E+00   9.79231484E-06   9.94584810E-04   0.00000000E+00   1.96442718E-08
   5.77500000E+02   5.00000000E-01   5.00000000E-01   2.79998619E-01   2.09999902E-01   9.99968215E-03   6.99991173E-02   2.00069544E-01   5.05061426E-06   1.29986881E-01   2.79985401E-02   9.99999978E-04   9.99707935E-04   6.73159457E-06   0.00000000E+00   9.95475764E-06   9.94584983E-04   0.00000000E+00   1.90095329E-08
   6.12500000E+02   5.00000000E-01   5.00000000E-01   2.79998619E-01   2.09999902E-01   9.99968215E-03   6.99991173E-02   2.00070662E-01   5.30410153E-06   1.29986519E-01   2.79985403E-02   9.99999977E-04   9.99709402E-04   6.76903318E-06   0.00000000E+00   1.01160611E-05   9.94585141E-04   0.00000000E+00   1.83851540E-08
   6.47500000E+02   5.00000000E-01   5.00000000E-01   2.79998619E-01   2.09999902E-01   9.99968215E-03   6.99991173E-02   2.00071545E-01   5.56583240E-06   1.29986150E-01   2.79985405E-02   9.99999975E-04   9.99710920E-04   6.79806784E-06   8.44491451E-09   1.02750543E-05   9.94585279E-04   0.00000000E+00   1.77737428E-08
   6.82500000E+02   5.00000000E-01   5.00000000E-01   2.79998619E-01   2.09999902E-01   9.99968215E-03   6.99991173E-02   2.00072216E-01   5.83625555E-06   1.29985781E-01   2.79985407E-02   9.99999974E-04   9.99712498E-04   6.82297194E-06   1.78523845E-08   1.04301963E-05   9.94585401E-04   0.00000000E+00   1.71762244E-08
   7.17500000E+02   5.00000000E-01   5.00000000E-01   2.79998619E-01   2.09999902E-01   9.99968215E-03   6.99991173E-02   2.00072695E-01   6.11449615E-06   1.29985414E-01   2.79985408E-02   9.99999972E-04   9.99714136E-04   6.84355244E-06   2.82682860E-08   1.05791546E-05   9.94585506E-04   0.00000000E+00   1.65935867E-08
   7.52500000E+02   5.00000000E-01   5.00000000E-01   2.79998619E-01   2.09999902E-01   9.99968215E-03   6.99991173E-02   2.00073002E-01   6.39952652E-06   1.29985049E-01   2.79985410E-02   9.99999970E-04   9.99715834E-04   6.85965819E-06   3.97612504E-08   1.07199023E-05   9.94585594E-04   0.00000000E+00   1.60267893E-08
   7.87500000E+02   5.00000000E-01   5.00000000E-01   2.79998619E-01   2.09999902E-01   9.99968215E-03   6.99991173E-02   2.00073155E-01   6.69014254E-06   1.29984689E-01   2.79985411E-02   9.99999969E-04   9.99717591E-04   6.87122899E-06   5.23948627E-08   1.08504271E-05   9.94585666E-04   0.00000000E+00   1.54767527E-08
   8.22500000E+02   5.00000000E-01   5.00000000E-01   2.79998619E-01   2.09999902E-01   9.99968215E-03   6.99991173E-02   2.00073170E-01   6.98498967E-06   1.29984335E-01   2.79985412E-02   9.99999968E-04   9.99719405E-04   6.87828428E-06   6.62338280E-08   1.09687328E-05   9.94585722E-04   0.00000000E+00   1.49443683E-08
   8.57500000E+02   5.00000000E-01   5.00000000E-01   2.79998619E-01   2.09999902E-01   9.99968215E-03   6.99991173E-02   2.00073063E-01   7.28256091E-06   1.29983989E-01   2.79985413E-02   9.99999966E-04   9.99721278E-04   6.88093769E-06   8.13342351E-08   1.10728869E-05   9.94585762E-04   0.00000000E+00   1.44304411E-08
   8.92500000E+02   5.00000000E-01   5.00000000E-01   2.79998619E-01   2.09999902E-01   9.99968215E-03   6.99991173E-02   2.00072848E-01   7.58121579E-06   1.29983652E-01   2.79985414E-02   9.99999967E-04   9.99723210E-04   6.87938833E-06   9.77495913E-08   1.11610643E-05   9.94585787E-04   0.00000000E+00   1.39357072E-08
   9.27500000E+02   5.00000000E-01   5.00000000E-01   2.79998619E-01   2.09999902E-01   9.99968215E-03   6.99991173E-02   2.00072538E-01   7.87923515E-06   1.29983326E-01   2.79985415E-02   9.99999967E-04   9.99725200E-04   6.87390937E-06   1.15525929E-07   1.12316138E-05   9.94585798E-04   0.00000000E+00   1.34607674E-08
   9.62500000E+02   5.00000000E-01   5.00000000E-01   2.79998619E-01   2.09999902E-01   9.99968215E-03   6.99991173E-02   2.00072144E-01   8.17484543E-06   1.29983011E-01   2.79985416E-02   9.99999967E-04   9.99727250E-04   6.86484263E-06   1.34703127E-07   1.12830482E-05   9.94585795E-04   0.00000000E+00   1.30061214E-08
   9.97500000E+02   5.00000000E-01   5.00000000E-01   2.79998619E-01   2.09999902E-01   9.99968215E-03   6.99991173E-02   2.00071678E-01   8.46629649E-06   1.29982710E-01   2.79985416E-02   9.99999968E-04   9.99729361E-04   6.85257143E-06   1.55314819E-07   1.13140782E-05   9.94585779E-04   0.00000000E+00   1.25721033E-08
   1.03250000E+03   5.00000000E-01   5.00000000E-01   2.79998619E-01   2.09999902E-01   9.99968215E-03   6.99991173E-02   2.00071149E-01   8.75180247E-06   1.29982422E-01   2.79985416E-02   9.99999970E-04   9.99731535E-04   6.83755254E-06   1.77383583E-07   1.13237099E-05   9.94585751E-04   0.00000000E+00   1.21589193E-08
   1.06750000E+03   5.00000000E-01   5.00000000E-01   2.79998619E-01   2.09999902E-01   9.99968215E-03   6.99991173E-02   2.00070566E-01   9.02976137E-06   1.29982148E-01   2.79985416E-02   9.99999971E-04   9.99733775E-04   6.82022070E-06   2.00929386E-07   1.13111918E-05   9.94585712E-04   0.00000000E+00   1.17665367E-08
   1.10250000E+03   5.00000000E-01   5.00000000E-01   2.79998619E-01   2.09999902E-01   9.99968215E-03   6.99991173E-02   2.00069936E-01   9.29854996E-06   1.29981890E-01   2.79985416E-02   9.99999972E-04   9.99736082E-04   6.80107613E-06   2.25965815E-07   1.12761529E-05   9.94585663E-04   0.00000000E+00   1.13947700E-08
   1.13750000E+03   5.00000000E-01   5.00000000E-01   2.79998619E-01   2.09999902E-01   9.99968215E-03   6.99991173E-02   2.00069268E-01   9.55687115E-06   1.29981647E-01   2.79985416E-02   9.99999973E-04   9.99738460E-04   6.78055264E-06   2.52494282E-07   1.12184408E-05   9.94585605E-04   0.00000000E+00   1.10431616E-08
   1.17250000E+03   5.00000000E-01   5.00000000E-01   2.79998619E-01   2.09999902E-01   9.99968215E-03   6.99991173E-02   2.00068567E-01   9.80344111E-06   1.29981419E-01   2.79985416E-02   9.99999974E-04   9.99740913E-04   6.75911066E-06   2.80536951E-07   1.11383615E-05   9.94585539E-04   0.00000000E+00   1.07111311E-08
   1.20750000E+03   5.00000000E-01   5.00000000E-01   2.79998619E-01   2.09999902E-01   9.99968215E-03   6.99991173E-02   2.00067840E-01   1.00374274E-05   1.29981207E-01   2.79985416E-02   9.99999976E-04   9.99743443E-04   6.73710705E-06   3.10090339E-07   1.10364120E-05   9.94585465E-04   0.00000000E+00   1.03977053E-08
   1.24250000E+03   5.00000000E-01   5.00000000E-01   2.79998619E-01   2.09999902E-01   9.99968215E-03   6.99991173E-02   2.00067091E-01   1.02580451E-05   1.29981010E-01   2.79985415E-02   9.99999977E-04   9.99746054E-04   6.71490943E-06   3.41174735E-07   1.09135590E-05   9.94585384E-04   0.00000000E+00   1.01022753E-08
   1.27750000E+03   5.00000000E-01   5.00000000E-01   2.79998620E-01   2.09999902E-01   9.99968215E-03   6.99991173E-02   2.00066325E-01   1.04652423E-05   1.29980827E-01   2.79985414E-02   9.99999978E-04   9.99748749E-04   6.69266779E-06   3.73783789E-07   1.07707655E-05   9.94585297E-04   0.00000000E+00   9.82442151E-09
   1.31250000E+03   5.00000000E-01   5.00000000E-01   2.79998620E-01   2.09999902E-01   9.99968215E-03   6.99991173E-02   2.00065546E-01   1.06591594E-05   1.29980658E-01   2.79985414E-02   9.99999979E-04   9.99751530E-04   6.67049734E-06   4.07911855E-07   1.06092941E-05   9.94585203E-04   0.00000000E+00   9.56319285E-09
   1.34750000E+03   5.00000000E-01   5.00000000E-01   2.79998620E-01   2.09999902E-01   9.99968215E-03   6.99991173E-02   2.00064757E-01   1.08402050E-05   1.29980503E-01   2.79985413E-02   9.99999980E-04   9.99754399E-04   6.64843093E-06   4.43564827E-07   1.04306306E-05   9.94585105E-04   0.00000000E+00   9.31752296E-09
   1.38250000E+03   5.00000000E-01   5.00000000E-01   2.79998621E-01   2.09999902E-01   9.99968215E-03   6.99991173E-02   2.00063963E-01   1.10089620E-05   1.29980359E-01   2.79985412E-02   9.99999980E-04   9.99757358E-04   6.62646601E-06   4.80746439E-07   1.02364753E-05   9.94585000E-04   0.00000000E+00   9.08639747E-09
   1.41750000E+03   5.00000000E-01   5.00000000E-01   2.79998622E-01   2.09999902E-01   9.99968215E-03   6.99991173E-02   2.00063165E-01   1.11661997E-05   1.29980226E-01   2.79985411E-02   9.99999980E-04   9.99760408E-04   6.60454571E-06   5.19469208E-07   1.00286699E-05   9.94584891E-04   0.00000000E+00   8.86876353E-09
   1.45250000E+03   5.00000000E-01   5.00000000E-01   2.79998623E-01   2.09999902E-01   9.99968215E-03   6.99991173E-02   2.00062366E-01   1.13128423E-05   1.29980103E-01   2.79985410E-02   9.99999978E-04   9.99763548E-04   6.58257475E-06   5.59746631E-07   9.80913550E-06   9.94584777E-04   0.00000000E+00   8.66346252E-09
   1.48750000E+03   5.00000000E-01   5.00000000E-01   2.79998625E-01   2.09999902E-01   9.99968215E-03   6.99991173E-02   2.00061568E-01   1.14500723E-05   1.29979989E-01   2.79985409E-02   9.99999974E-04   9.99766778E-04   6.56036863E-06   6.01599638E-07   9.57970295E-06   9.94584657E-04   0.00000000E+00   8.46943630E-09
   1.52250000E+03   5.00000000E-01   5.00000000E-01   2.79998627E-01   2.09999902E-01   9.99968215E-03   6.99991173E-02   2.00060772E-01   1.15790314E-05   1.29979882E-01   2.79985408E-02   9.99999969E-04   9.99770097E-04   6.53776233E-06   6.45058306E-07   9.34223315E-06   9.94584533E-04   0.00000000E+00   8.28557531E-09
   1.55750000E+03   5.00000000E-01   5.00000000E-01   2.79998631E-01   2.09999902E-01   9.99968215E-03   6.99991173E-02   2.00059982E-01   1.17009735E-05   1.29979782E-01   2.79985407E-02   9.99999960E-04   9.99773503E-04   6.51454975E-06   6.90157381E-07   9.09844448E-06   9.94584404E-04   0.00000000E+00   8.11075466E-09
   1.59250000E+03   5.00000000E-01   5.00000000E-01   2.79998635E-01   2.09999902E-01   9.99968215E-03   6.99991173E-02   2.00059197E-01   1.18171023E-05   1.29979686E-01   2.79985406E-02   9.99999946E-04   9.99776994E-04   6.49053551E-06   7.36941180E-07   8.84995656E-06   9.94584270E-04   0.00000000E+00   7.94390697E-09
   1.62750000E+03   5.00000000E-01   5.00000000E-01   2.79998640E-01   2.09999902E-01   9.99968215E-03   6.99991173E-02   2.00058419E-01   1.19285237E-05   1.29979594E-01   2.79985405E-02   9.99999927E-04   9.99780566E-04   6.46555139E-06   7.85458124E-07   8.59829112E-06   9.94584130E-04   0.00000000E+00   7.78404041E-09
   1.66250000E+03   5.00000000E-01   5.00000000E-01   2.79998647E-01   2.09999903E-01   9.99968215E-03   6.99991173E-02   2.00057649E-01   1.20363107E-05   1.29979504E-01   2.79985404E-02   9.99999898E-04   9.99784215E-04   6.43941792E-06   8.35769618E-07   8.34479159E-06   9.94583987E-04   0.00000000E+00   7.63025095E-09
   1.69750000E+03   5.00000000E-01   5.00000000E-01   2.79998655E-01   2.09999903E-01   9.99968215E-03   6.99991173E-02   2.00056887E-01   1.21413980E-05   1.29979416E-01   2.79985404E-02   9.99999859E-04   9.99787939E-04   6.41198627E-06   8.87940187E-07   8.09069765E-06   9.94583838E-04   0.00000000E+00   7.48170065E-09
   1.73250000E+03   5.00000000E-01   5.00000000E-01   2.79998664E-01   2.09999903E-01   9.99968215E-03   6.99991173E-02   2.00056135E-01   1.22445929E-05   1.29979330E-01   2.79985403E-02   9.99999806E-04   9.99791732E-04   6.38312604E-06   9.42043229E-07   7.83711566E-06   9.94583685E-04   0.00000000E+00   7.33759819E-09
   1.76750000E+03   5.00000000E-01   5.00000000E-01   2.79998675E-01   2.09999903E-01   9.99968215E-03   6.99991173E-02   2.00055393E-01   1.23466030E-05   1.29979243E-01   2.79985402E-02   9.99999733E-04   9.99795591E-04   6.35271789E-06   9.98154119E-07   7.58502120E-06   9.94583528E-04   0.00000000E+00   7.19728512E-09
   1.80250000E+03   5.00000000E-01   5.00000000E-01   2.79998687E-01   2.09999903E-01   9.99968215E-03   6.99991173E-02   2.00054660E-01   1.24480087E-05   1.29979155E-01   2.79985402E-02   9.99999639E-04   9.99799510E-04   6.32066138E-06   1.05634898E-06   7.33526296E-06   9.94583366E-04   0.00000000E+00   7.06014756E-09
   1.83750000E+03   5.00000000E-01   5.00000000E-01   2.79998700E-01   2.09999903E-01   9.99968215E-03   6.99991173E-02   2.00053939E-01   1.25492808E-05   1.29979067E-01   2.79985401E-02   9.99999515E-04   9.99803486E-04   6.28687175E-06   1.11670529E-06   7.08856842E-06   9.94583201E-04   0.00000000E+00   6.92567208E-09
   1.87250000E+03   5.00000000E-01   5.00000000E-01   2.79998715E-01   2.09999903E-01   9.99968215E-03   6.99991173E-02   2.00053228E-01   1.26507609E-05   1.29978976E-01   2.79985401E-02   9.99999358E-04   9.99807512E-04   6.25128406E-06   1.17929919E-06   6.84558641E-06   9.94583032E-04   0.00000000E+00   6.79342251E-09
   1.90750000E+03   5.00000000E-01   5.00000000E-01   2.79998730E-01   2.09999903E-01   9.99968215E-03   6.99991173E-02   2.00052528E-01   1.27527201E-05   1.29978884E-01   2.79985400E-02   9.99999160E-04   9.99811584E-04   6.21384373E-06   1.24420218E-06   6.60682146E-06   9.94582860E-04   0.00000000E+00   6.66304015E-09
   1.94250000E+03   5.00000000E-01   5.00000000E-01   2.79998747E-01   2.09999903E-01   9.99968215E-03   6.99991173E-02   2.00051839E-01   1.28553950E-05   1.29978789E-01   2.79985400E-02   9.99998913E-04   9.99815696E-04   6.17448962E-06   1.31147808E-06   6.37268290E-06   9.94582684E-04   0.00000000E+00   6.53419238E-09
   1.97750000E+03   5.00000000E-01   5.00000000E-01   2.79998764E-01   2.09999903E-01   9.99968215E-03   6.99991173E-02   2.00051162E-01   1.29588891E-05   1.29978691E-01   2.79985400E-02   9.99998611E-04   9.99819842E-04   6.13319296E-06   1.38118557E-06   6.14355170E-06   9.94582506E-04   0.00000000E+00   6.40663974E-09
   2.01250000E+03   5.00000000E-01   5.00000000E-01   2.79998782E-01   2.09999903E-01   9.99968216E-03   6.99991173E-02   2.00050495E-01   1.30633529E-05   1.29978591E-01   2.79985400E-02   9.99998243E-04   9.99824017E-04   6.08989427E-06   1.45337437E-06   5.91969632E-06   9.94582326E-04   0.00000000E+00   6.28017535E-09
   2.04750000E+03   5.00000000E-01   5.00000000E-01   2.79998801E-01   2.09999903E-01   9.99968216E-03   6.99991173E-02   2.00049840E-01   1.31688453E-05   1.29978488E-01   2.79985400E-02   9.99997799E-04   9.99828213E-04   6.04456137E-06   1.52807920E-06   5.70138791E-06   9.94582143E-04   0.00000000E+00   6.15465090E-09
   2.08250000E+03   5.00000000E-01   5.00000000E-01   2.79998820E-01   2.09999903E-01   9.99968216E-03   6.99991173E-02   2.00049197E-01   1.32754062E-05   1.29978382E-01   2.79985400E-02   9.99997269E-04   9.99832426E-04   5.99715958E-06   1.60532837E-06   5.48885224E-06   9.94581959E-04   0.00000000E+00   6.02997882E-09
   2.11750000E+03   5.00000000E-01   5.00000000E-01   2.79998841E-01   2.09999903E-01   9.99968216E-03   6.99991173E-02   2.00048564E-01   1.33831219E-05   1.29978273E-01   2.79985401E-02   9.99996642E-04   9.99836648E-04   5.94764004E-06   1.68513437E-06   5.28220581E-06   9.94581774E-04   0.00000000E+00   5.90602878E-09
   2.15250000E+03   5.00000000E-01   5.00000000E-01   2.79998861E-01   2.09999903E-01   9.99968216E-03   6.99991173E-02   2.00047942E-01   1.34319272E-05   1.29978161E-01   2.79985401E-02   9.99995905E-04   9.99841138E-04   5.90966271E-06   1.77301663E-06   5.15070696E-06   9.94581590E-04   0.00000000E+00   5.78050694E-09
   2.18750000E+03   5.00000000E-01   5.00000000E-01   2.79998882E-01   2.09999903E-01   9.99968216E-03   6.99991173E-02   2.00047332E-01   1.34342218E-05   1.29978044E-01   2.79985402E-02   9.99995047E-04   9.99845839E-04   5.87967360E-06   1.87123216E-06   5.06527860E-06   9.94581409E-04   0.00000000E+00   5.65249480E-09
   2.22250000E+03   5.00000000E-01   5.00000000E-01   2.79998904E-01   2.09999903E-01   9.99968216E-03   6.99991173E-02   2.00046733E-01   1.34284199E-05   1.29977921E-01   2.79985403E-02   9.99994056E-04   9.99850573E-04   5.84824628E-06   1.97704994E-06   4.98700591E-06   9.94581226E-04   0.00000000E+00   5.52247331E-09
   2.25750000E+03   5.00000000E-01   5.00000000E-01   2.79998926E-01   2.09999903E-01   9.99968216E-03   6.99991173E-02   2.00046145E-01   1.34209817E-05   1.29977793E-01   2.79985404E-02   9.99992924E-04   9.99855294E-04   5.81326195E-06   2.08951361E-06   4.91662203E-06   9.94581042E-04   0.00000000E+00   5.39080779E-09
   2.29250000E+03   5.00000000E-01   5.00000000E-01   2.79998948E-01   2.09999903E-01   9.99968216E-03   6.99991173E-02   2.00045568E-01   1.34184588E-05   1.29977660E-01   2.79985405E-02   9.99991643E-04   9.99859957E-04   5.77302090E-06   2.20784761E-06   4.84807022E-06   9.94580857E-04   0.00000000E+00   5.25799314E-09
   2.32750000E+03   5.00000000E-01   5.00000000E-01   2.79998971E-01   2.09999903E-01   9.99968216E-03   6.99991173E-02   2.00045002E-01   1.34218561E-05   1.29977522E-01   2.79985407E-02   9.99990210E-04   9.99864543E-04   5.72722093E-06   2.33156646E-06   4.78164942E-06   9.94580671E-04   0.00000000E+00   5.12442467E-09
   2.36250000E+03   5.00000000E-01   5.00000000E-01   2.79998995E-01   2.09999903E-01   9.99968216E-03   6.99991173E-02   2.00044447E-01   1.34245557E-05   1.29977380E-01   2.79985408E-02   9.99988628E-04   9.99869079E-04   5.67746312E-06   2.46085111E-06   4.72512499E-06   9.94580484E-04   0.00000000E+00   4.99054376E-09
   2.39750000E+03   5.00000000E-01   5.00000000E-01   2.79999019E-01   2.09999903E-01   9.99968216E-03   6.99991173E-02   2.00043902E-01   1.34214862E-05   1.29977235E-01   2.79985410E-02   9.99986910E-04   9.99873584E-04   5.62496948E-06   2.59607625E-06   4.68280832E-06   9.94580299E-04   0.00000000E+00   4.85727195E-09
   2.43250000E+03   5.00000000E-01   5.00000000E-01   2.79999045E-01   2.09999903E-01   9.99968216E-03   6.99991173E-02   2.00043369E-01   1.34220372E-05   1.29977087E-01   2.79985412E-02   9.99985078E-04   9.99877995E-04   5.56763693E-06   2.73637403E-06   4.64291293E-06   9.94580113E-04   0.00000000E+00   4.72482813E-09
   2.46750000E+03   5.00000000E-01   5.00000000E-01   2.79999072E-01   2.09999903E-01   9.99968216E-03   6.99991173E-02   2.00042846E-01   1.34272641E-05   1.29976935E-01   2.79985413E-02   9.99983169E-04   9.99882289E-04   5.50516004E-06   2.88128705E-06   4.60584345E-06   9.94579929E-04   0.00000000E+00   4.59344156E-09
   2.50250000E+03   5.00000000E-01   5.00000000E-01   2.79999102E-01   2.09999903E-01   9.99968216E-03   6.99991173E-02   2.00042334E-01   1.34366037E-05   1.29976782E-01   2.79985415E-02   9.99981231E-04   9.99886457E-04   5.43775937E-06   3.03059347E-06   4.57187622E-06   9.94579746E-04   0.00000000E+00   4.46324477E-09
   2.53750000E+03   5.00000000E-01   5.00000000E-01   2.79999135E-01   2.09999903E-01   9.99968216E-03   6.99991173E-02   2.00041832E-01   1.34495597E-05   1.29976626E-01   2.79985417E-02   9.99979325E-04   9.99890490E-04   5.36561855E-06   3.18403892E-06   4.54130249E-06   9.94579565E-04   0.00000000E+00   4.33437149E-09
   2.57250000E+03   5.00000000E-01   5.00000000E-01   2.79999171E-01   2.09999903E-01   9.99968216E-03   6.99991173E-02   2.00041340E-01   1.34647501E-05   1.29976468E-01   2.79985419E-02   9.99977527E-04   9.99894382E-04   5.28904364E-06   3.34171528E-06   4.51443228E-06   9.94579385E-04   0.00000000E+00   4.20696703E-09
   2.60750000E+03   5.00000000E-01   5.00000000E-01   2.79999212E-01   2.09999903E-01   9.99968216E-03   6.99991173E-02   2.00040858E-01   1.34812409E-05   1.29976310E-01   2.79985421E-02   9.99975924E-04   9.99898131E-04   5.20807497E-06   3.50375634E-06   4.49158170E-06   9.94579209E-04   0.00000000E+00   4.08111609E-09
   2.64250000E+03   5.00000000E-01   5.00000000E-01   2.79999259E-01   2.09999903E-01   9.99968216E-03   6.99991173E-02   2.00040386E-01   1.34975362E-05   1.29976150E-01   2.79985422E-02   9.99974613E-04   9.99901731E-04   5.12298168E-06   3.67036244E-06   4.47306143E-06   9.94579035E-04   0.00000000E+00   3.95683318E-09
   2.67750000E+03   5.00000000E-01   5.00000000E-01   2.79999313E-01   2.09999904E-01   9.99968216E-03   6.99991173E-02   2.00039923E-01   1.34928094E-05   1.29975989E-01   2.79985424E-02   9.99973694E-04   9.99905305E-04   5.03790253E-06   3.84396735E-06   4.48170736E-06   9.94578865E-04   0.00000000E+00   3.83334503E-09
   2.71250000E+03   5.00000000E-01   5.00000000E-01   2.79999373E-01   2.09999904E-01   9.99968216E-03   6.99991173E-02   2.00039470E-01   1.34787470E-05   1.29975827E-01   2.79985424E-02   9.99973266E-04   9.99908766E-04   4.95032161E-06   4.02403235E-06   4.49907160E-06   9.94578698E-04   0.00000000E+00   3.71082746E-09
   2.74750000E+03   5.00000000E-01   5.00000000E-01   2.79999420E-01   2.09999904E-01   9.99968216E-03   6.99991173E-02   2.00039027E-01   1.34743309E-05   1.29975663E-01   2.79985425E-02   9.99972909E-04   9.99911993E-04   4.85807229E-06   4.20476168E-06   4.52113898E-06   9.94578534E-04   0.00000000E+00   3.58857508E-09
   2.78250000E+03   5.00000000E-01   5.00000000E-01   2.79999467E-01   2.09999904E-01   9.99968216E-03   6.99991173E-02   2.00038593E-01   1.34760345E-05   1.29975499E-01   2.79985425E-02   9.99972502E-04   9.99914997E-04   4.76155682E-06   4.38718324E-06   4.54820513E-06   9.94578373E-04   0.00000000E+00   3.46844434E-09
   2.81750000E+03   5.00000000E-01   5.00000000E-01   2.79999516E-01   2.09999904E-01   9.99968216E-03   6.99991173E-02   2.00038168E-01   1.34816494E-05   1.29975335E-01   2.79985426E-02   9.99972181E-04   9.99917775E-04   4.66131276E-06   4.57151899E-06   4.58051757E-06   9.94578216E-04   0.00000000E+00   3.34906498E-09
   2.85250000E+03   5.00000000E-01   5.00000000E-01   2.79999566E-01   2.09999904E-01   9.99968217E-03   6.99991173E-02   2.00037753E-01   1.34927552E-05   1.29975170E-01   2.79985426E-02   9.99972134E-04   9.99920311E-04   4.55755127E-06   4.75650203E-06   4.61833559E-06   9.94578063E-04   0.00000000E+00   3.22966013E-09
   2.88750000E+03   5.00000000E-01   5.00000000E-01   2.79999616E-01   2.09999904E-01   9.99968217E-03   6.99991173E-02   2.00037346E-01   1.35115151E-05   1.29975005E-01   2.79985426E-02   9.99972486E-04   9.99922589E-04   4.45045623E-06   4.94064330E-06   4.66193722E-06   9.94577913E-04   0.00000000E+00   3.11056085E-09
   2.92250000E+03   5.00000000E-01   5.00000000E-01   2.79999668E-01   2.09999904E-01   9.99968217E-03   6.99991173E-02   2.00036949E-01   1.35394910E-05   1.29974841E-01   2.79985426E-02   9.99973280E-04   9.99924598E-04   4.34028048E-06   5.12273245E-06   4.71161427E-06   9.94577768E-04   0.00000000E+00   2.99743431E-09
   2.95750000E+03   5.00000000E-01   5.00000000E-01   2.79999719E-01   2.09999904E-01   9.99968217E-03   6.99991173E-02   2.00036560E-01   1.35782947E-05   1.29974677E-01   2.79985426E-02   9.99974498E-04   9.99926329E-04   4.22733637E-06   5.30152086E-06   4.76766354E-06   9.94577627E-04   0.00000000E+00   2.88442369E-09
   2.99250000E+03   5.00000000E-01   5.00000000E-01   2.79999770E-01   2.09999904E-01   9.99968217E-03   6.99991173E-02   2.00036180E-01   1.36288807E-05   1.29974513E-01   2.79985425E-02   9.99976083E-04   9.99927776E-04   4.11198097E-06   5.47606432E-06   4.83037575E-06   9.94577490E-04   0.00000000E+00   2.77162689E-09
   3.02750000E+03   5.00000000E-01   5.00000000E-01   2.79999821E-01   2.09999904E-01   9.99968217E-03   6.99991173E-02   2.00035809E-01   1.36923670E-05   1.29974351E-01   2.79985424E-02   9.99977959E-04   9.99928933E-04   3.99454226E-06   5.64540096E-06   4.90002257E-06   9.94577358E-04   0.00000000E+00   2.65913390E-09
   3.06250000E+03   5.00000000E-01   5.00000000E-01   2.79999871E-01   2.09999904E-01   9.99968217E-03   6.99991173E-02   2.00035446E-01   1.37698718E-05   1.29974189E-01   2.79985423E-02   9.99980039E-04   9.99929797E-04   3.87535054E-06   5.80858445E-06   4.97684187E-06   9.94577230E-04   0.00000000E+00   2.54702494E-09
   3.09750000E+03   5.00000000E-01   5.00000000E-01   2.79999920E-01   2.09999904E-01   9.99968217E-03   6.99991173E-02   2.00035090E-01   1.38624797E-05   1.29974029E-01   2.79985422E-02   9.99982228E-04   9.99930365E-04   3.75475827E-06   5.96467837E-06   5.06102167E-06   9.94577107E-04   0.00000000E+00   2.43536885E-09
   3.13250000E+03   5.00000000E-01   5.00000000E-01   2.79999968E-01   2.09999904E-01   9.99968217E-03   6.99991173E-02   2.00034743E-01   1.39713064E-05   1.29973870E-01   2.79985420E-02   9.99984437E-04   9.99930635E-04   3.63311320E-06   6.11274332E-06   5.15268361E-06   9.94576988E-04   0.00000000E+00   2.32548343E-09
   3.16750000E+03   5.00000000E-01   5.00000000E-01   2.80000014E-01   2.09999904E-01   9.99968217E-03   6.99991173E-02   2.00034404E-01   1.40974365E-05   1.29973712E-01   2.79985419E-02   9.99986578E-04   9.99930609E-04   3.51071869E-06   6.25191926E-06   5.25186706E-06   9.94576874E-04   0.00000000E+00   2.22529606E-09