 TITLE = "Mineral Volumes" 
VARIABLES = "X"          "Y"              "Z"            "Forsterite"     "Fayalite"       "Saponite(Mg)"   "Enstatite(alph" "Ferrosilite(al" "Anorthite"      "Albite(low)"    "Clinochlore"    "Sudoite"        "Montmorillonit" "Kaolinite"      "Tremolite"      "Pargasite"      "Anhydrite"      "Epidote"        "Scolecite"      "Pyrite"         "FeS(am)"        "Quartz(alpha)" 
 ZONE I=         100 , J=           1 , K=           1  F=POINT
   1.75000000E+01   5.00000000E-01   5.00000000E-01   1.09270114E-01   1.08989715E-01   2.47818800E-03   4.99997035E-02   4.99997750E-02   6.94080904E-02   6.90205121E-02   2.70275735E-03   3.09149559E-11   6.21517199E-11   8.50441866E-04   6.93742456E-02   6.93550755E-02   5.53484786E-11   9.99999997E-04   9.98145730E-04   9.18599313E-11   9.39765466E-11   1.00010625E-10
   5.25000000E+01   5.00000000E-01   5.00000000E-01   1.09270114E-01   1.09076725E-01   2.51335342E-03   4.99997035E-02   4.99998146E-02   6.94080904E-02   6.93166508E-02   2.37950522E-03   1.62718892E-11   6.74203451E-11   8.50939151E-04   6.93741872E-02   6.93550755E-02   5.56669992E-11   1.00000000E-03   9.98145834E-04   9.18599313E-11   9.39779060E-11   1.00011985E-10
   8.75000000E+01   5.00000000E-01   5.00000000E-01   1.09270114E-01   1.09187460E-01   2.39288227E-03   4.99997035E-02   4.99998473E-02   6.94080904E-02   6.94354949E-02   2.28445064E-03   1.32016306E-11   7.08527634E-11   8.51284312E-04   6.93739766E-02   6.93550755E-02   5.60215596E-11   1.00000000E-03   9.98145908E-04   9.18599313E-11   9.39789301E-11   1.00012141E-10
   1.22500000E+02   5.00000000E-01   5.00000000E-01   1.09270114E-01   1.09298249E-01   2.23687876E-03   4.99997035E-02   4.99998727E-02   6.94080904E-02   6.95188187E-02   2.23612856E-03   1.25587578E-11   7.41743637E-11   8.51637119E-04   6.93738727E-02   6.93550755E-02   5.64163554E-11   1.00000000E-03   9.98145984E-04   9.18599313E-11   9.39795734E-11   1.00012103E-10
   1.57500000E+02   5.00000000E-01   5.00000000E-01   1.09270114E-01   1.09396011E-01   2.09388948E-03   4.99997036E-02   4.99998917E-02   6.94080904E-02   6.95892246E-02   2.19798893E-03   1.25476534E-11   7.77910758E-11   8.52032475E-04   6.93738793E-02   6.93550755E-02   5.68558206E-11   1.00000000E-03   9.98146069E-04   9.18599313E-11   9.39798926E-11   1.00011999E-10
   1.92500000E+02   5.00000000E-01   5.00000000E-01   1.09270114E-01   1.09476672E-01   1.97520512E-03   4.99997036E-02   4.99999055E-02   6.94080904E-02   6.96470380E-02   2.16676534E-03   1.27390060E-11   8.16505569E-11   8.52467377E-04   6.93738401E-02   6.93550755E-02   5.73447588E-11   1.00000000E-03   9.98146163E-04   9.18599313E-11   9.39799691E-11   1.00011845E-10
   2.27500000E+02   5.00000000E-01   5.00000000E-01   1.09270114E-01   1.09540654E-01   1.88111584E-03   4.99997036E-02   4.99999154E-02   6.94080904E-02   6.96918523E-02   2.14282781E-03   1.30216449E-11   8.56488053E-11   8.52934522E-04   6.93737171E-02   6.93550755E-02   5.78884463E-11   1.00000000E-03   9.98146263E-04   9.18599313E-11   9.39798758E-11   1.00011650E-10
   2.62500000E+02   5.00000000E-01   5.00000000E-01   1.09270114E-01   1.09590156E-01   1.80832129E-03   4.99997036E-02   4.99999222E-02   6.94080904E-02   6.97246350E-02   2.12602157E-03   1.33679739E-11   8.97096324E-11   8.53428532E-04   6.93736667E-02   6.93550755E-02   5.84927195E-11   1.00000000E-03   9.98146368E-04   9.18599313E-11   9.39796695E-11   1.00011423E-10
   2.97500000E+02   5.00000000E-01   5.00000000E-01   1.09270114E-01   1.09627761E-01   1.75320308E-03   4.99997037E-02   4.99999268E-02   6.94080904E-02   6.97471123E-02   2.11546630E-03   1.37746821E-11   9.37919665E-11   8.53947064E-04   6.93736812E-02   6.93550755E-02   5.91640878E-11   1.00000000E-03   9.98146479E-04   9.18599313E-11   9.39793925E-11   1.00011174E-10
   3.32500000E+02   5.00000000E-01   5.00000000E-01   1.09270114E-01   1.09655919E-01   1.71230792E-03   4.99997037E-02   4.99999296E-02   6.94080904E-02   6.97611320E-02   2.11010665E-03   1.42465619E-11   9.78780610E-11   8.54489648E-04   6.93736921E-02   6.93550755E-02   5.99098486E-11   9.99999999E-04   9.98146594E-04   9.18599313E-11   9.39790752E-11   1.00010910E-10
   3.67500000E+02   5.00000000E-01   5.00000000E-01   1.09270114E-01   1.09676752E-01   1.68236483E-03   4.99997037E-02   4.99999313E-02   6.94080904E-02   6.97683939E-02   2.10899435E-03   1.47918667E-11   1.01964051E-10   8.55056584E-04   6.93737533E-02   6.93550755E-02   6.07381971E-11   9.99999999E-04   9.98146715E-04   9.18599313E-11   9.39787390E-11   1.00010638E-10
   4.02500000E+02   5.00000000E-01   5.00000000E-01   1.09270114E-01   1.09691964E-01   1.66083524E-03   4.99997038E-02   4.99999320E-02   6.94080904E-02   6.97703789E-02   2.11122048E-03   1.54219201E-11   1.06056921E-10   8.55649115E-04   6.93738699E-02   6.93550755E-02   6.16583688E-11   9.99999999E-04   9.98146840E-04   9.18599313E-11   9.39783989E-11   1.00010361E-10
   4.37500000E+02   5.00000000E-01   5.00000000E-01   1.09270114E-01   1.09702889E-01   1.64571546E-03   4.99997038E-02   4.99999320E-02   6.94080904E-02   6.97683131E-02   2.11600582E-03   1.61510668E-11   1.10169493E-10   8.56268963E-04   6.93740230E-02   6.93550755E-02   6.26808049E-11   9.99999999E-04   9.98146971E-04   9.18599313E-11   9.39780649E-11   1.00010083E-10
   4.72500000E+02   5.00000000E-01   5.00000000E-01   1.09270115E-01   1.09710551E-01   1.63539955E-03   4.99997038E-02   4.99999316E-02   6.94080904E-02   6.97631956E-02   2.12270708E-03   1.69970881E-11   1.14318321E-10   8.56918112E-04   6.93742061E-02   6.93550755E-02   6.38173429E-11   9.99999999E-04   9.98147108E-04   9.18599313E-11   9.39777437E-11   1.00009806E-10
   5.07500000E+02   5.00000000E-01   5.00000000E-01   1.09270115E-01   1.09715723E-01   1.62864337E-03   4.99997039E-02   4.99999308E-02   6.94080904E-02   6.97558405E-02   2.13078180E-03   1.79821279E-11   1.18523308E-10   8.57598838E-04   6.93744128E-02   6.93550755E-02   6.50814446E-11   9.99999998E-04   9.98147251E-04   9.18599313E-11   9.39774393E-11   1.00009533E-10
   5.42500000E+02   5.00000000E-01   5.00000000E-01   1.09270115E-01   1.09718976E-01   1.62448586E-03   4.99997039E-02   4.99999297E-02   6.94080905E-02   6.97469111E-02   2.13977321E-03   1.91338719E-11   1.22807293E-10   8.58313705E-04   6.93746370E-02   6.93550755E-02   6.64884686E-11   9.99999998E-04   9.98147402E-04   9.18599313E-11   9.39771542E-11   1.00009264E-10
   5.77500000E+02   5.00000000E-01   5.00000000E-01   1.09270115E-01   1.09720731E-01   1.62218462E-03   4.99997040E-02   4.99999284E-02   6.94080905E-02   6.97369470E-02   2.14929756E-03   2.04871164E-11   1.27195769E-10   8.59065552E-04   6.93748736E-02   6.93550755E-02   6.80559967E-11   9.99999997E-04   9.98147560E-04   9.18599313E-11   9.39768897E-11   1.00009000E-10
   6.12500000E+02   5.00000000E-01   5.00000000E-01   1.09270115E-01   1.09721291E-01   1.62116877E-03   4.99997040E-02   4.99999269E-02   6.94080905E-02   6.97263851E-02   2.15903470E-03   2.20858383E-11   1.31716468E-10   8.59857475E-04   6.93751192E-02   6.93550755E-02   6.98042271E-11   9.99999995E-04   9.98147727E-04   9.18599313E-11   9.39766459E-11   1.00008743E-10
   6.47500000E+02   5.00000000E-01   5.00000000E-01   1.09270116E-01   1.09720875E-01   1.62100417E-03   4.99997041E-02   4.99999253E-02   6.94080905E-02   6.97155737E-02   2.16872232E-03   2.39859076E-11   1.36398669E-10   8.60692767E-04   6.93753721E-02   6.93550755E-02   7.17564488E-11   9.99999993E-04   9.98147904E-04   9.18599313E-11   9.39764226E-11   1.00008493E-10
   6.82500000E+02   5.00000000E-01   5.00000000E-01   1.09270117E-01   1.09719639E-01   1.62136786E-03   4.99997041E-02   4.99999237E-02   6.94080906E-02   6.97047819E-02   2.17815262E-03   2.62586381E-11   1.41272171E-10   8.61574820E-04   6.93756314E-02   6.93550755E-02   7.39396187E-11   9.99999991E-04   9.98148090E-04   9.18599313E-11   9.39762193E-11   1.00008250E-10
   7.17500000E+02   5.00000000E-01   5.00000000E-01   1.09270118E-01   1.09717692E-01   1.62202935E-03   4.99997042E-02   4.99999219E-02   6.94080906E-02   6.96942067E-02   2.18717008E-03   2.89954415E-11   1.46365954E-10   8.62506990E-04   6.93758971E-02   6.93550755E-02   7.63850640E-11   9.99999987E-04   9.98148287E-04   9.18599313E-11   9.39760349E-11   1.00008015E-10
   7.52500000E+02   5.00000000E-01   5.00000000E-01   1.09270119E-01   1.09715112E-01   1.62283658E-03   4.99997042E-02   4.99999202E-02   6.94080907E-02   6.96839793E-02   2.19566878E-03   3.23139367E-11   1.51706556E-10   8.63492428E-04   6.93761699E-02   6.93550755E-02   7.91293431E-11   9.99999981E-04   9.98148496E-04   9.18599313E-11   9.39758683E-11   1.00007788E-10
   7.87500000E+02   5.00000000E-01   5.00000000E-01   1.09270121E-01   1.09711954E-01   1.62370531E-03   4.99997043E-02   4.99999183E-02   6.94080908E-02   6.96741716E-02   2.20358876E-03   3.63659831E-11   1.57316275E-10   8.64533897E-04   6.93764499E-02   6.93550755E-02   8.22153034E-11   9.99999974E-04   9.98148717E-04   9.18599313E-11   9.39757185E-11   1.00007568E-10
   8.22500000E+02   5.00000000E-01   5.00000000E-01   1.09270125E-01   1.09708260E-01   1.62461010E-03   4.99997044E-02   4.99999164E-02   6.94080909E-02   6.96648033E-02   2.21091103E-03   4.13482465E-11   1.63211266E-10   8.65633585E-04   6.93767358E-02   6.93550755E-02   8.56933894E-11   9.99999962E-04   9.98148951E-04   9.18599313E-11   9.39755840E-11   1.00007357E-10
   8.57500000E+02   5.00000000E-01   5.00000000E-01   1.09270129E-01   1.09704060E-01   1.62557402E-03   4.99997044E-02   4.99999145E-02   6.94080911E-02   6.96558506E-02   2.21765179E-03   4.75160553E-11   1.69399686E-10   8.66792922E-04   6.93770239E-02   6.93550755E-02   8.96232664E-11   9.99999946E-04   9.98149198E-04   9.18599313E-11   9.39754638E-11   1.00007152E-10
   8.92500000E+02   5.00000000E-01   5.00000000E-01   1.09270136E-01   1.09699382E-01   1.62665394E-03   4.99997045E-02   4.99999126E-02   6.94080912E-02   6.96472550E-02   2.22385708E-03   5.52014544E-11   1.75879984E-10   8.68012410E-04   6.93773097E-02   6.93550755E-02   9.40758445E-11   9.99999925E-04   9.98149459E-04   9.18599313E-11   9.39753566E-11   1.00006955E-10
   9.27500000E+02   5.00000000E-01   5.00000000E-01   1.09270147E-01   1.09694250E-01   1.62792156E-03   4.99997046E-02   4.99999106E-02   6.94080915E-02   6.96389327E-02   2.22959780E-03   6.48365282E-11   1.82639514E-10   8.69291486E-04   6.93775914E-02   6.93550755E-02   9.91358143E-11   9.99999895E-04   9.98149733E-04   9.18599313E-11   9.39752613E-11   1.00006765E-10
   9.62500000E+02   5.00000000E-01   5.00000000E-01   1.09270162E-01   1.09688689E-01   1.62944569E-03   4.99997047E-02   4.99999086E-02   6.94080917E-02   6.96307850E-02   2.23496428E-03   7.69833278E-11   1.89653673E-10   8.70628418E-04   6.93778744E-02   6.93550755E-02   1.04904836E-10   9.99999857E-04   9.98150021E-04   9.18599313E-11   9.39751766E-11   1.00006582E-10
   9.97500000E+02   5.00000000E-01   5.00000000E-01   1.09270185E-01   1.09682723E-01   1.63128766E-03   4.99997048E-02   4.99999065E-02   6.94080921E-02   6.96227070E-02   2.24005747E-03   9.23723678E-11   1.96885813E-10   8.72020312E-04   6.93781703E-02   6.93550755E-02   1.11505578E-10   9.99999809E-04   9.98150322E-04   9.18599313E-11   9.39751017E-11   1.00006404E-10
   1.03250000E+03   5.00000000E-01   5.00000000E-01   1.09270219E-01   1.09676373E-01   1.63352324E-03   4.99997049E-02   4.99999045E-02   6.94080925E-02   6.96145967E-02   2.24497378E-03   1.11953010E-10   2.04288194E-10   8.73463261E-04   6.93784840E-02   6.93550755E-02   1.19086861E-10   9.99999749E-04   9.98150636E-04   9.18599313E-11   9.39750354E-11   1.00006233E-10
   1.06750000E+03   5.00000000E-01   5.00000000E-01   1.09270268E-01   1.09669657E-01   1.63626307E-03   4.99997050E-02   4.99999024E-02   6.94080930E-02   6.96063612E-02   2.24979261E-03   1.36958760E-10   2.11803433E-10   8.74952556E-04   6.93787991E-02   6.93550755E-02   1.27830270E-10   9.99999678E-04   9.98150961E-04   9.18599313E-11   9.39749769E-11   1.00006067E-10
   1.10250000E+03   5.00000000E-01   5.00000000E-01   1.09270339E-01   1.09662588E-01   1.63961400E-03   4.99997051E-02   4.99999003E-02   6.94080937E-02   6.95979195E-02   2.25458363E-03   1.68985757E-10   2.19365308E-10   8.76482683E-04   6.93790888E-02   6.93550755E-02   1.37958664E-10   9.99999596E-04   9.98151299E-04   9.18599313E-11   9.39749253E-11   1.00005906E-10
   1.13750000E+03   5.00000000E-01   5.00000000E-01   1.09270443E-01   1.09655188E-01   1.64361133E-03   4.99997052E-02   4.99998981E-02   6.94080944E-02   6.95892036E-02   2.25942313E-03   2.10081665E-10   2.26899463E-10   8.78047180E-04   6.93793463E-02   6.93550755E-02   1.49747180E-10   9.99999505E-04   9.98151647E-04   9.18599313E-11   9.39748799E-11   1.00005749E-10
   1.17250000E+03   5.00000000E-01   5.00000000E-01   1.09270591E-01   1.09647485E-01   1.64819066E-03   4.99997054E-02   4.99998960E-02   6.94080954E-02   6.95801615E-02   2.26439851E-03   2.62845895E-10   2.34325459E-10   8.79638635E-04   6.93796042E-02   6.93550755E-02   1.63537524E-10   9.99999407E-04   9.98152004E-04   9.18599313E-11   9.39748400E-11   1.00005597E-10
   1.20750000E+03   5.00000000E-01   5.00000000E-01   1.09270799E-01   1.09639506E-01   1.65324985E-03   4.99997055E-02   4.99998938E-02   6.94080966E-02   6.95707610E-02   2.26958708E-03   3.30553745E-10   2.41561114E-10   8.81249132E-04   6.93799127E-02   6.93550755E-02   1.79756729E-10   9.99999305E-04   9.98152371E-04   9.18599313E-11   9.39748049E-11   1.00005450E-10
   1.24250000E+03   5.00000000E-01   5.00000000E-01   1.09271083E-01   1.09631265E-01   1.65882362E-03   4.99997057E-02   4.99998917E-02   6.94080979E-02   6.95609942E-02   2.27500371E-03   4.17346697E-10   2.48529512E-10   8.82871355E-04   6.93802561E-02   6.93550755E-02   1.98942068E-10   9.99999203E-04   9.98152745E-04   9.18599313E-11   9.39747741E-11   1.00005306E-10
   1.27750000E+03   5.00000000E-01   5.00000000E-01   1.09271463E-01   1.09622758E-01   1.66508376E-03   4.99997058E-02   4.99998895E-02   6.94080996E-02   6.95508707E-02   2.28060726E-03   5.28454725E-10   2.55160215E-10   8.84498777E-04   6.93805361E-02   6.93550755E-02   2.21774329E-10   9.99999105E-04   9.98153127E-04   9.18599313E-11   9.39747471E-11   1.00005166E-10
   1.31250000E+03   5.00000000E-01   5.00000000E-01   1.09271959E-01   1.09613999E-01   1.67208456E-03   4.99997060E-02   4.99998873E-02   6.94081016E-02   6.95404045E-02   2.28638417E-03   6.70323219E-10   2.61382940E-10   8.86124263E-04   6.93806828E-02   6.93550755E-02   2.49122200E-10   9.99999019E-04   9.98153515E-04   9.18599313E-11   9.39747234E-11   1.00005029E-10
   1.34750000E+03   5.00000000E-01   5.00000000E-01   1.09272593E-01   1.09605034E-01   1.67957855E-03   4.99997062E-02   4.99998851E-02   6.94081040E-02   6.95296093E-02   2.29240270E-03   8.50597699E-10   2.67124862E-10   8.87738958E-04   6.93807615E-02   6.93550755E-02   2.82101631E-10   9.99998953E-04   9.98153909E-04   9.18599313E-11   9.39747026E-11   1.00004896E-10
   1.38250000E+03   5.00000000E-01   5.00000000E-01   1.09273371E-01   1.09595967E-01   1.68674851E-03   4.99997064E-02   4.99998829E-02   6.94081069E-02   6.95184941E-02   2.29889163E-03   1.07765020E-09   2.72305505E-10   8.89330439E-04   6.93811205E-02   6.93550755E-02   3.22155133E-10   9.99998916E-04   9.98154308E-04   9.18599313E-11   9.39746844E-11   1.00004767E-10
   1.41750000E+03   5.00000000E-01   5.00000000E-01   1.09274260E-01   1.09586926E-01   1.69288273E-03   4.99997066E-02   4.99998808E-02   6.94081103E-02   6.95070980E-02   2.30601828E-03   1.36066954E-09   2.76865583E-10   8.90887371E-04   6.93820817E-02   6.93550755E-02   3.71160471E-10   9.99998901E-04   9.98154709E-04   9.18599313E-11   9.39746684E-11   1.00004642E-10
   1.45250000E+03   5.00000000E-01   5.00000000E-01   1.09275209E-01   1.09577774E-01   1.69991307E-03   4.99997069E-02   4.99998787E-02   6.94081143E-02   6.94955792E-02   2.31309537E-03   1.71448022E-09   2.80857703E-10   8.92418548E-04   6.93827997E-02   6.93550755E-02   4.31588840E-10   9.99998872E-04   9.98155116E-04   9.18599313E-11   9.39746543E-11   1.00004520E-10
   1.48750000E+03   5.00000000E-01   5.00000000E-01   1.09276229E-01   1.09568404E-01   1.70852040E-03   4.99997071E-02   4.99998765E-02   6.94081190E-02   6.94839862E-02   2.31989685E-03   2.15582896E-09   2.84268782E-10   8.93922961E-04   6.93829952E-02   6.93550755E-02   5.06715782E-10   9.99998845E-04   9.98155529E-04   9.18599313E-11   9.39746421E-11   1.00004401E-10
   1.52250000E+03   5.00000000E-01   5.00000000E-01   1.09277331E-01   1.09559089E-01   1.71609927E-03   4.99997074E-02   4.99998744E-02   6.94081246E-02   6.94722264E-02   2.32725465E-03   2.69404463E-09   2.86961379E-10   8.95373196E-04   6.93837769E-02   6.93550755E-02   6.00901515E-10   9.99998880E-04   9.98155944E-04   9.18599313E-11   9.39746313E-11   1.00004285E-10
   1.55750000E+03   5.00000000E-01   5.00000000E-01   1.09278467E-01   1.09550102E-01   1.72152561E-03   4.99997077E-02   4.99998724E-02   6.94081311E-02   6.94603474E-02   2.33543856E-03   3.33864085E-09   2.88908777E-10   8.96755749E-04   6.93855455E-02   6.93550755E-02   7.19999390E-10   9.99998937E-04   9.98156360E-04   9.18599313E-11   9.39746219E-11   1.00004174E-10
   1.59250000E+03   5.00000000E-01   5.00000000E-01   1.09279629E-01   1.09541201E-01   1.72829481E-03   4.99997080E-02   4.99998703E-02   6.94081388E-02   6.94486082E-02   2.34320787E-03   4.12099222E-09   2.90296585E-10   8.98098733E-04   6.93867612E-02   6.93550755E-02   8.71967361E-10   9.99998926E-04   9.98156782E-04   9.18599313E-11   9.39746137E-11   1.00004065E-10
   1.62750000E+03   5.00000000E-01   5.00000000E-01   1.09280838E-01   1.09532304E-01   1.73710264E-03   4.99997082E-02   4.99998683E-02   6.94081478E-02   6.94370435E-02   2.35034180E-03   5.06895037E-09   2.91139204E-10   8.99403626E-04   6.93870606E-02   6.93550755E-02   1.06770287E-09   9.99998870E-04   9.98157211E-04   9.18599313E-11   9.39746065E-11   1.00003959E-10
   1.66250000E+03   5.00000000E-01   5.00000000E-01   1.09282055E-01   1.09523758E-01   1.74608348E-03   4.99997085E-02   4.99998663E-02   6.94081583E-02   6.94255739E-02   2.35745586E-03   6.19310296E-09   2.91344208E-10   9.00647920E-04   6.93869363E-02   6.93550755E-02   1.32223178E-09   9.99998734E-04   9.98157645E-04   9.18599313E-11   9.39746001E-11   1.00003855E-10
   1.69750000E+03   5.00000000E-01   5.00000000E-01   1.09283277E-01   1.09515594E-01   1.75507259E-03   4.99997088E-02   4.99998644E-02   6.94081706E-02   6.94142564E-02   2.36453991E-03   7.51187248E-09   2.90940611E-10   9.01827866E-04   6.93866084E-02   6.93550755E-02   1.65644529E-09   9.99998554E-04   9.98158084E-04   9.18599313E-11   9.39745946E-11   1.00003754E-10
   1.73250000E+03   5.00000000E-01   5.00000000E-01   1.09284553E-01   1.09507493E-01   1.76494669E-03   4.99997091E-02   4.99998624E-02   6.94081849E-02   6.94031925E-02   2.37124263E-03   9.05660148E-09   2.90009443E-10   9.02950824E-04   6.93862301E-02   6.93550755E-02   2.09962207E-09   9.99998526E-04   9.98158531E-04   9.18599313E-11   9.39745898E-11   1.00003654E-10
   1.76750000E+03   5.00000000E-01   5.00000000E-01   1.09285877E-01   1.09499508E-01   1.77518477E-03   4.99997095E-02   4.99998606E-02   6.94082015E-02   6.93923924E-02   2.37770387E-03   1.08420003E-08   2.88554647E-10   9.04009172E-04   6.93859529E-02   6.93550755E-02   2.69312638E-09   9.99998666E-04   9.98158986E-04   9.18599313E-11   9.39745855E-11   1.00003557E-10
   1.80250000E+03   5.00000000E-01   5.00000000E-01   1.09287208E-01   1.09491976E-01   1.78464137E-03   4.99997098E-02   4.99998587E-02   6.94082208E-02   6.93818519E-02   2.38425334E-03   1.28620536E-08   2.86566435E-10   9.04989520E-04   6.93858739E-02   6.93550755E-02   3.49586142E-09   9.99998815E-04   9.98159449E-04   9.18599313E-11   9.39745818E-11   1.00003461E-10
   1.83750000E+03   5.00000000E-01   5.00000000E-01   1.09288478E-01   1.09485189E-01   1.79225176E-03   4.99997101E-02   4.99998570E-02   6.94082432E-02   6.93715951E-02   2.39116471E-03   1.50941506E-08   2.84060937E-10   9.05880840E-04   6.93862773E-02   6.93550755E-02   4.59230223E-09   9.99998880E-04   9.98159920E-04   9.18599313E-11   9.39745786E-11   1.00003367E-10
   1.87250000E+03   5.00000000E-01   5.00000000E-01   1.09289623E-01   1.09479314E-01   1.79764938E-03   4.99997104E-02   4.99998554E-02   6.94082690E-02   6.93616938E-02   2.39846027E-03   1.75153528E-08   2.81100775E-10   9.06681129E-04   6.93873343E-02   6.93550755E-02   6.10445223E-09   9.99998898E-04   9.98160402E-04   9.18599313E-11   9.39745757E-11   1.00003276E-10
   1.90750000E+03   5.00000000E-01   5.00000000E-01   1.09290658E-01   1.09474285E-01   1.80253198E-03   4.99997107E-02   4.99998540E-02   6.94082990E-02   6.93523154E-02   2.40547401E-03   2.01638496E-08   2.77840954E-10   9.07412607E-04   6.93883757E-02   6.93550755E-02   8.20992068E-09   9.99998926E-04   9.98160900E-04   9.18599313E-11   9.39745733E-11   1.00003187E-10
   1.94250000E+03   5.00000000E-01   5.00000000E-01   1.09291647E-01   1.09469862E-01   1.80888686E-03   4.99997111E-02   4.99998526E-02   6.94083338E-02   6.93436035E-02   2.41148426E-03   2.31170432E-08   2.74417276E-10   9.08100084E-04   6.93887223E-02   6.93550755E-02   1.11690836E-08   9.99998953E-04   9.98161420E-04   9.18599313E-11   9.39745711E-11   1.00003100E-10
   1.97750000E+03   5.00000000E-01   5.00000000E-01   1.09292620E-01   1.09465810E-01   1.81708500E-03   4.99997114E-02   4.99998512E-02   6.94083742E-02   6.93355912E-02   2.41634840E-03   2.64144367E-08   2.70864573E-10   9.08748017E-04   6.93884497E-02   6.93550755E-02   1.53658297E-08   9.99998990E-04   9.98161966E-04   9.18599313E-11   9.39745692E-11   1.00003014E-10
   2.01250000E+03   5.00000000E-01   5.00000000E-01   1.09293584E-01   1.09462202E-01   1.82616341E-03   4.99997117E-02   4.99998499E-02   6.94084211E-02   6.93282537E-02   2.42036471E-03   3.00315790E-08   2.67161978E-10   9.09345195E-04   6.93878529E-02   6.93550755E-02   2.13692896E-08   9.99999036E-04   9.98162539E-04   9.18599313E-11   9.39745675E-11   1.00002928E-10
   2.04750000E+03   5.00000000E-01   5.00000000E-01   1.09294540E-01   1.09459343E-01   1.83483976E-03   4.99997120E-02   4.99998487E-02   6.94084755E-02   6.93215831E-02   2.42389949E-03   3.39033422E-08   2.63298825E-10   9.09878831E-04   6.93871279E-02   6.93550755E-02   3.00274581E-08   9.99999066E-04   9.98163142E-04   9.18599313E-11   9.39745660E-11   1.00002843E-10
   2.08250000E+03   5.00000000E-01   5.00000000E-01   1.09295486E-01   1.09457487E-01   1.84237156E-03   4.99997123E-02   4.99998476E-02   6.94085386E-02   6.93156290E-02   2.42709795E-03   3.79735407E-08   2.59309270E-10   9.10345402E-04   6.93863710E-02   6.93550755E-02   4.26089389E-08   9.99999070E-04   9.98163781E-04   9.18599313E-11   9.39745647E-11   1.00002759E-10
   2.11750000E+03   5.00000000E-01   5.00000000E-01   1.09296419E-01   1.09456785E-01   1.84845366E-03   4.99997126E-02   4.99998466E-02   6.94086118E-02   6.93104773E-02   2.42993766E-03   4.22066112E-08   2.55252704E-10   9.10748515E-04   6.93856274E-02   6.93550755E-02   6.10176349E-08   9.99999050E-04   9.98164461E-04   9.18599313E-11   9.39745635E-11   1.00002675E-10
   2.15250000E+03   5.00000000E-01   5.00000000E-01   1.09297337E-01   1.09457340E-01   1.85292294E-03   4.99997130E-02   4.99998458E-02   6.94086970E-02   6.93062267E-02   2.43233940E-03   4.65802935E-08   2.51192623E-10   9.11094599E-04   6.93849196E-02   6.93550755E-02   8.81175620E-08   9.99999010E-04   9.98165189E-04   9.18599313E-11   9.39745625E-11   1.00002593E-10
   2.18750000E+03   5.00000000E-01   5.00000000E-01   1.09298239E-01   1.09459240E-01   1.85563399E-03   4.99997133E-02   4.99998452E-02   6.94087963E-02   6.93029801E-02   2.43421172E-03   5.10823239E-08   2.47189306E-10   9.11391143E-04   6.93842599E-02   6.93550755E-02   1.28222839E-07   9.99998951E-04   9.98165975E-04   9.18599313E-11   9.39745616E-11   1.00002512E-10
   2.22250000E+03   5.00000000E-01   5.00000000E-01   1.09299128E-01   1.09462573E-01   1.85643189E-03   4.99997137E-02   4.99998447E-02   6.94089121E-02   6.93008427E-02   2.43546111E-03   5.57112980E-08   2.43298243E-10   9.11646232E-04   6.93836542E-02   6.93550755E-02   1.87833674E-07   9.99998873E-04   9.98166827E-04   9.18599313E-11   9.39745608E-11   1.00002432E-10
   2.25750000E+03   5.00000000E-01   5.00000000E-01   1.09300005E-01   1.09467423E-01   1.85515493E-03   4.99997141E-02   4.99998445E-02   6.94090474E-02   6.92999207E-02   2.43599298E-03   6.04784193E-08   2.39569500E-10   9.11868352E-04   6.93831044E-02   6.93550755E-02   2.76735472E-07   9.99998777E-04   9.98167755E-04   9.18599313E-11   9.39745601E-11   1.00002353E-10
   2.29250000E+03   5.00000000E-01   5.00000000E-01   1.09300877E-01   1.09473867E-01   1.85164536E-03   4.99997145E-02   4.99998444E-02   6.94092058E-02   6.93003184E-02   2.43571198E-03   6.54083539E-08   2.36046812E-10   9.12066155E-04   6.93826092E-02   6.93550755E-02   4.09627969E-07   9.99998663E-04   9.98168770E-04   9.18599313E-11   9.39745595E-11   1.00002276E-10
   2.32750000E+03   5.00000000E-01   5.00000000E-01   1.09301748E-01   1.09481971E-01   1.84576280E-03   4.99997149E-02   4.99998445E-02   6.94093916E-02   6.93021345E-02   2.43452320E-03   7.05383451E-08   2.32766244E-10   9.12248086E-04   6.93821650E-02   6.93550755E-02   6.08517353E-07   9.99998532E-04   9.98169883E-04   9.18599313E-11   9.39745590E-11   1.00002200E-10
   2.36250000E+03   5.00000000E-01   5.00000000E-01   1.09302626E-01   1.09491781E-01   1.83739884E-03   4.99997153E-02   4.99998448E-02   6.94096097E-02   6.93054568E-02   2.43233487E-03   7.59151195E-08   2.29754574E-10   9.12421899E-04   6.93817665E-02   6.93550755E-02   9.06188055E-07   9.99998381E-04   9.98171105E-04   9.18599313E-11   9.39745585E-11   1.00002125E-10
   2.39750000E+03   5.00000000E-01   5.00000000E-01   1.09303518E-01   1.09503313E-01   1.82649218E-03   4.99997158E-02   4.99998452E-02   6.94098660E-02   6.93103559E-02   2.42906217E-03   8.15893100E-08   2.27027530E-10   9.12594077E-04   6.93814074E-02   6.93550755E-02   1.35116994E-06   9.99998212E-04   9.98172446E-04   9.18599313E-11   9.39745581E-11   1.00002052E-10
   2.43250000E+03   5.00000000E-01   5.00000000E-01   1.09304431E-01   1.09516551E-01   1.81304284E-03   4.99997162E-02   4.99998459E-02   6.94101671E-02   6.93168779E-02   2.42463225E-03   8.76073124E-08   2.24588137E-10   9.12769223E-04   6.93810811E-02   6.93550755E-02   2.01472115E-06   9.99998022E-04   9.98173913E-04   9.18599313E-11   9.39745577E-11   1.00001981E-10
   2.46750000E+03   5.00000000E-01   5.00000000E-01   1.09305371E-01   1.09531432E-01   1.79712341E-03   4.99997167E-02   4.99998467E-02   6.94105208E-02   6.93250378E-02   2.41898971E-03   9.40007899E-08   2.22425437E-10   9.12949485E-04   6.93807809E-02   6.93550755E-02   3.00043218E-06   9.99997809E-04   9.98175514E-04   9.18599313E-11   9.39745573E-11   1.00001911E-10
   2.50250000E+03   5.00000000E-01   5.00000000E-01   1.09306348E-01   1.09547849E-01   1.77888484E-03   4.99997172E-02   4.99998477E-02   6.94109354E-02   6.93348139E-02   2.41210214E-03   1.00774537E-07   2.20513936E-10   9.13134119E-04   6.93805005E-02   6.93550755E-02   4.45707350E-06   9.99997570E-04   9.98177251E-04   9.18599313E-11   9.39745570E-11   1.00001842E-10
   2.53750000E+03   5.00000000E-01   5.00000000E-01   1.09307368E-01   1.09565645E-01   1.75855458E-03   4.99997178E-02   4.99998488E-02   6.94114204E-02   6.93461440E-02   2.40396472E-03   1.07894136E-07   2.18814123E-10   9.13319274E-04   6.93802344E-02   6.93550755E-02   6.59516761E-06   9.99997303E-04   9.98179120E-04   9.18599313E-11   9.39745568E-11   1.00001776E-10
   2.57250000E+03   5.00000000E-01   5.00000000E-01   1.09308439E-01   1.09584618E-01   1.73642571E-03   4.99997183E-02   4.99998500E-02   6.94119858E-02   6.93589260E-02   2.39460303E-03   1.15275663E-07   2.17274332E-10   9.13498104E-04   6.93799778E-02   6.93550755E-02   9.70731672E-06   9.99997005E-04   9.98181116E-04   9.18599313E-11   9.39745565E-11   1.00001710E-10
   2.60750000E+03   5.00000000E-01   5.00000000E-01   1.09309570E-01   1.09604528E-01   1.71283763E-03   4.99997189E-02   4.99998513E-02   6.94126420E-02   6.93730219E-02   2.38407303E-03   1.22780332E-07   2.15834035E-10   9.13661226E-04   6.93797269E-02   6.93550755E-02   1.41913326E-05   9.99996671E-04   9.98183226E-04   9.18599313E-11   9.39745563E-11   1.00001647E-10
   2.64250000E+03   5.00000000E-01   5.00000000E-01   1.09310771E-01   1.09625110E-01   1.68815098E-03   4.99997196E-02   4.99998526E-02   6.94133999E-02   6.93882657E-02   2.37245777E-03   1.30216846E-07   2.14428335E-10   9.13797511E-04   6.93794792E-02   6.93550755E-02   2.05733917E-05   9.99996299E-04   9.98185432E-04   9.18599313E-11   9.39745560E-11   1.00001585E-10
   2.67750000E+03   5.00000000E-01   5.00000000E-01   1.09312053E-01   1.09646085E-01   1.66272155E-03   4.99997202E-02   4.99998540E-02   6.94142704E-02   6.94044748E-02   2.35986092E-03   1.37352900E-07   2.12993099E-10   9.13895096E-04   6.93792337E-02   6.93550755E-02   2.95254590E-05   9.99995887E-04   9.98187711E-04   9.18599313E-11   9.39745558E-11   1.00001524E-10
   2.71250000E+03   5.00000000E-01   5.00000000E-01   1.09313428E-01   1.09667178E-01   1.63687894E-03   4.99997209E-02   4.99998554E-02   6.94152641E-02   6.94214611E-02   2.34639809E-03   1.43934845E-07   2.11469862E-10   9.13942430E-04   6.93789912E-02   6.93550755E-02   4.18669788E-05   9.99995434E-04   9.98190037E-04   9.18599313E-11   9.39745557E-11   1.00001465E-10