 TITLE = "Mineral Volumes" 
VARIABLES = "X"          "Y"              "Z"            "Forsterite"     "Fayalite"       "Saponite(Mg)"   "Enstatite(alph" "Ferrosilite(al" "Anorthite"      "Albite(low)"    "Clinochlore"    "Sudoite"        "Montmorillonit" "Kaolinite"      "Tremolite"      "Pargasite"      "Anhydrite"      "Epidote"        "Scolecite"      "Pyrite"         "FeS(am)"        "Quartz(alpha)" 
 ZONE I=         100 , J=           1 , K=           1  F=POINT
   1.75000000E+01   5.00000000E-01   5.00000000E-01   1.07586017E-01   1.06663767E-01   8.34276208E-03   4.99990116E-02   4.99992454E-02   6.80465558E-02   6.66895180E-02   8.79367143E-03   2.58658797E-13   2.03000429E-11   5.83317988E-04   6.79334288E-02   6.78734973E-02   1.41239330E-11   9.99999987E-04   9.93832576E-04   7.53725034E-11   8.13077573E-11   1.00034439E-10
   5.25000000E+01   5.00000000E-01   5.00000000E-01   1.07586017E-01   1.06945917E-01   8.42926165E-03   4.99990116E-02   4.99993778E-02   6.80465558E-02   6.76401847E-02   7.76377018E-03   1.39767120E-13   2.63153093E-11   5.84453991E-04   6.79333716E-02   6.78734973E-02   1.43948052E-11   1.00000000E-03   9.93832912E-04   7.53725034E-11   8.13116283E-11   1.00039218E-10
   8.75000000E+01   5.00000000E-01   5.00000000E-01   1.07586017E-01   1.07316539E-01   8.02690531E-03   4.99990117E-02   4.99994899E-02   6.80465558E-02   6.80448115E-02   7.43889444E-03   1.16097925E-13   3.10300747E-11   5.85262105E-04   6.79331654E-02   6.78734973E-02   1.47023138E-11   1.00000000E-03   9.93833159E-04   7.53725034E-11   8.13145961E-11   1.00039925E-10
   1.22500000E+02   5.00000000E-01   5.00000000E-01   1.07586017E-01   1.07699512E-01   7.48752143E-03   4.99990117E-02   4.99995795E-02   6.80465558E-02   6.83386551E-02   7.26657053E-03   1.13536588E-13   3.62196726E-11   5.86093712E-04   6.79330637E-02   6.78734973E-02   1.50520547E-11   1.00000000E-03   9.93833416E-04   7.53725034E-11   8.13165171E-11   1.00039965E-10
   1.57500000E+02   5.00000000E-01   5.00000000E-01   1.07586017E-01   1.08048026E-01   6.97768810E-03   4.99990118E-02   4.99996486E-02   6.80465558E-02   6.85962459E-02   7.12464667E-03   1.17476879E-13   4.26729696E-11   5.87037652E-04   6.79330701E-02   6.78734973E-02   1.54504193E-11   1.00000000E-03   9.93833710E-04   7.53725034E-11   8.13175297E-11   1.00039783E-10
   1.92500000E+02   5.00000000E-01   5.00000000E-01   1.07586017E-01   1.08344352E-01   6.54121825E-03   4.99990119E-02   4.99997006E-02   6.80465558E-02   6.88165777E-02   7.00282976E-03   1.24526249E-13   5.05834917E-11   5.88089382E-04   6.79330318E-02   6.78734973E-02   1.59048400E-11   1.00000000E-03   9.93834037E-04   7.53725034E-11   8.13178513E-11   1.00039426E-10
   2.27500000E+02   5.00000000E-01   5.00000000E-01   1.07586017E-01   1.08586563E-01   6.18415736E-03   4.99990119E-02   4.99997390E-02   6.80465558E-02   6.89956942E-02   6.90376846E-03   1.34003846E-13   6.00072201E-11   5.89231784E-04   6.79329113E-02   6.78734973E-02   1.64240726E-11   9.99999999E-04   9.93834394E-04   7.53725034E-11   8.13176806E-11   1.00038918E-10
   2.62500000E+02   5.00000000E-01   5.00000000E-01   1.07586017E-01   1.08779722E-01   5.89954765E-03   4.99990120E-02   4.99997667E-02   6.80465558E-02   6.91348173E-02   6.82800378E-03   1.46044855E-13   7.09892847E-11   5.90452038E-04   6.79328620E-02   6.78734973E-02   1.70185323E-11   9.99999999E-04   9.93834776E-04   7.53725034E-11   8.13171753E-11   1.00038290E-10
   2.97500000E+02   5.00000000E-01   5.00000000E-01   1.07586017E-01   1.08931264E-01   5.67683777E-03   4.99990121E-02   4.99997863E-02   6.80465558E-02   6.92384284E-02   6.77355147E-03   1.61152397E-13   8.36020533E-11   5.91743731E-04   6.79328761E-02   6.78734973E-02   1.77007158E-11   9.99999999E-04   9.93835181E-04   7.53725034E-11   8.13164537E-11   1.00037574E-10
   3.32500000E+02   5.00000000E-01   5.00000000E-01   1.07586017E-01   1.09048851E-01   5.50495968E-03   4.99990122E-02   4.99997997E-02   6.80465558E-02   6.93121122E-02   6.73738560E-03   1.80122642E-13   9.79563085E-11   5.93105123E-04   6.79328868E-02   6.78734973E-02   1.84857301E-11   9.99999999E-04   9.93835609E-04   7.53725034E-11   8.13156024E-11   1.00036795E-10
   3.67500000E+02   5.00000000E-01   5.00000000E-01   1.07586017E-01   1.09139426E-01   5.37350764E-03   4.99990123E-02   4.99998085E-02   6.80465558E-02   6.93614005E-02   6.71635844E-03   2.04094830E-13   1.14207109E-10   5.94537341E-04   6.79329467E-02   6.78734973E-02   1.93919646E-11   9.99999999E-04   9.93836061E-04   7.53725034E-11   8.13146836E-11   1.00035976E-10
   4.02500000E+02   5.00000000E-01   5.00000000E-01   1.07586017E-01   1.09208821E-01   5.27374962E-03   4.99990124E-02   4.99998137E-02   6.80465558E-02   6.93912867E-02   6.70745164E-03   2.34690293E-13   1.32563037E-10   5.96043767E-04   6.79330609E-02   6.78734973E-02   2.04419676E-11   9.99999999E-04   9.93836538E-04   7.53725034E-11   8.13137407E-11   1.00035134E-10
   4.37500000E+02   5.00000000E-01   5.00000000E-01   1.07586017E-01   1.09261745E-01   5.19852981E-03   4.99990125E-02   4.99998163E-02   6.80465559E-02   6.94060428E-02   6.70799756E-03   2.74230460E-13   1.53292891E-10   5.97629223E-04   6.79332109E-02   6.78734973E-02   2.16635953E-11   9.99999999E-04   9.93837042E-04   7.53725034E-11   8.13128040E-11   1.00034281E-10
   4.72500000E+02   5.00000000E-01   5.00000000E-01   1.07586017E-01   1.09301904E-01   5.14206717E-03   4.99990126E-02   4.99998170E-02   6.80465559E-02   6.94092336E-02   6.71571693E-03   3.26085621E-13   1.76736358E-10   5.99299545E-04   6.79333901E-02   6.78734973E-02   2.30915310E-11   9.99999998E-04   9.93837576E-04   7.53725034E-11   8.13118937E-11   1.00033427E-10
   5.07500000E+02   5.00000000E-01   5.00000000E-01   1.07586017E-01   1.09332149E-01   5.09978945E-03   4.99990128E-02   4.99998162E-02   6.80465559E-02   6.94038020E-02   6.72867182E-03   3.95241523E-13   2.03319994E-10   6.01061483E-04   6.79335926E-02   6.78734973E-02   2.47693164E-11   9.99999998E-04   9.93838142E-04   7.53725034E-11   8.13110232E-11   1.00032579E-10
   5.42500000E+02   5.00000000E-01   5.00000000E-01   1.07586018E-01   1.09354645E-01   5.06811069E-03   4.99990129E-02   4.99998143E-02   6.80465560E-02   6.93921633E-02   6.74522446E-03   4.89228736E-13   2.33577611E-10   6.02922650E-04   6.79338121E-02   6.78734973E-02   2.67520922E-11   9.99999997E-04   9.93838744E-04   7.53725034E-11   8.13102006E-11   1.00031743E-10
   5.77500000E+02   5.00000000E-01   5.00000000E-01   1.07586018E-01   1.09371015E-01   5.04423546E-03   4.99990130E-02   4.99998115E-02   6.80465561E-02   6.93762903E-02   6.76399733E-03   6.19683458E-13   2.68175900E-10   6.04891497E-04   6.79340437E-02   6.78734973E-02   2.91103348E-11   9.99999996E-04   9.93839386E-04   7.53725034E-11   8.13094305E-11   1.00030923E-10
   6.12500000E+02   5.00000000E-01   5.00000000E-01   1.07586018E-01   1.09382465E-01   5.02600139E-03   4.99990132E-02   4.99998082E-02   6.80465562E-02   6.93577829E-02   6.78384132E-03   8.05032688E-13   3.07945186E-10   6.06977260E-04   6.79342843E-02   6.78734973E-02   3.19350041E-11   9.99999995E-04   9.93840071E-04   7.53725034E-11   8.13087151E-11   1.00030121E-10
   6.47500000E+02   5.00000000E-01   5.00000000E-01   1.07586019E-01   1.09389885E-01   5.01175616E-03   4.99990133E-02   4.99998043E-02   6.80465563E-02   6.93379190E-02   6.80381366E-03   1.07523274E-12   3.53914752E-10   6.09189838E-04   6.79345319E-02   6.78734973E-02   3.53447170E-11   9.99999993E-04   9.93840803E-04   7.53725034E-11   8.13080545E-11   1.00029341E-10
   6.82500000E+02   5.00000000E-01   5.00000000E-01   1.07586019E-01   1.09393930E-01   5.00026287E-03   4.99990135E-02   4.99998001E-02   6.80465565E-02   6.93176921E-02   6.82316351E-03   1.48035976E-12   4.07351781E-10   6.11539576E-04   6.79347858E-02   6.78734973E-02   3.94958616E-11   9.99999991E-04   9.93841587E-04   7.53725034E-11   8.13074477E-11   1.00028583E-10
   7.17500000E+02   5.00000000E-01   5.00000000E-01   1.07586021E-01   1.09395087E-01   4.99062724E-03   4.99990136E-02   4.99997956E-02   6.80465567E-02   6.92978394E-02   6.84132165E-03   2.10663013E-12   4.69802373E-10   6.14036938E-04   6.79350460E-02   6.78734973E-02   4.45970364E-11   9.99999987E-04   9.93842428E-04   7.53725034E-11   8.13068929E-11   1.00027848E-10
   7.52500000E+02   5.00000000E-01   5.00000000E-01   1.07586022E-01   1.09393721E-01   4.98224036E-03   4.99990138E-02   4.99997909E-02   6.80465570E-02   6.92788657E-02   6.85789097E-03   3.10717153E-12   5.43132235E-10   6.16692091E-04   6.79353131E-02   6.78734973E-02   5.09299403E-11   9.99999981E-04   9.93843331E-04   7.53725034E-11   8.13063877E-11   1.00027137E-10
   7.87500000E+02   5.00000000E-01   5.00000000E-01   1.07586024E-01   1.09390112E-01   4.97473180E-03   4.99990140E-02   4.99997860E-02   6.80465573E-02   6.92610667E-02   6.87263496E-03   4.76296125E-12   6.29563504E-10   6.19514424E-04   6.79355873E-02   6.78734973E-02   5.88800175E-11   9.99999973E-04   9.93844299E-04   7.53725034E-11   8.13059292E-11   1.00026450E-10
   8.22500000E+02   5.00000000E-01   5.00000000E-01   1.07586028E-01   1.09384487E-01   4.96792865E-03   4.99990142E-02   4.99997809E-02   6.80465578E-02   6.92445548E-02   6.88546256E-03   7.60736975E-12   7.31702678E-10   6.22512038E-04   6.79358672E-02   6.78734973E-02   6.89820830E-11   9.99999962E-04   9.93845338E-04   7.53725034E-11   8.13055145E-11   1.00025785E-10
   8.57500000E+02   5.00000000E-01   5.00000000E-01   1.07586032E-01   1.09377032E-01   4.96181584E-03   4.99990144E-02   4.99997758E-02   6.80465584E-02   6.92292869E-02   6.89640960E-03   1.26890188E-11   8.52552885E-10   6.25691242E-04   6.79361494E-02   6.78734973E-02   8.19893200E-11   9.99999946E-04   9.93846452E-04   7.53725034E-11   8.13051406E-11   1.00025144E-10
   8.92500000E+02   5.00000000E-01   5.00000000E-01   1.07586039E-01   1.09367910E-01   4.95649371E-03   4.99990146E-02   4.99997705E-02   6.80465591E-02   6.92150964E-02   6.90561748E-03   2.21449196E-11   9.95502005E-10   6.29056098E-04   6.79364292E-02   6.78734973E-02   9.89793590E-11   9.99999925E-04   9.93847643E-04   7.53725034E-11   8.13048042E-11   1.00024523E-10
   9.27500000E+02   5.00000000E-01   5.00000000E-01   1.07586050E-01   1.09357270E-01   4.95213330E-03   4.99990148E-02   4.99997651E-02   6.80465600E-02   6.92017260E-02   6.91331048E-03   4.04915816E-11   1.16427702E-09   6.32608052E-04   6.79367051E-02   6.78734973E-02   1.21520247E-10   9.99999895E-04   9.93848916E-04   7.53725034E-11   8.13045024E-11   1.00023923E-10
   9.62500000E+02   5.00000000E-01   5.00000000E-01   1.07586065E-01   1.09345248E-01   4.94893508E-03   4.99990150E-02   4.99997597E-02   6.80465612E-02   6.91888615E-02   6.91977143E-03   7.76291230E-11   1.36285519E-09   6.36345681E-04   6.79369822E-02   6.78734973E-02   1.51934965E-10   9.99999857E-04   9.93850273E-04   7.53725034E-11   8.13042321E-11   1.00023341E-10
   9.97500000E+02   5.00000000E-01   5.00000000E-01   1.07586088E-01   1.09331974E-01   4.94710403E-03   4.99990152E-02   4.99997542E-02   6.80465626E-02   6.91761639E-02   6.92531442E-03   1.56056944E-10   1.59532524E-09   6.40264608E-04   6.79372720E-02   6.78734973E-02   1.93731382E-10   9.99999809E-04   9.93851715E-04   7.53725034E-11   8.13039907E-11   1.00022777E-10
   1.03250000E+03   5.00000000E-01   5.00000000E-01   1.07586121E-01   1.09317567E-01   4.94685477E-03   4.99990155E-02   4.99997486E-02   6.80465645E-02   6.91632984E-02   6.93025274E-03   3.28750985E-10   1.86569704E-09   6.44357638E-04   6.79375792E-02   6.78734973E-02   2.52315787E-10   9.99999749E-04   9.93853243E-04   7.53725034E-11   8.13037753E-11   1.00022229E-10
   1.06750000E+03   5.00000000E-01   5.00000000E-01   1.07586169E-01   1.09302133E-01   4.94841874E-03   4.99990157E-02   4.99997430E-02   6.80465668E-02   6.91499567E-02   6.93487224E-03   7.24789131E-10   2.17765802E-09   6.48615020E-04   6.79378878E-02   6.78734973E-02   3.36203482E-10   9.99999678E-04   9.93854859E-04   7.53725034E-11   8.13035834E-11   1.00021697E-10
   1.10250000E+03   5.00000000E-01   5.00000000E-01   1.07586240E-01   1.09285771E-01   4.95199561E-03   4.99990160E-02   4.99997373E-02   6.80465696E-02   6.91358722E-02   6.93942797E-03   1.66903569E-09   2.53426880E-09   6.53024586E-04   6.79381714E-02   6.78734973E-02   4.59121168E-10   9.99999596E-04   9.93856563E-04   7.53725034E-11   8.13034128E-11   1.00021178E-10
   1.13750000E+03   5.00000000E-01   5.00000000E-01   1.07586342E-01   1.09268582E-01   4.95768002E-03   4.99990163E-02   4.99997316E-02   6.80465731E-02   6.91208285E-02   6.94415284E-03   4.00398670E-09   2.93761082E-09   6.57571796E-04   6.79384235E-02   6.78734973E-02   6.43749450E-10   9.99999505E-04   9.93858355E-04   7.53725034E-11   8.13032612E-11   1.00020672E-10
   1.17250000E+03   5.00000000E-01   5.00000000E-01   1.07586488E-01   1.09250676E-01   4.96543259E-03   4.99990166E-02   4.99997259E-02   6.80465774E-02   6.91046665E-02   6.94925598E-03   9.97442932E-09   3.38842437E-09   6.62239921E-04   6.79386761E-02   6.78734973E-02   9.28561636E-10   9.99999407E-04   9.93860235E-04   7.53725034E-11   8.13031266E-11   1.00020179E-10
   1.20750000E+03   5.00000000E-01   5.00000000E-01   1.07586693E-01   1.09232158E-01   4.97514590E-03   4.99990169E-02   4.99997201E-02   6.80465827E-02   6.90872880E-02   6.95489494E-03   2.57059016E-08   3.88579256E-09   6.67010585E-04   6.79389782E-02   6.78734973E-02   1.38067222E-09   9.99999305E-04   9.93862203E-04   7.53725034E-11   8.13030073E-11   1.00019697E-10
   1.24250000E+03   5.00000000E-01   5.00000000E-01   1.07586973E-01   1.09213123E-01   4.98683064E-03   4.99990172E-02   4.99997143E-02   6.80465892E-02   6.90686567E-02   6.96111020E-03   6.82652523E-08   4.42692485E-09   6.71864807E-04   6.79393145E-02   6.78734973E-02   2.12069701E-09   9.99999203E-04   9.93864258E-04   7.53725034E-11   8.13029015E-11   1.00019226E-10
   1.27750000E+03   5.00000000E-01   5.00000000E-01   1.07587347E-01   1.09193654E-01   5.00064335E-03   4.99990176E-02   4.99997086E-02   6.80465972E-02   6.90487777E-02   6.96779735E-03   1.86025046E-07   5.00685428E-09   6.76782957E-04   6.79395887E-02   6.78734973E-02   3.37237416E-09   9.99999105E-04   9.93866400E-04   7.53725034E-11   8.13028078E-11   1.00018766E-10
   1.31250000E+03   5.00000000E-01   5.00000000E-01   1.07587836E-01   1.09173867E-01   5.01671263E-03   4.99990180E-02   4.99997028E-02   6.80466068E-02   6.90276494E-02   6.97468609E-03   5.17674743E-07   5.61771882E-09   6.81742397E-04   6.79397323E-02   6.78734973E-02   5.56491374E-09   9.99999019E-04   9.93868630E-04   7.53725034E-11   8.13027249E-11   1.00018315E-10
   1.34750000E+03   5.00000000E-01   5.00000000E-01   1.07588461E-01   1.09153950E-01   5.03519565E-03   4.99990183E-02   4.99996970E-02   6.80466185E-02   6.90051759E-02   6.98107900E-03   1.46185660E-06   6.24710435E-09   6.86712748E-04   6.79398094E-02   6.78734973E-02   9.55155022E-09   9.99998953E-04   9.93870944E-04   7.53725034E-11   8.13026515E-11   1.00017874E-10
   1.38250000E+03   5.00000000E-01   5.00000000E-01   1.07589227E-01   1.09134240E-01   5.05667078E-03   4.99990188E-02   4.99996913E-02   6.80466327E-02   6.89809395E-02   6.98504977E-03   4.14613858E-06   6.87323203E-09   6.91643105E-04   6.79401610E-02   6.78734973E-02   1.70935682E-08   9.99998917E-04   9.93873334E-04   7.53725034E-11   8.13025865E-11   1.00017441E-10
   1.41750000E+03   5.00000000E-01   5.00000000E-01   1.07590102E-01   1.09115314E-01   5.08445684E-03   4.99990192E-02   4.99996857E-02   6.80466497E-02   6.89537046E-02   6.98102181E-03   1.15894038E-05   7.45330118E-09   6.96437283E-04   6.79411022E-02   6.78734973E-02   3.19744193E-08   9.99998901E-04   9.93875776E-04   7.53725034E-11   8.13025291E-11   1.00017015E-10
   1.45250000E+03   5.00000000E-01   5.00000000E-01   1.07591037E-01   1.09097937E-01   5.13010620E-03   4.99990197E-02   4.99996803E-02   6.80466699E-02   6.89205316E-02   6.95497853E-03   3.08288756E-05   7.90181826E-09   7.00913650E-04   6.79418053E-02   6.78734973E-02   6.26715721E-08   9.99998873E-04   9.93878209E-04   7.53725034E-11   8.13024785E-11   1.00016589E-10
   1.48750000E+03   5.00000000E-01   5.00000000E-01   1.07592042E-01   1.09083521E-01   5.20943292E-03   4.99990202E-02   4.99996749E-02   6.80466936E-02   6.88761553E-02   6.88556047E-03   7.32688495E-05   8.07588234E-09   7.04745008E-04   6.79419967E-02   6.78734973E-02   1.29042694E-07   9.99998845E-04   9.93880517E-04   7.53725034E-11   8.13024340E-11   1.00016156E-10
   1.52250000E+03   5.00000000E-01   5.00000000E-01   1.07593128E-01   1.09073711E-01   5.32712163E-03   4.99990207E-02   4.99996698E-02   6.80467210E-02   6.88162122E-02   6.76200479E-03   1.46107946E-04   7.86499502E-09   7.07608886E-04   6.79427622E-02   6.78734973E-02   2.79817208E-07   9.99998880E-04   9.93882576E-04   7.53725034E-11   8.13023949E-11   1.00015706E-10
   1.55750000E+03   5.00000000E-01   5.00000000E-01   1.07594247E-01   1.09068691E-01   5.46879385E-03   4.99990212E-02   4.99996649E-02   6.80467523E-02   6.87418947E-02   6.60018702E-03   2.42877758E-04   7.32069732E-09   7.09473627E-04   6.79444941E-02   6.78734973E-02   6.40537977E-07   9.99998937E-04   9.93884360E-04   7.53725034E-11   8.13023607E-11   1.00015241E-10
   1.59250000E+03   5.00000000E-01   5.00000000E-01   1.07595393E-01   1.09066861E-01   5.61844654E-03   4.99990218E-02   4.99996601E-02   6.80467882E-02   6.86584188E-02   6.42448416E-03   3.50867742E-04   6.59930165E-09   7.10560951E-04   6.79456845E-02   6.78734973E-02   1.55150137E-06   9.99998927E-04   9.93885930E-04   7.53725034E-11   8.13023306E-11   1.00014767E-10
   1.62750000E+03   5.00000000E-01   5.00000000E-01   1.07596583E-01   1.09066578E-01   5.76389823E-03   4.99990223E-02   4.99996552E-02   6.80468293E-02   6.85711049E-02   6.25305784E-03   4.59828158E-04   5.83690444E-09   7.11110962E-04   6.79459777E-02   6.78734973E-02   3.98471324E-06   9.99998871E-04   9.93887365E-04   7.53725034E-11   8.13023039E-11   1.00014291E-10
   1.66250000E+03   5.00000000E-01   5.00000000E-01   1.07597783E-01   1.09067049E-01   5.89779328E-03   4.99990229E-02   4.99996504E-02   6.80468767E-02   6.84839198E-02   6.09537340E-03   5.63877757E-04   5.11366232E-09   7.11300766E-04   6.79458559E-02   6.78734973E-02   1.08673841E-05   9.99998735E-04   9.93888733E-04   7.53725034E-11   8.13022802E-11   1.00013820E-10
   1.69750000E+03   5.00000000E-01   5.00000000E-01   1.07598987E-01   1.09067849E-01   6.02034168E-03   4.99990235E-02   4.99996456E-02   6.80469315E-02   6.83992539E-02   5.95192759E-03   6.61401512E-04   4.46393137E-09   7.11248361E-04   6.79455348E-02   6.78734973E-02   3.14690539E-05   9.99998554E-04   9.93890079E-04   7.53725034E-11   8.13022590E-11   1.00013360E-10
   1.73250000E+03   5.00000000E-01   5.00000000E-01   1.07600245E-01   1.09068727E-01   6.13429475E-03   4.99990242E-02   4.99996409E-02   6.80469946E-02   6.83183059E-02   5.81987228E-03   7.52746524E-04   3.89522060E-09   7.11023835E-04   6.79451644E-02   6.78734973E-02   9.62492186E-05   9.99998526E-04   9.93891425E-04   7.53725034E-11   8.13022401E-11   1.00012911E-10
   1.76750000E+03   5.00000000E-01   5.00000000E-01   1.07601551E-01   1.09070073E-01   6.23913125E-03   4.99990248E-02   4.99996363E-02   6.80470674E-02   6.82417610E-02   5.69814278E-03   8.38101213E-04   3.40402987E-09   7.10667118E-04   6.79448930E-02   6.78734973E-02   3.04083213E-04   9.99998667E-04   9.93892769E-04   7.53725034E-11   8.13022233E-11   1.00012475E-10
   1.80250000E+03   5.00000000E-01   5.00000000E-01   1.07602862E-01   1.09072788E-01   6.33267704E-03   4.99990254E-02   4.99996320E-02   6.80471505E-02   6.81701795E-02   5.58563502E-03   9.17954310E-04   2.98353797E-09   7.10209728E-04   6.79448157E-02   6.78734973E-02   9.23987847E-04   9.99998815E-04   9.93894065E-04   7.53725034E-11   8.13022082E-11   1.00012052E-10
   1.83750000E+03   5.00000000E-01   5.00000000E-01   1.07604115E-01   1.09077815E-01   6.41287123E-03   4.99990261E-02   4.99996280E-02   6.80472436E-02   6.81040770E-02   5.47964818E-03   9.93580174E-04   2.62595132E-09   7.09681485E-04   6.79452106E-02   6.78734973E-02   2.32830322E-03   9.99998880E-04   9.93895200E-04   7.53725034E-11   8.13021947E-11   1.00011645E-10
   1.87250000E+03   5.00000000E-01   5.00000000E-01   1.07605244E-01   1.09085413E-01   6.48094943E-03   4.99990268E-02   4.99996244E-02   6.80473460E-02   6.80437121E-02   5.37687111E-03   1.06627384E-03   2.32266694E-09   7.09105225E-04   6.79462457E-02   6.78734973E-02   4.30292040E-03   9.99998898E-04   9.93896072E-04   7.53725034E-11   8.13021827E-11   1.00011253E-10
   1.90750000E+03   5.00000000E-01   5.00000000E-01   1.07606266E-01   1.09094982E-01   6.54383332E-03   4.99990275E-02   4.99996211E-02   6.80474581E-02   6.79888380E-02   5.27427225E-03   1.13674751E-03   2.06441200E-09   7.08493608E-04   6.79472655E-02   6.78734973E-02   6.01324300E-03   9.99998925E-04   9.93896705E-04   7.53725034E-11   8.13021719E-11   1.00010876E-10
   1.94250000E+03   5.00000000E-01   5.00000000E-01   1.07607242E-01   1.09105819E-01   6.60640670E-03   4.99990282E-02   4.99996181E-02   6.80475817E-02   6.79389755E-02   5.17166553E-03   1.20471762E-03   1.84281633E-09   7.07849515E-04   6.79476049E-02   6.78734973E-02   7.01888713E-03   9.99998952E-04   9.93897198E-04   7.53725034E-11   8.13021622E-11   1.00010512E-10
   1.97750000E+03   5.00000000E-01   5.00000000E-01   1.07608203E-01   1.09117675E-01   6.66801302E-03   4.99990289E-02   4.99996152E-02   6.80477197E-02   6.78938099E-02   5.07116847E-03   1.26939905E-03   1.65154935E-09   7.07172150E-04   6.79473379E-02   6.78734973E-02   7.39791032E-03   9.99998989E-04   9.93897654E-04   7.53725034E-11   8.13021536E-11   1.00010158E-10
   2.01250000E+03   5.00000000E-01   5.00000000E-01   1.07609156E-01   1.09130992E-01   6.72556046E-03   4.99990296E-02   4.99996126E-02   6.80478748E-02   6.78532961E-02   4.97425382E-03   1.33048445E-03   1.48609202E-09   7.06463785E-04   6.79467536E-02   6.78734973E-02   7.41354256E-03   9.99999035E-04   9.93898138E-04   7.53725034E-11   8.13021458E-11   1.00009815E-10
   2.04750000E+03   5.00000000E-01   5.00000000E-01   1.07610101E-01   1.09146592E-01   6.77641365E-03   4.99990304E-02   4.99996102E-02   6.80480497E-02   6.78175239E-02   4.88086632E-03   1.38827746E-03   1.34292678E-09   7.05730219E-04   6.79460436E-02   6.78734973E-02   7.27114250E-03   9.99999065E-04   9.93898678E-04   7.53725034E-11   8.13021388E-11   1.00009483E-10
   2.08250000E+03   5.00000000E-01   5.00000000E-01   1.07611036E-01   1.09165265E-01   6.81972138E-03   4.99990311E-02   4.99996083E-02   6.80482472E-02   6.77865629E-02   4.78969298E-03   1.44347556E-03   1.21898175E-09   7.04978857E-04   6.79453024E-02   6.78734973E-02   7.05253149E-03   9.99999069E-04   9.93899290E-04   7.53725034E-11   8.13021325E-11   1.00009161E-10
   2.11750000E+03   5.00000000E-01   5.00000000E-01   1.07611959E-01   1.09187681E-01   6.85546760E-03   4.99990318E-02   4.99996067E-02   6.80484708E-02   6.77604334E-02   4.69926804E-03   1.49677045E-03   1.11151898E-09   7.04216755E-04   6.79445742E-02   6.78734973E-02   6.77370912E-03   9.99999050E-04   9.93899987E-04   7.53725034E-11   8.13021268E-11   1.00008850E-10
   2.15250000E+03   5.00000000E-01   5.00000000E-01   1.07612868E-01   1.09214416E-01   6.88367881E-03   4.99990326E-02   4.99996057E-02   6.80487240E-02   6.77391530E-02   4.60819221E-03   1.54881674E-03   1.01820110E-09   7.03451435E-04   6.79438812E-02   6.78734973E-02   6.45688031E-03   9.99999010E-04   9.93900779E-04   7.53725034E-11   8.13021218E-11   1.00008548E-10
   2.18750000E+03   5.00000000E-01   5.00000000E-01   1.07613762E-01   1.09245925E-01   6.90429540E-03   4.99990334E-02   4.99996052E-02   6.80490108E-02   6.77227564E-02   4.51505572E-03   1.60027517E-03   9.37072409E-10   7.02691356E-04   6.79432351E-02   6.78734973E-02   6.14597812E-03   9.99998951E-04   9.93901660E-04   7.53725034E-11   8.13021172E-11   1.00008257E-10
   2.22250000E+03   5.00000000E-01   5.00000000E-01   1.07614642E-01   1.09282496E-01   6.91732311E-03   4.99990343E-02   4.99996052E-02   6.80493349E-02   6.77112570E-02   4.41883507E-03   1.65162322E-03   8.66441316E-10   7.01943628E-04   6.79426420E-02   6.78734973E-02   5.86044094E-03   9.99998874E-04   9.93902616E-04   7.53725034E-11   8.13021132E-11   1.00007975E-10
   2.25750000E+03   5.00000000E-01   5.00000000E-01   1.07615513E-01   1.09324283E-01   6.92304110E-03   4.99990352E-02   4.99996057E-02   6.80497005E-02   6.77046160E-02   4.31875577E-03   1.70321337E-03   8.04802447E-10   7.01211756E-04   6.79421036E-02   6.78734973E-02   5.59676205E-03   9.99998778E-04   9.93903632E-04   7.53725034E-11   8.13021095E-11   1.00007702E-10
   2.29250000E+03   5.00000000E-01   5.00000000E-01   1.07616378E-01   1.09371339E-01   6.92171483E-03   4.99990361E-02   4.99996068E-02   6.80501130E-02   6.77026941E-02   4.21494555E-03   1.75501971E-03   7.50737938E-10   7.00492139E-04   6.79416187E-02   6.78734973E-02   5.31906413E-03   9.99998664E-04   9.93904712E-04   7.53725034E-11   8.13021062E-11   1.00007439E-10
   2.32750000E+03   5.00000000E-01   5.00000000E-01   1.07617244E-01   1.09423617E-01   6.91325876E-03   4.99990370E-02   4.99996083E-02   6.80505805E-02   6.77053302E-02   4.10835912E-03   1.80666964E-03   7.03025743E-10   6.99779557E-04   6.79411837E-02   6.78734973E-02   4.99902551E-03   9.99998532E-04   9.93905896E-04   7.53725034E-11   8.13021032E-11   1.00007183E-10
   2.36250000E+03   5.00000000E-01   5.00000000E-01   1.07618117E-01   1.09480879E-01   6.89749327E-03   4.99990380E-02   4.99996102E-02   6.80511128E-02   6.77124743E-02   3.99960877E-03   1.85790170E-03   6.60790086E-10   6.99076678E-04   6.79407935E-02   6.78734973E-02   4.66081574E-03   9.99998382E-04   9.93907223E-04   7.53725034E-11   8.13021005E-11   1.00006936E-10
   2.39750000E+03   5.00000000E-01   5.00000000E-01   1.07619004E-01   1.09542613E-01   6.87454733E-03   4.99990390E-02   4.99996126E-02   6.80517199E-02   6.77241470E-02   3.88899255E-03   1.90852594E-03   6.23385963E-10   6.98391497E-04   6.79404419E-02   6.78734973E-02   4.34218876E-03   9.99998213E-04   9.93908709E-04   7.53725034E-11   8.13020980E-11   1.00006697E-10
   2.43250000E+03   5.00000000E-01   5.00000000E-01   1.07619913E-01   1.09608079E-01   6.84496428E-03   4.99990400E-02   4.99996153E-02   6.80524125E-02   6.77403030E-02   3.77719277E-03   1.95815184E-03   5.90194558E-10   6.97727546E-04   6.79401224E-02   6.78734973E-02   4.05296790E-03   9.99998022E-04   9.93910354E-04   7.53725034E-11   8.13020958E-11   1.00006465E-10
   2.46750000E+03   5.00000000E-01   5.00000000E-01   1.07620850E-01   1.09676442E-01   6.80955816E-03   4.99990411E-02   4.99996182E-02   6.80532032E-02   6.77607526E-02   3.66545959E-03   2.00616251E-03   5.60531635E-10   6.97077502E-04   6.79398284E-02   6.78734973E-02   3.77650879E-03   9.99997809E-04   9.93912165E-04   7.53725034E-11   8.13020938E-11   1.00006242E-10
   2.50250000E+03   5.00000000E-01   5.00000000E-01   1.07621823E-01   1.09746798E-01   6.76902082E-03   4.99990422E-02   4.99996213E-02   6.80541081E-02   6.77852498E-02   3.55531004E-03   2.05185694E-03   5.33759239E-10   6.96429666E-04   6.79395539E-02   6.78734973E-02   3.50484027E-03   9.99997571E-04   9.93914166E-04   7.53725034E-11   8.13020919E-11   1.00006025E-10
   2.53750000E+03   5.00000000E-01   5.00000000E-01   1.07622840E-01   1.09818100E-01   6.72366398E-03   4.99990434E-02   4.99996245E-02   6.80551451E-02   6.78136400E-02   3.44838517E-03   2.09446532E-03   5.09432266E-10   6.95779746E-04   6.79392933E-02   6.78734973E-02   3.25207115E-03   9.99997304E-04   9.93916376E-04   7.53725034E-11   8.13020902E-11   1.00005815E-10
   2.57250000E+03   5.00000000E-01   5.00000000E-01   1.07623909E-01   1.09889188E-01   6.67361177E-03   4.99990446E-02   4.99996277E-02   6.80563322E-02   6.78458831E-02   3.34647499E-03   2.13310150E-03   4.87279881E-10   6.95132298E-04   6.79390420E-02   6.78734973E-02   3.03458756E-03   9.99997005E-04   9.93918789E-04   7.53725034E-11   8.13020886E-11   1.00005612E-10
   2.60750000E+03   5.00000000E-01   5.00000000E-01   1.07625038E-01   1.09958940E-01   6.61908780E-03   4.99990458E-02   4.99996307E-02   6.80576869E-02   6.78819770E-02   3.25139799E-03   2.16683212E-03   4.67090512E-10   6.94493406E-04   6.79387963E-02   6.78734973E-02   2.85540193E-03   9.99996671E-04   9.93921377E-04   7.53725034E-11   8.13020871E-11   1.00005416E-10
   2.64250000E+03   5.00000000E-01   5.00000000E-01   1.07626238E-01   1.10026443E-01   6.56049940E-03   4.99990471E-02   4.99996337E-02   6.80592279E-02   6.79218880E-02   3.16473589E-03   2.19483611E-03   4.48630889E-10   6.93864039E-04   6.79385537E-02   6.78734973E-02   2.70491812E-03   9.99996299E-04   9.93924108E-04   7.53725034E-11   8.13020858E-11   1.00005227E-10
   2.67750000E+03   5.00000000E-01   5.00000000E-01   1.07627518E-01   1.10091072E-01   6.49837813E-03   4.99990484E-02   4.99996364E-02   6.80609765E-02   6.79655256E-02   3.08756985E-03   2.21655312E-03   4.31631088E-10   6.93238008E-04   6.79383134E-02   6.78734973E-02   2.57018600E-03   9.99995887E-04   9.93926961E-04   7.53725034E-11   8.13020846E-11   1.00005044E-10
   2.71250000E+03   5.00000000E-01   5.00000000E-01   1.07628891E-01   1.10152440E-01   6.43323678E-03   4.99990498E-02   4.99996390E-02   6.80629579E-02   6.80127643E-02   3.02043180E-03   2.23171025E-03   4.15818327E-10   6.92604593E-04   6.79380759E-02   6.78734973E-02   2.44390349E-03   9.99995435E-04   9.93929927E-04   7.53725034E-11   8.13020834E-11   1.00004868E-10