 TITLE = "Mineral Volumes" 
VARIABLES = "X"          "Y"              "Z"            "Forsterite"     "Enstatite(alph" "Anorthite"      "Ferropargasite" "Anhydrite"      "Clinochlore"    "Albite(low)"    "Fayalite"       "Epidote"        "Kaolinite"      "Muscovite(orde"
 ZONE I=          10 , J=           1 , K=           1  F=POINT
   1.75000000E+02   5.00000000E-01   5.00000000E-01   2.79903361E-01   2.09997181E-01   6.77953739E-04   6.99382294E-02   1.99927931E-01   2.50679252E-04   1.29872785E-01   2.80203436E-02   9.99975638E-10   0.00000000E+00   0.00000000E+00
   5.25000000E+02   5.00000000E-01   5.00000000E-01   2.79903365E-01   2.09996236E-01   6.77953739E-04   6.99382294E-02   1.99966944E-01   2.53428603E-04   1.29870183E-01   2.80202506E-02   9.99886986E-10   0.00000000E+00   0.00000000E+00
   8.75000000E+02   5.00000000E-01   5.00000000E-01   2.79903388E-01   2.09995575E-01   6.77953739E-04   6.99382294E-02   1.99995473E-01   2.56845185E-04   1.29866949E-01   2.80200662E-02   9.99698216E-10   0.00000000E+00   0.00000000E+00
   1.22500000E+03   5.00000000E-01   5.00000000E-01   2.79903518E-01   2.09995127E-01   6.77953739E-04   6.99382294E-02   2.00016408E-01   2.60549328E-04   1.29863444E-01   2.80197453E-02   9.99353831E-10   0.00000000E+00   0.00000000E+00
   1.57500000E+03   5.00000000E-01   5.00000000E-01   2.79903797E-01   2.09994818E-01   6.77953739E-04   6.99382294E-02   2.00031237E-01   2.63682123E-04   1.29860479E-01   2.80191597E-02   9.98717490E-10   0.00000000E+00   0.00000000E+00
   1.92500000E+03   5.00000000E-01   5.00000000E-01   2.79904257E-01   2.09994616E-01   6.77953739E-04   6.99382294E-02   2.00041504E-01   2.66377532E-04   1.29857928E-01   2.80180659E-02   9.97572440E-10   0.00000000E+00   0.00000000E+00
   2.27500000E+03   5.00000000E-01   5.00000000E-01   2.79904811E-01   2.09994517E-01   6.77953739E-04   6.99382294E-02   2.00048403E-01   2.70058018E-04   1.29854444E-01   2.80161082E-02   9.95661237E-10   0.00000000E+00   0.00000000E+00
   2.62500000E+03   5.00000000E-01   5.00000000E-01   2.79905306E-01   2.09994518E-01   6.77953739E-04   6.99382294E-02   2.00052811E-01   2.76194290E-04   1.29848637E-01   2.80129901E-02   9.93047154E-10   0.00000000E+00   0.00000000E+00
   2.97500000E+03   5.00000000E-01   5.00000000E-01   2.79905635E-01   2.09994615E-01   6.77953739E-04   6.99382294E-02   2.00055382E-01   2.85002810E-04   1.29840300E-01   2.80088474E-02   9.90670893E-10   0.00000000E+00   0.00000000E+00
   3.32500000E+03   5.00000000E-01   5.00000000E-01   2.79905860E-01   2.09994797E-01   6.77953739E-04   6.99382294E-02   2.00056609E-01   2.94738439E-04   1.29831086E-01   2.80044420E-02   9.90382013E-10   0.00000000E+00   0.00000000E+00
