 TITLE = "Mineral Volumes" 
VARIABLES = "X"          "Y"              "Z"            "Forsterite"     "Fayalite"       "Saponite(Mg)"   "Enstatite(alph" "Ferrosilite(al" "Anorthite"      "Albite(low)"    "Clinochlore"    "Sudoite"        "Montmorillonit" "Kaolinite"      "Tremolite"      "Pargasite"      "Anhydrite"      "Epidote"        "Scolecite"      "Pyrite"         "FeS(am)"        "Quartz(alpha)" 
 ZONE I=         100 , J=           1 , K=           1  F=POINT
   1.75000000E+01   5.00000000E-01   5.00000000E-01   1.09512858E-01   1.09326017E-01   1.64525450E-03   4.99998023E-02   4.99998504E-02   6.96048234E-02   6.93476126E-02   1.81077172E-03   6.21521278E-11   7.28038854E-11   8.97567027E-04   6.95825749E-02   6.95693732E-02   6.73512227E-11   9.99999998E-04   9.98763430E-04   9.44952262E-11   9.59420403E-11   1.00007127E-10
   5.25000000E+01   5.00000000E-01   5.00000000E-01   1.09512858E-01   1.09383874E-01   1.67100327E-03   4.99998023E-02   4.99998766E-02   6.96048234E-02   6.95447348E-02   1.59497175E-03   3.25736613E-11   7.68487848E-11   8.97908583E-04   6.95825164E-02   6.95693732E-02   6.76084656E-11   1.00000000E-03   9.98763498E-04   9.44952262E-11   9.59429485E-11   1.00008021E-10
   8.75000000E+01   5.00000000E-01   5.00000000E-01   1.09512858E-01   1.09456002E-01   1.59323070E-03   4.99998024E-02   4.99998977E-02   6.96048234E-02   6.96220466E-02   1.53295732E-03   2.63291277E-11   7.93918510E-11   8.98144144E-04   6.95823051E-02   6.95693732E-02   6.78930670E-11   1.00000000E-03   9.98763546E-04   9.44952262E-11   9.59436177E-11   1.00008110E-10
   1.22500000E+02   5.00000000E-01   5.00000000E-01   1.09512858E-01   1.09526737E-01   1.49385322E-03   4.99998024E-02   4.99999139E-02   6.96048234E-02   6.96746171E-02   1.50268240E-03   2.49374526E-11   8.17748034E-11   8.98382947E-04   6.95822010E-02   6.95693732E-02   6.82079646E-11   1.00000000E-03   9.98763595E-04   9.44952262E-11   9.59440240E-11   1.00008067E-10
   1.57500000E+02   5.00000000E-01   5.00000000E-01   1.09512858E-01   1.09587940E-01   1.40434338E-03   4.99998024E-02   4.99999257E-02   6.96048234E-02   6.97177711E-02   1.47974132E-03   2.47777160E-11   8.42890259E-11   8.98648053E-04   6.95822076E-02   6.95693732E-02   6.85561823E-11   1.00000000E-03   9.98763649E-04   9.44952262E-11   9.59442110E-11   1.00007979E-10
   1.92500000E+02   5.00000000E-01   5.00000000E-01   1.09512858E-01   1.09637433E-01   1.33152860E-03   4.99998024E-02   4.99999342E-02   6.96048234E-02   6.97521395E-02   1.46170081E-03   2.49850616E-11   8.68911274E-11   8.98937313E-04   6.95821683E-02   6.95693732E-02   6.89409278E-11   1.00000000E-03   9.98763708E-04   9.44952262E-11   9.59442366E-11   1.00007859E-10
   2.27500000E+02   5.00000000E-01   5.00000000E-01   1.09512858E-01   1.09675871E-01   1.27506006E-03   4.99998024E-02   4.99999400E-02   6.96048234E-02   6.97777800E-02   1.44860081E-03   2.53339897E-11   8.95079293E-11   8.99245832E-04   6.95820449E-02   6.95693732E-02   6.93656539E-11   1.00000000E-03   9.98763770E-04   9.44952262E-11   9.59441515E-11   1.00007712E-10
   2.62500000E+02   5.00000000E-01   5.00000000E-01   1.09512858E-01   1.09704939E-01   1.23231591E-03   4.99998024E-02   4.99999439E-02   6.96048234E-02   6.97955447E-02   1.44022882E-03   2.57653339E-11   9.20907527E-11   8.99569971E-04   6.95819943E-02   6.95693732E-02   6.98340975E-11   1.00000000E-03   9.98763835E-04   9.44952262E-11   9.59439946E-11   1.00007545E-10
   2.97500000E+02   5.00000000E-01   5.00000000E-01   1.09512858E-01   1.09726453E-01   1.20078339E-03   4.99998025E-02   4.99999464E-02   6.96048234E-02   6.98066980E-02   1.43590386E-03   2.62666698E-11   9.46178894E-11   8.99908302E-04   6.95820088E-02   6.95693732E-02   7.03503457E-11   1.00000000E-03   9.98763902E-04   9.44952262E-11   9.59437942E-11   1.00007366E-10
   3.32500000E+02   5.00000000E-01   5.00000000E-01   1.09512858E-01   1.09742062E-01   1.17817539E-03   4.99998025E-02   4.99999478E-02   6.96048234E-02   6.98125059E-02   1.43488184E-03   2.68396069E-11   9.70830948E-11   9.00260625E-04   6.95820198E-02   6.95693732E-02   7.09188942E-11   9.99999999E-04   9.98763971E-04   9.44952262E-11   9.59435707E-11   1.00007178E-10
   3.67500000E+02   5.00000000E-01   5.00000000E-01   1.09512858E-01   1.09753167E-01   1.16228985E-03   4.99998025E-02   4.99999485E-02   6.96048234E-02   6.98140916E-02   1.43654718E-03   2.74902568E-11   9.94878320E-11   9.00627070E-04   6.95820812E-02   6.95693732E-02   7.15446897E-11   9.99999999E-04   9.98764042E-04   9.44952262E-11   9.59433381E-11   1.00006986E-10
   4.02500000E+02   5.00000000E-01   5.00000000E-01   1.09512858E-01   1.09760867E-01   1.15149880E-03   4.99998025E-02   4.99999486E-02   6.96048234E-02   6.98124174E-02   1.44030355E-03   2.82278774E-11   1.01839710E-10   9.01008420E-04   6.95821981E-02   6.95693732E-02   7.22331943E-11   9.99999999E-04   9.98764115E-04   9.44952262E-11   9.59431059E-11   1.00006792E-10
   4.37500000E+02   5.00000000E-01   5.00000000E-01   1.09512858E-01   1.09766002E-01   1.14454644E-03   4.99998025E-02   4.99999483E-02   6.96048234E-02   6.98082664E-02   1.44564718E-03   2.90641113E-11   1.04148683E-10   9.01405740E-04   6.95823517E-02   6.95693732E-02   7.29904575E-11   9.99999999E-04   9.98764191E-04   9.44952262E-11   9.59428804E-11   1.00006597E-10
   4.72500000E+02   5.00000000E-01   5.00000000E-01   1.09512858E-01   1.09769214E-01   1.14042701E-03   4.99998026E-02   4.99999477E-02   6.96048234E-02   6.98022686E-02   1.45217074E-03   3.00128867E-11   1.06425730E-10   9.01820208E-04   6.95825353E-02   6.95693732E-02   7.38231937E-11   9.99999999E-04   9.98764269E-04   9.44952262E-11   9.59426658E-11   1.00006404E-10
   5.07500000E+02   5.00000000E-01   5.00000000E-01   1.09512859E-01   1.09770976E-01   1.13837061E-03   4.99998026E-02   4.99999469E-02   6.96048234E-02   6.97949345E-02   1.45953158E-03   3.10909218E-11   1.08682840E-10   9.02253178E-04   6.95827427E-02   6.95693732E-02   7.47388731E-11   9.99999998E-04   9.98764350E-04   9.44952262E-11   9.59424644E-11   1.00006214E-10
   5.42500000E+02   5.00000000E-01   5.00000000E-01   1.09512859E-01   1.09771636E-01   1.13778752E-03   4.99998026E-02   4.99999460E-02   6.96048234E-02   6.97866791E-02   1.46744113E-03   3.23182680E-11   1.10932779E-10   9.02706175E-04   6.95829675E-02   6.95693732E-02   7.57458274E-11   9.99999998E-04   9.98764434E-04   9.44952262E-11   9.59422774E-11   1.00006027E-10
   5.77500000E+02   5.00000000E-01   5.00000000E-01   1.09512859E-01   1.09771445E-01   1.13822394E-03   4.99998027E-02   4.99999449E-02   6.96048234E-02   6.97778400E-02   1.47565668E-03   3.37189862E-11   1.13188895E-10   9.03180899E-04   6.95832048E-02   6.95693732E-02   7.68533715E-11   9.99999997E-04   9.98764522E-04   9.44952262E-11   9.59421053E-11   1.00005844E-10
   6.12500000E+02   5.00000000E-01   5.00000000E-01   1.09512859E-01   1.09770580E-01   1.13933135E-03   4.99998027E-02   4.99999437E-02   6.96048234E-02   6.97686909E-02   1.48397541E-03   3.53219633E-11   1.15464829E-10   9.03679207E-04   6.95834512E-02   6.95693732E-02   7.80719462E-11   9.99999995E-04   9.98764613E-04   9.44952262E-11   9.59419482E-11   1.00005666E-10
   6.47500000E+02   5.00000000E-01   5.00000000E-01   1.09512860E-01   1.09769169E-01   1.14084470E-03   4.99998027E-02   4.99999425E-02   6.96048235E-02   6.97594503E-02   1.49223113E-03   3.71618612E-11   1.17774065E-10   9.04203071E-04   6.95837049E-02   6.95693732E-02   7.94132838E-11   9.99999994E-04   9.98764708E-04   9.44952262E-11   9.59418055E-11   1.00005492E-10
   6.82500000E+02   5.00000000E-01   5.00000000E-01   1.09512860E-01   1.09767298E-01   1.14256688E-03   4.99998028E-02   4.99999412E-02   6.96048235E-02   6.97502867E-02   1.50029263E-03   3.92802005E-11   1.20129338E-10   9.04754514E-04   6.95839649E-02   6.95693732E-02   8.08906024E-11   9.99999991E-04   9.98764808E-04   9.44952262E-11   9.59416765E-11   1.00005324E-10
   7.17500000E+02   5.00000000E-01   5.00000000E-01   1.09512862E-01   1.09765026E-01   1.14435772E-03   4.99998028E-02   4.99999399E-02   6.96048235E-02   6.97413227E-02   1.50806246E-03   4.17265809E-11   1.22541936E-10   9.05335508E-04   6.95842314E-02   6.95693732E-02   8.25188345E-11   9.99999987E-04   9.98764912E-04   9.44952262E-11   9.59415606E-11   1.00005160E-10
   7.52500000E+02   5.00000000E-01   5.00000000E-01   1.09512863E-01   1.09762391E-01   1.14612621E-03   4.99998029E-02   4.99999386E-02   6.96048236E-02   6.97326388E-02   1.51547530E-03   4.45600397E-11   1.25020943E-10   9.05947875E-04   6.95845050E-02   6.95693732E-02   8.43148956E-11   9.99999981E-04   9.98765021E-04   9.44952262E-11   9.59414568E-11   1.00005003E-10
   7.87500000E+02   5.00000000E-01   5.00000000E-01   1.09512865E-01   1.09759421E-01   1.14782494E-03   4.99998029E-02   4.99999372E-02   6.96048236E-02   6.97242774E-02   1.52249534E-03   4.78505446E-11   1.27572475E-10   9.06593158E-04   6.95847859E-02   6.95693732E-02   8.62980026E-11   9.99999974E-04   9.98765135E-04   9.44952262E-11   9.59413641E-11   1.00004851E-10
   8.22500000E+02   5.00000000E-01   5.00000000E-01   1.09512868E-01   1.09756132E-01   1.14944566E-03   4.99998030E-02   4.99999358E-02   6.96048237E-02   6.97162478E-02   1.52911261E-03   5.16806065E-11   1.30198965E-10   9.07272507E-04   6.95850726E-02   6.95693732E-02   8.84900514E-11   9.99999962E-04   9.98765255E-04   9.44952262E-11   9.59412816E-11   1.00004704E-10
   8.57500000E+02   5.00000000E-01   5.00000000E-01   1.09512873E-01   1.09752536E-01   1.15101313E-03   4.99998030E-02   4.99999343E-02   6.96048238E-02   6.97085310E-02   1.53533911E-03   5.61469503E-11   1.32898556E-10   9.07986562E-04   6.95853616E-02   6.95693732E-02   9.09160658E-11   9.99999946E-04   9.98765381E-04   9.44952262E-11   9.59412085E-11   1.00004563E-10
   8.92500000E+02   5.00000000E-01   5.00000000E-01   1.09512880E-01   1.09748642E-01   1.15257445E-03   4.99998031E-02   4.99999329E-02   6.96048238E-02   6.97010865E-02   1.54120558E-03   6.13621104E-11   1.35664635E-10   9.08735342E-04   6.95856482E-02   6.95693732E-02   9.36047333E-11   9.99999925E-04   9.98765512E-04   9.44952262E-11   9.59411437E-11   1.00004427E-10
   9.27500000E+02   5.00000000E-01   5.00000000E-01   1.09512891E-01   1.09744461E-01   1.15418379E-03   4.99998032E-02   4.99999314E-02   6.96048240E-02   6.96938578E-02   1.54675905E-03   6.74557601E-11   1.38485596E-10   9.09518151E-04   6.95859308E-02   6.95693732E-02   9.65890437E-11   9.99999895E-04   9.98765649E-04   9.44952262E-11   9.59410866E-11   1.00004295E-10
   9.62500000E+02   5.00000000E-01   5.00000000E-01   1.09512906E-01   1.09740001E-01   1.15588805E-03   4.99998032E-02   4.99999299E-02   6.96048241E-02   6.96867791E-02   1.55206012E-03   7.45756300E-11   1.41344905E-10   9.10333505E-04   6.95862146E-02   6.95693732E-02   9.99070510E-11   9.99999857E-04   9.98765790E-04   9.44952262E-11   9.59410363E-11   1.00004169E-10
   9.97500000E+02   5.00000000E-01   5.00000000E-01   1.09512929E-01   1.09735277E-01   1.15772510E-03   4.99998033E-02   4.99999283E-02   6.96048243E-02   6.96797811E-02   1.55717686E-03   8.28881925E-11   1.44221590E-10   9.11179141E-04   6.95865114E-02   6.95693732E-02   1.03602789E-10   9.99999809E-04   9.98765937E-04   9.44952262E-11   9.59409921E-11   1.00004047E-10
   1.03250000E+03   5.00000000E-01   5.00000000E-01   1.09512963E-01   1.09730297E-01   1.15974781E-03   4.99998034E-02   4.99999268E-02   6.96048245E-02   6.96727972E-02   1.56217222E-03   9.25799435E-11   1.47091246E-10   9.12052158E-04   6.95868261E-02   6.95693732E-02   1.07727384E-10   9.99999749E-04   9.98766089E-04   9.44952262E-11   9.59409532E-11   1.00003930E-10
   1.06750000E+03   5.00000000E-01   5.00000000E-01   1.09513012E-01   1.09725067E-01   1.16204624E-03   4.99998035E-02   4.99999253E-02   6.96048248E-02   6.96657670E-02   1.56709366E-03   1.03859077E-10   1.49927156E-10   9.12949194E-04   6.95871422E-02   6.95693732E-02   1.12340415E-10   9.99999678E-04   9.98766244E-04   9.44952262E-11   9.59409192E-11   1.00003816E-10
   1.10250000E+03   5.00000000E-01   5.00000000E-01   1.09513084E-01   1.09719593E-01   1.16471095E-03   4.99998036E-02   4.99999237E-02   6.96048251E-02   6.96586378E-02   1.57198170E-03   1.16954012E-10   1.52700756E-10   9.13866391E-04   6.95874327E-02   6.95693732E-02   1.17511571E-10   9.99999596E-04   9.98766403E-04   9.44952262E-11   9.59408894E-11   1.00003706E-10
   1.13750000E+03   5.00000000E-01   5.00000000E-01   1.09513187E-01   1.09713885E-01   1.16776660E-03   4.99998037E-02   4.99999221E-02   6.96048255E-02   6.96513646E-02   1.57688704E-03   1.32106686E-10   1.55381895E-10   9.14799231E-04   6.95876909E-02   6.95693732E-02   1.23322638E-10   9.99999505E-04   9.98766565E-04   9.44952262E-11   9.59408634E-11   1.00003599E-10
   1.17250000E+03   5.00000000E-01   5.00000000E-01   1.09513336E-01   1.09707963E-01   1.17114402E-03   4.99998038E-02   4.99999205E-02   6.96048260E-02   6.96439120E-02   1.58187591E-03   1.49562710E-10   1.57939792E-10   9.15742492E-04   6.95879497E-02   6.95693732E-02   1.29869896E-10   9.99999407E-04   9.98766730E-04   9.44952262E-11   9.59408407E-11   1.00003496E-10
   1.20750000E+03   5.00000000E-01   5.00000000E-01   1.09513544E-01   1.09701846E-01   1.17474104E-03   4.99998039E-02   4.99999189E-02   6.96048266E-02   6.96362585E-02   1.58700960E-03   1.69565885E-10   1.60345239E-10   9.16690643E-04   6.95882591E-02   6.95693732E-02   1.37267068E-10   9.99999305E-04   9.98766896E-04   9.44952262E-11   9.59408208E-11   1.00003396E-10
   1.24250000E+03   5.00000000E-01   5.00000000E-01   1.09513829E-01   1.09695538E-01   1.17859504E-03   4.99998040E-02   4.99999173E-02   6.96048273E-02   6.96283998E-02   1.59229303E-03   1.92372185E-10   1.62574122E-10   9.17638835E-04   6.95886035E-02   6.95693732E-02   1.45649072E-10   9.99999203E-04   9.98767064E-04   9.44952262E-11   9.59408035E-11   1.00003299E-10
   1.27750000E+03   5.00000000E-01   5.00000000E-01   1.09514209E-01   1.09689026E-01   1.18288435E-03   4.99998041E-02   4.99999157E-02   6.96048282E-02   6.96203440E-02   1.59767991E-03   2.18256924E-10   1.64607273E-10   9.18583053E-04   6.95888843E-02   6.95693732E-02   1.55176753E-10   9.99999105E-04   9.98767232E-04   9.44952262E-11   9.59407884E-11   1.00003205E-10
   1.31250000E+03   5.00000000E-01   5.00000000E-01   1.09514707E-01   1.09682316E-01   1.18767691E-03   4.99998043E-02   4.99999140E-02   6.96048292E-02   6.96120990E-02   1.60315383E-03   2.47473830E-10   1.66425962E-10   9.19518775E-04   6.95890315E-02   6.95693732E-02   1.66042631E-10   9.99999018E-04   9.98767401E-04   9.44952262E-11   9.59407753E-11   1.00003113E-10
   1.34750000E+03   5.00000000E-01   5.00000000E-01   1.09515342E-01   1.09675440E-01   1.19274634E-03   4.99998044E-02   4.99999124E-02   6.96048304E-02   6.96036693E-02   1.60878166E-03   2.80185405E-10   1.68009810E-10   9.20439910E-04   6.95891104E-02   6.95693732E-02   1.78477738E-10   9.99998953E-04   9.98767570E-04   9.44952262E-11   9.59407638E-11   1.00003024E-10
   1.38250000E+03   5.00000000E-01   5.00000000E-01   1.09516122E-01   1.09668490E-01   1.19730503E-03   4.99998046E-02   4.99999108E-02   6.96048317E-02   6.95950519E-02   1.61479082E-03   3.16314394E-10   1.69333525E-10   9.21337054E-04   6.95894705E-02   6.95693732E-02   1.92759477E-10   9.99998916E-04   9.98767737E-04   9.44952262E-11   9.59407538E-11   1.00002937E-10
   1.41750000E+03   5.00000000E-01   5.00000000E-01   1.09517012E-01   1.09661577E-01   1.20066742E-03   4.99998048E-02   4.99999092E-02   6.96048334E-02   6.95862688E-02   1.62135383E-03   3.55632429E-10   1.70382691E-10   9.22201800E-04   6.95904346E-02   6.95693732E-02   2.09221884E-10   9.99998900E-04   9.98767903E-04   9.44952262E-11   9.59407450E-11   1.00002854E-10
   1.45250000E+03   5.00000000E-01   5.00000000E-01   1.09517963E-01   1.09654562E-01   1.20475706E-03   4.99998050E-02   4.99999076E-02   6.96048353E-02   6.95774498E-02   1.62781261E-03   3.98804639E-10   1.71202851E-10   9.23044378E-04   6.95911548E-02   6.95693732E-02   2.28273346E-10   9.99998872E-04   9.98768068E-04   9.44952262E-11   9.59407374E-11   1.00002774E-10
   1.48750000E+03   5.00000000E-01   5.00000000E-01   1.09518986E-01   1.09647319E-01   1.21028591E-03   4.99998053E-02   4.99999061E-02   6.96048376E-02   6.95686248E-02   1.63394827E-03   4.46220770E-10   1.71800638E-10   9.23865998E-04   6.95913509E-02   6.95693732E-02   2.50413669E-10   9.99998845E-04   9.98768232E-04   9.44952262E-11   9.59407308E-11   1.00002695E-10
   1.52250000E+03   5.00000000E-01   5.00000000E-01   1.09520090E-01   1.09640096E-01   1.21472637E-03   4.99998055E-02   4.99999045E-02   6.96048402E-02   6.95596914E-02   1.64057426E-03   4.96515041E-10   1.72112596E-10   9.24643302E-04   6.95921349E-02   6.95693732E-02   2.76249254E-10   9.99998880E-04   9.98768394E-04   9.44952262E-11   9.59407250E-11   1.00002619E-10
   1.55750000E+03   5.00000000E-01   5.00000000E-01   1.09521229E-01   1.09633143E-01   1.21698809E-03   4.99998058E-02   4.99999030E-02   6.96048432E-02   6.95506715E-02   1.64797313E-03   5.48537777E-10   1.72132719E-10   9.25365510E-04   6.95939088E-02   6.95693732E-02   3.06520812E-10   9.99998937E-04   9.98768552E-04   9.44952262E-11   9.59407200E-11   1.00002546E-10
   1.59250000E+03   5.00000000E-01   5.00000000E-01   1.09522393E-01   1.09626215E-01   1.22053640E-03   4.99998060E-02   4.99999015E-02   6.96048468E-02   6.95417814E-02   1.65495851E-03   6.04175705E-10   1.71966111E-10   9.26060232E-04   6.95951281E-02   6.95693732E-02   3.42151841E-10   9.99998926E-04   9.98768710E-04   9.44952262E-11   9.59407156E-11   1.00002475E-10
   1.62750000E+03   5.00000000E-01   5.00000000E-01   1.09523604E-01   1.09619208E-01   1.22611586E-03   4.99998062E-02   4.99998999E-02   6.96048509E-02   6.95330360E-02   1.66131448E-03   6.63938729E-10   1.71624320E-10   9.26730683E-04   6.95954284E-02   6.95693732E-02   3.84292137E-10   9.99998870E-04   9.98768868E-04   9.44952262E-11   9.59407118E-11   1.00002406E-10
   1.66250000E+03   5.00000000E-01   5.00000000E-01   1.09524825E-01   1.09612434E-01   1.23194447E-03   4.99998065E-02   4.99998984E-02   6.96048557E-02   6.95243425E-02   1.66764235E-03   7.26053151E-10   1.71059242E-10   9.27357652E-04   6.95953037E-02   6.95693732E-02   4.34370752E-10   9.99998734E-04   9.98769024E-04   9.44952262E-11   9.59407085E-11   1.00002339E-10
   1.69750000E+03   5.00000000E-01   5.00000000E-01   1.09526049E-01   1.09605901E-01   1.23789437E-03   4.99998067E-02   4.99998970E-02   6.96048612E-02   6.95157287E-02   1.67395044E-03   7.89896335E-10   1.70283937E-10   9.27938812E-04   6.95949749E-02   6.95693732E-02   4.94171358E-10   9.99998554E-04   9.98769178E-04   9.44952262E-11   9.59407056E-11   1.00002274E-10
   1.73250000E+03   5.00000000E-01   5.00000000E-01   1.09527327E-01   1.09599264E-01   1.24486835E-03   4.99998070E-02   4.99998955E-02   6.96048675E-02   6.95072637E-02   1.67991448E-03   8.56001309E-10   1.69336981E-10   9.28481949E-04   6.95945954E-02   6.95693732E-02   5.65926987E-10   9.99998526E-04   9.98769332E-04   9.44952262E-11   9.59407031E-11   1.00002209E-10
   1.76750000E+03   5.00000000E-01   5.00000000E-01   1.09528655E-01   1.09592544E-01   1.25240735E-03   4.99998073E-02   4.99998940E-02   6.96048748E-02   6.94989333E-02   1.68568134E-03   9.23318860E-10   1.68214906E-10   9.28980947E-04   6.95943174E-02   6.95693732E-02   6.52443036E-10   9.99998666E-04   9.98769484E-04   9.44952262E-11   9.59407009E-11   1.00002146E-10
   1.80250000E+03   5.00000000E-01   5.00000000E-01   1.09529988E-01   1.09586042E-01   1.25943499E-03   4.99998075E-02   4.99998926E-02   6.96048831E-02   6.94907078E-02   1.69158668E-03   9.89643145E-10   1.66904959E-10   9.29424052E-04   6.95942382E-02   6.95693732E-02   7.57256299E-10   9.99998815E-04   9.98769635E-04   9.44952262E-11   9.59406990E-11   1.00002084E-10
   1.83750000E+03   5.00000000E-01   5.00000000E-01   1.09531260E-01   1.09580016E-01   1.26494924E-03   4.99998078E-02   4.99998912E-02   6.96048927E-02   6.94825815E-02   1.69791749E-03   1.05246646E-09   1.65406159E-10   9.29801376E-04   6.95946427E-02   6.95693732E-02   8.84829762E-10   9.99998880E-04   9.98769783E-04   9.44952262E-11   9.59406973E-11   1.00002023E-10
   1.87250000E+03   5.00000000E-01   5.00000000E-01   1.09532408E-01   1.09574594E-01   1.26863536E-03   4.99998081E-02   4.99998900E-02   6.96049036E-02   6.94745911E-02   1.70472000E-03   1.11015530E-09   1.63740621E-10   9.30111067E-04   6.95957030E-02   6.95693732E-02   1.04080632E-09   9.99998898E-04   9.98769929E-04   9.44952262E-11   9.59406959E-11   1.00001963E-10
   1.90750000E+03   5.00000000E-01   5.00000000E-01   1.09533445E-01   1.09569684E-01   1.27221771E-03   4.99998084E-02   4.99998888E-02   6.96049161E-02   6.94668604E-02   1.71137246E-03   1.16484251E-09   1.61978309E-10   9.30373325E-04   6.95967475E-02   6.95693732E-02   1.23236745E-09   9.99998926E-04   9.98770076E-04   9.44952262E-11   9.59406947E-11   1.00001906E-10
   1.94250000E+03   5.00000000E-01   5.00000000E-01   1.09534436E-01   1.09565007E-01   1.27772709E-03   4.99998087E-02   4.99998876E-02   6.96049304E-02   6.94594928E-02   1.71719036E-03   1.21989907E-09   1.60179894E-10   9.30610703E-04   6.95970951E-02   6.95693732E-02   1.46868039E-09   9.99998953E-04   9.98770227E-04   9.44952262E-11   9.59406936E-11   1.00001849E-10
   1.97750000E+03   5.00000000E-01   5.00000000E-01   1.09535410E-01   1.09560285E-01   1.28561983E-03   4.99998090E-02   4.99998865E-02   6.96049467E-02   6.94524894E-02   1.72204558E-03   1.27599322E-09   1.58353296E-10   9.30826868E-04   6.95968217E-02   6.95693732E-02   1.76143707E-09   9.99998990E-04   9.98770384E-04   9.44952262E-11   9.59406926E-11   1.00001793E-10
   2.01250000E+03   5.00000000E-01   5.00000000E-01   1.09536377E-01   1.09555536E-01   1.29503916E-03   4.99998092E-02   4.99998853E-02   6.96049655E-02   6.94457940E-02   1.72624333E-03   1.33094344E-09   1.56476024E-10   9.31010590E-04   6.95962231E-02   6.95693732E-02   2.12556348E-09   9.99999036E-04   9.98770544E-04   9.44952262E-11   9.59406918E-11   1.00001736E-10
   2.04750000E+03   5.00000000E-01   5.00000000E-01   1.09537334E-01   1.09551012E-01   1.30480545E-03   4.99998095E-02   4.99998841E-02   6.96049869E-02   6.94393611E-02   1.73016533E-03   1.38160486E-09   1.54529706E-10   9.31148632E-04   6.95954960E-02   6.95693732E-02   2.58013151E-09   9.99999066E-04   9.98770710E-04   9.44952262E-11   9.59406911E-11   1.00001679E-10
   2.08250000E+03   5.00000000E-01   5.00000000E-01   1.09538282E-01   1.09546916E-01   1.31426336E-03   4.99998097E-02   4.99998830E-02   6.96050114E-02   6.94331945E-02   1.73398761E-03   1.42594894E-09   1.52519234E-10   9.31235848E-04   6.95947368E-02   6.95693732E-02   3.14949244E-09   9.99999070E-04   9.98770880E-04   9.44952262E-11   9.59406905E-11   1.00001623E-10
   2.11750000E+03   5.00000000E-01   5.00000000E-01   1.09539217E-01   1.09543347E-01   1.32318819E-03   4.99998100E-02   4.99998820E-02   6.96050393E-02   6.94273302E-02   1.73772705E-03   1.46311480E-09   1.50463613E-10   9.31273423E-04   6.95939909E-02   6.95693732E-02   3.86469695E-09   9.99999050E-04   9.98771057E-04   9.44952262E-11   9.59406899E-11   1.00001566E-10
   2.15250000E+03   5.00000000E-01   5.00000000E-01   1.09540136E-01   1.09540356E-01   1.33149673E-03   4.99998102E-02   4.99998811E-02   6.96050713E-02   6.94218155E-02   1.74134628E-03   1.49284573E-09   1.48385438E-10   9.31265060E-04   6.95932810E-02   6.95693732E-02   4.76526914E-09   9.99999010E-04   9.98771243E-04   9.44952262E-11   9.59406894E-11   1.00001510E-10
   2.18750000E+03   5.00000000E-01   5.00000000E-01   1.09541040E-01   1.09537982E-01   1.33912108E-03   4.99998105E-02   4.99998803E-02   6.96051079E-02   6.94167020E-02   1.74479687E-03   1.51522159E-09   1.46307292E-10   9.31215444E-04   6.95926193E-02   6.95693732E-02   5.90139379E-09   9.99998951E-04   9.98771442E-04   9.44952262E-11   9.59406890E-11   1.00001454E-10
   2.22250000E+03   5.00000000E-01   5.00000000E-01   1.09541929E-01   1.09536266E-01   1.34597584E-03   4.99998108E-02   4.99998795E-02   6.96051499E-02   6.94120455E-02   1.74802920E-03   1.53059125E-09   1.44251174E-10   9.31129935E-04   6.95920118E-02   6.95693732E-02   7.33657850E-09   9.99998873E-04   9.98771655E-04   9.44952262E-11   9.59406886E-11   1.00001399E-10
   2.25750000E+03   5.00000000E-01   5.00000000E-01   1.09542808E-01   1.09535255E-01   1.35195352E-03   4.99998111E-02   4.99998789E-02   6.96051982E-02   6.94079058E-02   1.75099303E-03   1.53955662E-09   1.42238521E-10   9.31014566E-04   6.95914603E-02   6.95693732E-02   9.15084784E-09   9.99998777E-04   9.98771887E-04   9.44952262E-11   9.59406883E-11   1.00001344E-10
   2.29250000E+03   5.00000000E-01   5.00000000E-01   1.09543681E-01   1.09535001E-01   1.35692653E-03   4.99998115E-02   4.99998783E-02   6.96052539E-02   6.94043477E-02   1.75363644E-03   1.54295359E-09   1.40290173E-10   9.30876050E-04   6.95909636E-02   6.95693732E-02   1.14445135E-08   9.99998663E-04   9.98772143E-04   9.44952262E-11   9.59406880E-11   1.00001290E-10
   2.32750000E+03   5.00000000E-01   5.00000000E-01   1.09544553E-01   1.09535558E-01   1.36075076E-03   4.99998118E-02   4.99998779E-02   6.96053184E-02   6.94014405E-02   1.75590500E-03   1.54181798E-09   1.38426189E-10   9.30721729E-04   6.95905181E-02   6.95693732E-02   1.43425374E-08   9.99998532E-04   9.98772426E-04   9.44952262E-11   9.59406878E-11   1.00001236E-10
   2.36250000E+03   5.00000000E-01   5.00000000E-01   1.09545433E-01   1.09536987E-01   1.36327001E-03   4.99998122E-02   4.99998776E-02   6.96053934E-02   6.93992577E-02   1.75774153E-03   1.53733748E-09   1.36665527E-10   9.30559443E-04   6.95901184E-02   6.95693732E-02   1.79994632E-08   9.99998381E-04   9.98772743E-04   9.44952262E-11   9.59406876E-11   1.00001183E-10
   2.39750000E+03   5.00000000E-01   5.00000000E-01   1.09546325E-01   1.09539349E-01   1.36432188E-03   4.99998126E-02   4.99998774E-02   6.96054807E-02   6.93978753E-02   1.75908626E-03   1.53079427E-09   1.35025601E-10   9.30397318E-04   6.95897582E-02   6.95693732E-02   2.26048300E-08   9.99998212E-04   9.98773100E-04   9.44952262E-11   9.59406874E-11   1.00001131E-10
   2.43250000E+03   5.00000000E-01   5.00000000E-01   1.09547239E-01   1.09542703E-01   1.36374554E-03   4.99998130E-02   4.99998773E-02   6.96055829E-02   6.93973697E-02   1.75987767E-03   1.52350331E-09   1.33521730E-10   9.30243469E-04   6.95894309E-02   6.95693732E-02   2.83888996E-08   9.99998022E-04   9.98773502E-04   9.44952262E-11   9.59406872E-11   1.00001080E-10
   2.46750000E+03   5.00000000E-01   5.00000000E-01   1.09548181E-01   1.09547101E-01   1.36139178E-03   4.99998134E-02   4.99998774E-02   6.96057027E-02   6.93978149E-02   1.76005385E-03   1.51675048E-09   1.32166480E-10   9.30105620E-04   6.95891298E-02   6.95693732E-02   3.56284208E-08   9.99997809E-04   9.98773958E-04   9.44952262E-11   9.59406871E-11   1.00001029E-10
   2.50250000E+03   5.00000000E-01   5.00000000E-01   1.09549158E-01   1.09552589E-01   1.35713484E-03   4.99998138E-02   4.99998776E-02   6.96058438E-02   6.93992778E-02   1.75955459E-03   1.51173417E-09   1.30968938E-10   9.29990650E-04   6.95888486E-02   6.95693732E-02   4.46520249E-08   9.99997570E-04   9.98774473E-04   9.44952262E-11   9.59406870E-11   1.00000980E-10
   2.53750000E+03   5.00000000E-01   5.00000000E-01   1.09550179E-01   1.09559192E-01   1.35088528E-03   4.99998143E-02   4.99998779E-02   6.96060102E-02   6.94018138E-02   1.75832421E-03   1.50951272E-09   1.29933953E-10   9.29904093E-04   6.95885817E-02   6.95693732E-02   5.58446922E-08   9.99997303E-04   9.98775055E-04   9.44952262E-11   9.59406868E-11   1.00000932E-10
   2.57250000E+03   5.00000000E-01   5.00000000E-01   1.09551251E-01   1.09566915E-01   1.34260187E-03   4.99998148E-02   4.99998783E-02   6.96062065E-02   6.94054612E-02   1.75631514E-03   1.51095988E-09   1.29061453E-10   9.29849654E-04   6.95883243E-02   6.95693732E-02   6.96505675E-08   9.99997005E-04   9.98775709E-04   9.44952262E-11   9.59406867E-11   1.00000885E-10
   2.60750000E+03   5.00000000E-01   5.00000000E-01   1.09552383E-01   1.09575735E-01   1.33230029E-03   4.99998153E-02   4.99998789E-02   6.96064383E-02   6.94102361E-02   1.75349176E-03   1.51672982E-09   1.28345959E-10   9.29828784E-04   6.95880726E-02   6.95693732E-02   8.65732341E-08   9.99996671E-04   9.98776439E-04   9.44952262E-11   9.59406866E-11   1.00000840E-10
   2.64250000E+03   5.00000000E-01   5.00000000E-01   1.09553585E-01   1.09585600E-01   1.32005663E-03   4.99998158E-02   4.99998795E-02   6.96067113E-02   6.94161287E-02   1.74983428E-03   1.52723224E-09   1.27776413E-10   9.29840431E-04   6.95878242E-02   6.95693732E-02   1.07172405E-07   9.99996299E-04   9.98777246E-04   9.44952262E-11   9.59406865E-11   1.00000796E-10
   2.67750000E+03   5.00000000E-01   5.00000000E-01   1.09554868E-01   1.09596424E-01   1.30600459E-03   4.99998164E-02   4.99998803E-02   6.96070322E-02   6.94231015E-02   1.74534171E-03   1.54261645E-09   1.27336414E-10   9.29880987E-04   6.95875780E-02   6.95693732E-02   1.32055879E-07   9.99995887E-04   9.98778130E-04   9.44952262E-11   9.59406865E-11   1.00000753E-10
   2.71250000E+03   5.00000000E-01   5.00000000E-01   1.09556244E-01   1.09608097E-01   1.29032722E-03   4.99998170E-02   4.99998811E-02   6.96074078E-02   6.94310891E-02   1.74003359E-03   1.56276139E-09   1.27004845E-10   9.29944468E-04   6.95873348E-02   6.95693732E-02   1.61865578E-07   9.99995434E-04   9.98779089E-04   9.44952262E-11   9.59406864E-11   1.00000711E-10