 TITLE = "Mineral Volumes" 
VARIABLES = "X"          "Y"              "Z"            "Forsterite"     "Fayalite"       "Saponite(Mg)"   "Enstatite(alph" "Ferrosilite(al" "Anorthite"      "Albite(low)"    "Clinochlore"    "Sudoite"        "Montmorillonit" "Kaolinite"      "Tremolite"      "Pargasite"      "Anhydrite"      "Epidote"        "Scolecite"      "Pyrite"         "FeS(am)"        "Quartz(alpha)" 
 ZONE I=         100 , J=           1 , K=           1  F=POINT
   1.75000000E+01   5.00000000E-01   5.00000000E-01   1.09951202E-01   1.09932659E-01   1.55042625E-04   4.99999803E-02   4.99999851E-02   6.99603959E-02   6.99296112E-02   1.90229585E-04   2.29627375E-10   9.68331523E-11   9.89311894E-04   6.99591982E-02   6.99568346E-02   9.62170129E-11   1.00000000E-03   9.99876282E-04   9.94374251E-11   9.95876626E-11   1.00000725E-10
   5.25000000E+01   5.00000000E-01   5.00000000E-01   1.09951202E-01   1.09935865E-01   1.62140071E-04   4.99999803E-02   4.99999867E-02   6.99603959E-02   6.99440478E-02   1.73085554E-04   1.19326641E-10   9.71545428E-11   9.89329718E-04   6.99591393E-02   6.99568346E-02   9.62450583E-11   1.00000000E-03   9.99876286E-04   9.94374251E-11   9.95877015E-11   1.00000794E-10
   8.75000000E+01   5.00000000E-01   5.00000000E-01   1.09951202E-01   1.09938170E-01   1.61555901E-04   4.99999803E-02   4.99999875E-02   6.99603959E-02   6.99466630E-02   1.70454144E-04   9.57434010E-11   9.72817679E-11   9.89338995E-04   6.99589269E-02   6.99568346E-02   9.62740125E-11   1.00000000E-03   9.99876288E-04   9.94374251E-11   9.95877105E-11   1.00000774E-10
   1.22500000E+02   5.00000000E-01   5.00000000E-01   1.09951202E-01   1.09939447E-01   1.60038035E-04   4.99999803E-02   4.99999878E-02   6.99603959E-02   6.99461126E-02   1.71415788E-04   8.99089143E-11   9.73402026E-11   9.89345417E-04   6.99588222E-02   6.99568346E-02   9.63046137E-11   1.00000000E-03   9.99876289E-04   9.94374251E-11   9.95877028E-11   1.00000738E-10
   1.57500000E+02   5.00000000E-01   5.00000000E-01   1.09951202E-01   1.09940012E-01   1.58972835E-04   4.99999803E-02   4.99999879E-02   6.99603959E-02   6.99445538E-02   1.73328005E-04   8.83875269E-11   9.73710134E-11   9.89350628E-04   6.99588288E-02   6.99568346E-02   9.63374743E-11   1.00000000E-03   9.99876290E-04   9.94374251E-11   9.95876882E-11   1.00000700E-10
   1.92500000E+02   5.00000000E-01   5.00000000E-01   1.09951202E-01   1.09940168E-01   1.58570927E-04   4.99999803E-02   4.99999878E-02   6.99603959E-02   6.99425670E-02   1.75521845E-04   8.79916176E-11   9.73861378E-11   9.89355201E-04   6.99587893E-02   6.99568346E-02   9.63731129E-11   1.00000000E-03   9.99876290E-04   9.94374251E-11   9.95876718E-11   1.00000661E-10
   2.27500000E+02   5.00000000E-01   5.00000000E-01   1.09951202E-01   1.09940122E-01   1.58625448E-04   4.99999803E-02   4.99999877E-02   6.99603959E-02   6.99403436E-02   1.77848298E-04   8.78948951E-11   9.73890648E-11   9.89359248E-04   6.99586653E-02   6.99568346E-02   9.64119718E-11   1.00000000E-03   9.99876291E-04   9.94374251E-11   9.95876561E-11   1.00000622E-10
   2.62500000E+02   5.00000000E-01   5.00000000E-01   1.09951202E-01   1.09940010E-01   1.58676227E-04   4.99999803E-02   4.99999876E-02   6.99603959E-02   6.99379734E-02   1.80332443E-04   8.78771630E-11   9.73806257E-11   9.89362576E-04   6.99586144E-02   6.99568346E-02   9.64544210E-11   1.00000000E-03   9.99876291E-04   9.94374251E-11   9.95876420E-11   1.00000583E-10
   2.97500000E+02   5.00000000E-01   5.00000000E-01   1.09951202E-01   1.09939889E-01   1.58727228E-04   4.99999803E-02   4.99999874E-02   6.99603959E-02   6.99355310E-02   1.82894326E-04   8.78796730E-11   9.73622426E-11   9.89365176E-04   6.99586290E-02   6.99568346E-02   9.65008053E-11   1.00000000E-03   9.99876291E-04   9.94374251E-11   9.95876297E-11   1.00000546E-10
   3.32500000E+02   5.00000000E-01   5.00000000E-01   1.09951202E-01   1.09939787E-01   1.58866350E-04   4.99999803E-02   4.99999873E-02   6.99603959E-02   6.99330550E-02   1.85470444E-04   8.78865838E-11   9.73346153E-11   9.89367023E-04   6.99586400E-02   6.99568346E-02   9.65514731E-11   1.00000000E-03   9.99876291E-04   9.94374251E-11   9.95876191E-11   1.00000509E-10
   3.67500000E+02   5.00000000E-01   5.00000000E-01   1.09951202E-01   1.09939730E-01   1.58947759E-04   4.99999803E-02   4.99999871E-02   6.99603959E-02   6.99305647E-02   1.88078589E-04   8.78928725E-11   9.72976865E-11   9.89367923E-04   6.99587017E-02   6.99568346E-02   9.66067717E-11   9.99999999E-04   9.99876291E-04   9.94374251E-11   9.95876101E-11   1.00000472E-10
   4.02500000E+02   5.00000000E-01   5.00000000E-01   1.09951202E-01   1.09939727E-01   1.58977659E-04   4.99999803E-02   4.99999870E-02   6.99603959E-02   6.99280882E-02   1.90687871E-04   8.78968463E-11   9.72521822E-11   9.89367778E-04   6.99588193E-02   6.99568346E-02   9.66670626E-11   9.99999999E-04   9.99876290E-04   9.94374251E-11   9.95876024E-11   1.00000437E-10
   4.37500000E+02   5.00000000E-01   5.00000000E-01   1.09951202E-01   1.09939782E-01   1.58991597E-04   4.99999803E-02   4.99999869E-02   6.99603959E-02   6.99256507E-02   1.93262341E-04   8.78977500E-11   9.71991626E-11   9.89366531E-04   6.99589737E-02   6.99568346E-02   9.67327333E-11   9.99999999E-04   9.99876290E-04   9.94374251E-11   9.95875958E-11   1.00000402E-10
   4.72500000E+02   5.00000000E-01   5.00000000E-01   1.09951203E-01   1.09939900E-01   1.58992965E-04   4.99999803E-02   4.99999867E-02   6.99603959E-02   6.99232765E-02   1.95775609E-04   8.78951319E-11   9.71400299E-11   9.89364147E-04   6.99591583E-02   6.99568346E-02   9.68041998E-11   9.99999999E-04   9.99876289E-04   9.94374251E-11   9.95875902E-11   1.00000368E-10
   5.07500000E+02   5.00000000E-01   5.00000000E-01   1.09951203E-01   1.09940084E-01   1.58987448E-04   4.99999803E-02   4.99999866E-02   6.99603959E-02   6.99209919E-02   1.98198408E-04   8.78888736E-11   9.70766802E-11   9.89360663E-04   6.99593668E-02   6.99568346E-02   9.68819111E-11   9.99999998E-04   9.99876288E-04   9.94374251E-11   9.95875853E-11   1.00000335E-10
   5.42500000E+02   5.00000000E-01   5.00000000E-01   1.09951203E-01   1.09940336E-01   1.58980503E-04   4.99999803E-02   4.99999865E-02   6.99603959E-02   6.99188240E-02   2.00500276E-04   8.78792122E-11   9.70113771E-11   9.89356194E-04   6.99595929E-02   6.99568346E-02   9.69663524E-11   9.99999998E-04   9.99876287E-04   9.94374251E-11   9.95875812E-11   1.00000302E-10
   5.77500000E+02   5.00000000E-01   5.00000000E-01   1.09951203E-01   1.09940658E-01   1.58974100E-04   4.99999803E-02   4.99999864E-02   6.99603959E-02   6.99167995E-02   2.02652235E-04   8.78667189E-11   9.69465324E-11   9.89350932E-04   6.99598314E-02   6.99568346E-02   9.70580485E-11   9.99999997E-04   9.99876286E-04   9.94374251E-11   9.95875777E-11   1.00000271E-10
   6.12500000E+02   5.00000000E-01   5.00000000E-01   1.09951203E-01   1.09941050E-01   1.58966467E-04   4.99999803E-02   4.99999863E-02   6.99603959E-02   6.99149420E-02   2.04629205E-04   8.78522216E-11   9.68844509E-11   9.89345126E-04   6.99600792E-02   6.99568346E-02   9.71575669E-11   9.99999995E-04   9.99876285E-04   9.94374251E-11   9.95875746E-11   1.00000240E-10
   6.47500000E+02   5.00000000E-01   5.00000000E-01   1.09951204E-01   1.09941510E-01   1.58952584E-04   4.99999804E-02   4.99999862E-02   6.99603959E-02   6.99132700E-02   2.06412405E-04   8.78366830E-11   9.68270905E-11   9.89339058E-04   6.99603342E-02   6.99568346E-02   9.72655211E-11   9.99999993E-04   9.99876284E-04   9.94374251E-11   9.95875719E-11   1.00000211E-10
   6.82500000E+02   5.00000000E-01   5.00000000E-01   1.09951205E-01   1.09942035E-01   1.58924869E-04   4.99999804E-02   4.99999861E-02   6.99603959E-02   6.99117947E-02   2.07991287E-04   8.78210641E-11   9.67758874E-11   9.89333008E-04   6.99605956E-02   6.99568346E-02   9.73825739E-11   9.99999990E-04   9.99876283E-04   9.94374251E-11   9.95875696E-11   1.00000183E-10
   7.17500000E+02   5.00000000E-01   5.00000000E-01   1.09951206E-01   1.09942622E-01   1.58874022E-04   4.99999804E-02   4.99999860E-02   6.99603959E-02   6.99105191E-02   2.09364503E-04   8.78062045E-11   9.67316711E-11   9.89327226E-04   6.99608636E-02   6.99568346E-02   9.75094416E-11   9.99999986E-04   9.99876283E-04   9.94374251E-11   9.95875675E-11   1.00000156E-10
   7.52500000E+02   5.00000000E-01   5.00000000E-01   1.09951207E-01   1.09943264E-01   1.58790326E-04   4.99999804E-02   4.99999859E-02   6.99603959E-02   6.99094383E-02   2.10539575E-04   8.77927400E-11   9.66946750E-11   9.89321907E-04   6.99611387E-02   6.99568346E-02   9.76468978E-11   9.99999981E-04   9.99876282E-04   9.94374251E-11   9.95875657E-11   1.00000131E-10
   7.87500000E+02   5.00000000E-01   5.00000000E-01   1.09951209E-01   1.09943952E-01   1.58665783E-04   4.99999804E-02   4.99999858E-02   6.99603959E-02   6.99085398E-02   2.11531237E-04   8.77810637E-11   9.66646238E-11   9.89317181E-04   6.99614211E-02   6.99568346E-02   9.77957783E-11   9.99999973E-04   9.99876281E-04   9.94374251E-11   9.95875641E-11   1.00000108E-10
   8.22500000E+02   5.00000000E-01   5.00000000E-01   1.09951212E-01   1.09944677E-01   1.58496748E-04   4.99999804E-02   4.99999857E-02   6.99603959E-02   6.99078062E-02   2.12358851E-04   8.77713310E-11   9.66408691E-11   9.89313112E-04   6.99617093E-02   6.99568346E-02   9.79569869E-11   9.99999961E-04   9.99876281E-04   9.94374251E-11   9.95875627E-11   1.00000085E-10
   8.57500000E+02   5.00000000E-01   5.00000000E-01   1.09951217E-01   1.09945427E-01   1.58285127E-04   4.99999805E-02   4.99999856E-02   6.99603959E-02   6.99072168E-02   2.13043821E-04   8.77634981E-11   9.66225420E-11   9.89309703E-04   6.99619999E-02   6.99568346E-02   9.81315020E-11   9.99999945E-04   9.99876280E-04   9.94374251E-11   9.95875614E-11   1.00000065E-10
   8.92500000E+02   5.00000000E-01   5.00000000E-01   1.09951224E-01   1.09946190E-01   1.58035465E-04   4.99999805E-02   4.99999855E-02   6.99603959E-02   6.99067496E-02   2.13608125E-04   8.77573816E-11   9.66086945E-11   9.89306914E-04   6.99622881E-02   6.99568346E-02   9.83203834E-11   9.99999923E-04   9.99876280E-04   9.94374251E-11   9.95875602E-11   1.00000046E-10
   9.27500000E+02   5.00000000E-01   5.00000000E-01   1.09951235E-01   1.09946956E-01   1.57747605E-04   4.99999805E-02   4.99999854E-02   6.99603959E-02   6.99063836E-02   2.14074345E-04   8.77527228E-11   9.65984097E-11   9.89304678E-04   6.99625722E-02   6.99568346E-02   9.85247776E-11   9.99999893E-04   9.99876279E-04   9.94374251E-11   9.95875591E-11   1.00000029E-10
   9.62500000E+02   5.00000000E-01   5.00000000E-01   1.09951250E-01   1.09947714E-01   1.57408990E-04   4.99999805E-02   4.99999853E-02   6.99603959E-02   6.99060993E-02   2.14466345E-04   8.77492428E-11   9.65908724E-11   9.89302912E-04   6.99628576E-02   6.99568346E-02   9.87459207E-11   9.99999854E-04   9.99876279E-04   9.94374251E-11   9.95875582E-11   1.00000013E-10
   9.97500000E+02   5.00000000E-01   5.00000000E-01   1.09951273E-01   1.09948456E-01   1.56996889E-04   4.99999806E-02   4.99999852E-02   6.99603959E-02   6.99058800E-02   2.14807950E-04   8.77466807E-11   9.65854027E-11   9.89301534E-04   6.99631560E-02   6.99568346E-02   9.89851407E-11   9.99999804E-04   9.99876279E-04   9.94374251E-11   9.95875573E-11   9.99999984E-11
   1.03250000E+03   5.00000000E-01   5.00000000E-01   1.09951307E-01   1.09949173E-01   1.56502338E-04   4.99999806E-02   4.99999851E-02   6.99603959E-02   6.99057116E-02   2.15116510E-04   8.77448146E-11   9.65814598E-11   9.89300468E-04   6.99634723E-02   6.99568346E-02   9.92438694E-11   9.99999744E-04   9.99876279E-04   9.94374251E-11   9.95875565E-11   9.99999853E-11
   1.06750000E+03   5.00000000E-01   5.00000000E-01   1.09951356E-01   1.09949854E-01   1.55954067E-04   4.99999807E-02   4.99999850E-02   6.99603959E-02   6.99055826E-02   2.15396834E-04   8.77434653E-11   9.65786279E-11   9.89299650E-04   6.99637901E-02   6.99568346E-02   9.95236668E-11   9.99999672E-04   9.99876279E-04   9.94374251E-11   9.95875557E-11   9.99999735E-11
   1.10250000E+03   5.00000000E-01   5.00000000E-01   1.09951428E-01   1.09950487E-01   1.55392252E-04   4.99999807E-02   4.99999849E-02   6.99603959E-02   6.99054839E-02   2.15648311E-04   8.77424933E-11   9.65765950E-11   9.89299023E-04   6.99640822E-02   6.99568346E-02   9.98262431E-11   9.99999588E-04   9.99876279E-04   9.94374251E-11   9.95875550E-11   9.99999628E-11
   1.13750000E+03   5.00000000E-01   5.00000000E-01   1.09951532E-01   1.09951065E-01   1.54811937E-04   4.99999808E-02   4.99999848E-02   6.99603959E-02   6.99054083E-02   2.15879918E-04   8.77417922E-11   9.65751323E-11   9.89298544E-04   6.99643419E-02   6.99568346E-02   1.00153455E-10   9.99999496E-04   9.99876279E-04   9.94374251E-11   9.95875544E-11   9.99999532E-11
   1.17250000E+03   5.00000000E-01   5.00000000E-01   1.09951681E-01   1.09951587E-01   1.54134108E-04   4.99999808E-02   4.99999847E-02   6.99603959E-02   6.99053502E-02   2.16118041E-04   8.77412840E-11   9.65740757E-11   9.89298177E-04   6.99646020E-02   6.99568346E-02   1.00507279E-10   9.99999396E-04   9.99876279E-04   9.94374251E-11   9.95875538E-11   9.99999445E-11
   1.20750000E+03   5.00000000E-01   5.00000000E-01   1.09951890E-01   1.09952052E-01   1.53252257E-04   4.99999809E-02   4.99999846E-02   6.99603959E-02   6.99053055E-02   2.16394743E-04   8.77409138E-11   9.65733093E-11   9.89297894E-04   6.99649131E-02   6.99568346E-02   1.00889794E-10   9.99999292E-04   9.99876278E-04   9.94374251E-11   9.95875532E-11   9.99999368E-11
   1.24250000E+03   5.00000000E-01   5.00000000E-01   1.09952176E-01   1.09952449E-01   1.52179541E-04   4.99999810E-02   4.99999845E-02   6.99603959E-02   6.99052711E-02   2.16709941E-04   8.77406438E-11   9.65727519E-11   9.89297678E-04   6.99652593E-02   6.99568346E-02   1.01303261E-10   9.99999188E-04   9.99876278E-04   9.94374251E-11   9.95875527E-11   9.99999300E-11
   1.27750000E+03   5.00000000E-01   5.00000000E-01   1.09952558E-01   1.09952760E-01   1.51062879E-04   4.99999810E-02   4.99999844E-02   6.99603959E-02   6.99052446E-02   2.17028068E-04   8.77404477E-11   9.65723453E-11   9.89297512E-04   6.99655417E-02   6.99568346E-02   1.01750246E-10   9.99999087E-04   9.99876278E-04   9.94374251E-11   9.95875523E-11   9.99999241E-11
   1.31250000E+03   5.00000000E-01   5.00000000E-01   1.09953058E-01   1.09952972E-01   1.49976553E-04   4.99999811E-02   4.99999843E-02   6.99603959E-02   6.99052242E-02   2.17331839E-04   8.77403053E-11   9.65720474E-11   9.89297387E-04   6.99656897E-02   6.99568346E-02   1.02233631E-10   9.99998998E-04   9.99876278E-04   9.94374251E-11   9.95875518E-11   9.99999188E-11
   1.34750000E+03   5.00000000E-01   5.00000000E-01   1.09953695E-01   1.09953093E-01   1.48751639E-04   4.99999812E-02   4.99999842E-02   6.99603959E-02   6.99052084E-02   2.17666578E-04   8.77402010E-11   9.65718277E-11   9.89297291E-04   6.99657690E-02   6.99568346E-02   1.02756441E-10   9.99998930E-04   9.99876278E-04   9.94374251E-11   9.95875514E-11   9.99999143E-11
   1.38250000E+03   5.00000000E-01   5.00000000E-01   1.09954478E-01   1.09953169E-01   1.46732452E-04   4.99999813E-02   4.99999842E-02   6.99603959E-02   6.99051962E-02   2.18203460E-04   8.77401228E-11   9.65716651E-11   9.89297217E-04   6.99661311E-02   6.99568346E-02   1.03321370E-10   9.99998890E-04   9.99876278E-04   9.94374251E-11   9.95875511E-11   9.99999105E-11
   1.41750000E+03   5.00000000E-01   5.00000000E-01   1.09955372E-01   1.09953278E-01   1.43304560E-04   4.99999815E-02   4.99999841E-02   6.99603959E-02   6.99051870E-02   2.19102585E-04   8.77400634E-11   9.65715467E-11   9.89297160E-04   6.99671004E-02   6.99568346E-02   1.03930710E-10   9.99998871E-04   9.99876278E-04   9.94374251E-11   9.95875507E-11   9.99999078E-11
   1.45250000E+03   5.00000000E-01   5.00000000E-01   1.09956326E-01   1.09953343E-01   1.40018155E-04   4.99999816E-02   4.99999841E-02   6.99603959E-02   6.99051803E-02   2.19962248E-04   8.77400261E-11   9.65714669E-11   9.89297123E-04   6.99678245E-02   6.99568346E-02   1.04588489E-10   9.99998840E-04   9.99876278E-04   9.94374251E-11   9.95875504E-11   9.99999058E-11
   1.48750000E+03   5.00000000E-01   5.00000000E-01   1.09957353E-01   1.09953240E-01   1.37573495E-04   4.99999818E-02   4.99999840E-02   6.99603959E-02   6.99051756E-02   2.20601447E-04   8.77400076E-11   9.65714158E-11   9.89297103E-04   6.99680216E-02   6.99568346E-02   1.05299703E-10   9.99998810E-04   9.99876278E-04   9.94374251E-11   9.95875501E-11   9.99999043E-11
   1.52250000E+03   5.00000000E-01   5.00000000E-01   1.09958461E-01   1.09953092E-01   1.33974714E-04   4.99999820E-02   4.99999840E-02   6.99603959E-02   6.99051721E-02   2.21538645E-04   8.77399950E-11   9.65713807E-11   9.89297089E-04   6.99688099E-02   6.99568346E-02   1.06067316E-10   9.99998842E-04   9.99876278E-04   9.94374251E-11   9.95875498E-11   9.99999034E-11
   1.55750000E+03   5.00000000E-01   5.00000000E-01   1.09959604E-01   1.09953100E-01   1.28230038E-04   4.99999822E-02   4.99999840E-02   6.99603959E-02   6.99051697E-02   2.23031429E-04   8.77399829E-11   9.65713578E-11   9.89297077E-04   6.99705934E-02   6.99568346E-02   1.06893398E-10   9.99998895E-04   9.99876278E-04   9.94374251E-11   9.95875496E-11   9.99999032E-11
   1.59250000E+03   5.00000000E-01   5.00000000E-01   1.09960773E-01   1.09953142E-01   1.23115703E-04   4.99999823E-02   4.99999840E-02   6.99603959E-02   6.99051684E-02   2.24359453E-04   8.77399834E-11   9.65713535E-11   9.89297077E-04   6.99718193E-02   6.99568346E-02   1.07784102E-10   9.99998882E-04   9.99876278E-04   9.94374251E-11   9.95875494E-11   9.99999036E-11
   1.62750000E+03   5.00000000E-01   5.00000000E-01   1.09961988E-01   1.09953107E-01   1.19414033E-04   4.99999825E-02   4.99999839E-02   6.99603959E-02   6.99051682E-02   2.25320002E-04   8.77399983E-11   9.65713655E-11   9.89297090E-04   6.99721212E-02   6.99568346E-02   1.08747254E-10   9.99998823E-04   9.99876278E-04   9.94374251E-11   9.95875492E-11   9.99999043E-11
   1.66250000E+03   5.00000000E-01   5.00000000E-01   1.09963213E-01   1.09953203E-01   1.15800038E-04   4.99999826E-02   4.99999839E-02   6.99603959E-02   6.99051684E-02   2.26257445E-04   8.77400182E-11   9.65713853E-11   9.89297107E-04   6.99719959E-02   6.99568346E-02   1.09789894E-10   9.99998685E-04   9.99876278E-04   9.94374251E-11   9.95875491E-11   9.99999052E-11
   1.69750000E+03   5.00000000E-01   5.00000000E-01   1.09964442E-01   1.09953411E-01   1.12157469E-04   4.99999828E-02   4.99999839E-02   6.99603959E-02   6.99051688E-02   2.27202083E-04   8.77400408E-11   9.65714103E-11   9.89297126E-04   6.99716652E-02   6.99568346E-02   1.10918693E-10   9.99998502E-04   9.99876278E-04   9.94374251E-11   9.95875489E-11   9.99999064E-11
   1.73250000E+03   5.00000000E-01   5.00000000E-01   1.09965725E-01   1.09953391E-01   1.09246835E-04   4.99999830E-02   4.99999839E-02   6.99603959E-02   6.99051695E-02   2.27956346E-04   8.77400698E-11   9.65714410E-11   9.89297150E-04   6.99712837E-02   6.99568346E-02   1.12139952E-10   9.99998471E-04   9.99876278E-04   9.94374251E-11   9.95875489E-11   9.99999075E-11
   1.76750000E+03   5.00000000E-01   5.00000000E-01   1.09967057E-01   1.09953114E-01   1.06791516E-04   4.99999832E-02   4.99999839E-02   6.99603959E-02   6.99051701E-02   2.28592364E-04   8.77400999E-11   9.65714706E-11   9.89297175E-04   6.99710042E-02   6.99568346E-02   1.13459748E-10   9.99998609E-04   9.99876278E-04   9.94374251E-11   9.95875488E-11   9.99999083E-11
   1.80250000E+03   5.00000000E-01   5.00000000E-01   1.09968395E-01   1.09952812E-01   1.03962546E-04   4.99999834E-02   4.99999838E-02   6.99603959E-02   6.99051701E-02   2.29325969E-04   8.77401186E-11   9.65714895E-11   9.89297190E-04   6.99709246E-02   6.99568346E-02   1.14884328E-10   9.99998755E-04   9.99876278E-04   9.94374251E-11   9.95875487E-11   9.99999088E-11
   1.83750000E+03   5.00000000E-01   5.00000000E-01   1.09969672E-01   1.09952687E-01   9.99258188E-05   4.99999835E-02   4.99999838E-02   6.99603959E-02   6.99051691E-02   2.30374138E-04   8.77401127E-11   9.65714893E-11   9.89297186E-04   6.99713313E-02   6.99568346E-02   1.16419284E-10   9.99998817E-04   9.99876278E-04   9.94374251E-11   9.95875487E-11   9.99999095E-11
   1.87250000E+03   5.00000000E-01   5.00000000E-01   1.09970824E-01   1.09952843E-01   9.43714352E-05   4.99999837E-02   4.99999839E-02   6.99603959E-02   6.99051668E-02   2.31817415E-04   8.77400756E-11   9.65714673E-11   9.89297159E-04   6.99723973E-02   6.99568346E-02   1.18069915E-10   9.99998830E-04   9.99876278E-04   9.94374251E-11   9.95875486E-11   9.99999105E-11
   1.90750000E+03   5.00000000E-01   5.00000000E-01   1.09971864E-01   1.09953226E-01   8.86558946E-05   4.99999839E-02   4.99999840E-02   6.99603959E-02   6.99051641E-02   2.33303034E-04   8.77400253E-11   9.65714363E-11   9.89297123E-04   6.99734474E-02   6.99568346E-02   1.19845055E-10   9.99998852E-04   9.99876278E-04   9.94374251E-11   9.95875486E-11   9.99999116E-11
   1.94250000E+03   5.00000000E-01   5.00000000E-01   1.09972858E-01   1.09953595E-01   8.45056461E-05   4.99999841E-02   4.99999840E-02   6.99603959E-02   6.99051619E-02   2.34381998E-04   8.77399870E-11   9.65714141E-11   9.89297096E-04   6.99737969E-02   6.99568346E-02   1.21756991E-10   9.99998873E-04   9.99876278E-04   9.94374251E-11   9.95875486E-11   9.99999127E-11
   1.97750000E+03   5.00000000E-01   5.00000000E-01   1.09973836E-01   1.09953640E-01   8.24924061E-05   4.99999843E-02   4.99999841E-02   6.99603959E-02   6.99051603E-02   2.34905773E-04   8.77399690E-11   9.65714036E-11   9.89297083E-04   6.99735220E-02   6.99568346E-02   1.23817811E-10   9.99998904E-04   9.99876278E-04   9.94374251E-11   9.95875486E-11   9.99999132E-11
   2.01250000E+03   5.00000000E-01   5.00000000E-01   1.09974805E-01   1.09953300E-01   8.21254061E-05   4.99999844E-02   4.99999841E-02   6.99603959E-02   6.99051590E-02   2.35002282E-04   8.77399629E-11   9.65713940E-11   9.89297078E-04   6.99729202E-02   6.99568346E-02   1.26038786E-10   9.99998944E-04   9.99876278E-04   9.94374251E-11   9.95875486E-11   9.99999131E-11
   2.04750000E+03   5.00000000E-01   5.00000000E-01   1.09975765E-01   1.09952741E-01   8.25608023E-05   4.99999845E-02   4.99999840E-02   6.99603959E-02   6.99051572E-02   2.34891137E-04   8.77399550E-11   9.65713727E-11   9.89297070E-04   6.99721891E-02   6.99568346E-02   1.28430997E-10   9.99998967E-04   9.99876278E-04   9.94374251E-11   9.95875486E-11   9.99999124E-11
   2.08250000E+03   5.00000000E-01   5.00000000E-01   1.09976715E-01   1.09952111E-01   8.32915718E-05   4.99999847E-02   4.99999840E-02   6.99603959E-02   6.99051548E-02   2.34704095E-04   8.77399384E-11   9.65713355E-11   9.89297052E-04   6.99714258E-02   6.99568346E-02   1.31005343E-10   9.99998964E-04   9.99876278E-04   9.94374251E-11   9.95875486E-11   9.99999113E-11
   2.11750000E+03   5.00000000E-01   5.00000000E-01   1.09977652E-01   1.09951469E-01   8.41488840E-05   4.99999848E-02   4.99999839E-02   6.99603959E-02   6.99051519E-02   2.34484810E-04   8.77399131E-11   9.65712859E-11   9.89297025E-04   6.99706759E-02   6.99568346E-02   1.33772481E-10   9.99998935E-04   9.99876278E-04   9.94374251E-11   9.95875486E-11   9.99999099E-11
   2.15250000E+03   5.00000000E-01   5.00000000E-01   1.09978573E-01   1.09950829E-01   8.51014206E-05   4.99999850E-02   4.99999839E-02   6.99603959E-02   6.99051487E-02   2.34241164E-04   8.77398823E-11   9.65712295E-11   9.89296993E-04   6.99699622E-02   6.99568346E-02   1.36742922E-10   9.99998884E-04   9.99876278E-04   9.94374251E-11   9.95875486E-11   9.99999084E-11
   2.18750000E+03   5.00000000E-01   5.00000000E-01   1.09979479E-01   1.09950191E-01   8.61514486E-05   4.99999851E-02   4.99999838E-02   6.99603959E-02   6.99051454E-02   2.33972361E-04   8.77398495E-11   9.65711713E-11   9.89296957E-04   6.99692969E-02   6.99568346E-02   1.39927116E-10   9.99998813E-04   9.99876278E-04   9.94374251E-11   9.95875486E-11   9.99999068E-11
   2.22250000E+03   5.00000000E-01   5.00000000E-01   1.09980370E-01   1.09949552E-01   8.73030463E-05   4.99999853E-02   4.99999838E-02   6.99603959E-02   6.99051422E-02   2.33677199E-04   8.77398169E-11   9.65711145E-11   9.89296921E-04   6.99686861E-02   6.99568346E-02   1.43335448E-10   9.99998720E-04   9.99876278E-04   9.94374251E-11   9.95875486E-11   9.99999051E-11
   2.25750000E+03   5.00000000E-01   5.00000000E-01   1.09981250E-01   1.09948911E-01   8.85557417E-05   4.99999855E-02   4.99999838E-02   6.99603959E-02   6.99051391E-02   2.33355705E-04   8.77397863E-11   9.65710613E-11   9.89296885E-04   6.99681316E-02   6.99568346E-02   1.46978164E-10   9.99998607E-04   9.99876278E-04   9.94374251E-11   9.95875486E-11   9.99999034E-11
   2.29250000E+03   5.00000000E-01   5.00000000E-01   1.09982123E-01   1.09948266E-01   8.99046337E-05   4.99999856E-02   4.99999837E-02   6.99603959E-02   6.99051362E-02   2.33009091E-04   8.77397586E-11   9.65710128E-11   9.89296852E-04   6.99676323E-02   6.99568346E-02   1.50865257E-10   9.99998473E-04   9.99876278E-04   9.94374251E-11   9.95875486E-11   9.99999017E-11
   2.32750000E+03   5.00000000E-01   5.00000000E-01   1.09982996E-01   1.09947618E-01   9.13414212E-05   4.99999858E-02   4.99999837E-02   6.99603959E-02   6.99051334E-02   2.32639475E-04   8.77397342E-11   9.65709697E-11   9.89296820E-04   6.99671843E-02   6.99568346E-02   1.55006305E-10   9.99998317E-04   9.99876278E-04   9.94374251E-11   9.95875486E-11   9.99998999E-11
   2.36250000E+03   5.00000000E-01   5.00000000E-01   1.09983875E-01   1.09946967E-01   9.28550587E-05   4.99999861E-02   4.99999837E-02   6.99603959E-02   6.99051310E-02   2.32249702E-04   8.77397133E-11   9.65709320E-11   9.89296792E-04   6.99667825E-02   6.99568346E-02   1.59410283E-10   9.99998138E-04   9.99876278E-04   9.94374251E-11   9.95875486E-11   9.99998982E-11
   2.39750000E+03   5.00000000E-01   5.00000000E-01   1.09984768E-01   1.09946315E-01   9.44319309E-05   4.99999863E-02   4.99999836E-02   6.99603959E-02   6.99051287E-02   2.31843294E-04   8.77396958E-11   9.65708997E-11   9.89296767E-04   6.99664204E-02   6.99568346E-02   1.64085346E-10   9.99997935E-04   9.99876278E-04   9.94374251E-11   9.95875486E-11   9.99998964E-11
   2.43250000E+03   5.00000000E-01   5.00000000E-01   1.09985681E-01   1.09945664E-01   9.60557240E-05   4.99999865E-02   4.99999836E-02   6.99603959E-02   6.99051267E-02   2.31424480E-04   8.77396814E-11   9.65708724E-11   9.89296745E-04   6.99660913E-02   6.99568346E-02   1.69038583E-10   9.99997704E-04   9.99876278E-04   9.94374251E-11   9.95875487E-11   9.99998947E-11
   2.46750000E+03   5.00000000E-01   5.00000000E-01   1.09986621E-01   1.09945015E-01   9.77071841E-05   4.99999868E-02   4.99999836E-02   6.99603959E-02   6.99051249E-02   2.30998257E-04   8.77396699E-11   9.65708498E-11   9.89296726E-04   6.99657885E-02   6.99568346E-02   1.74275743E-10   9.99997442E-04   9.99876278E-04   9.94374251E-11   9.95875487E-11   9.99998929E-11
   2.50250000E+03   5.00000000E-01   5.00000000E-01   1.09987597E-01   1.09944373E-01   9.93639090E-05   4.99999870E-02   4.99999835E-02   6.99603959E-02   6.99051233E-02   2.30570442E-04   8.77396608E-11   9.65708312E-11   9.89296710E-04   6.99655058E-02   6.99568346E-02   1.79800928E-10   9.99997144E-04   9.99876278E-04   9.94374251E-11   9.95875487E-11   9.99998912E-11
   2.53750000E+03   5.00000000E-01   5.00000000E-01   1.09988615E-01   1.09943739E-01   1.01000234E-04   4.99999873E-02   4.99999835E-02   6.99603959E-02   6.99051220E-02   2.30147696E-04   8.77396538E-11   9.65708163E-11   9.89296697E-04   6.99652375E-02   6.99568346E-02   1.85616264E-10   9.99996805E-04   9.99876278E-04   9.94374251E-11   9.95875487E-11   9.99998895E-11
   2.57250000E+03   5.00000000E-01   5.00000000E-01   1.09989684E-01   1.09943118E-01   1.02587214E-04   4.99999876E-02   4.99999835E-02   6.99603959E-02   6.99051208E-02   2.29737528E-04   8.77396485E-11   9.65708044E-11   9.89296686E-04   6.99649787E-02   6.99568346E-02   1.91721526E-10   9.99996419E-04   9.99876278E-04   9.94374251E-11   9.95875487E-11   9.99998879E-11
   2.60750000E+03   5.00000000E-01   5.00000000E-01   1.09990812E-01   1.09942513E-01   1.04092648E-04   4.99999879E-02   4.99999834E-02   6.99603959E-02   6.99051198E-02   2.29348283E-04   8.77396445E-11   9.65707951E-11   9.89296677E-04   6.99647256E-02   6.99568346E-02   1.98113739E-10   9.99995977E-04   9.99876278E-04   9.94374251E-11   9.95875487E-11   9.99998863E-11
   2.64250000E+03   5.00000000E-01   5.00000000E-01   1.09992009E-01   1.09941928E-01   1.05481094E-04   4.99999883E-02   4.99999834E-02   6.99603959E-02   6.99051189E-02   2.28989136E-04   8.77396416E-11   9.65707879E-11   9.89296669E-04   6.99644758E-02   6.99568346E-02   2.04786722E-10   9.99995473E-04   9.99876278E-04   9.94374251E-11   9.95875487E-11   9.99998848E-11
   2.67750000E+03   5.00000000E-01   5.00000000E-01   1.09993286E-01   1.09941363E-01   1.06713812E-04   4.99999886E-02   4.99999834E-02   6.99603959E-02   6.99051182E-02   2.28670094E-04   8.77396395E-11   9.65707823E-11   9.89296664E-04   6.99642283E-02   6.99568346E-02   2.11730602E-10   9.99994897E-04   9.99876278E-04   9.94374251E-11   9.95875487E-11   9.99998834E-11
   2.71250000E+03   5.00000000E-01   5.00000000E-01   1.09994654E-01   1.09940823E-01   1.07748624E-04   4.99999890E-02   4.99999833E-02   6.99603959E-02   6.99051176E-02   2.28402024E-04   8.77396379E-11   9.65707781E-11   9.89296659E-04   6.99639837E-02   6.99568346E-02   2.18931261E-10   9.99994243E-04   9.99876278E-04   9.94374251E-11   9.95875487E-11   9.99998821E-11