 TITLE = "Mineral Volumes" 
VARIABLES = "X"          "Y"              "Z"            "Forsterite"     "Enstatite(alph" "Anorthite"      "Tremolite"      "Pargasite"      "Anhydrite"      "Clinochlore"    "Albite(low)"    "Fayalite"       "Epidote"        "Kaolinite"      "Muscovite(orde" "Sudoite"        "Saponite(Mg)"   "Scolecite"      "FeS(am)"        "Quartz(alpha)"  "Montmorillonit"
 ZONE I=         100 , J=           1 , K=           1  F=POINT
   1.75000000E+01   5.00000000E-01   5.00000000E-01   1.99944766E-01   9.99960642E-02   6.99872866E-02   6.66078584E-02   6.66007111E-02   6.05976848E-02   4.81471961E-03   6.91037942E-02   2.79415234E-02   9.99999998E-04   8.79376495E-04   0.00000000E+00   0.00000000E+00   3.15281875E-03   7.96573963E-04   0.00000000E+00   1.99521946E-04   1.49840023E-01
   5.25000000E+01   5.00000000E-01   5.00000000E-01   1.99944766E-01   9.99960645E-02   6.99872866E-02   6.66079008E-02   6.66007111E-02   6.64250849E-02   3.97491793E-03   6.97231005E-02   2.79415324E-02   1.00000000E-03   8.79448789E-04   0.00000000E+00   0.00000000E+00   3.70037641E-03   7.96586072E-04   0.00000000E+00   2.70811833E-04   1.49872670E-01
   8.75000000E+01   5.00000000E-01   5.00000000E-01   1.99944766E-01   9.99960650E-02   6.99872866E-02   6.66079581E-02   6.66007111E-02   7.25868559E-02   3.52995852E-03   7.00306648E-02   2.79415466E-02   1.00000000E-03   8.79490731E-04   0.00000000E+00   0.00000000E+00   4.04512797E-03   7.96596923E-04   0.00000000E+00   2.95094330E-04   1.49895908E-01
   1.22500000E+02   5.00000000E-01   5.00000000E-01   1.99944766E-01   9.99960656E-02   6.99872866E-02   6.66080075E-02   6.66007111E-02   7.86443676E-02   3.34858874E-03   7.01496114E-02   2.79415657E-02   1.00000000E-03   8.79515582E-04   0.00000000E+00   0.00000000E+00   4.19598140E-03   7.96605334E-04   0.00000000E+00   3.00947213E-04   1.49908495E-01
   1.57500000E+02   5.00000000E-01   5.00000000E-01   1.99944766E-01   9.99960662E-02   6.99872866E-02   6.66080439E-02   6.66007111E-02   8.42640748E-02   3.27853067E-03   7.01911232E-02   2.79415894E-02   1.00000000E-03   8.79534359E-04   0.00000000E+00   0.00000000E+00   4.25877223E-03   7.96612155E-04   0.00000000E+00   2.99901432E-04   1.49916020E-01
   1.92500000E+02   5.00000000E-01   5.00000000E-01   1.99944766E-01   9.99960668E-02   6.99872866E-02   6.66080679E-02   6.66007111E-02   8.92336730E-02   3.25260126E-03   7.02022229E-02   2.79416174E-02   1.00000000E-03   8.79551160E-04   0.00000000E+00   0.00000000E+00   4.28612780E-03   7.96617924E-04   0.00000000E+00   2.96283281E-04   1.49921409E-01
   2.27500000E+02   5.00000000E-01   5.00000000E-01   1.99944766E-01   9.99960674E-02   6.99872866E-02   6.66080816E-02   6.66007111E-02   9.34552510E-02   3.24426694E-03   7.02012064E-02   2.79416495E-02   1.00000000E-03   8.79567564E-04   0.00000000E+00   0.00000000E+00   4.29946301E-03   7.96622935E-04   0.00000000E+00   2.91714862E-04   1.49925918E-01
   2.62500000E+02   5.00000000E-01   5.00000000E-01   1.99944766E-01   9.99960680E-02   6.99872866E-02   6.66080872E-02   6.66007111E-02   9.69217233E-02   3.24316199E-03   7.01951658E-02   2.79416857E-02   1.00000000E-03   8.79584214E-04   0.00000000E+00   0.00000000E+00   4.30722927E-03   7.96627360E-04   0.00000000E+00   2.86815833E-04   1.49930064E-01
   2.97500000E+02   5.00000000E-01   5.00000000E-01   1.99944766E-01   9.99960687E-02   6.99872866E-02   6.66080867E-02   6.66007111E-02   9.96870052E-02   3.24518961E-03   7.01868888E-02   2.79417257E-02   1.00000000E-03   8.79601385E-04   0.00000000E+00   0.00000000E+00   4.31278644E-03   7.96631312E-04   0.00000000E+00   2.81828947E-04   1.49934060E-01
   3.32500000E+02   5.00000000E-01   5.00000000E-01   1.99944766E-01   9.99960693E-02   6.99872866E-02   6.66080818E-02   6.66007111E-02   1.01830799E-01   3.24870144E-03   7.01774935E-02   2.79417696E-02   1.00000000E-03   8.79619203E-04   0.00000000E+00   0.00000000E+00   4.31749355E-03   7.96634874E-04   0.00000000E+00   2.76852032E-04   1.49937992E-01
   3.67500000E+02   5.00000000E-01   5.00000000E-01   1.99944766E-01   9.99960700E-02   6.99872866E-02   6.66080740E-02   6.66007111E-02   1.03450390E-01   3.25302406E-03   7.01674379E-02   2.79418173E-02   1.00000000E-03   8.79637721E-04   0.00000000E+00   0.00000000E+00   4.32190859E-03   7.96638116E-04   0.00000000E+00   2.71925488E-04   1.49941894E-01
   4.02500000E+02   5.00000000E-01   5.00000000E-01   1.99944766E-01   9.99960708E-02   6.99872866E-02   6.66080644E-02   6.66007111E-02   1.04654074E-01   3.25788116E-03   7.01569139E-02   2.79418686E-02   1.00000000E-03   8.79656964E-04   0.00000000E+00   0.00000000E+00   4.32625973E-03   7.96641092E-04   0.00000000E+00   2.67066097E-04   1.49945779E-01
   4.37500000E+02   5.00000000E-01   5.00000000E-01   1.99944766E-01   9.99960715E-02   6.99872866E-02   6.66080541E-02   6.66007111E-02   1.05532504E-01   3.26315769E-03   7.01460079E-02   2.79419236E-02   9.99999999E-04   8.79676939E-04   0.00000000E+00   0.00000000E+00   4.33063567E-03   7.96643845E-04   0.00000000E+00   2.62280816E-04   1.49949645E-01
   4.72500000E+02   5.00000000E-01   5.00000000E-01   1.99944766E-01   9.99960723E-02   6.99872866E-02   6.66080441E-02   6.66007111E-02   1.06159408E-01   3.26880325E-03   7.01347652E-02   2.79419822E-02   9.99999999E-04   8.79697648E-04   0.00000000E+00   0.00000000E+00   4.33506374E-03   7.96646412E-04   0.00000000E+00   2.57572489E-04   1.49953490E-01
   5.07500000E+02   5.00000000E-01   5.00000000E-01   1.99944766E-01   9.99960731E-02   6.99872866E-02   6.66080357E-02   6.66007111E-02   1.06593573E-01   3.27479181E-03   7.01232177E-02   2.79420444E-02   9.99999999E-04   8.79719084E-04   0.00000000E+00   0.00000000E+00   4.33954200E-03   7.96648821E-04   0.00000000E+00   2.52941932E-04   1.49957308E-01
   5.42500000E+02   5.00000000E-01   5.00000000E-01   1.99944766E-01   9.99960739E-02   6.99872866E-02   6.66080305E-02   6.66007111E-02   1.06881156E-01   3.28110432E-03   7.01113948E-02   2.79421102E-02   9.99999999E-04   8.79741241E-04   0.00000000E+00   0.00000000E+00   4.34405307E-03   7.96651098E-04   0.00000000E+00   2.48389412E-04   1.49961093E-01
   5.77500000E+02   5.00000000E-01   5.00000000E-01   1.99944766E-01   9.99960747E-02   6.99872866E-02   6.66080295E-02   6.66007111E-02   1.07057959E-01   3.28772101E-03   7.00993283E-02   2.79421796E-02   9.99999999E-04   8.79764111E-04   0.00000000E+00   0.00000000E+00   4.34857092E-03   7.96653262E-04   0.00000000E+00   2.43914854E-04   1.49964840E-01
   6.12500000E+02   5.00000000E-01   5.00000000E-01   1.99944766E-01   9.99960756E-02   6.99872866E-02   6.66080327E-02   6.66007111E-02   1.07151480E-01   3.29461791E-03   7.00870542E-02   2.79422525E-02   9.99999999E-04   8.79787687E-04   0.00000000E+00   0.00000000E+00   4.35306419E-03   7.96655330E-04   0.00000000E+00   2.39518030E-04   1.49968544E-01
   6.47500000E+02   5.00000000E-01   5.00000000E-01   1.99944766E-01   9.99960765E-02   6.99872866E-02   6.66080393E-02   6.66007111E-02   1.07182668E-01   3.30176565E-03   7.00746134E-02   2.79423292E-02   9.99999999E-04   8.79811963E-04   0.00000000E+00   0.00000000E+00   4.35749697E-03   7.96657319E-04   0.00000000E+00   2.35198886E-04   1.49972203E-01
   6.82500000E+02   5.00000000E-01   5.00000000E-01   1.99944766E-01   9.99960775E-02   6.99872866E-02   6.66080483E-02   6.66007111E-02   1.07167388E-01   3.30912943E-03   7.00620515E-02   2.79424094E-02   9.99999999E-04   8.79836938E-04   0.00000000E+00   0.00000000E+00   4.36182811E-03   7.96659241E-04   0.00000000E+00   2.30957656E-04   1.49975813E-01
   7.17500000E+02   5.00000000E-01   5.00000000E-01   1.99944766E-01   9.99960784E-02   6.99872866E-02   6.66080590E-02   6.66007111E-02   1.07117593E-01   3.31666925E-03   7.00494183E-02   2.79424934E-02   9.99999998E-04   8.79862613E-04   0.00000000E+00   0.00000000E+00   4.36601124E-03   7.96661109E-04   0.00000000E+00   2.26794612E-04   1.49979374E-01
   7.52500000E+02   5.00000000E-01   5.00000000E-01   1.99944766E-01   9.99960794E-02   6.99872866E-02   6.66080711E-02   6.66007111E-02   1.07042261E-01   3.32434016E-03   7.00367674E-02   2.79425810E-02   9.99999998E-04   8.79888995E-04   0.00000000E+00   0.00000000E+00   4.36999548E-03   7.96662935E-04   0.00000000E+00   2.22709827E-04   1.49982888E-01
   7.87500000E+02   5.00000000E-01   5.00000000E-01   1.99944766E-01   9.99960805E-02   6.99872866E-02   6.66080842E-02   6.66007111E-02   1.06948124E-01   3.33209289E-03   7.00241553E-02   2.79426724E-02   9.99999997E-04   8.79916097E-04   0.00000000E+00   0.00000000E+00   4.37372597E-03   7.96664731E-04   0.00000000E+00   2.18703697E-04   1.49986357E-01
   8.22500000E+02   5.00000000E-01   5.00000000E-01   1.99944766E-01   9.99960815E-02   6.99872866E-02   6.66080983E-02   6.66007111E-02   1.06840232E-01   3.33987456E-03   7.00116406E-02   2.79427675E-02   9.99999997E-04   8.79943939E-04   0.00000000E+00   0.00000000E+00   4.37714506E-03   7.96666508E-04   0.00000000E+00   2.14776634E-04   1.49989787E-01
   8.57500000E+02   5.00000000E-01   5.00000000E-01   1.99944766E-01   9.99960826E-02   6.99872866E-02   6.66081133E-02   6.66007111E-02   1.06722375E-01   3.34762956E-03   6.99992828E-02   2.79428664E-02   9.99999996E-04   8.79972548E-04   0.00000000E+00   0.00000000E+00   4.38019328E-03   7.96668277E-04   0.00000000E+00   2.10929426E-04   1.49993182E-01
   8.92500000E+02   5.00000000E-01   5.00000000E-01   1.99944766E-01   9.99960837E-02   6.99872866E-02   6.66081290E-02   6.66007111E-02   1.06597411E-01   3.35530007E-03   6.99871417E-02   2.79429691E-02   9.99999995E-04   8.80001959E-04   0.00000000E+00   0.00000000E+00   4.38281145E-03   7.96670052E-04   0.00000000E+00   2.07162258E-04   1.49996551E-01
   9.27500000E+02   5.00000000E-01   5.00000000E-01   1.99944766E-01   9.99960849E-02   6.99872866E-02   6.66081453E-02   6.66007111E-02   1.06467505E-01   3.36282773E-03   6.99752759E-02   2.79430754E-02   9.99999993E-04   8.80032213E-04   0.00000000E+00   0.00000000E+00   4.38494133E-03   7.96671843E-04   0.00000000E+00   2.03475612E-04   1.49999902E-01
   9.62500000E+02   5.00000000E-01   5.00000000E-01   1.99944766E-01   9.99960861E-02   6.99872866E-02   6.66081623E-02   6.66007111E-02   1.06334307E-01   3.37015513E-03   6.99637410E-02   2.79431855E-02   9.99999991E-04   8.80063360E-04   0.00000000E+00   0.00000000E+00   4.38652711E-03   7.96673665E-04   0.00000000E+00   1.99870122E-04   1.50003245E-01
   9.97500000E+02   5.00000000E-01   5.00000000E-01   1.99944766E-01   9.99960873E-02   6.99872866E-02   6.66081798E-02   6.66007111E-02   1.06199082E-01   3.37722664E-03   6.99525890E-02   2.79432992E-02   9.99999988E-04   8.80095454E-04   0.00000000E+00   0.00000000E+00   4.38751729E-03   7.96675528E-04   0.00000000E+00   1.96346385E-04   1.50006591E-01
   1.03250000E+03   5.00000000E-01   5.00000000E-01   1.99944766E-01   9.99960885E-02   6.99872866E-02   6.66081978E-02   6.66007111E-02   1.06062807E-01   3.38398919E-03   6.99418675E-02   2.79434164E-02   9.99999985E-04   8.80128558E-04   0.00000000E+00   0.00000000E+00   4.38786704E-03   7.96677448E-04   0.00000000E+00   1.92904099E-04   1.50009951E-01
   1.06750000E+03   5.00000000E-01   5.00000000E-01   1.99944766E-01   9.99960898E-02   6.99872866E-02   6.66082161E-02   6.66007111E-02   1.05926241E-01   3.39039377E-03   6.99316182E-02   2.79435370E-02   9.99999981E-04   8.80162737E-04   0.00000000E+00   0.00000000E+00   4.38753899E-03   7.96679435E-04   0.00000000E+00   1.89543178E-04   1.50013336E-01
   1.10250000E+03   5.00000000E-01   5.00000000E-01   1.99944766E-01   9.99960912E-02   6.99872866E-02   6.66082347E-02   6.66007111E-02   1.05789977E-01   3.39639637E-03   6.99218766E-02   2.79436609E-02   9.99999975E-04   8.80198058E-04   0.00000000E+00   0.00000000E+00   4.38650486E-03   7.96681503E-04   0.00000000E+00   1.86263289E-04   1.50016756E-01
   1.13750000E+03   5.00000000E-01   5.00000000E-01   1.99944766E-01   9.99960925E-02   6.99872866E-02   6.66082535E-02   6.66007111E-02   1.05654476E-01   3.40195905E-03   6.99126705E-02   2.79437879E-02   9.99999967E-04   8.80234588E-04   0.00000000E+00   0.00000000E+00   4.38474644E-03   7.96683665E-04   0.00000000E+00   1.83064220E-04   1.50020221E-01
   1.17250000E+03   5.00000000E-01   5.00000000E-01   1.99944766E-01   9.99960939E-02   6.99872866E-02   6.66082724E-02   6.66007111E-02   1.05520097E-01   3.40705052E-03   6.99040205E-02   2.79439178E-02   9.99999957E-04   8.80272393E-04   0.00000000E+00   0.00000000E+00   4.38225712E-03   7.96685933E-04   0.00000000E+00   1.79944689E-04   1.50023740E-01
   1.20750000E+03   5.00000000E-01   5.00000000E-01   1.99944766E-01   9.99960953E-02   6.99872866E-02   6.66082912E-02   6.66007111E-02   1.05387116E-01   3.41164691E-03   6.98959388E-02   2.79440504E-02   9.99999944E-04   8.80311535E-04   0.00000000E+00   0.00000000E+00   4.37904169E-03   7.96688319E-04   0.00000000E+00   1.76903627E-04   1.50027320E-01
   1.24250000E+03   5.00000000E-01   5.00000000E-01   1.99944766E-01   9.99960968E-02   6.99872866E-02   6.66083100E-02   6.66007111E-02   1.05255743E-01   3.41573230E-03   6.98884297E-02   2.79441855E-02   9.99999927E-04   8.80352070E-04   0.00000000E+00   0.00000000E+00   4.37511627E-03   7.96690835E-04   0.00000000E+00   1.73940156E-04   1.50030967E-01
   1.27750000E+03   5.00000000E-01   5.00000000E-01   1.99944766E-01   9.99960983E-02   6.99872866E-02   6.66083288E-02   6.66007111E-02   1.05126131E-01   3.41929868E-03   6.98814898E-02   2.79443229E-02   9.99999905E-04   8.80394044E-04   0.00000000E+00   0.00000000E+00   4.37050871E-03   7.96693490E-04   0.00000000E+00   1.71052804E-04   1.50034683E-01
   1.31250000E+03   5.00000000E-01   5.00000000E-01   1.99944766E-01   9.99960998E-02   6.99872866E-02   6.66083472E-02   6.66007111E-02   1.04998386E-01   3.42234581E-03   6.98751080E-02   2.79444623E-02   9.99999876E-04   8.80437493E-04   0.00000000E+00   0.00000000E+00   4.36525835E-03   7.96696296E-04   0.00000000E+00   1.68239006E-04   1.50038470E-01
   1.34750000E+03   5.00000000E-01   5.00000000E-01   1.99944766E-01   9.99961014E-02   6.99872866E-02   6.66083654E-02   6.66007111E-02   1.04872578E-01   3.42488133E-03   6.98692666E-02   2.79446034E-02   9.99999839E-04   8.80482440E-04   0.00000000E+00   0.00000000E+00   4.35941359E-03   7.96699264E-04   0.00000000E+00   1.65496685E-04   1.50042327E-01
   1.38250000E+03   5.00000000E-01   5.00000000E-01   1.99944766E-01   9.99961030E-02   6.99872866E-02   6.66083830E-02   6.66007111E-02   1.04748742E-01   3.42692010E-03   6.98639419E-02   2.79447459E-02   9.99999791E-04   8.80528896E-04   0.00000000E+00   0.00000000E+00   4.35303107E-03   7.96702401E-04   0.00000000E+00   1.62823571E-04   1.50046250E-01
   1.41750000E+03   5.00000000E-01   5.00000000E-01   1.99944766E-01   9.99961046E-02   6.99872866E-02   6.66084002E-02   6.66007111E-02   1.04626885E-01   3.42848356E-03   6.98591053E-02   2.79448896E-02   9.99999731E-04   8.80576853E-04   0.00000000E+00   0.00000000E+00   4.34617401E-03   7.96705717E-04   0.00000000E+00   1.60217244E-04   1.50050234E-01
   1.45250000E+03   5.00000000E-01   5.00000000E-01   1.99944767E-01   9.99961063E-02   6.99872866E-02   6.66084168E-02   6.66007111E-02   1.04506991E-01   3.42959899E-03   6.98547242E-02   2.79450343E-02   9.99999655E-04   8.80626290E-04   0.00000000E+00   0.00000000E+00   4.33891005E-03   7.96709222E-04   0.00000000E+00   1.57675733E-04   1.50054270E-01
   1.48750000E+03   5.00000000E-01   5.00000000E-01   1.99944767E-01   9.99961081E-02   6.99872866E-02   6.66084328E-02   6.66007111E-02   1.04389025E-01   3.43029855E-03   6.98507634E-02   2.79451796E-02   9.99999558E-04   8.80677169E-04   0.00000000E+00   0.00000000E+00   4.33130940E-03   7.96712924E-04   0.00000000E+00   1.55197488E-04   1.50058349E-01
   1.52250000E+03   5.00000000E-01   5.00000000E-01   1.99944767E-01   9.99961098E-02   6.99872866E-02   6.66084482E-02   6.66007111E-02   1.04272935E-01   3.43061763E-03   6.98471858E-02   2.79453253E-02   9.99999436E-04   8.80729436E-04   0.00000000E+00   0.00000000E+00   4.32344501E-03   7.96716833E-04   0.00000000E+00   1.52778421E-04   1.50062459E-01
   1.55750000E+03   5.00000000E-01   5.00000000E-01   1.99944767E-01   9.99961116E-02   6.99872866E-02   6.66084632E-02   6.66007111E-02   1.04158657E-01   3.43059445E-03   6.98439542E-02   2.79454712E-02   9.99999281E-04   8.80783021E-04   0.00000000E+00   0.00000000E+00   4.31538805E-03   7.96720957E-04   0.00000000E+00   1.50415581E-04   1.50066587E-01
   1.59250000E+03   5.00000000E-01   5.00000000E-01   1.99944767E-01   9.99961135E-02   6.99872866E-02   6.66084776E-02   6.66007111E-02   1.04046116E-01   3.43026866E-03   6.98410317E-02   2.79456170E-02   9.99999087E-04   8.80837840E-04   0.00000000E+00   0.00000000E+00   4.30720729E-03   7.96725306E-04   0.00000000E+00   1.48107144E-04   1.50070720E-01
   1.62750000E+03   5.00000000E-01   5.00000000E-01   1.99944767E-01   9.99961154E-02   6.99872866E-02   6.66084914E-02   6.66007111E-02   1.03935231E-01   3.42968000E-03   6.98383833E-02   2.79457626E-02   9.99998843E-04   8.80893796E-04   0.00000000E+00   0.00000000E+00   4.29896885E-03   7.96729891E-04   0.00000000E+00   1.45849764E-04   1.50074841E-01
   1.66250000E+03   5.00000000E-01   5.00000000E-01   1.99944768E-01   9.99961173E-02   6.99872867E-02   6.66085046E-02   6.66007111E-02   1.03825914E-01   3.42886759E-03   6.98359760E-02   2.79459078E-02   9.99998541E-04   8.80950781E-04   0.00000000E+00   0.00000000E+00   4.29073369E-03   7.96734724E-04   0.00000000E+00   1.43641051E-04   1.50078936E-01
   1.69750000E+03   5.00000000E-01   5.00000000E-01   1.99944768E-01   9.99961193E-02   6.99872867E-02   6.66085173E-02   6.66007111E-02   1.03718076E-01   3.42786890E-03   6.98337800E-02   2.79460524E-02   9.99998174E-04   8.81008677E-04   0.00000000E+00   0.00000000E+00   4.28255752E-03   7.96739817E-04   0.00000000E+00   1.41478730E-04   1.50082989E-01
   1.73250000E+03   5.00000000E-01   5.00000000E-01   1.99944769E-01   9.99961214E-02   6.99872867E-02   6.66085295E-02   6.66007111E-02   1.03611629E-01   3.42671912E-03   6.98317692E-02   2.79461964E-02   9.99997736E-04   8.81067357E-04   0.00000000E+00   0.00000000E+00   4.27448965E-03   7.96745185E-04   0.00000000E+00   1.39361972E-04   1.50086986E-01
   1.76750000E+03   5.00000000E-01   5.00000000E-01   1.99944770E-01   9.99961235E-02   6.99872867E-02   6.66085415E-02   6.66007111E-02   1.03506487E-01   3.42545012E-03   6.98299212E-02   2.79463396E-02   9.99997221E-04   8.81126688E-04   0.00000000E+00   0.00000000E+00   4.26657445E-03   7.96750845E-04   0.00000000E+00   1.37287565E-04   1.50090911E-01
   1.80250000E+03   5.00000000E-01   5.00000000E-01   1.99944771E-01   9.99961256E-02   6.99872867E-02   6.66085532E-02   6.66007111E-02   1.03402567E-01   3.42409004E-03   6.98282176E-02   2.79464821E-02   9.99996620E-04   8.81186532E-04   0.00000000E+00   0.00000000E+00   4.25885057E-03   7.96756813E-04   0.00000000E+00   1.35253431E-04   1.50094749E-01
   1.83750000E+03   5.00000000E-01   5.00000000E-01   1.99944772E-01   9.99961278E-02   6.99872867E-02   6.66085647E-02   6.66007111E-02   1.03299795E-01   3.42266322E-03   6.98266445E-02   2.79466238E-02   9.99995919E-04   8.81246745E-04   0.00000000E+00   0.00000000E+00   4.25135047E-03   7.96763109E-04   0.00000000E+00   1.33257855E-04   1.50098489E-01
   1.87250000E+03   5.00000000E-01   5.00000000E-01   1.99944774E-01   9.99961301E-02   6.99872867E-02   6.66085760E-02   6.66007111E-02   1.03198106E-01   3.42118979E-03   6.98251920E-02   2.79467649E-02   9.99995093E-04   8.81307184E-04   0.00000000E+00   0.00000000E+00   4.24410116E-03   7.96769757E-04   0.00000000E+00   1.31299260E-04   1.50102116E-01
   1.90750000E+03   5.00000000E-01   5.00000000E-01   1.99944776E-01   9.99961324E-02   6.99872867E-02   6.66085875E-02   6.66007111E-02   1.03097445E-01   3.41968559E-03   6.98238545E-02   2.79469056E-02   9.99994117E-04   8.81367702E-04   0.00000000E+00   0.00000000E+00   4.23712484E-03   7.96776782E-04   0.00000000E+00   1.29376197E-04   1.50105621E-01
   1.94250000E+03   5.00000000E-01   5.00000000E-01   1.99944780E-01   9.99961348E-02   6.99872867E-02   6.66085989E-02   6.66007111E-02   1.02997771E-01   3.41816198E-03   6.98226300E-02   2.79470460E-02   9.99992971E-04   8.81428151E-04   0.00000000E+00   0.00000000E+00   4.23043969E-03   7.96784209E-04   0.00000000E+00   1.27487336E-04   1.50108990E-01
   1.97750000E+03   5.00000000E-01   5.00000000E-01   1.99944784E-01   9.99961372E-02   6.99872867E-02   6.66086105E-02   6.66007111E-02   1.02899058E-01   3.41662607E-03   6.98215206E-02   2.79471864E-02   9.99991660E-04   8.81488382E-04   0.00000000E+00   0.00000000E+00   4.22405992E-03   7.96792071E-04   0.00000000E+00   1.25631452E-04   1.50112217E-01
   2.01250000E+03   5.00000000E-01   5.00000000E-01   1.99944789E-01   9.99961397E-02   6.99872867E-02   6.66086225E-02   6.66007111E-02   1.02801296E-01   3.41508087E-03   6.98205317E-02   2.79473274E-02   9.99990213E-04   8.81548247E-04   0.00000000E+00   0.00000000E+00   4.21799632E-03   7.96800401E-04   0.00000000E+00   1.23807490E-04   1.50115290E-01
   2.04750000E+03   5.00000000E-01   5.00000000E-01   1.99944796E-01   9.99961423E-02   6.99872867E-02   6.66086349E-02   6.66007111E-02   1.02704493E-01   3.41352544E-03   6.98196720E-02   2.79474693E-02   9.99988677E-04   8.81607596E-04   0.00000000E+00   0.00000000E+00   4.21225679E-03   7.96809235E-04   0.00000000E+00   1.22016554E-04   1.50118204E-01
   2.08250000E+03   5.00000000E-01   5.00000000E-01   1.99944805E-01   9.99961449E-02   6.99872867E-02   6.66086477E-02   6.66007111E-02   1.02608674E-01   3.41195467E-03   6.98189534E-02   2.79476128E-02   9.99987105E-04   8.81666277E-04   0.00000000E+00   0.00000000E+00   4.20684862E-03   7.96818614E-04   0.00000000E+00   1.20255273E-04   1.50120951E-01
   2.11750000E+03   5.00000000E-01   5.00000000E-01   1.99944817E-01   9.99961476E-02   6.99872867E-02   6.66086607E-02   6.66007111E-02   1.02513885E-01   3.41035999E-03   6.98183906E-02   2.79477587E-02   9.99985539E-04   8.81724140E-04   0.00000000E+00   0.00000000E+00   4.20177668E-03   7.96828583E-04   0.00000000E+00   1.18522737E-04   1.50123524E-01
   2.15250000E+03   5.00000000E-01   5.00000000E-01   1.99944832E-01   9.99961503E-02   6.99872867E-02   6.66086740E-02   6.66007111E-02   1.02420189E-01   3.40872942E-03   6.98180012E-02   2.79479079E-02   9.99984009E-04   8.81781030E-04   0.00000000E+00   0.00000000E+00   4.19704474E-03   7.96839191E-04   0.00000000E+00   1.16818083E-04   1.50125919E-01
   2.18750000E+03   5.00000000E-01   5.00000000E-01   1.99944852E-01   9.99961532E-02   6.99872867E-02   6.66086876E-02   6.66007111E-02   1.02327666E-01   3.40704760E-03   6.98178053E-02   2.79480614E-02   9.99982533E-04   8.81836791E-04   0.00000000E+00   0.00000000E+00   4.19265596E-03   7.96850492E-04   0.00000000E+00   1.15140481E-04   1.50128130E-01
   2.22250000E+03   5.00000000E-01   5.00000000E-01   1.99944876E-01   9.99961561E-02   6.99872867E-02   6.66087012E-02   6.66007111E-02   1.02236416E-01   3.40529595E-03   6.98178258E-02   2.79482206E-02   9.99981126E-04   8.81891263E-04   0.00000000E+00   0.00000000E+00   4.18861337E-03   7.96862545E-04   0.00000000E+00   1.13489127E-04   1.50130152E-01
   2.25750000E+03   5.00000000E-01   5.00000000E-01   1.99944906E-01   9.99961590E-02   6.99872868E-02   6.66087148E-02   6.66007111E-02   1.02146550E-01   3.40345267E-03   6.98180882E-02   2.79483868E-02   9.99979775E-04   8.81944282E-04   0.00000000E+00   0.00000000E+00   4.18492021E-03   7.96875415E-04   0.00000000E+00   1.11863227E-04   1.50131982E-01
   2.29250000E+03   5.00000000E-01   5.00000000E-01   1.99944943E-01   9.99961621E-02   6.99872868E-02   6.66087281E-02   6.66007111E-02   1.02058193E-01   3.40149279E-03   6.98186207E-02   2.79485619E-02   9.99978430E-04   8.81995676E-04   0.00000000E+00   0.00000000E+00   4.18158035E-03   7.96889174E-04   0.00000000E+00   1.10261993E-04   1.50133614E-01
   2.32750000E+03   5.00000000E-01   5.00000000E-01   1.99944989E-01   9.99961652E-02   6.99872868E-02   6.66087411E-02   6.66007111E-02   1.01971479E-01   3.39938797E-03   6.98194546E-02   2.79487479E-02   9.99977014E-04   8.82045269E-04   0.00000000E+00   0.00000000E+00   4.17859866E-03   7.96903902E-04   0.00000000E+00   1.08684629E-04   1.50135046E-01
   2.36250000E+03   5.00000000E-01   5.00000000E-01   1.99945044E-01   9.99961684E-02   6.99872868E-02   6.66087534E-02   6.66007111E-02   1.01886548E-01   3.39710626E-03   6.98206243E-02   2.79489473E-02   9.99975452E-04   8.82092874E-04   0.00000000E+00   0.00000000E+00   4.17598144E-03   7.96919689E-04   0.00000000E+00   1.07130323E-04   1.50136271E-01
   2.39750000E+03   5.00000000E-01   5.00000000E-01   1.99945109E-01   9.99961716E-02   6.99872869E-02   6.66087652E-02   6.66007111E-02   1.01803540E-01   3.39461165E-03   6.98221679E-02   2.79491628E-02   9.99973727E-04   8.82138294E-04   0.00000000E+00   0.00000000E+00   4.17373682E-03   7.96936635E-04   0.00000000E+00   1.05598239E-04   1.50137287E-01
   2.43250000E+03   5.00000000E-01   5.00000000E-01   1.99945185E-01   9.99961750E-02   6.99872869E-02   6.66087765E-02   6.66007111E-02   1.01722598E-01   3.39186359E-03   6.98241275E-02   2.79493980E-02   9.99971898E-04   8.82181320E-04   0.00000000E+00   0.00000000E+00   4.17187522E-03   7.96954853E-04   0.00000000E+00   1.04087506E-04   1.50138088E-01
   2.46750000E+03   5.00000000E-01   5.00000000E-01   1.99945272E-01   9.99961784E-02   6.99872869E-02   6.66087876E-02   6.66007111E-02   1.01643854E-01   3.38881629E-03   6.98265502E-02   2.79496569E-02   9.99970107E-04   8.82221728E-04   0.00000000E+00   0.00000000E+00   4.17040979E-03   7.96974471E-04   0.00000000E+00   1.02597209E-04   1.50138667E-01
   2.50250000E+03   5.00000000E-01   5.00000000E-01   1.99945372E-01   9.99961819E-02   6.99872870E-02   6.66087990E-02   6.66007111E-02   1.01567436E-01   3.38541790E-03   6.98294889E-02   2.79499445E-02   9.99968546E-04   8.82259277E-04   0.00000000E+00   0.00000000E+00   4.16935697E-03   7.96995637E-04   0.00000000E+00   1.01126373E-04   1.50139020E-01
   2.53750000E+03   5.00000000E-01   5.00000000E-01   1.99945483E-01   9.99961854E-02   6.99872870E-02   6.66088117E-02   6.66007111E-02   1.01493457E-01   3.38160947E-03   6.98330032E-02   2.79502669E-02   9.99967419E-04   8.82293706E-04   0.00000000E+00   0.00000000E+00   4.16873708E-03   7.97018521E-04   0.00000000E+00   9.96739571E-05   1.50139139E-01
   2.57250000E+03   5.00000000E-01   5.00000000E-01   1.99945606E-01   9.99961891E-02   6.99872871E-02   6.66088268E-02   6.66007111E-02   1.01422016E-01   3.37732348E-03   6.98371612E-02   2.79506315E-02   9.99966892E-04   8.82324729E-04   0.00000000E+00   0.00000000E+00   4.16857497E-03   7.97043321E-04   0.00000000E+00   9.82388314E-05   1.50139016E-01
   2.60750000E+03   5.00000000E-01   5.00000000E-01   1.99945739E-01   9.99961928E-02   6.99872871E-02   6.66088458E-02   6.66007111E-02   1.01353196E-01   3.37248196E-03   6.98420415E-02   2.79510475E-02   9.99967066E-04   8.82352035E-04   0.00000000E+00   0.00000000E+00   4.16890088E-03   7.97070272E-04   0.00000000E+00   9.68197646E-05   1.50138641E-01
   2.64250000E+03   5.00000000E-01   5.00000000E-01   1.99945882E-01   9.99961966E-02   6.99872872E-02   6.66088702E-02   6.66007111E-02   1.01287062E-01   3.36699397E-03   6.98477354E-02   2.79515269E-02   9.99967965E-04   8.82375279E-04   0.00000000E+00   0.00000000E+00   4.16975123E-03   7.97099651E-04   0.00000000E+00   9.54154001E-05   1.50138002E-01
   2.67750000E+03   5.00000000E-01   5.00000000E-01   1.99946034E-01   9.99962005E-02   6.99872873E-02   6.66089020E-02   6.66007111E-02   1.01223660E-01   3.36075228E-03   6.98543504E-02   2.79520845E-02   9.99969543E-04   8.82394081E-04   0.00000000E+00   0.00000000E+00   4.17116943E-03   7.97131795E-04   0.00000000E+00   9.40242302E-05   1.50137088E-01
   2.71250000E+03   5.00000000E-01   5.00000000E-01   1.99946193E-01   9.99962045E-02   6.99872874E-02   6.66089433E-02   6.66007111E-02   1.01163015E-01   3.35362895E-03   6.98620145E-02   2.79527399E-02   9.99971710E-04   8.82408014E-04   0.00000000E+00   0.00000000E+00   4.17320653E-03   7.97167114E-04   0.00000000E+00   9.26445629E-05   1.50135881E-01
   2.74750000E+03   5.00000000E-01   5.00000000E-01   1.99946360E-01   9.99962085E-02   6.99872875E-02   6.66089969E-02   6.66007111E-02   1.01105136E-01   3.34546943E-03   6.98708825E-02   2.79535188E-02   9.99974356E-04   8.82416601E-04   0.00000000E+00   0.00000000E+00   4.17592138E-03   7.97206112E-04   0.00000000E+00   9.12744812E-05   1.50134366E-01
   2.78250000E+03   5.00000000E-01   5.00000000E-01   1.99946533E-01   9.99962127E-02   6.99872877E-02   6.66090664E-02   6.66007111E-02   1.01050015E-01   3.33608358E-03   6.98811440E-02   2.79544561E-02   9.99977344E-04   8.82419304E-04   0.00000000E+00   0.00000000E+00   4.17938425E-03   7.97249426E-04   0.00000000E+00   8.99117896E-05   1.50132519E-01
   2.81750000E+03   5.00000000E-01   5.00000000E-01   1.99946711E-01   9.99962169E-02   6.99872878E-02   6.66091574E-02   6.66007111E-02   1.00997625E-01   3.32523531E-03   6.98930350E-02   2.79555992E-02   9.99980549E-04   8.82415513E-04   0.00000000E+00   0.00000000E+00   4.18367161E-03   7.97297865E-04   0.00000000E+00   8.85539446E-05   1.50130317E-01
   2.85250000E+03   5.00000000E-01   5.00000000E-01   1.99946894E-01   9.99962213E-02   6.99872880E-02   6.66092775E-02   6.66007111E-02   1.00947926E-01   3.31262503E-03   6.99068548E-02   2.79570153E-02   9.99983879E-04   8.82404536E-04   0.00000000E+00   0.00000000E+00   4.18886881E-03   7.97352482E-04   0.00000000E+00   8.71979627E-05   1.50127729E-01