 TITLE = "Mineral Volumes" 
VARIABLES = "X"          "Y"              "Z"            "Forsterite"     "Enstatite(alph" "Anorthite"      "Tremolite"      "Pargasite"      "Anhydrite"      "Clinochlore"    "Albite(low)"    "Fayalite"       "Epidote"        "Kaolinite"      "Muscovite(orde" "Sudoite"        "Saponite(Mg)"   "Scolecite"      "FeS(am)"        "Quartz(alpha)"  "Montmorillonit"
 ZONE I=         100 , J=           1 , K=           1  F=POINT
   1.75000000E+01   5.00000000E-01   5.00000000E-01   1.99986191E-01   9.99990161E-02   6.99968215E-02   6.91421374E-02   6.91403075E-02   8.91677454E-02   1.21725162E-03   6.97768582E-02   2.79853737E-02   9.99999999E-04   9.68939785E-04   0.00000000E+00   0.00000000E+00   7.96248091E-04   9.46445371E-04   0.00000000E+00   5.01346567E-05   1.49960056E-01
   5.25000000E+01   5.00000000E-01   5.00000000E-01   1.99986191E-01   9.99990161E-02   6.99968215E-02   6.91421495E-02   6.91403075E-02   9.11030010E-02   1.00502135E-03   6.99332475E-02   2.79853759E-02   1.00000000E-03   9.68959055E-04   0.00000000E+00   0.00000000E+00   9.34997685E-04   9.46448907E-04   0.00000000E+00   6.79138816E-05   1.49968327E-01
   8.75000000E+01   5.00000000E-01   5.00000000E-01   1.99986191E-01   9.99990163E-02   6.99968215E-02   6.91421652E-02   6.91403075E-02   9.29932556E-02   8.93963449E-04   7.00099393E-02   2.79853794E-02   1.00000000E-03   9.68970140E-04   0.00000000E+00   0.00000000E+00   1.02119715E-03   9.46452012E-04   0.00000000E+00   7.39110589E-05   1.49974154E-01
   1.22500000E+02   5.00000000E-01   5.00000000E-01   1.99986191E-01   9.99990164E-02   6.99968215E-02   6.91421782E-02   6.91403075E-02   9.47165725E-02   8.49118700E-04   7.00392966E-02   2.79853841E-02   1.00000000E-03   9.68976691E-04   0.00000000E+00   0.00000000E+00   1.05858182E-03   9.46454361E-04   0.00000000E+00   7.53184296E-05   1.49977292E-01
   1.57500000E+02   5.00000000E-01   5.00000000E-01   1.99986191E-01   9.99990166E-02   6.99968215E-02   6.91421873E-02   6.91403075E-02   9.62136163E-02   8.32011232E-04   7.00493726E-02   2.79853899E-02   1.00000000E-03   9.68981639E-04   0.00000000E+00   0.00000000E+00   1.07400184E-03   9.46456226E-04   0.00000000E+00   7.50176928E-05   1.49979160E-01
   1.92500000E+02   5.00000000E-01   5.00000000E-01   1.99986191E-01   9.99990167E-02   6.99968215E-02   6.91421930E-02   6.91403075E-02   9.74680480E-02   8.25833422E-04   7.00519204E-02   2.79853968E-02   1.00000000E-03   9.68986070E-04   0.00000000E+00   0.00000000E+00   1.08064243E-03   9.46457781E-04   0.00000000E+00   7.40843700E-05   1.49980497E-01
   2.27500000E+02   5.00000000E-01   5.00000000E-01   1.99986191E-01   9.99990169E-02   6.99968215E-02   6.91421960E-02   6.91403075E-02   9.84900547E-02   8.23988901E-04   7.00514848E-02   2.79854046E-02   1.00000000E-03   9.68990398E-04   0.00000000E+00   0.00000000E+00   1.08383234E-03   9.46459121E-04   0.00000000E+00   7.29195313E-05   1.49981616E-01
   2.62500000E+02   5.00000000E-01   5.00000000E-01   1.99986191E-01   9.99990170E-02   6.99968215E-02   6.91421969E-02   6.91403075E-02   9.93039989E-02   8.23917348E-04   7.00498159E-02   2.79854134E-02   1.00000000E-03   9.68994793E-04   0.00000000E+00   0.00000000E+00   1.08566135E-03   9.46460302E-04   0.00000000E+00   7.16754098E-05   1.49982646E-01
   2.97500000E+02   5.00000000E-01   5.00000000E-01   1.99986191E-01   9.99990172E-02   6.99968215E-02   6.91421964E-02   6.91403075E-02   9.99400725E-02   8.24614413E-04   7.00475965E-02   2.79854231E-02   1.00000000E-03   9.68999328E-04   0.00000000E+00   0.00000000E+00   1.08695461E-03   9.46461358E-04   0.00000000E+00   7.04111526E-05   1.49983640E-01
   3.32500000E+02   5.00000000E-01   5.00000000E-01   1.99986191E-01   9.99990173E-02   6.99968215E-02   6.91421949E-02   6.91403075E-02   1.00428515E-01   8.25679994E-04   7.00450977E-02   2.79854337E-02   1.00000000E-03   9.69004034E-04   0.00000000E+00   0.00000000E+00   1.08804324E-03   9.46462313E-04   0.00000000E+00   6.91503058E-05   1.49984617E-01
   3.67500000E+02   5.00000000E-01   5.00000000E-01   1.99986191E-01   9.99990175E-02   6.99968215E-02   6.91421927E-02   6.91403075E-02   1.00797569E-01   8.26952387E-04   7.00424295E-02   2.79854451E-02   1.00000000E-03   9.69008924E-04   0.00000000E+00   0.00000000E+00   1.08906208E-03   9.46463183E-04   0.00000000E+00   6.79024390E-05   1.49985587E-01
   4.02500000E+02   5.00000000E-01   5.00000000E-01   1.99986191E-01   9.99990177E-02   6.99968215E-02   6.91421903E-02   6.91403075E-02   1.01072432E-01   8.28365579E-04   7.00396379E-02   2.79854574E-02   1.00000000E-03   9.69014004E-04   0.00000000E+00   0.00000000E+00   1.09006602E-03   9.46463984E-04   0.00000000E+00   6.66714747E-05   1.49986552E-01
   4.37500000E+02   5.00000000E-01   5.00000000E-01   1.99986191E-01   9.99990179E-02   6.99968215E-02   6.91421880E-02   6.91403075E-02   1.01273917E-01   8.29892166E-04   7.00367436E-02   2.79854705E-02   1.00000000E-03   9.69019276E-04   0.00000000E+00   0.00000000E+00   1.09107631E-03   9.46464725E-04   0.00000000E+00   6.54590221E-05   1.49987512E-01
   4.72500000E+02   5.00000000E-01   5.00000000E-01   1.99986191E-01   9.99990181E-02   6.99968215E-02   6.91421864E-02   6.91403075E-02   1.01418808E-01   8.31520148E-04   7.00337576E-02   2.79854843E-02   9.99999999E-04   9.69024740E-04   0.00000000E+00   0.00000000E+00   1.09209929E-03   9.46465417E-04   0.00000000E+00   6.42657896E-05   1.49988465E-01
   5.07500000E+02   5.00000000E-01   5.00000000E-01   1.99986191E-01   9.99990183E-02   6.99968215E-02   6.91421866E-02   6.91403075E-02   1.01520398E-01   8.33243306E-04   7.00306880E-02   2.79854990E-02   9.99999999E-04   9.69030392E-04   0.00000000E+00   0.00000000E+00   1.09313376E-03   9.46466066E-04   0.00000000E+00   6.30918392E-05   1.49989411E-01
   5.42500000E+02   5.00000000E-01   5.00000000E-01   1.99986191E-01   9.99990185E-02   6.99968215E-02   6.91421898E-02   6.91403075E-02   1.01589072E-01   8.35057087E-04   7.00275422E-02   2.79855144E-02   9.99999999E-04   9.69036233E-04   0.00000000E+00   0.00000000E+00   1.09417435E-03   9.46466678E-04   0.00000000E+00   6.19372666E-05   1.49990347E-01
   5.77500000E+02   5.00000000E-01   5.00000000E-01   1.99986191E-01   9.99990187E-02   6.99968215E-02   6.91421971E-02   6.91403075E-02   1.01632847E-01   8.36956544E-04   7.00243285E-02   2.79855306E-02   9.99999999E-04   9.69042258E-04   0.00000000E+00   0.00000000E+00   1.09521399E-03   9.46467258E-04   0.00000000E+00   6.08020348E-05   1.49991273E-01
   6.12500000E+02   5.00000000E-01   5.00000000E-01   1.99986191E-01   9.99990189E-02   6.99968215E-02   6.91422084E-02   6.91403075E-02   1.01657862E-01   8.38935378E-04   7.00210561E-02   2.79855475E-02   9.99999999E-04   9.69048467E-04   0.00000000E+00   0.00000000E+00   1.09624536E-03   9.46467811E-04   0.00000000E+00   5.96859952E-05   1.49992187E-01
   6.47500000E+02   5.00000000E-01   5.00000000E-01   1.99986191E-01   9.99990192E-02   6.99968215E-02   6.91422228E-02   6.91403075E-02   1.01668780E-01   8.40985741E-04   7.00177354E-02   2.79855652E-02   9.99999999E-04   9.69054857E-04   0.00000000E+00   0.00000000E+00   1.09726080E-03   9.46468339E-04   0.00000000E+00   5.85891328E-05   1.49993088E-01
   6.82500000E+02   5.00000000E-01   5.00000000E-01   1.99986191E-01   9.99990194E-02   6.99968215E-02   6.91422391E-02   6.91403075E-02   1.01669128E-01   8.43098492E-04   7.00143780E-02   2.79855836E-02   9.99999999E-04   9.69061427E-04   0.00000000E+00   0.00000000E+00   1.09825128E-03   9.46468848E-04   0.00000000E+00   5.75116423E-05   1.49993976E-01
   7.17500000E+02   5.00000000E-01   5.00000000E-01   1.99986191E-01   9.99990196E-02   6.99968215E-02   6.91422568E-02   6.91403075E-02   1.01661560E-01   8.45263334E-04   7.00109966E-02   2.79856028E-02   9.99999998E-04   9.69068178E-04   0.00000000E+00   0.00000000E+00   1.09920599E-03   9.46469339E-04   0.00000000E+00   5.64536725E-05   1.49994850E-01
   7.52500000E+02   5.00000000E-01   5.00000000E-01   1.99986191E-01   9.99990199E-02   6.99968215E-02   6.91422754E-02   6.91403075E-02   1.01648070E-01   8.47468819E-04   7.00076046E-02   2.79856227E-02   9.99999998E-04   9.69075111E-04   0.00000000E+00   0.00000000E+00   1.10011267E-03   9.46469815E-04   0.00000000E+00   5.54150852E-05   1.49995711E-01
   7.87500000E+02   5.00000000E-01   5.00000000E-01   1.99986191E-01   9.99990202E-02   6.99968215E-02   6.91422947E-02   6.91403075E-02   1.01630155E-01   8.49702508E-04   7.00042165E-02   2.79856434E-02   9.99999998E-04   9.69082229E-04   0.00000000E+00   0.00000000E+00   1.10095766E-03   9.46470280E-04   0.00000000E+00   5.43959989E-05   1.49996559E-01
   8.22500000E+02   5.00000000E-01   5.00000000E-01   1.99986191E-01   9.99990204E-02   6.99968215E-02   6.91423146E-02   6.91403075E-02   1.01608944E-01   8.51951078E-04   7.00008469E-02   2.79856648E-02   9.99999997E-04   9.69089537E-04   0.00000000E+00   0.00000000E+00   1.10172642E-03   9.46470737E-04   0.00000000E+00   5.33964957E-05   1.49997396E-01
   8.57500000E+02   5.00000000E-01   5.00000000E-01   1.99986191E-01   9.99990207E-02   6.99968215E-02   6.91423349E-02   6.91403075E-02   1.01585286E-01   8.54200580E-04   6.99975109E-02   2.79856869E-02   9.99999996E-04   9.69097042E-04   0.00000000E+00   0.00000000E+00   1.10240365E-03   9.46471188E-04   0.00000000E+00   5.24170067E-05   1.49998222E-01
   8.92500000E+02   5.00000000E-01   5.00000000E-01   1.99986191E-01   9.99990210E-02   6.99968215E-02   6.91423556E-02   6.91403075E-02   1.01559825E-01   8.56436514E-04   6.99942236E-02   2.79857098E-02   9.99999995E-04   9.69104754E-04   0.00000000E+00   0.00000000E+00   1.10297419E-03   9.46471637E-04   0.00000000E+00   5.14573710E-05   1.49999041E-01
   9.27500000E+02   5.00000000E-01   5.00000000E-01   1.99986191E-01   9.99990213E-02   6.99968215E-02   6.91423767E-02   6.91403075E-02   1.01533056E-01   8.58644222E-04   6.99909997E-02   2.79857333E-02   9.99999993E-04   9.69112682E-04   0.00000000E+00   0.00000000E+00   1.10342293E-03   9.46472087E-04   0.00000000E+00   5.05177553E-05   1.49999854E-01
   9.62500000E+02   5.00000000E-01   5.00000000E-01   1.99986191E-01   9.99990216E-02   6.99968215E-02   6.91423981E-02   6.91403075E-02   1.01505358E-01   8.60809171E-04   6.99878535E-02   2.79857576E-02   9.99999991E-04   9.69120842E-04   0.00000000E+00   0.00000000E+00   1.10373526E-03   9.46472540E-04   0.00000000E+00   4.95985362E-05   1.50000663E-01
   9.97500000E+02   5.00000000E-01   5.00000000E-01   1.99986191E-01   9.99990219E-02   6.99968215E-02   6.91424197E-02   6.91403075E-02   1.01477026E-01   8.62917451E-04   6.99847980E-02   2.79857825E-02   9.99999989E-04   9.69129246E-04   0.00000000E+00   0.00000000E+00   1.10389742E-03   9.46473002E-04   0.00000000E+00   4.87001438E-05   1.50001472E-01
   1.03250000E+03   5.00000000E-01   5.00000000E-01   1.99986191E-01   9.99990222E-02   6.99968215E-02   6.91424415E-02   6.91403075E-02   1.01448293E-01   8.64955651E-04   6.99818453E-02   2.79858080E-02   9.99999985E-04   9.69137913E-04   0.00000000E+00   0.00000000E+00   1.10389765E-03   9.46473474E-04   0.00000000E+00   4.78222239E-05   1.50002283E-01
   1.06750000E+03   5.00000000E-01   5.00000000E-01   1.99986191E-01   9.99990225E-02   6.99968215E-02   6.91424634E-02   6.91403075E-02   1.01419341E-01   8.66911444E-04   6.99790060E-02   2.79858341E-02   9.99999981E-04   9.69146860E-04   0.00000000E+00   0.00000000E+00   1.10372578E-03   9.46473961E-04   0.00000000E+00   4.69647888E-05   1.50003099E-01
   1.10250000E+03   5.00000000E-01   5.00000000E-01   1.99986191E-01   9.99990229E-02   6.99968215E-02   6.91424854E-02   6.91403075E-02   1.01390316E-01   8.68773784E-04   6.99762891E-02   2.79858607E-02   9.99999975E-04   9.69156105E-04   0.00000000E+00   0.00000000E+00   1.10337389E-03   9.46474465E-04   0.00000000E+00   4.61277729E-05   1.50003923E-01
   1.13750000E+03   5.00000000E-01   5.00000000E-01   1.99986191E-01   9.99990232E-02   6.99968215E-02   6.91425073E-02   6.91403075E-02   1.01361335E-01   8.70533215E-04   6.99737016E-02   2.79858878E-02   9.99999968E-04   9.69165668E-04   0.00000000E+00   0.00000000E+00   1.10283634E-03   9.46474989E-04   0.00000000E+00   4.53114167E-05   1.50004757E-01
   1.17250000E+03   5.00000000E-01   5.00000000E-01   1.99986191E-01   9.99990236E-02   6.99968215E-02   6.91425291E-02   6.91403075E-02   1.01332492E-01   8.72181869E-04   6.99712488E-02   2.79859154E-02   9.99999958E-04   9.69175567E-04   0.00000000E+00   0.00000000E+00   1.10211077E-03   9.46475537E-04   0.00000000E+00   4.45150942E-05   1.50005604E-01
   1.20750000E+03   5.00000000E-01   5.00000000E-01   1.99986191E-01   9.99990240E-02   6.99968215E-02   6.91425507E-02   6.91403075E-02   1.01303860E-01   8.73713813E-04   6.99689336E-02   2.79859433E-02   9.99999944E-04   9.69185819E-04   0.00000000E+00   0.00000000E+00   1.10119747E-03   9.46476111E-04   0.00000000E+00   4.37385957E-05   1.50006465E-01
   1.24250000E+03   5.00000000E-01   5.00000000E-01   1.99986191E-01   9.99990243E-02   6.99968215E-02   6.91425720E-02   6.91403075E-02   1.01275498E-01   8.75125202E-04   6.99667573E-02   2.79859716E-02   9.99999927E-04   9.69196441E-04   0.00000000E+00   0.00000000E+00   1.10009924E-03   9.46476715E-04   0.00000000E+00   4.29821099E-05   1.50007342E-01
   1.27750000E+03   5.00000000E-01   5.00000000E-01   1.99986191E-01   9.99990247E-02   6.99968215E-02   6.91425931E-02   6.91403075E-02   1.01247452E-01   8.76414151E-04   6.99647187E-02   2.79860001E-02   9.99999905E-04   9.69207447E-04   0.00000000E+00   0.00000000E+00   1.09882206E-03   9.46477350E-04   0.00000000E+00   4.22454276E-05   1.50008237E-01
   1.31250000E+03   5.00000000E-01   5.00000000E-01   1.99986191E-01   9.99990251E-02   6.99968215E-02   6.91426137E-02   6.91403075E-02   1.01219755E-01   8.77580584E-04   6.99628152E-02   2.79860288E-02   9.99999876E-04   9.69218848E-04   0.00000000E+00   0.00000000E+00   1.09737540E-03   9.46478019E-04   0.00000000E+00   4.15274298E-05   1.50009149E-01
   1.34750000E+03   5.00000000E-01   5.00000000E-01   1.99986191E-01   9.99990255E-02   6.99968215E-02   6.91426338E-02   6.91403075E-02   1.01192434E-01   8.78626522E-04   6.99610421E-02   2.79860576E-02   9.99999839E-04   9.69230654E-04   0.00000000E+00   0.00000000E+00   1.09577061E-03   9.46478724E-04   0.00000000E+00   4.08276491E-05   1.50010079E-01
   1.38250000E+03   5.00000000E-01   5.00000000E-01   1.99986191E-01   9.99990260E-02   6.99968215E-02   6.91426533E-02   6.91403075E-02   1.01165506E-01   8.79555819E-04   6.99593935E-02   2.79860865E-02   9.99999792E-04   9.69242868E-04   0.00000000E+00   0.00000000E+00   1.09402111E-03   9.46479468E-04   0.00000000E+00   4.01455672E-05   1.50011025E-01
   1.41750000E+03   5.00000000E-01   5.00000000E-01   1.99986191E-01   9.99990264E-02   6.99968215E-02   6.91426721E-02   6.91403075E-02   1.01138982E-01   8.80373997E-04   6.99578618E-02   2.79861153E-02   9.99999731E-04   9.69255493E-04   0.00000000E+00   0.00000000E+00   1.09214206E-03   9.46480251E-04   0.00000000E+00   3.94806230E-05   1.50011986E-01
   1.45250000E+03   5.00000000E-01   5.00000000E-01   1.99986191E-01   9.99990268E-02   6.99968215E-02   6.91426902E-02   6.91403075E-02   1.01112865E-01   8.81088138E-04   6.99564388E-02   2.79861441E-02   9.99999655E-04   9.69268524E-04   0.00000000E+00   0.00000000E+00   1.09014953E-03   9.46481075E-04   0.00000000E+00   3.88327872E-05   1.50012961E-01
   1.48750000E+03   5.00000000E-01   5.00000000E-01   1.99986191E-01   9.99990273E-02   6.99968215E-02   6.91427075E-02   6.91403075E-02   1.01087158E-01   8.81706660E-04   6.99551154E-02   2.79861727E-02   9.99999558E-04   9.69281955E-04   0.00000000E+00   0.00000000E+00   1.08806003E-03   9.46481943E-04   0.00000000E+00   3.82024996E-05   1.50013948E-01
   1.52250000E+03   5.00000000E-01   5.00000000E-01   1.99986191E-01   9.99990278E-02   6.99968215E-02   6.91427241E-02   6.91403075E-02   1.01061855E-01   8.82238490E-04   6.99538821E-02   2.79862010E-02   9.99999436E-04   9.69295774E-04   0.00000000E+00   0.00000000E+00   1.08589207E-03   9.46482855E-04   0.00000000E+00   3.75876812E-05   1.50014943E-01
   1.55750000E+03   5.00000000E-01   5.00000000E-01   1.99986191E-01   9.99990283E-02   6.99968215E-02   6.91427400E-02   6.91403075E-02   1.01036950E-01   8.82693476E-04   6.99527291E-02   2.79862291E-02   9.99999281E-04   9.69309965E-04   0.00000000E+00   0.00000000E+00   1.08366298E-03   9.46483813E-04   0.00000000E+00   3.69873806E-05   1.50015943E-01
   1.59250000E+03   5.00000000E-01   5.00000000E-01   1.99986191E-01   9.99990288E-02   6.99968215E-02   6.91427552E-02   6.91403075E-02   1.01012432E-01   8.83081878E-04   6.99516468E-02   2.79862569E-02   9.99999087E-04   9.69324511E-04   0.00000000E+00   0.00000000E+00   1.08138939E-03   9.46484818E-04   0.00000000E+00   3.64017346E-05   1.50016945E-01
   1.62750000E+03   5.00000000E-01   5.00000000E-01   1.99986192E-01   9.99990293E-02   6.99968215E-02   6.91427697E-02   6.91403075E-02   1.00988290E-01   8.83413798E-04   6.99506263E-02   2.79862842E-02   9.99998843E-04   9.69339387E-04   0.00000000E+00   0.00000000E+00   1.07908796E-03   9.46485873E-04   0.00000000E+00   3.58293000E-05   1.50017945E-01
   1.66250000E+03   5.00000000E-01   5.00000000E-01   1.99986192E-01   9.99990298E-02   6.99968215E-02   6.91427834E-02   6.91403075E-02   1.00964511E-01   8.83699292E-04   6.99496587E-02   2.79863111E-02   9.99998541E-04   9.69354570E-04   0.00000000E+00   0.00000000E+00   1.07677365E-03   9.46486979E-04   0.00000000E+00   3.52695099E-05   1.50018940E-01
   1.69750000E+03   5.00000000E-01   5.00000000E-01   1.99986193E-01   9.99990303E-02   6.99968215E-02   6.91427963E-02   6.91403075E-02   1.00941081E-01   8.83947990E-04   6.99487364E-02   2.79863376E-02   9.99998174E-04   9.69370031E-04   0.00000000E+00   0.00000000E+00   1.07446016E-03   9.46488138E-04   0.00000000E+00   3.47218227E-05   1.50019927E-01
   1.73250000E+03   5.00000000E-01   5.00000000E-01   1.99986193E-01   9.99990309E-02   6.99968215E-02   6.91428086E-02   6.91403075E-02   1.00917985E-01   8.84169116E-04   6.99478521E-02   2.79863635E-02   9.99997735E-04   9.69385740E-04   0.00000000E+00   0.00000000E+00   1.07215911E-03   9.46489353E-04   0.00000000E+00   3.41870378E-05   1.50020900E-01
   1.76750000E+03   5.00000000E-01   5.00000000E-01   1.99986194E-01   9.99990315E-02   6.99968215E-02   6.91428206E-02   6.91403075E-02   1.00895209E-01   8.84370854E-04   6.99470000E-02   2.79863889E-02   9.99997221E-04   9.69401667E-04   0.00000000E+00   0.00000000E+00   1.06988167E-03   9.46490625E-04   0.00000000E+00   3.36634666E-05   1.50021858E-01
   1.80250000E+03   5.00000000E-01   5.00000000E-01   1.99986195E-01   9.99990320E-02   6.99968215E-02   6.91428321E-02   6.91403075E-02   1.00872739E-01   8.84560446E-04   6.99461749E-02   2.79864138E-02   9.99996620E-04   9.69417778E-04   0.00000000E+00   0.00000000E+00   1.06763771E-03   9.46491960E-04   0.00000000E+00   3.31504405E-05   1.50022796E-01
   1.83750000E+03   5.00000000E-01   5.00000000E-01   1.99986196E-01   9.99990326E-02   6.99968215E-02   6.91428430E-02   6.91403075E-02   1.00850562E-01   8.84744292E-04   6.99453727E-02   2.79864381E-02   9.99995919E-04   9.69434042E-04   0.00000000E+00   0.00000000E+00   1.06543519E-03   9.46493359E-04   0.00000000E+00   3.26475498E-05   1.50023712E-01
   1.87250000E+03   5.00000000E-01   5.00000000E-01   1.99986198E-01   9.99990333E-02   6.99968215E-02   6.91428537E-02   6.91403075E-02   1.00828668E-01   8.84927810E-04   6.99445905E-02   2.79864620E-02   9.99995093E-04   9.69450425E-04   0.00000000E+00   0.00000000E+00   1.06328060E-03   9.46494827E-04   0.00000000E+00   3.21544163E-05   1.50024602E-01
   1.90750000E+03   5.00000000E-01   5.00000000E-01   1.99986201E-01   9.99990339E-02   6.99968215E-02   6.91428643E-02   6.91403075E-02   1.00807046E-01   8.85115382E-04   6.99438260E-02   2.79864852E-02   9.99994117E-04   9.69466893E-04   0.00000000E+00   0.00000000E+00   1.06117919E-03   9.46496368E-04   0.00000000E+00   3.16706912E-05   1.50025465E-01
   1.94250000E+03   5.00000000E-01   5.00000000E-01   1.99986204E-01   9.99990346E-02   6.99968215E-02   6.91428746E-02   6.91403075E-02   1.00785690E-01   8.85310260E-04   6.99430783E-02   2.79865081E-02   9.99992971E-04   9.69483414E-04   0.00000000E+00   0.00000000E+00   1.05913542E-03   9.46497987E-04   0.00000000E+00   3.11960539E-05   1.50026296E-01
   1.97750000E+03   5.00000000E-01   5.00000000E-01   1.99986208E-01   9.99990352E-02   6.99968215E-02   6.91428849E-02   6.91403075E-02   1.00764595E-01   8.85514726E-04   6.99423470E-02   2.79865304E-02   9.99991660E-04   9.69499954E-04   0.00000000E+00   0.00000000E+00   1.05715253E-03   9.46499689E-04   0.00000000E+00   3.07302090E-05   1.50027096E-01
   2.01250000E+03   5.00000000E-01   5.00000000E-01   1.99986213E-01   9.99990359E-02   6.99968215E-02   6.91428952E-02   6.91403075E-02   1.00743759E-01   8.85730148E-04   6.99416325E-02   2.79865525E-02   9.99990212E-04   9.69516481E-04   0.00000000E+00   0.00000000E+00   1.05523255E-03   9.46501481E-04   0.00000000E+00   3.02729588E-05   1.50027861E-01
   2.04750000E+03   5.00000000E-01   5.00000000E-01   1.99986220E-01   9.99990367E-02   6.99968215E-02   6.91429056E-02   6.91403075E-02   1.00723183E-01   8.85957083E-04   6.99409361E-02   2.79865742E-02   9.99988676E-04   9.69532963E-04   0.00000000E+00   0.00000000E+00   1.05337654E-03   9.46503369E-04   0.00000000E+00   2.98262034E-05   1.50028590E-01
   2.08250000E+03   5.00000000E-01   5.00000000E-01   1.99986229E-01   9.99990374E-02   6.99968215E-02   6.91429160E-02   6.91403075E-02   1.00702871E-01   8.86194867E-04   6.99402596E-02   2.79865957E-02   9.99987104E-04   9.69549368E-04   0.00000000E+00   0.00000000E+00   1.05158627E-03   9.46505360E-04   0.00000000E+00   2.93873144E-05   1.50029282E-01
   2.11750000E+03   5.00000000E-01   5.00000000E-01   1.99986241E-01   9.99990382E-02   6.99968215E-02   6.91429263E-02   6.91403075E-02   1.00682830E-01   8.86442290E-04   6.99396055E-02   2.79866172E-02   9.99985539E-04   9.69565665E-04   0.00000000E+00   0.00000000E+00   1.04986210E-03   9.46507462E-04   0.00000000E+00   2.89560846E-05   1.50029935E-01
   2.15250000E+03   5.00000000E-01   5.00000000E-01   1.99986256E-01   9.99990389E-02   6.99968215E-02   6.91429365E-02   6.91403075E-02   1.00663071E-01   8.86697460E-04   6.99389769E-02   2.79866388E-02   9.99984008E-04   9.69581822E-04   0.00000000E+00   0.00000000E+00   1.04820386E-03   9.46509684E-04   0.00000000E+00   2.85323208E-05   1.50030549E-01
   2.18750000E+03   5.00000000E-01   5.00000000E-01   1.99986276E-01   9.99990397E-02   6.99968215E-02   6.91429464E-02   6.91403075E-02   1.00643606E-01   8.86957833E-04   6.99383773E-02   2.79866606E-02   9.99982533E-04   9.69597810E-04   0.00000000E+00   0.00000000E+00   1.04661104E-03   9.46512035E-04   0.00000000E+00   2.81158413E-05   1.50031122E-01
   2.22250000E+03   5.00000000E-01   5.00000000E-01   1.99986300E-01   9.99990406E-02   6.99968215E-02   6.91429557E-02   6.91403075E-02   1.00624452E-01   8.87220260E-04   6.99378107E-02   2.79866829E-02   9.99981125E-04   9.69613596E-04   0.00000000E+00   0.00000000E+00   1.04508284E-03   9.46514525E-04   0.00000000E+00   2.77064729E-05   1.50031655E-01
   2.25750000E+03   5.00000000E-01   5.00000000E-01   1.99986330E-01   9.99990414E-02   6.99968216E-02   6.91429644E-02   6.91403075E-02   1.00605625E-01   8.87481044E-04   6.99372816E-02   2.79867058E-02   9.99979774E-04   9.69629150E-04   0.00000000E+00   0.00000000E+00   1.04361832E-03   9.46517165E-04   0.00000000E+00   2.73040497E-05   1.50032147E-01
   2.29250000E+03   5.00000000E-01   5.00000000E-01   1.99986367E-01   9.99990423E-02   6.99968216E-02   6.91429720E-02   6.91403075E-02   1.00587146E-01   8.87735996E-04   6.99367948E-02   2.79867297E-02   9.99978430E-04   9.69644442E-04   0.00000000E+00   0.00000000E+00   1.04221640E-03   9.46519969E-04   0.00000000E+00   2.69084109E-05   1.50032596E-01
   2.32750000E+03   5.00000000E-01   5.00000000E-01   1.99986413E-01   9.99990432E-02   6.99968216E-02   6.91429783E-02   6.91403075E-02   1.00569036E-01   8.87980412E-04   6.99363558E-02   2.79867548E-02   9.99977013E-04   9.69659438E-04   0.00000000E+00   0.00000000E+00   1.04087603E-03   9.46522948E-04   0.00000000E+00   2.65193989E-05   1.50033004E-01
   2.36250000E+03   5.00000000E-01   5.00000000E-01   1.99986467E-01   9.99990441E-02   6.99968216E-02   6.91429830E-02   6.91403075E-02   1.00551316E-01   8.88209002E-04   6.99359704E-02   2.79867815E-02   9.99975452E-04   9.69674107E-04   0.00000000E+00   0.00000000E+00   1.03959629E-03   9.46526118E-04   0.00000000E+00   2.61368584E-05   1.50033368E-01
   2.39750000E+03   5.00000000E-01   5.00000000E-01   1.99986532E-01   9.99990450E-02   6.99968216E-02   6.91429858E-02   6.91403075E-02   1.00534008E-01   8.88415787E-04   6.99356448E-02   2.79868102E-02   9.99973727E-04   9.69688415E-04   0.00000000E+00   0.00000000E+00   1.03837649E-03   9.46529495E-04   0.00000000E+00   2.57606338E-05   1.50033690E-01
   2.43250000E+03   5.00000000E-01   5.00000000E-01   1.99986608E-01   9.99990459E-02   6.99968216E-02   6.91429866E-02   6.91403075E-02   1.00517134E-01   8.88593995E-04   6.99353860E-02   2.79868413E-02   9.99971898E-04   9.69702327E-04   0.00000000E+00   0.00000000E+00   1.03721634E-03   9.46533099E-04   0.00000000E+00   2.53905683E-05   1.50033968E-01
   2.46750000E+03   5.00000000E-01   5.00000000E-01   1.99986696E-01   9.99990469E-02   6.99968216E-02   6.91429855E-02   6.91403075E-02   1.00500713E-01   8.88735978E-04   6.99352015E-02   2.79868755E-02   9.99970106E-04   9.69715806E-04   0.00000000E+00   0.00000000E+00   1.03611607E-03   9.46536948E-04   0.00000000E+00   2.50265013E-05   1.50034203E-01
   2.50250000E+03   5.00000000E-01   5.00000000E-01   1.99986795E-01   9.99990479E-02   6.99968216E-02   6.91429826E-02   6.91403075E-02   1.00484764E-01   8.88833136E-04   6.99350995E-02   2.79869134E-02   9.99968546E-04   9.69728813E-04   0.00000000E+00   0.00000000E+00   1.03507657E-03   9.46541068E-04   0.00000000E+00   2.46682670E-05   1.50034394E-01
   2.53750000E+03   5.00000000E-01   5.00000000E-01   1.99986906E-01   9.99990489E-02   6.99968216E-02   6.91429784E-02   6.91403075E-02   1.00469303E-01   8.88875841E-04   6.99350891E-02   2.79869559E-02   9.99967418E-04   9.69741308E-04   0.00000000E+00   0.00000000E+00   1.03409957E-03   9.46545484E-04   0.00000000E+00   2.43156913E-05   1.50034540E-01
   2.57250000E+03   5.00000000E-01   5.00000000E-01   1.99987029E-01   9.99990499E-02   6.99968216E-02   6.91429735E-02   6.91403075E-02   1.00454345E-01   8.88853296E-04   6.99351806E-02   2.79870038E-02   9.99966891E-04   9.69753246E-04   0.00000000E+00   0.00000000E+00   1.03318784E-03   9.46550227E-04   0.00000000E+00   2.39685897E-05   1.50034640E-01
   2.60750000E+03   5.00000000E-01   5.00000000E-01   1.99987162E-01   9.99990509E-02   6.99968216E-02   6.91429687E-02   6.91403075E-02   1.00439899E-01   8.88753315E-04   6.99353854E-02   2.79870586E-02   9.99967065E-04   9.69764580E-04   0.00000000E+00   0.00000000E+00   1.03234543E-03   9.46555334E-04   0.00000000E+00   2.36267642E-05   1.50034695E-01
   2.64250000E+03   5.00000000E-01   5.00000000E-01   1.99987305E-01   9.99990520E-02   6.99968216E-02   6.91429647E-02   6.91403075E-02   1.00425974E-01   8.88562019E-04   6.99357165E-02   2.79871216E-02   9.99967964E-04   9.69775258E-04   0.00000000E+00   0.00000000E+00   1.03157791E-03   9.46560846E-04   0.00000000E+00   2.32900002E-05   1.50034702E-01
   2.67750000E+03   5.00000000E-01   5.00000000E-01   1.99987456E-01   9.99990530E-02   6.99968217E-02   6.91429621E-02   6.91403075E-02   1.00412574E-01   8.88263444E-04   6.99361891E-02   2.79871949E-02   9.99969543E-04   9.69785223E-04   0.00000000E+00   0.00000000E+00   1.03089239E-03   9.46566814E-04   0.00000000E+00   2.29580623E-05   1.50034661E-01
   2.71250000E+03   5.00000000E-01   5.00000000E-01   1.99987616E-01   9.99990541E-02   6.99968217E-02   6.91429613E-02   6.91403075E-02   1.00399703E-01   8.87839044E-04   6.99368206E-02   2.79872808E-02   9.99971710E-04   9.69794414E-04   0.00000000E+00   0.00000000E+00   1.03029744E-03   9.46573298E-04   0.00000000E+00   2.26306907E-05   1.50034570E-01
   2.74750000E+03   5.00000000E-01   5.00000000E-01   1.99987783E-01   9.99990551E-02   6.99968217E-02   6.91429628E-02   6.91403075E-02   1.00387359E-01   8.87267141E-04   6.99376318E-02   2.79873827E-02   9.99974356E-04   9.69802762E-04   0.00000000E+00   0.00000000E+00   1.02980242E-03   9.46580373E-04   0.00000000E+00   2.23075957E-05   1.50034427E-01
   2.78250000E+03   5.00000000E-01   5.00000000E-01   1.99987955E-01   9.99990562E-02   6.99968217E-02   6.91429671E-02   6.91403075E-02   1.00375539E-01   8.86521235E-04   6.99386476E-02   2.79875047E-02   9.99977344E-04   9.69810190E-04   0.00000000E+00   0.00000000E+00   1.02942048E-03   9.46588129E-04   0.00000000E+00   2.19884521E-05   1.50034229E-01
   2.81750000E+03   5.00000000E-01   5.00000000E-01   1.99988133E-01   9.99990573E-02   6.99968217E-02   6.91429750E-02   6.91403075E-02   1.00364236E-01   8.85570054E-04   6.99398985E-02   2.79876526E-02   9.99980549E-04   9.69816612E-04   0.00000000E+00   0.00000000E+00   1.02916308E-03   9.46596682E-04   0.00000000E+00   2.16728911E-05   1.50033975E-01
   2.85250000E+03   5.00000000E-01   5.00000000E-01   1.99988316E-01   9.99990584E-02   6.99968218E-02   6.91429876E-02   6.91403075E-02   1.00353442E-01   8.84374699E-04   6.99414223E-02   2.79878345E-02   9.99983879E-04   9.69821931E-04   0.00000000E+00   0.00000000E+00   1.02904354E-03   9.46606178E-04   0.00000000E+00   2.13604908E-05   1.50033661E-01