 TITLE = "Mineral Volumes" 
VARIABLES = "X"          "Y"              "Z"            "Forsterite"     "Fayalite"       "Brucite"        "Lizardite"      "Chrysotile"     "Hematite"       "Magnetite(am)"  "Saponite(Ca)"   "Saponite(K)"    "Saponite(Mg)"   "Saponite(Na)"   "Beidellite(Ca)" "Beidellite(K)"  "Beidellite(Mg)" "Beidellite(Na)" "Enstatite(alph" "Ferrosilite(al" "Anorthite"      "Albite(low)"    "Clinochlore"    "Sudoite"        "Montmor(MgCa)"  "Montmor(MgK)"   "Montmor(MgMg)"  "Montmor(MgNa)"  "Kaolinite"      "Tremolite"      "Pargasite"      "Anhydrite"      "Epidote"        "Scolecite"      "Pyrite"         "FeS(am)"        "Quartz(alpha)" 
 ZONE I=         200 , J=           1 , K=           1  F=POINT
   8.75000000E+00   5.00000000E-01   5.00000000E-01   1.07481148E-01   1.09035251E-01   0.00000000E+00   0.00000000E+00   0.00000000E+00   2.09244661E-04   0.00000000E+00   1.00731114E-10   4.20934143E-04   1.38926100E-10   4.85986668E-05   9.78520221E-11   9.97796155E-11   9.78675897E-11   9.78462056E-11   4.99972960E-02   4.99976212E-02   6.47278883E-02   6.87278969E-02   2.18620098E-02   1.81191637E-10   9.95245716E-11   9.95165925E-11   9.95281012E-11   9.95235580E-11   9.98523268E-04   6.44511852E-02   6.42704807E-02   0.00000000E+00   8.08006093E-03   8.41544708E-11   9.24958172E-11   9.44537809E-11   1.00109716E-10
   2.62500000E+01   5.00000000E-01   5.00000000E-01   1.07481148E-01   1.09039325E-01   0.00000000E+00   0.00000000E+00   0.00000000E+00   2.09244660E-04   0.00000000E+00   1.00897637E-10   1.51346512E-03   1.48999303E-10   1.96569794E-04   9.78520621E-11   9.97796711E-11   9.78677713E-11   9.78466841E-11   4.99972931E-02   4.99977128E-02   6.47278883E-02   6.89048068E-02   2.13663362E-02   1.43971190E-10   9.95252363E-11   9.95323360E-11   9.95308968E-11   9.95348158E-11   9.98523471E-04   6.44830728E-02   6.42704807E-02   0.00000000E+00   8.08006093E-03   8.41545409E-11   9.24958172E-11   9.44538511E-11   1.00172649E-10
   4.37500000E+01   5.00000000E-01   5.00000000E-01   1.07481148E-01   1.09042694E-01   0.00000000E+00   0.00000000E+00   0.00000000E+00   2.09244660E-04   0.00000000E+00   1.00966333E-10   1.77425024E-03   1.53215633E-10   2.63467938E-04   9.78524771E-11   9.97802194E-11   9.78696534E-11   9.78515147E-11   4.99972915E-02   4.99977825E-02   6.47278883E-02   6.94060745E-02   2.07559087E-02   9.66853134E-11   9.95295305E-11   9.96285741E-11   9.95489382E-11   9.96053586E-11   9.98524588E-04   6.44980231E-02   6.42704807E-02   0.00000000E+00   8.08006094E-03   8.41548911E-11   9.24958172E-11   9.44538823E-11   1.00224459E-10
   6.12500000E+01   5.00000000E-01   5.00000000E-01   1.07481148E-01   1.09046385E-01   0.00000000E+00   0.00000000E+00   0.00000000E+00   2.09244660E-04   0.00000000E+00   1.01034218E-10   2.15912076E-03   1.57627771E-10   3.68914339E-04   9.78535844E-11   9.97815959E-11   9.78746674E-11   9.78639874E-11   4.99972911E-02   4.99978542E-02   6.47278883E-02   7.00861271E-02   1.99164743E-02   5.51805804E-11   9.95387799E-11   9.98225377E-11   9.95877596E-11   9.97518735E-11   9.98526516E-04   6.45099446E-02   6.42704807E-02   0.00000000E+00   8.08006094E-03   8.41554959E-11   9.24958172E-11   9.44539076E-11   1.00264317E-10
   7.87500000E+01   5.00000000E-01   5.00000000E-01   1.07481148E-01   1.09050748E-01   0.00000000E+00   0.00000000E+00   0.00000000E+00   2.09244659E-04   0.00000000E+00   1.01122893E-10   2.62487579E-03   1.63440312E-10   5.19847106E-04   9.78553090E-11   9.97835976E-11   9.78824634E-11   9.78827064E-11   4.99972911E-02   4.99979280E-02   6.47278883E-02   7.07606133E-02   1.90517425E-02   3.16391806E-11   9.95512118E-11   1.00063882E-10   9.96398879E-11   9.99407314E-11   9.98528788E-04   6.45299793E-02   6.42704807E-02   0.00000000E+00   8.08006094E-03   8.41562082E-11   9.24958172E-11   9.44539293E-11   1.00292636E-10
   9.62500000E+01   5.00000000E-01   5.00000000E-01   1.07481148E-01   1.09055902E-01   0.00000000E+00   0.00000000E+00   0.00000000E+00   2.09244659E-04   0.00000000E+00   1.01224802E-10   3.00016217E-03   1.70243527E-10   6.92794458E-04   9.78573347E-11   9.97857699E-11   9.78916036E-11   9.79037813E-11   4.99972914E-02   4.99980030E-02   6.47278883E-02   7.13254560E-02   1.83196906E-02   2.10349286E-11   9.95642988E-11   1.00295575E-10   9.96947060E-11   1.00129966E-10   9.98531000E-04   6.45551288E-02   6.42704807E-02   0.00000000E+00   8.08006094E-03   8.41569052E-11   9.24958172E-11   9.44539478E-11   1.00311621E-10
   1.13750000E+02   5.00000000E-01   5.00000000E-01   1.07481148E-01   1.09061870E-01   0.00000000E+00   0.00000000E+00   0.00000000E+00   2.09244659E-04   0.00000000E+00   1.01329842E-10   3.21885372E-03   1.77436353E-10   8.68290609E-04   9.78592779E-11   9.97876570E-11   9.79003525E-11   9.79229661E-11   4.99972918E-02   4.99980790E-02   6.47278883E-02   7.17403513E-02   1.77840077E-02   1.63529477E-11   9.95759849E-11   1.00479104E-10   9.97435925E-11   1.00288655E-10   9.98532814E-04   6.45823055E-02   6.42704807E-02   0.00000000E+00   8.08006095E-03   8.41574955E-11   9.24958172E-11   9.44539638E-11   1.00323924E-10
   1.31250000E+02   5.00000000E-01   5.00000000E-01   1.07481148E-01   1.09068687E-01   0.00000000E+00   0.00000000E+00   0.00000000E+00   2.09244659E-04   0.00000000E+00   1.01433820E-10   3.28939094E-03   1.84758145E-10   1.03635340E-03   9.78608882E-11   9.97890209E-11   9.79075829E-11   9.79377879E-11   4.99972924E-02   4.99981564E-02   6.47278883E-02   7.20117289E-02   1.74382926E-02   1.41839631E-11   9.95853019E-11   1.00602388E-10   9.97825013E-11   1.00404729E-10   9.98534085E-04   6.46096694E-02   6.42704807E-02   0.00000000E+00   8.08006095E-03   8.41579402E-11   9.24958172E-11   9.44539774E-11   1.00331816E-10
   1.48750000E+02   5.00000000E-01   5.00000000E-01   1.07481148E-01   1.09076419E-01   0.00000000E+00   0.00000000E+00   0.00000000E+00   2.09244658E-04   0.00000000E+00   1.01536629E-10   3.24565878E-03   1.92211133E-10   1.19333225E-03   9.78620870E-11   9.97898405E-11   9.79129450E-11   9.79477395E-11   4.99972930E-02   4.99982359E-02   6.47278883E-02   7.21676708E-02   1.72454329E-02   1.31311629E-11   9.95921814E-11   1.00671366E-10   9.98111613E-11   1.00480158E-10   9.98534831E-04   6.46362731E-02   6.42704807E-02   0.00000000E+00   8.08006095E-03   8.41582423E-11   9.24958172E-11   9.44539888E-11   1.00336957E-10
   1.66250000E+02   5.00000000E-01   5.00000000E-01   1.07481148E-01   1.09085117E-01   0.00000000E+00   0.00000000E+00   0.00000000E+00   2.09244658E-04   0.00000000E+00   1.01638911E-10   3.12742849E-03   1.99846663E-10   1.33935420E-03   9.78629244E-11   9.97902274E-11   9.79166709E-11   9.79536405E-11   4.99972938E-02   4.99983176E-02   6.47278883E-02   7.22419224E-02   1.71599470E-02   1.26022510E-11   9.95970868E-11   1.00700224E-10   9.98315298E-11   1.00524208E-10   9.98535165E-04   6.46615878E-02   6.42704807E-02   0.00000000E+00   8.08006095E-03   8.41584305E-11   9.24958172E-11   9.44539980E-11   1.00340423E-10
   1.83750000E+02   5.00000000E-01   5.00000000E-01   1.07481148E-01   1.09094752E-01   0.00000000E+00   0.00000000E+00   0.00000000E+00   2.09244658E-04   0.00000000E+00   1.01740386E-10   2.96950909E-03   2.07639796E-10   1.47654859E-03   9.78635135E-11   9.97903376E-11   9.79192734E-11   9.79568483E-11   4.99972946E-02   4.99984008E-02   6.47278883E-02   7.22651746E-02   1.71403071E-02   1.23301546E-11   9.96006791E-11   1.00704255E-10   9.98463866E-11   1.00548016E-10   9.98535238E-04   6.46852869E-02   6.42704807E-02   0.00000000E+00   8.08006096E-03   8.41585433E-11   9.24958172E-11   9.44540048E-11   1.00342830E-10
   2.01250000E+02   5.00000000E-01   5.00000000E-01   1.07481148E-01   1.09105300E-01   0.00000000E+00   0.00000000E+00   0.00000000E+00   2.09244658E-04   0.00000000E+00   1.01841605E-10   2.78945947E-03   2.15619877E-10   1.60492661E-03   9.78639298E-11   9.97902711E-11   9.79210958E-11   9.79582533E-11   4.99972955E-02   4.99984851E-02   6.47278883E-02   7.22564315E-02   1.71621063E-02   1.21866276E-11   9.96033932E-11   1.00693059E-10   9.98575590E-11   1.00558737E-10   9.98535141E-04   6.47075776E-02   6.42704807E-02   0.00000000E+00   8.08006096E-03   8.41586051E-11   9.24958172E-11   9.44540092E-11   1.00344548E-10
   2.18750000E+02   5.00000000E-01   5.00000000E-01   1.07481148E-01   1.09116751E-01   0.00000000E+00   0.00000000E+00   0.00000000E+00   2.09244657E-04   0.00000000E+00   1.01943721E-10   2.59640978E-03   2.23862258E-10   1.72311338E-03   9.78642092E-11   9.97900794E-11   9.79223010E-11   9.79583035E-11   4.99972964E-02   4.99985702E-02   6.47278883E-02   7.22261853E-02   1.72123501E-02   1.21080122E-11   9.96054496E-11   1.00671719E-10   9.98659755E-11   1.00560129E-10   9.98534920E-04   6.47291754E-02   6.42704807E-02   0.00000000E+00   8.08006096E-03   8.41586277E-11   9.24958172E-11   9.44540114E-11   1.00345819E-10
   2.36250000E+02   5.00000000E-01   5.00000000E-01   1.07481148E-01   1.09128984E-01   0.00000000E+00   0.00000000E+00   0.00000000E+00   2.09244657E-04   0.00000000E+00   1.02045810E-10   2.40105749E-03   2.32277181E-10   1.83240178E-03   9.78644020E-11   9.97898190E-11   9.79231161E-11   9.79575407E-11   4.99972974E-02   4.99986554E-02   6.47278883E-02   7.21839275E-02   1.72780555E-02   1.20628538E-11   9.96071064E-11   1.00645092E-10   9.98727179E-11   1.00556087E-10   9.98534629E-04   6.47507631E-02   6.42704807E-02   0.00000000E+00   8.08006096E-03   8.41586259E-11   9.24958172E-11   9.44540115E-11   1.00346763E-10
   2.53750000E+02   5.00000000E-01   5.00000000E-01   1.07481148E-01   1.09141877E-01   0.00000000E+00   0.00000000E+00   0.00000000E+00   2.09244657E-04   0.00000000E+00   1.02146758E-10   2.20656713E-03   2.40757402E-10   1.93117413E-03   9.78645220E-11   9.97895096E-11   9.79236044E-11   9.79561408E-11   4.99972985E-02   4.99987401E-02   6.47278883E-02   7.21338448E-02   1.73544196E-02   1.20348460E-11   9.96084490E-11   1.00615027E-10   9.98781451E-11   1.00548042E-10   9.98534288E-04   6.47729584E-02   6.42704807E-02   0.00000000E+00   8.08006096E-03   8.41586045E-11   9.24958172E-11   9.44540097E-11   1.00347459E-10
   2.71250000E+02   5.00000000E-01   5.00000000E-01   1.07481148E-01   1.09155302E-01   0.00000000E+00   0.00000000E+00   0.00000000E+00   2.09244657E-04   0.00000000E+00   1.02245040E-10   2.01607801E-03   2.49164642E-10   2.01849305E-03   9.78645779E-11   9.97891643E-11   9.79238056E-11   9.79542207E-11   4.99972996E-02   4.99988239E-02   6.47278883E-02   7.20784236E-02   1.74382743E-02   1.20157129E-11   9.96095242E-11   1.00582622E-10   9.98824540E-11   1.00536837E-10   9.98533908E-04   6.47960120E-02   6.42704807E-02   0.00000000E+00   8.08006097E-03   8.41585665E-11   9.24958172E-11   9.44540061E-11   1.00347960E-10
   2.88750000E+02   5.00000000E-01   5.00000000E-01   1.07481148E-01   1.09169134E-01   0.00000000E+00   0.00000000E+00   0.00000000E+00   2.09244657E-04   0.00000000E+00   1.02339013E-10   1.83258538E-03   2.57354410E-10   2.09424219E-03   9.78645817E-11   9.97887966E-11   9.79237737E-11   9.79519156E-11   4.99973008E-02   4.99989065E-02   6.47278883E-02   7.20195281E-02   1.75269410E-02   1.20013458E-11   9.96103808E-11   1.00548845E-10   9.98858500E-11   1.00523271E-10   9.98533504E-04   6.48196807E-02   6.42704807E-02   0.00000000E+00   8.08006097E-03   8.41585157E-11   9.24958172E-11   9.44540011E-11   1.00348297E-10
   3.06250000E+02   5.00000000E-01   5.00000000E-01   1.07481148E-01   1.09183280E-01   0.00000000E+00   0.00000000E+00   0.00000000E+00   2.09244656E-04   0.00000000E+00   1.02427447E-10   1.65857279E-03   2.65220364E-10   2.15894050E-03   9.78645485E-11   9.97884210E-11   9.79235771E-11   9.79493767E-11   4.99973020E-02   4.99989876E-02   6.47278883E-02   7.19586125E-02   1.76181432E-02   1.19897442E-11   9.96110741E-11   1.00514601E-10   9.98885639E-11   1.00508148E-10   9.98533091E-04   6.48433311E-02   6.42704807E-02   0.00000000E+00   8.08006097E-03   8.41584560E-11   9.24958172E-11   9.44539948E-11   1.00348483E-10
   3.23750000E+02   5.00000000E-01   5.00000000E-01   1.07481148E-01   1.09197692E-01   0.00000000E+00   0.00000000E+00   0.00000000E+00   2.09244656E-04   0.00000000E+00   1.02509829E-10   1.49583290E-03   2.72720003E-10   2.21349947E-03   9.78644946E-11   9.97880501E-11   9.79232888E-11   9.79467520E-11   4.99973033E-02   4.99990671E-02   6.47278883E-02   7.18967976E-02   1.77100293E-02   1.19799568E-11   9.96116612E-11   1.00480682E-10   9.98908352E-11   1.00492223E-10   9.98532683E-04   6.48661919E-02   6.42704807E-02   0.00000000E+00   8.08006097E-03   8.41583915E-11   9.24958172E-11   9.44539873E-11   1.00348524E-10
   3.41250000E+02   5.00000000E-01   5.00000000E-01   1.07481149E-01   1.09212361E-01   0.00000000E+00   0.00000000E+00   0.00000000E+00   2.09244656E-04   0.00000000E+00   1.02586372E-10   1.34541173E-03   2.79874998E-10   2.25896303E-03   9.78644349E-11   9.97876944E-11   9.79229757E-11   9.79441668E-11   4.99973046E-02   4.99991452E-02   6.47278883E-02   7.18349186E-02   1.78012010E-02   1.19715186E-11   9.96121954E-11   1.00447718E-10   9.98928860E-11   1.00476145E-10   9.98532290E-04   6.48875832E-02   6.42704807E-02   0.00000000E+00   8.08006097E-03   8.41583261E-11   9.24958172E-11   9.44539789E-11   1.00348419E-10
   3.58750000E+02   5.00000000E-01   5.00000000E-01   1.07481149E-01   1.09227306E-01   0.00000000E+00   0.00000000E+00   0.00000000E+00   2.09244655E-04   0.00000000E+00   1.02657847E-10   1.20757820E-03   2.86756763E-10   2.29611373E-03   9.78643801E-11   9.97873596E-11   9.79226850E-11   9.79417021E-11   4.99973059E-02   4.99992217E-02   6.47278883E-02   7.17734718E-02   1.78908738E-02   1.19641629E-11   9.96127151E-11   1.00416083E-10   9.98948755E-11   1.00460345E-10   9.98531919E-04   6.49070621E-02   6.42704807E-02   0.00000000E+00   8.08006098E-03   8.41582623E-11   9.24958172E-11   9.44539698E-11   1.00348165E-10
   3.76250000E+02   5.00000000E-01   5.00000000E-01   1.07481149E-01   1.09242556E-01   0.00000000E+00   0.00000000E+00   0.00000000E+00   2.09244655E-04   0.00000000E+00   1.02725330E-10   1.08210668E-03   2.93464075E-10   2.32556120E-03   9.78643366E-11   9.97870482E-11   9.79224449E-11   9.79394007E-11   4.99973073E-02   4.99992968E-02   6.47278883E-02   7.17127322E-02   1.79786619E-02   1.19577101E-11   9.96132449E-11   1.00385957E-10   9.98969061E-11   1.00445074E-10   9.98531573E-04   6.49244367E-02   6.42704807E-02   0.00000000E+00   8.08006098E-03   8.41582017E-11   9.24958172E-11   9.44539600E-11   1.00347758E-10
   3.93750000E+02   5.00000000E-01   5.00000000E-01   1.07481149E-01   1.09258142E-01   0.00000000E+00   0.00000000E+00   0.00000000E+00   2.09244655E-04   0.00000000E+00   1.02790012E-10   9.68393006E-04   3.00106044E-10   2.34761985E-03   9.78643062E-11   9.97867597E-11   9.79222641E-11   9.79372687E-11   4.99973088E-02   4.99993705E-02   6.47278883E-02   7.16527766E-02   1.80645552E-02   1.19520109E-11   9.96137941E-11   1.00357338E-10   9.98990158E-11   1.00430404E-10   9.98531251E-04   6.49397336E-02   6.42704807E-02   0.00000000E+00   8.08006098E-03   8.41581451E-11   9.24958172E-11   9.44539496E-11   1.00347199E-10
   4.11250000E+02   5.00000000E-01   5.00000000E-01   1.07481149E-01   1.09274080E-01   0.00000000E+00   0.00000000E+00   0.00000000E+00   2.09244655E-04   0.00000000E+00   1.02853050E-10   8.65642854E-04   3.06788775E-10   2.36242579E-03   9.78642877E-11   9.97864916E-11   9.79221361E-11   9.79352874E-11   4.99973103E-02   4.99994429E-02   6.47278883E-02   7.15935615E-02   1.81487613E-02   1.19469345E-11   9.96143600E-11   1.00330112E-10   9.99011932E-11   1.00416282E-10   9.98530952E-04   6.49531412E-02   6.42704807E-02   0.00000000E+00   8.08006099E-03   8.41580923E-11   9.24958172E-11   9.44539389E-11   1.00346489E-10
   4.28750000E+02   5.00000000E-01   5.00000000E-01   1.07481149E-01   1.09290369E-01   0.00000000E+00   0.00000000E+00   0.00000000E+00   2.09244654E-04   0.00000000E+00   1.02915479E-10   7.72996829E-04   3.13606398E-10   2.37005487E-03   9.78642776E-11   9.97862405E-11   9.79220456E-11   9.79334249E-11   4.99973118E-02   4.99995138E-02   6.47278883E-02   7.15350007E-02   1.82315643E-02   1.19423677E-11   9.96149329E-11   1.00304109E-10   9.99033971E-11   1.00402587E-10   9.98530673E-04   6.49649543E-02   6.42704807E-02   0.00000000E+00   8.08006099E-03   8.41580426E-11   9.24958172E-11   9.44539278E-11   1.00345632E-10
   4.46250000E+02   5.00000000E-01   5.00000000E-01   1.07481150E-01   1.09306988E-01   0.00000000E+00   0.00000000E+00   0.00000000E+00   2.09244654E-04   0.00000000E+00   1.02978156E-10   6.89570215E-04   3.20635438E-10   2.37049544E-03   9.78642710E-11   9.97860027E-11   9.79219707E-11   9.79316410E-11   4.99973135E-02   4.99995833E-02   6.47278883E-02   7.14769822E-02   1.83133034E-02   1.19382119E-11   9.96154974E-11   1.00279132E-10   9.99055631E-11   1.00389157E-10   9.98530408E-04   6.49755399E-02   6.42704807E-02   0.00000000E+00   8.08006099E-03   8.41579953E-11   9.24958172E-11   9.44539165E-11   1.00344635E-10
   4.63750000E+02   5.00000000E-01   5.00000000E-01   1.07481150E-01   1.09323892E-01   0.00000000E+00   0.00000000E+00   0.00000000E+00   2.09244653E-04   0.00000000E+00   1.03041720E-10   6.14506574E-04   3.27930501E-10   2.36371858E-03   9.78642622E-11   9.97857746E-11   9.79218862E-11   9.79298935E-11   4.99973152E-02   4.99996512E-02   6.47278883E-02   7.14193976E-02   1.83943111E-02   1.19343838E-11   9.96160351E-11   1.00254983E-10   9.99076146E-11   1.00375811E-10   9.98530154E-04   6.49853094E-02   6.42704807E-02   0.00000000E+00   8.08006100E-03   8.41579491E-11   9.24958172E-11   9.44539050E-11   1.00343504E-10
   4.81250000E+02   5.00000000E-01   5.00000000E-01   1.07481150E-01   1.09341013E-01   0.00000000E+00   0.00000000E+00   0.00000000E+00   2.09244653E-04   0.00000000E+00   1.03106570E-10   5.47006316E-04   3.35520813E-10   2.34973171E-03   9.78642455E-11   9.97855529E-11   9.79217663E-11   9.79281425E-11   4.99973169E-02   4.99997173E-02   6.47278883E-02   7.13621667E-02   1.84748671E-02   1.19308161E-11   9.96165273E-11   1.00231489E-10   9.99094738E-11   1.00362384E-10   9.98529909E-04   6.49946940E-02   6.42704807E-02   0.00000000E+00   8.08006100E-03   8.41579032E-11   9.24958172E-11   9.44538935E-11   1.00342248E-10
   4.98750000E+02   5.00000000E-01   5.00000000E-01   1.07481150E-01   1.09358531E-01   0.00000000E+00   0.00000000E+00   0.00000000E+00   2.09244653E-04   0.00000000E+00   1.03174020E-10   4.85125768E-04   3.43536856E-10   2.32121652E-03   9.78641750E-11   9.97853158E-11   9.79214083E-11   9.79260881E-11   4.99973187E-02   4.99997827E-02   6.47278883E-02   7.13029396E-02   1.85597448E-02   1.19272239E-11   9.96167863E-11   1.00207226E-10   9.99103615E-11   1.00347208E-10   9.98529649E-04   6.50041250E-02   6.42704807E-02   0.00000000E+00   8.08006100E-03   8.41578485E-11   9.24958172E-11   9.44538820E-11   1.00340900E-10
   5.16250000E+02   5.00000000E-01   5.00000000E-01   1.07481151E-01   1.09376196E-01   0.00000000E+00   0.00000000E+00   0.00000000E+00   2.09244652E-04   0.00000000E+00   1.03243520E-10   4.30084190E-04   3.51919134E-10   2.28758881E-03   9.78640799E-11   9.97850788E-11   9.79209418E-11   9.79239371E-11   4.99973207E-02   4.99998464E-02   6.47278883E-02   7.12436916E-02   1.86442260E-02   1.19237959E-11   9.96169348E-11   1.00183225E-10   9.99107885E-11   1.00331479E-10   9.98529389E-04   6.50141394E-02   6.42704807E-02   0.00000000E+00   8.08006101E-03   8.41577909E-11   9.24958172E-11   9.44538705E-11   1.00339459E-10
   5.33750000E+02   5.00000000E-01   5.00000000E-01   1.07481151E-01   1.09393828E-01   0.00000000E+00   0.00000000E+00   0.00000000E+00   2.09244652E-04   0.00000000E+00   1.03314305E-10   3.80937563E-04   3.60569726E-10   2.24817671E-03   9.78639660E-11   9.97848449E-11   9.79203926E-11   9.79217326E-11   4.99973226E-02   4.99999080E-02   6.47278883E-02   7.11850570E-02   1.87280391E-02   1.19205564E-11   9.96170041E-11   1.00159735E-10   9.99108852E-11   1.00315511E-10   9.98529133E-04   6.50250541E-02   6.42704807E-02   0.00000000E+00   8.08006101E-03   8.41577317E-11   9.24958172E-11   9.44538591E-11   1.00337927E-10
   5.51250000E+02   5.00000000E-01   5.00000000E-01   1.07481152E-01   1.09411299E-01   0.00000000E+00   0.00000000E+00   0.00000000E+00   2.09244651E-04   0.00000000E+00   1.03385616E-10   3.36942019E-04   3.69392426E-10   2.20247153E-03   9.78638303E-11   9.97846129E-11   9.79197484E-11   9.79194614E-11   4.99973247E-02   4.99999672E-02   6.47278883E-02   7.11271053E-02   1.88114199E-02   1.19174823E-11   9.96169879E-11   1.00136716E-10   9.99106255E-11   1.00299276E-10   9.98528880E-04   6.50370780E-02   6.42704807E-02   0.00000000E+00   8.08006102E-03   8.41576705E-11   9.24958172E-11   9.44538478E-11   1.00336310E-10
   5.68750000E+02   5.00000000E-01   5.00000000E-01   1.07481152E-01   1.09428515E-01   0.00000000E+00   0.00000000E+00   0.00000000E+00   2.09244651E-04   0.00000000E+00   1.03456642E-10   2.97576086E-04   3.78288006E-10   2.15080192E-03   9.78636713E-11   9.97843827E-11   9.79190019E-11   9.79171183E-11   4.99973268E-02   5.00000241E-02   6.47278884E-02   7.10698595E-02   1.88943912E-02   1.19145598E-11   9.96168808E-11   1.00114138E-10   9.99099880E-11   1.00282757E-10   9.98528628E-04   6.50502742E-02   6.42704807E-02   0.00000000E+00   8.08006102E-03   8.41576071E-11   9.24958172E-11   9.44538367E-11   1.00334612E-10
   5.86250000E+02   5.00000000E-01   5.00000000E-01   1.07481153E-01   1.09445410E-01   0.00000000E+00   0.00000000E+00   0.00000000E+00   2.09244650E-04   0.00000000E+00   1.03526582E-10   2.62411432E-04   3.87160845E-10   2.09382775E-03   9.78634898E-11   9.97841547E-11   9.79181573E-11   9.79147138E-11   4.99973289E-02   5.00000785E-02   6.47278884E-02   7.10133817E-02   1.89768295E-02   1.19117875E-11   9.96166855E-11   1.00092027E-10   9.99089842E-11   1.00266004E-10   9.98528378E-04   6.50645383E-02   6.42704807E-02   0.00000000E+00   8.08006103E-03   8.41575416E-11   9.24958172E-11   9.44538257E-11   1.00332839E-10
   6.03750000E+02   5.00000000E-01   5.00000000E-01   1.07481153E-01   1.09461952E-01   0.00000000E+00   0.00000000E+00   0.00000000E+00   2.09244650E-04   0.00000000E+00   1.03594745E-10   2.31073043E-04   3.95930231E-10   2.03238464E-03   9.78632890E-11   9.97839305E-11   9.79172288E-11   9.79122710E-11   4.99973311E-02   5.00001304E-02   6.47278884E-02   7.09577753E-02   1.90585110E-02   1.19091717E-11   9.96164125E-11   1.00070448E-10   9.99076584E-11   1.00249126E-10   9.98528132E-04   6.50796162E-02   6.42704807E-02   0.00000000E+00   8.08006103E-03   8.41574746E-11   9.24958172E-11   9.44538149E-11   1.00330994E-10
   6.21250000E+02   5.00000000E-01   5.00000000E-01   1.07481154E-01   1.09478142E-01   0.00000000E+00   0.00000000E+00   0.00000000E+00   2.09244649E-04   0.00000000E+00   1.03660633E-10   2.03219403E-04   4.04539377E-10   1.96738861E-03   9.78630735E-11   9.97837119E-11   9.79162373E-11   9.79098209E-11   4.99973334E-02   5.00001799E-02   6.47278884E-02   7.09031721E-02   1.91391539E-02   1.19067208E-11   9.96160787E-11   1.00049495E-10   9.99060805E-11   1.00232270E-10   9.98527891E-04   6.50951526E-02   6.42704807E-02   3.72151119E-29   8.08006103E-03   8.41574070E-11   9.24958172E-11   9.44538044E-11   1.00329083E-10
   6.38750000E+02   5.00000000E-01   5.00000000E-01   1.07481154E-01   1.09494001E-01   0.00000000E+00   0.00000000E+00   0.00000000E+00   2.09244649E-04   0.00000000E+00   1.03723978E-10   1.78529948E-04   4.12959081E-10   1.89974570E-03   9.78628490E-11   9.97835009E-11   9.79152077E-11   9.79073964E-11   4.99973358E-02   5.00002272E-02   6.47278884E-02   7.08497162E-02   1.92184604E-02   1.19044421E-11   9.96157047E-11   1.00029267E-10   9.99043360E-11   1.00215605E-10   9.98527658E-04   6.51107546E-02   6.42704807E-02   7.89015719E-29   8.08006104E-03   8.41573397E-11   9.24958172E-11   9.44537941E-11   1.00327109E-10
   6.56250000E+02   5.00000000E-01   5.00000000E-01   1.07481155E-01   1.09509560E-01   0.00000000E+00   0.00000000E+00   0.00000000E+00   2.09244648E-04   0.00000000E+00   1.03784737E-10   1.56698573E-04   4.21185673E-10   1.83027517E-03   9.78626210E-11   9.97832990E-11   9.79141640E-11   9.79050282E-11   4.99973382E-02   5.00002721E-02   6.47278884E-02   7.07975493E-02   1.92961535E-02   1.19023388E-11   9.96153122E-11   1.00009857E-10   9.99025149E-11   1.00199291E-10   9.98527434E-04   6.51260508E-02   6.42704807E-02   1.67709924E-28   8.08006105E-03   8.41572737E-11   9.24958172E-11   9.44537841E-11   1.00325075E-10
   6.73750000E+02   5.00000000E-01   5.00000000E-01   1.07481156E-01   1.09524847E-01   0.00000000E+00   0.00000000E+00   0.00000000E+00   2.09244647E-04   0.00000000E+00   1.03843040E-10   1.37432791E-04   4.29234692E-10   1.75966968E-03   9.78623943E-11   9.97831075E-11   9.79131280E-11   9.79027411E-11   4.99973407E-02   5.00003150E-02   6.47278884E-02   7.07468001E-02   1.93719977E-02   1.19004089E-11   9.96149221E-11   9.99913341E-11   9.99007031E-11   1.00183472E-10   9.98527220E-04   6.51407349E-02   6.42704807E-02   3.57418704E-28   8.08006105E-03   8.41572098E-11   9.24958172E-11   9.44537744E-11   1.00322984E-10
   6.91250000E+02   5.00000000E-01   5.00000000E-01   1.07481157E-01   1.09539876E-01   0.00000000E+00   0.00000000E+00   0.00000000E+00   2.09244647E-04   0.00000000E+00   1.03899139E-10   1.20454781E-04   4.37132790E-10   1.68846116E-03   9.78621728E-11   9.97829270E-11   9.79121165E-11   9.79005527E-11   4.99973432E-02   5.00003557E-02   6.47278884E-02   7.06975751E-02   1.94458175E-02   1.18986462E-11   9.96145524E-11   9.99737439E-11   9.98989753E-11   1.00168258E-10   9.98527018E-04   6.51545884E-02   6.42704807E-02   7.63801576E-28   8.08006106E-03   8.41571488E-11   9.24958172E-11   9.44537650E-11   1.00320840E-10
   7.08750000E+02   5.00000000E-01   5.00000000E-01   1.07481158E-01   1.09554642E-01   0.00000000E+00   0.00000000E+00   0.00000000E+00   2.09244646E-04   0.00000000E+00   1.03953335E-10   1.05506001E-04   4.44909285E-10   1.61705461E-03   9.78619592E-11   9.97827577E-11   9.79111413E-11   9.78984733E-11   4.99973458E-02   5.00003942E-02   6.47278884E-02   7.06499579E-02   1.95174875E-02   1.18970408E-11   9.96142179E-11   9.99571058E-11   9.98973923E-11   1.00153731E-10   9.98526827E-04   6.51674866E-02   6.42704807E-02   2.90237242E-13   8.08006106E-03   8.41570910E-11   9.24958172E-11   9.44537558E-11   1.00318647E-10
   7.26250000E+02   5.00000000E-01   5.00000000E-01   1.07481159E-01   1.09569109E-01   0.00000000E+00   0.00000000E+00   0.00000000E+00   2.09244645E-04   0.00000000E+00   1.04005924E-10   9.23495733E-05   4.52588567E-10   1.54575090E-03   9.78617553E-11   9.97825995E-11   9.79102099E-11   9.78965073E-11   4.99973485E-02   5.00004307E-02   6.47278884E-02   7.06040122E-02   1.95869246E-02   1.18955809E-11   9.96139305E-11   9.99414182E-11   9.98960019E-11   1.00139940E-10   9.98526648E-04   6.51793914E-02   6.42704807E-02   1.20877658E-12   8.08006107E-03   8.41570369E-11   9.24958172E-11   9.44537470E-11   1.00316406E-10
   7.43750000E+02   5.00000000E-01   5.00000000E-01   1.07481160E-01   1.09583219E-01   0.00000000E+00   0.00000000E+00   0.00000000E+00   2.09244644E-04   0.00000000E+00   1.04057150E-10   8.07715243E-05   4.60183882E-10   1.47477193E-03   9.78615620E-11   9.97824519E-11   9.79093264E-11   9.78946543E-11   4.99973513E-02   5.00004648E-02   6.47278884E-02   7.05597836E-02   1.96540783E-02   1.18942540E-11   9.96136988E-11   9.99266630E-11   9.98948401E-11   1.00126914E-10   9.98526480E-04   6.51903400E-02   6.42704807E-02   2.94863079E-12   8.08006108E-03   8.41569865E-11   9.24958172E-11   9.44537385E-11   1.00314122E-10
   7.61250000E+02   5.00000000E-01   5.00000000E-01   1.07481161E-01   1.09596885E-01   0.00000000E+00   0.00000000E+00   0.00000000E+00   2.09244644E-04   0.00000000E+00   1.04107165E-10   7.05809406E-05   4.67692514E-10   1.40428658E-03   9.78613796E-11   9.97823144E-11   9.79084920E-11   9.78929113E-11   4.99973541E-02   5.00004966E-02   6.47278884E-02   7.05173035E-02   1.97189207E-02   1.18930477E-11   9.96135295E-11   9.99128108E-11   9.98939334E-11   1.00114661E-10   9.98526322E-04   6.52004286E-02   6.42704807E-02   6.02547723E-12   8.08006109E-03   8.41569400E-11   9.24958172E-11   9.44537302E-11   1.00311796E-10
   7.78750000E+02   5.00000000E-01   5.00000000E-01   1.07481162E-01   1.09610002E-01   0.00000000E+00   0.00000000E+00   0.00000000E+00   2.09244643E-04   0.00000000E+00   1.04156002E-10   6.16092567E-05   4.75092433E-10   1.33443511E-03   9.78612080E-11   9.97821863E-11   9.79077065E-11   9.78912734E-11   4.99973570E-02   5.00005258E-02   6.47278884E-02   7.04765923E-02   1.97814369E-02   1.18919503E-11   9.96134275E-11   9.98998252E-11   9.98933014E-11   1.00103179E-10   9.98526175E-04   6.52097948E-02   6.42704807E-02   1.12360004E-11   8.08006109E-03   8.41568973E-11   9.24958172E-11   9.44537222E-11   1.00309434E-10
   7.96250000E+02   5.00000000E-01   5.00000000E-01   1.07481164E-01   1.09622447E-01   0.00000000E+00   0.00000000E+00   0.00000000E+00   2.09244642E-04   0.00000000E+00   1.04203559E-10   5.37089545E-05   4.82340494E-10   1.26535188E-03   9.78610472E-11   9.97820670E-11   9.79069691E-11   9.78897353E-11   4.99973599E-02   5.00005523E-02   6.47278884E-02   7.04376626E-02   1.98416167E-02   1.18909516E-11   9.96133967E-11   9.98876672E-11   9.98929599E-11   1.00092457E-10   9.98526037E-04   6.52185975E-02   6.42704807E-02   1.98033157E-11   8.08006110E-03   8.41568583E-11   9.24958172E-11   9.44537146E-11   1.00307036E-10