 TITLE = "Mineral Volumes" 
VARIABLES = "X"          "Y"              "Z"            "Forsterite"     "Fayalite"       "Brucite"        "Lizardite"      "Chrysotile"     "Saponite(Mg)"   "Enstatite(alph" "Ferrosilite(al" "Anorthite"      "Albite(low)"    "Clinochlore"    "Sudoite"        "Montmorillonit" "Kaolinite"      "Tremolite"      "Pargasite"      "Anhydrite"      "Epidote"        "Scolecite"      "Pyrite"         "FeS(am)"        "Quartz(alpha)" 
 ZONE I=         100 , J=           1 , K=           1  F=POINT
   1.75000000E+01   5.00000000E-01   5.00000000E-01   8.98953048E-02   1.03073181E-01   2.65500928E-11   9.61533544E-14   8.32010120E-14   0.00000000E+00   4.99976347E-02   4.99990246E-02   3.54781146E-02   7.42422636E-02   7.58893936E-02   8.14057341E-10   4.81937442E-12   5.93215593E-09   6.52412688E-02   6.50056602E-02   4.56297765E-11   9.99999955E-04   9.85270139E-04   5.08128082E-11   6.09061078E-11   1.00278256E-10
   5.25000000E+01   5.00000000E-01   5.00000000E-01   8.98953052E-02   1.05360518E-01   2.65501022E-11   1.11845497E-13   9.39114174E-14   0.00000000E+00   4.99976382E-02   5.00002802E-02   3.54781147E-02   8.05425610E-02   6.92310929E-02   2.35155250E-10   2.41550107E-10   5.76699554E-09   6.56195558E-02   6.50056602E-02   4.63452735E-11   1.00000001E-03   9.85271206E-04   5.08128082E-11   6.09110308E-11   1.00384001E-10
   8.75000000E+01   5.00000000E-01   5.00000000E-01   8.98953055E-02   1.06891848E-01   2.65501164E-11   1.12203170E-13   9.46541833E-14   0.00000000E+00   4.99976399E-02   5.00008882E-02   3.54781147E-02   8.39602101E-02   6.56199479E-02   2.24783310E-10   1.47603020E-08   5.93121965E-09   6.59509467E-02   6.50056602E-02   4.71471370E-11   1.00000000E-03   9.85272750E-04   5.08128082E-11   6.09133738E-11   1.00412869E-10
   1.22500000E+02   5.00000000E-01   5.00000000E-01   8.98953058E-02   1.07662591E-01   2.65501310E-11   1.03753433E-13   8.94815900E-14   0.00000000E+00   4.99976407E-02   5.00011095E-02   3.54781148E-02   8.55347356E-02   6.39556664E-02   2.90382980E-10   4.86654258E-07   6.21467076E-09   6.59991483E-02   6.50056602E-02   4.80512841E-11   1.00000000E-03   9.85274625E-04   5.08128082E-11   6.09143919E-11   1.00411267E-10
   1.57500000E+02   5.00000000E-01   5.00000000E-01   8.98953061E-02   1.08065630E-01   2.65501469E-11   9.43702125E-14   8.33972427E-14   0.00000000E+00   4.99976413E-02   5.00011762E-02   3.54781149E-02   8.61406544E-02   6.33049841E-02   4.33460796E-10   8.46850477E-06   6.58303555E-09   6.58674363E-02   6.50056602E-02   4.90756855E-11   1.00000000E-03   9.85276789E-04   5.08128082E-11   6.09147261E-11   1.00400133E-10
   1.92500000E+02   5.00000000E-01   5.00000000E-01   8.98953064E-02   1.08313437E-01   2.65501646E-11   8.67231358E-14   7.82636005E-14   0.00000000E+00   4.99976419E-02   5.00011858E-02   3.54781150E-02   8.62663519E-02   6.30566897E-02   7.12141994E-10   9.66019243E-05   7.02326779E-09   6.56897860E-02   6.50056602E-02   5.02402860E-11   1.00000000E-03   9.85279228E-04   5.08128082E-11   6.09146618E-11   1.00386767E-10
   2.27500000E+02   5.00000000E-01   5.00000000E-01   8.98953068E-02   1.08517361E-01   2.65501866E-11   8.25449125E-14   7.54670972E-14   0.00000000E+00   4.99976426E-02   5.00011762E-02   3.54781153E-02   8.58567949E-02   6.28331577E-02   1.22636730E-09   5.97477274E-04   7.52093683E-09   6.55960300E-02   6.50056602E-02   5.15671581E-11   1.00000000E-03   9.85281919E-04   5.08128082E-11   6.09143438E-11   1.00372517E-10
   2.62500000E+02   5.00000000E-01   5.00000000E-01   8.98953074E-02   1.08709623E-01   2.65502140E-11   8.12450911E-14   7.47281565E-14   0.00000000E+00   4.99976436E-02   5.00011577E-02   3.54781156E-02   8.48856127E-02   6.25585070E-02   2.12127164E-09   1.59027398E-03   8.06312346E-09   6.56015616E-02   6.50056602E-02   5.30821529E-11   1.00000000E-03   9.85284846E-04   5.08128082E-11   6.09138469E-11   1.00357799E-10
   2.97500000E+02   5.00000000E-01   5.00000000E-01   8.98953082E-02   1.08872947E-01   2.65502449E-11   8.08284364E-14   7.46318166E-14   0.00000000E+00   4.99976447E-02   5.00011275E-02   3.54781160E-02   8.37297568E-02   6.23332372E-02   3.60207064E-09   2.69430612E-03   8.63862288E-09   6.56348812E-02   6.50056602E-02   5.48168492E-11   1.00000000E-03   9.85288000E-04   5.08128082E-11   6.09132151E-11   1.00343329E-10
   3.32500000E+02   5.00000000E-01   5.00000000E-01   8.98953091E-02   1.09014061E-01   2.65502784E-11   8.07215611E-14   7.47634891E-14   0.00000000E+00   4.99976459E-02   5.00010890E-02   3.54781166E-02   8.25724157E-02   6.21468042E-02   5.95572822E-09   3.76989324E-03   9.23395526E-09   6.56776996E-02   6.50056602E-02   5.68093684E-11   1.00000000E-03   9.85291371E-04   5.08128082E-11   6.09124896E-11   1.00329361E-10
   3.67500000E+02   5.00000000E-01   5.00000000E-01   8.98953102E-02   1.09142160E-01   2.65503143E-11   8.07846141E-14   7.50228753E-14   0.00000000E+00   4.99976471E-02   5.00010459E-02   3.54781173E-02   8.14657354E-02   6.19784646E-02   9.56953897E-09   4.79081445E-03   9.83510745E-09   6.57261596E-02   6.50056602E-02   5.91058538E-11   1.00000000E-03   9.85294946E-04   5.08128082E-11   6.09117025E-11   1.00315897E-10
   4.02500000E+02   5.00000000E-01   5.00000000E-01   8.98953116E-02   1.09262128E-01   2.65503526E-11   8.09264683E-14   7.53429243E-14   0.00000000E+00   4.99976483E-02   5.00009999E-02   3.54781184E-02   8.04233120E-02   6.18186241E-02   1.49226897E-08   5.75342745E-03   1.04362301E-08   6.57782423E-02   6.50056602E-02   6.17625477E-11   1.00000000E-03   9.85298724E-04   5.08128082E-11   6.09108781E-11   1.00302876E-10
   4.37500000E+02   5.00000000E-01   5.00000000E-01   8.98953131E-02   1.09376113E-01   2.65503932E-11   8.10474157E-14   7.56468619E-14   0.00000000E+00   4.99976496E-02   5.00009523E-02   3.54781198E-02   7.94470322E-02   6.16640510E-02   2.25805291E-08   6.65867613E-03   1.10395743E-08   6.58321468E-02   6.50056602E-02   6.48485459E-11   1.00000000E-03   9.85302719E-04   5.08128082E-11   6.09100355E-11   1.00290244E-10
   4.72500000E+02   5.00000000E-01   5.00000000E-01   8.98953150E-02   1.09485080E-01   2.65504362E-11   8.10958164E-14   7.58930703E-14   0.00000000E+00   4.99976509E-02   5.00009038E-02   3.54781216E-02   7.85351444E-02   6.15140096E-02   3.31670424E-08   7.50853328E-03   1.16473393E-08   6.58861792E-02   6.50056602E-02   6.84494548E-11   1.00000000E-03   9.85306950E-04   5.08128082E-11   6.09091904E-11   1.00277968E-10
   5.07500000E+02   5.00000000E-01   5.00000000E-01   8.98953171E-02   1.09589603E-01   2.65504817E-11   8.10713135E-14   7.60795692E-14   0.00000000E+00   4.99976522E-02   5.00008548E-02   3.54781240E-02   7.76849414E-02   6.13682821E-02   4.74331058E-08   8.30534689E-03   1.22595770E-08   6.59388219E-02   6.50056602E-02   7.26722821E-11   1.00000000E-03   9.85311437E-04   5.08128082E-11   6.09083551E-11   1.00266035E-10
   5.42500000E+02   5.00000000E-01   5.00000000E-01   8.98953195E-02   1.09690254E-01   2.65505297E-11   8.09956183E-14   7.62223016E-14   0.00000000E+00   4.99976536E-02   5.00008059E-02   3.54781272E-02   7.68936091E-02   6.12262352E-02   6.63166340E-08   9.05186812E-03   1.28703688E-08   6.59887709E-02   6.50056602E-02   7.76520453E-11   1.00000000E-03   9.85316196E-04   5.08128082E-11   6.09075400E-11   1.00254441E-10
   5.77500000E+02   5.00000000E-01   5.00000000E-01   8.98953223E-02   1.09787608E-01   2.65505805E-11   8.09001347E-14   7.63458617E-14   0.00000000E+00   4.99976549E-02   5.00007572E-02   3.54781313E-02   7.61583459E-02   6.10869014E-02   9.09300004E-08   9.75109226E-03   1.34669715E-08   6.60349539E-02   6.50056602E-02   8.35607937E-11   1.00000000E-03   9.85321239E-04   5.08128082E-11   6.09067526E-11   1.00243189E-10
   6.12500000E+02   5.00000000E-01   5.00000000E-01   8.98953256E-02   1.09881994E-01   2.65506342E-11   8.08242110E-14   7.64824296E-14   0.00000000E+00   4.99976561E-02   5.00007090E-02   3.54781366E-02   7.54762986E-02   6.09495370E-02   1.22560785E-07   1.04058855E-02   1.40389236E-08   6.60765414E-02   6.50056602E-02   9.06200498E-11   1.00000000E-03   9.85326585E-04   5.08128082E-11   6.09059987E-11   1.00232284E-10
   6.47500000E+02   5.00000000E-01   5.00000000E-01   8.98953293E-02   1.09973357E-01   2.65506909E-11   8.08169244E-14   7.66735566E-14   0.00000000E+00   4.99976574E-02   5.00006614E-02   3.54781435E-02   7.48444923E-02   6.08139053E-02   1.62540542E-07   1.10188249E-02   1.45883203E-08   6.61129630E-02   6.50056602E-02   9.91181724E-11   1.00000000E-03   9.85332285E-04   5.08128082E-11   6.09052825E-11   1.00221735E-10
   6.82500000E+02   5.00000000E-01   5.00000000E-01   8.98953336E-02   1.10061502E-01   2.65507510E-11   8.09395452E-14   7.69725746E-14   0.00000000E+00   4.99976587E-02   5.00006145E-02   3.54781524E-02   7.42599972E-02   6.06798581E-02   2.12268607E-07   1.15923830E-02   1.51261888E-08   6.61439064E-02   6.50056602E-02   1.09434913E-10   1.00000000E-03   9.85338415E-04   5.08128082E-11   6.09046068E-11   1.00211550E-10
   7.17500000E+02   5.00000000E-01   5.00000000E-01   8.98953386E-02   1.10146526E-01   2.65508146E-11   8.12683728E-14   7.74473879E-14   0.00000000E+00   4.99976599E-02   5.00005684E-02   3.54781640E-02   7.37202368E-02   6.05464747E-02   2.73610748E-07   1.21293363E-02   1.56603079E-08   6.61692695E-02   6.50056602E-02   1.22076648E-10   1.00000000E-03   9.85345060E-04   5.08128082E-11   6.09039730E-11   1.00201736E-10
   7.52500000E+02   5.00000000E-01   5.00000000E-01   8.98953443E-02   1.10228724E-01   2.65508821E-11   8.19013629E-14   7.81865784E-14   0.00000000E+00   4.99976611E-02   5.00005231E-02   3.54781789E-02   7.32229109E-02   6.04124335E-02   3.48764471E-07   1.26325437E-02   1.61933244E-08   6.61891279E-02   6.50056602E-02   1.37727627E-10   1.00000000E-03   9.85352319E-04   5.08128082E-11   6.09033820E-11   1.00192294E-10
   7.87500000E+02   5.00000000E-01   5.00000000E-01   8.98953511E-02   1.10308470E-01   2.65509541E-11   8.29680076E-14   7.93085135E-14   0.00000000E+00   4.99976623E-02   5.00004787E-02   3.54781984E-02   7.27659836E-02   6.02763293E-02   4.40556678E-07   1.31047130E-02   1.67261266E-08   6.62036815E-02   6.50056602E-02   1.57325664E-10   1.00000000E-03   9.85360309E-04   5.08128082E-11   6.09028336E-11   1.00183218E-10
   8.22500000E+02   5.00000000E-01   5.00000000E-01   8.98953590E-02   1.10386182E-01   2.65510309E-11   8.46456535E-14   8.09763221E-14   0.00000000E+00   4.99976634E-02   5.00004351E-02   3.54782237E-02   7.23476894E-02   6.01368191E-02   5.52438666E-07   1.35482852E-02   1.72579836E-08   6.62132174E-02   6.50056602E-02   1.82175769E-10   1.00000000E-03   9.85369180E-04   5.08128082E-11   6.09023269E-11   1.00174503E-10
   8.57500000E+02   5.00000000E-01   5.00000000E-01   8.98953686E-02   1.10462349E-01   2.65511135E-11   8.71851404E-14   8.34214485E-14   0.00000000E+00   4.99976645E-02   5.00003924E-02   3.54782567E-02   7.19666196E-02   5.99925785E-02   6.88929564E-07   1.39653969E-02   1.77862422E-08   6.62180624E-02   6.50056602E-02   2.14123755E-10   9.99999999E-04   9.85379119E-04   5.08128082E-11   6.09018605E-11   1.00166135E-10
   8.92500000E+02   5.00000000E-01   5.00000000E-01   8.98953803E-02   1.10537490E-01   2.65512026E-11   9.09531758E-14   8.69825366E-14   0.00000000E+00   4.99976656E-02   5.00003505E-02   3.54783001E-02   7.16217865E-02   5.98423917E-02   8.55669379E-07   1.43577592E-02   1.83055191E-08   6.62185610E-02   6.50056602E-02   2.55826405E-10   9.99999998E-04   9.85390375E-04   5.08128082E-11   6.09014326E-11   1.00158101E-10
   9.27500000E+02   5.00000000E-01   5.00000000E-01   8.98953948E-02   1.10612143E-01   2.65512995E-11   9.65021554E-14   9.21694873E-14   0.00000000E+00   4.99976666E-02   5.00003093E-02   3.54783574E-02   7.13127696E-02   5.96851067E-02   1.06029296E-06   1.47265724E-02   1.88083552E-08   6.62150345E-02   6.50056602E-02   3.11180381E-10   9.99999997E-04   9.85403282E-04   5.08128082E-11   6.09010411E-11   1.00150384E-10
   9.62500000E+02   5.00000000E-01   5.00000000E-01   8.98954133E-02   1.10686848E-01   2.65514057E-11   1.04689417E-13   9.97727559E-14   0.00000000E+00   4.99976676E-02   5.00002689E-02   3.54784336E-02   7.10398795E-02   5.95195536E-02   1.31297602E-06   1.50724540E-02   1.92866039E-08   6.62077626E-02   6.50056602E-02   3.86017733E-10   9.99999995E-04   9.85418311E-04   5.08128082E-11   6.09006837E-11   1.00142967E-10
   9.97500000E+02   5.00000000E-01   5.00000000E-01   8.98954373E-02   1.10762096E-01   2.65515233E-11   1.16884630E-13   1.11053327E-13   0.00000000E+00   4.99976686E-02   5.00002291E-02   3.54785364E-02   7.08043874E-02   5.93444670E-02   1.62640566E-06   1.53953121E-02   1.97340601E-08   6.61969981E-02   6.50056602E-02   4.89259675E-10   9.99999993E-04   9.85436166E-04   5.08128082E-11   6.09003580E-11   1.00135830E-10
   1.03250000E+03   5.00000000E-01   5.00000000E-01   8.98954691E-02   1.10838193E-01   2.65516546E-11   1.35333484E-13   1.28076063E-13   0.00000000E+00   4.99976695E-02   5.00001898E-02   3.54786776E-02   7.06089790E-02   5.91584579E-02   2.01656218E-06   1.56939958E-02   2.01506526E-08   6.61829721E-02   6.50056602E-02   6.34877611E-10   9.99999990E-04   9.85457946E-04   5.08128082E-11   6.09000614E-11   1.00128954E-10
   1.06750000E+03   5.00000000E-01   5.00000000E-01   8.98955118E-02   1.10915274E-01   2.65518029E-11   1.63793479E-13   1.54293926E-13   0.00000000E+00   4.99976703E-02   5.00001509E-02   3.54788764E-02   7.04587446E-02   5.89594314E-02   2.50481980E-06   1.59659323E-02   2.05399951E-08   6.61658696E-02   6.50056602E-02   8.45314527E-10   9.99999986E-04   9.85485464E-04   5.08128082E-11   6.08997914E-11   1.00122317E-10
   1.10250000E+03   5.00000000E-01   5.00000000E-01   8.98955698E-02   1.10993158E-01   2.65519718E-11   2.08603342E-13   1.95537004E-13   0.00000000E+00   4.99976711E-02   5.00001120E-02   3.54791671E-02   7.03631532E-02   5.87438707E-02   3.12195003E-06   1.62060631E-02   2.09048575E-08   6.61457699E-02   6.50056602E-02   1.15762358E-09   9.99999982E-04   9.85521924E-04   5.08128082E-11   6.08995450E-11   1.00115893E-10
   1.13750000E+03   5.00000000E-01   5.00000000E-01   8.98955393E-02   1.08783083E-01   2.65517330E-11   2.30089693E-13   2.16567828E-13   4.13211262E-02   4.99976390E-02   4.99991639E-02   3.54797079E-02   6.75758452E-02   2.13800771E-02   2.62035285E-05   3.87519882E-02   2.97493071E-08   6.51462838E-02   6.50056602E-02   1.63169376E-09   9.99999981E-04   9.85594370E-04   5.08128082E-11   6.08992939E-11   1.00040286E-10
   1.17250000E+03   5.00000000E-01   5.00000000E-01   8.98956412E-02   1.09786236E-01   2.65520296E-11   3.28671343E-13   3.07828511E-13   0.00000000E+00   4.99976420E-02   4.99993709E-02   3.54804378E-02   6.81261276E-02   6.21759106E-02   6.26756789E-06   1.53835317E-02   2.41344069E-08   6.51452301E-02   6.50056602E-02   2.38029065E-09   9.99999971E-04   9.85667882E-04   5.08128082E-11   6.08991896E-11   1.00045032E-10
   1.20750000E+03   5.00000000E-01   5.00000000E-01   8.98957757E-02   1.10703396E-01   2.65523219E-11   4.82236510E-13   4.50489669E-13   0.00000000E+00   4.99976441E-02   4.99995113E-02   3.54820497E-02   6.87585160E-02   6.01290662E-02   7.17409651E-06   1.64315566E-02   2.34969015E-08   6.51448725E-02   6.50056602E-02   3.60671682E-09   9.99999965E-04   9.85826756E-04   5.08128082E-11   6.08990273E-11   1.00046673E-10
   1.24250000E+03   5.00000000E-01   5.00000000E-01   8.98959461E-02   1.11212609E-01   2.65526441E-11   6.94931340E-13   6.49761930E-13   0.00000000E+00   4.99976457E-02   4.99995692E-02   3.54875485E-02   6.98230820E-02   5.85987762E-02   9.50998178E-06   1.67279921E-02   2.34469138E-08   6.51448627E-02   6.50056602E-02   5.69199187E-09   9.99999960E-04   9.86328716E-04   5.08128082E-11   6.08988235E-11   1.00046295E-10
   1.27750000E+03   5.00000000E-01   5.00000000E-01   8.98961483E-02   1.11271579E-01   2.65530157E-11   9.15747092E-13   8.60715008E-13   0.00000000E+00   4.99976468E-02   4.99995557E-02   3.55465535E-02   7.28310122E-02   5.74377913E-02   1.53602870E-05   1.50803545E-02   2.35848103E-08   6.51452912E-02   6.50056602E-02   9.37918428E-09   9.99999954E-04   9.90575343E-04   5.08128082E-11   6.08985810E-11   1.00044374E-10
   1.31250000E+03   5.00000000E-01   5.00000000E-01   8.98963711E-02   1.11198342E-01   2.65535002E-11   1.02522396E-12   9.72909786E-13   0.00000000E+00   4.99976478E-02   4.99995168E-02   3.63614554E-02   7.70015698E-02   5.66306758E-02   1.73673410E-05   1.09922479E-02   2.30970987E-08   6.51579464E-02   6.50056602E-02   1.61593926E-08   9.99999948E-04   1.02271541E-03   5.08128082E-11   6.08983536E-11   1.00042145E-10
   1.34750000E+03   5.00000000E-01   5.00000000E-01   8.98966061E-02   1.11218640E-01   2.65542500E-11   9.61182775E-13   9.23699027E-13   0.00000000E+00   4.99976492E-02   4.99994821E-02   3.77799268E-02   7.77126148E-02   5.53215827E-02   1.11298075E-05   9.12860071E-03   2.21188211E-08   6.58539422E-02   6.50056602E-02   2.91036889E-08   9.99999941E-04   1.04969828E-03   5.08128082E-11   6.08981829E-11   1.00040164E-10
   1.38250000E+03   5.00000000E-01   5.00000000E-01   8.98968084E-02   1.10186173E-01   2.65550062E-11   7.88974698E-13   7.68511704E-13   1.09618824E-02   4.99976426E-02   4.99991771E-02   3.90773286E-02   7.66691199E-02   4.42202365E-02   5.02157877E-05   1.41239048E-02   2.61709773E-08   6.71375536E-02   6.50056602E-02   5.48190943E-08   9.99999935E-04   1.05873884E-03   5.08128082E-11   6.08980453E-11   1.00025517E-10
   1.41750000E+03   5.00000000E-01   5.00000000E-01   8.98970545E-02   1.10522537E-01   2.65561285E-11   6.26427600E-13   6.17679056E-13   9.64823417E-04   4.99976433E-02   4.99991808E-02   4.02576679E-02   7.63504564E-02   5.24023822E-02   4.43250394E-05   8.23198289E-03   2.47242378E-08   6.83163124E-02   6.50056602E-02   1.08758173E-07   9.99999928E-04   1.06120839E-03   5.08128082E-11   6.08979564E-11   1.00023543E-10
   1.45250000E+03   5.00000000E-01   5.00000000E-01   8.98973144E-02   1.10824890E-01   2.65574963E-11   4.97078968E-13   4.95224697E-13   3.16267857E-05   4.99976440E-02   4.99991779E-02   4.13756658E-02   7.61479535E-02   5.12492857E-02   4.35897571E-05   7.67095324E-03   2.36200285E-08   6.94160457E-02   6.50056603E-02   2.28151721E-07   9.99999923E-04   1.06111717E-03   5.08128082E-11   6.08978756E-11   1.00021786E-10
   1.48750000E+03   5.00000000E-01   5.00000000E-01   8.98975875E-02   1.10952943E-01   2.65591697E-11   3.99746264E-13   4.01618128E-13   8.93793209E-13   4.99976444E-02   4.99991488E-02   4.24676650E-02   7.59264763E-02   4.95600240E-02   5.78980201E-05   7.37514376E-03   2.32688245E-08   7.04685754E-02   6.50056603E-02   5.07795773E-07   9.99999919E-04   1.05973722E-03   5.08128082E-11   6.08978031E-11   1.00019534E-10
   1.52250000E+03   5.00000000E-01   5.00000000E-01   8.98978733E-02   1.10973441E-01   2.65612375E-11   3.26408075E-13   3.30140346E-13   5.09821762E-24   4.99976446E-02   4.99991056E-02   4.35496395E-02   7.56744747E-02   4.81044287E-02   8.31590941E-05   6.91891214E-03   2.32132951E-08   7.14883349E-02   6.50056603E-02   1.20339422E-06   9.99999918E-04   1.05760122E-03   5.08128082E-11   6.08977409E-11   1.00017047E-10
   1.55750000E+03   5.00000000E-01   5.00000000E-01   8.98981703E-02   1.10948823E-01   2.65638071E-11   2.70454586E-13   2.74976660E-13   2.19781083E-36   4.99976446E-02   4.99990567E-02   4.46217654E-02   7.54214415E-02   4.67793775E-02   1.32145417E-04   6.34289631E-03   2.34120060E-08   7.24759066E-02   6.50056603E-02   3.04824538E-06   9.99999919E-04   1.05488765E-03   5.08128082E-11   6.08976888E-11   1.00014496E-10
   1.59250000E+03   5.00000000E-01   5.00000000E-01   8.98984767E-02   1.10919045E-01   2.65670140E-11   2.27237791E-13   2.31948761E-13   4.11242901E-48   4.99976446E-02   4.99990076E-02   4.56840379E-02   7.52040814E-02   4.54900336E-02   2.49652039E-04   5.61913924E-03   2.38827651E-08   7.34329562E-02   6.50056603E-02   8.28617708E-06   9.99999923E-04   1.05183751E-03   5.08128082E-11   6.08976456E-11   1.00012005E-10
   1.62750000E+03   5.00000000E-01   5.00000000E-01   8.98987908E-02   1.10914653E-01   2.65710308E-11   1.93553683E-13   1.98132151E-13   8.72286008E-58   4.99976447E-02   4.99989631E-02   4.67427237E-02   7.50544426E-02   4.41485119E-02   5.28866612E-04   4.63194703E-03   2.43775210E-08   7.43629323E-02   6.50056603E-02   2.42665354E-05   9.99999928E-04   1.04868791E-03   5.08128082E-11   6.08976096E-11   1.00009726E-10
   1.66250000E+03   5.00000000E-01   5.00000000E-01   8.98991124E-02   1.10940943E-01   2.65760745E-11   1.67215807E-13   1.71507481E-13   9.22381668E-64   4.99976450E-02   4.99989263E-02   4.78037500E-02   7.50414548E-02   4.27127658E-02   1.01321653E-03   3.27982320E-03   2.45303620E-08   7.52657620E-02   6.50056604E-02   7.67775521E-05   9.99999935E-04   1.04560260E-03   5.08128082E-11   6.08975786E-11   1.00007802E-10
   1.69750000E+03   5.00000000E-01   5.00000000E-01   8.98994419E-02   1.10941882E-01   2.65824131E-11   1.46719666E-13   1.50669289E-13   1.90357839E-67   4.99976455E-02   4.99988908E-02   4.88958370E-02   7.52162094E-02   4.13134524E-02   1.34958642E-03   1.93118486E-03   2.42765721E-08   7.61480810E-02   6.50056604E-02   2.61866040E-04   9.99999942E-04   1.04295131E-03   5.08128082E-11   6.08975508E-11   1.00006088E-10
   1.73250000E+03   5.00000000E-01   5.00000000E-01   8.98997829E-02   1.10885674E-01   2.65903964E-11   1.30937388E-13   1.34547189E-13   4.06313427E-69   4.99976463E-02   4.99988546E-02   5.00310992E-02   7.53358295E-02   3.99785262E-02   1.62151181E-03   6.09910958E-04   2.32476057E-08   7.70235407E-02   6.50056605E-02   9.42309928E-04   9.99999949E-04   1.04055283E-03   5.08128082E-11   6.08975248E-11   1.00004591E-10
   1.76750000E+03   5.00000000E-01   5.00000000E-01   8.99001372E-02   1.10793916E-01   2.66004385E-11   1.18823612E-13   1.22122596E-13   4.93147282E-71   4.99976471E-02   4.99988119E-02   5.12808292E-02   7.51626341E-02   3.87280098E-02   1.40764356E-03   4.10525516E-05   2.15338657E-08   7.80486451E-02   6.50056605E-02   3.27644105E-03   9.99999955E-04   1.03856656E-03   5.08128082E-11   6.08975033E-11   1.00002918E-10
   1.80250000E+03   5.00000000E-01   5.00000000E-01   8.99005034E-02   1.10657802E-01   2.66130285E-11   1.09350684E-13   1.12371777E-13   1.07500849E-74   4.99976478E-02   4.99987591E-02   5.26523437E-02   7.46682721E-02   3.76066172E-02   8.36162939E-04   3.00959848E-07   1.93371460E-08   7.91467623E-02   6.50056606E-02   8.99457627E-03   9.99999961E-04   1.03657534E-03   5.08128082E-11   6.08974859E-11   1.00000934E-10
   1.83750000E+03   5.00000000E-01   5.00000000E-01   8.99008819E-02   1.10479776E-01   2.66287967E-11   1.01627667E-13   1.04395490E-13   1.30140678E-78   4.99976485E-02   4.99987005E-02   5.40569958E-02   7.39354219E-02   3.65688345E-02   2.87153444E-04   2.67681618E-10   1.66481486E-08   8.01968321E-02   6.50056607E-02   1.66392836E-02   9.99999966E-04   1.03419392E-03   5.08128082E-11   6.08974709E-11   9.99988414E-11
   1.87250000E+03   5.00000000E-01   5.00000000E-01   8.99012740E-02   1.10304653E-01   2.66485271E-11   9.49965644E-14   9.75237873E-14   3.40894464E-80   4.99976496E-02   4.99986448E-02   5.54592396E-02   7.27355439E-02   3.54541570E-02   1.72068500E-05   1.63995951E-14   1.29666681E-08   8.12615740E-02   6.50056609E-02   2.19842111E-02   9.99999971E-04   1.03132813E-03   5.08128082E-11   6.08974577E-11   9.99969236E-11
   1.90750000E+03   5.00000000E-01   5.00000000E-01   8.99016736E-02   1.10156185E-01   2.66731254E-11   8.90424798E-14   9.13311051E-14   1.42875454E-80   4.99976509E-02   4.99985965E-02   5.69025466E-02   7.10491586E-02   3.42460409E-02   5.35155108E-09   7.41137278E-19   8.90182422E-09   8.24621620E-02   6.50056610E-02   2.39022402E-02   9.99999974E-04   1.02815208E-03   5.08128082E-11   6.08974469E-11   9.99953247E-11
   1.94250000E+03   5.00000000E-01   5.00000000E-01   8.99020719E-02   1.10033802E-01   2.67036719E-11   8.35754755E-14   8.56227968E-14   2.66820028E-81   4.99976521E-02   4.99985553E-02   5.83302489E-02   6.92704379E-02   3.31328411E-02   5.95460144E-10   1.03358601E-20   7.71701990E-09   8.36841941E-02   6.50056612E-02   2.37011220E-02   9.99999977E-04   1.02455478E-03   5.08128082E-11   6.08974392E-11   9.99940139E-11
   1.97750000E+03   5.00000000E-01   5.00000000E-01   8.99024557E-02   1.10005919E-01   2.67414711E-11   7.85480142E-14   8.03520134E-14   1.07346295E-83   4.99976530E-02   4.99985243E-02   5.96315808E-02   6.75767115E-02   3.21954062E-02   5.17394496E-10   3.24573302E-21   7.48376600E-09   8.48224849E-02   6.50056615E-02   2.26001888E-02   9.99999979E-04   1.02055645E-03   5.08128082E-11   6.08974354E-11   9.99929187E-11
   2.01250000E+03   5.00000000E-01   5.00000000E-01   8.99028287E-02   1.10005862E-01   2.67882141E-11   7.40099743E-14   7.55754861E-14   1.90983301E-85   4.99976538E-02   4.99985009E-02   6.05655786E-02   6.62374639E-02   3.16552819E-02   4.80787603E-10   1.90987932E-21   7.35545509E-09   8.54907235E-02   6.50056618E-02   2.12265898E-02   9.99999981E-04   1.01615778E-03   5.08128082E-11   6.08974330E-11   9.99921002E-11
   2.04750000E+03   5.00000000E-01   5.00000000E-01   8.99031947E-02   1.10007715E-01   2.68459270E-11   7.00201672E-14   7.13601006E-14   2.99787935E-86   4.99976547E-02   4.99984826E-02   6.11688765E-02   6.53403946E-02   3.13417573E-02   4.50399925E-10   1.39362659E-21   7.27486667E-09   8.58703529E-02   6.50056623E-02   1.98355996E-02   9.99999982E-04   1.01206097E-03   5.08128082E-11   6.08974311E-11   9.99914982E-11
   2.08250000E+03   5.00000000E-01   5.00000000E-01   8.99035557E-02   1.10009965E-01   2.69170508E-11   6.66109038E-14   6.77451522E-14   1.52328223E-86   4.99976558E-02   4.99984679E-02   6.15796765E-02   6.47427249E-02   3.11150515E-02   4.22181829E-10   1.10613166E-21   7.23001089E-09   8.61381257E-02   6.50056629E-02   1.85145267E-02   9.99999983E-04   1.00856296E-03   5.08128082E-11   6.08974296E-11   9.99910311E-11
   2.11750000E+03   5.00000000E-01   5.00000000E-01   8.99039155E-02   1.10012496E-01   2.70045408E-11   6.37789216E-14   6.47322540E-14   1.41875566E-86   4.99976570E-02   4.99984556E-02   6.18802457E-02   6.43227394E-02   3.09311397E-02   3.94851512E-10   9.03700818E-22   7.21148113E-09   8.63500446E-02   6.50056636E-02   1.72842393E-02   9.99999984E-04   1.00562651E-03   5.08128082E-11   6.08974282E-11   9.99906471E-11
   2.15250000E+03   5.00000000E-01   5.00000000E-01   8.99042796E-02   1.10015397E-01   2.71119678E-11   6.14856332E-14   6.22849491E-14   1.82971975E-86   4.99976583E-02   4.99984449E-02   6.21140013E-02   6.40101916E-02   3.07732492E-02   3.69062112E-10   7.38322896E-22   7.20735552E-09   8.65272456E-02   6.50056646E-02   1.61414992E-02   9.99999985E-04   1.00315312E-03   5.08128082E-11   6.08974270E-11   9.99903159E-11
   2.18750000E+03   5.00000000E-01   5.00000000E-01   8.99046542E-02   1.10018798E-01   2.72436418E-11   5.96670102E-14   6.03387775E-14   2.83799334E-86   4.99976597E-02   4.99984353E-02   6.23051871E-02   6.37649664E-02   3.06329983E-02   3.46668856E-10   5.91609923E-22   7.20189836E-09   8.66802089E-02   6.50056658E-02   1.50772297E-02   9.99999985E-04   1.00105381E-03   5.08128082E-11   6.08974260E-11   9.99900206E-11
   2.22250000E+03   5.00000000E-01   5.00000000E-01   8.99050463E-02   1.10022680E-01   2.74047625E-11   5.82470846E-14   5.88155061E-14   4.91149177E-86   4.99976611E-02   4.99984267E-02   6.24681204E-02   6.35632777E-02   3.05055616E-02   3.28917917E-10   4.60392699E-22   7.18080502E-09   8.68152426E-02   6.50056673E-02   1.40833356E-02   9.99999985E-04   9.99258407E-04   5.08128082E-11   6.08974250E-11   9.99897513E-11
   2.25750000E+03   5.00000000E-01   5.00000000E-01   8.99054629E-02   1.10026736E-01   2.76016050E-11   5.71495434E-14   5.76355654E-14   9.11061083E-86   4.99976626E-02   4.99984187E-02   6.26108977E-02   6.33914807E-02   3.03884371E-02   3.14617920E-10   3.49048594E-22   7.13967328E-09   8.69361791E-02   6.50056692E-02   1.31516379E-02   9.99999984E-04   9.97712412E-04   5.08128082E-11   6.08974241E-11   9.99895023E-11
   2.29250000E+03   5.00000000E-01   5.00000000E-01   8.99059110E-02   1.10030560E-01   2.78417470E-11   5.63056025E-14   5.67266587E-14   1.78393598E-85   4.99976641E-02   4.99984111E-02   6.27375833E-02   6.32423813E-02   3.02807558E-02   3.00984462E-10   2.60621564E-22   7.08410977E-09   8.70448531E-02   6.50056716E-02   1.22747530E-02   9.99999983E-04   9.96373089E-04   5.08128082E-11   6.08974232E-11   9.99892699E-11
   2.32750000E+03   5.00000000E-01   5.00000000E-01   8.99063982E-02   1.10033912E-01   2.81343478E-11   5.56573898E-14   5.60275975E-14   3.68147348E-85   4.99976657E-02   4.99984040E-02   6.28505153E-02   6.31119458E-02   3.01819152E-02   2.85932295E-10   1.93470399E-22   7.02174684E-09   8.71424140E-02   6.50056746E-02   1.14504256E-02   9.99999981E-04   9.95206897E-04   5.08128082E-11   6.08974224E-11   9.99890519E-11
   2.36250000E+03   5.00000000E-01   5.00000000E-01   8.99069318E-02   1.10036717E-01   2.84904933E-11   5.51585744E-14   5.54891712E-14   8.02241450E-85   4.99976674E-02   4.99983972E-02   6.29516040E-02   6.29973394E-02   3.00909300E-02   2.68718511E-10   1.43474283E-22   6.95731640E-09   8.72301771E-02   6.50056782E-02   1.06787675E-02   9.99999979E-04   9.94187352E-04   5.08128082E-11   6.08974217E-11   9.99888466E-11
   2.39750000E+03   5.00000000E-01   5.00000000E-01   8.99075196E-02   1.10038926E-01   2.89236232E-11   5.47731653E-14   5.50730058E-14   1.84978105E-84   4.99976691E-02   4.99983906E-02   6.30426239E-02   6.28961981E-02   3.00065909E-02   2.49291778E-10   1.06424493E-22   6.89273928E-09   8.73096156E-02   6.50056828E-02   9.95384828E-03   9.99999976E-04   9.93293202E-04   5.08128082E-11   6.08974210E-11   9.99886526E-11