 TITLE = "Mineral Volumes" 
VARIABLES = "X"          "Y"              "Z"            "Forsterite"     "Enstatite(alph" "Anorthite"      "Ferropargasite" "Anhydrite"      "Clinochlore"    "Albite(low)"   
 ZONE I=           1 , J=           1 , K=           1  F=POINT
   5.00000000E-01   5.00000000E-01   5.00000000E-01   2.79861920E-01   2.09999901E-01   1.73472348E-18   6.99999991E-02   2.00110725E-01   0.00000000E+00   0.00000000E+00
