 TITLE = "Mineral Volumes" 
VARIABLES = "X"          "Y"              "Z"            "Forsterite"     "Fayalite"       "Brucite"        "Lizardite"      "Chrysotile"     "Hematite"       "Magnetite(am)"  "Saponite(Ca)"   "Saponite(K)"    "Saponite(Mg)"   "Saponite(Na)"   "Beidellite(Ca)" "Beidellite(K)"  "Beidellite(Mg)" "Beidellite(Na)" "Enstatite(alph" "Ferrosilite(al" "Anorthite"      "Albite(low)"    "Clinochlore"    "Sudoite"        "Montmor(MgCa)"  "Montmor(MgK)"   "Montmor(MgMg)"  "Montmor(MgNa)"  "Kaolinite"      "Tremolite"      "Pargasite"      "Anhydrite"      "Epidote"        "Scolecite"      "Pyrite"         "FeS(am)"        "Quartz(alpha)" 
 ZONE I=         200 , J=           1 , K=           1  F=POINT
   8.75000000E+00   5.00000000E-01   5.00000000E-01   1.07435964E-01   1.09017749E-01   0.00000000E+00   0.00000000E+00   0.00000000E+00   2.12599529E-04   0.00000000E+00   1.00731977E-10   4.57233295E-04   1.39000731E-10   5.17205939E-05   9.78134579E-11   9.97756137E-11   9.78293015E-11   9.78075385E-11   4.99972467E-02   4.99975766E-02   6.46363156E-02   6.87054133E-02   2.22300672E-02   1.75363269E-10   9.95159521E-11   9.95078463E-11   9.95195479E-11   9.95149322E-11   9.98496442E-04   6.43545928E-02   6.41713771E-02   0.00000000E+00   8.04927808E-03   8.38941656E-11   9.23654524E-11   9.43562386E-11   1.00111410E-10
   2.62500000E+01   5.00000000E-01   5.00000000E-01   1.07435963E-01   1.09021824E-01   0.00000000E+00   0.00000000E+00   0.00000000E+00   2.12599528E-04   0.00000000E+00   1.00897761E-10   1.56490192E-03   1.49029537E-10   2.01643048E-04   9.78135020E-11   9.97756750E-11   9.78295018E-11   9.78080662E-11   4.99972437E-02   4.99976685E-02   6.46363156E-02   6.88894913E-02   2.17225530E-02   1.39341148E-10   9.95166618E-11   9.95246552E-11   9.95225327E-11   9.95269519E-11   9.98496665E-04   6.43864322E-02   6.41713771E-02   0.00000000E+00   8.04927808E-03   8.38942410E-11   9.23654524E-11   9.43563092E-11   1.00175246E-10
   4.37500000E+01   5.00000000E-01   5.00000000E-01   1.07435963E-01   1.09025201E-01   0.00000000E+00   0.00000000E+00   0.00000000E+00   2.12599528E-04   0.00000000E+00   1.00966418E-10   1.82723743E-03   1.53244046E-10   2.69569613E-04   9.78139454E-11   9.97762610E-11   9.78315128E-11   9.78132273E-11   4.99972422E-02   4.99977387E-02   6.46363156E-02   6.94049099E-02   2.10965369E-02   9.35811954E-11   9.95211471E-11   9.96251635E-11   9.95413775E-11   9.96006305E-11   9.98497857E-04   6.44013600E-02   6.41713771E-02   0.00000000E+00   8.04927808E-03   8.38946078E-11   9.23654524E-11   9.43563409E-11   1.00227783E-10
   6.12500000E+01   5.00000000E-01   5.00000000E-01   1.07435963E-01   1.09028903E-01   0.00000000E+00   0.00000000E+00   0.00000000E+00   2.12599528E-04   0.00000000E+00   1.01034323E-10   2.22261086E-03   1.57658328E-10   3.77506889E-04   9.78151141E-11   9.97777141E-11   9.78368049E-11   9.78263895E-11   4.99972417E-02   4.99978110E-02   6.46363156E-02   7.01006004E-02   2.02373761E-02   5.34148386E-11   9.95307218E-11   9.98259042E-11   9.95815658E-11   9.97522854E-11   9.98499891E-04   6.44132637E-02   6.41713771E-02   0.00000000E+00   8.04927809E-03   8.38952355E-11   9.23654524E-11   9.43563665E-11   1.00268130E-10
   7.87500000E+01   5.00000000E-01   5.00000000E-01   1.07435963E-01   1.09033279E-01   0.00000000E+00   0.00000000E+00   0.00000000E+00   2.12599527E-04   0.00000000E+00   1.01123006E-10   2.69922565E-03   1.63472554E-10   5.31756853E-04   9.78169255E-11   9.97798167E-11   9.78449934E-11   9.78460471E-11   4.99972417E-02   4.99978854E-02   6.46363156E-02   7.07886836E-02   1.93547818E-02   3.06313061E-11   9.95435383E-11   1.00074637E-10   9.96353095E-11   9.99469638E-11   9.98502282E-04   6.44332683E-02   6.41713771E-02   0.00000000E+00   8.04927809E-03   8.38959725E-11   9.23654524E-11   9.43563886E-11   1.00296728E-10
   9.62500000E+01   5.00000000E-01   5.00000000E-01   1.07435963E-01   1.09038449E-01   0.00000000E+00   0.00000000E+00   0.00000000E+00   2.12599527E-04   0.00000000E+00   1.01224918E-10   3.08129952E-03   1.70277327E-10   7.08265822E-04   9.78190439E-11   9.97820879E-11   9.78545522E-11   9.78680794E-11   4.99972420E-02   4.99979608E-02   6.46363156E-02   7.13632188E-02   1.86099354E-02   2.03680043E-11   9.95569814E-11   1.00312483E-10   9.96916230E-11   1.00141300E-10   9.98504599E-04   6.44583802E-02   6.41713771E-02   0.00000000E+00   8.04927809E-03   8.38966912E-11   9.23654524E-11   9.43564074E-11   1.00315851E-10
   1.13750000E+02   5.00000000E-01   5.00000000E-01   1.07435963E-01   1.09044436E-01   0.00000000E+00   0.00000000E+00   0.00000000E+00   2.12599527E-04   0.00000000E+00   1.01329965E-10   3.30255271E-03   1.77472079E-10   8.87320872E-04   9.78210677E-11   9.97840517E-11   9.78636646E-11   9.78880483E-11   4.99972424E-02   4.99980373E-02   6.46363156E-02   7.17838860E-02   1.80666418E-02   1.58364476E-11   9.95689465E-11   1.00500133E-10   9.97416807E-11   1.00303681E-10   9.98506493E-04   6.44855161E-02   6.41713771E-02   0.00000000E+00   8.04927809E-03   8.38972981E-11   9.23654524E-11   9.43564236E-11   1.00328209E-10
   1.31250000E+02   5.00000000E-01   5.00000000E-01   1.07435963E-01   1.09051274E-01   0.00000000E+00   0.00000000E+00   0.00000000E+00   2.12599527E-04   0.00000000E+00   1.01433956E-10   3.37260996E-03   1.84796373E-10   1.05890656E-03   9.78227400E-11   9.97854653E-11   9.78711738E-11   9.79034237E-11   4.99972430E-02   4.99981153E-02   6.46363156E-02   7.20581026E-02   1.77171732E-02   1.37370785E-11   9.95784636E-11   1.00625698E-10   9.97814281E-11   1.00422102E-10   9.98507815E-04   6.45128390E-02   6.41713771E-02   0.00000000E+00   8.04927810E-03   8.38977541E-11   9.23654524E-11   9.43564375E-11   1.00336114E-10
   1.48750000E+02   5.00000000E-01   5.00000000E-01   1.07435963E-01   1.09059034E-01   0.00000000E+00   0.00000000E+00   0.00000000E+00   2.12599526E-04   0.00000000E+00   1.01536785E-10   3.32648850E-03   1.92252529E-10   1.21941573E-03   9.78239836E-11   9.97863121E-11   9.78767365E-11   9.79137279E-11   4.99972436E-02   4.99981954E-02   6.46363156E-02   7.22150105E-02   1.75230072E-02   1.27179492E-11   9.95854826E-11   1.00695654E-10   9.98106715E-11   1.00498884E-10   9.98508588E-04   6.45394028E-02   6.41713771E-02   0.00000000E+00   8.04927810E-03   8.38980635E-11   9.23654524E-11   9.43564491E-11   1.00341250E-10
   1.66250000E+02   5.00000000E-01   5.00000000E-01   1.07435963E-01   1.09067762E-01   0.00000000E+00   0.00000000E+00   0.00000000E+00   2.12599526E-04   0.00000000E+00   1.01639092E-10   3.20479946E-03   1.99891898E-10   1.36902096E-03   9.78248534E-11   9.97867111E-11   9.78806063E-11   9.79198406E-11   4.99972444E-02   4.99982777E-02   6.46363156E-02   7.22891644E-02   1.74375892E-02   1.22057969E-11   9.95904883E-11   1.00724702E-10   9.98314586E-11   1.00543660E-10   9.98508935E-04   6.45646796E-02   6.41713771E-02   0.00000000E+00   8.04927810E-03   8.38982563E-11   9.23654524E-11   9.43564584E-11   1.00344703E-10
   1.83750000E+02   5.00000000E-01   5.00000000E-01   1.07435963E-01   1.09077431E-01   0.00000000E+00   0.00000000E+00   0.00000000E+00   2.12599526E-04   0.00000000E+00   1.01740597E-10   3.04290455E-03   2.07689464E-10   1.50987302E-03   9.78254675E-11   9.97868249E-11   9.78833198E-11   9.79231786E-11   4.99972452E-02   4.99983615E-02   6.46363156E-02   7.23117879E-02   1.74186872E-02   1.19421685E-11   9.95941596E-11   1.00728514E-10   9.98466434E-11   1.00567854E-10   9.98509011E-04   6.45883432E-02   6.41713771E-02   0.00000000E+00   8.04927810E-03   8.38983722E-11   9.23654524E-11   9.43564653E-11   1.00347094E-10
   2.01250000E+02   5.00000000E-01   5.00000000E-01   1.07435963E-01   1.09088018E-01   0.00000000E+00   0.00000000E+00   0.00000000E+00   2.12599526E-04   0.00000000E+00   1.01841850E-10   2.85860567E-03   2.15674565E-10   1.64196709E-03   9.78259045E-11   9.97867570E-11   9.78852333E-11   9.79246655E-11   4.99972461E-02   4.99984464E-02   6.46363156E-02   7.23021529E-02   1.74415554E-02   1.18029519E-11   9.95969406E-11   1.00716885E-10   9.98580936E-11   1.00578773E-10   9.98508911E-04   6.46106005E-02   6.41713771E-02   0.00000000E+00   8.04927811E-03   8.38984362E-11   9.23654524E-11   9.43564698E-11   1.00348797E-10
   2.18750000E+02   5.00000000E-01   5.00000000E-01   1.07435963E-01   1.09099512E-01   0.00000000E+00   0.00000000E+00   0.00000000E+00   2.12599525E-04   0.00000000E+00   1.01944003E-10   2.66115676E-03   2.23922605E-10   1.76389564E-03   9.78262016E-11   9.97865609E-11   9.78865160E-11   9.79247647E-11   4.99972471E-02   4.99985321E-02   6.46363157E-02   7.22708741E-02   1.74930475E-02   1.17265353E-11   9.95990565E-11   1.00694992E-10   9.98667558E-11   1.00580243E-10   9.98508684E-04   6.46321659E-02   6.41713771E-02   0.00000000E+00   8.04927811E-03   8.38984605E-11   9.23654524E-11   9.43564721E-11   1.00350053E-10
   2.36250000E+02   5.00000000E-01   5.00000000E-01   1.07435963E-01   1.09111792E-01   0.00000000E+00   0.00000000E+00   0.00000000E+00   2.12599525E-04   0.00000000E+00   1.02046132E-10   2.46139183E-03   2.32343784E-10   1.87693942E-03   9.78264106E-11   9.97862947E-11   9.78874021E-11   9.79240345E-11   4.99972481E-02   4.99986179E-02   6.46363157E-02   7.22275363E-02   1.75600510E-02   1.16824979E-11   9.96007694E-11   1.00667766E-10   9.98737295E-11   1.00576221E-10   9.98508385E-04   6.46537213E-02   6.41713771E-02   0.00000000E+00   8.04927811E-03   8.38984600E-11   9.23654524E-11   9.43564722E-11   1.00350983E-10
   2.53750000E+02   5.00000000E-01   5.00000000E-01   1.07435963E-01   1.09124737E-01   0.00000000E+00   0.00000000E+00   0.00000000E+00   2.12599525E-04   0.00000000E+00   1.02147122E-10   2.26251282E-03   2.40830864E-10   1.97942941E-03   9.78265458E-11   9.97859785E-11   9.78879565E-11   9.79226546E-11   4.99972492E-02   4.99987033E-02   6.46363157E-02   7.21763492E-02   1.76377426E-02   1.16550580E-11   9.96021656E-11   1.00637074E-10   9.98793771E-11   1.00568153E-10   9.98508035E-04   6.46758833E-02   6.41713771E-02   0.00000000E+00   8.04927811E-03   8.38984397E-11   9.23654524E-11   9.43564703E-11   1.00351665E-10
   2.71250000E+02   5.00000000E-01   5.00000000E-01   1.07435964E-01   1.09138218E-01   0.00000000E+00   0.00000000E+00   0.00000000E+00   2.12599525E-04   0.00000000E+00   1.02245450E-10   2.06770841E-03   2.49245559E-10   2.07038811E-03   9.78266159E-11   9.97856255E-11   9.78882193E-11   9.79207441E-11   4.99972503E-02   4.99987877E-02   6.46363157E-02   7.21198104E-02   1.77229399E-02   1.16362077E-11   9.96032921E-11   1.00604024E-10   9.98838971E-11   1.00556890E-10   9.98507645E-04   6.46989024E-02   6.41713771E-02   0.00000000E+00   8.04927811E-03   8.38984027E-11   9.23654524E-11   9.43564668E-11   1.00352153E-10
   2.88750000E+02   5.00000000E-01   5.00000000E-01   1.07435964E-01   1.09152110E-01   0.00000000E+00   0.00000000E+00   0.00000000E+00   2.12599524E-04   0.00000000E+00   1.02339472E-10   1.88002207E-03   2.57443342E-10   2.14966685E-03   9.78266332E-11   9.97852498E-11   9.78882459E-11   9.79184409E-11   4.99972515E-02   4.99988709E-02   6.46363157E-02   7.20597949E-02   1.78129491E-02   1.16219757E-11   9.96041985E-11   1.00569595E-10   9.98874969E-11   1.00543240E-10   9.98507231E-04   6.47225355E-02   6.41713771E-02   0.00000000E+00   8.04927812E-03   8.38983526E-11   9.23654524E-11   9.43564617E-11   1.00352476E-10
   3.06250000E+02   5.00000000E-01   5.00000000E-01   1.07435964E-01   1.09166321E-01   0.00000000E+00   0.00000000E+00   0.00000000E+00   2.12599524E-04   0.00000000E+00   1.02427957E-10   1.70197856E-03   2.65317823E-10   2.21775784E-03   9.78266131E-11   9.97848660E-11   9.78881059E-11   9.79158995E-11   4.99972527E-02   4.99989526E-02   6.46363157E-02   7.19977676E-02   1.79054787E-02   1.16104323E-11   9.96049405E-11   1.00534702E-10   9.98904102E-11   1.00528014E-10   9.98506808E-04   6.47461506E-02   6.41713771E-02   0.00000000E+00   8.04927812E-03   8.38982936E-11   9.23654524E-11   9.43564553E-11   1.00352649E-10
   3.23750000E+02   5.00000000E-01   5.00000000E-01   1.07435964E-01   1.09180803E-01   0.00000000E+00   0.00000000E+00   0.00000000E+00   2.12599524E-04   0.00000000E+00   1.02510393E-10   1.53540317E-03   2.72826452E-10   2.27554998E-03   9.78265724E-11   9.97844871E-11   9.78878742E-11   9.79132709E-11   4.99972539E-02   4.99990329E-02   6.46363157E-02   7.19348580E-02   1.79986657E-02   1.16006627E-11   9.96055760E-11   1.00500148E-10   9.98928795E-11   1.00511980E-10   9.98506389E-04   6.47689771E-02   6.41713771E-02   0.00000000E+00   8.04927812E-03   8.38982299E-11   9.23654524E-11   9.43564478E-11   1.00352677E-10
   3.41250000E+02   5.00000000E-01   5.00000000E-01   1.07435964E-01   1.09195545E-01   0.00000000E+00   0.00000000E+00   0.00000000E+00   2.12599524E-04   0.00000000E+00   1.02586991E-10   1.38136558E-03   2.79990859E-10   2.32406771E-03   9.78265262E-11   9.97841236E-11   9.78876192E-11   9.79106833E-11   4.99972552E-02   4.99991115E-02   6.46363157E-02   7.18719074E-02   1.80911043E-02   1.15922207E-11   9.96061590E-11   1.00466566E-10   9.98951291E-11   1.00495791E-10   9.98505986E-04   6.47903364E-02   6.41713771E-02   0.00000000E+00   8.04927812E-03   8.38981651E-11   9.23654524E-11   9.43564393E-11   1.00352557E-10
   3.58750000E+02   5.00000000E-01   5.00000000E-01   1.07435964E-01   1.09210568E-01   0.00000000E+00   0.00000000E+00   0.00000000E+00   2.12599523E-04   0.00000000E+00   1.02658523E-10   1.24014867E-03   2.86882446E-10   2.36407393E-03   9.78264854E-11   9.97837816E-11   9.78873886E-11   9.79082191E-11   4.99972566E-02   4.99991887E-02   6.46363157E-02   7.18094132E-02   1.81820102E-02   1.15848495E-11   9.96067280E-11   1.00434335E-10   9.98973196E-11   1.00479882E-10   9.98505606E-04   6.48097861E-02   6.41713771E-02   0.00000000E+00   8.04927813E-03   8.38981020E-11   9.23654524E-11   9.43564300E-11   1.00352288E-10
   3.76250000E+02   5.00000000E-01   5.00000000E-01   1.07435964E-01   1.09225900E-01   0.00000000E+00   0.00000000E+00   0.00000000E+00   2.12599523E-04   0.00000000E+00   1.02726065E-10   1.11153401E-03   2.93600000E-10   2.39616204E-03   9.78264565E-11   9.97834634E-11   9.78872112E-11   9.79059212E-11   4.99972580E-02   4.99992645E-02   6.46363157E-02   7.17476488E-02   1.82710015E-02   1.15783744E-11   9.96073076E-11   1.00403633E-10   9.98995532E-11   1.00464505E-10   9.98505252E-04   6.48271346E-02   6.41713771E-02   0.00000000E+00   8.04927813E-03   8.38980423E-11   9.23654524E-11   9.43564201E-11   1.00351865E-10
   3.93750000E+02   5.00000000E-01   5.00000000E-01   1.07435964E-01   1.09241570E-01   0.00000000E+00   0.00000000E+00   0.00000000E+00   2.12599523E-04   0.00000000E+00   1.02790807E-10   9.94918188E-04   3.00252671E-10   2.42063208E-03   9.78264412E-11   9.97831685E-11   9.78870953E-11   9.79037954E-11   4.99972595E-02   4.99993389E-02   6.46363157E-02   7.16866864E-02   1.83580763E-02   1.15726482E-11   9.96079069E-11   1.00374456E-10   9.99018669E-11   1.00449729E-10   9.98504922E-04   6.48424086E-02   6.41713771E-02   0.00000000E+00   8.04927813E-03   8.38979865E-11   9.23654524E-11   9.43564096E-11   1.00351288E-10
   4.11250000E+02   5.00000000E-01   5.00000000E-01   1.07435965E-01   1.09257598E-01   0.00000000E+00   0.00000000E+00   0.00000000E+00   2.12599522E-04   0.00000000E+00   1.02853906E-10   8.89502948E-04   3.06946629E-10   2.43760984E-03   9.78264382E-11   9.97828942E-11   9.78870337E-11   9.79018214E-11   4.99972610E-02   4.99994119E-02   6.46363157E-02   7.16264771E-02   1.84434516E-02   1.15675410E-11   9.96085227E-11   1.00346683E-10   9.99042473E-11   1.00435495E-10   9.98504616E-04   6.48557961E-02   6.41713771E-02   0.00000000E+00   8.04927814E-03   8.38979346E-11   9.23654524E-11   9.43563988E-11   1.00350560E-10
   4.28750000E+02   5.00000000E-01   5.00000000E-01   1.07435965E-01   1.09273980E-01   0.00000000E+00   0.00000000E+00   0.00000000E+00   2.12599522E-04   0.00000000E+00   1.02916398E-10   7.94421465E-04   3.13776087E-10   2.44716582E-03   9.78264437E-11   9.97826371E-11   9.78870102E-11   9.78999657E-11   4.99972626E-02   4.99994834E-02   6.46363157E-02   7.15669291E-02   1.85274205E-02   1.15629395E-11   9.96091448E-11   1.00320141E-10   9.99066507E-11   1.00421678E-10   9.98504328E-04   6.48675915E-02   6.41713771E-02   0.00000000E+00   8.04927814E-03   8.38978857E-11   9.23654524E-11   9.43563876E-11   1.00349684E-10
   4.46250000E+02   5.00000000E-01   5.00000000E-01   1.07435965E-01   1.09290695E-01   0.00000000E+00   0.00000000E+00   0.00000000E+00   2.12599522E-04   0.00000000E+00   1.02979139E-10   7.08778519E-04   3.20817669E-10   2.44928631E-03   9.78264526E-11   9.97823934E-11   9.78870016E-11   9.78981863E-11   4.99972642E-02   4.99995535E-02   6.46363157E-02   7.15079255E-02   1.86103305E-02   1.15587449E-11   9.96097571E-11   1.00294626E-10   9.99090101E-11   1.00408109E-10   9.98504056E-04   6.48781614E-02   6.41713771E-02   0.00000000E+00   8.04927814E-03   8.38978392E-11   9.23654524E-11   9.43563761E-11   1.00348667E-10
   4.63750000E+02   5.00000000E-01   5.00000000E-01   1.07435965E-01   1.09307699E-01   0.00000000E+00   0.00000000E+00   0.00000000E+00   2.12599521E-04   0.00000000E+00   1.03042771E-10   6.31705169E-04   3.28126090E-10   2.44394376E-03   9.78264589E-11   9.97821591E-11   9.78869812E-11   9.78964389E-11   4.99972659E-02   4.99996220E-02   6.46363157E-02   7.14493533E-02   1.86925215E-02   1.15548732E-11   9.96103406E-11   1.00269937E-10   9.99112461E-11   1.00394605E-10   9.98503795E-04   6.48879162E-02   6.41713771E-02   0.00000000E+00   8.04927815E-03   8.38977937E-11   9.23654524E-11   9.43563645E-11   1.00347515E-10
   4.81250000E+02   5.00000000E-01   5.00000000E-01   1.07435966E-01   1.09324925E-01   0.00000000E+00   0.00000000E+00   0.00000000E+00   2.12599521E-04   0.00000000E+00   1.03107691E-10   5.62388101E-04   3.35730696E-10   2.43115012E-03   9.78264565E-11   9.97819309E-11   9.78869221E-11   9.78946820E-11   4.99972677E-02   4.99996888E-02   6.46363157E-02   7.13911292E-02   1.87742790E-02   1.15512565E-11   9.96108758E-11   1.00245897E-10   9.99132783E-11   1.00380994E-10   9.98503542E-04   6.48972868E-02   6.41713771E-02   0.00000000E+00   8.04927815E-03   8.38977483E-11   9.23654524E-11   9.43563528E-11   1.00346238E-10
   4.98750000E+02   5.00000000E-01   5.00000000E-01   1.07435966E-01   1.09342553E-01   0.00000000E+00   0.00000000E+00   0.00000000E+00   2.12599520E-04   0.00000000E+00   1.03175215E-10   4.98855347E-04   3.43762512E-10   2.40345373E-03   9.78263972E-11   9.97816860E-11   9.78866105E-11   9.78925998E-11   4.99972695E-02   4.99997548E-02   6.46363157E-02   7.13308583E-02   1.88604639E-02   1.15476002E-11   9.96111698E-11   1.00221043E-10   9.99143049E-11   1.00365561E-10   9.98503273E-04   6.49067036E-02   6.41713771E-02   0.00000000E+00   8.04927815E-03   8.38976937E-11   9.23654524E-11   9.43563412E-11   1.00344869E-10
   5.16250000E+02   5.00000000E-01   5.00000000E-01   1.07435966E-01   1.09360334E-01   0.00000000E+00   0.00000000E+00   0.00000000E+00   2.12599520E-04   0.00000000E+00   1.03244794E-10   4.42342294E-04   3.52161896E-10   2.37049339E-03   9.78263117E-11   9.97814407E-11   9.78861839E-11   9.78904113E-11   4.99972714E-02   4.99998191E-02   6.46363157E-02   7.12705595E-02   1.89462524E-02   1.15441020E-11   9.96113492E-11   1.00196442E-10   9.99148539E-11   1.00349543E-10   9.98503004E-04   6.49167031E-02   6.41713771E-02   0.00000000E+00   8.04927816E-03   8.38976360E-11   9.23654524E-11   9.43563296E-11   1.00343407E-10
   5.33750000E+02   5.00000000E-01   5.00000000E-01   1.07435967E-01   1.09378086E-01   0.00000000E+00   0.00000000E+00   0.00000000E+00   2.12599519E-04   0.00000000E+00   1.03315662E-10   3.91878347E-04   3.60830955E-10   2.33155619E-03   9.78262061E-11   9.97811981E-11   9.78856683E-11   9.78881610E-11   4.99972734E-02   4.99998814E-02   6.46363157E-02   7.12108737E-02   1.90313832E-02   1.15407874E-11   9.96114458E-11   1.00172348E-10   9.99150570E-11   1.00333260E-10   9.98502738E-04   6.49276015E-02   6.41713771E-02   0.00000000E+00   8.04927816E-03   8.38975765E-11   9.23654524E-11   9.43563180E-11   1.00341854E-10
   5.51250000E+02   5.00000000E-01   5.00000000E-01   1.07435967E-01   1.09395684E-01   0.00000000E+00   0.00000000E+00   0.00000000E+00   2.12599519E-04   0.00000000E+00   1.03387062E-10   3.46701814E-04   3.69673590E-10   2.28611973E-03   9.78260770E-11   9.97809570E-11   9.78850500E-11   9.78858341E-11   4.99972755E-02   4.99999413E-02   6.46363157E-02   7.11518669E-02   1.91161032E-02   1.15376326E-11   9.96114526E-11   1.00148718E-10   9.99148854E-11   1.00316679E-10   9.98502473E-04   6.49396073E-02   6.41713771E-02   0.00000000E+00   8.04927817E-03   8.38975148E-11   9.23654524E-11   9.43563066E-11   1.00340215E-10
   5.68750000E+02   5.00000000E-01   5.00000000E-01   1.07435967E-01   1.09413031E-01   0.00000000E+00   0.00000000E+00   0.00000000E+00   2.12599518E-04   0.00000000E+00   1.03458182E-10   3.06278129E-04   3.78590675E-10   2.23452310E-03   9.78259226E-11   9.97807172E-11   9.78843207E-11   9.78834243E-11   4.99972776E-02   4.99999988E-02   6.46363157E-02   7.10935610E-02   1.92004371E-02   1.15346235E-11   9.96113636E-11   1.00125522E-10   9.99143157E-11   1.00299782E-10   9.98502210E-04   6.49527838E-02   6.41713771E-02   0.00000000E+00   8.04927817E-03   8.38974506E-11   9.23654524E-11   9.43562953E-11   1.00338497E-10
   5.86250000E+02   5.00000000E-01   5.00000000E-01   1.07435968E-01   1.09430064E-01   0.00000000E+00   0.00000000E+00   0.00000000E+00   2.12599518E-04   0.00000000E+00   1.03528222E-10   2.70167296E-04   3.87486674E-10   2.17744125E-03   9.78257437E-11   9.97804791E-11   9.78834843E-11   9.78809425E-11   4.99972798E-02   5.00000539E-02   6.46363157E-02   7.10360197E-02   1.92842587E-02   1.15317595E-11   9.96111816E-11   1.00102784E-10   9.99133591E-11   1.00282619E-10   9.98501949E-04   6.49670266E-02   6.41713771E-02   0.00000000E+00   8.04927818E-03   8.38973841E-11   9.23654524E-11   9.43562842E-11   1.00336703E-10
   6.03750000E+02   5.00000000E-01   5.00000000E-01   1.07435969E-01   1.09446751E-01   0.00000000E+00   0.00000000E+00   0.00000000E+00   2.12599517E-04   0.00000000E+00   1.03596491E-10   2.37983586E-04   3.96280945E-10   2.11572575E-03   9.78255434E-11   9.97802445E-11   9.78825550E-11   9.78784127E-11   4.99972820E-02   5.00001065E-02   6.46363157E-02   7.09793500E-02   1.93673393E-02   1.15290478E-11   9.96109171E-11   1.00080577E-10   9.99120605E-11   1.00265304E-10   9.98501691E-04   6.49820820E-02   6.41713771E-02   0.00000000E+00   8.04927818E-03   8.38973159E-11   9.23654524E-11   9.43562733E-11   1.00334839E-10
   6.21250000E+02   5.00000000E-01   5.00000000E-01   1.07435969E-01   1.09463091E-01   0.00000000E+00   0.00000000E+00   0.00000000E+00   2.12599517E-04   0.00000000E+00   1.03662493E-10   2.09375584E-04   4.04916774E-10   2.05030819E-03   9.78253267E-11   9.97800153E-11   9.78815548E-11   9.78758671E-11   4.99972843E-02   5.00001567E-02   6.46363157E-02   7.09236882E-02   1.94493909E-02   1.15264983E-11   9.96105874E-11   1.00058996E-10   9.99104914E-11   1.00247989E-10   9.98501438E-04   6.49975952E-02   6.41713771E-02   3.39656719E-29   8.04927819E-03   8.38972468E-11   9.23654524E-11   9.43562627E-11   1.00332908E-10
   6.38750000E+02   5.00000000E-01   5.00000000E-01   1.07435970E-01   1.09479107E-01   0.00000000E+00   0.00000000E+00   0.00000000E+00   2.12599516E-04   0.00000000E+00   1.03725959E-10   1.84013575E-04   4.13365032E-10   1.98210867E-03   9.78250993E-11   9.97797934E-11   9.78805090E-11   9.78733404E-11   4.99972867E-02   5.00002046E-02   6.46363157E-02   7.08691829E-02   1.95301096E-02   1.15241196E-11   9.96102136E-11   1.00038145E-10   9.99087393E-11   1.00230846E-10   9.98501192E-04   6.50131739E-02   6.41713771E-02   7.23925642E-29   8.04927819E-03   8.38971779E-11   9.23654524E-11   9.43562523E-11   1.00330914E-10
   6.56250000E+02   5.00000000E-01   5.00000000E-01   1.07435971E-01   1.09494830E-01   0.00000000E+00   0.00000000E+00   0.00000000E+00   2.12599516E-04   0.00000000E+00   1.03786847E-10   1.61582976E-04   4.21622139E-10   1.91195815E-03   9.78248670E-11   9.97795807E-11   9.78794431E-11   9.78708650E-11   4.99972891E-02   5.00002502E-02   6.46363157E-02   7.08159803E-02   1.96092130E-02   1.15219163E-11   9.96098179E-11   1.00018119E-10   9.99068964E-11   1.00214043E-10   9.98500955E-04   6.50284473E-02   6.41713771E-02   1.54722794E-28   8.04927820E-03   8.38971101E-11   9.23654524E-11   9.43562421E-11   1.00328861E-10
   6.73750000E+02   5.00000000E-01   5.00000000E-01   1.07435971E-01   1.09510286E-01   0.00000000E+00   0.00000000E+00   0.00000000E+00   2.12599515E-04   0.00000000E+00   1.03845287E-10   1.41783484E-04   4.29703742E-10   1.84055849E-03   9.78246348E-11   9.97793784E-11   9.78783794E-11   9.78684671E-11   4.99972916E-02   5.00002938E-02   6.46363157E-02   7.07642125E-02   1.96864615E-02   1.15198876E-11   9.96094217E-11   9.99989928E-11   9.99050508E-11   1.00197727E-10   9.98500729E-04   6.50431095E-02   6.41713771E-02   3.31637254E-28   8.04927820E-03   8.38970443E-11   9.23654524E-11   9.43562323E-11   1.00326753E-10
   6.91250000E+02   5.00000000E-01   5.00000000E-01   1.07435972E-01   1.09525492E-01   0.00000000E+00   0.00000000E+00   0.00000000E+00   2.12599514E-04   0.00000000E+00   1.03901531E-10   1.24330106E-04   4.37636625E-10   1.76844780E-03   9.78244068E-11   9.97791872E-11   9.78773357E-11   9.78661656E-11   4.99972942E-02   5.00003352E-02   6.46363157E-02   7.07139883E-02   1.97616774E-02   1.15180281E-11   9.96090433E-11   9.99808121E-11   9.99032784E-11   1.00182012E-10   9.98500515E-04   6.50569425E-02   6.41713771E-02   7.12957871E-28   8.04927821E-03   8.38969812E-11   9.23654524E-11   9.43562228E-11   1.00324591E-10
   7.08750000E+02   5.00000000E-01   5.00000000E-01   1.07435973E-01   1.09540438E-01   0.00000000E+00   0.00000000E+00   0.00000000E+00   2.12599514E-04   0.00000000E+00   1.03955881E-10   1.08957799E-04   4.45450259E-10   1.69603553E-03   9.78241857E-11   9.97790075E-11   9.78763245E-11   9.78639715E-11   4.99972968E-02   5.00003745E-02   6.46363157E-02   7.06653928E-02   1.98347344E-02   1.15163285E-11   9.96086980E-11   9.99635983E-11   9.99016416E-11   1.00166982E-10   9.98500312E-04   6.50698214E-02   6.41713771E-02   2.72611452E-13   8.04927822E-03   8.38969214E-11   9.23654524E-11   9.43562135E-11   1.00322380E-10
   7.26250000E+02   5.00000000E-01   5.00000000E-01   1.07435974E-01   1.09555093E-01   0.00000000E+00   0.00000000E+00   0.00000000E+00   2.12599513E-04   0.00000000E+00   1.04008633E-10   9.54238393E-05   4.53169210E-10   1.62362573E-03   9.78239736E-11   9.97788390E-11   9.78753535E-11   9.78618897E-11   4.99972995E-02   5.00004116E-02   6.46363157E-02   7.06184901E-02   1.99055495E-02   1.15147775E-11   9.96083975E-11   9.99473502E-11   9.99001885E-11   1.00152688E-10   9.98500120E-04   6.50817087E-02   6.41713771E-02   1.14276945E-12   8.04927822E-03   8.38968651E-11   9.23654524E-11   9.43562046E-11   1.00320122E-10
   7.43750000E+02   5.00000000E-01   5.00000000E-01   1.07435975E-01   1.09569395E-01   0.00000000E+00   0.00000000E+00   0.00000000E+00   2.12599512E-04   0.00000000E+00   1.04060032E-10   8.35090257E-05   4.60806911E-10   1.55144271E-03   9.78237712E-11   9.97786814E-11   9.78744270E-11   9.78599204E-11   4.99973023E-02   5.00004464E-02   6.46363157E-02   7.05733255E-02   1.99740732E-02   1.15133627E-11   9.96081508E-11   9.99320498E-11   9.98989557E-11   1.00139159E-10   9.98499940E-04   6.50926411E-02   6.41713771E-02   2.80654664E-12   8.04927823E-03   8.38968125E-11   9.23654524E-11   9.43561959E-11   1.00317821E-10
   7.61250000E+02   5.00000000E-01   5.00000000E-01   1.07435977E-01   1.09583260E-01   0.00000000E+00   0.00000000E+00   0.00000000E+00   2.12599511E-04   0.00000000E+00   1.04110230E-10   7.30178031E-05   4.68360844E-10   1.47965738E-03   9.78235789E-11   9.97785341E-11   9.78735462E-11   9.78580605E-11   4.99973051E-02   5.00004789E-02   6.46363158E-02   7.05299297E-02   2.00402789E-02   1.15120718E-11   9.96079643E-11   9.99176669E-11   9.98979693E-11   1.00126405E-10   9.98499771E-04   6.51027149E-02   6.41713771E-02   5.77569141E-12   8.04927824E-03   8.38967637E-11   9.23654524E-11   9.43561876E-11   1.00315480E-10
   7.78750000E+02   5.00000000E-01   5.00000000E-01   1.07435978E-01   1.09596581E-01   0.00000000E+00   0.00000000E+00   0.00000000E+00   2.12599510E-04   0.00000000E+00   1.04159262E-10   6.37775044E-05   4.75809171E-10   1.40841214E-03   9.78233968E-11   9.97783964E-11   9.78727109E-11   9.78563051E-11   4.99973080E-02   5.00005089E-02   6.46363158E-02   7.04883219E-02   2.01041537E-02   1.15108933E-11   9.96078430E-11   9.99041648E-11   9.98972488E-11   1.00114421E-10   9.98499612E-04   6.51120675E-02   6.41713771E-02   1.08495089E-11   8.04927825E-03   8.38967186E-11   9.23654524E-11   9.43561795E-11   1.00313101E-10
   7.96250000E+02   5.00000000E-01   5.00000000E-01   1.07435979E-01   1.09609236E-01   0.00000000E+00   0.00000000E+00   0.00000000E+00   2.12599509E-04   0.00000000E+00   1.04207025E-10   5.56370051E-05   4.83108933E-10   1.33784405E-03   9.78232245E-11   9.97782677E-11   9.78719203E-11   9.78546490E-11   4.99973110E-02   5.00005361E-02   6.46363158E-02   7.04485135E-02   2.01656887E-02   1.15098168E-11   9.96077907E-11   9.98915037E-11   9.98968098E-11   1.00103198E-10   9.98499463E-04   6.51208574E-02   6.41713771E-02   1.92686361E-11   8.04927826E-03   8.38966772E-11   9.23654524E-11   9.43561718E-11   1.00310688E-10