 TITLE = "Mineral Volumes" 
VARIABLES = "X"          "Y"              "Z"            "Forsterite"     "Fayalite"       "Brucite"        "Lizardite"      "Chrysotile"     "Hematite"       "Magnetite(am)"  "Saponite(Ca)"   "Saponite(K)"    "Saponite(Mg)"   "Saponite(Na)"   "Beidellite(Ca)" "Beidellite(K)"  "Beidellite(Mg)" "Beidellite(Na)" "Enstatite(alph" "Ferrosilite(al" "Anorthite"      "Albite(low)"    "Clinochlore"    "Sudoite"        "Montmor(MgCa)"  "Montmor(MgK)"   "Montmor(MgMg)"  "Montmor(MgNa)"  "Kaolinite"      "Tremolite"      "Pargasite"      "Anhydrite"      "Epidote"        "Scolecite"      "Pyrite"         "FeS(am)"        "Quartz(alpha)" 
 ZONE I=         200 , J=           1 , K=           1  F=POINT
   8.75000000E+00   5.00000000E-01   5.00000000E-01   1.07616816E-01   1.09087771E-01   0.00000000E+00   0.00000000E+00   0.00000000E+00   1.99102881E-04   0.00000000E+00   1.00727992E-10   3.17711958E-04   1.38669167E-10   3.93112729E-05   9.79678060E-11   9.97916220E-11   9.79825443E-11   9.79622988E-11   4.99974440E-02   4.99977549E-02   6.50033854E-02   6.87955422E-02   2.07524372E-02   1.99864982E-10   9.95504350E-11   9.95428449E-11   9.95537672E-11   9.95494462E-11   9.98603752E-04   6.47418324E-02   6.45687107E-02   0.00000000E+00   8.17311763E-03   8.49402424E-11   9.28880165E-11   9.47470132E-11   1.00104575E-10
   2.62500000E+01   5.00000000E-01   5.00000000E-01   1.07616816E-01   1.09091841E-01   0.00000000E+00   0.00000000E+00   0.00000000E+00   1.99102880E-04   0.00000000E+00   1.00897152E-10   1.35947666E-03   1.48901003E-10   1.81120973E-04   9.79678347E-11   9.97916618E-11   9.79826744E-11   9.79626417E-11   4.99974412E-02   4.99978456E-02   6.50033854E-02   6.89512088E-02   2.02934042E-02   1.58805487E-10   9.95509703E-11   9.95555203E-11   9.95560181E-11   9.95585102E-11   9.98603898E-04   6.47738660E-02   6.45687107E-02   0.00000000E+00   8.17311763E-03   8.49402974E-11   9.28880165E-11   9.47470821E-11   1.00164792E-10
   4.37500000E+01   5.00000000E-01   5.00000000E-01   1.07616816E-01   1.09095188E-01   0.00000000E+00   0.00000000E+00   0.00000000E+00   1.99102879E-04   0.00000000E+00   1.00965994E-10   1.61655315E-03   1.53124799E-10   2.45055827E-04   9.79681680E-11   9.97921016E-11   9.79841859E-11   9.79665220E-11   4.99974397E-02   4.99979137E-02   6.50033854E-02   6.94099335E-02   1.97295752E-02   1.06630950E-10   9.95546991E-11   9.96391264E-11   9.95716833E-11   9.96197777E-11   9.98604801E-04   6.47888836E-02   6.45687107E-02   0.00000000E+00   8.17311763E-03   8.49405984E-11   9.28880165E-11   9.47471121E-11   1.00214404E-10
   6.12500000E+01   5.00000000E-01   5.00000000E-01   1.07616816E-01   1.09098846E-01   0.00000000E+00   0.00000000E+00   0.00000000E+00   1.99102879E-04   0.00000000E+00   1.01033821E-10   1.97031926E-03   1.57530345E-10   3.43039253E-04   9.79690977E-11   9.97932567E-11   9.79883953E-11   9.79769989E-11   4.99974393E-02   4.99979838E-02   6.50033854E-02   7.00429551E-02   1.89493420E-02   6.08382163E-11   9.95629821E-11   9.98129597E-11   9.96064449E-11   9.97510264E-11   9.98606422E-04   6.48008590E-02   6.45687107E-02   0.00000000E+00   8.17311763E-03   8.49411353E-11   9.28880165E-11   9.47471361E-11   1.00252778E-10
   7.87500000E+01   5.00000000E-01   5.00000000E-01   1.07616816E-01   1.09103168E-01   0.00000000E+00   0.00000000E+00   0.00000000E+00   1.99102879E-04   0.00000000E+00   1.01122470E-10   2.40335550E-03   1.63337570E-10   4.83965117E-04   9.79705700E-11   9.97949653E-11   9.79950501E-11   9.79929892E-11   4.99974393E-02   4.99980559E-02   6.50033854E-02   7.06764460E-02   1.81384613E-02   3.48686144E-11   9.95742669E-11   1.00032271E-10   9.96537562E-11   9.99225282E-11   9.98608353E-04   6.48209840E-02   6.45687107E-02   0.00000000E+00   8.17311763E-03   8.49417743E-11   9.28880165E-11   9.47471567E-11   1.00280244E-10
   9.62500000E+01   5.00000000E-01   5.00000000E-01   1.07616816E-01   1.09108274E-01   0.00000000E+00   0.00000000E+00   0.00000000E+00   1.99102879E-04   0.00000000E+00   1.01224369E-10   2.75794974E-03   1.70135922E-10   6.46158523E-04   9.79723243E-11   9.97968481E-11   9.80029647E-11   9.80112592E-11   4.99974396E-02   4.99981292E-02   6.50033854E-02   7.12119095E-02   1.74452102E-02   2.31718660E-11   9.95862852E-11   1.00245483E-10   9.97040873E-11   1.00096454E-10   9.98610255E-04   6.48462469E-02   6.45687107E-02   0.00000000E+00   8.17311764E-03   8.49424059E-11   9.28880165E-11   9.47471744E-11   1.00298809E-10
   1.13750000E+02   5.00000000E-01   5.00000000E-01   1.07616816E-01   1.09114185E-01   0.00000000E+00   0.00000000E+00   0.00000000E+00   1.99102878E-04   0.00000000E+00   1.01329389E-10   2.96866608E-03   1.77322752E-10   8.10925606E-04   9.79740296E-11   9.97985089E-11   9.80106419E-11   9.80281295E-11   4.99974400E-02   4.99982036E-02   6.50033854E-02   7.16092029E-02   1.69327458E-02   1.80078253E-11   9.95971293E-11   1.00416548E-10   9.97494412E-11   1.00243991E-10   9.98611836E-04   6.48735462E-02   6.45687107E-02   0.00000000E+00   8.17311764E-03   8.49429464E-11   9.28880165E-11   9.47471895E-11   1.00310943E-10
   1.31250000E+02   5.00000000E-01   5.00000000E-01   1.07616816E-01   1.09120932E-01   0.00000000E+00   0.00000000E+00   0.00000000E+00   1.99102878E-04   0.00000000E+00   1.01433327E-10   3.04045239E-03   1.84636727E-10   9.68395353E-04   9.79754563E-11   9.97997252E-11   9.80170471E-11   9.80413089E-11   4.99974405E-02   4.99982794E-02   6.50033854E-02   7.18718611E-02   1.65985587E-02   1.56157147E-11   9.96058411E-11   1.00532883E-10   9.97858133E-11   1.00352949E-10   9.98612957E-04   6.49010335E-02   6.45687107E-02   0.00000000E+00   8.17311764E-03   8.49433569E-11   9.28880165E-11   9.47472025E-11   1.00318793E-10
   1.48750000E+02   5.00000000E-01   5.00000000E-01   1.07616816E-01   1.09128584E-01   0.00000000E+00   0.00000000E+00   0.00000000E+00   1.99102878E-04   0.00000000E+00   1.01536075E-10   3.00378363E-03   1.92079775E-10   1.11478922E-03   9.79765224E-11   9.98004634E-11   9.80218151E-11   9.80502123E-11   4.99974411E-02   4.99983572E-02   6.50033854E-02   7.20247922E-02   1.64097611E-02   1.44549850E-11   9.96122987E-11   1.00598853E-10   9.98127091E-11   1.00424268E-10   9.98613620E-04   6.49277571E-02   6.45687107E-02   0.00000000E+00   8.17311764E-03   8.49436369E-11   9.28880165E-11   9.47472133E-11   1.00323952E-10
   1.66250000E+02   5.00000000E-01   5.00000000E-01   1.07616816E-01   1.09137187E-01   0.00000000E+00   0.00000000E+00   0.00000000E+00   1.99102878E-04   0.00000000E+00   1.01638277E-10   2.89587696E-03   1.99703227E-10   1.25009567E-03   9.79772644E-11   9.98008142E-11   9.80251158E-11   9.80554852E-11   4.99974419E-02   4.99984371E-02   6.50033854E-02   7.20992918E-02   1.63241234E-02   1.38723537E-11   9.96169016E-11   1.00627106E-10   9.98318166E-11   1.00466114E-10   9.98613920E-04   6.49531860E-02   6.45687107E-02   0.00000000E+00   8.17311765E-03   8.49438111E-11   9.28880165E-11   9.47472220E-11   1.00327457E-10
   1.83750000E+02   5.00000000E-01   5.00000000E-01   1.07616816E-01   1.09146715E-01   0.00000000E+00   0.00000000E+00   0.00000000E+00   1.99102877E-04   0.00000000E+00   1.01739659E-10   2.74985118E-03   2.07482382E-10   1.37637526E-03   9.79777800E-11   9.98009138E-11   9.80273929E-11   9.80583103E-11   4.99974427E-02   4.99985185E-02   6.50033854E-02   7.21244262E-02   1.63022676E-02   1.35731231E-11   9.96202573E-11   1.00631787E-10   9.98456902E-11   1.00488761E-10   9.98613984E-04   6.49769919E-02   6.45687107E-02   0.00000000E+00   8.17311765E-03   8.49439146E-11   9.28880165E-11   9.47472284E-11   1.00329910E-10
   2.01250000E+02   5.00000000E-01   5.00000000E-01   1.07616816E-01   1.09157144E-01   0.00000000E+00   0.00000000E+00   0.00000000E+00   1.99102877E-04   0.00000000E+00   1.01840772E-10   2.58252082E-03   2.15446611E-10   1.49368499E-03   9.79781361E-11   9.98008514E-11   9.80289500E-11   9.80594789E-11   4.99974435E-02   4.99986009E-02   6.50033854E-02   7.21183786E-02   1.63208262E-02   1.34157965E-11   9.96227715E-11   1.00621894E-10   9.98560353E-11   1.00498904E-10   9.98613894E-04   6.49993832E-02   6.45687107E-02   0.00000000E+00   8.17311765E-03   8.49439697E-11   9.28880165E-11   9.47472326E-11   1.00331675E-10
   2.18750000E+02   5.00000000E-01   5.00000000E-01   1.07616816E-01   1.09168462E-01   0.00000000E+00   0.00000000E+00   0.00000000E+00   1.99102877E-04   0.00000000E+00   1.01942771E-10   2.40263840E-03   2.23671086E-10   1.60074659E-03   9.79783645E-11   9.98006733E-11   9.80299319E-11   9.80593930E-11   4.99974445E-02   4.99986842E-02   6.50033854E-02   7.20912652E-02   1.63672712E-02   1.33301572E-11   9.96246518E-11   1.00602236E-10   9.98637248E-11   1.00500088E-10   9.98613691E-04   6.50210784E-02   6.45687107E-02   0.00000000E+00   8.17311765E-03   8.49439876E-11   9.28880165E-11   9.47472347E-11   1.00332991E-10
   2.36250000E+02   5.00000000E-01   5.00000000E-01   1.07616816E-01   1.09180549E-01   0.00000000E+00   0.00000000E+00   0.00000000E+00   1.99102877E-04   0.00000000E+00   1.02044734E-10   2.22048510E-03   2.32066182E-10   1.69888521E-03   9.79785108E-11   9.98004309E-11   9.80305442E-11   9.80585448E-11   4.99974455E-02   4.99987675E-02   6.50033854E-02   7.20522894E-02   1.64290183E-02   1.32814346E-11   9.96261433E-11   1.00577434E-10   9.98697861E-11   1.00496016E-10   9.98613424E-04   6.50427634E-02   6.45687107E-02   0.00000000E+00   8.17311765E-03   8.49439819E-11   9.28880165E-11   9.47472347E-11   1.00333978E-10
   2.53750000E+02   5.00000000E-01   5.00000000E-01   1.07616816E-01   1.09193284E-01   0.00000000E+00   0.00000000E+00   0.00000000E+00   1.99102877E-04   0.00000000E+00   1.02145545E-10   2.03911406E-03   2.40524628E-10   1.78663556E-03   9.79785878E-11   9.98001426E-11   9.80308460E-11   9.80570989E-11   4.99974465E-02   4.99988502E-02   6.50033854E-02   7.20055666E-02   1.65013298E-02   1.32516392E-11   9.96273288E-11   1.00549283E-10   9.98745674E-11   1.00488075E-10   9.98613109E-04   6.50650588E-02   6.45687107E-02   0.00000000E+00   8.17311766E-03   8.49439574E-11   9.28880165E-11   9.47472329E-11   1.00334715E-10
   2.71250000E+02   5.00000000E-01   5.00000000E-01   1.07616816E-01   1.09206535E-01   0.00000000E+00   0.00000000E+00   0.00000000E+00   1.99102876E-04   0.00000000E+00   1.02243681E-10   1.86151785E-03   2.48908159E-10   1.86317847E-03   9.79786039E-11   9.97998207E-11   9.80308749E-11   9.80551656E-11   4.99974476E-02   4.99989321E-02   6.50033854E-02   7.19535482E-02   1.65810815E-02   1.32316354E-11   9.96282539E-11   1.00518847E-10   9.98782610E-11   1.00477087E-10   9.98612759E-04   6.50882164E-02   6.45687107E-02   0.00000000E+00   8.17311766E-03   8.49439169E-11   9.28880165E-11   9.47472295E-11   1.00335255E-10
   2.88750000E+02   5.00000000E-01   5.00000000E-01   1.07616816E-01   1.09220180E-01   0.00000000E+00   0.00000000E+00   0.00000000E+00   1.99102876E-04   0.00000000E+00   1.02337499E-10   1.69054826E-03   2.57072382E-10   1.92849146E-03   9.79785702E-11   9.97994780E-11   9.80306814E-11   9.80528718E-11   4.99974488E-02   4.99990127E-02   6.50033854E-02   7.18980645E-02   1.66656426E-02   1.32168725E-11   9.96289660E-11   1.00487065E-10   9.98810653E-11   1.00463822E-10   9.98612387E-04   6.51119917E-02   6.45687107E-02   0.00000000E+00   8.17311766E-03   8.49438641E-11   9.28880165E-11   9.47472246E-11   1.00335630E-10
   3.06250000E+02   5.00000000E-01   5.00000000E-01   1.07616816E-01   1.09234125E-01   0.00000000E+00   0.00000000E+00   0.00000000E+00   1.99102876E-04   0.00000000E+00   1.02425769E-10   1.52856672E-03   2.64911102E-10   1.98317016E-03   9.79785008E-11   9.97991278E-11   9.80303294E-11   9.80503587E-11   4.99974500E-02   4.99990918E-02   6.50033854E-02   7.18405367E-02   1.67527825E-02   1.32051220E-11   9.96295181E-11   1.00454807E-10   9.98832027E-11   1.00449053E-10   9.98612006E-04   6.51357488E-02   6.45687107E-02   0.00000000E+00   8.17311766E-03   8.49438026E-11   9.28880165E-11   9.47472185E-11   1.00335855E-10
   3.23750000E+02   5.00000000E-01   5.00000000E-01   1.07616816E-01   1.09248322E-01   0.00000000E+00   0.00000000E+00   0.00000000E+00   1.99102876E-04   0.00000000E+00   1.02507979E-10   1.37726961E-03   2.72381974E-10   2.02818983E-03   9.79784109E-11   9.97987820E-11   9.80298870E-11   9.80477644E-11   4.99974512E-02   4.99991693E-02   6.50033854E-02   7.17820577E-02   1.68406873E-02   1.31953148E-11   9.96299654E-11   1.00422838E-10   9.98849036E-11   1.00433510E-10   9.98611629E-04   6.51587126E-02   6.45687107E-02   0.00000000E+00   8.17311766E-03   8.49437365E-11   9.28880165E-11   9.47472113E-11   1.00335936E-10
   3.41250000E+02   5.00000000E-01   5.00000000E-01   1.07616816E-01   1.09262762E-01   0.00000000E+00   0.00000000E+00   0.00000000E+00   1.99102876E-04   0.00000000E+00   1.02584342E-10   1.23763388E-03   2.79506787E-10   2.06464902E-03   9.79783146E-11   9.97984503E-11   9.80294168E-11   9.80452063E-11   4.99974525E-02   4.99992453E-02   6.50033854E-02   7.17234437E-02   1.69279819E-02   1.31869241E-11   9.96303592E-11   1.00391765E-10   9.98863822E-11   1.00417815E-10   9.98611267E-04   6.51802004E-02   6.45687107E-02   0.00000000E+00   8.17311767E-03   8.49436694E-11   9.28880165E-11   9.47472032E-11   1.00335872E-10
   3.58750000E+02   5.00000000E-01   5.00000000E-01   1.07616817E-01   1.09277466E-01   0.00000000E+00   0.00000000E+00   0.00000000E+00   1.99102875E-04   0.00000000E+00   1.02655632E-10   1.10988872E-03   2.86356995E-10   2.09338611E-03   9.79782218E-11   9.97981382E-11   9.80289632E-11   9.80427609E-11   4.99974538E-02   4.99993199E-02   6.50033854E-02   7.16651863E-02   1.70138830E-02   1.31796516E-11   9.96307370E-11   1.00361956E-10   9.98877943E-11   1.00402392E-10   9.98610924E-04   6.51997671E-02   6.45687107E-02   0.00000000E+00   8.17311767E-03   8.49436038E-11   9.28880165E-11   9.47471944E-11   1.00335661E-10
   3.76250000E+02   5.00000000E-01   5.00000000E-01   1.07616817E-01   1.09292463E-01   0.00000000E+00   0.00000000E+00   0.00000000E+00   1.99102875E-04   0.00000000E+00   1.02722926E-10   9.93788780E-04   2.93031339E-10   2.11505722E-03   9.79781386E-11   9.97978482E-11   9.80285534E-11   9.80404696E-11   4.99974552E-02   4.99993930E-02   6.50033854E-02   7.16075656E-02   1.70979927E-02   1.31733018E-11   9.96311234E-11   1.00333592E-10   9.98892416E-11   1.00387490E-10   9.98610605E-04   6.52172199E-02   6.45687107E-02   0.00000000E+00   8.17311767E-03   8.49435413E-11   9.28880165E-11   9.47471849E-11   1.00335301E-10
   3.93750000E+02   5.00000000E-01   5.00000000E-01   1.07616817E-01   1.09307783E-01   0.00000000E+00   0.00000000E+00   0.00000000E+00   1.99102875E-04   0.00000000E+00   1.02787413E-10   8.88729284E-04   2.99638800E-10   2.13001857E-03   9.79780672E-11   9.97975798E-11   9.80281968E-11   9.80383404E-11   4.99974566E-02   4.99994647E-02   6.50033854E-02   7.15506716E-02   1.71802766E-02   1.31677182E-11   9.96315284E-11   1.00306683E-10   9.98907657E-11   1.00373189E-10   9.98610309E-04   6.52325858E-02   6.45687107E-02   0.00000000E+00   8.17311767E-03   8.49434826E-11   9.28880165E-11   9.47471749E-11   1.00334791E-10
   4.11250000E+02   5.00000000E-01   5.00000000E-01   1.07616817E-01   1.09323444E-01   0.00000000E+00   0.00000000E+00   0.00000000E+00   1.99102874E-04   0.00000000E+00   1.02850251E-10   7.93928806E-04   3.06285276E-10   2.13843712E-03   9.79780067E-11   9.97973310E-11   9.80278892E-11   9.80363583E-11   4.99974581E-02   4.99995351E-02   6.50033854E-02   7.14944781E-02   1.72609134E-02   1.31627675E-11   9.96319508E-11   1.00281127E-10   9.98923612E-11   1.00359450E-10   9.98610034E-04   6.52460538E-02   6.45687107E-02   0.00000000E+00   8.17311768E-03   8.49434277E-11   9.28880165E-11   9.47471646E-11   1.00334134E-10
   4.28750000E+02   5.00000000E-01   5.00000000E-01   1.07616817E-01   1.09339444E-01   0.00000000E+00   0.00000000E+00   0.00000000E+00   1.99102874E-04   0.00000000E+00   1.02912475E-10   7.08550840E-04   3.13064627E-10   2.14040521E-03   9.79779543E-11   9.97970988E-11   9.80276181E-11   9.80344964E-11   4.99974596E-02   4.99996041E-02   6.50033854E-02   7.14389158E-02   1.73401597E-02   1.31583365E-11   9.96323825E-11   1.00256772E-10   9.98939938E-11   1.00346169E-10   9.98609777E-04   6.52579201E-02   6.45687107E-02   0.00000000E+00   8.17311768E-03   8.49433760E-11   9.28880165E-11   9.47471539E-11   1.00333333E-10
   4.46250000E+02   5.00000000E-01   5.00000000E-01   1.07616818E-01   1.09355762E-01   0.00000000E+00   0.00000000E+00   0.00000000E+00   1.99102874E-04   0.00000000E+00   1.02974940E-10   6.31742302E-04   3.20053054E-10   2.13591874E-03   9.79779059E-11   9.97968799E-11   9.80273653E-11   9.80327201E-11   4.99974612E-02   4.99996716E-02   6.50033854E-02   7.13838886E-02   1.74183278E-02   1.31543280E-11   9.96328102E-11   1.00233435E-10   9.98956074E-11   1.00333198E-10   9.98609536E-04   6.52685535E-02   6.45687107E-02   0.00000000E+00   8.17311768E-03   8.49433268E-11   9.28880165E-11   9.47471430E-11   1.00332393E-10
   4.63750000E+02   5.00000000E-01   5.00000000E-01   1.07616818E-01   1.09372352E-01   0.00000000E+00   0.00000000E+00   0.00000000E+00   1.99102873E-04   0.00000000E+00   1.03038286E-10   5.62684032E-04   3.27304796E-10   2.12494638E-03   9.79778567E-11   9.97966710E-11   9.80271094E-11   9.80309928E-11   4.99974629E-02   4.99997375E-02   6.50033854E-02   7.13293024E-02   1.74957270E-02   1.31506606E-11   9.96332175E-11   1.00210932E-10   9.98971341E-11   1.00320375E-10   9.98609305E-04   6.52783669E-02   6.45687107E-02   0.00000000E+00   8.17311768E-03   8.49432791E-11   9.28880165E-11   9.47471320E-11   1.00331323E-10
   4.81250000E+02   5.00000000E-01   5.00000000E-01   1.07616818E-01   1.09389146E-01   0.00000000E+00   0.00000000E+00   0.00000000E+00   1.99102873E-04   0.00000000E+00   1.03102908E-10   5.00617083E-04   3.34848697E-10   2.10748390E-03   9.79778020E-11   9.97964694E-11   9.80268289E-11   9.80292803E-11   4.99974646E-02   4.99998017E-02   6.50033854E-02   7.12750876E-02   1.75726185E-02   1.31472691E-11   9.96335876E-11   1.00189101E-10   9.98985042E-11   1.00307547E-10   9.98609084E-04   6.52877938E-02   6.45687107E-02   0.00000000E+00   8.17311769E-03   8.49432320E-11   9.28880165E-11   9.47471208E-11   1.00330129E-10
   4.98750000E+02   5.00000000E-01   5.00000000E-01   1.07616818E-01   1.09406317E-01   0.00000000E+00   0.00000000E+00   0.00000000E+00   1.99102873E-04   0.00000000E+00   1.03170112E-10   4.43684107E-04   3.42813439E-10   2.07662770E-03   9.79777029E-11   9.97962565E-11   9.80263528E-11   9.80273287E-11   4.99974664E-02   4.99998651E-02   6.50033854E-02   7.12190337E-02   1.76535045E-02   1.31439001E-11   9.96337492E-11   1.00166638E-10   9.98990071E-11   1.00293190E-10   9.98608852E-04   6.52972671E-02   6.45687107E-02   0.00000000E+00   8.17311769E-03   8.49431775E-11   9.28880165E-11   9.47471097E-11   1.00328843E-10
   5.16250000E+02   5.00000000E-01   5.00000000E-01   1.07616819E-01   1.09423621E-01   0.00000000E+00   0.00000000E+00   0.00000000E+00   1.99102872E-04   0.00000000E+00   1.03239352E-10   3.93051902E-04   3.51139982E-10   2.04111439E-03   9.79775839E-11   9.97960450E-11   9.80257892E-11   9.80253096E-11   4.99974682E-02   4.99999268E-02   6.50033855E-02   7.11629836E-02   1.77339875E-02   1.31407130E-11   9.96338131E-11   1.00144465E-10   9.98991029E-11   1.00278380E-10   9.98608622E-04   6.53073266E-02   6.45687107E-02   0.00000000E+00   8.17311770E-03   8.49431208E-11   9.28880165E-11   9.47470987E-11   1.00327464E-10
   5.33750000E+02   5.00000000E-01   5.00000000E-01   1.07616819E-01   1.09440874E-01   0.00000000E+00   0.00000000E+00   0.00000000E+00   1.99102872E-04   0.00000000E+00   1.03309862E-10   3.47855746E-04   3.59730290E-10   2.00039492E-03   9.79774503E-11   9.97958376E-11   9.80251618E-11   9.80232621E-11   4.99974702E-02   4.99999864E-02   6.50033855E-02   7.11075512E-02   1.78137678E-02   1.31377287E-11   9.96338093E-11   1.00122816E-10   9.98989170E-11   1.00263411E-10   9.98608396E-04   6.53182904E-02   6.45687107E-02   0.00000000E+00   8.17311770E-03   8.49430630E-11   9.28880165E-11   9.47470877E-11   1.00325994E-10
   5.51250000E+02   5.00000000E-01   5.00000000E-01   1.07616819E-01   1.09457949E-01   0.00000000E+00   0.00000000E+00   0.00000000E+00   1.99102871E-04   0.00000000E+00   1.03380882E-10   3.07404969E-04   3.68487780E-10   1.95400496E-03   9.79773002E-11   9.97956336E-11   9.80244627E-11   9.80211773E-11   4.99974722E-02   5.00000436E-02   6.50033855E-02   7.10528167E-02   1.78930459E-02   1.31349265E-11   9.96337335E-11   1.00101659E-10   9.98984320E-11   1.00248269E-10   9.98608175E-04   6.53303683E-02   6.45687107E-02   0.00000000E+00   8.17311770E-03   8.49430039E-11   9.28880165E-11   9.47470768E-11   1.00324438E-10
   5.68750000E+02   5.00000000E-01   5.00000000E-01   1.07616820E-01   1.09474750E-01   0.00000000E+00   0.00000000E+00   0.00000000E+00   1.99102871E-04   0.00000000E+00   1.03451597E-10   2.71216815E-04   3.77312860E-10   1.90224416E-03   9.79771327E-11   9.97954326E-11   9.80236879E-11   9.80190526E-11   4.99974742E-02   5.00000984E-02   6.50033855E-02   7.09988064E-02   1.79718385E-02   1.31322926E-11   9.96335819E-11   1.00080969E-10   9.98976324E-11   1.00232943E-10   9.98607956E-04   6.53436238E-02   6.45687107E-02   0.00000000E+00   8.17311771E-03   8.49429434E-11   9.28880165E-11   9.47470660E-11   1.00322801E-10
   5.86250000E+02   5.00000000E-01   5.00000000E-01   1.07616820E-01   1.09491209E-01   0.00000000E+00   0.00000000E+00   0.00000000E+00   1.99102871E-04   0.00000000E+00   1.03521205E-10   2.38897321E-04   3.86109594E-10   1.84572832E-03   9.79769489E-11   9.97952352E-11   9.80228423E-11   9.80168982E-11   4.99974763E-02   5.00001508E-02   6.50033855E-02   7.09455779E-02   1.80500294E-02   1.31298237E-11   9.96333575E-11   1.00060766E-10   9.98965312E-11   1.00217479E-10   9.98607742E-04   6.53579521E-02   6.45687107E-02   0.00000000E+00   8.17311771E-03   8.49428815E-11   9.28880165E-11   9.47470555E-11   1.00321087E-10
   6.03750000E+02   5.00000000E-01   5.00000000E-01   1.07616821E-01   1.09507296E-01   0.00000000E+00   0.00000000E+00   0.00000000E+00   1.99102870E-04   0.00000000E+00   1.03589012E-10   2.10103064E-04   3.94796986E-10   1.78524554E-03   9.79767517E-11   9.97950426E-11   9.80219395E-11   9.80147345E-11   4.99974785E-02   5.00002006E-02   6.50033855E-02   7.08932242E-02   1.81274097E-02   1.31275225E-11   9.96330705E-11   1.00041106E-10   9.98951706E-11   1.00201974E-10   9.98607532E-04   6.53730976E-02   6.45687107E-02   0.00000000E+00   8.17311772E-03   8.49428189E-11   9.28880165E-11   9.47470451E-11   1.00319300E-10
   6.21250000E+02   5.00000000E-01   5.00000000E-01   1.07616822E-01   1.09523008E-01   0.00000000E+00   0.00000000E+00   0.00000000E+00   1.99102870E-04   0.00000000E+00   1.03654519E-10   1.84521723E-04   4.03317976E-10   1.72166500E-03   9.79765456E-11   9.97948564E-11   9.80209985E-11   9.80125881E-11   4.99974808E-02   5.00002480E-02   6.50033855E-02   7.08418636E-02   1.82037163E-02   1.31253934E-11   9.96327364E-11   1.00022071E-10   9.98936160E-11   1.00186564E-10   9.98607329E-04   6.53887038E-02   6.45687107E-02   4.89279777E-29   8.17311772E-03   8.49427563E-11   9.28880165E-11   9.47470349E-11   1.00317446E-10
   6.38750000E+02   5.00000000E-01   5.00000000E-01   1.07616822E-01   1.09538368E-01   0.00000000E+00   0.00000000E+00   0.00000000E+00   1.99102869E-04   0.00000000E+00   1.03717457E-10   1.61859817E-04   4.11643064E-10   1.65584994E-03   9.79763354E-11   9.97946781E-11   9.80200413E-11   9.80104871E-11   4.99974831E-02   5.00002931E-02   6.50033855E-02   7.07916258E-02   1.82786707E-02   1.31234388E-11   9.96323746E-11   1.00003749E-10   9.98919467E-11   1.00171398E-10   9.98607133E-04   6.54043758E-02   6.45687107E-02   1.02105498E-28   8.17311772E-03   8.49426946E-11   9.28880165E-11   9.47470250E-11   1.00315527E-10
   6.56250000E+02   5.00000000E-01   5.00000000E-01   1.07616823E-01   1.09553408E-01   0.00000000E+00   0.00000000E+00   0.00000000E+00   1.99102869E-04   0.00000000E+00   1.03777782E-10   1.41836382E-04   4.19768240E-10   1.58858382E-03   9.79761259E-11   9.97945091E-11   9.80190890E-11   9.80084569E-11   4.99974854E-02   5.00003359E-02   6.50033855E-02   7.07426391E-02   1.83520127E-02   1.31216578E-11   9.96320051E-11   9.99862188E-11   9.98902459E-11   1.00156622E-10   9.98606947E-04   6.54197406E-02   6.45687107E-02   2.13475367E-28   8.17311773E-03   8.49426347E-11   9.28880165E-11   9.47470153E-11   1.00313546E-10
   6.73750000E+02   5.00000000E-01   5.00000000E-01   1.07616824E-01   1.09568155E-01   0.00000000E+00   0.00000000E+00   0.00000000E+00   1.99102868E-04   0.00000000E+00   1.03835623E-10   1.24182174E-04   4.27708634E-10   1.52053118E-03   9.79759214E-11   9.97943501E-11   9.80181602E-11   9.80065181E-11   4.99974878E-02   5.00003765E-02   6.50033855E-02   7.06950213E-02   1.84235194E-02   1.31200449E-11   9.96316473E-11   9.99695427E-11   9.98885936E-11   1.00142366E-10   9.98606771E-04   6.54344903E-02   6.45687107E-02   4.47179022E-28   8.17311773E-03   8.49425772E-11   9.28880165E-11   9.47470060E-11   1.00311508E-10
   6.91250000E+02   5.00000000E-01   5.00000000E-01   1.07616825E-01   1.09582624E-01   0.00000000E+00   0.00000000E+00   0.00000000E+00   1.99102867E-04   0.00000000E+00   1.03891230E-10   1.08640751E-04   4.35490409E-10   1.45220498E-03   9.79757253E-11   9.97942017E-11   9.80172695E-11   9.80046845E-11   4.99974903E-02   5.00004150E-02   6.50033855E-02   7.06488712E-02   1.84930228E-02   1.31185911E-11   9.96313182E-11   9.99537586E-11   9.98870591E-11   1.00128729E-10   9.98606606E-04   6.54484057E-02   6.45687107E-02   9.38596367E-28   8.17311774E-03   8.49425229E-11   9.28880165E-11   9.47469969E-11   1.00309416E-10
   7.08750000E+02   5.00000000E-01   5.00000000E-01   1.07616826E-01   1.09596809E-01   0.00000000E+00   0.00000000E+00   0.00000000E+00   1.99102867E-04   0.00000000E+00   1.03944902E-10   9.49729734E-05   4.43142314E-10   1.38399671E-03   9.79755398E-11   9.97940639E-11   9.80164270E-11   9.80029639E-11   4.99974929E-02   5.00004514E-02   6.50033855E-02   7.06042682E-02   1.85604008E-02   1.31172845E-11   9.96310317E-11   9.99388820E-11   9.98857001E-11   1.00115784E-10   9.98606452E-04   6.54613613E-02   6.45687107E-02   3.50036973E-13   8.17311775E-03   8.49424722E-11   9.28880165E-11   9.47469881E-11   1.00307272E-10
   7.26250000E+02   5.00000000E-01   5.00000000E-01   1.07616827E-01   1.09610677E-01   0.00000000E+00   0.00000000E+00   0.00000000E+00   1.99102866E-04   0.00000000E+00   1.03996935E-10   8.29594468E-05   4.50688099E-10   1.31619779E-03   9.79753664E-11   9.97939366E-11   9.80156390E-11   9.80013589E-11   4.99974955E-02   5.00004855E-02   6.50033855E-02   7.05612742E-02   1.86255700E-02   1.31161123E-11   9.96307991E-11   9.99249097E-11   9.98845620E-11   1.00103577E-10   9.98606309E-04   6.54733189E-02   6.45687107E-02   1.42963993E-12   8.17311775E-03   8.49424252E-11   9.28880165E-11   9.47469796E-11   1.00305080E-10
   7.43750000E+02   5.00000000E-01   5.00000000E-01   1.07616828E-01   1.09624167E-01   0.00000000E+00   0.00000000E+00   0.00000000E+00   1.99102865E-04   0.00000000E+00   1.04047569E-10   7.24018320E-05   4.58140313E-10   1.24902325E-03   9.79752059E-11   9.97938191E-11   9.80149087E-11   9.79998683E-11   4.99974982E-02   5.00005174E-02   6.50033855E-02   7.05199356E-02   1.86884771E-02   1.31150612E-11   9.96306289E-11   9.99118235E-11   9.98836798E-11   1.00092133E-10   9.98606176E-04   6.54843158E-02   6.45687107E-02   3.41717501E-12   8.17311776E-03   8.49423823E-11   9.28880165E-11   9.47469713E-11   1.00302842E-10
   7.61250000E+02   5.00000000E-01   5.00000000E-01   1.07616829E-01   1.09637194E-01   0.00000000E+00   0.00000000E+00   0.00000000E+00   1.99102865E-04   0.00000000E+00   1.04096953E-10   6.31231115E-05   4.65495506E-10   1.18263627E-03   9.79750586E-11   9.97937110E-11   9.80142372E-11   9.79984883E-11   4.99975009E-02   5.00005470E-02   6.50033855E-02   7.04802859E-02   1.87490896E-02   1.31141185E-11   9.96305277E-11   9.98995950E-11   9.98830799E-11   1.00081461E-10   9.98606053E-04   6.54944487E-02   6.45687107E-02   6.83659145E-12   8.17311777E-03   8.49423434E-11   9.28880165E-11   9.47469634E-11   1.00300563E-10
   7.78750000E+02   5.00000000E-01   5.00000000E-01   1.07616830E-01   1.09649652E-01   0.00000000E+00   0.00000000E+00   0.00000000E+00   1.99102864E-04   0.00000000E+00   1.04145119E-10   5.49670009E-05   4.72730907E-10   1.11717123E-03   9.79749245E-11   9.97936116E-11   9.80136244E-11   9.79972138E-11   4.99975037E-02   5.00005739E-02   6.50033855E-02   7.04423490E-02   1.88073878E-02   1.31132727E-11   9.96305006E-11   9.98881898E-11   9.98827829E-11   1.00071557E-10   9.98605940E-04   6.55038557E-02   6.45687107E-02   1.24705365E-11   8.17311777E-03   8.49423085E-11   9.28880165E-11   9.47469557E-11   1.00298245E-10
   7.96250000E+02   5.00000000E-01   5.00000000E-01   1.07616832E-01   1.09661418E-01   0.00000000E+00   0.00000000E+00   0.00000000E+00   1.99102863E-04   0.00000000E+00   1.04191960E-10   4.77967803E-05   4.79802660E-10   1.05275494E-03   9.79748034E-11   9.97935202E-11   9.80130696E-11   9.79960398E-11   4.99975066E-02   5.00005982E-02   6.50033855E-02   7.04061411E-02   1.88633566E-02   1.31125137E-11   9.96305518E-11   9.98775710E-11   9.98828056E-11   1.00062414E-10   9.98605834E-04   6.55126963E-02   6.45687107E-02   2.14807274E-11   8.17311778E-03   8.49422775E-11   9.28880165E-11   9.47469483E-11   1.00295891E-10