 TITLE = "Mineral Volumes" 
VARIABLES = "X"          "Y"              "Z"            "Forsterite"     "Fayalite"       "Brucite"        "Lizardite"      "Chrysotile"     "Saponite(Mg)"   "Enstatite(alph" "Ferrosilite(al" "Anorthite"      "Albite(low)"    "Clinochlore"    "Sudoite"        "Montmorillonit" "Kaolinite"      "Tremolite"      "Pargasite"      "Anhydrite"      "Epidote"        "Scolecite"      "Pyrite"         "FeS(am)"        "Quartz(alpha)" 
 ZONE I=         100 , J=           1 , K=           1  F=POINT
   1.75000000E+01   5.00000000E-01   5.00000000E-01   9.28140406E-02   1.03883709E-01   3.27462812E-11   2.19460999E-13   2.06909519E-13   0.00000000E+00   4.99980074E-02   4.99990090E-02   3.95062935E-02   7.53644912E-02   6.53600908E-02   9.50310344E-09   3.07430606E-09   4.61102708E-08   6.59033408E-02   6.57719633E-02   5.16803512E-11   9.99999974E-04   9.87589065E-04   5.65592018E-11   6.58782447E-11   1.00214091E-10
   5.25000000E+01   5.00000000E-01   5.00000000E-01   9.28140410E-02   1.05718405E-01   3.27463027E-11   2.52209101E-13   2.30774571E-13   0.00000000E+00   4.99980101E-02   5.00000184E-02   3.95062935E-02   8.04055715E-02   6.00324207E-02   2.74514382E-09   7.87390766E-08   4.48255798E-08   6.60325387E-02   6.57719633E-02   5.23834710E-11   1.00000000E-03   9.87590129E-04   5.65592018E-11   6.58831970E-11   1.00293913E-10
   8.75000000E+01   5.00000000E-01   5.00000000E-01   9.28140412E-02   1.07032843E-01   3.27463178E-11   2.52945032E-13   2.31933510E-13   0.00000000E+00   4.99980113E-02   5.00005277E-02   3.95062936E-02   8.30927631E-02   5.71894336E-02   2.62406420E-09   2.87812666E-06   4.61014141E-08   6.61488901E-02   6.57719633E-02   5.31707622E-11   1.00000000E-03   9.87591673E-04   5.65592018E-11   6.58857081E-11   1.00314944E-10
   1.22500000E+02   5.00000000E-01   5.00000000E-01   9.28140413E-02   1.07728444E-01   3.27463309E-11   2.37589588E-13   2.21395030E-13   0.00000000E+00   4.99980118E-02   5.00007194E-02   3.95062936E-02   8.43118872E-02   5.58186790E-02   3.38985807E-09   6.59249688E-05   4.83039357E-08   6.61063391E-02   6.57719633E-02   5.40566540E-11   1.00000000E-03   9.87593548E-04   5.65592018E-11   6.58868989E-11   1.00312312E-10
   1.57500000E+02   5.00000000E-01   5.00000000E-01   9.28140415E-02   1.08136209E-01   3.27463478E-11   2.26587521E-13   2.13709694E-13   0.00000000E+00   4.99980122E-02   5.00007849E-02   3.95062938E-02   8.43543822E-02   5.51179146E-02   5.06011113E-09   5.66482019E-04   5.11653565E-08   6.60407363E-02   6.57719633E-02   5.50565651E-11   1.00000000E-03   9.87595709E-04   5.65592018E-11   6.58873838E-11   1.00301334E-10
   1.92500000E+02   5.00000000E-01   5.00000000E-01   9.28140418E-02   1.08420896E-01   3.27463703E-11   2.23098950E-13   2.11479198E-13   0.00000000E+00   4.99980127E-02   5.00008018E-02   3.95062939E-02   8.35099607E-02   5.46572129E-02   8.31335777E-09   1.59904571E-03   5.45829143E-08   6.60347976E-02   6.57719633E-02   5.61875436E-11   1.00000000E-03   9.87598135E-04   5.65592018E-11   6.58874375E-11   1.00287829E-10
   2.27500000E+02   5.00000000E-01   5.00000000E-01   9.28140421E-02   1.08621859E-01   3.27463958E-11   2.21713223E-13   2.10796049E-13   0.00000000E+00   4.99980134E-02   5.00007908E-02   3.95062942E-02   8.24182573E-02   5.43730072E-02   1.43162741E-08   2.69631290E-03   5.84461438E-08   6.60438572E-02   6.57719633E-02   5.74699880E-11   1.00000000E-03   9.87600813E-04   5.65592018E-11   6.58871988E-11   1.00274349E-10
   2.62500000E+02   5.00000000E-01   5.00000000E-01   9.28140426E-02   1.08778722E-01   3.27464237E-11   2.21095126E-13   2.10681455E-13   0.00000000E+00   4.99980140E-02   5.00007660E-02   3.95062945E-02   8.13271968E-02   5.41734145E-02   2.47631233E-08   3.72847572E-03   6.26565343E-08   6.60582975E-02   6.57719633E-02   5.89279983E-11   1.00000000E-03   9.87603733E-04   5.65592018E-11   6.58867615E-11   1.00261611E-10
   2.97500000E+02   5.00000000E-01   5.00000000E-01   9.28140431E-02   1.08915210E-01   3.27464537E-11   2.20946485E-13   2.10920881E-13   0.00000000E+00   4.99980148E-02   5.00007344E-02   3.95062950E-02   8.02952810E-02   5.40063143E-02   4.20495292E-08   4.68813227E-03   6.71265045E-08   6.60769282E-02   6.57719633E-02   6.05900687E-11   1.00000000E-03   9.87606883E-04   5.65592018E-11   6.58861850E-11   1.00249656E-10
   3.32500000E+02   5.00000000E-01   5.00000000E-01   9.28140437E-02   1.09041707E-01   3.27464858E-11   2.21153673E-13   2.11435465E-13   0.00000000E+00   4.99980156E-02   5.00006991E-02   3.95062956E-02   7.93329864E-02   5.38505849E-02   6.95254150E-08   5.58294959E-03   7.17507293E-08   6.60992296E-02   6.57719633E-02   6.24900650E-11   1.00000000E-03   9.87610253E-04   5.65592018E-11   6.58855094E-11   1.00238354E-10
   3.67500000E+02   5.00000000E-01   5.00000000E-01   9.28140445E-02   1.09162324E-01   3.27465201E-11   2.21656728E-13   2.12185311E-13   0.00000000E+00   4.99980163E-02   5.00006614E-02   3.95062965E-02   7.84385243E-02   5.36986733E-02   1.11711928E-07   6.42012751E-03   7.64201144E-08   6.61245921E-02   6.57719633E-02   6.46685003E-11   1.00000000E-03   9.87613827E-04   5.65592018E-11   6.58847645E-11   1.00227563E-10
   4.02500000E+02   5.00000000E-01   5.00000000E-01   9.28140454E-02   1.09278489E-01   3.27465564E-11   2.22321265E-13   2.13068726E-13   0.00000000E+00   4.99980172E-02   5.00006221E-02   3.95062977E-02   7.76071521E-02   5.35486261E-02   1.74202926E-07   7.20497269E-03   8.10891161E-08   6.61522659E-02   6.57719633E-02   6.71741858E-11   1.00000000E-03   9.87617604E-04   5.65592018E-11   6.58839739E-11   1.00217179E-10
   4.37500000E+02   5.00000000E-01   5.00000000E-01   9.28140464E-02   1.09390558E-01   3.27465949E-11   2.22931258E-13   2.13913911E-13   0.00000000E+00   4.99980180E-02   5.00005818E-02   3.95062992E-02   7.68339668E-02   5.34005808E-02   2.63598084E-07   7.94132347E-03   8.57751640E-08   6.61813627E-02   6.57719633E-02   7.00663738E-11   1.00000000E-03   9.87621598E-04   5.65592018E-11   6.58831574E-11   1.00207134E-10
   4.72500000E+02   5.00000000E-01   5.00000000E-01   9.28140477E-02   1.09498595E-01   3.27466355E-11   2.23376002E-13   2.14629143E-13   0.00000000E+00   4.99980188E-02   5.00005410E-02   3.95063013E-02   7.61146722E-02   5.32551729E-02   3.87181555E-07   8.63214785E-03   9.04952963E-08   6.62109076E-02   6.57719633E-02   7.34175617E-11   1.00000000E-03   9.87625828E-04   5.65592018E-11   6.58823315E-11   1.00197394E-10
   5.07500000E+02   5.00000000E-01   5.00000000E-01   9.28140491E-02   1.09602706E-01   3.27466784E-11   2.23670212E-13   2.15223069E-13   0.00000000E+00   4.99980196E-02   5.00004998E-02   3.95063039E-02   7.54457372E-02   5.31127538E-02   5.53718754E-07   9.28001092E-03   9.52498729E-08   6.62399141E-02   6.57719633E-02   7.73171852E-11   1.00000000E-03   9.87630314E-04   5.65592018E-11   6.58815098E-11   1.00187944E-10
   5.42500000E+02   5.00000000E-01   5.00000000E-01   9.28140507E-02   1.09703211E-01   3.27467237E-11   2.23879911E-13   2.15747461E-13   0.00000000E+00   4.99980204E-02   5.00004588E-02   3.95063075E-02   7.48242822E-02   5.29729822E-02   7.74158483E-07   9.88747789E-03   9.99928691E-08   6.62674367E-02   6.57719633E-02   8.18765348E-11   1.00000000E-03   9.87635073E-04   5.65592018E-11   6.58807035E-11   1.00178777E-10
   5.77500000E+02   5.00000000E-01   5.00000000E-01   9.28140526E-02   1.09800548E-01   3.27467715E-11   2.24092445E-13   2.16273871E-13   0.00000000E+00   4.99980211E-02   5.00004181E-02   3.95063120E-02   7.42478026E-02   5.28351146E-02   1.06148606E-06   1.04571154E-02   1.04625247E-07   6.62926179E-02   6.57719633E-02   8.72353579E-11   1.00000000E-03   9.87640114E-04   5.65592018E-11   6.58799214E-11   1.00169895E-10
   6.12500000E+02   5.00000000E-01   5.00000000E-01   9.28140547E-02   1.09894970E-01   3.27468220E-11   2.24414538E-13   2.16892710E-13   0.00000000E+00   4.99980219E-02   5.00003778E-02   3.95063180E-02   7.37139240E-02   5.26986341E-02   1.43073204E-06   1.09912088E-02   1.09065707E-07   6.63147336E-02   6.57719633E-02   9.35708021E-11   1.00000000E-03   9.87645459E-04   5.65592018E-11   6.58791699E-11   1.00161302E-10
   6.47500000E+02   5.00000000E-01   5.00000000E-01   9.28140571E-02   1.09986382E-01   3.27468754E-11   2.24979335E-13   2.17719866E-13   0.00000000E+00   4.99980226E-02   5.00003382E-02   3.95063256E-02   7.32202397E-02   5.25635503E-02   1.89744021E-06   1.14916663E-02   1.13330506E-07   6.63332407E-02   6.57719633E-02   1.01109665E-10   1.00000000E-03   9.87651157E-04   5.65592018E-11   6.58784539E-11   1.00153005E-10
   6.82500000E+02   5.00000000E-01   5.00000000E-01   9.28140600E-02   1.10074571E-01   3.27469320E-11   2.25954867E-13   2.18904730E-13   0.00000000E+00   4.99980233E-02   5.00002993E-02   3.95063355E-02   7.27644220E-02   5.24299730E-02   2.47794547E-06   1.19602544E-02   1.17505287E-07   6.63478018E-02   6.57719633E-02   1.10145379E-10   1.00000000E-03   9.87657284E-04   5.65592018E-11   6.58777766E-11   1.00145012E-10
   7.17500000E+02   5.00000000E-01   5.00000000E-01   9.28140632E-02   1.10159627E-01   3.27469922E-11   2.27553324E-13   2.20639170E-13   0.00000000E+00   4.99980239E-02   5.00002610E-02   3.95063484E-02   7.23444953E-02   5.22972352E-02   3.19402758E-06   1.23990399E-02   1.21650448E-07   6.63582577E-02   6.57719633E-02   1.21061886E-10   1.00000000E-03   9.87663928E-04   5.65592018E-11   6.58771403E-11   1.00137327E-10
   7.52500000E+02   5.00000000E-01   5.00000000E-01   9.28140671E-02   1.10241845E-01   3.27470562E-11   2.30050886E-13   2.23175868E-13   0.00000000E+00   4.99980245E-02   5.00002236E-02   3.95063651E-02   7.19587441E-02   5.21642491E-02   4.07133857E-06   1.28101944E-02   1.25786512E-07   6.63646080E-02   6.57719633E-02   1.34367604E-10   1.00000000E-03   9.87671184E-04   5.65592018E-11   6.58765459E-11   1.00129953E-10
   7.87500000E+02   5.00000000E-01   5.00000000E-01   9.28140717E-02   1.10321602E-01   3.27471247E-11   2.33816974E-13   2.26855429E-13   0.00000000E+00   4.99980250E-02   5.00001869E-02   3.95063867E-02   7.16056920E-02   5.20298087E-02   5.14287754E-06   1.31957753E-02   1.29920338E-07   6.63669666E-02   6.57719633E-02   1.50744413E-10   1.00000000E-03   9.87679172E-04   5.65592018E-11   6.58759936E-11   1.00122884E-10
   8.22500000E+02   5.00000000E-01   5.00000000E-01   9.28140772E-02   1.10399318E-01   3.27471983E-11   2.39362253E-13   2.32150685E-13   0.00000000E+00   4.99980256E-02   5.00001510E-02   3.95064149E-02   7.12841007E-02   5.18927248E-02   6.44893209E-06   1.35576224E-02   1.34046203E-07   6.63655303E-02   6.57719633E-02   1.71119361E-10   9.99999999E-04   9.87688041E-04   5.65592018E-11   6.58754828E-11   1.00116114E-10
   8.57500000E+02   5.00000000E-01   5.00000000E-01   9.28140840E-02   1.10475483E-01   3.27472780E-11   2.47414097E-13   2.39736368E-13   0.00000000E+00   4.99980261E-02   5.00001159E-02   3.95064516E-02   7.09930525E-02   5.17517729E-02   8.04225459E-06   1.38973239E-02   1.38143454E-07   6.63605356E-02   6.57719633E-02   1.96771300E-10   9.99999999E-04   9.87697978E-04   5.65592018E-11   6.58750122E-11   1.00109634E-10
   8.92500000E+02   5.00000000E-01   5.00000000E-01   9.28140926E-02   1.10550616E-01   3.27473648E-11   2.59041397E-13   2.50604138E-13   0.00000000E+00   4.99980265E-02   5.00000815E-02   3.95064999E-02   7.07320128E-02   5.16057804E-02   9.98868125E-06   1.42160976E-02   1.42170229E-07   6.63522386E-02   6.57719633E-02   2.29492095E-10   9.99999998E-04   9.87709234E-04   5.65592018E-11   6.58745801E-11   1.00103429E-10
   9.27500000E+02   5.00000000E-01   5.00000000E-01   9.28141037E-02   1.10625251E-01   3.27474601E-11   2.75860690E-13   2.66252415E-13   0.00000000E+00   4.99980269E-02   5.00000478E-02   3.95065636E-02   7.05009755E-02   5.14535791E-02   1.23773339E-05   1.45146929E-02   1.46068553E-07   6.63408787E-02   6.57719633E-02   2.71834752E-10   9.99999997E-04   9.87722141E-04   5.65592018E-11   6.58741845E-11   1.00097486E-10
   9.62500000E+02   5.00000000E-01   5.00000000E-01   9.28141184E-02   1.10699924E-01   3.27475660E-11   3.00388876E-13   2.89010723E-13   0.00000000E+00   4.99980272E-02   5.00000148E-02   3.95066485E-02   7.03006274E-02   5.12939245E-02   1.53269934E-05   1.47933096E-02   1.49775116E-07   6.63266626E-02   6.57719633E-02   3.27502627E-10   9.99999995E-04   9.87737173E-04   5.65592018E-11   6.58738232E-11   1.00091788E-10
   9.97500000E+02   5.00000000E-01   5.00000000E-01   9.28141382E-02   1.10775115E-01   3.27476848E-11   3.36657963E-13   3.22604438E-13   0.00000000E+00   4.99980275E-02   4.99999823E-02   3.95067630E-02   7.01325787E-02   5.11254253E-02   1.89857548E-05   1.50514636E-02   1.53241695E-07   6.63097828E-02   6.57719633E-02   4.01972451E-10   9.99999993E-04   9.87755034E-04   5.65592018E-11   6.58734938E-11   1.00086319E-10
   1.03250000E+03   5.00000000E-01   5.00000000E-01   9.28141656E-02   1.10851120E-01   3.27478195E-11   3.91296154E-13   3.73148039E-13   0.00000000E+00   4.99980277E-02   4.99999503E-02   3.95069201E-02   6.99998169E-02   5.09465204E-02   2.35401523E-05   1.52876215E-02   1.56467700E-07   6.62904253E-02   6.57719633E-02   5.03513357E-10   9.99999990E-04   9.87776826E-04   5.65592018E-11   6.58731937E-11   1.00081060E-10
   1.06750000E+03   5.00000000E-01   5.00000000E-01   9.28142036E-02   1.10928058E-01   3.27479740E-11   4.75424294E-13   4.50890847E-13   0.00000000E+00   4.99980279E-02   4.99999186E-02   3.95071414E-02   6.99076958E-02   5.07548938E-02   2.92396805E-05   1.54988044E-02   1.59481152E-07   6.62687541E-02   6.57719633E-02   6.44892840E-10   9.99999986E-04   9.87804364E-04   5.65592018E-11   6.58729202E-11   1.00075991E-10
   1.10250000E+03   5.00000000E-01   5.00000000E-01   9.28142567E-02   1.11005733E-01   3.27481531E-11   6.07861507E-13   5.73184509E-13   0.00000000E+00   4.99980279E-02   4.99998868E-02   3.95074650E-02   6.98659052E-02   5.05467367E-02   3.64435239E-05   1.56794752E-02   1.62303499E-07   6.62448701E-02   6.57719633E-02   8.46304136E-10   9.99999982E-04   9.87840862E-04   5.65592018E-11   6.58726705E-11   1.00071092E-10
   1.13750000E+03   5.00000000E-01   5.00000000E-01   9.28142797E-02   1.09933536E-01   3.27481046E-11   7.55953924E-13   7.11548820E-13   1.94626204E-02   4.99980129E-02   4.99994158E-02   3.95080233E-02   6.85356333E-02   3.28263812E-02   1.14368397E-04   2.62996275E-02   1.94833487E-07   6.58925668E-02   6.57719633E-02   1.13908089E-09   9.99999978E-04   9.87904420E-04   5.65592018E-11   6.58724307E-11   1.00033925E-10
   1.17250000E+03   5.00000000E-01   5.00000000E-01   9.28143798E-02   1.10486021E-01   3.27483903E-11   1.07782276E-12   1.00957262E-12   0.00000000E+00   4.99980140E-02   4.99995028E-02   3.95088614E-02   6.88801019E-02   5.17898639E-02   6.78771710E-05   1.54737963E-02   1.78852650E-07   6.58914989E-02   6.57719633E-02   1.57885899E-09   9.99999971E-04   9.87982503E-04   5.65592018E-11   6.58722768E-11   1.00034338E-10
   1.20750000E+03   5.00000000E-01   5.00000000E-01   9.28145130E-02   1.10944682E-01   3.27486955E-11   1.57778746E-12   1.47416314E-12   0.00000000E+00   4.99980146E-02   4.99995491E-02   3.95106608E-02   6.93728835E-02   5.06432091E-02   8.18727302E-05   1.59264690E-02   1.77841025E-07   6.58911163E-02   6.57719633E-02   2.26000894E-09   9.99999965E-04   9.88142824E-04   5.65592018E-11   6.58720932E-11   1.00033261E-10
   1.24250000E+03   5.00000000E-01   5.00000000E-01   9.28146830E-02   1.11168296E-01   3.27490461E-11   2.26859782E-12   2.12158769E-12   0.00000000E+00   4.99980149E-02   4.99995511E-02   3.95167848E-02   7.03548065E-02   4.96898835E-02   1.09749189E-04   1.58080005E-02   1.78802679E-07   6.58910316E-02   6.57719633E-02   3.34888347E-09   9.99999960E-04   9.88646374E-04   5.65592018E-11   6.58718829E-11   1.00031186E-10
   1.27750000E+03   5.00000000E-01   5.00000000E-01   9.28148854E-02   1.11102380E-01   3.27494615E-11   2.98337674E-12   2.80472611E-12   0.00000000E+00   4.99980149E-02   4.99995092E-02   3.95824887E-02   7.33209198E-02   4.87747428E-02   1.77963380E-04   1.38975628E-02   1.80499038E-07   6.58912930E-02   6.57719633E-02   5.14818617E-09   9.99999954E-04   9.92903124E-04   5.65592018E-11   6.58716372E-11   1.00028176E-10
   1.31250000E+03   5.00000000E-01   5.00000000E-01   9.28151086E-02   1.10995021E-01   3.27500186E-11   3.33418320E-12   3.16474419E-12   0.00000000E+00   4.99980149E-02   4.99994578E-02   4.04899125E-02   7.74656581E-02   4.80214783E-02   2.01566314E-04   9.60696563E-03   1.77102745E-07   6.59037810E-02   6.57719633E-02   8.21665329E-09   9.99999948E-04   1.02511869E-03   5.65592018E-11   6.58714087E-11   1.00025254E-10
   1.34750000E+03   5.00000000E-01   5.00000000E-01   9.28153436E-02   1.11012788E-01   3.27509031E-11   3.12096531E-12   2.99983598E-12   0.00000000E+00   4.99980153E-02   4.99994169E-02   4.20694338E-02   7.81348460E-02   4.67001236E-02   1.29305278E-04   7.63239967E-03   1.69815204E-07   6.66072194E-02   6.57719633E-02   1.36007012E-08   9.99999941E-04   1.05216486E-03   5.65592018E-11   6.58712398E-11   1.00022810E-10
   1.38250000E+03   5.00000000E-01   5.00000000E-01   9.28155842E-02   1.10980656E-01   3.27519991E-11   2.59195043E-12   2.52474543E-12   1.87795040E-05   4.99980155E-02   4.99993654E-02   4.35138863E-02   7.77116908E-02   4.49681111E-02   1.67618232E-04   6.90902726E-03   1.67824364E-07   6.79066472E-02   6.57719633E-02   2.33969217E-08   9.99999934E-04   1.06121004E-03   5.65592018E-11   6.58711090E-11   1.00020174E-10
   1.41750000E+03   5.00000000E-01   5.00000000E-01   9.28158344E-02   1.10923720E-01   3.27533319E-11   2.05716611E-12   2.02845065E-12   3.37925775E-16   4.99980155E-02   4.99993112E-02   4.48282350E-02   7.73340530E-02   4.34457139E-02   2.46290092E-04   6.14800175E-03   1.67011683E-07   6.90989061E-02   6.57719634E-02   4.19647437E-08   9.99999928E-04   1.06368685E-03   5.65592018E-11   6.58710030E-11   1.00017517E-10
   1.45250000E+03   5.00000000E-01   5.00000000E-01   9.28160979E-02   1.10865274E-01   3.27549703E-11   1.63172552E-12   1.62564327E-12   7.99852215E-29   4.99980155E-02   4.99992580E-02   4.60731673E-02   7.70265083E-02   4.19890868E-02   3.60773537E-04   5.33397367E-03   1.66263904E-07   7.02112337E-02   6.57719634E-02   7.87032327E-08   9.99999923E-04   1.06359619E-03   5.65592018E-11   6.58709159E-11   1.00014921E-10
   1.48750000E+03   5.00000000E-01   5.00000000E-01   9.28163761E-02   1.10815145E-01   3.27569989E-11   1.31200788E-12   1.31814577E-12   4.10978660E-41   4.99980154E-02   4.99992078E-02   4.72890826E-02   7.67374966E-02   4.05712831E-02   5.12565172E-04   4.46438719E-03   1.65304861E-07   7.12758195E-02   6.57719634E-02   1.54774736E-07   9.99999919E-04   1.06221127E-03   5.65592018E-11   6.58708442E-11   1.00012469E-10
   1.52250000E+03   5.00000000E-01   5.00000000E-01   9.28166689E-02   1.10775975E-01   3.27595236E-11   1.07137212E-12   1.08361028E-12   4.67956632E-51   4.99980154E-02   4.99991617E-02   4.84937494E-02   7.64420462E-02   3.91751938E-02   7.09291209E-04   3.53146331E-03   1.64031643E-07   7.23072625E-02   6.57719634E-02   3.20054744E-07   9.99999918E-04   1.06006616E-03   5.65592018E-11   6.58707851E-11   1.00010235E-10
   1.55750000E+03   5.00000000E-01   5.00000000E-01   9.28169748E-02   1.10746502E-01   3.27626772E-11   8.87916288E-13   9.02748163E-13   1.69404645E-57   4.99980156E-02   4.99991204E-02   4.96872712E-02   7.61571628E-02   3.77940749E-02   9.57533537E-04   2.51595585E-03   1.62095576E-07   7.33061493E-02   6.57719634E-02   6.97931909E-07   9.99999919E-04   1.05733823E-03   5.65592018E-11   6.58707361E-11   1.00008282E-10
   1.59250000E+03   5.00000000E-01   5.00000000E-01   9.28172918E-02   1.10720423E-01   3.27666265E-11   7.46261639E-13   7.61719715E-13   5.24672884E-61   4.99980159E-02   4.99990833E-02   5.08694255E-02   7.59008407E-02   3.64463737E-02   1.21111013E-03   1.46207289E-03   1.58756679E-07   7.42741640E-02   6.57719634E-02   1.60959953E-06   9.99999923E-04   1.05426600E-03   5.65592018E-11   6.58706951E-11   1.00006598E-10
   1.62750000E+03   5.00000000E-01   5.00000000E-01   9.28176173E-02   1.10678614E-01   3.27715800E-11   6.35817886E-13   6.50847480E-13   2.47359225E-63   4.99980164E-02   4.99990469E-02   5.20468791E-02   7.56571966E-02   3.51953956E-02   1.32514664E-03   5.51414432E-04   1.53109067E-07   7.52147947E-02   6.57719634E-02   3.93669052E-06   9.99999928E-04   1.05108361E-03   5.65592018E-11   6.58706608E-11   1.00005055E-10
   1.66250000E+03   5.00000000E-01   5.00000000E-01   9.28179496E-02   1.10602806E-01   3.27778022E-11   5.49383489E-13   5.63474737E-13   7.29878769E-66   4.99980168E-02   4.99990059E-02   5.32256620E-02   7.53600472E-02   3.40971123E-02   1.12912471E-03   5.31902170E-05   1.44134877E-07   7.61279667E-02   6.57719635E-02   1.02361138E-05   9.99999935E-04   1.04794465E-03   5.65592018E-11   6.58706323E-11   1.00003421E-10
   1.69750000E+03   5.00000000E-01   5.00000000E-01   9.28182887E-02   1.10478556E-01   3.27856226E-11   4.82070191E-13   4.95038841E-13   1.91231916E-69   4.99980172E-02   4.99989567E-02   5.44363384E-02   7.49447099E-02   3.31454000E-02   6.06682794E-04   6.48054827E-07   1.32114283E-07   7.70203909E-02   6.57719635E-02   2.83425192E-05   9.99999942E-04   1.04519605E-03   5.65592018E-11   6.58706083E-11   1.00001542E-10
   1.73250000E+03   5.00000000E-01   5.00000000E-01   9.28186393E-02   1.10333727E-01   3.27954773E-11   4.30228021E-13   4.42080724E-13   5.05106198E-72   4.99980178E-02   4.99989064E-02   5.56884754E-02   7.41359593E-02   3.21837205E-02   2.15409423E-04   7.43246644E-10   1.14687780E-07   7.79058742E-02   6.57719636E-02   8.35425121E-05   9.99999949E-04   1.04260966E-03   5.65592018E-11   6.58705871E-11   9.99996942E-11
   1.76750000E+03   5.00000000E-01   5.00000000E-01   9.28190043E-02   1.10205880E-01   3.28078649E-11   3.90446275E-13   4.01278914E-13   3.59024399E-73   4.99980186E-02   4.99988605E-02   5.70430388E-02   7.28587965E-02   3.11135781E-02   1.19567376E-05   2.71005000E-13   9.26459076E-08   7.89427139E-02   6.57719636E-02   2.60408319E-04   9.99999955E-04   1.04017294E-03   5.65592018E-11   6.58705700E-11   9.99980491E-11
   1.80250000E+03   5.00000000E-01   5.00000000E-01   9.28193831E-02   1.10096073E-01   3.28233860E-11   3.59355810E-13   3.69277715E-13   2.92464842E-73   4.99980195E-02   4.99988221E-02   5.84229489E-02   7.11841392E-02   3.00163569E-02   2.71162847E-08   1.77277115E-16   6.96571679E-08   8.00533997E-02   6.57719637E-02   8.38021416E-04   9.99999961E-04   1.03689564E-03   5.65592018E-11   6.58705565E-11   9.99967507E-11
   1.83750000E+03   5.00000000E-01   5.00000000E-01   9.28197706E-02   1.10019437E-01   3.28427496E-11   3.33986353E-13   3.43076586E-13   1.12490350E-73   4.99980204E-02   4.99987910E-02   5.96730966E-02   6.96061713E-02   2.90659283E-02   7.40177240E-09   1.01464135E-17   6.30531649E-08   8.11129835E-02   6.57719638E-02   2.58290224E-03   9.99999966E-04   1.03263659E-03   5.65592018E-11   6.58705478E-11   9.99957119E-11
   1.87250000E+03   5.00000000E-01   5.00000000E-01   9.28201580E-02   1.10003995E-01   3.28668379E-11   3.12118791E-13   3.20412444E-13   4.15689861E-75   4.99980210E-02   4.99987678E-02   6.07079949E-02   6.82549654E-02   2.83281693E-02   6.68501313E-09   4.16760176E-18   6.10475092E-08   8.20051010E-02   6.57719640E-02   6.53314350E-03   9.99999971E-04   1.02776042E-03   5.65592018E-11   6.58705435E-11   9.99948635E-11
   1.90750000E+03   5.00000000E-01   5.00000000E-01   9.28205432E-02   1.10002266E-01   3.28968089E-11   2.92463161E-13   2.99965344E-13   5.00488155E-76   4.99980217E-02   4.99987505E-02   6.13971831E-02   6.72730367E-02   2.79259202E-02   6.29603138E-09   2.60426342E-18   5.95653624E-08   8.24913347E-02   6.57719641E-02   1.19709240E-02   9.99999974E-04   1.02261412E-03   5.65592018E-11   6.58705406E-11   9.99942452E-11
   1.94250000E+03   5.00000000E-01   5.00000000E-01   9.28209231E-02   1.10002326E-01   3.29340560E-11   2.74431344E-13   2.81134647E-13   2.35642860E-76   4.99980225E-02   4.99987372E-02   6.18448550E-02   6.66228600E-02   2.76789022E-02   5.96714464E-09   1.88661998E-18   5.83665504E-08   8.27822330E-02   6.57719643E-02   1.63813311E-02   9.99999977E-04   1.01801663E-03   5.65592018E-11   6.58705382E-11   9.99937940E-11
   1.97750000E+03   5.00000000E-01   5.00000000E-01   9.28212940E-02   1.10003471E-01   3.29802701E-11   2.57903742E-13   2.63806382E-13   2.50375863E-76   4.99980234E-02   4.99987268E-02   6.21656103E-02   6.61709058E-02   2.74875616E-02   5.67543737E-09   1.46642308E-18   5.74254620E-08   8.30036690E-02   6.57719646E-02   1.86171722E-02   9.99999979E-04   1.01414109E-03   5.65592018E-11   6.58705363E-11   9.99934445E-11
   2.01250000E+03   5.00000000E-01   5.00000000E-01   9.28216539E-02   1.10005252E-01   3.30375070E-11   2.42999848E-13   2.48119115E-13   4.30142719E-76   4.99980244E-02   4.99987181E-02   6.24131804E-02   6.58356394E-02   2.73255975E-02   5.40156113E-09   1.18787950E-18   5.67272057E-08   8.31882687E-02   6.57719649E-02   1.91514144E-02   9.99999981E-04   1.01088269E-03   5.65592018E-11   6.58705347E-11   9.99931575E-11
   2.04750000E+03   5.00000000E-01   5.00000000E-01   9.28220027E-02   1.10007367E-01   3.31082586E-11   2.29892445E-13   2.34270401E-13   9.60498864E-76   4.99980254E-02   4.99987106E-02   6.26133540E-02   6.55752687E-02   2.71832931E-02   5.12775661E-09   9.86356461E-19   5.62578595E-08   8.33477260E-02   6.57719653E-02   1.87459024E-02   9.99999982E-04   1.00812102E-03   5.65592018E-11   6.58705332E-11   9.99929095E-11
   2.08250000E+03   5.00000000E-01   5.00000000E-01   9.28223422E-02   1.10009701E-01   3.31955406E-11   2.18689028E-13   2.22390735E-13   2.42847280E-75   4.99980265E-02   4.99987040E-02   6.27806306E-02   6.53663640E-02   2.70551280E-02   4.84407489E-09   8.28928218E-19   5.59977207E-08   8.34886248E-02   6.57719659E-02   1.79140396E-02   9.99999983E-04   1.00576037E-03   5.65592018E-11   6.58705320E-11   9.99926863E-11
   2.11750000E+03   5.00000000E-01   5.00000000E-01   9.28226761E-02   1.10012269E-01   3.33029976E-11   2.09380190E-13   2.12486800E-13   6.42442049E-75   4.99980276E-02   4.99986979E-02   6.29242489E-02   6.51941388E-02   2.69374339E-02   4.55229755E-09   6.96730179E-19   5.59072251E-08   8.36152589E-02   6.57719666E-02   1.69248011E-02   9.99999984E-04   1.00372788E-03   5.65592018E-11   6.58705308E-11   9.99924790E-11
   2.15250000E+03   5.00000000E-01   5.00000000E-01   9.28230094E-02   1.10015187E-01   3.34350302E-11   2.01839712E-13   2.04439390E-13   1.70916499E-74   4.99980288E-02   4.99986922E-02   6.30506662E-02   6.50481653E-02   2.68277421E-02   4.26829901E-09   5.78198756E-19   5.59098753E-08   8.37303891E-02   6.57719674E-02   1.59026195E-02   9.99999985E-04   1.00196766E-03   5.65592018E-11   6.58705298E-11   9.99922822E-11
   2.18750000E+03   5.00000000E-01   5.00000000E-01   9.28233482E-02   1.10018598E-01   3.35969492E-11   1.95857476E-13   1.98036968E-13   4.50180898E-74   4.99980300E-02   4.99986868E-02   6.31647603E-02   6.49204035E-02   2.67243576E-02   4.01791119E-09   4.67661246E-19   5.58914464E-08   8.38358956E-02   6.57719685E-02   1.49009316E-02   9.99999985E-04   1.00043615E-03   5.65592018E-11   6.58705288E-11   9.99920933E-11
   2.22250000E+03   5.00000000E-01   5.00000000E-01   9.28236988E-02   1.10022485E-01   3.37951621E-11   1.91184037E-13   1.93022643E-13   1.16791699E-73   4.99980313E-02   4.99986817E-02   6.32701209E-02   6.48048678E-02   2.66261075E-02   3.81800944E-09   3.66119553E-19   5.57449735E-08   8.39333853E-02   6.57719699E-02   1.39416433E-02   9.99999985E-04   9.99098582E-04   5.65592018E-11   6.58705279E-11   9.99919110E-11
   2.25750000E+03   5.00000000E-01   5.00000000E-01   9.28240677E-02   1.10026544E-01   3.40374021E-11   1.87568784E-13   1.89135107E-13   2.98800600E-73   4.99980326E-02   4.99986767E-02   6.33685559E-02   6.46982986E-02   2.65326743E-02   3.65614362E-09   2.78695125E-19   5.54385032E-08   8.40238783E-02   6.57719716E-02   1.30308859E-02   9.99999984E-04   9.97926338E-04   5.65592018E-11   6.58705271E-11   9.99917352E-11
   2.29250000E+03   5.00000000E-01   5.00000000E-01   9.28244615E-02   1.10030370E-01   3.43330080E-11   1.84785828E-13   1.86136941E-13   7.61761558E-73   4.99980339E-02   4.99986720E-02   6.34602388E-02   6.45998783E-02   2.64445872E-02   3.50070869E-09   2.08679453E-19   5.50168914E-08   8.41074092E-02   6.57719737E-02   1.21680969E-02   9.99999983E-04   9.96895434E-04   5.65592018E-11   6.58705263E-11   9.99915659E-11
   2.32750000E+03   5.00000000E-01   5.00000000E-01   9.28248866E-02   1.10033723E-01   3.46932684E-11   1.82645122E-13   1.83827208E-13   1.96444968E-72   4.99980353E-02   4.99986673E-02   6.35449895E-02   6.45096623E-02   2.63621864E-02   3.32784975E-09   1.55228325E-19   5.45402629E-08   8.41839144E-02   6.57719764E-02   1.13542704E-02   9.99999981E-04   9.95986061E-04   5.65592018E-11   6.58705256E-11   9.99914033E-11
   2.36250000E+03   5.00000000E-01   5.00000000E-01   9.28253498E-02   1.10036527E-01   3.51318468E-11   1.80994524E-13   1.82044315E-13   5.19130457E-72   4.99980368E-02   4.99986628E-02   6.36230291E-02   6.44275314E-02   2.62851456E-02   3.12914613E-09   1.15289269E-19   5.40459467E-08   8.42538614E-02   6.57719797E-02   1.05910837E-02   9.99999979E-04   9.95181977E-04   5.65592018E-11   6.58705249E-11   9.99912473E-11
   2.39750000E+03   5.00000000E-01   5.00000000E-01   9.28258580E-02   1.10038736E-01   3.56653077E-11   1.79715854E-13   1.80662261E-13   1.41936570E-71   4.99980383E-02   4.99986583E-02   6.36949637E-02   6.43529825E-02   2.62127298E-02   2.90414617E-09   8.56160002E-20   5.35492622E-08   8.43181145E-02   6.57719837E-02   9.87340314E-03   9.99999976E-04   9.94469709E-04   5.65592018E-11   6.58705242E-11   9.99910977E-11