 TITLE = "Mineral Volumes" 
VARIABLES = "X"          "Y"              "Z"            "Forsterite"     "Fayalite"       "Brucite"        "Lizardite"      "Chrysotile"     "Hematite"       "Magnetite(am)"  "Saponite(Ca)"   "Saponite(K)"    "Saponite(Mg)"   "Saponite(Na)"   "Beidellite(Ca)" "Beidellite(K)"  "Beidellite(Mg)" "Beidellite(Na)" "Enstatite(alph" "Ferrosilite(al" "Anorthite"      "Albite(low)"    "Clinochlore"    "Sudoite"        "Montmor(MgCa)"  "Montmor(MgK)"   "Montmor(MgMg)"  "Montmor(MgNa)"  "Kaolinite"      "Tremolite"      "Pargasite"      "Anhydrite"      "Epidote"        "Scolecite"      "Pyrite"         "FeS(am)"        "Quartz(alpha)" 
 ZONE I=         200 , J=           1 , K=           1  F=POINT
   8.75000000E+00   5.00000000E-01   5.00000000E-01   1.07888674E-01   1.09192857E-01   0.00000000E+00   0.00000000E+00   0.00000000E+00   1.78461987E-04   0.00000000E+00   1.00717688E-10   1.42562085E-04   1.37903746E-10   2.13837917E-05   9.81997915E-11   9.98156395E-11   9.82128653E-11   9.81949058E-11   4.99977399E-02   4.99980212E-02   6.55579575E-02   6.89318433E-02   1.85069647E-02   2.43295924E-10   9.96021842E-11   9.95954143E-11   9.96051268E-11   9.96012736E-11   9.98764739E-04   6.53271166E-02   6.51693938E-02   0.00000000E+00   8.36250975E-03   8.65342143E-11   9.36774893E-11   9.53362533E-11   1.00093981E-10
   2.62500000E+01   5.00000000E-01   5.00000000E-01   1.07888674E-01   1.09196938E-01   0.00000000E+00   0.00000000E+00   0.00000000E+00   1.78461986E-04   0.00000000E+00   1.00895479E-10   1.05139772E-03   1.48657621E-10   1.48816806E-04   9.81998022E-11   9.98156543E-11   9.82129141E-11   9.81950344E-11   4.99977375E-02   4.99981105E-02   6.55579575E-02   6.90467231E-02   1.81276568E-02   1.93308859E-10   9.96024901E-11   9.96026571E-11   9.96064134E-11   9.96064534E-11   9.98764797E-04   6.53594538E-02   6.51693938E-02   0.00000000E+00   8.36250975E-03   8.65342431E-11   9.36774893E-11   9.53363201E-11   1.00148738E-10
   4.37500000E+01   5.00000000E-01   5.00000000E-01   1.07888673E-01   1.09200241E-01   0.00000000E+00   0.00000000E+00   0.00000000E+00   1.78461986E-04   0.00000000E+00   1.00964854E-10   1.30688223E-03   1.52911570E-10   2.07624981E-04   9.81999899E-11   9.98159013E-11   9.82137648E-11   9.81972201E-11   4.99977360E-02   4.99981756E-02   6.55579575E-02   6.94200140E-02   1.76557601E-02   1.29765895E-10   9.96051333E-11   9.96619881E-11   9.96175159E-11   9.96499038E-11   9.98765317E-04   6.53746074E-02   6.51693938E-02   0.00000000E+00   8.36250975E-03   8.65344495E-11   9.36774893E-11   9.53363476E-11   1.00193880E-10
   6.12500000E+01   5.00000000E-01   5.00000000E-01   1.07888673E-01   1.09203827E-01   0.00000000E+00   0.00000000E+00   0.00000000E+00   1.78461986E-04   0.00000000E+00   1.01032575E-10   1.60100639E-03   1.57303829E-10   2.90813169E-04   9.82005956E-11   9.98166534E-11   9.82165071E-11   9.82040560E-11   4.99977356E-02   4.99982421E-02   6.55579575E-02   6.99584009E-02   1.69938697E-02   7.40000877E-11   9.96115340E-11   9.97966052E-11   9.96443726E-11   9.97514227E-11   9.98766382E-04   6.53866910E-02   6.51693938E-02   0.00000000E+00   8.36250975E-03   8.65348547E-11   9.36774893E-11   9.53363691E-11   1.00229204E-10
   7.87500000E+01   5.00000000E-01   5.00000000E-01   1.07888673E-01   1.09208063E-01   0.00000000E+00   0.00000000E+00   0.00000000E+00   1.78461986E-04   0.00000000E+00   1.01121171E-10   1.96817430E-03   1.63099183E-10   4.11488862E-04   9.82016027E-11   9.98178223E-11   9.82210579E-11   9.82150121E-11   4.99977356E-02   4.99983108E-02   6.55579575E-02   7.05089546E-02   1.62918561E-02   4.23824202E-11   9.96205631E-11   9.99725789E-11   9.96822147E-11   9.98888035E-11   9.98767692E-04   6.54069979E-02   6.51693938E-02   0.00000000E+00   8.36250975E-03   8.65353507E-11   9.36774893E-11   9.53363876E-11   1.00254901E-10
   9.62500000E+01   5.00000000E-01   5.00000000E-01   1.07888673E-01   1.09213068E-01   0.00000000E+00   0.00000000E+00   0.00000000E+00   1.78461986E-04   0.00000000E+00   1.01223055E-10   2.27982345E-03   1.69886874E-10   5.51847299E-04   9.82028472E-11   9.98191613E-11   9.82266714E-11   9.82280087E-11   4.99977358E-02   4.99983808E-02   6.55579575E-02   7.09842013E-02   1.56782124E-02   2.81439821E-11   9.96304473E-11   1.00148822E-10   9.97235912E-11   1.00032151E-10   9.98769019E-04   6.54324893E-02   6.51693938E-02   0.00000000E+00   8.36250975E-03   8.65358525E-11   9.36774893E-11   9.53364034E-11   1.00272584E-10
   1.13750000E+02   5.00000000E-01   5.00000000E-01   1.07888673E-01   1.09218855E-01   0.00000000E+00   0.00000000E+00   0.00000000E+00   1.78461985E-04   0.00000000E+00   1.01328037E-10   2.47314243E-03   1.77060609E-10   6.94904768E-04   9.82040984E-11   9.98203886E-11   9.82323025E-11   9.82404471E-11   4.99977362E-02   4.99984518E-02   6.55579575E-02   7.13448681E-02   1.52141073E-02   2.18581018E-11   9.96395875E-11   1.00294498E-10   9.97618009E-11   1.00157069E-10   9.98770159E-04   6.54600353E-02   6.51693938E-02   0.00000000E+00   8.36250975E-03   8.65362923E-11   9.36774893E-11   9.53364170E-11   1.00284359E-10
   1.31250000E+02   5.00000000E-01   5.00000000E-01   1.07888673E-01   1.09225456E-01   0.00000000E+00   0.00000000E+00   0.00000000E+00   1.78461985E-04   0.00000000E+00   1.01431891E-10   2.54645218E-03   1.84357338E-10   8.31075714E-04   9.82051708E-11   9.98213171E-11   9.82371156E-11   9.82504396E-11   4.99977368E-02   4.99985241E-02   6.55579575E-02   7.15890616E-02   1.49043277E-02   1.89465599E-11   9.96470651E-11   1.00396427E-10   9.97930055E-11   1.00251432E-10   9.98770992E-04   6.54877711E-02   6.51693938E-02   0.00000000E+00   8.36250976E-03   8.65366328E-11   9.36774893E-11   9.53364285E-11   1.00292120E-10
   1.48750000E+02   5.00000000E-01   5.00000000E-01   1.07888673E-01   1.09232935E-01   0.00000000E+00   0.00000000E+00   0.00000000E+00   1.78461985E-04   0.00000000E+00   1.01534506E-10   2.52336598E-03   1.91778220E-10   9.56340386E-04   9.82059801E-11   9.98218948E-11   9.82407350E-11   9.82572979E-11   4.99977374E-02   4.99985984E-02   6.55579575E-02   7.17353930E-02   1.47243892E-02   1.75345028E-11   9.96526629E-11   1.00456027E-10   9.98163091E-11   1.00314281E-10   9.98771496E-04   6.55147363E-02   6.51693938E-02   0.00000000E+00   8.36250976E-03   8.65368675E-11   9.36774893E-11   9.53364382E-11   1.00297313E-10
   1.66250000E+02   5.00000000E-01   5.00000000E-01   1.07888673E-01   1.09241338E-01   0.00000000E+00   0.00000000E+00   0.00000000E+00   1.78461985E-04   0.00000000E+00   1.01636531E-10   2.43582798E-03   1.99374515E-10   1.07040069E-03   9.82065389E-11   9.98221740E-11   9.82432199E-11   9.82613523E-11   4.99977381E-02   4.99986746E-02   6.55579575E-02   7.18101553E-02   1.46387172E-02   1.68267771E-11   9.96566546E-11   1.00482893E-10   9.98328718E-11   1.00351610E-10   9.98771726E-04   6.55403951E-02   6.51693938E-02   0.00000000E+00   8.36250976E-03   8.65370133E-11   9.36774893E-11   9.53364460E-11   1.00300899E-10
   1.83750000E+02   5.00000000E-01   5.00000000E-01   1.07888673E-01   1.09250639E-01   0.00000000E+00   0.00000000E+00   0.00000000E+00   1.78461985E-04   0.00000000E+00   1.01737702E-10   2.31341582E-03   2.07122064E-10   1.17515732E-03   9.82069156E-11   9.98222530E-11   9.82448827E-11   9.82634510E-11   4.99977388E-02   4.99987522E-02   6.55579575E-02   7.18390312E-02   1.46124208E-02   1.64643899E-11   9.96595387E-11   1.00488825E-10   9.98447892E-11   1.00371933E-10   9.98771774E-04   6.55644162E-02   6.51693938E-02   0.00000000E+00   8.36250976E-03   8.65370981E-11   9.36774893E-11   9.53364517E-11   1.00303448E-10
   2.01250000E+02   5.00000000E-01   5.00000000E-01   1.07888674E-01   1.09260812E-01   0.00000000E+00   0.00000000E+00   0.00000000E+00   1.78461984E-04   0.00000000E+00   1.01838576E-10   2.17137748E-03   2.15050275E-10   1.27074699E-03   9.82071603E-11   9.98221998E-11   9.82459495E-11   9.82641921E-11   4.99977397E-02   4.99988308E-02   6.55579575E-02   7.18384765E-02   1.46243236E-02   1.62749945E-11   9.96616611E-11   1.00481578E-10   9.98535146E-11   1.00380992E-10   9.98771700E-04   6.55870099E-02   6.51693938E-02   0.00000000E+00   8.36250976E-03   8.65371404E-11   9.36774893E-11   9.53364554E-11   1.00305309E-10
   2.18750000E+02   5.00000000E-01   5.00000000E-01   1.07888674E-01   1.09271847E-01   0.00000000E+00   0.00000000E+00   0.00000000E+00   1.78461984E-04   0.00000000E+00   1.01940307E-10   2.01767848E-03   2.23233874E-10   1.35607913E-03   9.82072969E-11   9.98220506E-11   9.82465303E-11   9.82638873E-11   4.99977406E-02   4.99989101E-02   6.55579575E-02   7.18178110E-02   1.46628865E-02   1.61731019E-11   9.96632019E-11   1.00465383E-10   9.98598059E-11   1.00381891E-10   9.98771534E-04   6.56089012E-02   6.51693938E-02   0.00000000E+00   8.36250976E-03   8.65371495E-11   9.36774893E-11   9.53364571E-11   1.00306716E-10
   2.36250000E+02   5.00000000E-01   5.00000000E-01   1.07888674E-01   1.09283621E-01   0.00000000E+00   0.00000000E+00   0.00000000E+00   1.78461984E-04   0.00000000E+00   1.02041978E-10   1.86173205E-03   2.31583505E-10   1.43252246E-03   9.82073616E-11   9.98218465E-11   9.82467880E-11   9.82629297E-11   4.99977415E-02   4.99989894E-02   6.55579575E-02   7.17856213E-02   1.47163799E-02   1.61162084E-11   9.96643790E-11   1.00444372E-10   9.98645759E-11   1.00377930E-10   9.98771315E-04   6.56307822E-02   6.51693938E-02   0.00000000E+00   8.36250977E-03   8.65371372E-11   9.36774893E-11   9.53364571E-11   1.00307787E-10
   2.53750000E+02   5.00000000E-01   5.00000000E-01   1.07888674E-01   1.09296013E-01   0.00000000E+00   0.00000000E+00   0.00000000E+00   1.78461984E-04   0.00000000E+00   1.02142473E-10   1.70637160E-03   2.39991786E-10   1.49890921E-03   9.82073654E-11   9.98216033E-11   9.82467731E-11   9.82614606E-11   4.99977425E-02   4.99990681E-02   6.55579575E-02   7.17458659E-02   1.47802123E-02   1.60823990E-11   9.96652698E-11   1.00420213E-10   9.98681498E-11   1.00370399E-10   9.98771056E-04   6.56532791E-02   6.51693938E-02   0.00000000E+00   8.36250977E-03   8.65371078E-11   9.36774893E-11   9.53364553E-11   1.00308603E-10
   2.71250000E+02   5.00000000E-01   5.00000000E-01   1.07888674E-01   1.09308891E-01   0.00000000E+00   0.00000000E+00   0.00000000E+00   1.78461984E-04   0.00000000E+00   1.02240268E-10   1.55430213E-03   2.48320424E-10   1.55464672E-03   9.82073156E-11   9.98213315E-11   9.82465189E-11   9.82595766E-11   4.99977436E-02   4.99991458E-02   6.55579575E-02   7.17009196E-02   1.48513552E-02   1.60605303E-11   9.96659175E-11   1.00393905E-10   9.98707097E-11   1.00360070E-10   9.98770768E-04   6.56766460E-02   6.51693938E-02   0.00000000E+00   8.36250977E-03   8.65370640E-11   9.36774893E-11   9.53364520E-11   1.00309218E-10
   2.88750000E+02   5.00000000E-01   5.00000000E-01   1.07888674E-01   1.09322131E-01   0.00000000E+00   0.00000000E+00   0.00000000E+00   1.78461984E-04   0.00000000E+00   1.02333719E-10   1.40809389E-03   2.56425189E-10   1.59988600E-03   9.82072219E-11   9.98210423E-11   9.82460692E-11   9.82573872E-11   4.99977447E-02   4.99992222E-02   6.55579575E-02   7.16525384E-02   1.49272828E-02   1.60450176E-11   9.96663660E-11   1.00366315E-10   9.98724398E-11   1.00347655E-10   9.98770462E-04   6.57006362E-02   6.51693938E-02   0.00000000E+00   8.36250977E-03   8.65370089E-11   9.36774893E-11   9.53364475E-11   1.00309664E-10
   3.06250000E+02   5.00000000E-01   5.00000000E-01   1.07888674E-01   1.09335640E-01   0.00000000E+00   0.00000000E+00   0.00000000E+00   1.78461983E-04   0.00000000E+00   1.02421599E-10   1.26987014E-03   2.64200171E-10   1.63535852E-03   9.82070964E-11   9.98207470E-11   9.82454786E-11   9.82550133E-11   4.99977458E-02   4.99992971E-02   6.55579575E-02   7.16020706E-02   1.50058665E-02   1.60330947E-11   9.96666640E-11   1.00338242E-10   9.98735436E-11   1.00333860E-10   9.98770148E-04   6.57246080E-02   6.51693938E-02   0.00000000E+00   8.36250977E-03   8.65369460E-11   9.36774893E-11   9.53364417E-11   1.00309958E-10
   3.23750000E+02   5.00000000E-01   5.00000000E-01   1.07888674E-01   1.09349369E-01   0.00000000E+00   0.00000000E+00   0.00000000E+00   1.78461983E-04   0.00000000E+00   1.02503398E-10   1.14114220E-03   2.71603333E-10   1.66214774E-03   9.82069520E-11   9.98204557E-11   9.82448052E-11   9.82525726E-11   4.99977470E-02   4.99993704E-02   6.55579575E-02   7.15505461E-02   1.50853778E-02   1.60234126E-11   9.96668617E-11   1.00310386E-10   9.98742317E-11   1.00319353E-10   9.98769839E-04   6.57477794E-02   6.51693938E-02   0.00000000E+00   8.36250977E-03   8.65368788E-11   9.36774893E-11   9.53364350E-11   1.00310109E-10
   3.41250000E+02   5.00000000E-01   5.00000000E-01   1.07888674E-01   1.09363311E-01   0.00000000E+00   0.00000000E+00   0.00000000E+00   1.78461983E-04   0.00000000E+00   1.02579331E-10   1.02275768E-03   2.78656707E-10   1.68144233E-03   9.82068007E-11   9.98201766E-11   9.82441024E-11   9.82501651E-11   4.99977482E-02   4.99994421E-02   6.55579575E-02   7.14987360E-02   1.51644987E-02   1.60152968E-11   9.96670065E-11   1.00283306E-10   9.98747009E-11   1.00304706E-10   9.98769541E-04   6.57694613E-02   6.51693938E-02   0.00000000E+00   8.36250978E-03   8.65368106E-11   9.36774893E-11   9.53364275E-11   1.00310118E-10
   3.58750000E+02   5.00000000E-01   5.00000000E-01   1.07888674E-01   1.09377487E-01   0.00000000E+00   0.00000000E+00   0.00000000E+00   1.78461983E-04   0.00000000E+00   1.02650174E-10   9.14876404E-04   2.85431822E-10   1.69417638E-03   9.82066512E-11   9.98199145E-11   9.82434090E-11   9.82478577E-11   4.99977495E-02   4.99995124E-02   6.55579575E-02   7.14471189E-02   1.52424532E-02   1.60083732E-11   9.96671336E-11   1.00257352E-10   9.98750979E-11   1.00290315E-10   9.98769260E-04   6.57892047E-02   6.51693938E-02   0.00000000E+00   8.36250978E-03   8.65367437E-11   9.36774893E-11   9.53364193E-11   1.00309984E-10
   3.76250000E+02   5.00000000E-01   5.00000000E-01   1.07888674E-01   1.09391927E-01   0.00000000E+00   0.00000000E+00   0.00000000E+00   1.78461983E-04   0.00000000E+00   1.02717005E-10   8.17223189E-04   2.92027315E-10   1.70108708E-03   9.82065090E-11   9.98196716E-11   9.82427497E-11   9.82456881E-11   4.99977508E-02   4.99995812E-02   6.55579575E-02   7.13959822E-02   1.53188227E-02   1.60024075E-11   9.96672670E-11   1.00232705E-10   9.98755225E-11   1.00276425E-10   9.98768999E-04   6.58068153E-02   6.51693938E-02   0.00000000E+00   8.36250978E-03   8.65366797E-11   9.36774893E-11   9.53364105E-11   1.00309706E-10
   3.93750000E+02   5.00000000E-01   5.00000000E-01   1.07888675E-01   1.09406664E-01   0.00000000E+00   0.00000000E+00   0.00000000E+00   1.78461982E-04   0.00000000E+00   1.02781015E-10   7.29200318E-04   2.98551850E-10   1.70260754E-03   9.82063766E-11   9.98194480E-11   9.82421349E-11   9.82436671E-11   4.99977522E-02   4.99996487E-02   6.55579575E-02   7.13454430E-02   1.53935236E-02   1.59972261E-11   9.96674183E-11   1.00209395E-10   9.98760223E-11   1.00263132E-10   9.98768758E-04   6.58223199E-02   6.51693938E-02   0.00000000E+00   8.36250978E-03   8.65366194E-11   9.36774893E-11   9.53364013E-11   1.00309285E-10
   4.11250000E+02   5.00000000E-01   5.00000000E-01   1.07888675E-01   1.09421713E-01   0.00000000E+00   0.00000000E+00   0.00000000E+00   1.78461982E-04   0.00000000E+00   1.02843362E-10   6.50058285E-04   3.05110816E-10   1.69896472E-03   9.82062538E-11   9.98192420E-11   9.82415643E-11   9.82417866E-11   4.99977536E-02   4.99997148E-02   6.55579575E-02   7.12955112E-02   1.54666737E-02   1.59926902E-11   9.96675891E-11   1.00187349E-10   9.98766031E-11   1.00250424E-10   9.98768535E-04   6.58359095E-02   6.51693938E-02   0.00000000E+00   8.36250978E-03   8.65365627E-11   9.36774893E-11   9.53363917E-11   1.00308723E-10
   4.28750000E+02   5.00000000E-01   5.00000000E-01   1.07888675E-01   1.09437074E-01   0.00000000E+00   0.00000000E+00   0.00000000E+00   1.78461982E-04   0.00000000E+00   1.02905078E-10   5.79009911E-04   3.11797405E-10   1.69028631E-03   9.82061392E-11   9.98190517E-11   9.82410308E-11   9.82400285E-11   4.99977551E-02   4.99997795E-02   6.55579575E-02   7.12461544E-02   1.55384696E-02   1.59886867E-11   9.96677746E-11   1.00166446E-10   9.98772456E-11   1.00238226E-10   9.98768329E-04   6.58478829E-02   6.51693938E-02   0.00000000E+00   8.36250979E-03   8.65365093E-11   9.36774893E-11   9.53363819E-11   1.00308022E-10
   4.46250000E+02   5.00000000E-01   5.00000000E-01   1.07888675E-01   1.09452724E-01   0.00000000E+00   0.00000000E+00   0.00000000E+00   1.78461982E-04   0.00000000E+00   1.02967016E-10   5.15266714E-04   3.18687001E-10   1.67658906E-03   9.82060302E-11   9.98188744E-11   9.82405231E-11   9.82383690E-11   4.99977566E-02   4.99998428E-02   6.55579575E-02   7.11973128E-02   1.56091645E-02   1.59851220E-11   9.96679656E-11   1.00146537E-10   9.98779103E-11   1.00226428E-10   9.98768137E-04   6.58586122E-02   6.51693938E-02   0.00000000E+00   8.36250979E-03   8.65364589E-11   9.36774893E-11   9.53363718E-11   1.00307189E-10
   4.63750000E+02   5.00000000E-01   5.00000000E-01   1.07888675E-01   1.09468617E-01   0.00000000E+00   0.00000000E+00   0.00000000E+00   1.78461981E-04   0.00000000E+00   1.03029815E-10   4.58083524E-04   3.25832915E-10   1.65784539E-03   9.82059237E-11   9.98187078E-11   9.82400275E-11   9.82367826E-11   4.99977582E-02   4.99999045E-02   6.55579575E-02   7.11489241E-02   1.56790144E-02   1.59819196E-11   9.96681500E-11   1.00127469E-10   9.98785473E-11   1.00214901E-10   9.98767957E-04   6.58685141E-02   6.51693938E-02   0.00000000E+00   8.36250979E-03   8.65364105E-11   9.36774893E-11   9.53363616E-11   1.00306229E-10
   4.81250000E+02   5.00000000E-01   5.00000000E-01   1.07888676E-01   1.09484684E-01   0.00000000E+00   0.00000000E+00   0.00000000E+00   1.78461981E-04   0.00000000E+00   1.03093864E-10   4.06780647E-04   3.33262979E-10   1.63403791E-03   9.82058167E-11   9.98185497E-11   9.82395305E-11   9.82352454E-11   4.99977598E-02   4.99999645E-02   6.55579575E-02   7.11009453E-02   1.57482367E-02   1.59790193E-11   9.96683154E-11   1.00109101E-10   9.98791050E-11   1.00203523E-10   9.98767786E-04   6.58780259E-02   6.51693938E-02   0.00000000E+00   8.36250979E-03   8.65363636E-11   9.36774893E-11   9.53363513E-11   1.00305148E-10
   4.98750000E+02   5.00000000E-01   5.00000000E-01   1.07888676E-01   1.09501081E-01   0.00000000E+00   0.00000000E+00   0.00000000E+00   1.78461981E-04   0.00000000E+00   1.03160446E-10   3.59682030E-04   3.41101326E-10   1.59916823E-03   9.82056843E-11   9.98183880E-11   9.82389219E-11   9.82335923E-11   4.99977616E-02   5.00000235E-02   6.55579575E-02   7.10514696E-02   1.58207436E-02   1.59762371E-11   9.96683250E-11   1.00090379E-10   9.98790157E-11   1.00191070E-10   9.98767613E-04   6.58875845E-02   6.51693938E-02   0.00000000E+00   8.36250980E-03   8.65363122E-11   9.36774893E-11   9.53363411E-11   1.00303975E-10
   5.16250000E+02   5.00000000E-01   5.00000000E-01   1.07888676E-01   1.09517572E-01   0.00000000E+00   0.00000000E+00   0.00000000E+00   1.78461980E-04   0.00000000E+00   1.03229025E-10   3.17828622E-04   3.49289815E-10   1.56056564E-03   9.82055418E-11   9.98182304E-11   9.82382701E-11   9.82319297E-11   4.99977633E-02   5.00000809E-02   6.55579575E-02   7.10020679E-02   1.58928046E-02   1.59736708E-11   9.96682652E-11   1.00072013E-10   9.98786396E-11   1.00178375E-10   9.98767444E-04   6.58977345E-02   6.51693938E-02   0.00000000E+00   8.36250980E-03   8.65362599E-11   9.36774893E-11   9.53363309E-11   1.00302709E-10
   5.33750000E+02   5.00000000E-01   5.00000000E-01   1.07888677E-01   1.09533973E-01   0.00000000E+00   0.00000000E+00   0.00000000E+00   1.78461980E-04   0.00000000E+00   1.03298832E-10   2.80511957E-04   3.57729977E-10   1.51792337E-03   9.82053937E-11   9.98180786E-11   9.82375945E-11   9.82302872E-11   4.99977652E-02   5.00001361E-02   6.55579575E-02   7.09533086E-02   1.59640695E-02   1.59713317E-11   9.96681636E-11   1.00054201E-10   9.98780903E-11   1.00165696E-10   9.98767282E-04   6.59087970E-02   6.51693938E-02   0.00000000E+00   8.36250980E-03   8.65362078E-11   9.36774893E-11   9.53363207E-11   1.00301351E-10
   5.51250000E+02   5.00000000E-01   5.00000000E-01   1.07888677E-01   1.09550153E-01   0.00000000E+00   0.00000000E+00   0.00000000E+00   1.78461980E-04   0.00000000E+00   1.03369099E-10   2.47146616E-04   3.66324094E-10   1.47088254E-03   9.82052398E-11   9.98179326E-11   9.82368950E-11   9.82286641E-11   4.99977671E-02   5.00001889E-02   6.55579575E-02   7.09052932E-02   1.60346642E-02   1.59692028E-11   9.96680201E-11   1.00036929E-10   9.98773679E-11   1.00153042E-10   9.98767127E-04   6.59209835E-02   6.51693938E-02   0.00000000E+00   8.36250980E-03   8.65361559E-11   9.36774893E-11   9.53363106E-11   1.00299907E-10
   5.68750000E+02   5.00000000E-01   5.00000000E-01   1.07888678E-01   1.09566010E-01   0.00000000E+00   0.00000000E+00   0.00000000E+00   1.78461980E-04   0.00000000E+00   1.03439006E-10   2.17324637E-04   3.74971412E-10   1.41969780E-03   9.82050805E-11   9.98177921E-11   9.82361728E-11   9.82270621E-11   4.99977691E-02   5.00002392E-02   6.55579575E-02   7.08580582E-02   1.61045874E-02   1.59672703E-11   9.96678339E-11   1.00020176E-10   9.98764697E-11   1.00140414E-10   9.98766977E-04   6.59343582E-02   6.51693938E-02   0.00000000E+00   8.36250981E-03   8.65361041E-11   9.36774893E-11   9.53363007E-11   1.00298378E-10
   5.86250000E+02   5.00000000E-01   5.00000000E-01   1.07888678E-01   1.09581476E-01   0.00000000E+00   0.00000000E+00   0.00000000E+00   1.78461979E-04   0.00000000E+00   1.03507742E-10   1.90717734E-04   3.83574897E-10   1.36490402E-03   9.82049173E-11   9.98176575E-11   9.82354350E-11   9.82254902E-11   4.99977711E-02   5.00002869E-02   6.55579575E-02   7.08116537E-02   1.61737348E-02   1.59655260E-11   9.96676092E-11   1.00003954E-10   9.98754129E-11   1.00127851E-10   9.98766834E-04   6.59488151E-02   6.51693938E-02   0.00000000E+00   8.36250981E-03   8.65360526E-11   9.36774893E-11   9.53362909E-11   1.00296771E-10
   6.03750000E+02   5.00000000E-01   5.00000000E-01   1.07888679E-01   1.09596516E-01   0.00000000E+00   0.00000000E+00   0.00000000E+00   1.78461979E-04   0.00000000E+00   1.03574609E-10   1.67042766E-04   3.92052498E-10   1.30719722E-03   9.82047529E-11   9.98175295E-11   9.82346933E-11   9.82239634E-11   4.99977731E-02   5.00003320E-02   6.55579575E-02   7.07661525E-02   1.62419268E-02   1.59639646E-11   9.96673553E-11   9.99883032E-11   9.98742363E-11   1.00115432E-10   9.98766698E-04   6.59640966E-02   6.51693938E-02   0.00000000E+00   8.36250981E-03   8.65360020E-11   9.36774893E-11   9.53362813E-11   1.00295088E-10
   6.21250000E+02   5.00000000E-01   5.00000000E-01   1.07888679E-01   1.09611128E-01   0.00000000E+00   0.00000000E+00   0.00000000E+00   1.78461978E-04   0.00000000E+00   1.03639101E-10   1.46043316E-04   4.00346083E-10   1.24735256E-03   9.82045908E-11   9.98174092E-11   9.82339628E-11   9.82224997E-11   4.99977753E-02   5.00003746E-02   6.55579575E-02   7.07216448E-02   1.63089393E-02   1.59625808E-11   9.96670857E-11   9.99732799E-11   9.98729958E-11   1.00103262E-10   9.98766569E-04   6.59798427E-02   6.51693938E-02   8.47037917E-29   8.36250982E-03   8.65359527E-11   9.36774893E-11   9.53362718E-11   1.00293333E-10
   6.38750000E+02   5.00000000E-01   5.00000000E-01   1.07888680E-01   1.09625332E-01   0.00000000E+00   0.00000000E+00   0.00000000E+00   1.78461978E-04   0.00000000E+00   1.03700946E-10   1.27478051E-04   4.08425000E-10   1.18614554E-03   9.82044345E-11   9.98172972E-11   9.82332596E-11   9.82211172E-11   4.99977774E-02   5.00004148E-02   6.55579575E-02   7.06782298E-02   1.63745350E-02   1.59613671E-11   9.96668167E-11   9.99589457E-11   9.98717581E-11   1.00091456E-10   9.98766449E-04   6.59956549E-02   6.51693938E-02   1.71153099E-28   8.36250982E-03   8.65359055E-11   9.36774893E-11   9.53362627E-11   1.00291511E-10
   6.56250000E+02   5.00000000E-01   5.00000000E-01   1.07888681E-01   1.09639159E-01   0.00000000E+00   0.00000000E+00   0.00000000E+00   1.78461978E-04   0.00000000E+00   1.03760092E-10   1.11114759E-04   4.16283936E-10   1.12428493E-03   9.82042875E-11   9.98171943E-11   9.82325984E-11   9.82198311E-11   4.99977797E-02   5.00004527E-02   6.55579575E-02   7.06360068E-02   1.64384908E-02   1.59603131E-11   9.96665650E-11   9.99453554E-11   9.98705927E-11   1.00080126E-10   9.98766338E-04   6.60111569E-02   6.51693938E-02   3.45999300E-28   8.36250983E-03   8.65358611E-11   9.36774893E-11   9.53362537E-11   1.00289624E-10
   6.73750000E+02   5.00000000E-01   5.00000000E-01   1.07888681E-01   1.09652638E-01   0.00000000E+00   0.00000000E+00   0.00000000E+00   1.78461977E-04   0.00000000E+00   1.03816664E-10   9.67295794E-05   4.23936523E-10   1.06237600E-03   9.82041527E-11   9.98171007E-11   9.82319920E-11   9.82186528E-11   4.99977820E-02   5.00004884E-02   6.55579575E-02   7.05950693E-02   1.65006130E-02   1.59594059E-11   9.96663470E-11   9.99325504E-11   9.98695660E-11   1.00069372E-10   9.98766237E-04   6.60260378E-02   6.51693938E-02   6.99814257E-28   8.36250983E-03   8.65358199E-11   9.36774893E-11   9.53362451E-11   1.00287676E-10
   6.91250000E+02   5.00000000E-01   5.00000000E-01   1.07888682E-01   1.09665783E-01   0.00000000E+00   0.00000000E+00   0.00000000E+00   1.78461977E-04   0.00000000E+00   1.03870907E-10   8.41080772E-05   4.31407175E-10   1.00089177E-03   9.82040323E-11   9.98170165E-11   9.82314495E-11   9.82175888E-11   4.99977843E-02   5.00005218E-02   6.55579575E-02   7.05554986E-02   1.65607517E-02   1.59586305E-11   9.96661768E-11   9.99205539E-11   9.98687367E-11   1.00059269E-10   9.98766146E-04   6.60400764E-02   6.51693938E-02   1.41617304E-27   8.36250983E-03   8.65357826E-11   9.36774893E-11   9.53362367E-11   1.00285671E-10
   7.08750000E+02   5.00000000E-01   5.00000000E-01   1.07888683E-01   1.09678588E-01   0.00000000E+00   0.00000000E+00   0.00000000E+00   1.78461976E-04   0.00000000E+00   1.03923114E-10   7.30494260E-05   4.38722623E-10   9.40195973E-04   9.82039276E-11   9.98169414E-11   9.82309772E-11   9.82166411E-11   4.99977867E-02   5.00005530E-02   6.55579575E-02   7.05173634E-02   1.66187936E-02   1.59579714E-11   9.96660668E-11   9.99093724E-11   9.98681541E-11   1.00049871E-10   9.98766064E-04   6.60531459E-02   6.51693938E-02   5.08428014E-13   8.36250984E-03   8.65357493E-11   9.36774893E-11   9.53362285E-11   1.00283611E-10
   7.26250000E+02   5.00000000E-01   5.00000000E-01   1.07888684E-01   1.09691020E-01   0.00000000E+00   0.00000000E+00   0.00000000E+00   1.78461975E-04   0.00000000E+00   1.03973571E-10   6.33688594E-05   4.45904349E-10   8.80561443E-04   9.82038395E-11   9.98168751E-11   9.82305783E-11   9.82158085E-11   4.99977892E-02   5.00005820E-02   6.55579575E-02   7.04807207E-02   1.66746564E-02   1.59574133E-11   9.96660266E-11   9.98989975E-11   9.98678583E-11   1.00041215E-10   9.98765991E-04   6.60652079E-02   6.51693938E-02   1.99591455E-12   8.36250984E-03   8.65357203E-11   9.36774893E-11   9.53362207E-11   1.00281500E-10
   7.43750000E+02   5.00000000E-01   5.00000000E-01   1.07888685E-01   1.09703017E-01   0.00000000E+00   0.00000000E+00   0.00000000E+00   1.78461975E-04   0.00000000E+00   1.04022511E-10   5.48990854E-05   4.52962390E-10   8.22190907E-04   9.82037684E-11   9.98168169E-11   9.82302542E-11   9.82150871E-11   4.99977917E-02   5.00006087E-02   6.55579575E-02   7.04456168E-02   1.67282821E-02   1.59569421E-11   9.96660643E-11   9.98894097E-11   9.98678812E-11   1.00033317E-10   9.98765927E-04   6.60762995E-02   6.51693938E-02   4.57807879E-12   8.36250985E-03   8.65356957E-11   9.36774893E-11   9.53362131E-11   1.00279341E-10
   7.61250000E+02   5.00000000E-01   5.00000000E-01   1.07888686E-01   1.09714494E-01   0.00000000E+00   0.00000000E+00   0.00000000E+00   1.78461974E-04   0.00000000E+00   1.04070072E-10   4.74907212E-05   4.59890593E-10   7.65238387E-04   9.82037142E-11   9.98167663E-11   9.82300046E-11   9.82144716E-11   4.99977943E-02   5.00006329E-02   6.55579576E-02   7.04120890E-02   1.67796301E-02   1.59565450E-11   9.96661863E-11   9.98805820E-11   9.98682483E-11   1.00026183E-10   9.98765871E-04   6.60865183E-02   6.51693938E-02   8.77479025E-12   8.36250986E-03   8.65356754E-11   9.36774893E-11   9.53362057E-11   1.00277138E-10
   7.78750000E+02   5.00000000E-01   5.00000000E-01   1.07888688E-01   1.09725343E-01   0.00000000E+00   0.00000000E+00   0.00000000E+00   1.78461973E-04   0.00000000E+00   1.04116273E-10   4.10119220E-05   4.66663342E-10   7.09829120E-04   9.82036767E-11   9.98167226E-11   9.82298286E-11   9.82139559E-11   4.99977969E-02   5.00006545E-02   6.55579576E-02   7.03801670E-02   1.68286705E-02   1.59562110E-11   9.96663976E-11   9.98724828E-11   9.98689802E-11   1.00019808E-10   9.98765822E-04   6.60960033E-02   6.51693938E-02   1.53081521E-11   8.36250986E-03   8.65356595E-11   9.36774893E-11   9.53361987E-11   1.00274892E-10
   7.96250000E+02   5.00000000E-01   5.00000000E-01   1.07888689E-01   1.09735439E-01   0.00000000E+00   0.00000000E+00   0.00000000E+00   1.78461973E-04   0.00000000E+00   1.04160993E-10   3.53474539E-05   4.73233884E-10   6.56077463E-04   9.82036557E-11   9.98166852E-11   9.82297247E-11   9.82135340E-11   4.99977996E-02   5.00006733E-02   6.55579576E-02   7.03498738E-02   1.68753790E-02   1.59559308E-11   9.96667029E-11   9.98650784E-11   9.98700945E-11   1.00014186E-10   9.98765779E-04   6.61049152E-02   6.51693938E-02   2.51747748E-11   8.36250987E-03   8.65356479E-11   9.36774893E-11   9.53361918E-11   1.00272608E-10