 TITLE = "Mineral Volumes" 
VARIABLES = "X"          "Y"              "Z"            "Forsterite"     "Enstatite(alph" "Anorthite"      "Ferropargasite" "Anhydrite"      "Clinochlore"    "Albite(low)"    "Fayalite"       "Epidote"        "Kaolinite"      "Muscovite(orde"
 ZONE I=          10 , J=           1 , K=           1  F=POINT
   1.75000000E+02   5.00000000E-01   5.00000000E-01   2.79951671E-01   2.09997201E-01   6.88925910E-04   6.99691108E-02   1.99920975E-01   1.28865726E-04   1.29933161E-01   2.80098874E-02   9.99971685E-10   0.00000000E+00   0.00000000E+00
   5.25000000E+02   5.00000000E-01   5.00000000E-01   2.79951671E-01   2.09997062E-01   6.88925910E-04   6.99691108E-02   1.99957634E-01   1.31039158E-04   1.29931104E-01   2.80095863E-02   9.99871598E-10   0.00000000E+00   0.00000000E+00
   8.75000000E+02   5.00000000E-01   5.00000000E-01   2.79951692E-01   2.09996976E-01   6.88925910E-04   6.99691108E-02   1.99985719E-01   1.34641224E-04   1.29927695E-01   2.80090482E-02   9.99644063E-10   0.00000000E+00   0.00000000E+00
   1.22500000E+03   5.00000000E-01   5.00000000E-01   2.79951820E-01   2.09996924E-01   6.88925910E-04   6.99691108E-02   2.00006164E-01   1.39015275E-04   1.29923555E-01   2.80081285E-02   9.99182506E-10   0.00000000E+00   0.00000000E+00
   1.57500000E+03   5.00000000E-01   5.00000000E-01   2.79952096E-01   2.09996894E-01   6.88925910E-04   6.99691108E-02   2.00020449E-01   1.43672846E-04   1.29919147E-01   2.80065237E-02   9.98252697E-10   0.00000000E+00   0.00000000E+00
   1.92500000E+03   5.00000000E-01   5.00000000E-01   2.79952551E-01   2.09996884E-01   6.88925910E-04   6.99691108E-02   2.00030134E-01   1.49475586E-04   1.29913655E-01   2.80038228E-02   9.96483669E-10   0.00000000E+00   0.00000000E+00
   2.27500000E+03   5.00000000E-01   5.00000000E-01   2.79953099E-01   2.09996892E-01   6.88925910E-04   6.99691108E-02   2.00036451E-01   1.57754979E-04   1.29905820E-01   2.79997501E-02   9.93423680E-10   0.00000000E+00   0.00000000E+00
   2.62500000E+03   5.00000000E-01   5.00000000E-01   2.79953583E-01   2.09996918E-01   6.88925910E-04   6.99691108E-02   2.00040317E-01   1.68893167E-04   1.29895278E-01   2.79944789E-02   9.89040949E-10   0.00000000E+00   0.00000000E+00
   2.97500000E+03   5.00000000E-01   5.00000000E-01   2.79953891E-01   2.09996964E-01   6.88925910E-04   6.99691108E-02   2.00042425E-01   1.81864587E-04   1.29883002E-01   2.79886968E-02   9.84650805E-10   0.00000000E+00   0.00000000E+00
   3.32500000E+03   5.00000000E-01   5.00000000E-01   2.79954079E-01   2.09997028E-01   6.88925910E-04   6.99691108E-02   2.00043302E-01   1.94562138E-04   1.29870984E-01   2.79833447E-02   9.83292597E-10   0.00000000E+00   0.00000000E+00
