 TITLE = "Mineral Volumes" 
VARIABLES = "X"          "Y"              "Z"            "Forsterite"     "Enstatite(alph" "Anorthite"      "Tremolite"      "Pargasite"      "Anhydrite"      "Clinochlore"    "Albite(low)"    "Fayalite"       "Epidote"        "Kaolinite"      "Muscovite(orde" "Sudoite"        "Saponite(Mg)"   "Scolecite"      "FeS(am)"        "Quartz(alpha)"  "Montmorillonit"
 ZONE I=         100 , J=           1 , K=           1  F=POINT
   1.75000000E+01   5.00000000E-01   5.00000000E-01   1.99972382E-01   9.99980321E-02   6.99936431E-02   6.82909522E-02   6.82873217E-02   7.90039671E-02   2.42494443E-03   6.95533375E-02   2.79707523E-02   9.99999999E-04   9.38496102E-04   0.00000000E+00   0.00000000E+00   1.58723721E-03   8.94737607E-04   0.00000000E+00   1.00162675E-04   1.49920085E-01
   5.25000000E+01   5.00000000E-01   5.00000000E-01   1.99972382E-01   9.99980322E-02   6.99936431E-02   6.82909754E-02   6.82873217E-02   8.25452308E-02   2.00131517E-03   6.98655731E-02   2.79707568E-02   1.00000000E-03   9.38533884E-04   0.00000000E+00   0.00000000E+00   1.86397242E-03   8.94744338E-04   0.00000000E+00   1.35797640E-04   1.49936583E-01
   8.75000000E+01   5.00000000E-01   5.00000000E-01   1.99972382E-01   9.99980325E-02   6.99936431E-02   6.82910059E-02   6.82873217E-02   8.60996129E-02   1.77860326E-03   7.00194201E-02   2.79707638E-02   1.00000000E-03   9.38555685E-04   0.00000000E+00   0.00000000E+00   2.03672059E-03   8.94750295E-04   0.00000000E+00   1.47868950E-04   1.49948251E-01
   1.22500000E+02   5.00000000E-01   5.00000000E-01   1.99972382E-01   9.99980328E-02   6.99936431E-02   6.82910316E-02   6.82873217E-02   8.94239745E-02   1.68829795E-03   7.00785839E-02   2.79707733E-02   1.00000000E-03   9.38568587E-04   0.00000000E+00   0.00000000E+00   2.11191640E-03   8.94754841E-04   0.00000000E+00   1.50738123E-04   1.49954549E-01
   1.57500000E+02   5.00000000E-01   5.00000000E-01   1.99972382E-01   9.99980331E-02   6.99936431E-02   6.82910500E-02   6.82873217E-02   9.23762665E-02   1.65362090E-03   7.00990700E-02   2.79707851E-02   1.00000000E-03   9.38578335E-04   0.00000000E+00   0.00000000E+00   2.14307024E-03   8.94758479E-04   0.00000000E+00   1.50174731E-04   1.49958307E-01
   1.92500000E+02   5.00000000E-01   5.00000000E-01   1.99972382E-01   9.99980334E-02   6.99936431E-02   6.82910617E-02   6.82873217E-02   9.48948850E-02   1.64091310E-03   7.01044221E-02   2.79707990E-02   1.00000000E-03   9.38587064E-04   0.00000000E+00   0.00000000E+00   2.15657518E-03   8.94761528E-04   0.00000000E+00   1.48336646E-04   1.49960999E-01
   2.27500000E+02   5.00000000E-01   5.00000000E-01   1.99972382E-01   9.99980337E-02   6.99936431E-02   6.82910680E-02   6.82873217E-02   9.69753779E-02   1.63693235E-03   7.01037660E-02   2.79708150E-02   1.00000000E-03   9.38595591E-04   0.00000000E+00   0.00000000E+00   2.16312546E-03   8.94764165E-04   0.00000000E+00   1.46030340E-04   1.49963253E-01
   2.62500000E+02   5.00000000E-01   5.00000000E-01   1.99972382E-01   9.99980340E-02   6.99936431E-02   6.82910703E-02   6.82873217E-02   9.86489300E-02   1.63652560E-03   7.01006254E-02   2.79708329E-02   1.00000000E-03   9.38604250E-04   0.00000000E+00   0.00000000E+00   2.16692528E-03   8.94766491E-04   0.00000000E+00   1.43562725E-04   1.49965328E-01
   2.97500000E+02   5.00000000E-01   5.00000000E-01   1.99972382E-01   9.99980343E-02   6.99936431E-02   6.82910696E-02   6.82873217E-02   9.99652747E-02   1.63766534E-03   7.00963791E-02   2.79708528E-02   1.00000000E-03   9.38613183E-04   0.00000000E+00   0.00000000E+00   2.16963906E-03   8.94768571E-04   0.00000000E+00   1.41053445E-04   1.49967329E-01
   3.32500000E+02   5.00000000E-01   5.00000000E-01   1.99972382E-01   9.99980347E-02   6.99936431E-02   6.82910667E-02   6.82873217E-02   1.00978346E-01   1.63954062E-03   7.00915767E-02   2.79708746E-02   1.00000000E-03   9.38622453E-04   0.00000000E+00   0.00000000E+00   2.17193671E-03   8.94770451E-04   0.00000000E+00   1.38550366E-04   1.49969298E-01
   3.67500000E+02   5.00000000E-01   5.00000000E-01   1.99972382E-01   9.99980350E-02   6.99936431E-02   6.82910625E-02   6.82873217E-02   1.01743192E-01   1.64182239E-03   7.00864422E-02   2.79708981E-02   1.00000000E-03   9.38632089E-04   0.00000000E+00   0.00000000E+00   2.17409176E-03   8.94772166E-04   0.00000000E+00   1.36073063E-04   1.49971253E-01
   4.02500000E+02   5.00000000E-01   5.00000000E-01   1.99972382E-01   9.99980354E-02   6.99936431E-02   6.82910575E-02   6.82873217E-02   1.02311677E-01   1.64437592E-03   7.00810693E-02   2.79709235E-02   1.00000000E-03   9.38642101E-04   0.00000000E+00   0.00000000E+00   2.17621569E-03   8.94773744E-04   0.00000000E+00   1.33629608E-04   1.49973199E-01
   4.37500000E+02   5.00000000E-01   5.00000000E-01   1.99972382E-01   9.99980358E-02   6.99936431E-02   6.82910524E-02   6.82873217E-02   1.02726857E-01   1.64714518E-03   7.00755001E-02   2.79709507E-02   1.00000000E-03   9.38652493E-04   0.00000000E+00   0.00000000E+00   2.17835173E-03   8.94775206E-04   0.00000000E+00   1.31223325E-04   1.49975136E-01
   4.72500000E+02   5.00000000E-01   5.00000000E-01   1.99972382E-01   9.99980361E-02   6.99936431E-02   6.82910479E-02   6.82873217E-02   1.03023600E-01   1.65010558E-03   7.00697572E-02   2.79709795E-02   9.99999999E-04   9.38663266E-04   0.00000000E+00   0.00000000E+00   2.18051304E-03   8.94776571E-04   0.00000000E+00   1.28855599E-04   1.49977061E-01
   5.07500000E+02   5.00000000E-01   5.00000000E-01   1.99972382E-01   9.99980365E-02   6.99936431E-02   6.82910451E-02   6.82873217E-02   1.03229618E-01   1.65324429E-03   7.00638566E-02   2.79710101E-02   9.99999999E-04   9.38674416E-04   0.00000000E+00   0.00000000E+00   2.18269814E-03   8.94777855E-04   0.00000000E+00   1.26526724E-04   1.49978972E-01
   5.42500000E+02   5.00000000E-01   5.00000000E-01   1.99972382E-01   9.99980370E-02   6.99936431E-02   6.82910454E-02   6.82873217E-02   1.03366623E-01   1.65655190E-03   7.00578131E-02   2.79710425E-02   9.99999999E-04   9.38685938E-04   0.00000000E+00   0.00000000E+00   2.18489767E-03   8.94779068E-04   0.00000000E+00   1.24236843E-04   1.49980865E-01
   5.77500000E+02   5.00000000E-01   5.00000000E-01   1.99972382E-01   9.99980374E-02   6.99936431E-02   6.82910499E-02   6.82873217E-02   1.03451429E-01   1.66001844E-03   7.00516428E-02   2.79710765E-02   9.99999999E-04   9.38697830E-04   0.00000000E+00   0.00000000E+00   2.18709832E-03   8.94780221E-04   0.00000000E+00   1.21985900E-04   1.49982739E-01
   6.12500000E+02   5.00000000E-01   5.00000000E-01   1.99972382E-01   9.99980378E-02   6.99936431E-02   6.82910584E-02   6.82873217E-02   1.03496936E-01   1.66363163E-03   7.00453640E-02   2.79711123E-02   9.99999999E-04   9.38710087E-04   0.00000000E+00   0.00000000E+00   2.18928480E-03   8.94781324E-04   0.00000000E+00   1.19773718E-04   1.49984591E-01
   6.47500000E+02   5.00000000E-01   5.00000000E-01   1.99972382E-01   9.99980383E-02   6.99936431E-02   6.82910700E-02   6.82873217E-02   1.03512967E-01   1.66737640E-03   7.00389974E-02   2.79711498E-02   9.99999999E-04   9.38722706E-04   0.00000000E+00   0.00000000E+00   2.19144013E-03   8.94782383E-04   0.00000000E+00   1.17600264E-04   1.49986419E-01
   6.82500000E+02   5.00000000E-01   5.00000000E-01   1.99972382E-01   9.99980388E-02   6.99936431E-02   6.82910839E-02   6.82873217E-02   1.03506960E-01   1.67123498E-03   7.00325659E-02   2.79711890E-02   9.99999999E-04   9.38735686E-04   0.00000000E+00   0.00000000E+00   2.19354463E-03   8.94783405E-04   0.00000000E+00   1.15465745E-04   1.49988222E-01
   7.17500000E+02   5.00000000E-01   5.00000000E-01   1.99972382E-01   9.99980392E-02   6.99936431E-02   6.82910992E-02   6.82873217E-02   1.03484522E-01   1.67518711E-03   7.00260946E-02   2.79712300E-02   9.99999998E-04   9.38749026E-04   0.00000000E+00   0.00000000E+00   2.19557571E-03   8.94784398E-04   0.00000000E+00   1.13370349E-04   1.49990000E-01
   7.52500000E+02   5.00000000E-01   5.00000000E-01   1.99972382E-01   9.99980397E-02   6.99936431E-02   6.82911156E-02   6.82873217E-02   1.03449869E-01   1.67921014E-03   7.00196105E-02   2.79712727E-02   9.99999998E-04   9.38762732E-04   0.00000000E+00   0.00000000E+00   2.19750831E-03   8.94785367E-04   0.00000000E+00   1.11314005E-04   1.49991752E-01
   7.87500000E+02   5.00000000E-01   5.00000000E-01   1.99972382E-01   9.99980403E-02   6.99936431E-02   6.82911328E-02   6.82873217E-02   1.03406167E-01   1.68327931E-03   7.00131420E-02   2.79713172E-02   9.99999997E-04   9.38776808E-04   0.00000000E+00   0.00000000E+00   2.19931512E-03   8.94786317E-04   0.00000000E+00   1.09296921E-04   1.49993481E-01
   8.22500000E+02   5.00000000E-01   5.00000000E-01   1.99972382E-01   9.99980408E-02   6.99936431E-02   6.82911506E-02   6.82873217E-02   1.03355796E-01   1.68736810E-03   7.00067184E-02   2.79713635E-02   9.99999997E-04   9.38791266E-04   0.00000000E+00   0.00000000E+00   2.20096729E-03   8.94787256E-04   0.00000000E+00   1.07319286E-04   1.49995189E-01
   8.57500000E+02   5.00000000E-01   5.00000000E-01   1.99972382E-01   9.99980413E-02   6.99936431E-02   6.82911691E-02   6.82873217E-02   1.03300547E-01   1.69144863E-03   7.00003696E-02   2.79714115E-02   9.99999996E-04   9.38806118E-04   0.00000000E+00   0.00000000E+00   2.20243487E-03   8.94788190E-04   0.00000000E+00   1.05381647E-04   1.49996879E-01
   8.92500000E+02   5.00000000E-01   5.00000000E-01   1.99972382E-01   9.99980419E-02   6.99936431E-02   6.82911881E-02   6.82873217E-02   1.03241779E-01   1.69549207E-03   6.99941255E-02   2.79714612E-02   9.99999995E-04   9.38821383E-04   0.00000000E+00   0.00000000E+00   2.20368805E-03   8.94789124E-04   0.00000000E+00   1.03483957E-04   1.49998555E-01
   9.27500000E+02   5.00000000E-01   5.00000000E-01   1.99972382E-01   9.99980425E-02   6.99936431E-02   6.82912076E-02   6.82873217E-02   1.03180522E-01   1.69946912E-03   6.99880156E-02   2.79715127E-02   9.99999993E-04   9.38837082E-04   0.00000000E+00   0.00000000E+00   2.20469744E-03   8.94790065E-04   0.00000000E+00   1.01626484E-04   1.50000221E-01
   9.62500000E+02   5.00000000E-01   5.00000000E-01   1.99972382E-01   9.99980431E-02   6.99936431E-02   6.82912275E-02   6.82873217E-02   1.03117568E-01   1.70335092E-03   6.99820678E-02   2.79715659E-02   9.99999991E-04   9.38853241E-04   0.00000000E+00   0.00000000E+00   2.20543477E-03   8.94791020E-04   0.00000000E+00   9.98096876E-05   1.50001881E-01
   9.97500000E+02   5.00000000E-01   5.00000000E-01   1.99972382E-01   9.99980437E-02   6.99936431E-02   6.82912477E-02   6.82873217E-02   1.03053527E-01   1.70710965E-03   6.99763084E-02   2.79716208E-02   9.99999989E-04   9.38869888E-04   0.00000000E+00   0.00000000E+00   2.20587381E-03   8.94791996E-04   0.00000000E+00   9.80340491E-05   1.50003542E-01
   1.03250000E+03   5.00000000E-01   5.00000000E-01   1.99972382E-01   9.99980443E-02   6.99936431E-02   6.82912682E-02   6.82873217E-02   1.02988873E-01   1.71071865E-03   6.99707611E-02   2.79716773E-02   9.99999985E-04   9.38887056E-04   0.00000000E+00   0.00000000E+00   2.20599183E-03   8.94792999E-04   0.00000000E+00   9.62992275E-05   1.50005209E-01
   1.06750000E+03   5.00000000E-01   5.00000000E-01   1.99972382E-01   9.99980450E-02   6.99936431E-02   6.82912889E-02   6.82873217E-02   1.02923979E-01   1.71415337E-03   6.99654469E-02   2.79717354E-02   9.99999981E-04   9.38904778E-04   0.00000000E+00   0.00000000E+00   2.20576966E-03   8.94794036E-04   0.00000000E+00   9.46051988E-05   1.50006887E-01
   1.10250000E+03   5.00000000E-01   5.00000000E-01   1.99972382E-01   9.99980457E-02   6.99936431E-02   6.82913097E-02   6.82873217E-02   1.02859136E-01   1.71739176E-03   6.99603838E-02   2.79717950E-02   9.99999975E-04   9.38923090E-04   0.00000000E+00   0.00000000E+00   2.20519265E-03   8.94795114E-04   0.00000000E+00   9.29518048E-05   1.50008582E-01
   1.13750000E+03   5.00000000E-01   5.00000000E-01   1.99972382E-01   9.99980463E-02   6.99936431E-02   6.82913305E-02   6.82873217E-02   1.02794575E-01   1.72041487E-03   6.99555857E-02   2.79718559E-02   9.99999967E-04   9.38942027E-04   0.00000000E+00   0.00000000E+00   2.20425102E-03   8.94796240E-04   0.00000000E+00   9.13391313E-05   1.50010299E-01
   1.17250000E+03   5.00000000E-01   5.00000000E-01   1.99972382E-01   9.99980470E-02   6.99936431E-02   6.82913513E-02   6.82873217E-02   1.02730475E-01   1.72320700E-03   6.99510629E-02   2.79719182E-02   9.99999957E-04   9.38961623E-04   0.00000000E+00   0.00000000E+00   2.20294104E-03   8.94797419E-04   0.00000000E+00   8.97663312E-05   1.50012041E-01
   1.20750000E+03   5.00000000E-01   5.00000000E-01   1.99972382E-01   9.99980478E-02   6.99936431E-02   6.82913720E-02   6.82873217E-02   1.02666979E-01   1.72575625E-03   6.99468216E-02   2.79719817E-02   9.99999944E-04   9.38981911E-04   0.00000000E+00   0.00000000E+00   2.20126449E-03   8.94798658E-04   0.00000000E+00   8.82329056E-05   1.50013814E-01
   1.24250000E+03   5.00000000E-01   5.00000000E-01   1.99972382E-01   9.99980485E-02   6.99936431E-02   6.82913925E-02   6.82873217E-02   1.02604193E-01   1.72805473E-03   6.99428641E-02   2.79720462E-02   9.99999927E-04   9.39002921E-04   0.00000000E+00   0.00000000E+00   2.19922863E-03   8.94799964E-04   0.00000000E+00   8.67386862E-05   1.50015619E-01
   1.27750000E+03   5.00000000E-01   5.00000000E-01   1.99972382E-01   9.99980493E-02   6.99936431E-02   6.82914128E-02   6.82873217E-02   1.02542200E-01   1.73009850E-03   6.99391885E-02   2.79721118E-02   9.99999905E-04   9.39024677E-04   0.00000000E+00   0.00000000E+00   2.19684672E-03   8.94801341E-04   0.00000000E+00   8.52830416E-05   1.50017458E-01
   1.31250000E+03   5.00000000E-01   5.00000000E-01   1.99972382E-01   9.99980500E-02   6.99936431E-02   6.82914327E-02   6.82873217E-02   1.02481057E-01   1.73188742E-03   6.99357894E-02   2.79721781E-02   9.99999876E-04   9.39047200E-04   0.00000000E+00   0.00000000E+00   2.19413816E-03   8.94802795E-04   0.00000000E+00   8.38643697E-05   1.50019332E-01
   1.34750000E+03   5.00000000E-01   5.00000000E-01   1.99972382E-01   9.99980508E-02   6.99936431E-02   6.82914521E-02   6.82873217E-02   1.02420804E-01   1.73342536E-03   6.99326578E-02   2.79722452E-02   9.99999839E-04   9.39070501E-04   0.00000000E+00   0.00000000E+00   2.19112660E-03   8.94804331E-04   0.00000000E+00   8.24816664E-05   1.50021241E-01
   1.38250000E+03   5.00000000E-01   5.00000000E-01   1.99972382E-01   9.99980517E-02   6.99936431E-02   6.82914710E-02   6.82873217E-02   1.02361464E-01   1.73471982E-03   6.99297820E-02   2.79723128E-02   9.99999792E-04   9.39094589E-04   0.00000000E+00   0.00000000E+00   2.18783982E-03   8.94805954E-04   0.00000000E+00   8.11338304E-05   1.50023182E-01
   1.41750000E+03   5.00000000E-01   5.00000000E-01   1.99972382E-01   9.99980525E-02   6.99936431E-02   6.82914892E-02   6.82873217E-02   1.02303047E-01   1.73578161E-03   6.99271475E-02   2.79723809E-02   9.99999731E-04   9.39119460E-04   0.00000000E+00   0.00000000E+00   2.18430895E-03   8.94807668E-04   0.00000000E+00   7.98196814E-05   1.50025153E-01
   1.45250000E+03   5.00000000E-01   5.00000000E-01   1.99972382E-01   9.99980534E-02   6.99936431E-02   6.82915068E-02   6.82873217E-02   1.02245550E-01   1.73662449E-03   6.99247379E-02   2.79724493E-02   9.99999655E-04   9.39145104E-04   0.00000000E+00   0.00000000E+00   2.18056717E-03   8.94809477E-04   0.00000000E+00   7.85385440E-05   1.50027151E-01
   1.48750000E+03   5.00000000E-01   5.00000000E-01   1.99972382E-01   9.99980542E-02   6.99936431E-02   6.82915237E-02   6.82873217E-02   1.02188961E-01   1.73726477E-03   6.99225356E-02   2.79725179E-02   9.99999558E-04   9.39171504E-04   0.00000000E+00   0.00000000E+00   2.17664883E-03   8.94811387E-04   0.00000000E+00   7.72901957E-05   1.50029169E-01
   1.52250000E+03   5.00000000E-01   5.00000000E-01   1.99972382E-01   9.99980551E-02   6.99936431E-02   6.82915399E-02   6.82873217E-02   1.02133262E-01   1.73772014E-03   6.99205218E-02   2.79725865E-02   9.99999436E-04   9.39198632E-04   0.00000000E+00   0.00000000E+00   2.17259052E-03   8.94813401E-04   0.00000000E+00   7.60718895E-05   1.50031203E-01
   1.55750000E+03   5.00000000E-01   5.00000000E-01   1.99972383E-01   9.99980561E-02   6.99936431E-02   6.82915555E-02   6.82873217E-02   1.02078424E-01   1.73800984E-03   6.99186779E-02   2.79726550E-02   9.99999281E-04   9.39226455E-04   0.00000000E+00   0.00000000E+00   2.16842745E-03   8.94815524E-04   0.00000000E+00   7.48820091E-05   1.50033246E-01
   1.59250000E+03   5.00000000E-01   5.00000000E-01   1.99972383E-01   9.99980570E-02   6.99936431E-02   6.82915705E-02   6.82873217E-02   1.02024418E-01   1.73815389E-03   6.99169852E-02   2.79727234E-02   9.99999087E-04   9.39254930E-04   0.00000000E+00   0.00000000E+00   2.16419358E-03   8.94817761E-04   0.00000000E+00   7.37200391E-05   1.50035292E-01
   1.62750000E+03   5.00000000E-01   5.00000000E-01   1.99972383E-01   9.99980580E-02   6.99936431E-02   6.82915847E-02   6.82873217E-02   1.01971208E-01   1.73817218E-03   6.99154261E-02   2.79727914E-02   9.99998843E-04   9.39284008E-04   0.00000000E+00   0.00000000E+00   2.15992201E-03   8.94820116E-04   0.00000000E+00   7.25839031E-05   1.50037331E-01
   1.66250000E+03   5.00000000E-01   5.00000000E-01   1.99972383E-01   9.99980590E-02   6.99936431E-02   6.82915983E-02   6.82873217E-02   1.01918756E-01   1.73808440E-03   6.99139839E-02   2.79728592E-02   9.99998541E-04   9.39313636E-04   0.00000000E+00   0.00000000E+00   2.15564300E-03   8.94822595E-04   0.00000000E+00   7.14724272E-05   1.50039359E-01
   1.69750000E+03   5.00000000E-01   5.00000000E-01   1.99972384E-01   9.99980600E-02   6.99936431E-02   6.82916111E-02   6.82873217E-02   1.01867024E-01   1.73790938E-03   6.99126436E-02   2.79729265E-02   9.99998174E-04   9.39343753E-04   0.00000000E+00   0.00000000E+00   2.15138424E-03   8.94825205E-04   0.00000000E+00   7.03844935E-05   1.50041365E-01
   1.73250000E+03   5.00000000E-01   5.00000000E-01   1.99972384E-01   9.99980611E-02   6.99936431E-02   6.82916234E-02   6.82873217E-02   1.01815973E-01   1.73766491E-03   6.99113918E-02   2.79729933E-02   9.99997735E-04   9.39374296E-04   0.00000000E+00   0.00000000E+00   2.14716990E-03   8.94827953E-04   0.00000000E+00   6.93203582E-05   1.50043344E-01
   1.76750000E+03   5.00000000E-01   5.00000000E-01   1.99972385E-01   9.99980622E-02   6.99936432E-02   6.82916355E-02   6.82873217E-02   1.01765565E-01   1.73736698E-03   6.99102171E-02   2.79730597E-02   9.99997221E-04   9.39405199E-04   0.00000000E+00   0.00000000E+00   2.14302223E-03   8.94830845E-04   0.00000000E+00   6.82778257E-05   1.50045287E-01
   1.80250000E+03   5.00000000E-01   5.00000000E-01   1.99972386E-01   9.99980633E-02   6.99936432E-02   6.82916470E-02   6.82873217E-02   1.01715765E-01   1.73702972E-03   6.99091102E-02   2.79731255E-02   9.99996620E-04   9.39436391E-04   0.00000000E+00   0.00000000E+00   2.13896074E-03   8.94833892E-04   0.00000000E+00   6.72557561E-05   1.50047189E-01
   1.83750000E+03   5.00000000E-01   5.00000000E-01   1.99972388E-01   9.99980644E-02   6.99936432E-02   6.82916582E-02   6.82873217E-02   1.01666539E-01   1.73666540E-03   6.99080637E-02   2.79731908E-02   9.99995919E-04   9.39467802E-04   0.00000000E+00   0.00000000E+00   2.13500156E-03   8.94837102E-04   0.00000000E+00   6.62533045E-05   1.50049041E-01
   1.87250000E+03   5.00000000E-01   5.00000000E-01   1.99972390E-01   9.99980656E-02   6.99936432E-02   6.82916692E-02   6.82873217E-02   1.01617859E-01   1.73628425E-03   6.99070726E-02   2.79732557E-02   9.99995093E-04   9.39499358E-04   0.00000000E+00   0.00000000E+00   2.13115810E-03   8.94840486E-04   0.00000000E+00   6.52696918E-05   1.50050839E-01
   1.90750000E+03   5.00000000E-01   5.00000000E-01   1.99972392E-01   9.99980668E-02   6.99936432E-02   6.82916801E-02   6.82873217E-02   1.01569703E-01   1.73589436E-03   6.99061335E-02   2.79733201E-02   9.99994117E-04   9.39530988E-04   0.00000000E+00   0.00000000E+00   2.12744131E-03   8.94844058E-04   0.00000000E+00   6.43042006E-05   1.50052576E-01
   1.94250000E+03   5.00000000E-01   5.00000000E-01   1.99972395E-01   9.99980680E-02   6.99936432E-02   6.82916909E-02   6.82873217E-02   1.01522053E-01   1.73550156E-03   6.99052453E-02   2.79733843E-02   9.99992971E-04   9.39562617E-04   0.00000000E+00   0.00000000E+00   2.12386030E-03   8.94847829E-04   0.00000000E+00   6.33561712E-05   1.50054247E-01
   1.97750000E+03   5.00000000E-01   5.00000000E-01   1.99972399E-01   9.99980693E-02   6.99936432E-02   6.82917016E-02   6.82873217E-02   1.01474898E-01   1.73510962E-03   6.99044086E-02   2.79734484E-02   9.99991660E-04   9.39594172E-04   0.00000000E+00   0.00000000E+00   2.12042206E-03   8.94851816E-04   0.00000000E+00   6.24249962E-05   1.50055849E-01
   2.01250000E+03   5.00000000E-01   5.00000000E-01   1.99972405E-01   9.99980706E-02   6.99936432E-02   6.82917126E-02   6.82873217E-02   1.01428236E-01   1.73472030E-03   6.99036256E-02   2.79735125E-02   9.99990212E-04   9.39625579E-04   0.00000000E+00   0.00000000E+00   2.11713163E-03   8.94856034E-04   0.00000000E+00   6.15101891E-05   1.50057375E-01
   2.04750000E+03   5.00000000E-01   5.00000000E-01   1.99972412E-01   9.99980719E-02   6.99936432E-02   6.82917237E-02   6.82873217E-02   1.01382071E-01   1.73433353E-03   6.99029003E-02   2.79735770E-02   9.99988676E-04   9.39656765E-04   0.00000000E+00   0.00000000E+00   2.11399247E-03   8.94860501E-04   0.00000000E+00   6.06133811E-05   1.50058824E-01
   2.08250000E+03   5.00000000E-01   5.00000000E-01   1.99972421E-01   9.99980733E-02   6.99936432E-02   6.82917350E-02   6.82873217E-02   1.01336416E-01   1.73394696E-03   6.99022380E-02   2.79736421E-02   9.99987104E-04   9.39687656E-04   0.00000000E+00   0.00000000E+00   2.11100830E-03   8.94865238E-04   0.00000000E+00   5.97316922E-05   1.50060191E-01
   2.11750000E+03   5.00000000E-01   5.00000000E-01   1.99972433E-01   9.99980747E-02   6.99936432E-02   6.82917463E-02   6.82873217E-02   1.01291293E-01   1.73355674E-03   6.99016455E-02   2.79737081E-02   9.99985539E-04   9.39718177E-04   0.00000000E+00   0.00000000E+00   2.10818111E-03   8.94870266E-04   0.00000000E+00   5.88646767E-05   1.50061474E-01
   2.15250000E+03   5.00000000E-01   5.00000000E-01   1.99972448E-01   9.99980761E-02   6.99936432E-02   6.82917577E-02   6.82873217E-02   1.01246732E-01   1.73315740E-03   6.99011309E-02   2.79737755E-02   9.99984008E-04   9.39748254E-04   0.00000000E+00   0.00000000E+00   2.10551220E-03   8.94875610E-04   0.00000000E+00   5.80119132E-05   1.50062670E-01
   2.18750000E+03   5.00000000E-01   5.00000000E-01   1.99972467E-01   9.99980776E-02   6.99936432E-02   6.82917689E-02   6.82873217E-02   1.01202769E-01   1.73274186E-03   6.99007036E-02   2.79738449E-02   9.99982533E-04   9.39777812E-04   0.00000000E+00   0.00000000E+00   2.10300242E-03   8.94881295E-04   0.00000000E+00   5.71729988E-05   1.50063777E-01
   2.22250000E+03   5.00000000E-01   5.00000000E-01   1.99972491E-01   9.99980791E-02   6.99936432E-02   6.82917799E-02   6.82873217E-02   1.01159450E-01   1.73230152E-03   6.99003742E-02   2.79739167E-02   9.99981125E-04   9.39806774E-04   0.00000000E+00   0.00000000E+00   2.10065243E-03   8.94887351E-04   0.00000000E+00   5.63475437E-05   1.50064792E-01
   2.25750000E+03   5.00000000E-01   5.00000000E-01   1.99972521E-01   9.99980807E-02   6.99936432E-02   6.82917904E-02   6.82873217E-02   1.01116826E-01   1.73182633E-03   6.99001546E-02   2.79739917E-02   9.99979775E-04   9.39835060E-04   0.00000000E+00   0.00000000E+00   2.09846286E-03   8.94893808E-04   0.00000000E+00   5.55351667E-05   1.50065715E-01
   2.29250000E+03   5.00000000E-01   5.00000000E-01   1.99972559E-01   9.99980823E-02   6.99936432E-02   6.82918002E-02   6.82873217E-02   1.01074952E-01   1.73130476E-03   6.99000579E-02   2.79740707E-02   9.99978430E-04   9.39862591E-04   0.00000000E+00   0.00000000E+00   2.09643450E-03   8.94900704E-04   0.00000000E+00   5.47354899E-05   1.50066543E-01
   2.32750000E+03   5.00000000E-01   5.00000000E-01   1.99972604E-01   9.99980839E-02   6.99936432E-02   6.82918090E-02   6.82873217E-02   1.01033889E-01   1.73072375E-03   6.99000987E-02   2.79741547E-02   9.99977013E-04   9.39889281E-04   0.00000000E+00   0.00000000E+00   2.09456851E-03   8.94908076E-04   0.00000000E+00   5.39481353E-05   1.50067274E-01
   2.36250000E+03   5.00000000E-01   5.00000000E-01   1.99972659E-01   9.99980856E-02   6.99936432E-02   6.82918165E-02   6.82873217E-02   1.00993697E-01   1.73006858E-03   6.99002927E-02   2.79742448E-02   9.99975452E-04   9.39915043E-04   0.00000000E+00   0.00000000E+00   2.09286662E-03   8.94915968E-04   0.00000000E+00   5.31727198E-05   1.50067907E-01
   2.39750000E+03   5.00000000E-01   5.00000000E-01   1.99972724E-01   9.99980873E-02   6.99936432E-02   6.82918227E-02   6.82873217E-02   1.00954439E-01   1.72932261E-03   6.99006577E-02   2.79743424E-02   9.99973727E-04   9.39939784E-04   0.00000000E+00   0.00000000E+00   2.09133139E-03   8.94924430E-04   0.00000000E+00   5.24088510E-05   1.50068440E-01
   2.43250000E+03   5.00000000E-01   5.00000000E-01   1.99972800E-01   9.99980890E-02   6.99936433E-02   6.82918275E-02   6.82873217E-02   1.00916177E-01   1.72846702E-03   6.99012132E-02   2.79744490E-02   9.99971898E-04   9.39963407E-04   0.00000000E+00   0.00000000E+00   2.08996643E-03   8.94933515E-04   0.00000000E+00   5.16561226E-05   1.50068870E-01
   2.46750000E+03   5.00000000E-01   5.00000000E-01   1.99972887E-01   9.99980908E-02   6.99936433E-02   6.82918310E-02   6.82873217E-02   1.00878968E-01   1.72748049E-03   6.99019807E-02   2.79745665E-02   9.99970106E-04   9.39985807E-04   0.00000000E+00   0.00000000E+00   2.08877666E-03   8.94943288E-04   0.00000000E+00   5.09141096E-05   1.50069196E-01
   2.50250000E+03   5.00000000E-01   5.00000000E-01   1.99972987E-01   9.99980926E-02   6.99936433E-02   6.82918335E-02   6.82873217E-02   1.00842865E-01   1.72633890E-03   6.99029847E-02   2.79746973E-02   9.99968546E-04   9.40006872E-04   0.00000000E+00   0.00000000E+00   2.08776859E-03   8.94953820E-04   0.00000000E+00   5.01823621E-05   1.50069415E-01
   2.53750000E+03   5.00000000E-01   5.00000000E-01   1.99973098E-01   9.99980945E-02   6.99936433E-02   6.82918357E-02   6.82873217E-02   1.00807917E-01   1.72501476E-03   6.99042526E-02   2.79748443E-02   9.99967418E-04   9.40026480E-04   0.00000000E+00   0.00000000E+00   2.08695065E-03   8.94965195E-04   0.00000000E+00   4.94603996E-05   1.50069524E-01
   2.57250000E+03   5.00000000E-01   5.00000000E-01   1.99973220E-01   9.99980964E-02   6.99936433E-02   6.82918384E-02   6.82873217E-02   1.00774166E-01   1.72347668E-03   6.99058156E-02   2.79750108E-02   9.99966891E-04   9.40044501E-04   0.00000000E+00   0.00000000E+00   2.08633353E-03   8.94977510E-04   0.00000000E+00   4.87477033E-05   1.50069519E-01
   2.60750000E+03   5.00000000E-01   5.00000000E-01   1.99973354E-01   9.99980983E-02   6.99936434E-02   6.82918428E-02   6.82873217E-02   1.00741643E-01   1.72168843E-03   6.99077097E-02   2.79752014E-02   9.99967066E-04   9.40060790E-04   0.00000000E+00   0.00000000E+00   2.08593067E-03   8.94990879E-04   0.00000000E+00   4.80437076E-05   1.50069396E-01
   2.64250000E+03   5.00000000E-01   5.00000000E-01   1.99973497E-01   9.99981003E-02   6.99936434E-02   6.82918497E-02   6.82873217E-02   1.00710376E-01   1.71960781E-03   6.99099768E-02   2.79754216E-02   9.99967964E-04   9.40075188E-04   0.00000000E+00   0.00000000E+00   2.08575865E-03   8.95005440E-04   0.00000000E+00   4.73477898E-05   1.50069152E-01
   2.67750000E+03   5.00000000E-01   5.00000000E-01   1.99973648E-01   9.99981023E-02   6.99936435E-02   6.82918604E-02   6.82873217E-02   1.00680380E-01   1.71718507E-03   6.99126661E-02   2.79756784E-02   9.99969543E-04   9.40087520E-04   0.00000000E+00   0.00000000E+00   2.08583750E-03   8.95021357E-04   0.00000000E+00   4.66592581E-05   1.50068780E-01
   2.71250000E+03   5.00000000E-01   5.00000000E-01   1.99973808E-01   9.99981043E-02   6.99936435E-02   6.82918760E-02   6.82873217E-02   1.00651665E-01   1.71436093E-03   6.99158364E-02   2.79759813E-02   9.99971710E-04   9.40097590E-04   0.00000000E+00   0.00000000E+00   2.08619085E-03   8.95038835E-04   0.00000000E+00   4.59773359E-05   1.50068273E-01
   2.74750000E+03   5.00000000E-01   5.00000000E-01   1.99973975E-01   9.99981064E-02   6.99936436E-02   6.82918978E-02   6.82873217E-02   1.00624231E-01   1.71106383E-03   6.99195588E-02   2.79763424E-02   9.99974356E-04   9.40105180E-04   0.00000000E+00   0.00000000E+00   2.08684543E-03   8.95058122E-04   0.00000000E+00   4.53011434E-05   1.50067624E-01
   2.78250000E+03   5.00000000E-01   5.00000000E-01   1.99974147E-01   9.99981085E-02   6.99936436E-02   6.82919279E-02   6.82873217E-02   1.00598071E-01   1.70720539E-03   6.99239205E-02   2.79767784E-02   9.99977344E-04   9.40110043E-04   0.00000000E+00   0.00000000E+00   2.08783428E-03   8.95079535E-04   0.00000000E+00   4.46296727E-05   1.50066824E-01
   2.81750000E+03   5.00000000E-01   5.00000000E-01   1.99974325E-01   9.99981106E-02   6.99936437E-02   6.82919689E-02   6.82873217E-02   1.00573172E-01   1.70267619E-03   6.99290305E-02   2.79773124E-02   9.99980549E-04   9.40111899E-04   0.00000000E+00   0.00000000E+00   2.08919101E-03   8.95103479E-04   0.00000000E+00   4.39617564E-05   1.50065862E-01
   2.85250000E+03   5.00000000E-01   5.00000000E-01   1.99974508E-01   9.99981128E-02   6.99936438E-02   6.82920248E-02   6.82873217E-02   1.00549512E-01   1.69733695E-03   6.99350274E-02   2.79779770E-02   9.99983879E-04   9.40110433E-04   0.00000000E+00   0.00000000E+00   2.09095271E-03   8.95130481E-04   0.00000000E+00   4.32960251E-05   1.50064724E-01