 TITLE = "Mineral Volumes" 
VARIABLES = "X"          "Y"              "Z"            "Forsterite"     "Fayalite"       "Saponite(Mg)"   "Enstatite(alph" "Ferrosilite(al" "Anorthite"      "Albite(low)"    "Clinochlore"    "Sudoite"        "Montmorillonit" "Kaolinite"      "Tremolite"      "Pargasite"      "Anhydrite"      "Epidote"        "Scolecite"      "Pyrite"         "FeS(am)"        "Quartz(alpha)" 
 ZONE I=         100 , J=           1 , K=           1  F=POINT
   1.75000000E+01   5.00000000E-01   5.00000000E-01   1.09027918E-01   1.08654380E-01   3.31286465E-03   4.99996046E-02   4.99996995E-02   6.92119231E-02   6.86915355E-02   3.58896001E-03   1.55079695E-11   5.30456656E-11   8.05828389E-04   6.91665508E-02   6.91414494E-02   4.55151949E-11   9.99999995E-04   9.97528418E-04   8.92993738E-11   9.20520018E-11   1.00014097E-10
   5.25000000E+01   5.00000000E-01   5.00000000E-01   1.09027918E-01   1.08770119E-01   3.35695439E-03   4.99996047E-02   4.99997525E-02   6.92119231E-02   6.90852098E-02   3.15998902E-03   8.19591948E-12   5.91008715E-11   8.06462239E-04   6.91664926E-02   6.91414494E-02   4.58646748E-11   1.00000000E-03   9.97528557E-04   8.92993738E-11   9.20537867E-11   1.00015928E-10
   8.75000000E+01   5.00000000E-01   5.00000000E-01   1.09027918E-01   1.08919000E-01   3.19452571E-03   4.99996047E-02   4.99997966E-02   6.92119231E-02   6.92453476E-02   3.03198158E-03   6.67332709E-12   6.31662287E-11   8.06904093E-04   6.91662826E-02   6.91414494E-02   4.62552731E-11   1.00000000E-03   9.97528656E-04   8.92993738E-11   9.20551442E-11   1.00016154E-10
   1.22500000E+02   5.00000000E-01   5.00000000E-01   1.09027918E-01   1.09069505E-01   2.98241687E-03   4.99996047E-02   4.99998312E-02   6.92119231E-02   6.93592152E-02   2.96572744E-03   6.37510734E-12   6.71943238E-11   8.07357309E-04   6.91661791E-02   6.91414494E-02   4.66920507E-11   1.00000000E-03   9.97528759E-04   8.92993738E-11   9.20560096E-11   1.00016122E-10
   1.57500000E+02   5.00000000E-01   5.00000000E-01   1.09027918E-01   1.09203649E-01   2.78619423E-03   4.99996047E-02   4.99998574E-02   6.92119231E-02   6.94567465E-02   2.91249195E-03   6.40345220E-12   7.16861452E-11   8.07867506E-04   6.91661856E-02   6.91414494E-02   4.71804480E-11   1.00000000E-03   9.97528875E-04   8.92993738E-11   9.20564520E-11   1.00016004E-10
   1.92500000E+02   5.00000000E-01   5.00000000E-01   1.09027918E-01   1.09315435E-01   2.62167727E-03   4.99996048E-02   4.99998767E-02   6.92119231E-02   6.95379856E-02   2.86813247E-03   6.54376323E-12   7.65961426E-11   8.08431046E-04   6.91661466E-02   6.91414494E-02   4.77264475E-11   1.00000000E-03   9.97529003E-04   8.92993738E-11   9.20565753E-11   1.00015818E-10
   2.27500000E+02   5.00000000E-01   5.00000000E-01   1.09027918E-01   1.09405015E-01   2.48986444E-03   4.99996048E-02   4.99998906E-02   6.92119231E-02   6.96020389E-02   2.83335410E-03   6.74116028E-12   8.18049878E-11   8.09038521E-04   6.91660239E-02   6.91414494E-02   4.83367164E-11   1.00000000E-03   9.97529141E-04   8.92993738E-11   9.20564732E-11   1.00015576E-10
   2.62500000E+02   5.00000000E-01   5.00000000E-01   1.09027918E-01   1.09475057E-01   2.38683564E-03   4.99996048E-02   4.99999004E-02   6.92119231E-02   6.96499583E-02   2.80807713E-03   6.98321100E-12   8.72190133E-11   8.09683007E-04   6.91659737E-02   6.91414494E-02   4.90187451E-11   1.00000000E-03   9.97529287E-04   8.92993738E-11   9.20562197E-11   1.00015289E-10
   2.97500000E+02   5.00000000E-01   5.00000000E-01   1.09027918E-01   1.09528888E-01   2.30790815E-03   4.99996049E-02   4.99999070E-02   6.92119231E-02   6.96839064E-02   2.79123798E-03   7.27033621E-12   9.27833695E-11   8.10361344E-04   6.91659880E-02   6.91414494E-02   4.97810144E-11   9.99999999E-04   9.97529441E-04   8.92993738E-11   9.20558698E-11   1.00014972E-10
   3.32500000E+02   5.00000000E-01   5.00000000E-01   1.09027918E-01   1.09569735E-01   2.24848931E-03   4.99996049E-02   4.99999114E-02   6.92119231E-02   6.97062954E-02   2.78148102E-03   7.60780968E-12   9.84718455E-11   8.11072806E-04   6.91659989E-02   6.91414494E-02   5.06331786E-11   9.99999999E-04   9.97529602E-04   8.92993738E-11   9.20554637E-11   1.00014633E-10
   3.67500000E+02   5.00000000E-01   5.00000000E-01   1.09027918E-01   1.09600433E-01   2.20425541E-03   4.99996049E-02   4.99999140E-02   6.92119231E-02   6.97193920E-02   2.77753169E-03   8.00357996E-12   1.04277231E-10   8.11817848E-04   6.91660600E-02   6.91414494E-02   5.15862615E-11   9.99999999E-04   9.97529771E-04   8.92993738E-11   9.20550300E-11   1.00014281E-10
   4.02500000E+02   5.00000000E-01   5.00000000E-01   1.09027918E-01   1.09623289E-01   2.17176417E-03   4.99996050E-02   4.99999154E-02   6.92119231E-02   6.97251907E-02   2.77817215E-03   8.46834505E-12   1.10207744E-10   8.12598124E-04   6.91661762E-02   6.91414494E-02   5.26529017E-11   9.99999999E-04   9.97529949E-04   8.92993738E-11   9.20545883E-11   1.00013922E-10
   4.37500000E+02   5.00000000E-01   5.00000000E-01   1.09027918E-01   1.09640124E-01   2.14826600E-03   4.99996050E-02   4.99999157E-02   6.92119232E-02   6.97253587E-02   2.78234921E-03   9.01588462E-12   1.16281442E-10   8.13415948E-04   6.91663289E-02   6.91414494E-02   5.38476463E-11   9.99999999E-04   9.97530134E-04   8.92993738E-11   9.20541524E-11   1.00013561E-10
   4.72500000E+02   5.00000000E-01   5.00000000E-01   1.09027918E-01   1.09652350E-01   2.13155413E-03   4.99996051E-02   4.99999154E-02   6.92119232E-02   6.97212643E-02   2.78918377E-03   9.66377443E-12   1.22523726E-10   8.14274028E-04   6.91665114E-02   6.91414494E-02   5.51873022E-11   9.99999999E-04   9.97530330E-04   8.92993738E-11   9.20537312E-11   1.00013201E-10
   5.07500000E+02   5.00000000E-01   5.00000000E-01   1.09027918E-01   1.09661035E-01   2.11990794E-03   4.99996051E-02   4.99999146E-02   6.92119232E-02   6.97140266E-02   2.79793311E-03   1.04345834E-11   1.28966863E-10   8.15175478E-04   6.91667175E-02   6.91414494E-02   5.66913651E-11   9.99999998E-04   9.97530535E-04   8.92993738E-11   9.20533304E-11   1.00012845E-10
   5.42500000E+02   5.00000000E-01   5.00000000E-01   1.09027918E-01   1.09666980E-01   2.11199212E-03   4.99996052E-02   4.99999134E-02   6.92119232E-02   6.97045586E-02   2.80797146E-03   1.13575028E-11   1.35649652E-10   8.16123792E-04   6.91669410E-02   6.91414494E-02   5.83825443E-11   9.99999997E-04   9.97530753E-04   8.92993738E-11   9.20529537E-11   1.00012494E-10
   5.77500000E+02   5.00000000E-01   5.00000000E-01   1.09027918E-01   1.09670776E-01   2.10677264E-03   4.99996053E-02   4.99999118E-02   6.92119232E-02   6.96936038E-02   2.81877323E-03   1.24706120E-11   1.42617305E-10   8.17122840E-04   6.91671769E-02   6.91414494E-02   6.02874093E-11   9.99999997E-04   9.97530982E-04   8.92993738E-11   9.20526027E-11   1.00012150E-10
   6.12500000E+02   5.00000000E-01   5.00000000E-01   1.09027919E-01   1.09672853E-01   2.10345330E-03   4.99996053E-02   4.99999101E-02   6.92119233E-02   6.96817641E-02   2.82990009E-03   1.38240372E-11   1.49921163E-10   8.18176829E-04   6.91674218E-02   6.91414494E-02   6.24371883E-11   9.99999995E-04   9.97531225E-04   8.92993738E-11   9.20522782E-11   1.00011815E-10
   6.47500000E+02   5.00000000E-01   5.00000000E-01   1.09027919E-01   1.09673526E-01   2.10142805E-03   4.99996054E-02   4.99999082E-02   6.92119233E-02   6.96695192E-02   2.84099288E-03   1.54843661E-11   1.57617977E-10   8.19290235E-04   6.91676739E-02   6.91414494E-02   6.48687624E-11   9.99999993E-04   9.97531483E-04   8.92993738E-11   9.20519800E-11   1.00011488E-10
   6.82500000E+02   5.00000000E-01   5.00000000E-01   1.09027920E-01   1.09673020E-01   2.10024549E-03   4.99996055E-02   4.99999062E-02   6.92119234E-02   6.96572403E-02   2.85176661E-03   1.75408535E-11   1.65768597E-10   8.20467677E-04   6.91679324E-02   6.91414494E-02   6.76259069E-11   9.99999991E-04   9.97531757E-04   8.92993738E-11   9.20517074E-11   1.00011172E-10
   7.17500000E+02   5.00000000E-01   5.00000000E-01   1.09027921E-01   1.09671498E-01   2.09958228E-03   4.99996055E-02   4.99999041E-02   6.92119235E-02   6.96452003E-02   2.86200710E-03   2.01142027E-11   1.74436013E-10   8.21713742E-04   6.91681974E-02   6.91414494E-02   7.07608541E-11   9.99999987E-04   9.97532049E-04   8.92993738E-11   9.20514593E-11   1.00010865E-10
   7.52500000E+02   5.00000000E-01   5.00000000E-01   1.09027923E-01   1.09669078E-01   2.09922296E-03   4.99996056E-02   4.99999018E-02   6.92119236E-02   6.96335823E-02   2.87156733E-03   2.33690771E-11   1.83682740E-10   8.23032766E-04   6.91684693E-02   6.91414494E-02   7.43362681E-11   9.99999981E-04   9.97532360E-04   8.92993738E-11   9.20512344E-11   1.00010568E-10
   7.87500000E+02   5.00000000E-01   5.00000000E-01   1.09027925E-01   1.09665845E-01   2.09904412E-03   4.99996057E-02   4.99998996E-02   6.92119237E-02   6.96224892E-02   2.88036269E-03   2.75320460E-11   1.93567608E-10   8.24428591E-04   6.91687485E-02   6.91414494E-02   7.84277584E-11   9.99999974E-04   9.97532690E-04   8.92993738E-11   9.20510314E-11   1.00010281E-10
   8.22500000E+02   5.00000000E-01   5.00000000E-01   1.09027928E-01   1.09661867E-01   2.09900081E-03   4.99996058E-02   4.99998972E-02   6.92119239E-02   6.96119526E-02   2.88836452E-03   3.29174804E-11   2.04142079E-10   8.25904319E-04   6.91690335E-02   6.91414494E-02   8.31270992E-11   9.99999962E-04   9.97533042E-04   8.92993738E-11   9.20508486E-11   1.00010004E-10
   8.57500000E+02   5.00000000E-01   5.00000000E-01   1.09027933E-01   1.09657196E-01   2.09911202E-03   4.99996059E-02   4.99998948E-02   6.92119241E-02   6.96019451E-02   2.89559258E-03   3.99650880E-11   2.15446239E-10   8.27462069E-04   6.91693208E-02   6.91414494E-02   8.85463786E-11   9.99999946E-04   9.97533416E-04   8.92993738E-11   9.20506846E-11   1.00009737E-10
   8.92500000E+02   5.00000000E-01   5.00000000E-01   1.09027940E-01   1.09651878E-01   2.09944204E-03   4.99996060E-02   4.99998924E-02   6.92119243E-02   6.95923917E-02   2.90210734E-03   4.92944752E-11   2.27504694E-10   8.29102755E-04   6.91696057E-02   6.91414494E-02   9.48233821E-11   9.99999925E-04   9.97533813E-04   8.92993738E-11   9.20505378E-11   1.00009479E-10
   9.27500000E+02   5.00000000E-01   5.00000000E-01   1.09027950E-01   1.09645953E-01   2.10007776E-03   4.99996061E-02   4.99998899E-02   6.92119246E-02   6.95831833E-02   2.90800253E-03   6.17845811E-11   2.40322638E-10   8.30825912E-04   6.91698866E-02   6.91414494E-02   1.02128627E-10   9.99999895E-04   9.97534233E-04   8.92993738E-11   9.20504067E-11   1.00009230E-10
   9.62500000E+02   5.00000000E-01   5.00000000E-01   1.09027966E-01   1.09639462E-01   2.10110757E-03   4.99996062E-02   4.99998874E-02   6.92119251E-02   6.95741896E-02   2.91339701E-03   7.86894553E-11   2.53882497E-10   8.32629572E-04   6.91701687E-02   6.91414494E-02   1.10674614E-10   9.99999857E-04   9.97534676E-04   8.92993738E-11   9.20502899E-11   1.00008989E-10
   9.97500000E+02   5.00000000E-01   5.00000000E-01   1.09027989E-01   1.09632443E-01   2.10261398E-03   4.99996063E-02   4.99998849E-02   6.92119256E-02   6.95652719E-02   2.91842325E-03   1.01807474E-10   2.68141680E-10   8.34510260E-04   6.91704637E-02   6.91414494E-02   1.20728105E-10   9.99999809E-04   9.97535143E-04   8.92993738E-11   9.20501861E-11   1.00008756E-10
   1.03250000E+03   5.00000000E-01   5.00000000E-01   1.09028022E-01   1.09624930E-01   2.10469324E-03   4.99996064E-02   4.99998823E-02   6.92119262E-02   6.95562947E-02   2.92320974E-03   1.33730140E-10   2.83031997E-10   8.36463159E-04   6.91707765E-02   6.91414494E-02   1.32626527E-10   9.99999749E-04   9.97535632E-04   8.92993738E-11   9.20500940E-11   1.00008530E-10
   1.06750000E+03   5.00000000E-01   5.00000000E-01   1.09028071E-01   1.09616952E-01   2.10747402E-03   4.99996065E-02   4.99998797E-02   6.92119270E-02   6.95471342E-02   2.92786647E-03   1.78207742E-10   2.98460237E-10   8.38482342E-04   6.91710907E-02   6.91414494E-02   1.46800123E-10   9.99999678E-04   9.97536144E-04   8.92993738E-11   9.20500123E-11   1.00008312E-10
   1.10250000E+03   5.00000000E-01   5.00000000E-01   1.09028142E-01   1.09608535E-01   2.11107705E-03   4.99996067E-02   4.99998771E-02   6.92119279E-02   6.95376826E-02   2.93249080E-03   2.40678054E-10   3.14308295E-10   8.40560808E-04   6.91713795E-02   6.91414494E-02   1.63802054E-10   9.99999596E-04   9.97536678E-04   8.92993738E-11   9.20499401E-11   1.00008099E-10
   1.13750000E+03   5.00000000E-01   5.00000000E-01   1.09028246E-01   1.09599709E-01   2.11554636E-03   4.99996068E-02   4.99998744E-02   6.92119291E-02   6.95278507E-02   2.93718293E-03   3.29019088E-10   3.30433650E-10   8.42690364E-04   6.91716362E-02   6.91414494E-02   1.84349655E-10   9.99999505E-04   9.97537233E-04   8.92993738E-11   9.20498763E-11   1.00007892E-10
   1.17250000E+03   5.00000000E-01   5.00000000E-01   1.09028393E-01   1.09590514E-01   2.12082092E-03   4.99996070E-02   4.99998718E-02   6.92119306E-02   6.95175710E-02   2.94204968E-03   4.54613228E-10   3.46672386E-10   8.44861676E-04   6.91718934E-02   6.91414494E-02   2.09381486E-10   9.99999407E-04   9.97537808E-04   8.92993738E-11   9.20498199E-11   1.00007691E-10
   1.20750000E+03   5.00000000E-01   5.00000000E-01   1.09028601E-01   1.09580988E-01   2.12679713E-03   4.99996071E-02   4.99998691E-02   6.92119323E-02   6.95068021E-02   2.94718278E-03   6.33863099E-10   3.62846511E-10   8.47064750E-04   6.91722009E-02   6.91414494E-02   2.40137017E-10   9.99999305E-04   9.97538402E-04   8.92993738E-11   9.20497702E-11   1.00007496E-10
   1.24250000E+03   5.00000000E-01   5.00000000E-01   1.09028885E-01   1.09571153E-01   2.13350440E-03   4.99996073E-02   4.99998664E-02   6.92119345E-02   6.94955332E-02   2.95260618E-03   8.90425285E-10   3.78776479E-10   8.49290092E-04   6.91725433E-02   6.91414494E-02   2.78269279E-10   9.99999203E-04   9.97539015E-04   8.92993738E-11   9.20497264E-11   1.00007305E-10
   1.27750000E+03   5.00000000E-01   5.00000000E-01   1.09029264E-01   1.09561018E-01   2.14110499E-03   4.99996075E-02   4.99998637E-02   6.92119371E-02   6.94837765E-02   2.95828319E-03   1.25837888E-09   3.94285487E-10   8.51528935E-04   6.91728225E-02   6.91414494E-02   3.26005667E-10   9.99999105E-04   9.97539645E-04   8.92993738E-11   9.20496877E-11   1.00007119E-10
   1.31250000E+03   5.00000000E-01   5.00000000E-01   1.09029759E-01   1.09550605E-01   2.14963785E-03   4.99996077E-02   4.99998610E-02   6.92119402E-02   6.94715527E-02   2.96420172E-03   1.78631345E-09   4.09191582E-10   8.53771855E-04   6.91729688E-02   6.91414494E-02   3.86379418E-10   9.99999019E-04   9.97540291E-04   8.92993738E-11   9.20496537E-11   1.00006937E-10
   1.34750000E+03   5.00000000E-01   5.00000000E-01   1.09030391E-01   1.09539974E-01   2.15883475E-03   4.99996079E-02   4.99998583E-02   6.92119439E-02   6.94588861E-02   2.97042901E-03   2.54233141E-09   4.23305107E-10   8.56007664E-04   6.91730472E-02   6.91414494E-02   4.63565978E-10   9.99998953E-04   9.97540954E-04   8.92993738E-11   9.20496238E-11   1.00006760E-10
   1.38250000E+03   5.00000000E-01   5.00000000E-01   1.09031168E-01   1.09529245E-01   2.16785195E-03   4.99996082E-02   4.99998556E-02   6.92119484E-02   6.94457992E-02   2.97719136E-03   3.61880437E-09   4.36421689E-10   8.58221547E-04   6.91734051E-02   6.91414494E-02   5.63375877E-10   9.99998917E-04   9.97541631E-04   8.92993738E-11   9.20495975E-11   1.00006588E-10
   1.41750000E+03   5.00000000E-01   5.00000000E-01   1.09032055E-01   1.09518560E-01   2.17595154E-03   4.99996084E-02   4.99998530E-02   6.92119537E-02   6.94323485E-02   2.98464907E-03   5.13982750E-09   4.48372859E-10   8.60399827E-04   6.91743635E-02   6.91414494E-02   6.93988349E-10   9.99998901E-04   9.97542322E-04   8.92993738E-11   9.20495743E-11   1.00006420E-10
   1.45250000E+03   5.00000000E-01   5.00000000E-01   1.09033002E-01   1.09507793E-01   2.18505457E-03   4.99996087E-02   4.99998503E-02   6.92119601E-02   6.94187174E-02   2.99209450E-03   7.29192295E-09   4.59186288E-10   8.62549444E-04   6.91750793E-02   6.91414494E-02   8.67072512E-10   9.99998872E-04   9.97543028E-04   8.92993738E-11   9.20495539E-11   1.00006257E-10
   1.48750000E+03   5.00000000E-01   5.00000000E-01   1.09034019E-01   1.09496853E-01   2.19580945E-03   4.99996090E-02   4.99998477E-02   6.92119677E-02   6.94049751E-02   2.99929191E-03   1.03294930E-08   4.68785231E-10   8.64667350E-04   6.91752743E-02   6.91414494E-02   1.09948329E-09   9.99998845E-04   9.97543751E-04   8.92993738E-11   9.20495359E-11   1.00006097E-10
   1.52250000E+03   5.00000000E-01   5.00000000E-01   1.09035119E-01   1.09486040E-01   2.20555470E-03   4.99996093E-02   4.99998451E-02   6.92119767E-02   6.93910446E-02   3.00707578E-03   1.45409758E-08   4.76882398E-10   8.66723595E-04   6.91760536E-02   6.91414494E-02   1.41584535E-09   9.99998880E-04   9.97544487E-04   8.92993738E-11   9.20495201E-11   1.00005942E-10
   1.55750000E+03   5.00000000E-01   5.00000000E-01   1.09036253E-01   1.09475647E-01   2.21313174E-03   4.99996096E-02   4.99998426E-02   6.92119873E-02   6.93769988E-02   3.01570147E-03   2.02885915E-08   4.83389907E-10   8.68702653E-04   6.91778169E-02   6.91414494E-02   1.85261208E-09   9.99998937E-04   9.97545235E-04   8.92993738E-11   9.20495063E-11   1.00005791E-10
   1.59250000E+03   5.00000000E-01   5.00000000E-01   1.09037413E-01   1.09465444E-01   2.22203123E-03   4.99996099E-02   4.99998401E-02   6.92119998E-02   6.93631326E-02   3.02389220E-03   2.81798581E-08   4.88605561E-10   8.70631727E-04   6.91790289E-02   6.91414494E-02   2.46457440E-09   9.99998926E-04   9.97546002E-04   8.92993738E-11   9.20494941E-11   1.00005644E-10
   1.62750000E+03   5.00000000E-01   5.00000000E-01   1.09038618E-01   1.09455375E-01   2.23290265E-03   4.99996102E-02   4.99998376E-02   6.92120146E-02   6.93495040E-02   3.03141605E-03   3.89716475E-08   4.92534933E-10   8.72510711E-04   6.91793274E-02   6.91414494E-02   3.33521152E-09   9.99998870E-04   9.97546788E-04   8.92993738E-11   9.20494833E-11   1.00005500E-10
   1.66250000E+03   5.00000000E-01   5.00000000E-01   1.09039834E-01   1.09445816E-01   2.24381639E-03   4.99996105E-02   4.99998352E-02   6.92120320E-02   6.93360536E-02   3.03888623E-03   5.34637705E-08   4.95001905E-10   8.74315134E-04   6.91792035E-02   6.91414494E-02   4.59345274E-09   9.99998735E-04   9.97547593E-04   8.92993738E-11   9.20494739E-11   1.00005360E-10
   1.69750000E+03   5.00000000E-01   5.00000000E-01   1.09041053E-01   1.09436828E-01   2.25456767E-03   4.99996109E-02   4.99998329E-02   6.92120524E-02   6.93228675E-02   3.04627237E-03   7.26999855E-08   4.96056474E-10   8.76040043E-04   6.91788766E-02   6.91414494E-02   6.44127556E-09   9.99998554E-04   9.97548417E-04   8.92993738E-11   9.20494656E-11   1.00005223E-10
   1.73250000E+03   5.00000000E-01   5.00000000E-01   1.09042326E-01   1.09428117E-01   2.26599787E-03   4.99996113E-02   4.99998306E-02   6.92120764E-02   6.93100784E-02   3.05319753E-03   9.80948602E-08   4.95850302E-10   8.77692017E-04   6.91784994E-02   6.91414494E-02   9.19963190E-09   9.99998526E-04   9.97549266E-04   8.92993738E-11   9.20494583E-11   1.00005089E-10
   1.76750000E+03   5.00000000E-01   5.00000000E-01   1.09043648E-01   1.09419769E-01   2.27753022E-03   4.99996116E-02   4.99998284E-02   6.92121044E-02   6.92977237E-02   3.05978590E-03   1.31170597E-07   4.94403070E-10   8.79262392E-04   6.91782231E-02   6.91414494E-02   1.33858952E-08   9.99998666E-04   9.97550139E-04   8.92993738E-11   9.20494519E-11   1.00004957E-10
   1.80250000E+03   5.00000000E-01   5.00000000E-01   1.09044975E-01   1.09412157E-01   2.28795855E-03   4.99996120E-02   4.99998263E-02   6.92121372E-02   6.92858273E-02   3.06635152E-03   1.73427072E-07   4.91716337E-10   8.80736818E-04   6.91781443E-02   6.91414494E-02   1.98461085E-08   9.99998815E-04   9.97551039E-04   8.92993738E-11   9.20494462E-11   1.00004828E-10
   1.83750000E+03   5.00000000E-01   5.00000000E-01   1.09046243E-01   1.09405611E-01   2.29615992E-03   4.99996123E-02   4.99998243E-02   6.92121756E-02   6.92744442E-02   3.07314808E-03   2.26274650E-07   4.87844305E-10   8.82103611E-04   6.91785464E-02   6.91414494E-02   2.99832568E-08   9.99998880E-04   9.97551969E-04   8.92993738E-11   9.20494413E-11   1.00004701E-10
   1.87250000E+03   5.00000000E-01   5.00000000E-01   1.09047386E-01   1.09400331E-01   2.30171422E-03   4.99996127E-02   4.99998225E-02   6.92122203E-02   6.92636808E-02   3.08017181E-03   2.91184560E-07   4.82929854E-10   8.83360576E-04   6.91796003E-02   6.91414494E-02   4.61562391E-08   9.99998898E-04   9.97552932E-04   8.92993738E-11   9.20494369E-11   1.00004578E-10
   1.90750000E+03   5.00000000E-01   5.00000000E-01   1.09048419E-01   1.09396289E-01   2.30627887E-03   4.99996131E-02   4.99998209E-02   6.92122726E-02   6.92537439E-02   3.08671749E-03   3.70870255E-07   4.77285706E-10   8.84530589E-04   6.91806386E-02   6.91414494E-02   7.23869111E-08   9.99998926E-04   9.97553936E-04   8.92993738E-11   9.20494331E-11   1.00004458E-10
   1.94250000E+03   5.00000000E-01   5.00000000E-01   1.09049406E-01   1.09393280E-01   2.31179349E-03   4.99996135E-02   4.99998194E-02   6.92123337E-02   6.92448145E-02   3.09202488E-03   4.69403690E-07   4.71188911E-10   8.85639246E-04   6.91809842E-02   6.91414494E-02   1.15625272E-07   9.99998953E-04   9.97554993E-04   8.92993738E-11   9.20494297E-11   1.00004341E-10
   1.97750000E+03   5.00000000E-01   5.00000000E-01   1.09050377E-01   1.09391114E-01   2.31856122E-03   4.99996139E-02   4.99998179E-02   6.92124051E-02   6.92369588E-02   3.09592363E-03   5.90879921E-07   4.64732834E-10   8.86691335E-04   6.91807124E-02   6.91414494E-02   1.88034053E-07   9.99998990E-04   9.97556107E-04   8.92993738E-11   9.20494267E-11   1.00004225E-10
   2.01250000E+03   5.00000000E-01   5.00000000E-01   1.09051339E-01   1.09389907E-01   2.32554128E-03   4.99996142E-02   4.99998166E-02   6.92124886E-02   6.92301841E-02   3.09868934E-03   7.38449277E-07   4.57910981E-10   8.87675825E-04   6.91801174E-02   6.91414494E-02   3.11156735E-07   9.99999036E-04   9.97557286E-04   8.92993738E-11   9.20494240E-11   1.00004110E-10
   2.04750000E+03   5.00000000E-01   5.00000000E-01   1.09052294E-01   1.09390009E-01   2.33137735E-03   4.99996146E-02   4.99998154E-02   6.92125862E-02   6.92245178E-02   3.10066272E-03   9.14289342E-07   4.50735847E-10   8.88580336E-04   6.91793946E-02   6.91414494E-02   5.23585215E-07   9.99999066E-04   9.97558536E-04   8.92993738E-11   9.20494217E-11   1.00003997E-10
   2.08250000E+03   5.00000000E-01   5.00000000E-01   1.09053238E-01   1.09391715E-01   2.33526639E-03   4.99996149E-02   4.99998145E-02   6.92127003E-02   6.92200477E-02   3.10195534E-03   1.12061055E-06   4.43299023E-10   8.89402173E-04   6.91786399E-02   6.91414494E-02   8.95157620E-07   9.99999070E-04   9.97559867E-04   8.92993738E-11   9.20494196E-11   1.00003885E-10
   2.11750000E+03   5.00000000E-01   5.00000000E-01   1.09054169E-01   1.09395211E-01   2.33685413E-03   4.99996153E-02   4.99998137E-02   6.92128338E-02   6.92168978E-02   3.10250655E-03   1.36008651E-06   4.35732915E-10   8.90145933E-04   6.91778985E-02   6.91414494E-02   1.55338200E-06   9.99999050E-04   9.97561290E-04   8.92993738E-11   9.20494178E-11   1.00003775E-10
   2.15250000E+03   5.00000000E-01   5.00000000E-01   1.09055086E-01   1.09400628E-01   2.33593896E-03   4.99996157E-02   4.99998131E-02   6.92129902E-02   6.92152019E-02   3.10219803E-03   1.63578681E-06   4.28170980E-10   8.90818946E-04   6.91771929E-02   6.91414494E-02   2.73274253E-06   9.99999010E-04   9.97562817E-04   8.92993738E-11   9.20494162E-11   1.00003667E-10
   2.18750000E+03   5.00000000E-01   5.00000000E-01   1.09055987E-01   1.09408073E-01   2.33235100E-03   4.99996161E-02   4.99998128E-02   6.92131735E-02   6.92150933E-02   3.10090000E-03   1.95115602E-06   4.20733793E-10   8.91429351E-04   6.91765351E-02   6.91414494E-02   4.86659300E-06   9.99998951E-04   9.97564463E-04   8.92993738E-11   9.20494147E-11   1.00003560E-10
   2.22250000E+03   5.00000000E-01   5.00000000E-01   1.09056874E-01   1.09417638E-01   2.32592959E-03   4.99996165E-02   4.99998127E-02   6.92133886E-02   6.92167011E-02   3.09848173E-03   2.31011087E-06   4.13525990E-10   8.91985538E-04   6.91759312E-02   6.91414494E-02   8.75716418E-06   9.99998873E-04   9.97566241E-04   8.92993738E-11   9.20494135E-11   1.00003456E-10
   2.25750000E+03   5.00000000E-01   5.00000000E-01   1.09057750E-01   1.09429391E-01   2.31652976E-03   4.99996170E-02   4.99998129E-02   6.92136410E-02   6.92201469E-02   3.09481296E-03   2.71721416E-06   4.06635734E-10   8.92495927E-04   6.91753830E-02   6.91414494E-02   1.58843923E-05   9.99998777E-04   9.97568164E-04   8.92993738E-11   9.20494123E-11   1.00003353E-10
   2.29250000E+03   5.00000000E-01   5.00000000E-01   1.09058620E-01   1.09443365E-01   2.30403356E-03   4.99996174E-02   4.99998133E-02   6.92139373E-02   6.92255426E-02   3.08976360E-03   3.17794550E-06   4.00135174E-10   8.92968852E-04   6.91748894E-02   6.91414494E-02   2.89453843E-05   9.99998663E-04   9.97570243E-04   8.92993738E-11   9.20494113E-11   1.00003252E-10
   2.32750000E+03   5.00000000E-01   5.00000000E-01   1.09059490E-01   1.09459541E-01   2.28835904E-03   4.99996179E-02   4.99998139E-02   6.92142846E-02   6.92329876E-02   3.08320253E-03   3.69921064E-06   3.94082749E-10   8.93412595E-04   6.91744465E-02   6.91414494E-02   5.27214865E-05   9.99998532E-04   9.97572484E-04   8.92993738E-11   9.20494104E-11   1.00003154E-10
   2.36250000E+03   5.00000000E-01   5.00000000E-01   1.09060367E-01   1.09477819E-01   2.26946620E-03   4.99996184E-02   4.99998147E-02   6.92146910E-02   6.92425695E-02   3.07499335E-03   4.29039742E-06   3.88528381E-10   8.93835741E-04   6.91740492E-02   6.91414494E-02   9.52254783E-05   9.99998381E-04   9.97574886E-04   8.92993738E-11   9.20494096E-11   1.00003057E-10
   2.39750000E+03   5.00000000E-01   5.00000000E-01   1.09061258E-01   1.09497989E-01   2.24736925E-03   4.99996189E-02   4.99998158E-02   6.92151642E-02   6.92543660E-02   3.06498490E-03   4.96533276E-06   3.83520734E-10   8.94247790E-04   6.91736912E-02   6.91414494E-02   1.68472599E-04   9.99998212E-04   9.97577433E-04   8.92993738E-11   9.20494089E-11   1.00002963E-10
   2.43250000E+03   5.00000000E-01   5.00000000E-01   1.09062170E-01   1.09519699E-01   2.22218543E-03   4.99996195E-02   4.99998169E-02   6.92157116E-02   6.92684416E-02   3.05299778E-03   5.74479609E-06   3.79109643E-10   8.94659343E-04   6.91733658E-02   6.91414494E-02   2.86820992E-04   9.99998022E-04   9.97580089E-04   8.92993738E-11   9.20494082E-11   1.00002871E-10
   2.46750000E+03   5.00000000E-01   5.00000000E-01   1.09063110E-01   1.09542452E-01   2.19426345E-03   4.99996201E-02   4.99998182E-02   6.92163386E-02   6.92848246E-02   3.03882201E-03   6.65682485E-06   3.75327945E-10   8.95080014E-04   6.91730665E-02   6.91414494E-02   4.59858623E-04   9.99997809E-04   9.97582796E-04   8.92993738E-11   9.20494076E-11   1.00002781E-10
   2.50250000E+03   5.00000000E-01   5.00000000E-01   1.09064085E-01   1.09565683E-01   2.16435706E-03   4.99996207E-02   4.99998196E-02   6.92170487E-02   6.93034513E-02   3.02225927E-03   7.72911016E-06   3.72141979E-10   8.95512553E-04   6.91727870E-02   6.91414494E-02   6.81164978E-04   9.99997570E-04   9.97585480E-04   8.92993738E-11   9.20494071E-11   1.00002694E-10
   2.53750000E+03   5.00000000E-01   5.00000000E-01   1.09065104E-01   1.09588893E-01   2.13362471E-03   4.99996213E-02   4.99998210E-02   6.92178438E-02   6.93241120E-02   3.00323008E-03   8.97108135E-06   3.69399963E-10   8.95946146E-04   6.91725217E-02   6.91414494E-02   9.24514399E-04   9.99997303E-04   9.97588069E-04   8.92993738E-11   9.20494066E-11   1.00002609E-10
   2.57250000E+03   5.00000000E-01   5.00000000E-01   1.09066174E-01   1.09611753E-01   2.10327374E-03   4.99996219E-02   4.99998223E-02   6.92187262E-02   6.93464608E-02   2.98189068E-03   1.03555674E-05   3.66839057E-10   8.96356046E-04   6.91722658E-02   6.91414494E-02   1.15645296E-03   9.99997005E-04   9.97590511E-04   8.92993738E-11   9.20494061E-11   1.00002526E-10
   2.60750000E+03   5.00000000E-01   5.00000000E-01   1.09067304E-01   1.09634116E-01   2.07410783E-03   4.99996226E-02   4.99998236E-02   6.92196996E-02   6.93700937E-02   2.95865802E-03   1.18150494E-05   3.64157478E-10   8.96710820E-04   6.91720157E-02   6.91414494E-02   1.35244513E-03   9.99996671E-04   9.97592779E-04   8.92993738E-11   9.20494057E-11   1.00002445E-10
   2.64250000E+03   5.00000000E-01   5.00000000E-01   1.09068504E-01   1.09655968E-01   2.04638046E-03   4.99996233E-02   4.99998249E-02   6.92207694E-02   6.93946248E-02   2.93412143E-03   1.32554405E-05   3.61087239E-10   8.96980070E-04   6.91717687E-02   6.91414494E-02   1.50073644E-03   9.99996299E-04   9.97594866E-04   8.92993738E-11   9.20494053E-11   1.00002366E-10
   2.67750000E+03   5.00000000E-01   5.00000000E-01   1.09069785E-01   1.09677390E-01   2.01993425E-03   4.99996241E-02   4.99998261E-02   6.92219433E-02   6.94197248E-02   2.90890966E-03   1.45785318E-05   3.57429365E-10   8.97138402E-04   6.91715240E-02   6.91414494E-02   1.59886670E-03   9.99995887E-04   9.97596784E-04   8.92993738E-11   9.20494050E-11   1.00002288E-10
   2.71250000E+03   5.00000000E-01   5.00000000E-01   1.09071159E-01   1.09698478E-01   1.99439040E-03   4.99996248E-02   4.99998273E-02   6.92232314E-02   6.94451433E-02   2.88357197E-03   1.57021220E-05   3.53067726E-10   8.97167878E-04   6.91712822E-02   6.91414494E-02   1.65215023E-03   9.99995434E-04   9.97598555E-04   8.92993738E-11   9.20494046E-11   1.00002211E-10