 TITLE = "Mineral Volumes" 
VARIABLES = "X"          "Y"              "Z"            "Forsterite"     "Fayalite"       "Brucite"        "Lizardite"      "Chrysotile"     "Saponite(Mg)"   "Enstatite(alph" "Ferrosilite(al" "Anorthite"      "Albite(low)"    "Clinochlore"    "Sudoite"        "Montmorillonit" "Kaolinite"      "Tremolite"      "Pargasite"      "Anhydrite"      "Epidote"        "Scolecite"      "Pyrite"         "FeS(am)"        "Quartz(alpha)" 
 ZONE I=         100 , J=           1 , K=           1  F=POINT
   1.75000000E+01   5.00000000E-01   5.00000000E-01   9.14198514E-02   1.03489399E-01   2.96490549E-11   1.44364195E-13   1.31547183E-13   0.00000000E+00   4.99978307E-02   4.99990123E-02   3.75441611E-02   7.48693749E-02   7.04238514E-02   2.96681486E-09   1.47189923E-10   1.74543924E-08   6.55743276E-02   6.54078579E-02   4.87210681E-11   9.99999966E-04   9.86489947E-04   5.37604144E-11   6.34743513E-11   1.00244375E-10
   5.25000000E+01   5.00000000E-01   5.00000000E-01   9.14198518E-02   1.05547674E-01   2.96490714E-11   1.69266859E-13   1.49163238E-13   0.00000000E+00   4.99978339E-02   5.00001416E-02   3.75441611E-02   8.05145774E-02   6.44578401E-02   8.57018327E-10   5.25247659E-09   1.69682540E-08   6.58087266E-02   6.54078579E-02   4.94327963E-11   1.00000001E-03   9.86491013E-04   5.37604144E-11   6.34793034E-11   1.00336424E-10
   8.75000000E+01   5.00000000E-01   5.00000000E-01   9.14198520E-02   1.06967258E-01   2.96490862E-11   1.70370824E-13   1.50506478E-13   0.00000000E+00   4.99978354E-02   5.00006984E-02   3.75441612E-02   8.35473017E-02   6.12531132E-02   8.19217983E-10   2.46248133E-07   1.74513238E-08   6.60225492E-02   6.54078579E-02   5.02300897E-11   1.00000000E-03   9.86492557E-04   5.37604144E-11   6.34817345E-11   1.00361188E-10
   1.22500000E+02   5.00000000E-01   5.00000000E-01   9.14198522E-02   1.07696605E-01   2.96491001E-11   1.58729156E-13   1.42917533E-13   0.00000000E+00   4.99978360E-02   5.00009039E-02   3.75441612E-02   8.49587808E-02   5.97530343E-02   1.05829454E-09   6.87916587E-06   1.82852082E-08   6.60169307E-02   6.54078579E-02   5.11281882E-11   1.00000000E-03   9.86494432E-04   5.37604144E-11   6.34828402E-11   1.00359158E-10
   1.57500000E+02   5.00000000E-01   5.00000000E-01   9.14198524E-02   1.08090705E-01   2.96491152E-11   1.46502408E-13   1.34568627E-13   0.00000000E+00   4.99978364E-02   5.00009683E-02   3.75441614E-02   8.54346379E-02   5.91283188E-02   1.57973849E-09   9.99257287E-05   1.93688736E-08   6.58862886E-02   6.54078579E-02   5.21441457E-11   1.00000000E-03   9.86496596E-04   5.37604144E-11   6.34832498E-11   1.00348557E-10
   1.92500000E+02   5.00000000E-01   5.00000000E-01   9.14198527E-02   1.08360673E-01   2.96491350E-11   1.39787448E-13   1.29974157E-13   0.00000000E+00   4.99978369E-02   5.00009822E-02   3.75441615E-02   8.51208925E-02   5.87443113E-02   2.59538542E-09   6.46012353E-04   2.06635679E-08   6.58071025E-02   6.54078579E-02   5.32960780E-11   1.00000000E-03   9.86499031E-04   5.37604144E-11   6.34832494E-11   1.00335037E-10
   2.27500000E+02   5.00000000E-01   5.00000000E-01   9.14198531E-02   1.08580400E-01   2.96491601E-11   1.37672590E-13   1.28699045E-13   0.00000000E+00   4.99978377E-02   5.00009753E-02   3.75441618E-02   8.41664228E-02   5.84187164E-02   4.46946541E-09   1.66421048E-03   2.21267211E-08   6.58055657E-02   6.54078579E-02   5.46048968E-11   1.00000000E-03   9.86501714E-04   5.37604144E-11   6.34829761E-11   1.00320707E-10
   2.62500000E+02   5.00000000E-01   5.00000000E-01   9.14198536E-02   1.08753975E-01   2.96491884E-11   1.36891270E-13   1.28400391E-13   0.00000000E+00   4.99978385E-02   5.00009524E-02   3.75441621E-02   8.30353552E-02   5.81843378E-02   7.73091890E-09   2.75520072E-03   2.37211118E-08   6.58240056E-02   6.54078579E-02   5.60958810E-11   1.00000000E-03   9.86504635E-04   5.37604144E-11   6.34825065E-11   1.00306760E-10
   2.97500000E+02   5.00000000E-01   5.00000000E-01   9.14198543E-02   1.08899870E-01   2.96492192E-11   1.36612083E-13   1.28473069E-13   0.00000000E+00   4.99978394E-02   5.00009200E-02   3.75441625E-02   8.19135789E-02   5.79995535E-02   1.31276484E-08   3.80084303E-03   2.54137299E-08   6.58502123E-02   6.54078579E-02   5.77991765E-11   1.00000000E-03   9.86507788E-04   5.37604144E-11   6.34818994E-11   1.00293505E-10
   3.32500000E+02   5.00000000E-01   5.00000000E-01   9.14198551E-02   1.09031309E-01   2.96492522E-11   1.36632945E-13   1.28772153E-13   0.00000000E+00   4.99978404E-02   5.00008824E-02   3.75441631E-02   8.08486714E-02   5.78349118E-02   2.17054844E-08   4.78524617E-03   2.71647482E-08   6.58818896E-02   6.54078579E-02   5.97508161E-11   1.00000000E-03   9.86511158E-04   5.37604144E-11   6.34811967E-11   1.00280905E-10
   3.67500000E+02   5.00000000E-01   5.00000000E-01   9.14198560E-02   1.09154526E-01   2.96492876E-11   1.36870586E-13   1.29239240E-13   0.00000000E+00   4.99978414E-02   5.00008418E-02   3.75441640E-02   7.98508042E-02   5.76779739E-02   3.48759086E-08   5.70969902E-03   2.89328841E-08   6.59177749E-02   6.54078579E-02   6.19941423E-11   1.00000000E-03   9.86514732E-04   5.37604144E-11   6.34804289E-11   1.00268844E-10
   4.02500000E+02   5.00000000E-01   5.00000000E-01   9.14198571E-02   1.09272062E-01   2.96493251E-11   1.37217905E-13   1.29794265E-13   0.00000000E+00   4.99978424E-02   5.00007992E-02   3.75441651E-02   7.89194599E-02   5.75246405E-02   5.43852998E-08   6.57774463E-03   3.07009070E-08   6.59566249E-02   6.54078579E-02   6.45816699E-11   1.00000000E-03   9.86518510E-04   5.37604144E-11   6.34796199E-11   1.00257220E-10
   4.37500000E+02   5.00000000E-01   5.00000000E-01   9.14198584E-02   1.09384840E-01   2.96493649E-11   1.37527392E-13   1.30321536E-13   0.00000000E+00   4.99978434E-02   5.00007554E-02   3.75441665E-02   7.80512572E-02   5.73742019E-02   8.22940494E-08   7.39264796E-03   3.24754256E-08   6.59971315E-02   6.54078579E-02   6.75775218E-11   1.00000000E-03   9.86522505E-04   5.37604144E-11   6.34787889E-11   1.00245964E-10
   4.72500000E+02   5.00000000E-01   5.00000000E-01   9.14198599E-02   1.09493222E-01   2.96494070E-11   1.37722671E-13   1.30758488E-13   0.00000000E+00   4.99978445E-02   5.00007109E-02   3.75441685E-02   7.72423883E-02   5.72269793E-02   1.20876243E-07   8.15723070E-03   3.42628993E-08   6.60379813E-02   6.54078579E-02   7.10606389E-11   1.00000000E-03   9.86526736E-04   5.37604144E-11   6.34779520E-11   1.00235038E-10
   5.07500000E+02   5.00000000E-01   5.00000000E-01   9.14198616E-02   1.09597480E-01   2.96494515E-11   1.37808748E-13   1.31106679E-13   0.00000000E+00   4.99978455E-02   5.00006661E-02   3.75441710E-02   7.64893861E-02   5.70832037E-02   1.72868416E-07   8.87410814E-03   3.60634724E-08   6.60779348E-02   6.54078579E-02   7.51290370E-11   1.00000000E-03   9.86531223E-04   5.37604144E-11   6.34771222E-11   1.00224426E-10
   5.42500000E+02   5.00000000E-01   5.00000000E-01   9.14198636E-02   1.09698031E-01   2.96494985E-11   1.37824800E-13   1.31395951E-13   0.00000000E+00   4.99978465E-02   5.00006213E-02   3.75441744E-02   7.57892478E-02   5.69424657E-02   2.41688748E-07   9.54600851E-03   3.78597263E-08   6.61158718E-02   6.54078579E-02   7.99055175E-11   1.00000000E-03   9.86535982E-04   5.37604144E-11   6.34763102E-11   1.00214124E-10
   5.77500000E+02   5.00000000E-01   5.00000000E-01   9.14198660E-02   1.09795367E-01   2.96495481E-11   1.37824605E-13   1.31669459E-13   0.00000000E+00   4.99978476E-02   5.00005768E-02   3.75441787E-02   7.51392561E-02   5.68039534E-02   3.31391224E-07   1.01757361E-02   3.96141694E-08   6.61508265E-02   6.54078579E-02   8.55453970E-11   1.00000000E-03   9.86541024E-04   5.37604144E-11   6.34755242E-11   1.00204132E-10
   6.12500000E+02   5.00000000E-01   5.00000000E-01   9.14198686E-02   1.09889773E-01   2.96496005E-11   1.37874573E-13   1.31982554E-13   0.00000000E+00   4.99978485E-02   5.00005328E-02   3.75441844E-02   7.45367791E-02   5.66670657E-02   4.46668351E-07   1.07658643E-02   4.12960236E-08   6.61820171E-02   6.54078579E-02   9.22470708E-11   1.00000000E-03   9.86546370E-04   5.37604144E-11   6.34747703E-11   1.00194456E-10
   6.47500000E+02   5.00000000E-01   5.00000000E-01   9.14198717E-02   1.09981170E-01   2.96496560E-11   1.38057489E-13   1.32406377E-13   0.00000000E+00   4.99978495E-02   5.00004894E-02   3.75441916E-02   7.39791320E-02   5.65317118E-02   5.92372883E-07   1.13186191E-02   4.29114487E-08   6.62088797E-02   6.54078579E-02   1.00266615E-10   1.00000000E-03   9.86552070E-04   5.37604144E-11   6.34740531E-11   1.00185103E-10
   6.82500000E+02   5.00000000E-01   5.00000000E-01   9.14198752E-02   1.10069356E-01   2.96497147E-11   1.38477262E-13   1.33032413E-13   0.00000000E+00   4.99978504E-02   5.00004467E-02   3.75442011E-02   7.34637040E-02   5.63978917E-02   7.73604579E-07   1.18360970E-02   4.44928765E-08   6.62310819E-02   6.54078579E-02   1.09938233E-10   1.00000000E-03   9.86558199E-04   5.37604144E-11   6.34733755E-11   1.00176081E-10
   7.17500000E+02   5.00000000E-01   5.00000000E-01   9.14198792E-02   1.10154422E-01   2.96497769E-11   1.39264216E-13   1.33977651E-13   0.00000000E+00   4.99978514E-02   5.00004048E-02   3.75442133E-02   7.29882425E-02   5.62648290E-02   9.97163079E-07   1.23206954E-02   4.60631828E-08   6.62484850E-02   6.54078579E-02   1.21703284E-10   1.00000000E-03   9.86564844E-04   5.37604144E-11   6.34727395E-11   1.00167396E-10
   7.52500000E+02   5.00000000E-01   5.00000000E-01   9.14198840E-02   1.10236661E-01   2.96498431E-11   1.40586861E-13   1.35395441E-13   0.00000000E+00   4.99978522E-02   5.00003636E-02   3.75442291E-02   7.25507652E-02   5.61313346E-02   1.27105698E-06   1.27749062E-02   4.76301457E-08   6.62611185E-02   6.54078579E-02   1.36152030E-10   1.00000000E-03   9.86572102E-04   5.37604144E-11   6.34721459E-11   1.00159049E-10
   7.87500000E+02   5.00000000E-01   5.00000000E-01   9.14198896E-02   1.10316452E-01   2.96499138E-11   1.42669331E-13   1.37491625E-13   0.00000000E+00   4.99978531E-02   5.00003233E-02   3.75442497E-02   7.21495416E-02   5.59961178E-02   1.60558864E-06   1.32010920E-02   4.91963706E-08   6.62691306E-02   6.54078579E-02   1.54084561E-10   1.00000000E-03   9.86580092E-04   5.37604144E-11   6.34715947E-11   1.00151036E-10
   8.22500000E+02   5.00000000E-01   5.00000000E-01   9.14198962E-02   1.10394211E-01   2.96499895E-11   1.45820091E-13   1.40550960E-13   0.00000000E+00   4.99978539E-02   5.00002837E-02   3.75442765E-02   7.17830948E-02   5.58579261E-02   2.01333596E-06   1.36013774E-02   5.07596996E-08   6.62727546E-02   6.54078579E-02   1.76601076E-10   1.00000000E-03   9.86588962E-04   5.37604144E-11   6.34710851E-11   1.00143350E-10
   8.57500000E+02   5.00000000E-01   5.00000000E-01   9.14199043E-02   1.10470430E-01   2.96500710E-11   1.50477042E-13   1.44978671E-13   0.00000000E+00   4.99978547E-02   5.00002450E-02   3.75443114E-02   7.14502848E-02   5.57154985E-02   2.51076838E-06   1.39776146E-02   5.23123210E-08   6.62722621E-02   6.54078579E-02   2.05237934E-10   9.99999999E-04   9.86598902E-04   5.37604144E-11   6.34706159E-11   1.00135980E-10
   8.92500000E+02   5.00000000E-01   5.00000000E-01   9.14199144E-02   1.10545627E-01   2.96501595E-11   1.57282112E-13   1.51369064E-13   0.00000000E+00   4.99978554E-02   5.00002070E-02   3.75443573E-02   7.11503722E-02   5.55676546E-02   3.11844021E-06   1.43312643E-02   5.38383925E-08   6.62679423E-02   6.54078579E-02   2.42176276E-10   9.99999998E-04   9.86610159E-04   5.37604144E-11   6.34701852E-11   1.00128912E-10
   9.27500000E+02   5.00000000E-01   5.00000000E-01   9.14199271E-02   1.10620337E-01   2.96502561E-11   1.67204279E-13   1.60618634E-13   0.00000000E+00   4.99978561E-02   5.00001698E-02   3.75444179E-02   7.08831631E-02   5.54132497E-02   3.86417569E-06   1.46633060E-02   5.53159689E-08   6.62600627E-02   6.54078579E-02   2.90568023E-10   9.99999997E-04   9.86623067E-04   5.37604144E-11   6.34697911E-11   1.00122132E-10
   9.62500000E+02   5.00000000E-01   5.00000000E-01   9.14199435E-02   1.10695101E-01   2.96503627E-11   1.81749927E-13   1.74119207E-13   0.00000000E+00   4.99978567E-02   5.00001332E-02   3.75444986E-02   7.06491737E-02   5.52510952E-02   4.78505885E-06   1.49741630E-02   5.67210842E-08   6.62488508E-02   6.54078579E-02   3.55055620E-10   9.99999995E-04   9.86638099E-04   5.37604144E-11   6.34694312E-11   1.00115621E-10
   9.97500000E+02   5.00000000E-01   5.00000000E-01   9.14199653E-02   1.10770401E-01   2.96504813E-11   2.03329050E-13   1.94093945E-13   0.00000000E+00   4.99978573E-02   5.00000972E-02   3.75446074E-02   7.04498607E-02   5.50798853E-02   5.92732593E-06   1.52635713E-02   5.80354840E-08   6.62345101E-02   6.54078579E-02   4.42618661E-10   9.99999993E-04   9.86655959E-04   5.37604144E-11   6.34691031E-11   1.00109363E-10
   1.03250000E+03   5.00000000E-01   5.00000000E-01   9.14199947E-02   1.10846540E-01   2.96506149E-11   2.35898398E-13   2.24187606E-13   0.00000000E+00   4.99978578E-02   5.00000617E-02   3.75447567E-02   7.02880742E-02   5.48981730E-02   7.34921448E-06   1.55302239E-02   5.92589538E-08   6.62172268E-02   6.54078579E-02   5.63984908E-10   9.99999990E-04   9.86677747E-04   5.37604144E-11   6.34688043E-11   1.00103337E-10
   1.06750000E+03   5.00000000E-01   5.00000000E-01   9.14200349E-02   1.10923643E-01   2.96507669E-11   2.86087735E-13   2.70502507E-13   0.00000000E+00   4.99978583E-02   5.00000266E-02   3.75449670E-02   7.01690482E-02   5.47037901E-02   9.12861913E-06   1.57713974E-02   6.04021162E-08   6.61971472E-02   6.54078579E-02   7.36040664E-10   9.99999986E-04   9.86705278E-04   5.37604144E-11   6.34685321E-11   1.00097523E-10
   1.10250000E+03   5.00000000E-01   5.00000000E-01   9.14200902E-02   1.11001523E-01   2.96509414E-11   3.65098961E-13   3.43355847E-13   0.00000000E+00   4.99978587E-02   4.99999914E-02   3.75452747E-02   7.01023718E-02   5.44931268E-02   1.13776811E-05   1.59818760E-02   6.14731089E-08   6.61743255E-02   6.54078579E-02   9.86058021E-10   9.99999982E-04   9.86741761E-04   5.37604144E-11   6.34682837E-11   1.00091898E-10
   1.13750000E+03   5.00000000E-01   5.00000000E-01   9.14200883E-02   1.09391610E-01   2.96507936E-11   4.30307378E-13   4.05025323E-13   2.95634153E-02   4.99978358E-02   4.99992976E-02   3.75458262E-02   6.80859281E-02   2.77072248E-02   5.68002614E-05   3.21256658E-02   7.99677446E-08   6.55380044E-02   6.54078579E-02   1.35711550E-09   9.99999979E-04   9.86809781E-04   5.37604144E-11   6.34680386E-11   1.00036940E-10
   1.17250000E+03   5.00000000E-01   5.00000000E-01   9.14201892E-02   1.10161984E-01   2.96510857E-11   6.14031434E-13   5.75123774E-13   0.00000000E+00   4.99978377E-02   4.99994409E-02   3.75466109E-02   6.85249181E-02   5.67356923E-02   2.20290932E-05   1.55233496E-02   6.93171942E-08   6.55369433E-02   6.54078579E-02   1.92814069E-09   9.99999971E-04   9.86885639E-04   5.37604144E-11   6.34679095E-11   1.00039298E-10
   1.20750000E+03   5.00000000E-01   5.00000000E-01   9.14203228E-02   1.10836113E-01   2.96513849E-11   8.99726701E-13   8.40574293E-13   0.00000000E+00   4.99978390E-02   4.99995301E-02   3.75483189E-02   6.90817293E-02   5.51668098E-02   2.58787189E-05   1.62627509E-02   6.82364541E-08   6.55365712E-02   6.54078579E-02   2.83694906E-09   9.99999965E-04   9.87045269E-04   5.37604144E-11   6.34677363E-11   1.00039410E-10
   1.24250000E+03   5.00000000E-01   5.00000000E-01   9.14204928E-02   1.11190714E-01   2.96517216E-11   1.29481349E-12   1.21079893E-12   0.00000000E+00   4.99978399E-02   4.99995569E-02   3.75541385E-02   7.01006865E-02   5.39504592E-02   3.44886190E-05   1.63459740E-02   6.83590607E-08   6.55365140E-02   6.54078579E-02   4.33373935E-09   9.99999960E-04   9.87548075E-04   5.37604144E-11   6.34675288E-11   1.00038047E-10
   1.27750000E+03   5.00000000E-01   5.00000000E-01   9.14206947E-02   1.11179630E-01   2.96521150E-11   1.70403668E-12   1.60184622E-12   0.00000000E+00   4.99978403E-02   4.99995268E-02   3.76165795E-02   7.30839069E-02   5.29313277E-02   5.58112809E-05   1.45801392E-02   6.88941334E-08   6.55368280E-02   6.54078579E-02   6.88936575E-09   9.99999954E-04   9.91800055E-04   5.37604144E-11   6.34672844E-11   1.00035452E-10
   1.31250000E+03   5.00000000E-01   5.00000000E-01   9.14209173E-02   1.11086580E-01   2.96526356E-11   1.90550617E-12   1.80851296E-12   0.00000000E+00   4.99978407E-02   4.99994801E-02   3.84789362E-02   7.72383231E-02   5.21579214E-02   6.31582552E-05   1.03948916E-02   6.75423814E-08   6.55493340E-02   6.54078579E-02   1.14094303E-08   9.99999948E-04   1.02397988E-03   5.37604144E-11   6.34670561E-11   1.00032759E-10
   1.34750000E+03   5.00000000E-01   5.00000000E-01   9.14211517E-02   1.11107769E-01   2.96534527E-11   1.78458384E-12   1.71519237E-12   0.00000000E+00   4.99978415E-02   4.99994418E-02   3.99800104E-02   7.79261228E-02   5.08346641E-02   4.04936581E-05   8.45435186E-03   6.47256275E-08   6.62491261E-02   6.54078579E-02   1.96714295E-08   9.99999941E-04   1.05099610E-03   5.37604144E-11   6.34668862E-11   1.00030464E-10
   1.38250000E+03   5.00000000E-01   5.00000000E-01   9.14213762E-02   1.10638008E-01   2.96543829E-11   1.47551576E-12   1.43725195E-12   4.64209219E-03   4.99978389E-02   4.99992822E-02   4.13528392E-02   7.72400899E-02   4.51779130E-02   8.81633056E-05   1.01229663E-02   6.91662977E-08   6.75412477E-02   6.54078579E-02   3.53592161E-08   9.99999935E-04   1.06003926E-03   5.37604144E-11   6.34667524E-11   1.00022822E-10
   1.41750000E+03   5.00000000E-01   5.00000000E-01   9.14216253E-02   1.10813670E-01   2.96556185E-11   1.17145723E-12   1.15509990E-12   1.67048475E-05   4.99978394E-02   4.99992638E-02   4.26018869E-02   7.69109775E-02   4.80339285E-02   9.08326015E-05   7.11740776E-03   6.62878598E-08   6.87270941E-02   6.54078579E-02   6.66027329E-08   9.99999928E-04   1.06251143E-03   5.37604144E-11   6.34666545E-11   1.00020808E-10
   1.45250000E+03   5.00000000E-01   5.00000000E-01   9.14218868E-02   1.10880050E-01   2.96571185E-11   9.29328631E-13   9.25863069E-13   5.24718868E-14   4.99978397E-02   4.99992268E-02   4.37850070E-02   7.66456536E-02   4.63766757E-02   1.27195689E-04   6.64768573E-03   6.55483287E-08   6.98334396E-02   6.54078579E-02   1.31874684E-07   9.99999923E-04   1.06242134E-03   5.37604144E-11   6.34665687E-11   1.00018428E-10
   1.48750000E+03   5.00000000E-01   5.00000000E-01   9.14221621E-02   1.10877987E-01   2.96589669E-11   7.47232912E-13   7.50730316E-13   3.50896223E-26   4.99978397E-02   4.99991807E-02   4.49405802E-02   7.63813859E-02   4.48942438E-02   1.81997607E-04   6.05673828E-03   6.52453146E-08   7.08922972E-02   6.54078579E-02   2.75331248E-07   9.99999919E-04   1.06103949E-03   5.37604144E-11   6.34664961E-11   1.00015900E-10
   1.52250000E+03   5.00000000E-01   5.00000000E-01   9.14224508E-02   1.10847796E-01   2.96612597E-11   6.10104032E-13   6.17076320E-13   2.73637476E-39   4.99978397E-02   4.99991317E-02   4.60855173E-02   7.61008764E-02   4.35156049E-02   2.65193459E-04   5.37276309E-03   6.52396536E-08   7.19181874E-02   6.54078579E-02   6.08090763E-07   9.99999918E-04   1.05889980E-03   5.37604144E-11   6.34664356E-11   1.00013377E-10
   1.55750000E+03   5.00000000E-01   5.00000000E-01   9.14227516E-02   1.10814836E-01   2.96641169E-11   5.05536949E-13   5.13984645E-13   8.90849712E-51   4.99978397E-02   4.99990839E-02   4.72199866E-02   7.58278901E-02   4.21739562E-02   4.12565019E-04   4.57083757E-03   6.55794246E-08   7.29116968E-02   6.54078580E-02   1.42550738E-06   9.99999919E-04   1.05618070E-03   5.37604144E-11   6.34663855E-11   1.00010980E-10
   1.59250000E+03   5.00000000E-01   5.00000000E-01   9.14230630E-02   1.10801770E-01   2.96676921E-11   4.24818090E-13   4.33620348E-13   1.33416566E-58   4.99978398E-02   4.99990415E-02   4.83439134E-02   7.55973329E-02   4.08017178E-02   7.08919088E-04   3.54079534E-03   6.60588398E-08   7.38745017E-02   6.54078580E-02   3.55945988E-06   9.99999923E-04   1.05312230E-03   5.37604144E-11   6.34663439E-11   1.00008857E-10
   1.62750000E+03   5.00000000E-01   5.00000000E-01   9.14233835E-02   1.10815839E-01   2.96721784E-11   3.61919831E-13   3.70477209E-13   8.94722784E-63   4.99978402E-02   4.99990064E-02   4.94637622E-02   7.54327572E-02   3.93798497E-02   1.14213325E-03   2.28667894E-03   6.55915875E-08   7.48100709E-02   6.54078580E-02   9.49985713E-06   9.99999928E-04   1.04995979E-03   5.37604144E-11   6.34663089E-11   1.00007094E-10
   1.66250000E+03   5.00000000E-01   5.00000000E-01   9.14237113E-02   1.10811639E-01   2.96778110E-11   3.12712935E-13   3.20735957E-13   3.17841795E-65   4.99978407E-02   4.99989731E-02   5.05856576E-02   7.53735641E-02   3.80336472E-02   1.43970624E-03   1.09998711E-03   6.38487561E-08   7.57183298E-02   6.54078580E-02   2.71797812E-05   9.99999935E-04   1.04685647E-03   5.37604144E-11   6.34662785E-11   1.00005551E-10
   1.69750000E+03   5.00000000E-01   5.00000000E-01   9.14240460E-02   1.10735855E-01   2.96848865E-11   2.74395180E-13   2.81779136E-13   5.15274816E-68   4.99978412E-02   4.99989327E-02   5.17398118E-02   7.54183735E-02   3.68766370E-02   1.32107867E-03   2.87941628E-04   6.14457643E-08   7.66059538E-02   6.54078581E-02   8.34552987E-05   9.99999942E-04   1.04417989E-03   5.37604144E-11   6.34662516E-11   1.00003926E-10
   1.73250000E+03   5.00000000E-01   5.00000000E-01   9.14243919E-02   1.10611818E-01   2.96938087E-11   2.44882057E-13   2.51630591E-13   1.37958243E-70   4.99978418E-02   4.99988856E-02   5.29378559E-02   7.51271731E-02   3.58223805E-02   9.43772046E-04   5.06706673E-06   5.60279436E-08   7.74866762E-02   6.54078581E-02   2.73778850E-04   9.99999949E-04   1.04172516E-03   5.37604144E-11   6.34662279E-11   1.00002147E-10
   1.76750000E+03   5.00000000E-01   5.00000000E-01   9.14247512E-02   1.10477331E-01   2.97050258E-11   2.22227508E-13   2.28394749E-13   1.78173184E-73   4.99978425E-02   4.99988345E-02   5.42540080E-02   7.44106403E-02   3.47446260E-02   4.98775007E-04   1.22410237E-08   4.95526565E-08   7.85179408E-02   6.54078582E-02   9.35569094E-04   9.99999955E-04   1.03964661E-03   5.37604144E-11   6.34662088E-11   1.00000226E-10
   1.80250000E+03   5.00000000E-01   5.00000000E-01   9.14251231E-02   1.10333870E-01   2.97190830E-11   2.04517678E-13   2.10165607E-13   2.32197208E-76   4.99978431E-02   4.99987823E-02   5.56895411E-02   7.33517993E-02   3.36595317E-02   1.08038275E-04   8.00168953E-12   4.20330090E-08   7.96226563E-02   6.54078583E-02   3.05109387E-03   9.99999961E-04   1.03747685E-03   5.37604144E-11   6.34661934E-11   9.99983235E-11
   1.83750000E+03   5.00000000E-01   5.00000000E-01   9.14255101E-02   1.10194511E-01   2.97367008E-11   1.90091990E-13   1.95267546E-13   8.44696629E-77   4.99978442E-02   4.99987361E-02   5.70967208E-02   7.18128267E-02   3.25593958E-02   7.46770852E-08   3.25168492E-16   2.92479876E-08   8.06790420E-02   6.54078584E-02   7.90888891E-03   9.99999966E-04   1.03442547E-03   5.37604144E-11   6.34661798E-11   9.99967522E-11
   1.87250000E+03   5.00000000E-01   5.00000000E-01   9.14259077E-02   1.10052661E-01   2.97586942E-11   1.77692528E-13   1.82418314E-13   1.99088550E-76   4.99978454E-02   4.99986959E-02   5.84008077E-02   7.02204341E-02   3.15103856E-02   2.63649146E-09   1.00023826E-18   2.38685875E-08   8.17499715E-02   6.54078585E-02   1.42565788E-02   9.99999971E-04   1.03055909E-03   5.37604144E-11   6.34661689E-11   9.99954970E-11
   1.90750000E+03   5.00000000E-01   5.00000000E-01   9.14262999E-02   1.10006388E-01   2.97860009E-11   1.66522605E-13   1.70799462E-13   3.22631816E-78   4.99978462E-02   4.99986649E-02   5.96452306E-02   6.86790976E-02   3.05321610E-02   2.07462476E-09   1.97898482E-19   2.27956886E-08   8.29044967E-02   6.54078587E-02   1.89129666E-02   9.99999974E-04   1.02641166E-03   5.37604144E-11   6.34661633E-11   9.99943978E-11
   1.94250000E+03   5.00000000E-01   5.00000000E-01   9.14266833E-02   1.10002943E-01   2.98198893E-11   1.56255843E-13   1.60077884E-13   4.42487347E-80   4.99978469E-02   4.99986416E-02   6.06289930E-02   6.73224386E-02   2.99063677E-02   1.92013459E-09   1.00724539E-19   2.22276958E-08   8.36759383E-02   6.54078589E-02   2.09432502E-02   9.99999977E-04   1.02170239E-03   5.37604144E-11   6.34661601E-11   9.99935497E-11
   1.97750000E+03   5.00000000E-01   5.00000000E-01   9.14270591E-02   1.10003719E-01   2.98619083E-11   1.46846141E-13   1.50212380E-13   5.98388919E-81   4.99978477E-02   4.99986238E-02   6.12790632E-02   6.63652280E-02   2.95587871E-02   1.80492438E-09   6.85727172E-20   2.18171160E-08   8.40978857E-02   6.54078592E-02   2.11662703E-02   9.99999979E-04   1.01707656E-03   5.37604144E-11   6.34661578E-11   9.99929397E-11
   2.01250000E+03   5.00000000E-01   5.00000000E-01   9.14274258E-02   1.10005407E-01   2.99139135E-11   1.38362261E-13   1.41282648E-13   3.23014614E-81   4.99978487E-02   4.99986099E-02   6.17173838E-02   6.57258235E-02   2.93189838E-02   1.70670858E-09   5.26854337E-20   2.15245295E-08   8.43826385E-02   6.54078595E-02   2.04831200E-02   9.99999981E-04   1.01306403E-03   5.37604144E-11   6.34661559E-11   9.99924830E-11
   2.04750000E+03   5.00000000E-01   5.00000000E-01   9.14277833E-02   1.10007488E-01   2.99781582E-11   1.30901801E-13   1.33400337E-13   3.58434329E-81   4.99978497E-02   4.99985985E-02   6.20335913E-02   6.52807125E-02   2.91293094E-02   1.61414541E-09   4.27202294E-20   2.13311085E-08   8.46031010E-02   6.54078599E-02   1.94345296E-02   9.99999982E-04   1.00968995E-03   5.37604144E-11   6.34661543E-11   9.99921192E-11
   2.08250000E+03   5.00000000E-01   5.00000000E-01   9.14281335E-02   1.10009806E-01   3.00573729E-11   1.24525609E-13   1.26639373E-13   5.75493829E-81   4.99978508E-02   4.99985889E-02   6.22759881E-02   6.49538197E-02   2.89689057E-02   1.52135886E-09   3.54729638E-20   2.12231641E-08   8.47855304E-02   6.54078605E-02   1.82812971E-02   9.99999983E-04   1.00685175E-03   5.37604144E-11   6.34661530E-11   9.99918127E-11
   2.11750000E+03   5.00000000E-01   5.00000000E-01   9.14284801E-02   1.10012366E-01   3.01548589E-11   1.19228209E-13   1.21003438E-13   1.11280571E-80   4.99978520E-02   4.99985805E-02   6.24711134E-02   6.47021099E-02   2.88276747E-02   1.42759585E-09   2.96160403E-20   2.11828018E-08   8.49424832E-02   6.54078612E-02   1.71342338E-02   9.99999984E-04   1.00444610E-03   5.37604144E-11   6.34661517E-11   9.99915424E-11
   2.15250000E+03   5.00000000E-01   5.00000000E-01   9.14288286E-02   1.10015281E-01   3.02746027E-11   1.14937712E-13   1.16424640E-13   2.35754224E-80   4.99978532E-02   4.99985728E-02   6.26346034E-02   6.44999957E-02   2.86999382E-02   1.33717153E-09   2.44777209E-20   2.11796168E-08   8.50808492E-02   6.54078621E-02   1.60341104E-02   9.99999985E-04   1.00239042E-03   5.37604144E-11   6.34661506E-11   9.99912961E-11
   2.18750000E+03   5.00000000E-01   5.00000000E-01   9.14291849E-02   1.10018690E-01   3.04214149E-11   1.11534496E-13   1.12782555E-13   5.22341478E-80   4.99978545E-02   4.99985658E-02   6.27764504E-02   6.43309866E-02   2.85822248E-02   1.25781416E-09   1.97461605E-20   2.11696056E-08   8.52047954E-02   6.54078633E-02   1.49929257E-02   9.99999985E-04   1.00062143E-03   5.37604144E-11   6.34661496E-11   9.99910667E-11
   2.22250000E+03   5.00000000E-01   5.00000000E-01   9.14295559E-02   1.10022575E-01   3.06010997E-11   1.08876553E-13   1.09930940E-13   1.18222146E-79   4.99978558E-02   4.99985592E-02   6.29032434E-02   6.41841640E-02   2.84723020E-02   1.19459085E-09   1.54311321E-20   2.11118574E-08   8.53172931E-02   6.54078647E-02   1.40126111E-02   9.99999985E-04   9.99090349E-04   5.37604144E-11   6.34661487E-11   9.99908506E-11
   2.25750000E+03   5.00000000E-01   5.00000000E-01   9.14299481E-02   1.10026634E-01   3.08206617E-11   1.06821210E-13   1.07721032E-13   2.70550787E-79   4.99978572E-02   4.99985530E-02   6.30186412E-02   6.40532447E-02   2.83691784E-02   1.14347685E-09   1.17315417E-20   2.09940433E-08   8.54202304E-02   6.54078666E-02   1.30897653E-02   9.99999984E-04   9.97758544E-04   5.37604144E-11   6.34661479E-11   9.99906456E-11
   2.29250000E+03   5.00000000E-01   5.00000000E-01   9.14303685E-02   1.10030459E-01   3.10885594E-11   1.05239865E-13   1.06017663E-13   6.27943895E-79   4.99978587E-02   4.99985471E-02   6.31240179E-02   6.39354678E-02   2.82729291E-02   1.09451456E-09   8.77615965E-21   2.08330086E-08   8.55142259E-02   6.54078688E-02   1.22192909E-02   9.99999983E-04   9.96594790E-04   5.37604144E-11   6.34661470E-11   9.99904507E-11
   2.32750000E+03   5.00000000E-01   5.00000000E-01   9.14308240E-02   1.10033812E-01   3.14150175E-11   1.04024318E-13   1.04706433E-13   1.49313171E-78   4.99978602E-02   4.99985414E-02   6.32200021E-02   6.38295920E-02   2.81835754E-02   1.04020640E-09   6.52372625E-21   2.06514252E-08   8.55996265E-02   6.54078716E-02   1.14000275E-02   9.99999981E-04   9.95573928E-04   5.37604144E-11   6.34661463E-11   9.99902653E-11
   2.36250000E+03   5.00000000E-01   5.00000000E-01   9.14313217E-02   1.10036617E-01   3.18124111E-11   1.03087946E-13   1.03695338E-13   3.67245996E-78   4.99978617E-02   4.99985359E-02   6.33073760E-02   6.37346086E-02   2.81005607E-02   9.77897837E-10   4.84266645E-21   2.04633604E-08   8.56771958E-02   6.54078751E-02   1.06326211E-02   9.99999979E-04   9.94675674E-04   5.37604144E-11   6.34661455E-11   9.99900887E-11
   2.39750000E+03   5.00000000E-01   5.00000000E-01   9.14318689E-02   1.10038826E-01   3.22957433E-11   1.02363461E-13   1.02912636E-13   9.41149205E-78   4.99978634E-02   4.99985305E-02   6.33871442E-02   6.36493880E-02   2.80229798E-02   9.07432816E-10   3.59478527E-21   2.02745659E-08   8.57480161E-02   6.54078795E-02   9.91142408E-03   9.99999976E-04   9.93883446E-04   5.37604144E-11   6.34661448E-11   9.99899204E-11