 TITLE = "Mineral Volumes" 
VARIABLES = "X"          "Y"              "Z"            "Forsterite"     "Fayalite"       "Brucite"        "Lizardite"      "Chrysotile"     "Hematite"       "Magnetite(am)"  "Saponite(Ca)"   "Saponite(K)"    "Saponite(Mg)"   "Saponite(Na)"   "Beidellite(Ca)" "Beidellite(K)"  "Beidellite(Mg)" "Beidellite(Na)" "Enstatite(alph" "Ferrosilite(al" "Anorthite"      "Albite(low)"    "Clinochlore"    "Sudoite"        "Montmor(MgCa)"  "Montmor(MgK)"   "Montmor(MgMg)"  "Montmor(MgNa)"  "Kaolinite"      "Tremolite"      "Pargasite"      "Anhydrite"      "Epidote"        "Scolecite"      "Pyrite"         "FeS(am)"        "Quartz(alpha)"  "Titanite"       "Rutile"         "Barite"         "Fluorite"       "Spessartine(al" "Andradite"      "Celestite"      "Zincite"        "Chalcocyanite"  "Chalcocite(alp"
 ZONE I=         200 , J=           1 , K=           1  F=POINT
   8.75000000E+00   5.00000000E-01   5.00000000E-01   1.07574566E-01   1.09070151E-01   8.63407884E-11   5.94017416E-11   5.49925416E-11   2.00385226E-04   2.43474325E-13   1.04920879E-10   2.18480435E-09   1.25181008E-10   4.08711112E-04   9.79315888E-11   9.97876445E-11   9.79465682E-11   9.79259887E-11   4.99973932E-02   4.99976993E-02   6.49321076E-02   6.87684034E-02   2.13596730E-02   0.00000000E+00   9.95419236E-11   9.99533131E-11   9.95452989E-11   9.95408193E-11   9.98577034E-04   6.46573933E-02   6.44935896E-02   0.00000000E+00   8.16135585E-03   8.48091535E-11   9.27864331E-11   9.46649643E-11   1.00106056E-10   9.99994891E-05   1.00000136E-04   1.03173681E-04   9.99997616E-05   8.12069135E-04   9.99978766E-05   9.99999248E-05   9.96605958E-04   9.99999333E-05   1.00002176E-04
   2.62500000E+01   5.00000000E-01   5.00000000E-01   1.07574566E-01   1.09074905E-01   8.63406352E-11   5.31055718E-11   5.05147858E-11   2.00385225E-04   2.43497310E-13   1.07272469E-10   4.45981835E-09   1.37845356E-10   1.17896094E-03   9.79316010E-11   9.97876615E-11   9.79466237E-11   9.79261347E-11   4.99973922E-02   4.99978079E-02   6.49321076E-02   6.88755146E-02   2.10528715E-02   0.00000000E+00   9.95422306E-11   9.99540431E-11   9.95465898E-11   9.95460176E-11   9.98577103E-04   6.46875369E-02   6.44935896E-02   0.00000000E+00   8.16135585E-03   8.48091809E-11   9.27864331E-11   9.46649643E-11   1.00170635E-10   9.99994633E-05   1.00000151E-04   1.01191779E-04   9.99997583E-05   8.12069135E-04   9.99978766E-05   9.99999247E-05   9.96606003E-04   9.99999333E-05   1.00000024E-04
   4.37500000E+01   5.00000000E-01   5.00000000E-01   1.07574566E-01   1.09079647E-01   8.63405723E-11   4.98624676E-11   4.81473763E-11   2.00385225E-04   2.43512564E-13   1.08790014E-10   5.65785001E-09   1.46229644E-10   1.30318796E-03   9.79317233E-11   9.97878233E-11   9.79471784E-11   9.79275585E-11   4.99973917E-02   4.99979030E-02   6.49321076E-02   6.91623968E-02   2.07189971E-02   0.00000000E+00   9.95440952E-11   9.99582371E-11   9.95544235E-11   9.95766359E-11   9.98577459E-04   6.47087057E-02   6.44935896E-02   0.00000000E+00   8.16135585E-03   8.48093062E-11   9.27864331E-11   9.46649643E-11   1.00226474E-10   9.99994463E-05   1.00000166E-04   1.00404235E-04   9.99997552E-05   8.12069135E-04   9.99978766E-05   9.99999247E-05   9.96606005E-04   9.99999333E-05   1.00000024E-04
   6.12500000E+01   5.00000000E-01   5.00000000E-01   1.07574566E-01   1.09084594E-01   8.63405429E-11   4.81967504E-11   4.69171884E-11   2.00385224E-04   2.43525860E-13   1.10042470E-10   6.48271025E-09   1.53315354E-10   1.60571713E-03   9.79320943E-11   9.97882866E-11   9.79488584E-11   9.79317425E-11   4.99973916E-02   4.99979949E-02   6.49321076E-02   6.95877580E-02   2.01946678E-02   0.00000000E+00   9.95485328E-11   9.99675976E-11   9.95730484E-11   9.96469918E-11   9.98578144E-04   6.47261820E-02   6.44935896E-02   0.00000000E+00   8.16135585E-03   8.48095428E-11   9.27864331E-11   9.46649643E-11   1.00272495E-10   9.99994385E-05   1.00000179E-04   1.00070118E-04   9.99997523E-05   8.12069135E-04   9.99978766E-05   9.99999247E-05   9.96606040E-04   9.99999333E-05   1.00000024E-04
   7.87500000E+01   5.00000000E-01   5.00000000E-01   1.07574566E-01   1.09090097E-01   8.63405278E-11   4.73592071E-11   4.62986629E-11   2.00385224E-04   2.43539386E-13   1.11357405E-10   7.38010884E-09   1.60958586E-10   2.04877794E-03   9.79327912E-11   9.97891048E-11   9.79520089E-11   9.79393410E-11   4.99973918E-02   4.99980860E-02   6.49321076E-02   7.00720163E-02   1.95733201E-02   0.00000000E+00   9.95555291E-11   9.99813530E-11   9.96023849E-11   9.97537766E-11   9.98579100E-04   6.47486622E-02   6.44935896E-02   0.00000000E+00   8.16135585E-03   8.48098675E-11   9.27864331E-11   9.46649643E-11   1.00308439E-10   9.99994358E-05   1.00000191E-04   9.99185094E-05   9.99997497E-05   8.12069135E-04   9.99978766E-05   9.99999247E-05   9.96606105E-04   9.99999333E-05   1.00000024E-04
   9.62500000E+01   5.00000000E-01   5.00000000E-01   1.07574566E-01   1.09096262E-01   8.63405200E-11   4.69161292E-11   4.59749761E-11   2.00385224E-04   2.43553778E-13   1.12745986E-10   8.31279763E-09   1.69245274E-10   2.50804796E-03   9.79337940E-11   9.97902067E-11   9.79565354E-11   9.79498871E-11   4.99973922E-02   4.99981758E-02   6.49321076E-02   7.05432799E-02   1.89616900E-02   0.00000000E+00   9.95642582E-11   9.99972259E-11   9.96389527E-11   9.98815522E-11   9.98580227E-04   6.47774166E-02   6.44935896E-02   0.00000000E+00   8.16135585E-03   8.48102435E-11   9.27864331E-11   9.46649643E-11   1.00335299E-10   9.99994353E-05   1.00000203E-04   9.98439397E-05   9.99997473E-05   8.12069135E-04   9.99978766E-05   9.99999247E-05   9.96606190E-04   9.99999333E-05   1.00000024E-04
   1.13750000E+02   5.00000000E-01   5.00000000E-01   1.07574566E-01   1.09103049E-01   8.63405164E-11   4.66628677E-11   4.57940828E-11   2.00385224E-04   2.43569188E-13   1.14134274E-10   9.13356163E-09   1.77739931E-10   2.89983715E-03   9.79349694E-11   9.97914040E-11   9.79618321E-11   9.79617528E-11   4.99973927E-02   4.99982639E-02   6.49321076E-02   7.09492712E-02   1.84357311E-02   0.00000000E+00   9.95734355E-11   1.00012449E-10   9.96773595E-11   1.00009506E-10   9.98581364E-04   6.48105706E-02   6.44935896E-02   0.00000000E+00   8.16135585E-03   8.48106210E-11   9.27864331E-11   9.46649643E-11   1.00354744E-10   9.99994357E-05   1.00000213E-04   9.98032812E-05   9.99997451E-05   8.12069135E-04   9.99978766E-05   9.99999247E-05   9.96606291E-04   9.99999333E-05   1.00000024E-04
   1.31250000E+02   5.00000000E-01   5.00000000E-01   1.07574566E-01   1.09110385E-01   8.63405154E-11   4.65082901E-11   4.56877398E-11   2.00385224E-04   2.43585676E-13   1.15460378E-10   9.73364834E-09   1.86043612E-10   3.19534146E-03   9.79361585E-11   9.97925107E-11   9.79671795E-11   9.79731914E-11   4.99973932E-02   4.99983498E-02   6.49321076E-02   7.12682016E-02   1.80255960E-02   0.00000000E+00   9.95820051E-11   1.00025141E-10   9.97131791E-11   1.00122125E-10   9.98582378E-04   6.48457723E-02   6.44935896E-02   0.00000000E+00   8.16135586E-03   8.48109616E-11   9.27864331E-11   9.46649643E-11   1.00368511E-10   9.99994364E-05   1.00000221E-04   9.97781378E-05   9.99997431E-05   8.12069135E-04   9.99978766E-05   9.99999246E-05   9.96606404E-04   9.99999333E-05   1.00000024E-04
   1.48750000E+02   5.00000000E-01   5.00000000E-01   1.07574566E-01   1.09118204E-01   8.63405162E-11   4.64118142E-11   4.56254900E-11   2.00385223E-04   2.43603298E-13   1.16692407E-10   1.00726767E-08   1.93919878E-10   3.39839170E-03   9.79372535E-11   9.97934237E-11   9.79720929E-11   9.79831355E-11   4.99973938E-02   4.99984335E-02   6.49321076E-02   7.15023679E-02   1.77279095E-02   0.00000000E+00   9.95894479E-11   1.00034681E-10   9.97442432E-11   1.00213022E-10   9.98583205E-04   6.48812190E-02   6.44935896E-02   0.00000000E+00   8.16135586E-03   8.48112483E-11   9.27864331E-11   9.46649643E-11   1.00378085E-10   9.99994370E-05   1.00000229E-04   9.97603587E-05   9.99997412E-05   8.12069135E-04   9.99978766E-05   9.99999246E-05   9.96606527E-04   9.99999333E-05   1.00000024E-04
   1.66250000E+02   5.00000000E-01   5.00000000E-01   1.07574566E-01   1.09126450E-01   8.63405183E-11   4.63540664E-11   4.55928204E-11   2.00385223E-04   2.43622115E-13   1.17819324E-10   1.01617341E-08   2.01257697E-10   3.52587570E-03   9.79382104E-11   9.97941193E-11   9.79763748E-11   9.79912425E-11   4.99973945E-02   4.99985149E-02   6.49321076E-02   7.16654848E-02   1.75240003E-02   0.00000000E+00   9.95956783E-11   1.00041285E-10   9.97702003E-11   1.00282462E-10   9.98583840E-04   6.49157313E-02   6.44935896E-02   0.00000000E+00   8.16135586E-03   8.48114799E-11   9.27864331E-11   9.46649643E-11   1.00384609E-10   9.99994374E-05   1.00000235E-04   9.97462063E-05   9.99997394E-05   8.12069135E-04   9.99978766E-05   9.99999246E-05   9.96606658E-04   9.99999333E-05   1.00000024E-04
   1.83750000E+02   5.00000000E-01   5.00000000E-01   1.07574566E-01   1.09135077E-01   8.63405214E-11   4.63245978E-11   4.55819338E-11   2.00385223E-04   2.43642179E-13   1.18840561E-10   1.00388586E-08   2.08016556E-10   3.59685868E-03   9.79390280E-11   9.97946198E-11   9.79800226E-11   9.79976192E-11   4.99973952E-02   4.99985940E-02   6.49321076E-02   7.17736666E-02   1.73921225E-02   0.00000000E+00   9.96008375E-11   1.00045515E-10   9.97916506E-11   1.00333807E-10   9.98584304E-04   6.49485487E-02   6.44935896E-02   0.00000000E+00   8.16135586E-03   8.48116637E-11   9.27864331E-11   9.46649643E-11   1.00388913E-10   9.99994375E-05   1.00000240E-04   9.97339118E-05   9.99997378E-05   8.12069135E-04   9.99978766E-05   9.99999246E-05   9.96606796E-04   9.99999333E-05   1.00000024E-04
   2.01250000E+02   5.00000000E-01   5.00000000E-01   1.07574566E-01   1.09144037E-01   8.63405254E-11   4.63170482E-11   4.55881033E-11   2.00385223E-04   2.43663536E-13   1.19760296E-10   9.75143052E-09   2.14193384E-10   3.62790168E-03   9.79397259E-11   9.97949639E-11   9.79831265E-11   9.80025616E-11   4.99973959E-02   4.99986707E-02   6.49321076E-02   7.18411813E-02   1.73131010E-02   0.00000000E+00   9.96051421E-11   1.00047973E-10   9.98095064E-11   1.00371140E-10   9.98584633E-04   6.49791717E-02   6.44935896E-02   0.00000000E+00   8.16135586E-03   8.48118092E-11   9.27864331E-11   9.46649643E-11   1.00391584E-10   9.99994373E-05   1.00000244E-04   9.97226150E-05   9.99997363E-05   8.12069135E-04   9.99978766E-05   9.99999246E-05   9.96606939E-04   9.99999333E-05   1.00000024E-04
   2.18750000E+02   5.00000000E-01   5.00000000E-01   1.07574566E-01   1.09153286E-01   8.63405301E-11   4.63272009E-11   4.56082085E-11   2.00385223E-04   2.43686224E-13   1.20584974E-10   9.34620185E-09   2.19806957E-10   3.63180194E-03   9.79403301E-11   9.97951909E-11   9.79858038E-11   9.80063977E-11   4.99973966E-02   4.99987451E-02   6.49321076E-02   7.18792111E-02   1.72719525E-02   0.00000000E+00   9.96088038E-11   1.00049170E-10   9.98246583E-11   1.00398132E-10   9.98584859E-04   6.50072838E-02   6.44935896E-02   0.00000000E+00   8.16135587E-03   8.48119256E-11   9.27864331E-11   9.46649643E-11   1.00393035E-10   9.99994367E-05   1.00000247E-04   9.97118881E-05   9.99997349E-05   8.12069135E-04   9.99978766E-05   9.99999246E-05   9.96607088E-04   9.99999333E-05   1.00000024E-04
   2.36250000E+02   5.00000000E-01   5.00000000E-01   1.07574566E-01   1.09162781E-01   8.63405355E-11   4.63521068E-11   4.56400776E-11   2.00385222E-04   2.43710282E-13   1.21322264E-10   8.86440279E-09   2.24890346E-10   3.61782457E-03   9.79408648E-11   9.97953335E-11   9.79881651E-11   9.80094164E-11   4.99973974E-02   4.99988171E-02   6.49321076E-02   7.18959866E-02   1.72576869E-02   0.00000000E+00   9.96119985E-11   1.00049493E-10   9.98378452E-11   1.00417689E-10   9.98585009E-04   6.50327148E-02   6.44935896E-02   0.00000000E+00   8.16135587E-03   8.48120204E-11   9.27864331E-11   9.46649643E-11   1.00393553E-10   9.99994357E-05   1.00000248E-04   9.97015144E-05   9.99997336E-05   8.12069135E-04   9.99978766E-05   9.99999246E-05   9.96607242E-04   9.99999333E-05   1.00000024E-04
   2.53750000E+02   5.00000000E-01   5.00000000E-01   1.07574566E-01   1.09172483E-01   8.63405413E-11   4.63896174E-11   4.56821373E-11   2.00385222E-04   2.43735753E-13   1.21980514E-10   8.33983865E-09   2.29486264E-10   3.59239488E-03   9.79413502E-11   9.97954168E-11   9.79903015E-11   9.80118459E-11   4.99973982E-02   4.99988867E-02   6.49321076E-02   7.18973638E-02   1.72625264E-02   0.00000000E+00   9.96148600E-11   1.00049223E-10   9.98496295E-11   1.00431951E-10   9.98585104E-04   6.50554186E-02   6.44935896E-02   0.00000000E+00   8.16135587E-03   8.48120996E-11   9.27864331E-11   9.46649643E-11   1.00393343E-10   9.99994343E-05   1.00000249E-04   9.96913841E-05   9.99997324E-05   8.12069135E-04   9.99978766E-05   9.99999246E-05   9.96607399E-04   9.99999333E-05   1.00000024E-04
   2.71250000E+02   5.00000000E-01   5.00000000E-01   1.07574566E-01   1.09182357E-01   8.63405477E-11   4.64381208E-11   4.57332156E-11   2.00385222E-04   2.43762682E-13   1.22568350E-10   7.79867026E-09   2.33643381E-10   3.55981592E-03   9.79418016E-11   9.97954589E-11   9.79922823E-11   9.80138544E-11   4.99973991E-02   4.99989539E-02   6.49321076E-02   7.18874353E-02   1.72810814E-02   0.00000000E+00   9.96174847E-11   1.00048550E-10   9.98604149E-11   1.00442421E-10   9.98585160E-04   6.50754530E-02   6.44935896E-02   0.00000000E+00   8.16135587E-03   8.48121674E-11   9.27864331E-11   9.46649643E-11   1.00392555E-10   9.99994325E-05   1.00000248E-04   9.96814416E-05   9.99997313E-05   8.12069135E-04   9.99978766E-05   9.99999246E-05   9.96607560E-04   9.99999333E-05   1.00000024E-04
   2.88750000E+02   5.00000000E-01   5.00000000E-01   1.07574566E-01   1.09192373E-01   8.63405546E-11   4.64964083E-11   4.57924429E-11   2.00385222E-04   2.43791126E-13   1.23094347E-10   7.26008413E-09   2.37413109E-10   3.52286765E-03   9.79422299E-11   9.97954721E-11   9.79941566E-11   9.80155587E-11   4.99974000E-02   4.99990187E-02   6.49321076E-02   7.18690388E-02   1.73096653E-02   0.00000000E+00   9.96199384E-11   1.00047601E-10   9.98704769E-11   1.00450116E-10   9.98585188E-04   6.50929578E-02   6.44935896E-02   0.00000000E+00   8.16135587E-03   8.48122269E-11   9.27864331E-11   9.46649643E-11   1.00391297E-10   9.99994303E-05   1.00000246E-04   9.96716604E-05   9.99997303E-05   8.12069135E-04   9.99978766E-05   9.99999246E-05   9.96607724E-04   9.99999333E-05   1.00000024E-04
   3.06250000E+02   5.00000000E-01   5.00000000E-01   1.07574566E-01   1.09202505E-01   8.63405620E-11   4.65636252E-11   4.58592196E-11   2.00385221E-04   2.43821150E-13   1.23566744E-10   6.73736508E-09   2.40846838E-10   3.48326616E-03   9.79426424E-11   9.97954644E-11   9.79959566E-11   9.80170360E-11   4.99974009E-02   4.99990812E-02   6.49321076E-02   7.18441406E-02   1.73457759E-02   0.00000000E+00   9.96222631E-11   1.00046461E-10   9.98799923E-11   1.00455700E-10   9.98585195E-04   6.51081331E-02   6.44935896E-02   0.00000000E+00   8.16135588E-03   8.48122800E-11   9.27864331E-11   9.46649643E-11   1.00389654E-10   9.99994277E-05   1.00000243E-04   9.96620289E-05   9.99997293E-05   8.12069135E-04   9.99978766E-05   9.99999246E-05   9.96607892E-04   9.99999333E-05   1.00000024E-04
   3.23750000E+02   5.00000000E-01   5.00000000E-01   1.07574566E-01   1.09212733E-01   8.63405698E-11   4.66392680E-11   4.59332195E-11   2.00385221E-04   2.43852834E-13   1.23993222E-10   6.23907792E-09   2.43993713E-10   3.44200422E-03   9.79430431E-11   9.97954411E-11   9.79977013E-11   9.80183331E-11   4.99974018E-02   4.99991413E-02   6.49321076E-02   7.18141109E-02   1.73877195E-02   0.00000000E+00   9.96244841E-11   1.00045180E-10   9.98890658E-11   1.00459588E-10   9.98585185E-04   6.51212172E-02   6.44935896E-02   0.00000000E+00   8.16135588E-03   8.48123281E-11   9.27864331E-11   9.46649643E-11   1.00387694E-10   9.99994249E-05   1.00000239E-04   9.96525442E-05   9.99997284E-05   8.12069135E-04   9.99978766E-05   9.99999246E-05   9.96608062E-04   9.99999333E-05   1.00000024E-04
   3.41250000E+02   5.00000000E-01   5.00000000E-01   1.07574566E-01   1.09223040E-01   8.63405781E-11   4.67231906E-11   4.60144008E-11   2.00385221E-04   2.43886267E-13   1.24380754E-10   5.77019262E-09   2.46899038E-10   3.39960227E-03   9.79434341E-11   9.97954049E-11   9.79993995E-11   9.80194756E-11   4.99974028E-02   4.99991993E-02   6.49321076E-02   7.17799198E-02   1.74343423E-02   0.00000000E+00   9.96266139E-11   1.00043791E-10   9.98977505E-11   1.00462026E-10   9.98585162E-04   6.51324667E-02   6.44935896E-02   0.00000000E+00   8.16135588E-03   8.48123718E-11   9.27864331E-11   9.46649643E-11   1.00385468E-10   9.99994217E-05   1.00000235E-04   9.96432075E-05   9.99997276E-05   8.12069135E-04   9.99978766E-05   9.99999246E-05   9.96608236E-04   9.99999333E-05   1.00000024E-04
   3.58750000E+02   5.00000000E-01   5.00000000E-01   1.07574567E-01   1.09233413E-01   8.63405870E-11   4.68155939E-11   4.61030027E-11   2.00385221E-04   2.43921552E-13   1.24735525E-10   5.33306956E-09   2.49603338E-10   3.35629361E-03   9.79438158E-11   9.97953575E-11   9.80010528E-11   9.80204751E-11   4.99974038E-02   4.99992552E-02   6.49321076E-02   7.17422746E-02   1.74848391E-02   0.00000000E+00   9.96286570E-11   1.00042315E-10   9.99060653E-11   1.00463156E-10   9.98585127E-04   6.51421379E-02   6.44935896E-02   0.00000000E+00   8.16135589E-03   8.48124116E-11   9.27864331E-11   9.46649643E-11   1.00383020E-10   9.99994183E-05   1.00000229E-04   9.96340224E-05   9.99997269E-05   8.12069135E-04   9.99978766E-05   9.99999246E-05   9.96608413E-04   9.99999333E-05   1.00000024E-04
   3.76250000E+02   5.00000000E-01   5.00000000E-01   1.07574567E-01   1.09243843E-01   8.63405963E-11   4.69169912E-11   4.61995228E-11   2.00385220E-04   2.43958802E-13   1.25062929E-10   4.92826978E-09   2.52142081E-10   3.31215837E-03   9.79441874E-11   9.97952998E-11   9.80026586E-11   9.80213349E-11   4.99974048E-02   4.99993091E-02   6.49321076E-02   7.17017168E-02   1.75386182E-02   0.00000000E+00   9.96306133E-11   1.00040763E-10   9.99140093E-11   1.00463058E-10   9.98585082E-04   6.51504730E-02   6.44935896E-02   0.00000000E+00   8.16135589E-03   8.48124476E-11   9.27864331E-11   9.46649643E-11   1.00380388E-10   9.99994146E-05   1.00000223E-04   9.96249939E-05   9.99997261E-05   8.12069135E-04   9.99978766E-05   9.99999246E-05   9.96608593E-04   9.99999333E-05   1.00000024E-04
   3.93750000E+02   5.00000000E-01   5.00000000E-01   1.07574567E-01   1.09254322E-01   8.63406062E-11   4.70281601E-11   4.63046818E-11   2.00385220E-04   2.43998140E-13   1.25367624E-10   4.55518293E-09   2.54545920E-10   3.26721250E-03   9.79445480E-11   9.97952322E-11   9.80042123E-11   9.80220549E-11   4.99974059E-02   4.99993610E-02   6.49321076E-02   7.16586868E-02   1.75952100E-02   0.00000000E+00   9.96324803E-11   1.00039146E-10   9.99215722E-11   1.00461786E-10   9.98585026E-04   6.51576908E-02   6.44935896E-02   0.00000000E+00   8.16135589E-03   8.48124798E-11   9.27864331E-11   9.46649643E-11   1.00377601E-10   9.99994107E-05   1.00000216E-04   9.96161272E-05   9.99997255E-05   8.12069135E-04   9.99978766E-05   9.99999246E-05   9.96608777E-04   9.99999333E-05   1.00000024E-04
   4.11250000E+02   5.00000000E-01   5.00000000E-01   1.07574567E-01   1.09264845E-01   8.63406167E-11   4.71500916E-11   4.64193855E-11   2.00385219E-04   2.44039697E-13   1.25653616E-10   4.21248281E-09   2.56841240E-10   3.22145510E-03   9.79448963E-11   9.97951552E-11   9.80057084E-11   9.80226342E-11   4.99974070E-02   4.99994112E-02   6.49321076E-02   7.16135650E-02   1.76542129E-02   0.00000000E+00   9.96342549E-11   1.00037471E-10   9.99287418E-11   1.00459387E-10   9.98584961E-04   6.51639827E-02   6.44935896E-02   0.00000000E+00   8.16135590E-03   8.48125082E-11   9.27864331E-11   9.46649643E-11   1.00374687E-10   9.99994066E-05   1.00000208E-04   9.96074279E-05   9.99997249E-05   8.12069135E-04   9.99978767E-05   9.99999246E-05   9.96608965E-04   9.99999333E-05   1.00000024E-04
   4.28750000E+02   5.00000000E-01   5.00000000E-01   1.07574567E-01   1.09275405E-01   8.63406277E-11   4.72839479E-11   4.65446928E-11   2.00385219E-04   2.44083613E-13   1.25924344E-10   3.89843466E-09   2.59050700E-10   3.17488127E-03   9.79452312E-11   9.97950692E-11   9.80071421E-11   9.80230725E-11   4.99974082E-02   4.99994596E-02   6.49321077E-02   7.15666925E-02   1.77152678E-02   0.00000000E+00   9.96359346E-11   1.00035747E-10   9.99355078E-11   1.00455908E-10   9.98584886E-04   6.51695141E-02   6.44935896E-02   1.32079235E-29   8.16135590E-03   8.48125330E-11   9.27864331E-11   9.46649643E-11   1.00371667E-10   9.99994024E-05   1.00000200E-04   9.95989016E-05   9.99997243E-05   8.12069135E-04   9.99978767E-05   9.99999246E-05   9.96609156E-04   9.99999333E-05   1.00000024E-04
   4.46250000E+02   5.00000000E-01   5.00000000E-01   1.07574567E-01   1.09286000E-01   8.63406394E-11   4.74310331E-11   4.66817928E-11   2.00385219E-04   2.44130038E-13   1.26182732E-10   3.61108927E-09   2.61193533E-10   3.12747398E-03   9.79455516E-11   9.97949748E-11   9.80085088E-11   9.80233706E-11   4.99974094E-02   4.99995063E-02   6.49321077E-02   7.15183792E-02   1.77780513E-02   0.00000000E+00   9.96375175E-11   1.00033981E-10   9.99418621E-11   1.00451401E-10   9.98584803E-04   6.51744291E-02   6.44935896E-02   0.00000000E+00   8.16135590E-03   8.48125541E-11   9.27864331E-11   9.46649643E-11   1.00368559E-10   9.99993980E-05   1.00000191E-04   9.95905537E-05   9.99997238E-05   8.12069135E-04   9.99978767E-05   9.99999246E-05   9.96609351E-04   9.99999333E-05   1.00000024E-04
   4.63750000E+02   5.00000000E-01   5.00000000E-01   1.07574568E-01   1.09296623E-01   8.63406518E-11   4.75927757E-11   4.68319930E-11   2.00385218E-04   2.44179128E-13   1.26431205E-10   3.34840279E-09   2.63285554E-10   3.07919152E-03   9.79458565E-11   9.97948725E-11   9.80098039E-11   9.80235292E-11   4.99974106E-02   4.99995515E-02   6.49321077E-02   7.14689047E-02   1.78422784E-02   0.00000000E+00   9.96390019E-11   1.00032180E-10   9.99477982E-11   1.00445919E-10   9.98584711E-04   6.51788551E-02   6.44935896E-02   9.68885641E-16   8.16135591E-03   8.48125715E-11   9.27864331E-11   9.46649643E-11   1.00365380E-10   9.99993935E-05   1.00000182E-04   9.95823895E-05   9.99997233E-05   8.12069135E-04   9.99978767E-05   9.99999246E-05   9.96609550E-04   9.99999333E-05   1.00000024E-04
   4.81250000E+02   5.00000000E-01   5.00000000E-01   1.07574568E-01   1.09307268E-01   8.63406648E-11   4.77707255E-11   4.69967173E-11   2.00385218E-04   2.44231053E-13   1.26671685E-10   3.10831567E-09   2.65338975E-10   3.02996413E-03   9.79461448E-11   9.97947626E-11   9.80110228E-11   9.80235491E-11   4.99974119E-02   4.99995952E-02   6.49321077E-02   7.14185186E-02   1.79077026E-02   0.00000000E+00   9.96403863E-11   1.00030352E-10   9.99533099E-11   1.00439511E-10   9.98584611E-04   6.51829044E-02   6.44935896E-02   6.06508972E-15   8.16135591E-03   8.48125854E-11   9.27864331E-11   9.46649643E-11   1.00362144E-10   9.99993889E-05   1.00000172E-04   9.95744138E-05   9.99997229E-05   8.12069135E-04   9.99978767E-05   9.99999247E-05   9.96609754E-04   9.99999333E-05   1.00000024E-04
   4.98750000E+02   5.00000000E-01   5.00000000E-01   1.07574568E-01   1.09317930E-01   8.63406786E-11   4.79665638E-11   4.71775164E-11   2.00385217E-04   2.44285991E-13   1.26905586E-10   2.88881290E-09   2.67362281E-10   2.97970474E-03   9.79464154E-11   9.97946457E-11   9.80121607E-11   9.80234308E-11   4.99974132E-02   4.99996374E-02   6.49321077E-02   7.13674437E-02   1.79741101E-02   0.00000000E+00   9.96416692E-11   1.00028501E-10   9.99583912E-11   1.00432226E-10   9.98584504E-04   6.51866734E-02   6.44935896E-02   1.38322831E-14   8.16135592E-03   8.48125956E-11   9.27864331E-11   9.46649643E-11   1.00358863E-10   9.99993843E-05   1.00000162E-04   9.95666315E-05   9.99997225E-05   8.12069135E-04   9.99978767E-05   9.99999247E-05   9.96609962E-04   9.99999333E-05   1.00000024E-04
   5.16250000E+02   5.00000000E-01   5.00000000E-01   1.07574569E-01   1.09328598E-01   8.63406932E-11   4.81821292E-11   4.73760908E-11   2.00385217E-04   2.44344135E-13   1.27133846E-10   2.68797462E-09   2.69360398E-10   2.92833016E-03   9.79466673E-11   9.97945221E-11   9.80132131E-11   9.80231755E-11   4.99974146E-02   4.99996782E-02   6.49321077E-02   7.13158816E-02   1.80413084E-02   0.00000000E+00   9.96428494E-11   1.00026634E-10   9.99630382E-11   1.00424112E-10   9.98584390E-04   6.51902395E-02   6.44935896E-02   2.55107964E-14   8.16135592E-03   8.48126024E-11   9.27864331E-11   9.46649643E-11   1.00355547E-10   9.99993795E-05   1.00000152E-04   9.95590470E-05   9.99997221E-05   8.12069135E-04   9.99978767E-05   9.99999247E-05   9.96610175E-04   9.99999333E-05   1.00000024E-04
   5.33750000E+02   5.00000000E-01   5.00000000E-01   1.07574569E-01   1.09339266E-01   8.63407086E-11   4.84194571E-11   4.75943263E-11   2.00385216E-04   2.44405691E-13   1.27357005E-10   2.50401722E-09   2.71335273E-10   2.87578336E-03   9.79468995E-11   9.97943924E-11   9.80141765E-11   9.80227860E-11   4.99974160E-02   4.99997176E-02   6.49321077E-02   7.12640206E-02   1.81091127E-02   0.00000000E+00   9.96439270E-11   1.00024757E-10   9.99672510E-11   1.00415226E-10   9.98584269E-04   6.51936565E-02   6.44935896E-02   4.29193842E-14   8.16135593E-03   8.48126056E-11   9.27864331E-11   9.46649643E-11   1.00352206E-10   9.99993748E-05   1.00000141E-04   9.95516646E-05   9.99997218E-05   8.12069135E-04   9.99978767E-05   9.99999247E-05   9.96610392E-04   9.99999333E-05   1.00000024E-04
   5.51250000E+02   5.00000000E-01   5.00000000E-01   1.07574569E-01   1.09349924E-01   8.63407248E-11   4.86808317E-11   4.78343399E-11   2.00385215E-04   2.44470879E-13   1.27575318E-10   2.33532036E-09   2.73286796E-10   2.82204667E-03   9.79471118E-11   9.97942572E-11   9.80150494E-11   9.80222673E-11   4.99974175E-02   4.99997557E-02   6.49321077E-02   7.12120415E-02   1.81773363E-02   0.00000000E+00   9.96449034E-11   1.00022875E-10   9.99710362E-11   1.00405632E-10   9.98584142E-04   6.51969541E-02   6.44935896E-02   6.87349088E-14   8.16135593E-03   8.48126054E-11   9.27864331E-11   9.46649643E-11   1.00348847E-10   9.99993700E-05   1.00000130E-04   9.95444883E-05   9.99997215E-05   8.12069135E-04   9.99978767E-05   9.99999247E-05   9.96610614E-04   9.99999333E-05   1.00000024E-04
   5.68750000E+02   5.00000000E-01   5.00000000E-01   1.07574570E-01   1.09360562E-01   8.63407420E-11   4.89688463E-11   4.80985345E-11   2.00385215E-04   2.44539939E-13   1.27788881E-10   2.18043610E-09   2.75213817E-10   2.76713956E-03   9.79473041E-11   9.97941174E-11   9.80158320E-11   9.80216272E-11   4.99974190E-02   4.99997925E-02   6.49321077E-02   7.11601202E-02   1.82457887E-02   0.00000000E+00   9.96457819E-11   1.00020996E-10   9.99744079E-11   1.00395407E-10   9.98584010E-04   6.52001396E-02   6.44935896E-02   1.06913676E-13   8.16135594E-03   8.48126021E-11   9.27864331E-11   9.46649643E-11   1.00345478E-10   9.99993652E-05   1.00000119E-04   9.95375220E-05   9.99997212E-05   8.12069135E-04   9.99978767E-05   9.99999247E-05   9.96610842E-04   9.99999333E-05   1.00000024E-04
   5.86250000E+02   5.00000000E-01   5.00000000E-01   1.07574570E-01   1.09371171E-01   8.63407602E-11   4.92864673E-11   4.83896569E-11   2.00385214E-04   2.44613127E-13   1.27997731E-10   2.03808030E-09   2.77114940E-10   2.71110212E-03   9.79474768E-11   9.97939737E-11   9.80165267E-11   9.80208755E-11   4.99974205E-02   4.99998280E-02   6.49321077E-02   7.11084260E-02   1.83142808E-02   0.00000000E+00   9.96465673E-11   1.00019127E-10   9.99773867E-11   1.00384633E-10   9.98583873E-04   6.52032045E-02   6.44935896E-02   1.63329787E-13   8.16135594E-03   8.48125957E-11   9.27864331E-11   9.46649643E-11   1.00342105E-10   9.99993603E-05   1.00000107E-04   9.95307691E-05   9.99997210E-05   8.12069135E-04   9.99978767E-05   9.99999247E-05   9.96611074E-04   9.99999333E-05   1.00000024E-04
   6.03750000E+02   5.00000000E-01   5.00000000E-01   1.07574571E-01   1.09381740E-01   8.63407795E-11   4.96371008E-11   4.87108594E-11   2.00385213E-04   2.44690721E-13   1.28201892E-10   1.90711119E-09   2.78988836E-10   2.65397132E-03   9.79476308E-11   9.97938272E-11   9.80171366E-11   9.80200228E-11   4.99974221E-02   4.99998622E-02   6.49321077E-02   7.10571174E-02   1.83826362E-02   0.00000000E+00   9.96472655E-11   1.00017273E-10   9.99799972E-11   1.00373397E-10   9.98583732E-04   6.52061328E-02   6.44935896E-02   2.46748016E-13   8.16135595E-03   8.48125867E-11   9.27864331E-11   9.46649643E-11   1.00338732E-10   9.99993555E-05   1.00000096E-04   9.95242332E-05   9.99997208E-05   8.12069135E-04   9.99978767E-05   9.99999247E-05   9.96611312E-04   9.99999333E-05   1.00000024E-04
   6.21250000E+02   5.00000000E-01   5.00000000E-01   1.07574572E-01   1.09392256E-01   8.63407998E-11   5.00246623E-11   4.90657639E-11   2.00385213E-04   2.44773022E-13   1.28401360E-10   1.78650283E-09   2.80834029E-10   2.59576019E-03   9.79477666E-11   9.97936786E-11   9.80176651E-11   9.80190791E-11   4.99974238E-02   4.99998952E-02   6.49321077E-02   7.10063359E-02   1.84507021E-02   0.00000000E+00   9.96478824E-11   1.00015442E-10   9.99822645E-11   1.00361779E-10   9.98583589E-04   6.52089084E-02   6.44935896E-02   3.70315562E-13   8.16135596E-03   8.48125751E-11   9.27864331E-11   9.46649643E-11   1.00335366E-10   9.99993507E-05   1.00000084E-04   9.95179172E-05   9.99997206E-05   8.12069135E-04   9.99978767E-05   9.99999248E-05   9.96611555E-04   9.99999333E-05   1.00000024E-04