 TITLE = "Mineral Volumes" 
VARIABLES = "X"          "Y"              "Z"            "Forsterite"     "Enstatite(alph" "Anorthite"      "Ferropargasite" "Anhydrite"      "Clinochlore"    "Albite(low)"    "Fayalite"       "Epidote"        "Kaolinite"      "Muscovite(orde"
 ZONE I=          10 , J=           1 , K=           1  F=POINT
   1.75000000E+02   5.00000000E-01   5.00000000E-01   2.79972382E-01   2.09998180E-01   6.93660176E-04   6.99823481E-02   1.99921832E-01   7.57174354E-05   1.29959863E-01   2.80051255E-02   9.99983756E-10   0.00000000E+00   0.00000000E+00
   5.25000000E+02   5.00000000E-01   5.00000000E-01   2.79972383E-01   2.09998157E-01   6.93660176E-04   6.99823481E-02   1.99954443E-01   7.86425349E-05   1.29957094E-01   2.80045013E-02   9.99905426E-10   0.00000000E+00   0.00000000E+00
   8.75000000E+02   5.00000000E-01   5.00000000E-01   2.79972403E-01   2.09998147E-01   6.93660176E-04   6.99823481E-02   1.99981375E-01   8.33582249E-05   1.29952631E-01   2.80034813E-02   9.99720047E-10   0.00000000E+00   0.00000000E+00
   1.22500000E+03   5.00000000E-01   5.00000000E-01   2.79972530E-01   2.09998144E-01   6.93660176E-04   6.99823481E-02   2.00001428E-01   8.91080358E-05   1.29947189E-01   2.80018684E-02   9.99325239E-10   0.00000000E+00   0.00000000E+00
   1.57500000E+03   5.00000000E-01   5.00000000E-01   2.79972806E-01   2.09998147E-01   6.93660176E-04   6.99823481E-02   2.00015451E-01   9.56287291E-05   1.29941018E-01   2.79993349E-02   9.98493603E-10   0.00000000E+00   0.00000000E+00
   1.92500000E+03   5.00000000E-01   5.00000000E-01   2.79973261E-01   2.09998152E-01   6.93660176E-04   6.99823481E-02   2.00024889E-01   1.03601705E-04   1.29933472E-01   2.79956260E-02   9.96847762E-10   0.00000000E+00   0.00000000E+00
   2.27500000E+03   5.00000000E-01   5.00000000E-01   2.79973807E-01   2.09998158E-01   6.93660176E-04   6.99823481E-02   2.00030972E-01   1.13486654E-04   1.29924117E-01   2.79908482E-02   9.93820598E-10   0.00000000E+00   0.00000000E+00
   2.62500000E+03   5.00000000E-01   5.00000000E-01   2.79974288E-01   2.09998166E-01   6.93660176E-04   6.99823481E-02   2.00034623E-01   1.24689356E-04   1.29913514E-01   2.79855976E-02   9.88853305E-10   0.00000000E+00   0.00000000E+00
   2.97500000E+03   5.00000000E-01   5.00000000E-01   2.79974591E-01   2.09998178E-01   6.93660176E-04   6.99823481E-02   2.00036541E-01   1.35848233E-04   1.29902953E-01   2.79807320E-02   9.81861631E-10   0.00000000E+00   0.00000000E+00
   3.32500000E+03   5.00000000E-01   5.00000000E-01   2.79974770E-01   2.09998194E-01   6.93660176E-04   6.99823481E-02   2.00037253E-01   1.45605349E-04   1.29893719E-01   2.79769258E-02   9.74420846E-10   0.00000000E+00   0.00000000E+00
