 TITLE = "Mineral Volumes" 
VARIABLES = "X"          "Y"              "Z"            "Forsterite"     "Enstatite(alph" "Anorthite"      "Tremolite"      "Pargasite"      "Anhydrite"      "Clinochlore"    "Albite(low)"    "Fayalite"       "Epidote"        "Kaolinite"      "Muscovite(orde" "Sudoite"        "Saponite(Mg)"   "Scolecite"      "FeS(am)"        "Quartz(alpha)"  "Montmorillonit"
 ZONE I=         100 , J=           1 , K=           1  F=POINT
   1.75000000E+01   5.00000000E-01   5.00000000E-01   1.99958574E-01   9.99970482E-02   6.99904648E-02   6.74457326E-02   6.74403276E-02   6.94340410E-02   3.62469634E-03   6.93290446E-02   2.79561351E-02   9.99999998E-04   9.08600552E-04   0.00000000E+00   0.00000000E+00   2.37315929E-03   8.44662227E-04   0.00000000E+00   1.49976579E-04   1.49880077E-01
   5.25000000E+01   5.00000000E-01   5.00000000E-01   1.99958574E-01   9.99970483E-02   6.99904648E-02   6.74457660E-02   6.74403276E-02   7.42880556E-02   2.99170384E-03   6.97957065E-02   2.79561419E-02   1.00000000E-03   9.08656065E-04   0.00000000E+00   0.00000000E+00   2.78629927E-03   8.44671835E-04   0.00000000E+00   2.03450114E-04   1.49904708E-01
   8.75000000E+01   5.00000000E-01   5.00000000E-01   1.99958574E-01   9.99970488E-02   6.99904648E-02   6.74458105E-02   6.74403276E-02   7.92831133E-02   2.65766965E-03   7.00265222E-02   2.79561525E-02   1.00000000E-03   9.08688180E-04   0.00000000E+00   0.00000000E+00   3.04525768E-03   8.44680390E-04   0.00000000E+00   2.21614495E-04   1.49922182E-01
   1.22500000E+02   5.00000000E-01   5.00000000E-01   1.99958574E-01   9.99970492E-02   6.99904648E-02   6.74458484E-02   6.74403276E-02   8.40666960E-02   2.52186956E-03   7.01155375E-02   2.79561668E-02   1.00000000E-03   9.08707197E-04   0.00000000E+00   0.00000000E+00   3.15826939E-03   8.44686969E-04   0.00000000E+00   2.25963446E-04   1.49931630E-01
   1.57500000E+02   5.00000000E-01   5.00000000E-01   1.99958574E-01   9.99970497E-02   6.99904648E-02   6.74458758E-02   6.74403276E-02   8.84030506E-02   2.46955661E-03   7.01464912E-02   2.79561845E-02   1.00000000E-03   9.08721568E-04   0.00000000E+00   0.00000000E+00   3.20520365E-03   8.44692267E-04   0.00000000E+00   2.25150212E-04   1.49937274E-01
   1.92500000E+02   5.00000000E-01   5.00000000E-01   1.99958574E-01   9.99970501E-02   6.99904648E-02   6.74458936E-02   6.74403276E-02   9.21649704E-02   2.45027416E-03   7.01546868E-02   2.79562055E-02   1.00000000E-03   9.08734432E-04   0.00000000E+00   0.00000000E+00   3.22560684E-03   8.44696727E-04   0.00000000E+00   2.22416202E-04   1.49941317E-01
   2.27500000E+02   5.00000000E-01   5.00000000E-01   1.99958574E-01   9.99970506E-02   6.99904648E-02   6.74459035E-02   6.74403276E-02   9.53130227E-02   2.44413465E-03   7.01538335E-02   2.79562296E-02   1.00000000E-03   9.08746996E-04   0.00000000E+00   0.00000000E+00   3.23553541E-03   8.44700593E-04   0.00000000E+00   2.18974747E-04   1.49944701E-01
   2.62500000E+02   5.00000000E-01   5.00000000E-01   1.99958574E-01   9.99970510E-02   6.99904648E-02   6.74459073E-02   6.74403276E-02   9.78693861E-02   2.44338467E-03   7.01492343E-02   2.79562567E-02   1.00000000E-03   9.08759751E-04   0.00000000E+00   0.00000000E+00   3.24131316E-03   8.44704004E-04   0.00000000E+00   2.15288436E-04   1.49947814E-01
   2.97500000E+02   5.00000000E-01   5.00000000E-01   1.99958574E-01   9.99970515E-02   6.99904648E-02   6.74459066E-02   6.74403276E-02   9.98929945E-02   2.44496724E-03   7.01429686E-02   2.79562867E-02   1.00000000E-03   9.08772909E-04   0.00000000E+00   0.00000000E+00   3.24544849E-03   8.44707053E-04   0.00000000E+00   2.11538020E-04   1.49950816E-01
   3.32500000E+02   5.00000000E-01   5.00000000E-01   1.99958574E-01   9.99970520E-02   6.99904648E-02   6.74459026E-02   6.74403276E-02   1.01455011E-01   2.44765631E-03   7.01358680E-02   2.79563195E-02   1.00000000E-03   9.08786563E-04   0.00000000E+00   0.00000000E+00   3.24895325E-03   8.44709806E-04   0.00000000E+00   2.07796065E-04   1.49953771E-01
   3.67500000E+02   5.00000000E-01   5.00000000E-01   1.99958574E-01   9.99970525E-02   6.99904648E-02   6.74458965E-02   6.74403276E-02   1.02634412E-01   2.45095296E-03   7.01282717E-02   2.79563552E-02   1.00000000E-03   9.08800754E-04   0.00000000E+00   0.00000000E+00   3.25224152E-03   8.44712314E-04   0.00000000E+00   2.04092374E-04   1.49956704E-01
   4.02500000E+02   5.00000000E-01   5.00000000E-01   1.99958574E-01   9.99970531E-02   6.99904648E-02   6.74458891E-02   6.74403276E-02   1.03510730E-01   2.45465270E-03   7.01203219E-02   2.79563936E-02   1.00000000E-03   9.08815502E-04   0.00000000E+00   0.00000000E+00   3.25548232E-03   8.44714620E-04   0.00000000E+00   2.00439287E-04   1.49959624E-01
   4.37500000E+02   5.00000000E-01   5.00000000E-01   1.99958574E-01   9.99970536E-02   6.99904648E-02   6.74458813E-02   6.74403276E-02   1.04150209E-01   2.45867036E-03   7.01120827E-02   2.79564347E-02   1.00000000E-03   9.08830810E-04   0.00000000E+00   0.00000000E+00   3.25874125E-03   8.44716756E-04   0.00000000E+00   1.96841905E-04   1.49962530E-01
   4.72500000E+02   5.00000000E-01   5.00000000E-01   1.99958574E-01   9.99970542E-02   6.99904648E-02   6.74458740E-02   6.74403276E-02   1.04606611E-01   2.46296856E-03   7.01035879E-02   2.79564785E-02   9.99999999E-04   9.08846679E-04   0.00000000E+00   0.00000000E+00   3.26203843E-03   8.44718749E-04   0.00000000E+00   1.93302320E-04   1.49965419E-01
   5.07500000E+02   5.00000000E-01   5.00000000E-01   1.99958574E-01   9.99970548E-02   6.99904648E-02   6.74458683E-02   6.74403276E-02   1.04922739E-01   2.46752787E-03   7.00948615E-02   2.79565250E-02   9.99999999E-04   9.08863106E-04   0.00000000E+00   0.00000000E+00   3.26537217E-03   8.44720622E-04   0.00000000E+00   1.89821079E-04   1.49968288E-01
   5.42500000E+02   5.00000000E-01   5.00000000E-01   1.99958574E-01   9.99970554E-02   6.99904648E-02   6.74458658E-02   6.74403276E-02   1.05132168E-01   2.47233403E-03   7.00859256E-02   2.79565741E-02   9.99999999E-04   9.08880084E-04   0.00000000E+00   0.00000000E+00   3.26872911E-03   8.44722393E-04   0.00000000E+00   1.86398383E-04   1.49971132E-01
   5.77500000E+02   5.00000000E-01   5.00000000E-01   1.99958574E-01   9.99970561E-02   6.99904648E-02   6.74458675E-02   6.74403276E-02   1.05260922E-01   2.47737208E-03   7.00768044E-02   2.79566259E-02   9.99999999E-04   9.08897607E-04   0.00000000E+00   0.00000000E+00   3.27208964E-03   8.44724077E-04   0.00000000E+00   1.83034163E-04   1.49973947E-01
   6.12500000E+02   5.00000000E-01   5.00000000E-01   1.99958574E-01   9.99970567E-02   6.99904648E-02   6.74458733E-02   6.74403276E-02   1.05328982E-01   2.48262384E-03   7.00675250E-02   2.79566804E-02   9.99999999E-04   9.08915670E-04   0.00000000E+00   0.00000000E+00   3.27543047E-03   8.44725687E-04   0.00000000E+00   1.79728217E-04   1.49976730E-01
   6.47500000E+02   5.00000000E-01   5.00000000E-01   1.99958574E-01   9.99970574E-02   6.99904648E-02   6.74458824E-02   6.74403276E-02   1.05351570E-01   2.48806703E-03   7.00581182E-02   2.79567375E-02   9.99999999E-04   9.08934269E-04   0.00000000E+00   0.00000000E+00   3.27872523E-03   8.44727235E-04   0.00000000E+00   1.76480501E-04   1.49979477E-01
   6.82500000E+02   5.00000000E-01   5.00000000E-01   1.99958574E-01   9.99970581E-02   6.99904648E-02   6.74458938E-02   6.74403276E-02   1.05340214E-01   2.49367531E-03   7.00486184E-02   2.79567974E-02   9.99999999E-04   9.08953402E-04   0.00000000E+00   0.00000000E+00   3.28194355E-03   8.44728732E-04   0.00000000E+00   1.73291234E-04   1.49982188E-01
   7.17500000E+02   5.00000000E-01   5.00000000E-01   1.99958574E-01   9.99970588E-02   6.99904648E-02   6.74459067E-02   6.74403276E-02   1.05303603E-01   2.49941851E-03   7.00390630E-02   2.79568600E-02   9.99999998E-04   9.08973069E-04   0.00000000E+00   0.00000000E+00   3.28505099E-03   8.44730186E-04   0.00000000E+00   1.70160647E-04   1.49984862E-01
   7.52500000E+02   5.00000000E-01   5.00000000E-01   1.99958574E-01   9.99970596E-02   6.99904648E-02   6.74459209E-02   6.74403276E-02   1.05248268E-01   2.50526279E-03   7.00294923E-02   2.79569253E-02   9.99999998E-04   9.08993277E-04   0.00000000E+00   0.00000000E+00   3.28800964E-03   8.44731607E-04   0.00000000E+00   1.67088738E-04   1.49987500E-01
   7.87500000E+02   5.00000000E-01   5.00000000E-01   1.99958574E-01   9.99970604E-02   6.99904648E-02   6.74459361E-02   6.74403276E-02   1.05179112E-01   2.51117112E-03   7.00199489E-02   2.79569934E-02   9.99999997E-04   9.09014035E-04   0.00000000E+00   0.00000000E+00   3.29077845E-03   8.44733004E-04   0.00000000E+00   1.64075810E-04   1.49990103E-01
   8.22500000E+02   5.00000000E-01   5.00000000E-01   1.99958574E-01   9.99970612E-02   6.99904648E-02   6.74459520E-02   6.74403276E-02   1.05099814E-01   2.51710376E-03   7.00104767E-02   2.79570642E-02   9.99999997E-04   9.09035357E-04   0.00000000E+00   0.00000000E+00   3.29331422E-03   8.44734386E-04   0.00000000E+00   1.61122162E-04   1.49992676E-01
   8.57500000E+02   5.00000000E-01   5.00000000E-01   1.99958574E-01   9.99970620E-02   6.99904648E-02   6.74459687E-02   6.74403276E-02   1.05013144E-01   2.52301896E-03   7.00011204E-02   2.79571378E-02   9.99999996E-04   9.09057265E-04   0.00000000E+00   0.00000000E+00   3.29557230E-03   8.44735761E-04   0.00000000E+00   1.58228457E-04   1.49995222E-01
   8.92500000E+02   5.00000000E-01   5.00000000E-01   1.99958574E-01   9.99970628E-02   6.99904648E-02   6.74459860E-02   6.74403276E-02   1.04921191E-01   2.52887347E-03   6.99919248E-02   2.79572142E-02   9.99999995E-04   9.09079784E-04   0.00000000E+00   0.00000000E+00   3.29750816E-03   8.44737139E-04   0.00000000E+00   1.55394767E-04   1.49997749E-01
   9.27500000E+02   5.00000000E-01   5.00000000E-01   1.99958574E-01   9.99970637E-02   6.99904648E-02   6.74460039E-02   6.74403276E-02   1.04825544E-01   2.53462338E-03   6.99829339E-02   2.79572933E-02   9.99999993E-04   9.09102947E-04   0.00000000E+00   0.00000000E+00   3.29907808E-03   8.44738531E-04   0.00000000E+00   1.52621464E-04   1.50000261E-01
   9.62500000E+02   5.00000000E-01   5.00000000E-01   1.99958574E-01   9.99970646E-02   6.99904648E-02   6.74460223E-02   6.74403276E-02   1.04727414E-01   2.54022555E-03   6.99741897E-02   2.79573752E-02   9.99999991E-04   9.09126791E-04   0.00000000E+00   0.00000000E+00   3.30024008E-03   8.44739944E-04   0.00000000E+00   1.49909091E-04   1.50002767E-01
   9.97500000E+02   5.00000000E-01   5.00000000E-01   1.99958574E-01   9.99970655E-02   6.99904648E-02   6.74460412E-02   6.74403276E-02   1.04627733E-01   2.54563823E-03   6.99657312E-02   2.79574597E-02   9.99999989E-04   9.09151358E-04   0.00000000E+00   0.00000000E+00   3.30095533E-03   8.44741390E-04   0.00000000E+00   1.47258188E-04   1.50005274E-01
   1.03250000E+03   5.00000000E-01   5.00000000E-01   1.99958574E-01   9.99970664E-02   6.99904648E-02   6.74460604E-02   6.74403276E-02   1.04527226E-01   2.55082156E-03   6.99575940E-02   2.79575468E-02   9.99999985E-04   9.09176695E-04   0.00000000E+00   0.00000000E+00   3.30119010E-03   8.44742878E-04   0.00000000E+00   1.44668429E-04   1.50007791E-01
   1.06750000E+03   5.00000000E-01   5.00000000E-01   1.99958574E-01   9.99970674E-02   6.99904648E-02   6.74460799E-02   6.74403276E-02   1.04426454E-01   2.55573875E-03   6.99498097E-02   2.79576364E-02   9.99999981E-04   9.09202853E-04   0.00000000E+00   0.00000000E+00   3.30091615E-03   8.44744418E-04   0.00000000E+00   1.42139757E-04   1.50010326E-01
   1.10250000E+03   5.00000000E-01   5.00000000E-01   1.99958574E-01   9.99970684E-02   6.99904648E-02   6.74460996E-02   6.74403276E-02   1.04325859E-01   2.56035676E-03   6.99424047E-02   2.79577284E-02   9.99999975E-04   9.09229881E-04   0.00000000E+00   0.00000000E+00   3.30011206E-03   8.44746021E-04   0.00000000E+00   1.39671925E-04   1.50012886E-01
   1.13750000E+03   5.00000000E-01   5.00000000E-01   1.99958574E-01   9.99970694E-02   6.99904648E-02   6.74461194E-02   6.74403276E-02   1.04225785E-01   2.56464714E-03   6.99354002E-02   2.79578227E-02   9.99999967E-04   9.09257833E-04   0.00000000E+00   0.00000000E+00   3.29876385E-03   8.44747695E-04   0.00000000E+00   1.37264867E-04   1.50015480E-01
   1.17250000E+03   5.00000000E-01   5.00000000E-01   1.99958574E-01   9.99970705E-02   6.99904648E-02   6.74461392E-02   6.74403276E-02   1.04126500E-01   2.56858640E-03   6.99288115E-02   2.79579192E-02   9.99999957E-04   9.09286758E-04   0.00000000E+00   0.00000000E+00   3.29686637E-03   8.44749451E-04   0.00000000E+00   1.34917518E-04   1.50018114E-01
   1.20750000E+03   5.00000000E-01   5.00000000E-01   1.99958574E-01   9.99970716E-02   6.99904648E-02   6.74461589E-02   6.74403276E-02   1.04028214E-01   2.57215665E-03   6.99226479E-02   2.79580176E-02   9.99999944E-04   9.09316703E-04   0.00000000E+00   0.00000000E+00   3.29442292E-03   8.44751298E-04   0.00000000E+00   1.32629092E-04   1.50020793E-01
   1.24250000E+03   5.00000000E-01   5.00000000E-01   1.99958574E-01   9.99970727E-02   6.99904648E-02   6.74461786E-02   6.74403276E-02   1.03931085E-01   2.57534597E-03   6.99169127E-02   2.79581178E-02   9.99999927E-04   9.09347712E-04   0.00000000E+00   0.00000000E+00   3.29144518E-03   8.44753244E-04   0.00000000E+00   1.30399065E-04   1.50023521E-01
   1.27750000E+03   5.00000000E-01   5.00000000E-01   1.99958574E-01   9.99970738E-02   6.99904648E-02   6.74461981E-02   6.74403276E-02   1.03835229E-01   2.57814839E-03   6.99116032E-02   2.79582197E-02   9.99999905E-04   9.09379820E-04   0.00000000E+00   0.00000000E+00   3.28795372E-03   8.44755299E-04   0.00000000E+00   1.28226384E-04   1.50026302E-01
   1.31250000E+03   5.00000000E-01   5.00000000E-01   1.99958574E-01   9.99970749E-02   6.99904648E-02   6.74462173E-02   6.74403276E-02   1.03740729E-01   2.58056371E-03   6.99067112E-02   2.79583230E-02   9.99999876E-04   9.09413055E-04   0.00000000E+00   0.00000000E+00   3.28397788E-03   8.44757469E-04   0.00000000E+00   1.26108966E-04   1.50029134E-01
   1.34750000E+03   5.00000000E-01   5.00000000E-01   1.99958574E-01   9.99970761E-02   6.99904648E-02   6.74462360E-02   6.74403276E-02   1.03647639E-01   2.58259767E-03   6.99022234E-02   2.79584275E-02   9.99999839E-04   9.09447434E-04   0.00000000E+00   0.00000000E+00   3.27955366E-03   8.44759764E-04   0.00000000E+00   1.24045269E-04   1.50032019E-01
   1.38250000E+03   5.00000000E-01   5.00000000E-01   1.99958574E-01   9.99970773E-02   6.99904648E-02   6.74462543E-02   6.74403276E-02   1.03555988E-01   2.58426144E-03   6.98981222E-02   2.79585331E-02   9.99999792E-04   9.09482966E-04   0.00000000E+00   0.00000000E+00   3.27472325E-03   8.44762189E-04   0.00000000E+00   1.22033609E-04   1.50034953E-01
   1.41750000E+03   5.00000000E-01   5.00000000E-01   1.99958574E-01   9.99970786E-02   6.99904648E-02   6.74462720E-02   6.74403276E-02   1.03465785E-01   2.58557113E-03   6.98943860E-02   2.79586396E-02   9.99999731E-04   9.09519647E-04   0.00000000E+00   0.00000000E+00   3.26953378E-03   8.44764753E-04   0.00000000E+00   1.20072186E-04   1.50037932E-01
   1.45250000E+03   5.00000000E-01   5.00000000E-01   1.99958574E-01   9.99970799E-02   6.99904648E-02   6.74462891E-02   6.74403276E-02   1.03377019E-01   2.58654724E-03   6.98909905E-02   2.79587467E-02   9.99999655E-04   9.09557459E-04   0.00000000E+00   0.00000000E+00   3.26403563E-03   8.44767461E-04   0.00000000E+00   1.18159677E-04   1.50040950E-01
   1.48750000E+03   5.00000000E-01   5.00000000E-01   1.99958574E-01   9.99970812E-02   6.99904648E-02   6.74463056E-02   6.74403276E-02   1.03289668E-01   2.58721397E-03   6.98879091E-02   2.79588542E-02   9.99999558E-04   9.09596375E-04   0.00000000E+00   0.00000000E+00   3.25828103E-03   8.44770321E-04   0.00000000E+00   1.16295197E-04   1.50043999E-01
   1.52250000E+03   5.00000000E-01   5.00000000E-01   1.99958574E-01   9.99970825E-02   6.99904648E-02   6.74463213E-02   6.74403276E-02   1.03203696E-01   2.58759784E-03   6.98851141E-02   2.79589620E-02   9.99999436E-04   9.09636354E-04   0.00000000E+00   0.00000000E+00   3.25232471E-03   8.44773340E-04   0.00000000E+00   1.14475328E-04   1.50047072E-01
   1.55750000E+03   5.00000000E-01   5.00000000E-01   1.99958574E-01   9.99970839E-02   6.99904648E-02   6.74463366E-02   6.74403276E-02   1.03119058E-01   2.58772756E-03   6.98825775E-02   2.79590699E-02   9.99999281E-04   9.09677342E-04   0.00000000E+00   0.00000000E+00   3.24621984E-03   8.44776524E-04   0.00000000E+00   1.12697789E-04   1.50050158E-01
   1.59250000E+03   5.00000000E-01   5.00000000E-01   1.99958575E-01   9.99970853E-02   6.99904648E-02   6.74463514E-02   6.74403276E-02   1.03035699E-01   2.58763292E-03   6.98802717E-02   2.79591777E-02   9.99999087E-04   9.09719276E-04   0.00000000E+00   0.00000000E+00   3.24001776E-03   8.44779882E-04   0.00000000E+00   1.10961410E-04   1.50053246E-01
   1.62750000E+03   5.00000000E-01   5.00000000E-01   1.99958575E-01   9.99970867E-02   6.99904648E-02   6.74463654E-02   6.74403276E-02   1.02953563E-01   2.58734370E-03   6.98781703E-02   2.79592853E-02   9.99998843E-04   9.09762083E-04   0.00000000E+00   0.00000000E+00   3.23376801E-03   8.44783421E-04   0.00000000E+00   1.09263481E-04   1.50056326E-01
   1.66250000E+03   5.00000000E-01   5.00000000E-01   1.99958575E-01   9.99970882E-02   6.99904648E-02   6.74463788E-02   6.74403276E-02   1.02872586E-01   2.58688925E-03   6.98762487E-02   2.79593925E-02   9.99998541E-04   9.09805680E-04   0.00000000E+00   0.00000000E+00   3.22751623E-03   8.44787150E-04   0.00000000E+00   1.07602220E-04   1.50059387E-01
   1.69750000E+03   5.00000000E-01   5.00000000E-01   1.99958576E-01   9.99970897E-02   6.99904648E-02   6.74463915E-02   6.74403276E-02   1.02792706E-01   2.58629769E-03   6.98744843E-02   2.79594993E-02   9.99998174E-04   9.09849978E-04   0.00000000E+00   0.00000000E+00   3.22130408E-03   8.44791079E-04   0.00000000E+00   1.05975932E-04   1.50062416E-01
   1.73250000E+03   5.00000000E-01   5.00000000E-01   1.99958576E-01   9.99970912E-02   6.99904649E-02   6.74464038E-02   6.74403276E-02   1.02713858E-01   2.58559548E-03   6.98728576E-02   2.79596056E-02   9.99997736E-04   9.09894881E-04   0.00000000E+00   0.00000000E+00   3.21516831E-03   8.44795219E-04   0.00000000E+00   1.04384329E-04   1.50065402E-01
   1.76750000E+03   5.00000000E-01   5.00000000E-01   1.99958577E-01   9.99970928E-02   6.99904649E-02   6.74464159E-02   6.74403276E-02   1.02635982E-01   2.58480647E-03   6.98713517E-02   2.79597113E-02   9.99997221E-04   9.09940287E-04   0.00000000E+00   0.00000000E+00   3.20914223E-03   8.44799582E-04   0.00000000E+00   1.02824710E-04   1.50068334E-01
   1.80250000E+03   5.00000000E-01   5.00000000E-01   1.99958578E-01   9.99970945E-02   6.99904649E-02   6.74464275E-02   6.74403276E-02   1.02559017E-01   2.58395176E-03   6.98699527E-02   2.79598164E-02   9.99996620E-04   9.09986092E-04   0.00000000E+00   0.00000000E+00   3.20325493E-03   8.44804182E-04   0.00000000E+00   1.01295464E-04   1.50071202E-01
   1.83750000E+03   5.00000000E-01   5.00000000E-01   1.99958580E-01   9.99970961E-02   6.99904649E-02   6.74464388E-02   6.74403276E-02   1.02482912E-01   2.58304959E-03   6.98686502E-02   2.79599210E-02   9.99995919E-04   9.10032188E-04   0.00000000E+00   0.00000000E+00   3.19753074E-03   8.44809035E-04   0.00000000E+00   9.97953100E-05   1.50073996E-01
   1.87250000E+03   5.00000000E-01   5.00000000E-01   1.99958581E-01   9.99970979E-02   6.99904649E-02   6.74464500E-02   6.74403276E-02   1.02407620E-01   2.58211510E-03   6.98674367E-02   2.79600251E-02   9.99995093E-04   9.10078465E-04   0.00000000E+00   0.00000000E+00   3.19198990E-03   8.44814157E-04   0.00000000E+00   9.83230705E-05   1.50076706E-01
   1.90750000E+03   5.00000000E-01   5.00000000E-01   1.99958584E-01   9.99970996E-02   6.99904649E-02   6.74464612E-02   6.74403276E-02   1.02333103E-01   2.58116018E-03   6.98663078E-02   2.79601288E-02   9.99994117E-04   9.10124812E-04   0.00000000E+00   0.00000000E+00   3.18664901E-03   8.44819567E-04   0.00000000E+00   9.68776609E-05   1.50079323E-01
   1.94250000E+03   5.00000000E-01   5.00000000E-01   1.99958587E-01   9.99971014E-02   6.99904649E-02   6.74464724E-02   6.74403276E-02   1.02259332E-01   2.58019336E-03   6.98652620E-02   2.79602323E-02   9.99992971E-04   9.10171117E-04   0.00000000E+00   0.00000000E+00   3.18152176E-03   8.44825286E-04   0.00000000E+00   9.54580846E-05   1.50081840E-01
   1.97750000E+03   5.00000000E-01   5.00000000E-01   1.99958591E-01   9.99971033E-02   6.99904649E-02   6.74464836E-02   6.74403276E-02   1.02186290E-01   2.57922001E-03   6.98643008E-02   2.79603359E-02   9.99991660E-04   9.10217269E-04   0.00000000E+00   0.00000000E+00   3.17661880E-03   8.44831338E-04   0.00000000E+00   9.40634242E-05   1.50084250E-01
   2.01250000E+03   5.00000000E-01   5.00000000E-01   1.99958597E-01   9.99971052E-02   6.99904649E-02   6.74464951E-02   6.74403276E-02   1.02113971E-01   2.57824245E-03   6.98634279E-02   2.79604399E-02   9.99990213E-04   9.10263154E-04   0.00000000E+00   0.00000000E+00   3.17194811E-03   8.44837748E-04   0.00000000E+00   9.26929071E-05   1.50086545E-01
   2.04750000E+03   5.00000000E-01   5.00000000E-01   1.99958604E-01   9.99971071E-02   6.99904649E-02   6.74465070E-02   6.74403276E-02   1.02042382E-01   2.57726006E-03   6.98626499E-02   2.79605445E-02   9.99988677E-04   9.10308659E-04   0.00000000E+00   0.00000000E+00   3.16751542E-03   8.44844545E-04   0.00000000E+00   9.13478993E-05   1.50088721E-01
   2.08250000E+03   5.00000000E-01   5.00000000E-01   1.99958613E-01   9.99971091E-02   6.99904649E-02   6.74465190E-02   6.74403276E-02   1.01971544E-01   2.57626903E-03   6.98619755E-02   2.79606504E-02   9.99987105E-04   9.10353672E-04   0.00000000E+00   0.00000000E+00   3.16332631E-03   8.44851760E-04   0.00000000E+00   9.00252722E-05   1.50090773E-01
   2.11750000E+03   5.00000000E-01   5.00000000E-01   1.99958625E-01   9.99971112E-02   6.99904649E-02   6.74465313E-02   6.74403276E-02   1.01901491E-01   2.57526304E-03   6.98614156E-02   2.79607581E-02   9.99985539E-04   9.10398076E-04   0.00000000E+00   0.00000000E+00   3.15938428E-03   8.44859427E-04   0.00000000E+00   8.87243458E-05   1.50092695E-01
   2.15250000E+03   5.00000000E-01   5.00000000E-01   1.99958640E-01   9.99971133E-02   6.99904649E-02   6.74465437E-02   6.74403276E-02   1.01832271E-01   2.57423323E-03   6.98609830E-02   2.79608683E-02   9.99984008E-04   9.10441757E-04   0.00000000E+00   0.00000000E+00   3.15569194E-03   8.44867583E-04   0.00000000E+00   8.74444750E-05   1.50094484E-01
   2.18750000E+03   5.00000000E-01   5.00000000E-01   1.99958659E-01   9.99971154E-02   6.99904649E-02   6.74465562E-02   6.74403276E-02   1.01763944E-01   2.57316824E-03   6.98606929E-02   2.79609817E-02   9.99982533E-04   9.10484598E-04   0.00000000E+00   0.00000000E+00   3.15225140E-03   8.44876269E-04   0.00000000E+00   8.61850407E-05   1.50096136E-01
   2.22250000E+03   5.00000000E-01   5.00000000E-01   1.99958683E-01   9.99971176E-02   6.99904649E-02   6.74465686E-02   6.74403276E-02   1.01696581E-01   2.57205433E-03   6.98605621E-02   2.79610994E-02   9.99981126E-04   9.10526477E-04   0.00000000E+00   0.00000000E+00   3.14906459E-03   8.44885532E-04   0.00000000E+00   8.49454418E-05   1.50097647E-01
   2.25750000E+03   5.00000000E-01   5.00000000E-01   1.99958713E-01   9.99971199E-02   6.99904649E-02   6.74465807E-02   6.74403276E-02   1.01630267E-01   2.57087537E-03   6.98606094E-02   2.79612224E-02   9.99979775E-04   9.10567271E-04   0.00000000E+00   0.00000000E+00   3.14613355E-03   8.44895421E-04   0.00000000E+00   8.37250874E-05   1.50099015E-01
   2.29250000E+03   5.00000000E-01   5.00000000E-01   1.99958751E-01   9.99971222E-02   6.99904649E-02   6.74465924E-02   6.74403276E-02   1.01565090E-01   2.56961289E-03   6.98608559E-02   2.79613521E-02   9.99978430E-04   9.10606854E-04   0.00000000E+00   0.00000000E+00   3.14346074E-03   8.44905991E-04   0.00000000E+00   8.25233898E-05   1.50100236E-01
   2.32750000E+03   5.00000000E-01   5.00000000E-01   1.99958796E-01   9.99971246E-02   6.99904650E-02   6.74466034E-02   6.74403276E-02   1.01501150E-01   2.56824593E-03   6.98613247E-02   2.79614900E-02   9.99977013E-04   9.10645091E-04   0.00000000E+00   0.00000000E+00   3.14104929E-03   8.44917304E-04   0.00000000E+00   8.13397573E-05   1.50101308E-01
   2.36250000E+03   5.00000000E-01   5.00000000E-01   1.99958851E-01   9.99971270E-02   6.99904650E-02   6.74466136E-02   6.74403276E-02   1.01438547E-01   2.56675084E-03   6.98620412E-02   2.79616380E-02   9.99975452E-04   9.10681844E-04   0.00000000E+00   0.00000000E+00   3.13890338E-03   8.44929428E-04   0.00000000E+00   8.01735876E-05   1.50102226E-01
   2.39750000E+03   5.00000000E-01   5.00000000E-01   1.99958916E-01   9.99971295E-02   6.99904650E-02   6.74466227E-02   6.74403276E-02   1.01377384E-01   2.56510094E-03   6.98630337E-02   2.79617982E-02   9.99973727E-04   9.10716964E-04   0.00000000E+00   0.00000000E+00   3.13702852E-03   8.44942440E-04   0.00000000E+00   7.90242604E-05   1.50102989E-01
   2.43250000E+03   5.00000000E-01   5.00000000E-01   1.99958992E-01   9.99971320E-02   6.99904650E-02   6.74466310E-02   6.74403276E-02   1.01317760E-01   2.56326610E-03   6.98643336E-02   2.79619731E-02   9.99971898E-04   9.10750297E-04   0.00000000E+00   0.00000000E+00   3.13543191E-03   8.44956428E-04   0.00000000E+00   7.78911306E-05   1.50103592E-01
   2.46750000E+03   5.00000000E-01   5.00000000E-01   1.99959079E-01   9.99971346E-02   6.99904650E-02   6.74466386E-02   6.74403276E-02   1.01259773E-01   2.56121226E-03   6.98659758E-02   2.79621660E-02   9.99970107E-04   9.10781674E-04   0.00000000E+00   0.00000000E+00   3.13412282E-03   8.44971491E-04   0.00000000E+00   7.67735201E-05   1.50104031E-01
   2.50250000E+03   5.00000000E-01   5.00000000E-01   1.99959179E-01   9.99971373E-02   6.99904651E-02   6.74466459E-02   6.74403276E-02   1.01203512E-01   2.55890079E-03   6.98679994E-02   2.79623805E-02   9.99968546E-04   9.10810915E-04   0.00000000E+00   0.00000000E+00   3.13311297E-03   8.44987741E-04   0.00000000E+00   7.56707089E-05   1.50104302E-01
   2.53750000E+03   5.00000000E-01   5.00000000E-01   1.99959290E-01   9.99971400E-02   6.99904651E-02   6.74466538E-02   6.74403276E-02   1.01149058E-01   2.55628770E-03   6.98704489E-02   2.79626213E-02   9.99967419E-04   9.10837826E-04   0.00000000E+00   0.00000000E+00   3.13241701E-03   8.45005311E-04   0.00000000E+00   7.45819252E-05   1.50104399E-01
   2.57250000E+03   5.00000000E-01   5.00000000E-01   1.99959413E-01   9.99971428E-02   6.99904652E-02   6.74466632E-02   6.74403276E-02   1.01096479E-01   2.55332261E-03   6.98733750E-02   2.79628940E-02   9.99966891E-04   9.10862195E-04   0.00000000E+00   0.00000000E+00   3.13205306E-03   8.45024353E-04   0.00000000E+00   7.35063341E-05   1.50104318E-01
   2.60750000E+03   5.00000000E-01   5.00000000E-01   1.99959546E-01   9.99971456E-02   6.99904652E-02   6.74466755E-02   6.74403276E-02   1.01045834E-01   2.54994725E-03   6.98768361E-02   2.79632058E-02   9.99967066E-04   9.10883787E-04   0.00000000E+00   0.00000000E+00   3.13204334E-03   8.45045050E-04   0.00000000E+00   7.24430235E-05   1.50104050E-01
   2.64250000E+03   5.00000000E-01   5.00000000E-01   1.99959689E-01   9.99971485E-02   6.99904653E-02   6.74466919E-02   6.74403276E-02   1.00997167E-01   2.54609359E-03   6.98809002E-02   2.79635655E-02   9.99967965E-04   9.10902347E-04   0.00000000E+00   0.00000000E+00   3.13241478E-03   8.45067618E-04   0.00000000E+00   7.13909882E-05   1.50103587E-01
   2.67750000E+03   5.00000000E-01   5.00000000E-01   1.99959841E-01   9.99971514E-02   6.99904653E-02   6.74467141E-02   6.74403276E-02   1.00950507E-01   2.54168133E-03   6.98856477E-02   2.79639847E-02   9.99969543E-04   9.10917590E-04   0.00000000E+00   0.00000000E+00   3.13319961E-03   8.45092318E-04   0.00000000E+00   7.03491096E-05   1.50102921E-01
   2.71250000E+03   5.00000000E-01   5.00000000E-01   1.99960000E-01   9.99971544E-02   6.99904654E-02   6.74467438E-02   6.74403276E-02   1.00905872E-01   2.53661450E-03   6.98911743E-02   2.79644784E-02   9.99971710E-04   9.10929197E-04   0.00000000E+00   0.00000000E+00   3.13443571E-03   8.45119468E-04   0.00000000E+00   6.93161309E-05   1.50102039E-01
   2.74750000E+03   5.00000000E-01   5.00000000E-01   1.99960167E-01   9.99971575E-02   6.99904655E-02   6.74467831E-02   6.74403276E-02   1.00863266E-01   2.53077705E-03   6.98975960E-02   2.79650664E-02   9.99974356E-04   9.10936814E-04   0.00000000E+00   0.00000000E+00   3.13616646E-03   8.45149465E-04   0.00000000E+00   6.82906263E-05   1.50100929E-01
   2.78250000E+03   5.00000000E-01   5.00000000E-01   1.99960339E-01   9.99971606E-02   6.99904656E-02   6.74468350E-02   6.74403276E-02   1.00822679E-01   2.52402571E-03   6.99050553E-02   2.79657756E-02   9.99977344E-04   9.10940038E-04   0.00000000E+00   0.00000000E+00   3.13844412E-03   8.45182806E-04   0.00000000E+00   6.72709605E-05   1.50099574E-01
   2.81750000E+03   5.00000000E-01   5.00000000E-01   1.99960517E-01   9.99971639E-02   6.99904657E-02   6.74469038E-02   6.74403276E-02   1.00784090E-01   2.51618247E-03   6.99137300E-02   2.79666430E-02   9.99980549E-04   9.10938415E-04   0.00000000E+00   0.00000000E+00   3.14132421E-03   8.45220130E-04   0.00000000E+00   6.62552362E-05   1.50097958E-01
   2.85250000E+03   5.00000000E-01   5.00000000E-01   1.99960701E-01   9.99971671E-02   6.99904659E-02   6.74469955E-02   6.74403276E-02   1.00747469E-01   2.50702067E-03   6.99238464E-02   2.79677208E-02   9.99983879E-04   9.10931426E-04   0.00000000E+00   0.00000000E+00   3.14486817E-03   8.45262266E-04   0.00000000E+00   6.52412243E-05   1.50096058E-01