 TITLE = "Mineral Volumes" 
VARIABLES = "X"          "Y"              "Z"            "Forsterite"     "Fayalite"       "Brucite"        "Lizardite"      "Chrysotile"     "Saponite(Mg)"   "Enstatite(alph" "Ferrosilite(al" "Anorthite"      "Albite(low)"    "Clinochlore"    "Sudoite"        "Montmorillonit" "Kaolinite"      "Tremolite"      "Pargasite"      "Anhydrite"      "Epidote"        "Scolecite"      "Pyrite"         "FeS(am)"        "Quartz(alpha)" 
 ZONE I=         100 , J=           1 , K=           1  F=POINT
   1.75000000E+01   5.00000000E-01   5.00000000E-01   8.76560365E-02   1.02483147E-01   2.24984216E-11   5.92169815E-14   4.60477192E-14   0.00000000E+00   4.99973409E-02   4.99990537E-02   3.25903138E-02   7.31900606E-02   8.37568785E-02   1.17119679E-10   2.72541697E-14   1.17617071E-09   6.48335836E-02   6.44069976E-02   4.13539405E-11   9.99999936E-04   9.83443255E-04   4.66917222E-11   5.72473088E-11   1.00328566E-10
   5.25000000E+01   5.00000000E-01   5.00000000E-01   8.76560369E-02   1.05082291E-01   2.24984192E-11   6.31718114E-14   4.87735828E-14   0.00000000E+00   4.99973448E-02   5.00004879E-02   3.25903138E-02   8.04119564E-02   7.61246388E-02   3.38321486E-11   2.13520507E-12   1.14344087E-09   6.54447021E-02   6.44069976E-02   4.20656470E-11   1.00000002E-03   9.83444323E-04   4.66917222E-11   5.72521482E-11   1.00455156E-10
   8.75000000E+01   5.00000000E-01   5.00000000E-01   8.76560373E-02   1.06774672E-01   2.24984316E-11   6.22055313E-14   4.85772893E-14   0.00000000E+00   4.99973469E-02   5.00011714E-02   3.25903138E-02   8.44075104E-02   7.19028925E-02   3.23399230E-11   1.89891863E-10   1.17601442E-09   6.59600500E-02   6.44069976E-02   4.28637666E-11   1.00000001E-03   9.83445868E-04   4.66917222E-11   5.72543609E-11   1.00490367E-10
   1.22500000E+02   5.00000000E-01   5.00000000E-01   8.76560377E-02   1.07608935E-01   2.24984469E-11   5.66763297E-14   4.55020249E-14   0.00000000E+00   4.99973480E-02   5.00014170E-02   3.25903139E-02   8.62226276E-02   6.99850082E-02   4.17778508E-11   7.86331336E-09   1.23222549E-09   6.60919744E-02   6.44069976E-02   4.37649745E-11   1.00000000E-03   9.83447741E-04   4.66917222E-11   5.72552576E-11   1.00489462E-10
   1.57500000E+02   5.00000000E-01   5.00000000E-01   8.76560381E-02   1.08033975E-01   2.24984641E-11   5.07932297E-14   4.20095987E-14   0.00000000E+00   4.99973489E-02   5.00014884E-02   3.25903140E-02   8.69186420E-02   6.92493893E-02   6.23626816E-11   1.60284050E-07   1.30527330E-09   6.59878432E-02   6.44069976E-02   4.47879922E-11   1.00000000E-03   9.83449904E-04   4.66917222E-11   5.72554903E-11   1.00477133E-10
   1.92500000E+02   5.00000000E-01   5.00000000E-01   8.76560385E-02   1.08284227E-01   2.24984828E-11   4.57532300E-14   3.88824250E-14   0.00000000E+00   4.99973497E-02   5.00014957E-02   3.25903142E-02   8.71410584E-02   6.90116805E-02   1.02456988E-10   2.21920500E-06   1.39257592E-09   6.57939878E-02   6.44069976E-02   4.59538412E-11   1.00000000E-03   9.83452341E-04   4.66917222E-11   5.72553439E-11   1.00462281E-10
   2.27500000E+02   5.00000000E-01   5.00000000E-01   8.76560391E-02   1.08463391E-01   2.24985028E-11   4.16597751E-14   3.62486350E-14   0.00000000E+00   4.99973506E-02   5.00014800E-02   3.25903144E-02   8.71594086E-02   6.89626391E-02   1.76439436E-10   2.48472396E-05   1.49129809E-09   6.55779253E-02   6.44069976E-02   4.72869242E-11   1.00000000E-03   9.83455035E-04   4.66917222E-11   5.72549578E-11   1.00447684E-10
   2.62500000E+02   5.00000000E-01   5.00000000E-01   8.76560397E-02   1.08622524E-01   2.24985252E-11   3.87402166E-14   3.43322690E-14   0.00000000E+00   4.99973515E-02   5.00014562E-02   3.25903146E-02   8.69631756E-02   6.89184106E-02   3.05190970E-10   2.16846378E-04   1.59890701E-09   6.54058073E-02   6.44069976E-02   4.88156164E-11   1.00000000E-03   9.83457972E-04   4.66917222E-11   5.72544099E-11   1.00433512E-10
   2.97500000E+02   5.00000000E-01   5.00000000E-01   8.76560405E-02   1.08797045E-01   2.24985530E-11   3.75296346E-14   3.35921134E-14   0.00000000E+00   4.99973528E-02   5.00014305E-02   3.25903150E-02   8.62521773E-02   6.87052497E-02   5.18236414E-10   9.52896027E-04   1.71312352E-09   6.53774579E-02   6.44069976E-02   5.05725944E-11   1.00000000E-03   9.83461135E-04   4.66917222E-11   5.72537500E-11   1.00418684E-10
   3.32500000E+02   5.00000000E-01   5.00000000E-01   8.76560417E-02   1.08966284E-01   2.24985856E-11   3.72317368E-14   3.35044092E-14   0.00000000E+00   4.99973543E-02   5.00013976E-02   3.25903156E-02   8.51384444E-02   6.84431219E-02   8.56861758E-10   2.05109202E-03   1.83124022E-09   6.54304442E-02   6.44069976E-02   5.25979176E-11   1.00000000E-03   9.83464509E-04   4.66917222E-11   5.72530053E-11   1.00403375E-10
   3.67500000E+02   5.00000000E-01   5.00000000E-01   8.76560431E-02   1.09111896E-01   2.24986212E-11   3.71704049E-14   3.35882164E-14   0.00000000E+00   4.99973559E-02   5.00013549E-02   3.25903163E-02   8.39299838E-02   6.82255773E-02   1.37678792E-09   3.19165124E-03   1.95049911E-09   6.55008091E-02   6.44069976E-02   5.49411347E-11   1.00000000E-03   9.83468085E-04   4.66917222E-11   5.72522008E-11   1.00388109E-10
   4.02500000E+02   5.00000000E-01   5.00000000E-01   8.76560448E-02   1.09240458E-01   2.24986595E-11   3.71774556E-14   3.37219583E-14   0.00000000E+00   4.99973575E-02   5.00013059E-02   3.25903172E-02   8.27415968E-02   6.80396846E-02   2.14695662E-09   4.29186422E-03   2.06975093E-09   6.55758671E-02   6.44069976E-02   5.76632663E-11   1.00000000E-03   9.83471864E-04   4.66917222E-11   5.72513624E-11   1.00373111E-10
   4.37500000E+02   5.00000000E-01   5.00000000E-01   8.76560467E-02   1.09358412E-01   2.24987002E-11   3.71811056E-14   3.38521911E-14   0.00000000E+00   4.99973592E-02   5.00012535E-02   3.25903185E-02   8.16082324E-02   6.78710590E-02   3.24870599E-09   5.33452604E-03   2.18944568E-09   6.56522253E-02   6.44069976E-02   6.08399358E-11   1.00000000E-03   9.83475858E-04   4.66917222E-11   5.72505099E-11   1.00358451E-10
   4.72500000E+02   5.00000000E-01   5.00000000E-01   8.76560491E-02   1.09469167E-01   2.24987434E-11   3.71499021E-14   3.39543705E-14   0.00000000E+00   4.99973609E-02   5.00011994E-02   3.25903202E-02   8.05403423E-02   6.77129418E-02   4.77181043E-09   6.31636601E-03   2.31002116E-09   6.57277924E-02   6.44069976E-02   6.45656673E-11   1.00000000E-03   9.83480088E-04   4.66917222E-11   5.72496590E-11   1.00344149E-10
   5.07500000E+02   5.00000000E-01   5.00000000E-01   8.76560517E-02   1.09574459E-01   2.24987892E-11   3.70806413E-14   3.40250926E-14   0.00000000E+00   4.99973626E-02   5.00011444E-02   3.25903224E-02   7.95401000E-02   6.75623481E-02   6.82430065E-09   7.23790915E-03   2.43148874E-09   6.58008179E-02   6.44069976E-02   6.89597110E-11   1.00000000E-03   9.83484574E-04   4.66917222E-11   5.72488215E-11   1.00330214E-10
   5.42500000E+02   5.00000000E-01   5.00000000E-01   8.76560548E-02   1.09675397E-01   2.24988376E-11   3.69820649E-14   3.40703454E-14   0.00000000E+00   4.99973644E-02   5.00010893E-02   3.25903253E-02   7.86066487E-02   6.74173671E-02   9.54111724E-09   8.10130444E-03   2.55267533E-09   6.58698375E-02   6.44069976E-02   7.41740037E-11   1.00000000E-03   9.83489333E-04   4.66917222E-11   5.72480068E-11   1.00316657E-10
   5.77500000E+02   5.00000000E-01   5.00000000E-01   8.76560584E-02   1.09772806E-01   2.24988888E-11   3.68682407E-14   3.41007083E-14   0.00000000E+00   4.99973661E-02   5.00010343E-02   3.25903291E-02   7.77378516E-02   6.72763672E-02   1.30823010E-08   8.90951954E-03   2.67105412E-09   6.59336918E-02   6.44069976E-02   8.04041620E-11   1.00000000E-03   9.83494375E-04   4.66917222E-11   5.72472221E-11   1.00303485E-10
   6.12500000E+02   5.00000000E-01   5.00000000E-01   8.76560626E-02   1.09867132E-01   2.24989429E-11   3.67572784E-14   3.41305409E-14   0.00000000E+00   4.99973679E-02   5.00009799E-02   3.25903340E-02   7.69309043E-02   6.71381799E-02   1.76331005E-08   9.66570718E-03   2.78455060E-09   6.59915286E-02   6.44069976E-02   8.79048310E-11   1.00000000E-03   9.83499720E-04   4.66917222E-11   5.72464726E-11   1.00290708E-10
   6.47500000E+02   5.00000000E-01   5.00000000E-01   8.76560673E-02   1.09958372E-01   2.24990001E-11   3.66718272E-14   3.41785600E-14   0.00000000E+00   4.99973696E-02   5.00009260E-02   3.25903403E-02   7.61825747E-02   6.70022380E-02   2.33850919E-08   1.03729058E-02   2.89358065E-09   6.60428027E-02   6.44069976E-02   9.70113883E-11   1.00000000E-03   9.83505419E-04   4.66917222E-11   5.72457618E-11   1.00278337E-10
   6.82500000E+02   5.00000000E-01   5.00000000E-01   8.76560728E-02   1.10046360E-01   2.24990606E-11   3.66399652E-14   3.42687515E-14   0.00000000E+00   4.99973713E-02   5.00008729E-02   3.25903485E-02   7.54895289E-02   6.68681052E-02   3.05396038E-08   1.10341360E-02   3.00033186E-09   6.60872589E-02   6.44069976E-02   1.08171067E-10   1.00000000E-03   9.83511548E-04   4.66917222E-11   5.72450923E-11   1.00266382E-10
   7.17500000E+02   5.00000000E-01   5.00000000E-01   8.76560791E-02   1.10131198E-01   2.24991246E-11   3.66963001E-14   3.44314823E-14   0.00000000E+00   4.99973731E-02   5.00008206E-02   3.25903591E-02   7.48487242E-02   6.67346023E-02   3.93650732E-08   1.16527499E-02   3.10634769E-09   6.61248709E-02   6.44069976E-02   1.21988261E-10   1.00000000E-03   9.83518192E-04   4.66917222E-11   5.72444652E-11   1.00254850E-10
   7.52500000E+02   5.00000000E-01   5.00000000E-01   8.76560864E-02   1.10213186E-01   2.24991925E-11   3.68847954E-14   3.47060943E-14   0.00000000E+00   4.99973748E-02   5.00007692E-02   3.25903729E-02   7.42573744E-02   6.66001789E-02   5.01776661E-08   1.22321758E-02   3.21215371E-09   6.61558007E-02   6.44069976E-02   1.39291461E-10   1.00000000E-03   9.83525449E-04   4.66917222E-11   5.72438810E-11   1.00243741E-10
   7.87500000E+02   5.00000000E-01   5.00000000E-01   8.76560949E-02   1.10292695E-01   2.24992646E-11   3.72630291E-14   3.51448127E-14   0.00000000E+00   4.99973765E-02   5.00007186E-02   3.25903907E-02   7.37129620E-02   6.64632360E-02   6.33841042E-08   1.27756623E-02   3.31792679E-09   6.61803401E-02   6.44069976E-02   1.61233792E-10   1.00000000E-03   9.83533437E-04   4.66917222E-11   5.72433393E-11   1.00233051E-10
   8.22500000E+02   5.00000000E-01   5.00000000E-01   8.76561049E-02   1.10370141E-01   2.24993414E-11   3.79092709E-14   3.58192049E-14   0.00000000E+00   4.99973782E-02   5.00006690E-02   3.25904140E-02   7.32132580E-02   6.63222768E-02   7.94809451E-08   1.32861460E-02   3.42352263E-09   6.61988708E-02   6.44069976E-02   1.89446654E-10   1.00000000E-03   9.83542305E-04   4.66917222E-11   5.72428392E-11   1.00222772E-10
   8.57500000E+02   5.00000000E-01   5.00000000E-01   8.76561168E-02   1.10446011E-01   2.24994236E-11   3.89335964E-14   3.68303462E-14   0.00000000E+00   4.99973798E-02   5.00006203E-02   3.25904444E-02   7.27564172E-02   6.61758664E-02   9.91183828E-08   1.37662061E-02   3.52841561E-09   6.62118158E-02   6.44069976E-02   2.26278979E-10   9.99999999E-04   9.83552241E-04   4.66917222E-11   5.72423792E-11   1.00212890E-10
   8.92500000E+02   5.00000000E-01   5.00000000E-01   8.76561310E-02   1.10520824E-01   2.24995119E-11   4.04962523E-14   3.83256004E-14   0.00000000E+00   4.99973815E-02   5.00005725E-02   3.25904842E-02   7.23410467E-02   6.60227218E-02   1.23107881E-07   1.42179398E-02   3.63153846E-09   6.62196158E-02   6.44069976E-02   2.75177274E-10   9.99999999E-04   9.83563492E-04   4.66917222E-11   5.72419573E-11   1.00203392E-10
   9.27500000E+02   5.00000000E-01   5.00000000E-01   8.76561483E-02   1.10595117E-01   2.24996074E-11   4.28378605E-14   4.05262341E-14   0.00000000E+00   4.99973831E-02   5.00005254E-02   3.25905368E-02   7.19663536E-02   6.58616653E-02   1.52547914E-07   1.46428781E-02   3.73141203E-09   6.62226894E-02   6.44069976E-02   3.41302353E-10   9.99999997E-04   9.83576392E-04   4.66917222E-11   5.72415715E-11   1.00194258E-10
   9.62500000E+02   5.00000000E-01   5.00000000E-01   8.76561699E-02   1.10669434E-01   2.24997113E-11   4.63309354E-14   4.37744847E-14   0.00000000E+00   4.99973846E-02   5.00004792E-02   3.25906069E-02   7.16323093E-02   6.56915372E-02   1.88902535E-07   1.50419186E-02   3.82642059E-09   6.62214124E-02   6.44069976E-02   4.32553272E-10   9.99999996E-04   9.83591413E-04   4.66917222E-11   5.72412195E-11   1.00185470E-10
   9.97500000E+02   5.00000000E-01   5.00000000E-01   8.76561974E-02   1.10744270E-01   2.24998255E-11   5.15693189E-14   4.86152631E-14   0.00000000E+00   4.99973862E-02   5.00004337E-02   3.25907014E-02   7.13398787E-02   6.55111108E-02   2.33997131E-07   1.54152050E-02   3.91533341E-09   6.62161333E-02   6.44069976E-02   5.61309543E-10   9.99999993E-04   9.83609255E-04   4.66917222E-11   5.72408988E-11   1.00177008E-10
   1.03250000E+03   5.00000000E-01   5.00000000E-01   8.76562329E-02   1.10819938E-01   2.24999519E-11   5.95246909E-14   5.59392825E-14   0.00000000E+00   4.99973877E-02   5.00003888E-02   3.25908311E-02   7.10914726E-02   6.53190566E-02   2.90130917E-07   1.57617855E-02   3.99813656E-09   6.62071768E-02   6.44069976E-02   7.47474291E-10   9.99999990E-04   9.83631017E-04   4.66917222E-11   5.72406069E-11   1.00168849E-10
   1.06750000E+03   5.00000000E-01   5.00000000E-01   8.76562796E-02   1.10896580E-01   2.25000932E-11   7.18194583E-14   6.72333845E-14   0.00000000E+00   4.99973891E-02   5.00003443E-02   3.25910137E-02   7.08919401E-02   6.51133522E-02   3.60379190E-07   1.60792582E-02   4.07554738E-09   6.61948180E-02   6.44069976E-02   1.02394215E-09   9.99999987E-04   9.83658508E-04   4.66917222E-11   5.72403412E-11   1.00160971E-10
   1.10250000E+03   5.00000000E-01   5.00000000E-01   8.76563417E-02   1.10974029E-01   2.25002527E-11   9.11840954E-14   8.50030858E-14   0.00000000E+00   4.99973905E-02   5.00003000E-02   3.25912808E-02   7.07505441E-02   6.48905648E-02   4.49169319E-07   1.63627123E-02   4.14811578E-09   6.61792164E-02   6.44069976E-02   1.44672622E-09   9.99999982E-04   9.83694927E-04   4.66917222E-11   5.72400989E-11   1.00153348E-10
   1.13750000E+03   5.00000000E-01   5.00000000E-01   8.76562672E-02   1.07862510E-01   2.24999108E-11   8.99856420E-14   8.46954660E-14   5.98114206E-02   4.99973439E-02   4.99989594E-02   3.25918012E-02   6.67975573E-02   1.08422532E-02   8.17589211E-06   4.89458631E-02   6.75562184E-09   6.45630898E-02   6.44069976E-02   2.10976049E-09   9.99999985E-04   9.83773152E-04   4.66917222E-11   5.72398394E-11   1.00045320E-10
   1.17250000E+03   5.00000000E-01   5.00000000E-01   8.76563709E-02   1.09195306E-01   2.25002091E-11   1.28765336E-13   1.20588875E-13   0.00000000E+00   4.99973484E-02   4.99992632E-02   3.25924570E-02   6.75203551E-02   7.02341732E-02   9.44386793E-07   1.48864803E-02   4.94852141E-09   6.45620473E-02   6.44069976E-02   3.19575962E-09   9.99999971E-04   9.83843440E-04   4.66917222E-11   5.72397673E-11   1.00053960E-10
   1.20750000E+03   5.00000000E-01   5.00000000E-01   8.76565071E-02   1.10476058E-01   2.25004894E-11   1.89383140E-13   1.76887065E-13   0.00000000E+00   4.99973520E-02   4.99994844E-02   3.25939350E-02   6.82700355E-02   6.74727362E-02   1.04449097E-06   1.63867858E-02   4.74036717E-09   6.45617148E-02   6.44069976E-02   5.04963291E-09   9.99999965E-04   9.84001244E-04   4.66917222E-11   5.72396205E-11   1.00058186E-10
   1.24250000E+03   5.00000000E-01   5.00000000E-01   8.76566788E-02   1.11228315E-01   2.25007904E-11   2.73614582E-13   2.55775076E-13   0.00000000E+00   4.99973549E-02   4.99995936E-02   3.25989854E-02   6.94065609E-02   6.54471205E-02   1.37551451E-06   1.70071063E-02   4.70384184E-09   6.45618000E-02   6.44069976E-02   8.34798455E-09   9.99999960E-04   9.84501951E-04   4.66917222E-11   5.72394231E-11   1.00059530E-10
   1.27750000E+03   5.00000000E-01   5.00000000E-01   8.76568822E-02   1.11403529E-01   2.25011314E-11   3.61498772E-13   3.39690939E-13   0.00000000E+00   4.99973571E-02   4.99996088E-02   3.26531875E-02   7.24546392E-02   6.40466196E-02   2.21669834E-06   1.55254770E-02   4.71849468E-09   6.45624857E-02   6.44069976E-02   1.44784477E-08   9.99999954E-04   9.88740545E-04   4.66917222E-11   5.72391846E-11   1.00058847E-10
   1.31250000E+03   5.00000000E-01   5.00000000E-01   8.76571065E-02   1.11366037E-01   2.25015671E-11   4.05738746E-13   3.84938716E-13   0.00000000E+00   4.99973593E-02   4.99995845E-02   3.34017594E-02   7.66511528E-02   6.31741983E-02   2.50383843E-06   1.15752593E-02   4.61371074E-09   6.45755808E-02   6.44069976E-02   2.63936204E-08   9.99999948E-04   1.02082100E-03   4.66917222E-11   5.72389598E-11   1.00057522E-10
   1.34750000E+03   5.00000000E-01   5.00000000E-01   8.76573434E-02   1.11384450E-01   2.25022272E-11   3.81286086E-13   3.66332939E-13   0.00000000E+00   4.99973618E-02   4.99995567E-02   3.47047728E-02   7.73971409E-02   6.18894100E-02   1.60374580E-06   9.84141464E-03   4.41402825E-09   6.52663535E-02   6.44069976E-02   5.05912098E-08   9.99999941E-04   1.04775388E-03   4.66917222E-11   5.72387893E-11   1.00056182E-10
   1.38250000E+03   5.00000000E-01   5.00000000E-01   8.76575086E-02   1.09450678E-01   2.25027595E-11   3.08558687E-13   3.00554180E-13   2.17725384E-02   4.99973480E-02   4.99990094E-02   3.58967092E-02   7.57732448E-02   4.13329259E-02   2.24471401E-05   2.05782559E-02   6.11225220E-09   6.65365337E-02   6.44069976E-02   1.01860188E-07   9.99999936E-04   1.05678856E-03   4.66917222E-11   5.72386458E-11   1.00029524E-10
   1.41750000E+03   5.00000000E-01   5.00000000E-01   8.76577496E-02   1.09964229E-01   2.25037261E-11   2.44991954E-13   2.41569647E-13   2.90025825E-03   4.99973489E-02   4.99990383E-02   3.69810196E-02   7.54559824E-02   5.85036347E-02   1.92150393E-05   9.73180580E-03   5.74631161E-09   6.77047400E-02   6.44069976E-02   2.17558359E-07   9.99999928E-04   1.05925492E-03   4.66917222E-11   5.72385682E-11   1.00027391E-10
   1.45250000E+03   5.00000000E-01   5.00000000E-01   8.76580045E-02   1.10469269E-01   2.25049011E-11   1.94413035E-13   1.93687604E-13   1.48578953E-03   4.99973498E-02   4.99990605E-02   3.80080700E-02   7.52813706E-02   5.74687520E-02   1.71148067E-05   9.30113157E-03   5.44632668E-09   6.87946286E-02   6.44069976E-02   4.95265888E-07   9.99999923E-04   1.05916532E-03   4.66917222E-11   5.72384949E-11   1.00025659E-10
   1.48750000E+03   5.00000000E-01   5.00000000E-01   8.76582743E-02   1.10882283E-01   2.25063459E-11   1.56385012E-13   1.57117640E-13   4.67428280E-04   4.99973508E-02   4.99990694E-02   3.90111876E-02   7.51250167E-02   5.62578050E-02   1.48251637E-05   8.95156825E-03   5.16185324E-09   6.98377363E-02   6.44069976E-02   1.20700790E-06   9.99999919E-04   1.05778710E-03   4.66917222E-11   5.72384266E-11   1.00024007E-10
   1.52250000E+03   5.00000000E-01   5.00000000E-01   8.76585573E-02   1.11123113E-01   2.25081261E-11   1.27732937E-13   1.29194501E-13   8.08426786E-07   4.99973516E-02   4.99990564E-02   4.00050944E-02   7.49396750E-02   5.48699919E-02   1.60444082E-05   8.66109464E-03   4.99691903E-09   7.08483679E-02   6.44069976E-02   3.16252276E-06   9.99999918E-04   1.05565429E-03   4.66917222E-11   5.72383645E-11   1.00022119E-10
   1.55750000E+03   5.00000000E-01   5.00000000E-01   8.76588510E-02   1.11189059E-01   2.25103269E-11   1.05858584E-13   1.07630199E-13   2.39568546E-13   4.99973521E-02   4.99990207E-02   4.09899908E-02   7.47348846E-02   5.33908263E-02   2.35195507E-05   8.36896389E-03   4.98223292E-09   7.18271004E-02   6.44069976E-02   8.94699392E-06   9.99999919E-04   1.05294620E-03   4.66917222E-11   5.72383099E-11   1.00019849E-10
   1.59250000E+03   5.00000000E-01   5.00000000E-01   8.76591533E-02   1.11178908E-01   2.25130643E-11   8.89514881E-14   9.07976157E-14   2.28078809E-22   4.99973524E-02   4.99989746E-02   4.19658751E-02   7.45541638E-02   5.21009092E-02   4.35116976E-05   7.90789681E-03   5.06557275E-09   7.27755843E-02   6.44069976E-02   2.74509094E-05   9.99999923E-04   1.04990319E-03   4.66917222E-11   5.72382637E-11   1.00017396E-10
   1.62750000E+03   5.00000000E-01   5.00000000E-01   8.76594618E-02   1.11151485E-01   2.25164826E-11   7.57605763E-14   7.75547754E-14   7.22900842E-34   4.99973526E-02   4.99989249E-02   4.29385503E-02   7.44307605E-02   5.08706031E-02   9.55532170E-05   7.30991936E-03   5.20000825E-09   7.36972358E-02   6.44069977E-02   9.16562495E-05   9.99999928E-04   1.04676274E-03   4.66917222E-11   5.72382249E-11   1.00014870E-10
   1.66250000E+03   5.00000000E-01   5.00000000E-01   8.76597751E-02   1.11127962E-01   2.25207622E-11   6.54347236E-14   6.71159243E-14   8.73421353E-47   4.99973527E-02   4.99988752E-02   4.39136081E-02   7.44340085E-02   4.96261713E-02   2.18230420E-04   6.50554646E-03   5.35058976E-09   7.45919818E-02   6.44069977E-02   3.32405606E-04   9.99999935E-04   1.04369050E-03   4.66917222E-11   5.72381920E-11   1.00012360E-10
   1.69750000E+03   5.00000000E-01   5.00000000E-01   8.76600948E-02   1.11109660E-01   2.25261338E-11   5.73976046E-14   5.89440773E-14   2.04955942E-58   4.99973528E-02   4.99988272E-02   4.49176387E-02   7.46325485E-02   4.83071201E-02   4.31646692E-04   5.41095697E-03   5.50359822E-09   7.54664004E-02   6.44069977E-02   1.27585435E-03   9.99999942E-04   1.04105706E-03   4.66917222E-11   5.72381632E-11   1.00009947E-10
   1.73250000E+03   5.00000000E-01   5.00000000E-01   8.76604257E-02   1.11093285E-01   2.25328960E-11   5.12123443E-14   5.26252275E-14   8.51388575E-66   4.99973532E-02   4.99987860E-02   4.59620531E-02   7.48451622E-02   4.68486544E-02   9.76510059E-04   3.82485691E-03   5.55418470E-09   7.63340219E-02   6.44069978E-02   4.63725295E-03   9.99999949E-04   1.03868413E-03   4.66917222E-11   5.72381367E-11   1.00007928E-10
   1.76750000E+03   5.00000000E-01   5.00000000E-01   8.76607717E-02   1.11116640E-01   2.25414033E-11   4.64709594E-14   4.77620733E-14   8.97060022E-69   4.99973541E-02   4.99987530E-02   4.71125181E-02   7.49665570E-02   4.51910511E-02   1.62780850E-03   2.12641283E-03   5.43356622E-09   7.73499499E-02   6.44069979E-02   1.25675735E-02   9.99999955E-04   1.03673472E-03   4.66917222E-11   5.72381140E-11   1.00006250E-10
   1.80250000E+03   5.00000000E-01   5.00000000E-01   8.76611304E-02   1.11088322E-01   2.25520674E-11   4.27655471E-14   4.39479563E-14   3.70686400E-71   4.99973549E-02   4.99987156E-02   4.83763647E-02   7.50465440E-02   4.36674919E-02   1.85910811E-03   8.38337904E-04   5.19523773E-09   7.84382384E-02   6.44069979E-02   2.21024220E-02   9.99999961E-04   1.03480022E-03   4.66917222E-11   5.72380944E-11   1.00004611E-10
   1.83750000E+03   5.00000000E-01   5.00000000E-01   8.76615010E-02   1.10963284E-01   2.25654252E-11   3.97443870E-14   4.08277067E-14   3.68719520E-74   4.99973558E-02   4.99986669E-02   4.96745538E-02   7.50827007E-02   4.24174422E-02   1.60208361E-03   9.07291231E-05   4.82749058E-09   7.94789105E-02   6.44069980E-02   2.78146651E-02   9.99999966E-04   1.03251414E-03   4.66917222E-11   5.72380770E-11   1.00002799E-10
   1.87250000E+03   5.00000000E-01   5.00000000E-01   8.76618839E-02   1.10796142E-01   2.25821445E-11   3.71489222E-14   3.81379958E-14   3.25458786E-77   4.99973569E-02   4.99986098E-02   5.09871806E-02   7.47351386E-02   4.12701417E-02   1.05967680E-03   3.19780465E-07   4.22577249E-09   8.05341233E-02   6.44069982E-02   2.90360987E-02   9.99999971E-04   1.02988231E-03   4.66917222E-11   5.72380620E-11   1.00000735E-10
   1.90750000E+03   5.00000000E-01   5.00000000E-01   8.76622711E-02   1.10610775E-01   2.26029855E-11   3.48164536E-14   3.57119053E-14   7.05252582E-82   4.99973578E-02   4.99985466E-02   5.24178503E-02   7.40893514E-02   4.01215536E-02   4.92865962E-04   4.08078202E-10   3.68218655E-09   8.17239657E-02   6.44069983E-02   2.77997858E-02   9.99999974E-04   1.02745317E-03   4.66917222E-11   5.72380497E-11   9.99984821E-11
   1.94250000E+03   5.00000000E-01   5.00000000E-01   8.76626628E-02   1.10430886E-01   2.26289233E-11   3.26781556E-14   3.34792058E-14   1.57754351E-85   4.99973589E-02   4.99984840E-02   5.39672822E-02   7.29240262E-02   3.89446966E-02   8.47022210E-05   6.37791612E-14   3.03101620E-09   8.29361483E-02   6.44069985E-02   2.57839404E-02   9.99999977E-04   1.02503564E-03   4.66917222E-11   5.72380395E-11   9.99962992E-11
   1.97750000E+03   5.00000000E-01   5.00000000E-01   8.76630606E-02   1.10274969E-01   2.26611347E-11   3.07213064E-14   3.14279740E-14   2.56726410E-86   4.99973604E-02   4.99984288E-02   5.55791651E-02   7.10993089E-02   3.76667452E-02   3.63059618E-08   4.30300742E-19   2.04409813E-09   8.42079964E-02   6.44069988E-02   2.37339578E-02   9.99999979E-04   1.02238098E-03   4.66917222E-11   5.72380309E-11   9.99944522E-11
   2.01250000E+03   5.00000000E-01   5.00000000E-01   8.76634597E-02   1.10109734E-01   2.27009981E-11   2.89572884E-14   2.95716256E-14   2.27786910E-86   4.99973621E-02   4.99983792E-02   5.71641665E-02   6.91285259E-02   3.64256299E-02   1.07360135E-10   1.57475850E-22   1.53806954E-09   8.55293722E-02   6.44069992E-02   2.18725175E-02   9.99999981E-04   1.01936235E-03   4.66917222E-11   5.72380240E-11   9.99929408E-11
   2.04750000E+03   5.00000000E-01   5.00000000E-01   8.76638466E-02   1.10017966E-01   2.27501439E-11   2.74014309E-14   2.79279688E-14   1.60463173E-88   4.99973632E-02   4.99983389E-02   5.86373688E-02   6.72691829E-02   3.53017826E-02   6.96140192E-11   1.81321104E-23   1.46559893E-09   8.68379410E-02   6.44069996E-02   2.02272633E-02   9.99999982E-04   1.01602429E-03   4.66917222E-11   5.72380198E-11   9.99916537E-11
   2.08250000E+03   5.00000000E-01   5.00000000E-01   8.76642213E-02   1.10011070E-01   2.28106375E-11   2.60674873E-14   2.65135570E-14   2.14071382E-91   4.99973642E-02   4.99983096E-02   5.97860674E-02   6.56778786E-02   3.45766485E-02   6.33930537E-11   8.59672402E-24   1.44710625E-09   8.77341049E-02   6.44070002E-02   1.87719326E-02   9.99999983E-04   1.01225062E-03   4.66917222E-11   5.72380176E-11   9.99906285E-11
   2.11750000E+03   5.00000000E-01   5.00000000E-01   8.76645978E-02   1.10012949E-01   2.28850127E-11   2.49595641E-14   2.53348765E-14   4.74765541E-93   4.99973652E-02   4.99982866E-02   6.05393122E-02   6.45519822E-02   3.41898952E-02   5.84075433E-11   5.67291684E-24   1.43853597E-09   8.82061968E-02   6.44070010E-02   1.74695298E-02   9.99999984E-04   1.00849210E-03   4.66917222E-11   5.72380159E-11   9.99898612E-11
   2.15250000E+03   5.00000000E-01   5.00000000E-01   8.76649824E-02   1.10015688E-01   2.29762934E-11   2.40628288E-14   2.43779560E-14   6.48943444E-94   4.99973665E-02   4.99982679E-02   6.10441178E-02   6.38008255E-02   3.39278650E-02   5.41045041E-11   4.21988667E-24   1.43492337E-09   8.85173335E-02   6.44070020E-02   1.62863017E-02   9.99999985E-04   1.00519683E-03   4.66917222E-11   5.72380145E-11   9.99892666E-11
   2.18750000E+03   5.00000000E-01   5.00000000E-01   8.76653815E-02   1.10019024E-01   2.30881306E-11   2.33520361E-14   2.36173663E-14   2.37733105E-94   4.99973679E-02   4.99982522E-02   6.14067390E-02   6.32789764E-02   3.37211356E-02   5.05410676E-11   3.23169508E-24   1.43215101E-09   8.87558620E-02   6.44070032E-02   1.51976599E-02   9.99999985E-04   1.00241177E-03   4.66917222E-11   5.72380132E-11   9.99887821E-11
   2.22250000E+03   5.00000000E-01   5.00000000E-01   8.76658021E-02   1.10022874E-01   2.32249323E-11   2.27973659E-14   2.30223929E-14   1.52625150E-94   4.99973694E-02   4.99982386E-02   6.16842944E-02   6.28946464E-02   3.35469187E-02   4.77828100E-11   2.45511889E-24   1.42688006E-09   8.89511130E-02   6.44070048E-02   1.41877574E-02   9.99999985E-04   1.00006670E-03   4.66917222E-11   5.72380121E-11   9.99883704E-11
   2.25750000E+03   5.00000000E-01   5.00000000E-01   8.76662515E-02   1.10026912E-01   2.33920184E-11   2.23689182E-14   2.25618582E-14   1.37870262E-94   4.99973709E-02   4.99982265E-02   6.19074220E-02   6.25966536E-02   3.33951085E-02   4.55962912E-11   1.83570234E-24   1.41798474E-09   8.91166842E-02   6.44070068E-02   1.32445379E-02   9.99999984E-04   9.98081777E-04   4.66917222E-11   5.72380111E-11   9.99880100E-11
   2.29250000E+03   5.00000000E-01   5.00000000E-01   8.76667373E-02   1.10030726E-01   2.35958136E-11   2.20397618E-14   2.22074547E-14   1.56412618E-94   4.99973726E-02   4.99982155E-02   6.20926779E-02   6.23568737E-02   3.32607721E-02   4.35476551E-11   1.35898165E-24   1.40644409E-09   8.92596354E-02   6.44070093E-02   1.23586647E-02   9.99999983E-04   9.96389539E-04   4.66917222E-11   5.72380102E-11   9.99876875E-11
   2.32750000E+03   5.00000000E-01   5.00000000E-01   8.76672673E-02   1.10034072E-01   2.38440838E-11   2.17872442E-14   2.19352312E-14   2.10086563E-94   4.99973743E-02   4.99982053E-02   6.22496863E-02   6.21591150E-02   3.31408924E-02   4.13199602E-11   1.00324512E-24   1.39369640E-09   8.93842228E-02   6.44070124E-02   1.15268974E-02   9.99999981E-04   9.94936866E-04   4.66917222E-11   5.72380094E-11   9.99873947E-11
   2.36250000E+03   5.00000000E-01   5.00000000E-01   8.76678496E-02   1.10036873E-01   2.41462277E-11   2.15932328E-14   2.17259272E-14   3.23097447E-94   4.99973761E-02   4.99981959E-02   6.23848098E-02   6.19931634E-02   3.30329596E-02   3.87976274E-11   7.41198176E-25   1.38063445E-09   8.94937236E-02   6.44070163E-02   1.07488346E-02   9.99999979E-04   9.93682541E-04   4.66917222E-11   5.72380086E-11   9.99871259E-11
   2.39750000E+03   5.00000000E-01   5.00000000E-01   8.76684926E-02   1.10039080E-01   2.45136401E-11   2.14436421E-14   2.15645245E-14   5.57333927E-94   4.99973780E-02   4.99981870E-02   6.25026598E-02   6.18519895E-02   3.29347568E-02   3.59683106E-11   5.48351249E-25   1.36761028E-09   8.95909074E-02   6.44070211E-02   1.00182445E-02   9.99999976E-04   9.92594313E-04   4.66917222E-11   5.72380078E-11   9.99868770E-11