 TITLE = "Mineral Volumes" 
VARIABLES = "X"          "Y"              "Z"            "Forsterite"     "Enstatite(alph" "Anorthite"      "Ferropargasite" "Anhydrite"      "Clinochlore"    "Albite(low)"   
 ZONE I=          35 , J=           1 , K=           1  F=POINT
   5.00000000E+01   5.00000000E-01   5.00000000E-01   2.80000278E-01   2.10000012E-01   6.99988875E-04   6.99999969E-02   1.99999996E-01   7.00000387E-02   1.29999989E-01
   1.50000000E+02   5.00000000E-01   5.00000000E-01   2.80000285E-01   2.10000006E-01   6.99988875E-04   6.99999969E-02   1.99999996E-01   7.00000387E-02   1.29999989E-01
   2.50000000E+02   5.00000000E-01   5.00000000E-01   2.80000289E-01   2.10000003E-01   6.99988875E-04   6.99999969E-02   1.99999996E-01   7.00000387E-02   1.29999989E-01
   3.50000000E+02   5.00000000E-01   5.00000000E-01   2.80000290E-01   2.10000002E-01   6.99988875E-04   6.99999969E-02   1.99999996E-01   7.00000387E-02   1.29999989E-01
   4.50000000E+02   5.00000000E-01   5.00000000E-01   2.80000291E-01   2.10000001E-01   6.99988875E-04   6.99999969E-02   1.99999996E-01   7.00000387E-02   1.29999989E-01
   5.50000000E+02   5.00000000E-01   5.00000000E-01   2.80000291E-01   2.10000000E-01   6.99988875E-04   6.99999969E-02   1.99999997E-01   7.00000387E-02   1.29999989E-01
   6.50000000E+02   5.00000000E-01   5.00000000E-01   2.80000290E-01   2.10000000E-01   6.99988875E-04   6.99999969E-02   1.99999997E-01   7.00000387E-02   1.29999989E-01
   7.50000000E+02   5.00000000E-01   5.00000000E-01   2.80000290E-01   2.10000000E-01   6.99988875E-04   6.99999969E-02   1.99999997E-01   7.00000387E-02   1.29999989E-01
   8.50000000E+02   5.00000000E-01   5.00000000E-01   2.80000289E-01   2.10000000E-01   6.99988875E-04   6.99999969E-02   1.99999997E-01   7.00000387E-02   1.29999989E-01
   9.50000000E+02   5.00000000E-01   5.00000000E-01   2.80000288E-01   2.10000000E-01   6.99988875E-04   6.99999969E-02   1.99999998E-01   7.00000387E-02   1.29999989E-01
   1.05000000E+03   5.00000000E-01   5.00000000E-01   2.80000287E-01   2.10000000E-01   6.99988875E-04   6.99999969E-02   1.99999998E-01   7.00000387E-02   1.29999989E-01
   1.15000000E+03   5.00000000E-01   5.00000000E-01   2.80000286E-01   2.10000000E-01   6.99988875E-04   6.99999969E-02   1.99999999E-01   7.00000387E-02   1.29999989E-01
   1.25000000E+03   5.00000000E-01   5.00000000E-01   2.80000285E-01   2.10000000E-01   6.99988875E-04   6.99999969E-02   1.99999999E-01   7.00000387E-02   1.29999989E-01
   1.35000000E+03   5.00000000E-01   5.00000000E-01   2.80000283E-01   2.10000000E-01   6.99988875E-04   6.99999969E-02   2.00000000E-01   7.00000387E-02   1.29999989E-01
   1.45000000E+03   5.00000000E-01   5.00000000E-01   2.80000282E-01   2.10000000E-01   6.99988875E-04   6.99999969E-02   2.00000001E-01   7.00000387E-02   1.29999989E-01
   1.55000000E+03   5.00000000E-01   5.00000000E-01   2.80000281E-01   2.10000000E-01   6.99988875E-04   6.99999969E-02   2.00000002E-01   7.00000387E-02   1.29999989E-01
   1.65000000E+03   5.00000000E-01   5.00000000E-01   2.80000279E-01   2.10000000E-01   6.99988875E-04   6.99999969E-02   2.00000003E-01   7.00000387E-02   1.29999989E-01
   1.75000000E+03   5.00000000E-01   5.00000000E-01   2.80000278E-01   2.10000000E-01   6.99988875E-04   6.99999969E-02   2.00000004E-01   7.00000387E-02   1.29999989E-01
   1.85000000E+03   5.00000000E-01   5.00000000E-01   2.80000277E-01   2.10000000E-01   6.99988875E-04   6.99999969E-02   2.00000005E-01   7.00000387E-02   1.29999989E-01
   1.95000000E+03   5.00000000E-01   5.00000000E-01   2.80000275E-01   2.10000000E-01   6.99988875E-04   6.99999969E-02   2.00000007E-01   7.00000387E-02   1.29999989E-01
   2.05000000E+03   5.00000000E-01   5.00000000E-01   2.80000274E-01   2.10000000E-01   6.99988875E-04   6.99999969E-02   2.00000009E-01   7.00000387E-02   1.29999989E-01
   2.15000000E+03   5.00000000E-01   5.00000000E-01   2.80000272E-01   2.10000000E-01   6.99988875E-04   6.99999969E-02   2.00000011E-01   7.00000387E-02   1.29999989E-01
   2.25000000E+03   5.00000000E-01   5.00000000E-01   2.80000270E-01   2.10000000E-01   6.99988875E-04   6.99999969E-02   2.00000013E-01   7.00000386E-02   1.29999989E-01
   2.35000000E+03   5.00000000E-01   5.00000000E-01   2.80000269E-01   2.10000000E-01   6.99988875E-04   6.99999969E-02   2.00000015E-01   7.00000386E-02   1.29999989E-01
   2.45000000E+03   5.00000000E-01   5.00000000E-01   2.80000267E-01   2.10000000E-01   6.99988875E-04   6.99999969E-02   2.00000018E-01   7.00000386E-02   1.29999989E-01
   2.55000000E+03   5.00000000E-01   5.00000000E-01   2.80000265E-01   2.10000000E-01   6.99988875E-04   6.99999969E-02   2.00000021E-01   7.00000386E-02   1.29999989E-01
   2.65000000E+03   5.00000000E-01   5.00000000E-01   2.80000264E-01   2.10000000E-01   6.99988875E-04   6.99999969E-02   2.00000025E-01   7.00000386E-02   1.29999989E-01
   2.75000000E+03   5.00000000E-01   5.00000000E-01   2.80000262E-01   2.10000000E-01   6.99988875E-04   6.99999969E-02   2.00000029E-01   7.00000386E-02   1.29999989E-01
   2.85000000E+03   5.00000000E-01   5.00000000E-01   2.80000260E-01   2.10000000E-01   6.99988875E-04   6.99999969E-02   2.00000033E-01   7.00000386E-02   1.29999989E-01
   2.95000000E+03   5.00000000E-01   5.00000000E-01   2.80000258E-01   2.10000000E-01   6.99988875E-04   6.99999969E-02   2.00000038E-01   7.00000385E-02   1.29999989E-01
   3.05000000E+03   5.00000000E-01   5.00000000E-01   2.80000256E-01   2.10000000E-01   6.99988875E-04   6.99999969E-02   2.00000043E-01   7.00000385E-02   1.29999989E-01
   3.15000000E+03   5.00000000E-01   5.00000000E-01   2.80000254E-01   2.10000000E-01   6.99988875E-04   6.99999969E-02   2.00000048E-01   7.00000384E-02   1.29999989E-01
   3.25000000E+03   5.00000000E-01   5.00000000E-01   2.80000252E-01   2.10000000E-01   6.99988875E-04   6.99999969E-02   2.00000054E-01   7.00000382E-02   1.29999989E-01
   3.35000000E+03   5.00000000E-01   5.00000000E-01   2.80000250E-01   2.10000000E-01   6.99988875E-04   6.99999969E-02   2.00000061E-01   7.00000380E-02   1.29999989E-01
   3.45000000E+03   5.00000000E-01   5.00000000E-01   2.80000249E-01   2.10000000E-01   6.99988875E-04   6.99999969E-02   2.00000067E-01   7.00000376E-02   1.29999989E-01
