 TITLE = "Mineral Volumes" 
VARIABLES = "X"          "Y"              "Z"            "Forsterite"     "Fayalite"       "Brucite"        "Lizardite"      "Chrysotile"     "Hematite"       "Magnetite(am)"  "Saponite(Ca)"   "Saponite(K)"    "Saponite(Mg)"   "Saponite(Na)"   "Beidellite(Ca)" "Beidellite(K)"  "Beidellite(Mg)" "Beidellite(Na)" "Enstatite(alph" "Ferrosilite(al" "Anorthite"      "Albite(low)"    "Clinochlore"    "Sudoite"        "Montmor(MgCa)"  "Montmor(MgK)"   "Montmor(MgMg)"  "Montmor(MgNa)"  "Kaolinite"      "Tremolite"      "Pargasite"      "Anhydrite"      "Epidote"        "Scolecite"      "Pyrite"         "FeS(am)"        "Quartz(alpha)" 
 ZONE I=         200 , J=           1 , K=           1  F=POINT
   8.75000000E+00   5.00000000E-01   5.00000000E-01   1.07961277E-01   1.09220887E-01   0.00000000E+00   0.00000000E+00   0.00000000E+00   1.72883491E-04   0.00000000E+00   1.00713438E-10   1.03920784E-04   1.37606938E-10   1.68380482E-05   9.82617401E-11   9.98220451E-11   9.82743688E-11   9.82570207E-11   4.99978187E-02   4.99980919E-02   6.57065810E-02   6.89684294E-02   1.79022807E-02   2.56268450E-10   9.96159885E-11   9.96094460E-11   9.96188283E-11   9.96151047E-11   9.98807674E-04   6.54840107E-02   6.53304470E-02   0.00000000E+00   8.41369567E-03   8.69639234E-11   9.38890615E-11   9.54939554E-11   1.00091078E-10
   2.62500000E+01   5.00000000E-01   5.00000000E-01   1.07961276E-01   1.09224976E-01   0.00000000E+00   0.00000000E+00   0.00000000E+00   1.72883490E-04   0.00000000E+00   1.00894830E-10   9.68619587E-04   1.48579255E-10   1.39791258E-04   9.82617471E-11   9.98220547E-11   9.82744007E-11   9.82571046E-11   4.99978165E-02   4.99981810E-02   6.57065810E-02   6.90729209E-02   1.75460167E-02   2.03615098E-10   9.96162407E-11   9.96154146E-11   9.96198888E-11   9.96193736E-11   9.98807713E-04   6.55164357E-02   6.53304470E-02   0.00000000E+00   8.41369567E-03   8.69639460E-11   9.38890615E-11   9.54940218E-11   1.00144377E-10
   4.37500000E+01   5.00000000E-01   5.00000000E-01   1.07961276E-01   1.09228268E-01   0.00000000E+00   0.00000000E+00   0.00000000E+00   1.72883490E-04   0.00000000E+00   1.00964430E-10   1.22537650E-03   1.52846521E-10   1.97476808E-04   9.82618998E-11   9.98222556E-11   9.82750932E-11   9.82588843E-11   4.99978150E-02   4.99982453E-02   6.57065810E-02   6.94233459E-02   1.70982450E-02   1.36676992E-10   9.96186052E-11   9.96685115E-11   9.96298205E-11   9.96582503E-11   9.98808141E-04   6.55316258E-02   6.53304470E-02   0.00000000E+00   8.41369567E-03   8.69641282E-11   9.38890615E-11   9.54940486E-11   1.00188313E-10
   6.12500000E+01   5.00000000E-01   5.00000000E-01   1.07961276E-01   1.09231834E-01   0.00000000E+00   0.00000000E+00   0.00000000E+00   1.72883489E-04   0.00000000E+00   1.01032129E-10   1.50430174E-03   1.57235447E-10   2.76767861E-04   9.82624258E-11   9.98229085E-11   9.82774742E-11   9.82648232E-11   4.99978146E-02   4.99983108E-02   6.57065810E-02   6.99363203E-02   1.64679137E-02   7.79323345E-11   9.96245150E-11   9.97928937E-11   9.96546156E-11   9.97520133E-11   9.98809069E-04   6.55437384E-02   6.53304470E-02   0.00000000E+00   8.41369568E-03   8.69644993E-11   9.38890615E-11   9.54940695E-11   1.00222804E-10
   7.87500000E+01   5.00000000E-01   5.00000000E-01   1.07961276E-01   1.09236046E-01   0.00000000E+00   0.00000000E+00   0.00000000E+00   1.72883489E-04   0.00000000E+00   1.01120710E-10   1.85383305E-03   1.63027366E-10   3.91991506E-04   9.82633172E-11   9.98239434E-11   9.82815018E-11   9.82745268E-11   4.99978146E-02   4.99983786E-02   6.57065810E-02   7.04645083E-02   1.57952250E-02   4.46275198E-11   9.96329508E-11   9.99574637E-11   9.96899679E-11   9.98804203E-11   9.98810226E-04   6.55640941E-02   6.53304470E-02   0.00000000E+00   8.41369568E-03   8.69649580E-11   9.38890615E-11   9.54940874E-11   1.00248013E-10
   9.62500000E+01   5.00000000E-01   5.00000000E-01   1.07961276E-01   1.09241021E-01   0.00000000E+00   0.00000000E+00   0.00000000E+00   1.72883489E-04   0.00000000E+00   1.01222592E-10   2.15365381E-03   1.69811988E-10   5.26445176E-04   9.82644329E-11   9.98251449E-11   9.82865339E-11   9.82861895E-11   4.99978148E-02   4.99984476E-02   6.57065810E-02   7.09233270E-02   1.52033140E-02   2.96297363E-11   9.96422660E-11   1.00123832E-10   9.97289584E-11   1.00015612E-10   9.98811410E-04   6.55896467E-02   6.53304470E-02   0.00000000E+00   8.41369568E-03   8.69654254E-11   9.38890615E-11   9.54941028E-11   1.00265452E-10
   1.13750000E+02   5.00000000E-01   5.00000000E-01   1.07961276E-01   1.09246775E-01   0.00000000E+00   0.00000000E+00   0.00000000E+00   1.72883489E-04   0.00000000E+00   1.01327565E-10   2.34196614E-03   1.76981957E-10   6.63643078E-04   9.82655676E-11   9.98262606E-11   9.82916401E-11   9.82974878E-11   4.99978152E-02   4.99985177E-02   6.57065810E-02   7.12738559E-02   1.47526044E-02   2.30086273E-11   9.96509462E-11   1.00262612E-10   9.97652405E-11   1.00134410E-10   9.98812438E-04   6.56172589E-02   6.53304470E-02   0.00000000E+00   8.41369568E-03   8.69658382E-11   9.38890615E-11   9.54941159E-11   1.00277124E-10
   1.31250000E+02   5.00000000E-01   5.00000000E-01   1.07961276E-01   1.09253335E-01   0.00000000E+00   0.00000000E+00   0.00000000E+00   1.72883489E-04   0.00000000E+00   1.01431396E-10   2.41542121E-03   1.84273679E-10   7.94091915E-04   9.82665480E-11   9.98271139E-11   9.82960405E-11   9.83066497E-11   4.99978157E-02   4.99985891E-02   6.57065810E-02   7.15128418E-02   1.44497080E-02   1.99418279E-11   9.96580878E-11   1.00360558E-10   9.97950393E-11   1.00224777E-10   9.98813196E-04   6.56450613E-02   6.53304470E-02   0.00000000E+00   8.41369568E-03   8.69661597E-11   9.38890615E-11   9.54941270E-11   1.00284860E-10
   1.48750000E+02   5.00000000E-01   5.00000000E-01   1.07961276E-01   1.09260765E-01   0.00000000E+00   0.00000000E+00   0.00000000E+00   1.72883488E-04   0.00000000E+00   1.01533972E-10   2.39579891E-03   1.91688063E-10   9.13711402E-04   9.82672905E-11   9.98276490E-11   9.82993608E-11   9.83129710E-11   4.99978163E-02   4.99986624E-02   6.57065810E-02   7.16572323E-02   1.42723647E-02   1.84546304E-11   9.96634509E-11   1.00418351E-10   9.98173632E-11   1.00285286E-10   9.98813658E-04   6.56720913E-02   6.53304470E-02   0.00000000E+00   8.41369569E-03   8.69663820E-11   9.38890615E-11   9.54941364E-11   1.00290060E-10
   1.66250000E+02   5.00000000E-01   5.00000000E-01   1.07961276E-01   1.09269112E-01   0.00000000E+00   0.00000000E+00   0.00000000E+00   1.72883488E-04   0.00000000E+00   1.01635945E-10   2.31360096E-03   1.99276339E-10   1.02212472E-03   9.82678017E-11   9.98279088E-11   9.83016341E-11   9.83167054E-11   4.99978170E-02   4.99987376E-02   6.57065810E-02   7.17319638E-02   1.41868081E-02   1.77094999E-11   9.96672762E-11   1.00444778E-10   9.98332340E-11   1.00321360E-10   9.98813871E-04   6.56978117E-02   6.53304470E-02   0.00000000E+00   8.41369569E-03   8.69665200E-11   9.38890615E-11   9.54941439E-11   1.00293668E-10
   1.83750000E+02   5.00000000E-01   5.00000000E-01   1.07961276E-01   1.09278349E-01   0.00000000E+00   0.00000000E+00   0.00000000E+00   1.72883488E-04   0.00000000E+00   1.01737054E-10   2.19742349E-03   2.07014507E-10   1.12118445E-03   9.82681427E-11   9.98279822E-11   9.83031390E-11   9.83186150E-11   4.99978178E-02   4.99988142E-02   6.57065810E-02   7.17617856E-02   1.41593871E-02   1.73282306E-11   9.96700328E-11   1.00451004E-10   9.98446233E-11   1.00341037E-10   9.98813914E-04   6.57218905E-02   6.53304470E-02   0.00000000E+00   8.41369569E-03   8.69665997E-11   9.38890615E-11   9.54941494E-11   1.00296242E-10
   2.01250000E+02   5.00000000E-01   5.00000000E-01   1.07961276E-01   1.09288450E-01   0.00000000E+00   0.00000000E+00   0.00000000E+00   1.72883488E-04   0.00000000E+00   1.01837856E-10   2.06207843E-03   2.14931980E-10   1.21104557E-03   9.82683592E-11   9.98279313E-11   9.83040818E-11   9.83192479E-11   4.99978186E-02   4.99988917E-02   6.57065810E-02   7.17626725E-02   1.41695364E-02   1.71292544E-11   9.96720501E-11   1.00444444E-10   9.98529153E-11   1.00349797E-10   9.98813844E-04   6.57445384E-02   6.53304470E-02   0.00000000E+00   8.41369569E-03   8.69666385E-11   9.38890615E-11   9.54941530E-11   1.00298128E-10
   2.18750000E+02   5.00000000E-01   5.00000000E-01   1.07961276E-01   1.09299404E-01   0.00000000E+00   0.00000000E+00   0.00000000E+00   1.72883488E-04   0.00000000E+00   1.01939507E-10   1.91531383E-03   2.23103337E-10   1.29066620E-03   9.82684730E-11   9.98277898E-11   9.83045633E-11   9.83188921E-11   4.99978195E-02   4.99989699E-02   6.57065810E-02   7.17437212E-02   1.42059941E-02   1.70225170E-11   9.96735008E-11   1.00429169E-10   9.98588365E-11   1.00350622E-10   9.98813688E-04   6.57664823E-02   6.53304470E-02   0.00000000E+00   8.41369569E-03   8.69666454E-11   9.38890615E-11   9.54941547E-11   1.00299557E-10
   2.36250000E+02   5.00000000E-01   5.00000000E-01   1.07961276E-01   1.09311090E-01   0.00000000E+00   0.00000000E+00   0.00000000E+00   1.72883488E-04   0.00000000E+00   1.02041089E-10   1.76630263E-03   2.31439294E-10   1.36142163E-03   9.82685178E-11   9.98275960E-11   9.83047349E-11   9.83179142E-11   4.99978205E-02   4.99990481E-02   6.57065810E-02   7.17133439E-02   1.42572726E-02   1.69632005E-11   9.96745952E-11   1.00409174E-10   9.98632675E-11   1.00346700E-10   9.98813481E-04   6.57884159E-02   6.53304470E-02   0.00000000E+00   8.41369569E-03   8.69666315E-11   9.38890615E-11   9.54941546E-11   1.00300648E-10
   2.53750000E+02   5.00000000E-01   5.00000000E-01   1.07961276E-01   1.09323385E-01   0.00000000E+00   0.00000000E+00   0.00000000E+00   1.72883487E-04   0.00000000E+00   1.02141487E-10   1.61781995E-03   2.39832418E-10   1.42222177E-03   9.82685042E-11   9.98273650E-11   9.83046451E-11   9.83164490E-11   4.99978215E-02   4.99991257E-02   6.57065810E-02   7.16754535E-02   1.43188235E-02   1.69282150E-11   9.96754089E-11   1.00386089E-10   9.98665267E-11   1.00339294E-10   9.98813238E-04   6.58109668E-02   6.53304470E-02   0.00000000E+00   8.41369569E-03   8.69666010E-11   9.38890615E-11   9.54941528E-11   1.00301483E-10
   2.71250000E+02   5.00000000E-01   5.00000000E-01   1.07961276E-01   1.09336157E-01   0.00000000E+00   0.00000000E+00   0.00000000E+00   1.72883487E-04   0.00000000E+00   1.02239177E-10   1.47249498E-03   2.48144387E-10   1.47253209E-03   9.82684391E-11   9.98271070E-11   9.83043257E-11   9.83145894E-11   4.99978225E-02   4.99992022E-02   6.57065810E-02   7.16324023E-02   1.43876466E-02   1.69058159E-11   9.96759846E-11   1.00360895E-10   9.98687936E-11   1.00329161E-10   9.98812967E-04   6.58343898E-02   6.53304470E-02   0.00000000E+00   8.41369570E-03   8.69665565E-11   9.38890615E-11   9.54941496E-11   1.00302115E-10
   2.88750000E+02   5.00000000E-01   5.00000000E-01   1.07961277E-01   1.09349281E-01   0.00000000E+00   0.00000000E+00   0.00000000E+00   1.72883487E-04   0.00000000E+00   1.02332515E-10   1.33282362E-03   2.56231000E-10   1.51254659E-03   9.82683319E-11   9.98268324E-11   9.83038189E-11   9.83124402E-11   4.99978236E-02   4.99992774E-02   6.57065810E-02   7.15859247E-02   1.44612464E-02   1.68901078E-11   9.96763651E-11   1.00334440E-10   9.98702479E-11   1.00316995E-10   9.98812678E-04   6.58584376E-02   6.53304470E-02   0.00000000E+00   8.41369570E-03   8.69665010E-11   9.38890615E-11   9.54941451E-11   1.00302577E-10
   3.06250000E+02   5.00000000E-01   5.00000000E-01   1.07961277E-01   1.09362665E-01   0.00000000E+00   0.00000000E+00   0.00000000E+00   1.72883487E-04   0.00000000E+00   1.02420274E-10   1.20086644E-03   2.63986413E-10   1.54302885E-03   9.82681941E-11   9.98265522E-11   9.83031767E-11   9.83101166E-11   4.99978247E-02   4.99993511E-02   6.57065810E-02   7.15373472E-02   1.45375248E-02   1.68781625E-11   9.96765977E-11   1.00307500E-10   9.98710877E-11   1.00303484E-10   9.98812383E-04   6.58824669E-02   6.53304470E-02   0.00000000E+00   8.41369570E-03   8.69664380E-11   9.38890615E-11   9.54941395E-11   1.00302886E-10
   3.23750000E+02   5.00000000E-01   5.00000000E-01   1.07961277E-01   1.09376261E-01   0.00000000E+00   0.00000000E+00   0.00000000E+00   1.72883487E-04   0.00000000E+00   1.02501943E-10   1.07808661E-03   2.71368661E-10   1.56508658E-03   9.82680380E-11   9.98262759E-11   9.83024544E-11   9.83077305E-11   4.99978259E-02   4.99994232E-02   6.57065810E-02   7.14876805E-02   1.46147794E-02   1.68685465E-11   9.96767315E-11   1.00280757E-10   9.98715175E-11   1.00289276E-10   9.98812092E-04   6.59056939E-02   6.53304470E-02   0.00000000E+00   8.41369570E-03   8.69663709E-11   9.38890615E-11   9.54941329E-11   1.00303051E-10
   3.41250000E+02   5.00000000E-01   5.00000000E-01   1.07961277E-01   1.09390060E-01   0.00000000E+00   0.00000000E+00   0.00000000E+00   1.72883487E-04   0.00000000E+00   1.02577740E-10   9.65298784E-04   2.78399837E-10   1.57992778E-03   9.82678750E-11   9.98260112E-11   9.83017028E-11   9.83053772E-11   4.99978271E-02   4.99994937E-02   6.57065810E-02   7.14376820E-02   1.46917103E-02   1.68605402E-11   9.96768123E-11   1.00254755E-10   9.98717290E-11   1.00274929E-10   9.98811812E-04   6.59274279E-02   6.53304470E-02   0.00000000E+00   8.41369570E-03   8.69663027E-11   9.38890615E-11   9.54941255E-11   1.00303075E-10
   3.58750000E+02   5.00000000E-01   5.00000000E-01   1.07961277E-01   1.09404084E-01   0.00000000E+00   0.00000000E+00   0.00000000E+00   1.72883486E-04   0.00000000E+00   1.02648441E-10   8.62646252E-04   2.85151477E-10   1.58850814E-03   9.82677133E-11   9.98257629E-11   9.83009590E-11   9.83031207E-11   4.99978283E-02   4.99995628E-02   6.57065810E-02   7.13878248E-02   1.47675457E-02   1.68537462E-11   9.96768747E-11   1.00229838E-10   9.98718657E-11   1.00260831E-10   9.98811548E-04   6.59472187E-02   6.53304470E-02   0.00000000E+00   8.41369570E-03   8.69662358E-11   9.38890615E-11   9.54941175E-11   1.00302956E-10
   3.76250000E+02   5.00000000E-01   5.00000000E-01   1.07961277E-01   1.09418365E-01   0.00000000E+00   0.00000000E+00   0.00000000E+00   1.72883486E-04   0.00000000E+00   1.02715124E-10   7.69847837E-04   2.91722173E-10   1.59158335E-03   9.82675586E-11   9.98255330E-11   9.83002470E-11   9.83009973E-11   4.99978296E-02   4.99996304E-02   6.57065810E-02   7.13383978E-02   1.48418627E-02   1.68479184E-11   9.96769425E-11   1.00206186E-10   9.98720263E-11   1.00247224E-10   9.98811303E-04   6.59648715E-02   6.53304470E-02   0.00000000E+00   8.41369571E-03   8.69661717E-11   9.38890615E-11   9.54941089E-11   1.00302695E-10
   3.93750000E+02   5.00000000E-01   5.00000000E-01   1.07961277E-01   1.09432932E-01   0.00000000E+00   0.00000000E+00   0.00000000E+00   1.72883486E-04   0.00000000E+00   1.02778981E-10   6.86309483E-04   2.98220480E-10   1.58960522E-03   9.82674130E-11   9.98253217E-11   9.82995773E-11   9.82990183E-11   4.99978310E-02   4.99996966E-02   6.57065810E-02   7.12895245E-02   1.49145649E-02   1.68428779E-11   9.96770274E-11   1.00183833E-10   9.98722594E-11   1.00234206E-10   9.98811077E-04   6.59804133E-02   6.53304470E-02   0.00000000E+00   8.41369571E-03   8.69661112E-11   9.38890615E-11   9.54940999E-11   1.00302292E-10
   4.11250000E+02   5.00000000E-01   5.00000000E-01   1.07961277E-01   1.09447805E-01   0.00000000E+00   0.00000000E+00   0.00000000E+00   1.72883486E-04   0.00000000E+00   1.02841168E-10   6.11291568E-04   3.04751610E-10   1.58281608E-03   9.82672767E-11   9.98251275E-11   9.82989503E-11   9.82971773E-11   4.99978324E-02   4.99997615E-02   6.57065810E-02   7.12412251E-02   1.49857534E-02   1.68384843E-11   9.96771317E-11   1.00162716E-10   9.98725739E-11   1.00221772E-10   9.98810869E-04   6.59940355E-02   6.53304470E-02   0.00000000E+00   8.41369571E-03   8.69660543E-11   9.38890615E-11   9.54940905E-11   1.00301748E-10
   4.28750000E+02   5.00000000E-01   5.00000000E-01   1.07961278E-01   1.09462982E-01   0.00000000E+00   0.00000000E+00   0.00000000E+00   1.72883486E-04   0.00000000E+00   1.02902718E-10   5.44020898E-04   3.11408530E-10   1.57135339E-03   9.82671486E-11   9.98249485E-11   9.82983605E-11   9.82954585E-11   4.99978338E-02   4.99998251E-02   6.57065810E-02   7.11934776E-02   1.50556078E-02   1.68346245E-11   9.96772516E-11   1.00142722E-10   9.98729539E-11   1.00209858E-10   9.98810676E-04   6.60060376E-02   6.53304470E-02   0.00000000E+00   8.41369571E-03   8.69660008E-11   9.38890615E-11   9.54940809E-11   1.00301068E-10
   4.46250000E+02   5.00000000E-01   5.00000000E-01   1.07961278E-01   1.09478439E-01   0.00000000E+00   0.00000000E+00   0.00000000E+00   1.72883485E-04   0.00000000E+00   1.02964483E-10   4.83726587E-04   3.18266344E-10   1.55524077E-03   9.82670264E-11   9.98247824E-11   9.82977980E-11   9.82938406E-11   4.99978354E-02   4.99998871E-02   6.57065810E-02   7.11462326E-02   1.51243642E-02   1.68312060E-11   9.96773789E-11   1.00123710E-10   9.98733646E-11   1.00198360E-10   9.98810498E-04   6.60167925E-02   6.53304470E-02   0.00000000E+00   8.41369571E-03   8.69659503E-11   9.38890615E-11   9.54940710E-11   1.00300257E-10
   4.63750000E+02   5.00000000E-01   5.00000000E-01   1.07961278E-01   1.09494130E-01   0.00000000E+00   0.00000000E+00   0.00000000E+00   1.72883485E-04   0.00000000E+00   1.03027099E-10   4.29683138E-04   3.25378037E-10   1.53445370E-03   9.82669075E-11   9.98246271E-11   9.82972514E-11   9.82923010E-11   4.99978369E-02   4.99999476E-02   6.57065810E-02   7.10994378E-02   1.51922627E-02   1.68281538E-11   9.96775027E-11   1.00105536E-10   9.98737609E-11   1.00187161E-10   9.98810331E-04   6.60267181E-02   6.53304470E-02   0.00000000E+00   8.41369572E-03   8.69659020E-11   9.38890615E-11   9.54940610E-11   1.00299319E-10
   4.81250000E+02   5.00000000E-01   5.00000000E-01   1.07961278E-01   1.09509985E-01   0.00000000E+00   0.00000000E+00   0.00000000E+00   1.72883485E-04   0.00000000E+00   1.03090958E-10   3.81231597E-04   3.32771084E-10   1.50897378E-03   9.82667893E-11   9.98244805E-11   9.82967090E-11   9.82908188E-11   4.99978386E-02   5.00000064E-02   6.57065810E-02   7.10530583E-02   1.52595069E-02   1.68254092E-11   9.96776118E-11   1.00088067E-10   9.98740962E-11   1.00176148E-10   9.98810174E-04   6.60362526E-02   6.53304470E-02   0.00000000E+00   8.41369572E-03   8.69658553E-11   9.38890615E-11   9.54940510E-11   1.00298261E-10
   4.98750000E+02   5.00000000E-01   5.00000000E-01   1.07961279E-01   1.09526158E-01   0.00000000E+00   0.00000000E+00   0.00000000E+00   1.72883485E-04   0.00000000E+00   1.03157331E-10   3.36746764E-04   3.40568090E-10   1.47306500E-03   9.82666506E-11   9.98243323E-11   9.82960768E-11   9.82892520E-11   4.99978403E-02   5.00000642E-02   6.57065810E-02   7.10052767E-02   1.53298373E-02   1.68228083E-11   9.96775790E-11   1.00070320E-10   9.98738434E-11   1.00164182E-10   9.98810017E-04   6.60458341E-02   6.53304470E-02   0.00000000E+00   8.41369572E-03   8.69658050E-11   9.38890615E-11   9.54940410E-11   1.00297111E-10
   5.16250000E+02   5.00000000E-01   5.00000000E-01   1.07961279E-01   1.09542413E-01   0.00000000E+00   0.00000000E+00   0.00000000E+00   1.72883484E-04   0.00000000E+00   1.03225685E-10   2.97230521E-04   3.48711117E-10   1.43366732E-03   9.82665045E-11   9.98241888E-11   9.82954129E-11   9.82876906E-11   4.99978420E-02   5.00001203E-02   6.57065810E-02   7.09575885E-02   1.53997089E-02   1.68204316E-11   9.96774846E-11   1.00052948E-10   9.98733355E-11   1.00152031E-10   9.98809865E-04   6.60560083E-02   6.53304470E-02   0.00000000E+00   8.41369572E-03   8.69657541E-11   9.38890615E-11   9.54940310E-11   1.00295866E-10
   5.33750000E+02   5.00000000E-01   5.00000000E-01   1.07961279E-01   1.09558565E-01   0.00000000E+00   0.00000000E+00   0.00000000E+00   1.72883484E-04   0.00000000E+00   1.03295251E-10   2.62015648E-04   3.57101475E-10   1.39053858E-03   9.82663550E-11   9.98240517E-11   9.82947358E-11   9.82861616E-11   4.99978438E-02   5.00001742E-02   6.57065810E-02   7.09105490E-02   1.54687596E-02   1.68182876E-11   9.96773550E-11   1.00036138E-10   9.98726828E-11   1.00139942E-10   9.98809720E-04   6.60670971E-02   6.53304470E-02   0.00000000E+00   8.41369573E-03   8.69657038E-11   9.38890615E-11   9.54940211E-11   1.00294530E-10
   5.51250000E+02   5.00000000E-01   5.00000000E-01   1.07961280E-01   1.09574484E-01   0.00000000E+00   0.00000000E+00   0.00000000E+00   1.72883484E-04   0.00000000E+00   1.03365259E-10   2.30544604E-04   3.65640983E-10   1.34335277E-03   9.82662026E-11   9.98239207E-11   9.82940471E-11   9.82846664E-11   4.99978457E-02   5.00002257E-02   6.57065810E-02   7.08642663E-02   1.55370929E-02   1.68163600E-11   9.96771915E-11   1.00019880E-10   9.98718903E-11   1.00127930E-10   9.98809582E-04   6.60793126E-02   6.53304470E-02   0.00000000E+00   8.41369573E-03   8.69656541E-11   9.38890615E-11   9.54940112E-11   1.00293106E-10
   5.68750000E+02   5.00000000E-01   5.00000000E-01   1.07961280E-01   1.09590066E-01   0.00000000E+00   0.00000000E+00   0.00000000E+00   1.72883483E-04   0.00000000E+00   1.03434884E-10   2.02428768E-04   3.74228381E-10   1.29235631E-03   9.82660480E-11   9.98237960E-11   9.82933496E-11   9.82832078E-11   4.99978476E-02   5.00002747E-02   6.57065810E-02   7.08187810E-02   1.56047005E-02   1.68146350E-11   9.96769942E-11   1.00004158E-10   9.98709594E-11   1.00116002E-10   9.98809450E-04   6.60927191E-02   6.53304470E-02   0.00000000E+00   8.41369573E-03   8.69656049E-11   9.38890615E-11   9.54940015E-11   1.00291597E-10
   5.86250000E+02   5.00000000E-01   5.00000000E-01   1.07961281E-01   1.09605241E-01   0.00000000E+00   0.00000000E+00   0.00000000E+00   1.72883483E-04   0.00000000E+00   1.03503314E-10   1.77356629E-04   3.82766129E-10   1.23806491E-03   9.82658927E-11   9.98236778E-11   9.82926509E-11   9.82817947E-11   4.99978496E-02   5.00003210E-02   6.57065810E-02   7.07741424E-02   1.56714797E-02   1.68131030E-11   9.96767678E-11   9.99889818E-11   9.98699089E-11   1.00104195E-10   9.98809325E-04   6.61072104E-02   6.53304470E-02   0.00000000E+00   8.41369573E-03   8.69655565E-11   9.38890615E-11   9.54939919E-11   1.00290008E-10
   6.03750000E+02   5.00000000E-01   5.00000000E-01   1.07961281E-01   1.09619975E-01   0.00000000E+00   0.00000000E+00   0.00000000E+00   1.72883483E-04   0.00000000E+00   1.03569847E-10   1.55060406E-04   3.91171657E-10   1.18115140E-03   9.82657395E-11   9.98235667E-11   9.82919625E-11   9.82804409E-11   4.99978517E-02   5.00003648E-02   6.57065810E-02   7.07304188E-02   1.57372575E-02   1.68117566E-11   9.96765215E-11   9.99743865E-11   9.98687771E-11   1.00092585E-10   9.98809208E-04   6.61225281E-02   6.53304470E-02   0.00000000E+00   8.41369574E-03   8.69655093E-11   9.38890615E-11   9.54939825E-11   1.00288342E-10
   6.21250000E+02   5.00000000E-01   5.00000000E-01   1.07961282E-01   1.09634264E-01   0.00000000E+00   0.00000000E+00   0.00000000E+00   1.72883482E-04   0.00000000E+00   1.03633974E-10   1.35297953E-04   3.99386286E-10   1.12236648E-03   9.82655914E-11   9.98234635E-11   9.82912983E-11   9.82791621E-11   4.99978538E-02   5.00004060E-02   6.57065810E-02   7.06876935E-02   1.58018198E-02   1.68105875E-11   9.96762684E-11   9.99604229E-11   9.98676180E-11   1.00081269E-10   9.98809099E-04   6.61383114E-02   6.53304470E-02   9.75622494E-29   8.41369574E-03   8.69654640E-11   9.38890615E-11   9.54939733E-11   1.00286603E-10
   6.38750000E+02   5.00000000E-01   5.00000000E-01   1.07961283E-01   1.09648128E-01   0.00000000E+00   0.00000000E+00   0.00000000E+00   1.72883482E-04   0.00000000E+00   1.03695421E-10   1.17841323E-04   4.07378759E-10   1.06246231E-03   9.82654519E-11   9.98233688E-11   9.82906730E-11   9.82779739E-11   4.99978559E-02   5.00004448E-02   6.57065810E-02   7.06460576E-02   1.58649400E-02   1.68095855E-11   9.96760238E-11   9.99471455E-11   9.98664951E-11   1.00070353E-10   9.98808999E-04   6.61541609E-02   6.53304470E-02   1.95514485E-28   8.41369574E-03   8.69654210E-11   9.38890615E-11   9.54939643E-11   1.00284795E-10
   6.56250000E+02   5.00000000E-01   5.00000000E-01   1.07961283E-01   1.09661598E-01   0.00000000E+00   0.00000000E+00   0.00000000E+00   1.72883482E-04   0.00000000E+00   1.03754133E-10   1.02470900E-04   4.15143083E-10   1.00212763E-03   9.82653240E-11   9.98232831E-11   9.82900999E-11   9.82768890E-11   4.99978581E-02   5.00004812E-02   6.57065810E-02   7.06056031E-02   1.59264049E-02   1.68087375E-11   9.96758039E-11   9.99346027E-11   9.98654745E-11   1.00059941E-10   9.98808908E-04   6.61696992E-02   6.53304470E-02   3.91848749E-28   8.41369575E-03   8.69653811E-11   9.38890615E-11   9.54939556E-11   1.00282921E-10
   6.73750000E+02   5.00000000E-01   5.00000000E-01   1.07961284E-01   1.09674703E-01   0.00000000E+00   0.00000000E+00   0.00000000E+00   1.72883481E-04   0.00000000E+00   1.03810232E-10   8.89746371E-05   4.22692109E-10   9.41951865E-04   9.82652103E-11   9.98232065E-11   9.82895899E-11   9.82759162E-11   4.99978603E-02   5.00005153E-02   6.57065810E-02   7.05664172E-02   1.59860285E-02   1.68080286E-11   9.96756241E-11   9.99228303E-11   9.98646193E-11   1.00050123E-10   9.98808826E-04   6.61846148E-02   6.53304470E-02   7.85420638E-28   8.41369575E-03   8.69653448E-11   9.38890615E-11   9.54939471E-11   1.00280984E-10
   6.91250000E+02   5.00000000E-01   5.00000000E-01   1.07961285E-01   1.09687457E-01   0.00000000E+00   0.00000000E+00   0.00000000E+00   1.72883481E-04   0.00000000E+00   1.03863960E-10   7.71491118E-05   4.30049338E-10   8.82397681E-04   9.82651126E-11   9.98231391E-11   9.82891510E-11   9.82750602E-11   4.99978627E-02   5.00005472E-02   6.57065810E-02   7.05285767E-02   1.60436652E-02   1.68074423E-11   9.96754981E-11   9.99118479E-11   9.98639855E-11   1.00040971E-10   9.98808754E-04   6.61986857E-02   6.53304470E-02   1.57446307E-27   8.41369576E-03   8.69653124E-11   9.38890615E-11   9.54939389E-11   1.00278988E-10
   7.08750000E+02   5.00000000E-01   5.00000000E-01   1.07961286E-01   1.09699853E-01   0.00000000E+00   0.00000000E+00   0.00000000E+00   1.72883480E-04   0.00000000E+00   1.03915604E-10   6.68035956E-05   4.37240453E-10   8.23822165E-04   9.82650321E-11   9.98230804E-11   9.82887883E-11   9.82743216E-11   4.99978650E-02   5.00005769E-02   6.57065810E-02   7.04921482E-02   1.60992032E-02   1.68069619E-11   9.96754376E-11   9.99016592E-11   9.98636208E-11   1.00032533E-10   9.98808691E-04   6.62117849E-02   6.53304470E-02   5.59700322E-13   8.41369576E-03   8.69652843E-11   9.38890615E-11   9.54939310E-11   1.00276936E-10
   7.26250000E+02   5.00000000E-01   5.00000000E-01   1.07961287E-01   1.09711859E-01   0.00000000E+00   0.00000000E+00   0.00000000E+00   1.72883480E-04   0.00000000E+00   1.03965448E-10   5.77624886E-05   4.44285730E-10   7.66494410E-04   9.82649695E-11   9.98230300E-11   9.82885045E-11   9.82736981E-11   4.99978674E-02   5.00006044E-02   6.57065810E-02   7.04571882E-02   1.61525595E-02   1.68065718E-11   9.96754523E-11   9.98922548E-11   9.98635642E-11   1.00024843E-10   9.98808636E-04   6.62238736E-02   6.53304470E-02   2.17462310E-12   8.41369577E-03   8.69652606E-11   9.38890615E-11   9.54939233E-11   1.00274832E-10
   7.43750000E+02   5.00000000E-01   5.00000000E-01   1.07961288E-01   1.09723414E-01   0.00000000E+00   0.00000000E+00   0.00000000E+00   1.72883479E-04   0.00000000E+00   1.04013718E-10   4.98667453E-05   4.51193851E-10   7.10615522E-04   9.82649249E-11   9.98229874E-11   9.82883002E-11   9.82731851E-11   4.99978699E-02   5.00006294E-02   6.57065810E-02   7.04237441E-02   1.62036733E-02   1.68062576E-11   9.96755500E-11   9.98836154E-11   9.98638473E-11   1.00017916E-10   9.98808589E-04   6.62349892E-02   6.53304470E-02   4.93446258E-12   8.41369577E-03   8.69652414E-11   9.38890615E-11   9.54939158E-11   1.00272679E-10
   7.61250000E+02   5.00000000E-01   5.00000000E-01   1.07961289E-01   1.09734430E-01   0.00000000E+00   0.00000000E+00   0.00000000E+00   1.72883478E-04   0.00000000E+00   1.04060546E-10   4.29743402E-05   4.57957142E-10   6.56339149E-04   9.82648984E-11   9.98229518E-11   9.82881750E-11   9.82727769E-11   4.99978724E-02   5.00006520E-02   6.57065811E-02   7.03918555E-02   1.62524999E-02   1.68060065E-11   9.96757373E-11   9.98757144E-11   9.98644961E-11   1.00011758E-10   9.98808550E-04   6.62452290E-02   6.53304470E-02   9.35187713E-12   8.41369578E-03   8.69652267E-11   9.38890615E-11   9.54939087E-11   1.00270479E-10
   7.78750000E+02   5.00000000E-01   5.00000000E-01   1.07961290E-01   1.09744799E-01   0.00000000E+00   0.00000000E+00   0.00000000E+00   1.72883478E-04   0.00000000E+00   1.04105943E-10   3.69599463E-05   4.64548317E-10   6.03790463E-04   9.82648896E-11   9.98229226E-11   9.82881275E-11   9.82724671E-11   4.99978750E-02   5.00006720E-02   6.57065811E-02   7.03615549E-02   1.62990046E-02   1.68058078E-11   9.96760194E-11   9.98685213E-11   9.98655319E-11   1.00006366E-10   9.98808518E-04   6.62547325E-02   6.53304470E-02   1.61240191E-11   8.41369578E-03   8.69652164E-11   9.38890615E-11   9.54939018E-11   1.00268236E-10
   7.96250000E+02   5.00000000E-01   5.00000000E-01   1.07961292E-01   1.09754396E-01   0.00000000E+00   0.00000000E+00   0.00000000E+00   1.72883477E-04   0.00000000E+00   1.04149780E-10   3.17140627E-05   4.70918815E-10   5.53083019E-04   9.82648983E-11   9.98228994E-11   9.82881563E-11   9.82722496E-11   4.99978776E-02   5.00006892E-02   6.57065811E-02   7.03328689E-02   1.63431582E-02   1.68056525E-11   9.96764013E-11   9.98620036E-11   9.98669733E-11   1.00001731E-10   9.98808492E-04   6.62636602E-02   6.53304470E-02   2.61926586E-11   8.41369579E-03   8.69652106E-11   9.38890615E-11   9.54938951E-11   1.00265953E-10