 TITLE = "Mineral Volumes" 
VARIABLES = "X"          "Y"              "Z"            "Forsterite"     "Enstatite(alph" "Anorthite"      "Tremolite"      "Pargasite"      "Anhydrite"      "Clinochlore"    "Albite(low)"    "Fayalite"       "Epidote"        "Kaolinite"      "Muscovite(orde" "Sudoite"        "Saponite(Mg)"   "Scolecite"      "FeS(am)"        "Quartz(alpha)"  "Montmorillonit"
 ZONE I=         100 , J=           1 , K=           1  F=POINT
   1.75000000E+01   5.00000000E-01   5.00000000E-01   1.99930959E-01   9.99950803E-02   6.99841085E-02   6.57757561E-02   6.57668916E-02   5.23348527E-02   5.99709539E-03   6.88778279E-02   2.79269159E-02   9.99999997E-04   8.50676646E-04   0.00000000E+00   0.00000000E+00   3.92754993E-03   7.50024099E-04   0.00000000E+00   2.48858346E-04   1.49799935E-01
   5.25000000E+01   5.00000000E-01   5.00000000E-01   1.99930959E-01   9.99950806E-02   6.99841085E-02   6.57758068E-02   6.57668916E-02   5.88909512E-02   4.95247115E-03   6.96483905E-02   2.79269272E-02   1.00000000E-03   8.50764992E-04   0.00000000E+00   0.00000000E+00   4.60798375E-03   7.50038432E-04   0.00000000E+00   3.37946673E-04   1.49840507E-01
   8.75000000E+01   5.00000000E-01   5.00000000E-01   1.99930959E-01   9.99950813E-02   6.99841085E-02   6.57758758E-02   6.57668916E-02   6.60091995E-02   4.39691228E-03   7.00325198E-02   2.79269449E-02   1.00000000E-03   8.50816383E-04   0.00000000E+00   0.00000000E+00   5.03819358E-03   7.50051348E-04   0.00000000E+00   3.68365884E-04   1.49869475E-01
   1.22500000E+02   5.00000000E-01   5.00000000E-01   1.99930959E-01   9.99950820E-02   6.99841085E-02   6.57759363E-02   6.57668916E-02   7.31887368E-02   4.16992726E-03   7.01814508E-02   2.79269688E-02   1.00000000E-03   8.50846845E-04   0.00000000E+00   0.00000000E+00   5.22689986E-03   7.50061436E-04   0.00000000E+00   3.75740842E-04   1.49885192E-01
   1.57500000E+02   5.00000000E-01   5.00000000E-01   1.99930959E-01   9.99950828E-02   6.99841085E-02   6.57759815E-02   6.57668916E-02   8.00026410E-02   4.08204649E-03   7.02335860E-02   2.79269984E-02   1.00000000E-03   8.50869860E-04   0.00000000E+00   0.00000000E+00   5.30560097E-03   7.50069672E-04   0.00000000E+00   3.74475725E-04   1.49894594E-01
   1.92500000E+02   5.00000000E-01   5.00000000E-01   1.99930959E-01   9.99950835E-02   6.99841085E-02   6.57760118E-02   6.57668916E-02   8.61434196E-02   4.04941649E-03   7.02476351E-02   2.79270334E-02   1.00000000E-03   8.50890447E-04   0.00000000E+00   0.00000000E+00   5.33994880E-03   7.50076670E-04   0.00000000E+00   3.69982644E-04   1.49901328E-01
   2.27500000E+02   5.00000000E-01   5.00000000E-01   1.99930959E-01   9.99950843E-02   6.99841085E-02   6.57760295E-02   6.57668916E-02   9.14381639E-02   4.03885912E-03   7.02464821E-02   2.79270736E-02   1.00000000E-03   8.50910539E-04   0.00000000E+00   0.00000000E+00   5.35671262E-03   7.50082764E-04   0.00000000E+00   3.64293820E-04   1.49906957E-01
   2.62500000E+02   5.00000000E-01   5.00000000E-01   1.99930959E-01   9.99950850E-02   6.99841085E-02   6.57760371E-02   6.57668916E-02   9.58343448E-02   4.03738848E-03   7.02390144E-02   2.79271188E-02   1.00000000E-03   8.50930927E-04   0.00000000E+00   0.00000000E+00   5.36647657E-03   7.50088148E-04   0.00000000E+00   3.58186958E-04   1.49912131E-01
   2.97500000E+02   5.00000000E-01   5.00000000E-01   1.99930959E-01   9.99950858E-02   6.99841085E-02   6.57760370E-02   6.57668916E-02   9.93685764E-02   4.03986082E-03   7.02287334E-02   2.79271689E-02   1.00000000E-03   8.50951951E-04   0.00000000E+00   0.00000000E+00   5.37345717E-03   7.50092952E-04   0.00000000E+00   3.51967453E-04   1.49917114E-01
   3.32500000E+02   5.00000000E-01   5.00000000E-01   1.99930959E-01   9.99950867E-02   6.99841085E-02   6.57760314E-02   6.57668916E-02   1.02121665E-01   4.04420052E-03   7.02170474E-02   2.79272237E-02   1.00000000E-03   8.50973761E-04   0.00000000E+00   0.00000000E+00   5.37936428E-03   7.50097276E-04   0.00000000E+00   3.45758802E-04   1.49922017E-01
   3.67500000E+02   5.00000000E-01   5.00000000E-01   1.99930959E-01   9.99950875E-02   6.99841085E-02   6.57760221E-02   6.57668916E-02   1.04203184E-01   4.04955612E-03   7.02045354E-02   2.79272833E-02   1.00000000E-03   8.50996429E-04   0.00000000E+00   0.00000000E+00   5.38490221E-03   7.50101206E-04   0.00000000E+00   3.39612288E-04   1.49926882E-01
   4.02500000E+02   5.00000000E-01   5.00000000E-01   1.99930959E-01   9.99950884E-02   6.99841085E-02   6.57760104E-02   6.57668916E-02   1.05750770E-01   4.05557795E-03   7.01914402E-02   2.79273475E-02   1.00000000E-03   8.51019983E-04   0.00000000E+00   0.00000000E+00   5.39035963E-03   7.50104808E-04   0.00000000E+00   3.33549281E-04   1.49931724E-01
   4.37500000E+02   5.00000000E-01   5.00000000E-01   1.99930959E-01   9.99950894E-02   6.99841085E-02   6.57759977E-02   6.57668916E-02   1.06880531E-01   4.06212036E-03   7.01778707E-02   2.79274163E-02   9.99999999E-04   8.51044435E-04   0.00000000E+00   0.00000000E+00   5.39584887E-03   7.50108136E-04   0.00000000E+00   3.27578669E-04   1.49936544E-01
   4.72500000E+02   5.00000000E-01   5.00000000E-01   1.99930959E-01   9.99950903E-02   6.99841085E-02   6.57759852E-02   6.57668916E-02   1.07687080E-01   4.06911975E-03   7.01638839E-02   2.79274896E-02   9.99999999E-04   8.51069783E-04   0.00000000E+00   0.00000000E+00   5.40140465E-03   7.50111235E-04   0.00000000E+00   3.21704085E-04   1.49941337E-01
   5.07500000E+02   5.00000000E-01   5.00000000E-01   1.99930959E-01   9.99950913E-02   6.99841085E-02   6.57759742E-02   6.57668916E-02   1.08245950E-01   4.07654340E-03   7.01495195E-02   2.79275674E-02   9.99999999E-04   8.51096023E-04   0.00000000E+00   0.00000000E+00   5.40702491E-03   7.50114141E-04   0.00000000E+00   3.15926632E-04   1.49946097E-01
   5.42500000E+02   5.00000000E-01   5.00000000E-01   1.99930959E-01   9.99950923E-02   6.99841085E-02   6.57759663E-02   6.57668916E-02   1.08616499E-01   4.08436757E-03   7.01348141E-02   2.79276497E-02   9.99999999E-04   8.51123146E-04   0.00000000E+00   0.00000000E+00   5.41268815E-03   7.50116884E-04   0.00000000E+00   3.10246657E-04   1.49950816E-01
   5.77500000E+02   5.00000000E-01   5.00000000E-01   1.99930959E-01   9.99950934E-02   6.99841085E-02   6.57759626E-02   6.57668916E-02   1.08844787E-01   4.09256772E-03   7.01198072E-02   2.79277366E-02   9.99999999E-04   8.51151142E-04   0.00000000E+00   0.00000000E+00   5.41836190E-03   7.50119490E-04   0.00000000E+00   3.04664081E-04   1.49955488E-01
   6.12500000E+02   5.00000000E-01   5.00000000E-01   1.99930959E-01   9.99950945E-02   6.99841085E-02   6.57759633E-02   6.57668916E-02   1.08966199E-01   4.10111417E-03   7.01045436E-02   2.79278279E-02   9.99999999E-04   8.51180004E-04   0.00000000E+00   0.00000000E+00   5.42400664E-03   7.50121980E-04   0.00000000E+00   2.99178654E-04   1.49960108E-01
   6.47500000E+02   5.00000000E-01   5.00000000E-01   1.99930959E-01   9.99950956E-02   6.99841085E-02   6.57759675E-02   6.57668916E-02   1.09007692E-01   4.10997056E-03   7.00890740E-02   2.79279239E-02   9.99999999E-04   8.51209724E-04   0.00000000E+00   0.00000000E+00   5.42957687E-03   7.50124372E-04   0.00000000E+00   2.93790315E-04   1.49964670E-01
   6.82500000E+02   5.00000000E-01   5.00000000E-01   1.99930959E-01   9.99950968E-02   6.99841085E-02   6.57759742E-02   6.57668916E-02   1.08989675E-01   4.11909370E-03   7.00734553E-02   2.79280244E-02   9.99999998E-04   8.51240301E-04   0.00000000E+00   0.00000000E+00   5.43502057E-03   7.50126684E-04   0.00000000E+00   2.88499312E-04   1.49969173E-01
   7.17500000E+02   5.00000000E-01   5.00000000E-01   1.99930959E-01   9.99950980E-02   6.99841085E-02   6.57759827E-02   6.57668916E-02   1.08927516E-01   4.12843380E-03   7.00577497E-02   2.79281295E-02   9.99999998E-04   8.51271737E-04   0.00000000E+00   0.00000000E+00   5.44027937E-03   7.50128930E-04   0.00000000E+00   2.83305964E-04   1.49973615E-01
   7.52500000E+02   5.00000000E-01   5.00000000E-01   1.99930959E-01   9.99950993E-02   6.99841085E-02   6.57759927E-02   6.57668916E-02   1.08832753E-01   4.13793485E-03   7.00420239E-02   2.79282393E-02   9.99999998E-04   8.51304040E-04   0.00000000E+00   0.00000000E+00   5.44528936E-03   7.50131126E-04   0.00000000E+00   2.78210416E-04   1.49977999E-01
   7.87500000E+02   5.00000000E-01   5.00000000E-01   1.99930959E-01   9.99951005E-02   6.99841085E-02   6.57760040E-02   6.57668916E-02   1.08714026E-01   4.14753540E-03   7.00263485E-02   2.79283537E-02   9.99999997E-04   8.51337227E-04   0.00000000E+00   0.00000000E+00   5.44998178E-03   7.50133285E-04   0.00000000E+00   2.73213162E-04   1.49982328E-01
   8.22500000E+02   5.00000000E-01   5.00000000E-01   1.99930959E-01   9.99951019E-02   6.99841085E-02   6.57760162E-02   6.57668916E-02   1.08577810E-01   4.15716949E-03   7.00107965E-02   2.79284729E-02   9.99999997E-04   8.51371323E-04   0.00000000E+00   0.00000000E+00   5.45428445E-03   7.50135422E-04   0.00000000E+00   2.68314732E-04   1.49986607E-01
   8.57500000E+02   5.00000000E-01   5.00000000E-01   1.99930959E-01   9.99951032E-02   6.99841085E-02   6.57760295E-02   6.57668916E-02   1.08428957E-01   4.16676749E-03   6.99954425E-02   2.79285969E-02   9.99999996E-04   8.51406360E-04   0.00000000E+00   0.00000000E+00   5.45812314E-03   7.50137550E-04   0.00000000E+00   2.63516033E-04   1.49990844E-01
   8.92500000E+02   5.00000000E-01   5.00000000E-01   1.99930959E-01   9.99951046E-02   6.99841085E-02   6.57760436E-02   6.57668916E-02   1.08271121E-01   4.17625706E-03   6.99803612E-02   2.79287255E-02   9.99999994E-04   8.51442381E-04   0.00000000E+00   0.00000000E+00   5.46142390E-03   7.50139684E-04   0.00000000E+00   2.58817371E-04   1.49995050E-01
   9.27500000E+02   5.00000000E-01   5.00000000E-01   1.99930959E-01   9.99951061E-02   6.99841085E-02   6.57760585E-02   6.57668916E-02   1.08107063E-01   4.18556550E-03   6.99656255E-02   2.79288588E-02   9.99999993E-04   8.51479439E-04   0.00000000E+00   0.00000000E+00   5.46411387E-03   7.50141840E-04   0.00000000E+00   2.54219337E-04   1.49999234E-01
   9.62500000E+02   5.00000000E-01   5.00000000E-01   1.99930959E-01   9.99951075E-02   6.99841085E-02   6.57760741E-02   6.57668916E-02   1.07938881E-01   4.19462115E-03   6.99513049E-02   2.79289967E-02   9.99999991E-04   8.51517592E-04   0.00000000E+00   0.00000000E+00   5.46612332E-03   7.50144031E-04   0.00000000E+00   2.49722658E-04   1.50003409E-01
   9.97500000E+02   5.00000000E-01   5.00000000E-01   1.99930959E-01   9.99951091E-02   6.99841085E-02   6.57760903E-02   6.57668916E-02   1.07768183E-01   4.20335451E-03   6.99374645E-02   2.79291392E-02   9.99999988E-04   8.51556911E-04   0.00000000E+00   0.00000000E+00   5.46738803E-03   7.50146274E-04   0.00000000E+00   2.45327999E-04   1.50007588E-01
   1.03250000E+03   5.00000000E-01   5.00000000E-01   1.99930959E-01   9.99951106E-02   6.99841085E-02   6.57761070E-02   6.57668916E-02   1.07596207E-01   4.21169933E-03   6.99241634E-02   2.79292861E-02   9.99999985E-04   8.51597471E-04   0.00000000E+00   0.00000000E+00   5.46785199E-03   7.50148584E-04   0.00000000E+00   2.41035078E-04   1.50011786E-01
   1.06750000E+03   5.00000000E-01   5.00000000E-01   1.99930959E-01   9.99951122E-02   6.99841085E-02   6.57761242E-02   6.57668916E-02   1.07423911E-01   4.21959437E-03   6.99114540E-02   2.79294373E-02   9.99999981E-04   8.51639351E-04   0.00000000E+00   0.00000000E+00   5.46746863E-03   7.50150977E-04   0.00000000E+00   2.36843788E-04   1.50016015E-01
   1.10250000E+03   5.00000000E-01   5.00000000E-01   1.99930959E-01   9.99951139E-02   6.99841085E-02   6.57761417E-02   6.57668916E-02   1.07252042E-01   4.22698466E-03   6.98993801E-02   2.79295926E-02   9.99999975E-04   8.51682634E-04   0.00000000E+00   0.00000000E+00   5.46620279E-03   7.50153467E-04   0.00000000E+00   2.32753714E-04   1.50020289E-01
   1.13750000E+03   5.00000000E-01   5.00000000E-01   1.99930959E-01   9.99951156E-02   6.99841085E-02   6.57761595E-02   6.57668916E-02   1.07081179E-01   4.23382278E-03   6.98879768E-02   2.79297519E-02   9.99999967E-04   8.51727405E-04   0.00000000E+00   0.00000000E+00   5.46403196E-03   7.50156071E-04   0.00000000E+00   2.28764497E-04   1.50024621E-01
   1.17250000E+03   5.00000000E-01   5.00000000E-01   1.99930959E-01   9.99951173E-02   6.99841085E-02   6.57761774E-02   6.57668916E-02   1.06911773E-01   4.24006962E-03   6.98772696E-02   2.79299147E-02   9.99999957E-04   8.51773743E-04   0.00000000E+00   0.00000000E+00   5.46094806E-03   7.50158803E-04   0.00000000E+00   2.24874645E-04   1.50029020E-01
   1.20750000E+03   5.00000000E-01   5.00000000E-01   1.99930959E-01   9.99951191E-02   6.99841085E-02   6.57761954E-02   6.57668916E-02   1.06744169E-01   4.24569539E-03   6.98672736E-02   2.79300810E-02   9.99999944E-04   8.51821725E-04   0.00000000E+00   0.00000000E+00   5.45695735E-03   7.50161678E-04   0.00000000E+00   2.21082804E-04   1.50033497E-01
   1.24250000E+03   5.00000000E-01   5.00000000E-01   1.99930959E-01   9.99951209E-02   6.99841085E-02   6.57762134E-02   6.57668916E-02   1.06578627E-01   4.25068012E-03   6.98579944E-02   2.79302505E-02   9.99999927E-04   8.51871419E-04   0.00000000E+00   0.00000000E+00   5.45208037E-03   7.50164708E-04   0.00000000E+00   2.17387748E-04   1.50038058E-01
   1.27750000E+03   5.00000000E-01   5.00000000E-01   1.99930959E-01   9.99951228E-02   6.99841085E-02   6.57762314E-02   6.57668916E-02   1.06415339E-01   4.25501381E-03   6.98494272E-02   2.79304227E-02   9.99999904E-04   8.51922883E-04   0.00000000E+00   0.00000000E+00   5.44635228E-03   7.50167909E-04   0.00000000E+00   2.13787584E-04   1.50042706E-01
   1.31250000E+03   5.00000000E-01   5.00000000E-01   1.99930959E-01   9.99951247E-02   6.99841085E-02   6.57762492E-02   6.57668916E-02   1.06254435E-01   4.25869618E-03   6.98415585E-02   2.79305975E-02   9.99999876E-04   8.51976160E-04   0.00000000E+00   0.00000000E+00   5.43982244E-03   7.50171291E-04   0.00000000E+00   2.10279267E-04   1.50047444E-01
   1.34750000E+03   5.00000000E-01   5.00000000E-01   1.99930959E-01   9.99951266E-02   6.99841085E-02   6.57762666E-02   6.57668916E-02   1.06095999E-01   4.26173678E-03   6.98343659E-02   2.79307744E-02   9.99999839E-04   8.52031279E-04   0.00000000E+00   0.00000000E+00   5.43255169E-03   7.50174867E-04   0.00000000E+00   2.06860182E-04   1.50052271E-01
   1.38250000E+03   5.00000000E-01   5.00000000E-01   1.99930959E-01   9.99951286E-02   6.99841085E-02   6.57762837E-02   6.57668916E-02   1.05940072E-01   4.26415419E-03   6.98278198E-02   2.79309531E-02   9.99999791E-04   8.52088253E-04   0.00000000E+00   0.00000000E+00   5.42461114E-03   7.50178649E-04   0.00000000E+00   2.03527478E-04   1.50057181E-01
   1.41750000E+03   5.00000000E-01   5.00000000E-01   1.99930959E-01   9.99951307E-02   6.99841085E-02   6.57763003E-02   6.57668916E-02   1.05786663E-01   4.26597520E-03   6.98218843E-02   2.79311333E-02   9.99999731E-04   8.52147072E-04   0.00000000E+00   0.00000000E+00   5.41608017E-03   7.50182647E-04   0.00000000E+00   2.00278112E-04   1.50062167E-01
   1.45250000E+03   5.00000000E-01   5.00000000E-01   1.99930960E-01   9.99951328E-02   6.99841085E-02   6.57763165E-02   6.57668916E-02   1.05635747E-01   4.26723391E-03   6.98165186E-02   2.79313147E-02   9.99999655E-04   8.52207712E-04   0.00000000E+00   0.00000000E+00   5.40704375E-03   7.50186873E-04   0.00000000E+00   1.97109464E-04   1.50067220E-01
   1.48750000E+03   5.00000000E-01   5.00000000E-01   1.99930960E-01   9.99951349E-02   6.99841085E-02   6.57763320E-02   6.57668916E-02   1.05487278E-01   4.26797045E-03   6.98116785E-02   2.79314968E-02   9.99999558E-04   8.52270124E-04   0.00000000E+00   0.00000000E+00   5.39759011E-03   7.50191337E-04   0.00000000E+00   1.94019317E-04   1.50072327E-01
   1.52250000E+03   5.00000000E-01   5.00000000E-01   1.99930960E-01   9.99951371E-02   6.99841085E-02   6.57763470E-02   6.57668916E-02   1.05341189E-01   4.26822914E-03   6.98073179E-02   2.79316795E-02   9.99999436E-04   8.52334242E-04   0.00000000E+00   0.00000000E+00   5.38781047E-03   7.50196049E-04   0.00000000E+00   1.91002910E-04   1.50077474E-01
   1.55750000E+03   5.00000000E-01   5.00000000E-01   1.99930960E-01   9.99951394E-02   6.99841085E-02   6.57763617E-02   6.57668916E-02   1.05197397E-01   4.26805775E-03   6.98033899E-02   2.79318624E-02   9.99999281E-04   8.52399981E-04   0.00000000E+00   0.00000000E+00   5.37779409E-03   7.50201022E-04   0.00000000E+00   1.88056626E-04   1.50082645E-01
   1.59250000E+03   5.00000000E-01   5.00000000E-01   1.99930960E-01   9.99951417E-02   6.99841085E-02   6.57763758E-02   6.57668916E-02   1.05055804E-01   4.26750587E-03   6.97998486E-02   2.79320452E-02   9.99999087E-04   8.52467237E-04   0.00000000E+00   0.00000000E+00   5.36762723E-03   7.50206267E-04   0.00000000E+00   1.85177981E-04   1.50087821E-01
   1.62750000E+03   5.00000000E-01   5.00000000E-01   1.99930960E-01   9.99951441E-02   6.99841085E-02   6.57763894E-02   6.57668916E-02   1.04916305E-01   4.26662322E-03   6.97966499E-02   2.79322276E-02   9.99998843E-04   8.52535892E-04   0.00000000E+00   0.00000000E+00   5.35739257E-03   7.50211797E-04   0.00000000E+00   1.82362994E-04   1.50092984E-01
   1.66250000E+03   5.00000000E-01   5.00000000E-01   1.99930961E-01   9.99951465E-02   6.99841085E-02   6.57764024E-02   6.57668916E-02   1.04778790E-01   4.26545877E-03   6.97937527E-02   2.79324095E-02   9.99998541E-04   8.52605811E-04   0.00000000E+00   0.00000000E+00   5.34716647E-03   7.50217625E-04   0.00000000E+00   1.79608665E-04   1.50098114E-01
   1.69750000E+03   5.00000000E-01   5.00000000E-01   1.99930961E-01   9.99951490E-02   6.99841085E-02   6.57764149E-02   6.57668916E-02   1.04643143E-01   4.26405939E-03   6.97911199E-02   2.79325907E-02   9.99998174E-04   8.52676850E-04   0.00000000E+00   0.00000000E+00   5.33701868E-03   7.50223768E-04   0.00000000E+00   1.76912139E-04   1.50103194E-01
   1.73250000E+03   5.00000000E-01   5.00000000E-01   1.99930962E-01   9.99951515E-02   6.99841085E-02   6.57764270E-02   6.57668916E-02   1.04509250E-01   4.26246912E-03   6.97887184E-02   2.79327710E-02   9.99997736E-04   8.52748853E-04   0.00000000E+00   0.00000000E+00   5.32701109E-03   7.50230243E-04   0.00000000E+00   1.74272044E-04   1.50108203E-01
   1.76750000E+03   5.00000000E-01   5.00000000E-01   1.99930963E-01   9.99951541E-02   6.99841085E-02   6.57764390E-02   6.57668916E-02   1.04377000E-01   4.26072786E-03   6.97865204E-02   2.79329503E-02   9.99997221E-04   8.52821655E-04   0.00000000E+00   0.00000000E+00   5.31719911E-03   7.50237069E-04   0.00000000E+00   1.71684662E-04   1.50113123E-01
   1.80250000E+03   5.00000000E-01   5.00000000E-01   1.99930964E-01   9.99951568E-02   6.99841085E-02   6.57764508E-02   6.57668916E-02   1.04246287E-01   4.25887092E-03   6.97845029E-02   2.79331287E-02   9.99996620E-04   8.52895088E-04   0.00000000E+00   0.00000000E+00   5.30763094E-03   7.50244267E-04   0.00000000E+00   1.69147442E-04   1.50117936E-01
   1.83750000E+03   5.00000000E-01   5.00000000E-01   1.99930965E-01   9.99951595E-02   6.99841085E-02   6.57764623E-02   6.57668916E-02   1.04117014E-01   4.25692878E-03   6.97826485E-02   2.79333060E-02   9.99995919E-04   8.52968975E-04   0.00000000E+00   0.00000000E+00   5.29834712E-03   7.50251862E-04   0.00000000E+00   1.66658240E-04   1.50122626E-01
   1.87250000E+03   5.00000000E-01   5.00000000E-01   1.99930967E-01   9.99951623E-02   6.99841086E-02   6.57764738E-02   6.57668916E-02   1.03989096E-01   4.25492670E-03   6.97809448E-02   2.79334825E-02   9.99995093E-04   8.53043138E-04   0.00000000E+00   0.00000000E+00   5.28938143E-03   7.50259881E-04   0.00000000E+00   1.64215079E-04   1.50127176E-01
   1.90750000E+03   5.00000000E-01   5.00000000E-01   1.99930969E-01   9.99951652E-02   6.99841086E-02   6.57764854E-02   6.57668916E-02   1.03862463E-01   4.25288452E-03   6.97793846E-02   2.79336583E-02   9.99994117E-04   8.53117398E-04   0.00000000E+00   0.00000000E+00   5.28076155E-03   7.50268354E-04   0.00000000E+00   1.61816149E-04   1.50131571E-01
   1.94250000E+03   5.00000000E-01   5.00000000E-01   1.99930973E-01   9.99951681E-02   6.99841086E-02   6.57764972E-02   6.57668916E-02   1.03737058E-01   4.25081654E-03   6.97779657E-02   2.79338337E-02   9.99992972E-04   8.53191572E-04   0.00000000E+00   0.00000000E+00   5.27251010E-03   7.50277313E-04   0.00000000E+00   1.59459786E-04   1.50135800E-01
   1.97750000E+03   5.00000000E-01   5.00000000E-01   1.99930977E-01   9.99951711E-02   6.99841086E-02   6.57765091E-02   6.57668916E-02   1.03612845E-01   4.24873173E-03   6.97766905E-02   2.79340091E-02   9.99991660E-04   8.53265476E-04   0.00000000E+00   0.00000000E+00   5.26464479E-03   7.50286797E-04   0.00000000E+00   1.57144460E-04   1.50139849E-01
   2.01250000E+03   5.00000000E-01   5.00000000E-01   1.99930982E-01   9.99951742E-02   6.99841086E-02   6.57765215E-02   6.57668916E-02   1.03489810E-01   4.24663391E-03   6.97755658E-02   2.79341850E-02   9.99990213E-04   8.53338929E-04   0.00000000E+00   0.00000000E+00   5.25717913E-03   7.50296844E-04   0.00000000E+00   1.54868837E-04   1.50143708E-01
   2.04750000E+03   5.00000000E-01   5.00000000E-01   1.99930989E-01   9.99951774E-02   6.99841086E-02   6.57765344E-02   6.57668916E-02   1.03367960E-01   4.24452196E-03   6.97746026E-02   2.79343619E-02   9.99988677E-04   8.53411745E-04   0.00000000E+00   0.00000000E+00   5.25012310E-03   7.50307500E-04   0.00000000E+00   1.52633765E-04   1.50147367E-01
   2.08250000E+03   5.00000000E-01   5.00000000E-01   1.99930999E-01   9.99951807E-02   6.99841086E-02   6.57765477E-02   6.57668916E-02   1.03247323E-01   4.24238958E-03   6.97738155E-02   2.79345407E-02   9.99987105E-04   8.53483738E-04   0.00000000E+00   0.00000000E+00   5.24348558E-03   7.50318813E-04   0.00000000E+00   1.50435629E-04   1.50150818E-01
   2.11750000E+03   5.00000000E-01   5.00000000E-01   1.99931010E-01   9.99951840E-02   6.99841086E-02   6.57765614E-02   6.57668916E-02   1.03127954E-01   4.24022615E-03   6.97732231E-02   2.79347222E-02   9.99985539E-04   8.53554721E-04   0.00000000E+00   0.00000000E+00   5.23727271E-03   7.50330838E-04   0.00000000E+00   1.48273295E-04   1.50154052E-01
   2.15250000E+03   5.00000000E-01   5.00000000E-01   1.99931026E-01   9.99951874E-02   6.99841086E-02   6.57765756E-02   6.57668916E-02   1.03009931E-01   4.23801673E-03   6.97728472E-02   2.79349077E-02   9.99984009E-04   8.53624506E-04   0.00000000E+00   0.00000000E+00   5.23148928E-03   7.50343633E-04   0.00000000E+00   1.46145687E-04   1.50157062E-01
   2.18750000E+03   5.00000000E-01   5.00000000E-01   1.99931045E-01   9.99951909E-02   6.99841086E-02   6.57765901E-02   6.57668916E-02   1.02893354E-01   4.23574220E-03   6.97727130E-02   2.79350983E-02   9.99982533E-04   8.53692898E-04   0.00000000E+00   0.00000000E+00   5.22613939E-03   7.50357263E-04   0.00000000E+00   1.44051771E-04   1.50159843E-01
   2.22250000E+03   5.00000000E-01   5.00000000E-01   1.99931069E-01   9.99951945E-02   6.99841087E-02   6.57766048E-02   6.57668916E-02   1.02778345E-01   4.23337937E-03   6.97728491E-02   2.79352957E-02   9.99981126E-04   8.53759702E-04   0.00000000E+00   0.00000000E+00   5.22122699E-03   7.50371800E-04   0.00000000E+00   1.41990542E-04   1.50162389E-01
   2.25750000E+03   5.00000000E-01   5.00000000E-01   1.99931099E-01   9.99951981E-02   6.99841087E-02   6.57766197E-02   6.57668916E-02   1.02665045E-01   4.23090107E-03   6.97732872E-02   2.79355016E-02   9.99979775E-04   8.53824713E-04   0.00000000E+00   0.00000000E+00   5.21675638E-03   7.50387321E-04   0.00000000E+00   1.39961010E-04   1.50164693E-01
   2.29250000E+03   5.00000000E-01   5.00000000E-01   1.99931137E-01   9.99952019E-02   6.99841087E-02   6.57766345E-02   6.57668916E-02   1.02553610E-01   4.22827615E-03   6.97740625E-02   2.79357182E-02   9.99978431E-04   8.53887722E-04   0.00000000E+00   0.00000000E+00   5.21273265E-03   7.50403913E-04   0.00000000E+00   1.37962193E-04   1.50166751E-01
   2.32750000E+03   5.00000000E-01   5.00000000E-01   1.99931182E-01   9.99952057E-02   6.99841087E-02   6.57766491E-02   6.57668916E-02   1.02444211E-01   4.22546926E-03   6.97752140E-02   2.79359480E-02   9.99977014E-04   8.53948511E-04   0.00000000E+00   0.00000000E+00   5.20916220E-03   7.50421672E-04   0.00000000E+00   1.35993097E-04   1.50168558E-01
   2.36250000E+03   5.00000000E-01   5.00000000E-01   1.99931237E-01   9.99952097E-02   6.99841088E-02   6.57766635E-02   6.57668916E-02   1.02337025E-01   4.22244060E-03   6.97767843E-02   2.79361940E-02   9.99975453E-04   8.54006848E-04   0.00000000E+00   0.00000000E+00   5.20605323E-03   7.50440706E-04   0.00000000E+00   1.34052710E-04   1.50170107E-01
   2.39750000E+03   5.00000000E-01   5.00000000E-01   1.99931302E-01   9.99952137E-02   6.99841088E-02   6.57766776E-02   6.57668916E-02   1.02232231E-01   4.21914540E-03   6.97788209E-02   2.79364596E-02   9.99973727E-04   8.54062492E-04   0.00000000E+00   0.00000000E+00   5.20341623E-03   7.50461134E-04   0.00000000E+00   1.32139989E-04   1.50171394E-01
   2.43250000E+03   5.00000000E-01   5.00000000E-01   1.99931378E-01   9.99952178E-02   6.99841088E-02   6.57766915E-02   6.57668916E-02   1.02130010E-01   4.21553330E-03   6.97813761E-02   2.79367490E-02   9.99971898E-04   8.54115184E-04   0.00000000E+00   0.00000000E+00   5.20126451E-03   7.50483091E-04   0.00000000E+00   1.30253848E-04   1.50172412E-01
   2.46750000E+03   5.00000000E-01   5.00000000E-01   1.99931466E-01   9.99952221E-02   6.99841089E-02   6.57767057E-02   6.57668916E-02   1.02030535E-01   4.21154754E-03   6.97845083E-02   2.79370673E-02   9.99970107E-04   8.54164648E-04   0.00000000E+00   0.00000000E+00   5.19961482E-03   7.50506731E-04   0.00000000E+00   1.28393142E-04   1.50173154E-01
   2.50250000E+03   5.00000000E-01   5.00000000E-01   1.99931565E-01   9.99952264E-02   6.99841089E-02   6.57767208E-02   6.57668916E-02   1.01933969E-01   4.20712398E-03   6.97882829E-02   2.79374203E-02   9.99968546E-04   8.54210588E-04   0.00000000E+00   0.00000000E+00   5.19848791E-03   7.50532229E-04   0.00000000E+00   1.26556660E-04   1.50173612E-01
   2.53750000E+03   5.00000000E-01   5.00000000E-01   1.99931676E-01   9.99952308E-02   6.99841090E-02   6.57767377E-02   6.57668916E-02   1.01840459E-01   4.20218978E-03   6.97927739E-02   2.79378154E-02   9.99967419E-04   8.54252680E-04   0.00000000E+00   0.00000000E+00   5.19790930E-03   7.50559787E-04   0.00000000E+00   1.24743102E-04   1.50173777E-01
   2.57250000E+03   5.00000000E-01   5.00000000E-01   1.99931799E-01   9.99952353E-02   6.99841091E-02   6.57767578E-02   6.57668916E-02   1.01750135E-01   4.19666166E-03   6.97980653E-02   2.79382616E-02   9.99966892E-04   8.54290575E-04   0.00000000E+00   0.00000000E+00   5.19791007E-03   7.50589641E-04   0.00000000E+00   1.22951061E-04   1.50173640E-01
   2.60750000E+03   5.00000000E-01   5.00000000E-01   1.99931932E-01   9.99952399E-02   6.99841091E-02   6.57767826E-02   6.57668916E-02   1.01663107E-01   4.19044360E-03   6.98042541E-02   2.79387701E-02   9.99967066E-04   8.54323888E-04   0.00000000E+00   0.00000000E+00   5.19852789E-03   7.50622069E-04   0.00000000E+00   1.21179008E-04   1.50173187E-01
   2.64250000E+03   5.00000000E-01   5.00000000E-01   1.99932075E-01   9.99952446E-02   6.99841092E-02   6.57768140E-02   6.57668916E-02   1.01579460E-01   4.18342379E-03   6.98114525E-02   2.79393550E-02   9.99967965E-04   8.54352196E-04   0.00000000E+00   0.00000000E+00   5.19980795E-03   7.50657400E-04   0.00000000E+00   1.19425257E-04   1.50172406E-01
   2.67750000E+03   5.00000000E-01   5.00000000E-01   1.99932227E-01   9.99952494E-02   6.99841093E-02   6.57768541E-02   6.57668916E-02   1.01499257E-01   4.17547068E-03   6.98197927E-02   2.79400342E-02   9.99969543E-04   8.54375030E-04   0.00000000E+00   0.00000000E+00   5.20180408E-03   7.50696029E-04   0.00000000E+00   1.17687939E-04   1.50171279E-01
   2.71250000E+03   5.00000000E-01   5.00000000E-01   1.99932387E-01   9.99952544E-02   6.99841095E-02   6.57769053E-02   6.57668916E-02   1.01422536E-01   4.16642761E-03   6.98294318E-02   2.79408310E-02   9.99971710E-04   8.54391865E-04   0.00000000E+00   0.00000000E+00   5.20457958E-03   7.50738439E-04   0.00000000E+00   1.15964960E-04   1.50169787E-01
   2.74750000E+03   5.00000000E-01   5.00000000E-01   1.99932554E-01   9.99952594E-02   6.99841096E-02   6.57769710E-02   6.57668916E-02   1.01349311E-01   4.15610575E-03   6.98405590E-02   2.79417760E-02   9.99974356E-04   8.54402117E-04   0.00000000E+00   0.00000000E+00   5.20820775E-03   7.50785223E-04   0.00000000E+00   1.14253950E-04   1.50167909E-01
   2.78250000E+03   5.00000000E-01   5.00000000E-01   1.99932726E-01   9.99952646E-02   6.99841098E-02   6.57770555E-02   6.57668916E-02   1.01279574E-01   4.14427350E-03   6.98534053E-02   2.79429103E-02   9.99977344E-04   8.54405124E-04   0.00000000E+00   0.00000000E+00   5.21277581E-03   7.50837123E-04   0.00000000E+00   1.12552203E-04   1.50165618E-01
   2.81750000E+03   5.00000000E-01   5.00000000E-01   1.99932904E-01   9.99952699E-02   6.99841100E-02   6.57771650E-02   6.57668916E-02   1.01213297E-01   4.13064396E-03   6.98682578E-02   2.79442902E-02   9.99980549E-04   8.54400138E-04   0.00000000E+00   0.00000000E+00   5.21838006E-03   7.50895085E-04   0.00000000E+00   1.10856589E-04   1.50162882E-01
   2.85250000E+03   5.00000000E-01   5.00000000E-01   1.99933088E-01   9.99952753E-02   6.99841103E-02   6.57773086E-02   6.57668916E-02   1.01150430E-01   4.11485426E-03   6.98854791E-02   2.79459945E-02   9.99983879E-04   8.54386308E-04   0.00000000E+00   0.00000000E+00   5.22512883E-03   7.50960332E-04   0.00000000E+00   1.09163445E-04   1.50159665E-01