 TITLE = "Mineral Volumes" 
VARIABLES = "X"          "Y"              "Z"            "Forsterite"     "Fayalite"       "Saponite(Mg)"   "Enstatite(alph" "Ferrosilite(al" "Anorthite"      "Albite(low)"    "Clinochlore"    "Sudoite"        "Montmorillonit" "Kaolinite"      "Tremolite"      "Pargasite"      "Anhydrite"      "Epidote"        "Scolecite"      "Pyrite"         "FeS(am)"        "Quartz(alpha)" 
 ZONE I=         100 , J=           1 , K=           1  F=POINT
   1.75000000E+01   5.00000000E-01   5.00000000E-01   1.08545123E-01   1.07986695E-01   4.98610986E-03   4.99994070E-02   4.99995483E-02   6.88212391E-02   6.80289558E-02   5.34493288E-03   3.86646499E-12   3.85490595E-11   7.23448233E-04   6.87530122E-02   6.87161560E-02   3.07555250E-11   9.99999993E-04   9.96294930E-04   8.43890240E-11   8.83195678E-11   1.00020968E-10
   5.25000000E+01   5.00000000E-01   5.00000000E-01   1.08545123E-01   1.08158958E-01   5.04647912E-03   4.99994070E-02   4.99996280E-02   6.88212391E-02   6.86135988E-02   4.70937343E-03   2.05982014E-12   4.52589597E-11   7.24304730E-04   6.87529543E-02   6.87161560E-02   3.11105725E-11   1.00000000E-03   9.96295136E-04   8.43890240E-11   8.83221333E-11   1.00023759E-10
   8.75000000E+01   5.00000000E-01   5.00000000E-01   1.08545123E-01   1.08383029E-01   4.80193981E-03   4.99994070E-02   4.99996948E-02   6.88212391E-02   6.88558052E-02   4.51561279E-03   1.68908932E-12   5.00159480E-11   7.24906051E-04   6.87527456E-02   6.87161560E-02   3.15097994E-11   1.00000000E-03   9.96295286E-04   8.43890240E-11   8.83240987E-11   1.00024133E-10
   1.22500000E+02   5.00000000E-01   5.00000000E-01   1.08545123E-01   1.08612087E-01   4.47901600E-03   4.99994070E-02   4.99997478E-02   6.88212391E-02   6.90302496E-02   4.41374802E-03   1.62707769E-12   5.49150024E-11   7.25524478E-04   6.87526427E-02   6.87161560E-02   3.19591273E-11   1.00000000E-03   9.96295441E-04   8.43890240E-11   8.83253663E-11   1.00024119E-10
   1.57500000E+02   5.00000000E-01   5.00000000E-01   1.08545123E-01   1.08818426E-01   4.17715635E-03   4.99994071E-02   4.99997883E-02   6.88212391E-02   6.91816365E-02   4.33060931E-03   1.65161094E-12   6.05996387E-11   7.26223829E-04   6.87526492E-02   6.87161560E-02   3.24650827E-11   1.00000000E-03   9.96295617E-04   8.43890240E-11   8.83260294E-11   1.00023975E-10
   1.92500000E+02   5.00000000E-01   5.00000000E-01   1.08545123E-01   1.08992168E-01   3.92136754E-03   4.99994071E-02   4.99998185E-02   6.88212391E-02   6.93095353E-02   4.26017398E-03   1.70981584E-12   6.70747609E-11   7.26999700E-04   6.87526104E-02   6.87161560E-02   3.30350044E-11   1.00000000E-03   9.96295813E-04   8.43890240E-11   8.83262335E-11   1.00023729E-10
   2.27500000E+02   5.00000000E-01   5.00000000E-01   1.08545123E-01   1.09132846E-01   3.71419481E-03   4.99994072E-02   4.99998405E-02   6.88212391E-02   6.94120496E-02   4.20381270E-03   1.78877048E-12   7.42335290E-11   7.27839250E-04   6.87524885E-02   6.87161560E-02   3.36772550E-11   1.00000000E-03   9.96296025E-04   8.43890240E-11   8.83261112E-11   1.00023395E-10
   2.62500000E+02   5.00000000E-01   5.00000000E-01   1.08545123E-01   1.09243999E-01   3.55059053E-03   4.99994072E-02   4.99998563E-02   6.88212391E-02   6.94903436E-02   4.16162520E-03   1.88650574E-12   8.19816484E-11   7.28733003E-04   6.87524385E-02   6.87161560E-02   3.44014476E-11   1.00000000E-03   9.96296252E-04   8.43890240E-11   8.83257677E-11   1.00022992E-10
   2.97500000E+02   5.00000000E-01   5.00000000E-01   1.08545123E-01   1.09330384E-01   3.42382704E-03   4.99994073E-02   4.99998672E-02   6.88212391E-02   6.95474033E-02   4.13221117E-03   2.00475368E-12   9.02621069E-11   7.29676410E-04   6.87524528E-02   6.87161560E-02   3.52187206E-11   9.99999999E-04   9.96296491E-04   8.43890240E-11   8.83252818E-11   1.00022540E-10
   3.32500000E+02   5.00000000E-01   5.00000000E-01   1.08545123E-01   1.09396746E-01   3.32709056E-03   4.99994073E-02   4.99998745E-02   6.88212391E-02   6.95867350E-02   4.11363597E-03   2.14708933E-12   9.90513018E-11   7.30668317E-04   6.87524636E-02   6.87161560E-02   3.61420577E-11   9.99999999E-04   9.96296743E-04   8.43890240E-11   8.83247113E-11   1.00022052E-10
   3.67500000E+02   5.00000000E-01   5.00000000E-01   1.08545123E-01   1.09447318E-01   3.25398899E-03   4.99994074E-02   4.99998792E-02   6.88212391E-02   6.96117177E-02   4.10398605E-03   2.31857469E-12   1.08352211E-10   7.31709446E-04   6.87525243E-02   6.87161560E-02   3.71866657E-11   9.99999999E-04   9.96297008E-04   8.43890240E-11   8.83240973E-11   1.00021543E-10
   4.02500000E+02   5.00000000E-01   5.00000000E-01   1.08545123E-01   1.09485597E-01   3.19929266E-03   4.99994075E-02   4.99998818E-02   6.88212391E-02   6.96253598E-02   4.10143423E-03   2.52607544E-12   1.18192238E-10   7.32802158E-04   6.87526398E-02   6.87161560E-02   3.83704482E-11   9.99999999E-04   9.96297287E-04   8.43890240E-11   8.83234688E-11   1.00021022E-10
   4.37500000E+02   5.00000000E-01   5.00000000E-01   1.08545123E-01   1.09514377E-01   3.15876996E-03   4.99994075E-02   4.99998829E-02   6.88212391E-02   6.96302046E-02   4.10438387E-03   2.77876817E-12   1.28618504E-10   7.33949789E-04   6.87527916E-02   6.87161560E-02   3.97145945E-11   9.99999999E-04   9.96297581E-04   8.43890240E-11   8.83228456E-11   1.00020495E-10
   4.72500000E+02   5.00000000E-01   5.00000000E-01   1.08545123E-01   1.09535838E-01   3.12901621E-03   4.99994076E-02   4.99998829E-02   6.88212391E-02   6.96283565E-02   4.11148630E-03   3.08894440E-12   1.39696175E-10   7.35156313E-04   6.87529730E-02   6.87161560E-02   4.12443166E-11   9.99999998E-04   9.96297892E-04   8.43890240E-11   8.83222411E-11   1.00019970E-10
   5.07500000E+02   5.00000000E-01   5.00000000E-01   1.08545123E-01   1.09551645E-01   3.10735790E-03   4.99994077E-02   4.99998821E-02   6.88212392E-02   6.96215440E-02   4.12159897E-03   3.47325080E-12   1.51509275E-10   7.36426303E-04   6.87531779E-02   6.87161560E-02   4.29897804E-11   9.99999998E-04   9.96298220E-04   8.43890240E-11   8.83216640E-11   1.00019448E-10
   5.42500000E+02   5.00000000E-01   5.00000000E-01   1.08545124E-01   1.09563052E-01   3.09170950E-03   4.99994078E-02   4.99998806E-02   6.88212392E-02   6.96111808E-02   4.13375815E-03   3.95451318E-12   1.64162070E-10   7.37764898E-04   6.87534001E-02   6.87161560E-02   4.49872915E-11   9.99999997E-04   9.96298568E-04   8.43890240E-11   8.83211197E-11   1.00018935E-10
   5.77500000E+02   5.00000000E-01   5.00000000E-01   1.08545124E-01   1.09570995E-01   3.08045103E-03   4.99994078E-02   4.99998787E-02   6.88212392E-02   6.95984196E-02   4.14715409E-03   4.56446503E-12   1.77780977E-10   7.39177782E-04   6.87536345E-02   6.87161560E-02   4.72808147E-11   9.99999996E-04   9.96298938E-04   8.43890240E-11   8.83206110E-11   1.00018432E-10
   6.12500000E+02   5.00000000E-01   5.00000000E-01   1.08545124E-01   1.09576162E-01   3.07233267E-03   4.99994079E-02   4.99998764E-02   6.88212393E-02   6.95841937E-02   4.16111159E-03   5.34787853E-12   1.92516422E-10   7.40671142E-04   6.87538780E-02   6.87161560E-02   4.99239342E-11   9.99999995E-04   9.96299331E-04   8.43890240E-11   8.83201391E-11   1.00017940E-10
   6.47500000E+02   5.00000000E-01   5.00000000E-01   1.08545125E-01   1.09579058E-01   3.06640164E-03   4.99994080E-02   4.99998738E-02   6.88212394E-02   6.95692477E-02   4.17507713E-03   6.36889951E-12   2.08544039E-10   7.42251568E-04   6.87541286E-02   6.87161560E-02   5.29824029E-11   9.99999993E-04   9.96299750E-04   8.43890240E-11   8.83197043E-11   1.00017462E-10
   6.82500000E+02   5.00000000E-01   5.00000000E-01   1.08545125E-01   1.09580051E-01   3.06194671E-03   4.99994081E-02   4.99998711E-02   6.88212395E-02   6.95541589E-02   4.18861070E-03   7.72089979E-12   2.26064725E-10   7.43925887E-04   6.87543856E-02   6.87161560E-02   5.65374829E-11   9.99999991E-04   9.96300198E-04   8.43890240E-11   8.83193055E-11   1.00016997E-10
   7.17500000E+02   5.00000000E-01   5.00000000E-01   1.08545126E-01   1.09579410E-01   3.05845622E-03   4.99994082E-02   4.99998681E-02   6.88212396E-02   6.95393534E-02   4.20138013E-03   9.54202639E-12   2.45303104E-10   7.45700920E-04   6.87546489E-02   6.87161560E-02   6.06903572E-11   9.99999987E-04   9.96300677E-04   8.43890240E-11   8.83189416E-11   1.00016547E-10
   7.52500000E+02   5.00000000E-01   5.00000000E-01   1.08545128E-01   1.09577334E-01   3.05558533E-03   4.99994083E-02   4.99998651E-02   6.88212398E-02   6.95251205E-02   4.21315549E-03   1.20401105E-11   2.66504013E-10   7.47583182E-04   6.87549192E-02   6.87161560E-02   6.55680077E-11   9.99999981E-04   9.96301189E-04   8.43890240E-11   8.83186108E-11   1.00016111E-10
   7.87500000E+02   5.00000000E-01   5.00000000E-01   1.08545130E-01   1.09573975E-01   3.05312990E-03   4.99994084E-02   4.99998619E-02   6.88212400E-02   6.95116259E-02   4.22380206E-03   1.55331728E-11   2.89926715E-10   7.49578533E-04   6.87551967E-02   6.87161560E-02   7.13311162E-11   9.99999973E-04   9.96301736E-04   8.43890240E-11   8.83183111E-11   1.00015690E-10
   8.22500000E+02   5.00000000E-01   5.00000000E-01   1.08545133E-01   1.09569451E-01   3.05100371E-03   4.99994086E-02   4.99998587E-02   6.88212402E-02   6.94989272E-02   4.23327103E-03   2.05162722E-11   3.15836579E-10   7.51691827E-04   6.87554800E-02   6.87161560E-02   7.81847824E-11   9.99999962E-04   9.96302321E-04   8.43890240E-11   8.83180406E-11   1.00015284E-10
   8.57500000E+02   5.00000000E-01   5.00000000E-01   1.08545138E-01   1.09563859E-01   3.04921547E-03   4.99994087E-02   4.99998554E-02   6.88212406E-02   6.94869906E-02   4.24158825E-03   2.77734140E-11   3.44494137E-10   7.53926560E-04   6.87557656E-02   6.87161560E-02   8.63932078E-11   9.99999946E-04   9.96302946E-04   8.43890240E-11   8.83177971E-11   1.00014891E-10
   8.92500000E+02   5.00000000E-01   5.00000000E-01   1.08545145E-01   1.09557282E-01   3.04784227E-03   4.99994088E-02   4.99998520E-02   6.88212410E-02   6.94757100E-02   4.24884201E-03   3.85674353E-11   3.76141545E-10   7.56284564E-04   6.87560488E-02   6.87161560E-02   9.63000165E-11   9.99999925E-04   9.96303613E-04   8.43890240E-11   8.83175785E-11   1.00014512E-10
   9.27500000E+02   5.00000000E-01   5.00000000E-01   1.08545156E-01   1.09549797E-01   3.04699952E-03   4.99994090E-02   4.99998485E-02   6.88212415E-02   6.94649265E-02   4.25517045E-03   5.49662797E-11   4.10986807E-10   7.58765753E-04   6.87563280E-02   6.87161560E-02   1.08356677E-10   9.99999895E-04   9.96304322E-04   8.43890240E-11   8.83173827E-11   1.00014145E-10
   9.62500000E+02   5.00000000E-01   5.00000000E-01   1.08545171E-01   1.09541476E-01   3.04681305E-03   4.99994091E-02   4.99998451E-02   6.88212422E-02   6.94544482E-02   4.26074805E-03   8.04102135E-11   4.49186535E-10   7.61367956E-04   6.87566085E-02   6.87161560E-02   1.23162701E-10   9.99999857E-04   9.96305075E-04   8.43890240E-11   8.83172078E-11   1.00013790E-10
   9.97500000E+02   5.00000000E-01   5.00000000E-01   1.08545194E-01   1.09532387E-01   3.04740602E-03   4.99994093E-02   4.99998415E-02   6.88212430E-02   6.94440699E-02   4.26576885E-03   1.20708888E-10   4.90828651E-10   7.64086899E-04   6.87569017E-02   6.87161560E-02   1.41523165E-10   9.99999809E-04   9.96305872E-04   8.43890240E-11   8.83170518E-11   1.00013446E-10
   1.03250000E+03   5.00000000E-01   5.00000000E-01   1.08545227E-01   1.09522591E-01   3.04891373E-03   4.99994094E-02   4.99998379E-02   6.88212441E-02   6.94335899E-02   4.27042393E-03   1.85813081E-10   5.35917007E-10   7.66916366E-04   6.87572126E-02   6.87161560E-02   1.64532062E-10   9.99999749E-04   9.96306714E-04   8.43890240E-11   8.83169129E-11   1.00013112E-10
   1.06750000E+03   5.00000000E-01   5.00000000E-01   1.08545276E-01   1.09512144E-01   3.05149863E-03   4.99994096E-02   4.99998343E-02   6.88212454E-02   6.94228237E-02   4.27488286E-03   2.92991158E-10   5.84358148E-10   7.69848467E-04   6.87575250E-02   6.87161560E-02   1.93694640E-10   9.99999678E-04   9.96307600E-04   8.43890240E-11   8.83167894E-11   1.00012788E-10
   1.10250000E+03   5.00000000E-01   5.00000000E-01   1.08545347E-01   1.09501094E-01   3.05530697E-03   4.99994098E-02   4.99998307E-02   6.88212470E-02   6.94116112E-02   4.27929671E-03   4.72550081E-10   6.35947983E-10   7.72873720E-04   6.87578120E-02   6.87161560E-02   2.31109378E-10   9.99999596E-04   9.96308530E-04   8.43890240E-11   8.83166798E-11   1.00012473E-10
   1.13750000E+03   5.00000000E-01   5.00000000E-01   1.08545450E-01   1.09489496E-01   3.06039837E-03   4.99994100E-02   4.99998270E-02   6.88212489E-02   6.93998218E-02   4.28381138E-03   7.78160778E-10   6.90360606E-10   7.75981016E-04   6.87580672E-02   6.87161560E-02   2.79742477E-10   9.99999505E-04   9.96309503E-04   8.43890240E-11   8.83165827E-11   1.00012166E-10
   1.17250000E+03   5.00000000E-01   5.00000000E-01   1.08545597E-01   1.09477411E-01   3.06671688E-03   4.99994102E-02   4.99998233E-02   6.88212514E-02   6.93873589E-02   4.28857013E-03   1.30551084E-09   7.47145011E-10   7.79157728E-04   6.87583228E-02   6.87161560E-02   3.43847941E-10   9.99999407E-04   9.96310519E-04   8.43890240E-11   8.83164966E-11   1.00011867E-10
   1.20750000E+03   5.00000000E-01   5.00000000E-01   1.08545804E-01   1.09464902E-01   3.07415395E-03   4.99994104E-02   4.99998196E-02   6.88212543E-02   6.93741641E-02   4.29369112E-03   2.22605288E-09   8.05735680E-10   7.82390259E-04   6.87586285E-02   6.87161560E-02   4.29620590E-10   9.99999305E-04   9.96311578E-04   8.43890240E-11   8.83164204E-11   1.00011576E-10
   1.24250000E+03   5.00000000E-01   5.00000000E-01   1.08546086E-01   1.09452012E-01   3.08272497E-03   4.99994106E-02   4.99998159E-02   6.88212580E-02   6.93602218E-02   4.29921446E-03   3.84840123E-09   8.65481691E-10   7.85665240E-04   6.87589688E-02   6.87161560E-02   5.46227946E-10   9.99999203E-04   9.96312677E-04   8.43890240E-11   8.83163531E-11   1.00011291E-10
   1.27750000E+03   5.00000000E-01   5.00000000E-01   1.08546464E-01   1.09438772E-01   3.09256892E-03   4.99994109E-02   4.99998122E-02   6.88212624E-02   6.93455505E-02   4.30511028E-03   6.72960342E-09   9.25663391E-10   7.88969832E-04   6.87592464E-02   6.87161560E-02   7.07468553E-10   9.99999105E-04   9.96313818E-04   8.43890240E-11   8.83162935E-11   1.00011013E-10
   1.31250000E+03   5.00000000E-01   5.00000000E-01   1.08546957E-01   1.09425233E-01   3.10369182E-03   4.99994111E-02   4.99998084E-02   6.88212677E-02   6.93301864E-02   4.31136558E-03   1.18734575E-08   9.85482130E-10   7.92290425E-04   6.87593918E-02   6.87161560E-02   9.34483042E-10   9.99999019E-04   9.96315000E-04   8.43890240E-11   8.83162409E-11   1.00010741E-10
   1.34750000E+03   5.00000000E-01   5.00000000E-01   1.08547587E-01   1.09411480E-01   3.11578438E-03   4.99994114E-02   4.99998047E-02   6.88212742E-02   6.93141767E-02   4.31803931E-03   2.10774412E-08   1.04406290E-09   7.95611594E-04   6.87594697E-02   6.87161560E-02   1.26026636E-09   9.99998953E-04   9.96316222E-04   8.43890240E-11   8.83161945E-11   1.00010476E-10
   1.38250000E+03   5.00000000E-01   5.00000000E-01   1.08548360E-01   1.09397665E-01   3.12795504E-03   4.99994117E-02   4.99998010E-02   6.88212820E-02   6.92975724E-02   4.32534245E-03   3.75146381E-08   1.10044544E-09   7.98914281E-04   6.87598256E-02   6.87161560E-02   1.73731606E-09   9.99998917E-04   9.96317483E-04   8.43890240E-11   8.83161534E-11   1.00010217E-10
   1.41750000E+03   5.00000000E-01   5.00000000E-01   1.08549243E-01   1.09383963E-01   3.13941794E-03   4.99994120E-02   4.99997974E-02   6.88212913E-02   6.92804647E-02   4.33340886E-03   6.67242034E-08   1.15373159E-09   8.02180501E-04   6.87607782E-02   6.87161560E-02   2.45085979E-09   9.99998901E-04   9.96318783E-04   8.43890240E-11   8.83161172E-11   1.00009964E-10
   1.45250000E+03   5.00000000E-01   5.00000000E-01   1.08550186E-01   1.09370280E-01   3.15205979E-03   4.99994124E-02   4.99997938E-02   6.88213025E-02   6.92630810E-02   4.34148277E-03   1.18628923E-07   1.20355321E-09   8.05412606E-04   6.87614897E-02   6.87161560E-02   3.54226816E-09   9.99998872E-04   9.96320126E-04   8.43890240E-11   8.83160851E-11   1.00009718E-10
   1.48750000E+03   5.00000000E-01   5.00000000E-01   1.08551199E-01   1.09356562E-01   3.16648179E-03   4.99994127E-02   4.99997902E-02   6.88213160E-02   6.92455276E-02   4.34927560E-03   2.10558068E-07   1.24927455E-09   8.08602934E-04   6.87616835E-02   6.87161560E-02   5.25125161E-09   9.99998845E-04   9.96321513E-04   8.43890240E-11   8.83160569E-11   1.00009477E-10
   1.52250000E+03   5.00000000E-01   5.00000000E-01   1.08552294E-01   1.09343161E-01   3.17996882E-03   4.99994131E-02   4.99997867E-02   6.88213320E-02   6.92277552E-02   4.35755825E-03   3.70889954E-07   1.28966627E-09   8.11716903E-04   6.87624582E-02   6.87161560E-02   7.99345839E-09   9.99998880E-04   9.96322941E-04   8.43890240E-11   8.83160319E-11   1.00009241E-10
   1.55750000E+03   5.00000000E-01   5.00000000E-01   1.08553423E-01   1.09330419E-01   3.19134954E-03   4.99994135E-02   4.99997833E-02   6.88213510E-02   6.92098672E-02   4.36647282E-03   6.45964848E-07   1.32405759E-09   8.14733785E-04   6.87642110E-02   6.87161560E-02   1.25067193E-08   9.99998937E-04   9.96324412E-04   8.43890240E-11   8.83160099E-11   1.00009012E-10
   1.59250000E+03   5.00000000E-01   5.00000000E-01   1.08554578E-01   1.09318154E-01   3.20416862E-03   4.99994139E-02   4.99997799E-02   6.88213737E-02   6.91921874E-02   4.37454626E-03   1.11640393E-06   1.35290268E-09   8.17674299E-04   6.87654157E-02   6.87161560E-02   2.01336403E-08   9.99998926E-04   9.96325931E-04   8.43890240E-11   8.83159905E-11   1.00008788E-10
   1.62750000E+03   5.00000000E-01   5.00000000E-01   1.08555779E-01   1.09306375E-01   3.21915645E-03   4.99994142E-02   4.99997767E-02   6.88214005E-02   6.91747667E-02   4.38128265E-03   1.91254713E-06   1.37579209E-09   8.20530177E-04   6.87657124E-02   6.87161560E-02   3.33792784E-08   9.99998871E-04   9.96327501E-04   8.43890240E-11   8.83159733E-11   1.00008569E-10
   1.66250000E+03   5.00000000E-01   5.00000000E-01   1.08556989E-01   1.09295539E-01   3.23453403E-03   4.99994146E-02   4.99997735E-02   6.88214323E-02   6.91575042E-02   4.38692104E-03   3.22947249E-06   1.39171812E-09   8.23266417E-04   6.87655892E-02   6.87161560E-02   5.70385785E-08   9.99998735E-04   9.96329119E-04   8.43890240E-11   8.83159582E-11   1.00008355E-10
   1.69750000E+03   5.00000000E-01   5.00000000E-01   1.08558203E-01   1.09285794E-01   3.25039897E-03   4.99994151E-02   4.99997705E-02   6.88214699E-02   6.91404108E-02   4.39086249E-03   5.35884345E-06   1.40024076E-09   8.25863724E-04   6.87652643E-02   6.87161560E-02   1.00532812E-07   9.99998554E-04   9.96330785E-04   8.43890240E-11   8.83159448E-11   1.00008144E-10
   1.73250000E+03   5.00000000E-01   5.00000000E-01   1.08559471E-01   1.09276952E-01   3.26807178E-03   4.99994155E-02   4.99997675E-02   6.88215142E-02   6.91234873E-02   4.39191923E-03   8.72248704E-06   1.40108320E-09   8.28308930E-04   6.87648894E-02   6.87161560E-02   1.82870872E-07   9.99998526E-04   9.96332500E-04   8.43890240E-11   8.83159330E-11   1.00007938E-10
   1.76750000E+03   5.00000000E-01   5.00000000E-01   1.08560787E-01   1.09269224E-01   3.28756890E-03   4.99994160E-02   4.99997648E-02   6.88215662E-02   6.91065769E-02   4.38922161E-03   1.38544469E-05   1.39346793E-09   8.30568123E-04   6.87646147E-02   6.87161560E-02   3.43447856E-07   9.99998667E-04   9.96334256E-04   8.43890240E-11   8.83159226E-11   1.00007734E-10
   1.80250000E+03   5.00000000E-01   5.00000000E-01   1.08562109E-01   1.09263116E-01   3.30829469E-03   4.99994164E-02   4.99997622E-02   6.88216271E-02   6.90894770E-02   4.38204160E-03   2.13296756E-05   1.37661143E-09   8.32598397E-04   6.87645364E-02   6.87161560E-02   6.66133389E-07   9.99998815E-04   9.96336047E-04   8.43890240E-11   8.83159134E-11   1.00007533E-10
   1.83750000E+03   5.00000000E-01   5.00000000E-01   1.08563371E-01   1.09259092E-01   3.32956621E-03   4.99994168E-02   4.99997598E-02   6.88216982E-02   6.90720396E-02   4.36979628E-03   3.16312296E-05   1.35020149E-09   8.34361196E-04   6.87649361E-02   6.87161560E-02   1.33430320E-06   9.99998880E-04   9.96337862E-04   8.43890240E-11   8.83159053E-11   1.00007335E-10
   1.87250000E+03   5.00000000E-01   5.00000000E-01   1.08564510E-01   1.09257463E-01   3.35105726E-03   4.99994173E-02   4.99997577E-02   6.88217811E-02   6.90542516E-02   4.35209014E-03   4.50190135E-05   1.31475186E-09   8.35835222E-04   6.87659837E-02   6.87161560E-02   2.75949730E-06   9.99998898E-04   9.96339698E-04   8.43890240E-11   8.83158981E-11   1.00007139E-10
   1.90750000E+03   5.00000000E-01   5.00000000E-01   1.08565539E-01   1.09258290E-01   3.37432561E-03   4.99994178E-02   4.99997558E-02   6.88218774E-02   6.90362841E-02   4.32809154E-03   6.15982615E-05   1.27176896E-09   8.37032679E-04   6.87670158E-02   6.87161560E-02   5.88872749E-06   9.99998926E-04   9.96341553E-04   8.43890240E-11   8.83158918E-11   1.00006946E-10
   1.94250000E+03   5.00000000E-01   5.00000000E-01   1.08566522E-01   1.09261436E-01   3.40098838E-03   4.99994183E-02   4.99997542E-02   6.88219893E-02   6.90183570E-02   4.29720698E-03   8.13141149E-05   1.22302685E-09   8.37977203E-04   6.87673593E-02   6.87161560E-02   1.29508612E-05   9.99998953E-04   9.96343433E-04   8.43890240E-11   8.83158862E-11   1.00006755E-10
   1.97750000E+03   5.00000000E-01   5.00000000E-01   1.08567489E-01   1.09266742E-01   3.43051599E-03   4.99994188E-02   4.99997528E-02   6.88221189E-02   6.90006967E-02   4.26008862E-03   1.03782015E-04   1.17019485E-09   8.38684921E-04   6.87670891E-02   6.87161560E-02   2.92812194E-05   9.99998990E-04   9.96345339E-04   8.43890240E-11   8.83158812E-11   1.00006565E-10
   2.01250000E+03   5.00000000E-01   5.00000000E-01   1.08568449E-01   1.09274300E-01   3.46056894E-03   4.99994193E-02   4.99997515E-02   6.88222689E-02   6.89836184E-02   4.21842263E-03   1.28298604E-04   1.11500293E-09   8.39171140E-04   6.87664977E-02   6.87161560E-02   6.77041490E-05   9.99999036E-04   9.96347278E-04   8.43890240E-11   8.83158768E-11   1.00006376E-10
   2.04750000E+03   5.00000000E-01   5.00000000E-01   1.08569400E-01   1.09284373E-01   3.48841702E-03   4.99994197E-02   4.99997505E-02   6.88224421E-02   6.89675658E-02   4.17395416E-03   1.54105639E-04   1.05927093E-09   8.39460251E-04   6.87657792E-02   6.87161560E-02   1.58239163E-04   9.99999066E-04   9.96349248E-04   8.43890240E-11   8.83158729E-11   1.00006189E-10
   2.08250000E+03   5.00000000E-01   5.00000000E-01   1.08570341E-01   1.09297101E-01   3.51224244E-03   4.99994202E-02   4.99997498E-02   6.88226411E-02   6.89530778E-02   4.12740341E-03   1.80765659E-04   1.00473408E-09   8.39589144E-04   6.87650290E-02   6.87161560E-02   3.64379342E-04   9.99999070E-04   9.96351233E-04   8.43890240E-11   8.83158694E-11   1.00006004E-10
   2.11750000E+03   5.00000000E-01   5.00000000E-01   1.08571269E-01   1.09312381E-01   3.53115177E-03   4.99994207E-02   4.99997494E-02   6.88228674E-02   6.89407234E-02   4.07819473E-03   2.08332526E-04   9.52823260E-10   8.39601043E-04   6.87642921E-02   6.87161560E-02   7.86677538E-04   9.99999050E-04   9.96353176E-04   8.43890240E-11   8.83158663E-11   1.00005823E-10
   2.15250000E+03   5.00000000E-01   5.00000000E-01   1.08572183E-01   1.09329840E-01   3.54520658E-03   4.99994212E-02   4.99997491E-02   6.88231209E-02   6.89309902E-02   4.02492419E-03   2.37189011E-04   9.04470960E-10   8.39535330E-04   6.87635907E-02   6.87161560E-02   1.48560824E-03   9.99999010E-04   9.96354983E-04   8.43890240E-11   8.83158635E-11   1.00005646E-10
   2.18750000E+03   5.00000000E-01   5.00000000E-01   1.08573081E-01   1.09348998E-01   3.55576170E-03   4.99994218E-02   4.99997491E-02   6.88234005E-02   6.89240897E-02   3.96684963E-03   2.67395187E-04   8.59891207E-10   8.39413361E-04   6.87629368E-02   6.87161560E-02   2.33616941E-03   9.99998951E-04   9.96356577E-04   8.43890240E-11   8.83158609E-11   1.00005473E-10
   2.22250000E+03   5.00000000E-01   5.00000000E-01   1.08573965E-01   1.09369602E-01   3.56451516E-03   4.99994223E-02   4.99997493E-02   6.88237068E-02   6.89199442E-02   3.90505129E-03   2.98250364E-04   8.18754203E-10   8.39237583E-04   6.87623365E-02   6.87161560E-02   3.08960453E-03   9.99998873E-04   9.96357942E-04   8.43890240E-11   8.83158587E-11   1.00005304E-10
   2.25750000E+03   5.00000000E-01   5.00000000E-01   1.08574839E-01   1.09391720E-01   3.57185666E-03   4.99994229E-02   4.99997496E-02   6.88240426E-02   6.89184098E-02   3.84155259E-03   3.28797040E-04   7.80665867E-10   8.39006192E-04   6.87617916E-02   6.87161560E-02   3.60555750E-03   9.99998777E-04   9.96359121E-04   8.43890240E-11   8.83158566E-11   1.00005138E-10
   2.29250000E+03   5.00000000E-01   5.00000000E-01   1.08575707E-01   1.09415598E-01   3.57699539E-03   4.99994235E-02   4.99997501E-02   6.88244126E-02   6.89193508E-02   3.77827023E-03   3.58272365E-04   7.45273758E-10   8.38716570E-04   6.87613009E-02   6.87161560E-02   3.86596267E-03   9.99998663E-04   9.96360179E-04   8.43890240E-11   8.83158548E-11   1.00004976E-10
   2.32750000E+03   5.00000000E-01   5.00000000E-01   1.08576576E-01   1.09441536E-01   3.57874355E-03   4.99994241E-02   4.99997508E-02   6.88248242E-02   6.89226901E-02   3.71664935E-03   3.86156665E-04   7.12311844E-10   8.38369122E-04   6.87608607E-02   6.87161560E-02   3.90650991E-03   9.99998532E-04   9.96361201E-04   8.43890240E-11   8.83158531E-11   1.00004817E-10
   2.36250000E+03   5.00000000E-01   5.00000000E-01   1.08577451E-01   1.09469745E-01   3.57590785E-03   4.99994248E-02   4.99997517E-02   6.88252858E-02   6.89285164E-02   3.65722804E-03   4.12271648E-04   6.81730154E-10   8.37976578E-04   6.87604657E-02   6.87161560E-02   3.80626599E-03   9.99998381E-04   9.96362260E-04   8.43890240E-11   8.83158516E-11   1.00004662E-10
   2.39750000E+03   5.00000000E-01   5.00000000E-01   1.08578341E-01   1.09500236E-01   3.56780664E-03   4.99994255E-02   4.99997528E-02   6.88258059E-02   6.89370174E-02   3.59973719E-03   4.36708172E-04   6.53579646E-10   8.37559021E-04   6.87601099E-02   6.87161560E-02   3.64499305E-03   9.99998212E-04   9.96363392E-04   8.43890240E-11   8.83158502E-11   1.00004510E-10
   2.43250000E+03   5.00000000E-01   5.00000000E-01   1.08579251E-01   1.09532854E-01   3.55452142E-03   4.99994262E-02   4.99997541E-02   6.88263925E-02   6.89483058E-02   3.54371791E-03   4.59598326E-04   6.27793065E-10   8.37129959E-04   6.87597865E-02   6.87161560E-02   3.46345130E-03   9.99998022E-04   9.96364609E-04   8.43890240E-11   8.83158490E-11   1.00004362E-10
   2.46750000E+03   5.00000000E-01   5.00000000E-01   1.08580190E-01   1.09567387E-01   3.53664567E-03   4.99994269E-02   4.99997556E-02   6.88270554E-02   6.89623218E-02   3.48895447E-03   4.80994534E-04   6.04094932E-10   8.36687810E-04   6.87594890E-02   6.87161560E-02   3.26570392E-03   9.99997809E-04   9.96365925E-04   8.43890240E-11   8.83158479E-11   1.00004218E-10
   2.50250000E+03   5.00000000E-01   5.00000000E-01   1.08581164E-01   1.09603570E-01   3.51472854E-03   4.99994277E-02   4.99997573E-02   6.88278069E-02   6.89789198E-02   3.43549983E-03   5.00872997E-04   5.82142255E-10   8.36223869E-04   6.87592111E-02   6.87161560E-02   3.05498980E-03   9.99997570E-04   9.96367366E-04   8.43890240E-11   8.83158468E-11   1.00004078E-10
   2.53750000E+03   5.00000000E-01   5.00000000E-01   1.08582182E-01   1.09640983E-01   3.48898971E-03   4.99994285E-02   4.99997591E-02   6.88286604E-02   6.89980159E-02   3.38361849E-03   5.19108587E-04   5.61708740E-10   8.35736593E-04   6.87589474E-02   6.87161560E-02   2.85043211E-03   9.99997303E-04   9.96368951E-04   8.43890240E-11   8.83158459E-11   1.00003942E-10
   2.57250000E+03   5.00000000E-01   5.00000000E-01   1.08583251E-01   1.09679040E-01   3.45952687E-03   4.99994293E-02   4.99997609E-02   6.88296287E-02   6.90196065E-02   3.33380142E-03   5.35431990E-04   5.42690635E-10   8.35233423E-04   6.87586931E-02   6.87161560E-02   2.67142135E-03   9.99997005E-04   9.96370675E-04   8.43890240E-11   8.83158451E-11   1.00003810E-10
   2.60750000E+03   5.00000000E-01   5.00000000E-01   1.08584380E-01   1.09717094E-01   3.42657376E-03   4.99994302E-02   4.99997627E-02   6.88307233E-02   6.90436932E-02   3.28672855E-03   5.49463197E-04   5.25002726E-10   8.34722462E-04   6.87584444E-02   6.87161560E-02   2.52382942E-03   9.99996671E-04   9.96372506E-04   8.43890240E-11   8.83158443E-11   1.00003681E-10
   2.64250000E+03   5.00000000E-01   5.00000000E-01   1.08585579E-01   1.09754583E-01   3.39054222E-03   4.99994311E-02   4.99997645E-02   6.88319554E-02   6.90702203E-02   3.24311921E-03   5.60817086E-04   5.08504743E-10   8.34205198E-04   6.87581989E-02   6.87161560E-02   2.40070684E-03   9.99996299E-04   9.96374412E-04   8.43890240E-11   8.83158435E-11   1.00003557E-10
   2.67750000E+03   5.00000000E-01   5.00000000E-01   1.08586860E-01   1.09791103E-01   3.35193712E-03   4.99994320E-02   4.99997663E-02   6.88333377E-02   6.90990610E-02   3.20352775E-03   5.69220455E-04   4.92995046E-10   8.33674701E-04   6.87579556E-02   6.87161560E-02   2.29092285E-03   9.99995887E-04   9.96376365E-04   8.43890240E-11   8.83158429E-11   1.00003437E-10
   2.71250000E+03   5.00000000E-01   5.00000000E-01   1.08588233E-01   1.09826384E-01   3.31123749E-03   4.99994330E-02   4.99997679E-02   6.88348849E-02   6.91300470E-02   3.16823617E-03   5.74559549E-04   4.78253458E-10   8.33119025E-04   6.87577153E-02   6.87161560E-02   2.18786783E-03   9.99995434E-04   9.96378351E-04   8.43890240E-11   8.83158423E-11   1.00003321E-10