 TITLE = "Mineral Volumes" 
VARIABLES = "X"          "Y"              "Z"            "Forsterite"     "Fayalite"       "Brucite"        "Lizardite"      "Chrysotile"     "Saponite(Mg)"   "Enstatite(alph" "Ferrosilite(al" "Anorthite"      "Albite(low)"    "Clinochlore"    "Sudoite"        "Montmorillonit" "Kaolinite"      "Tremolite"      "Pargasite"      "Anhydrite"      "Epidote"        "Scolecite"      "Pyrite"         "FeS(am)"        "Quartz(alpha)" 
 ZONE I=         100 , J=           1 , K=           1  F=POINT
   1.75000000E+01   5.00000000E-01   5.00000000E-01   9.06543713E-02   1.03278670E-01   2.80567928E-11   1.16863791E-13   1.03968066E-13   0.00000000E+00   4.99977327E-02   4.99990175E-02   3.64965119E-02   7.45647190E-02   7.31782701E-02   1.55387244E-09   2.67332978E-11   1.01746372E-08   6.54026429E-02   6.52064488E-02   4.71502923E-11   9.99999961E-04   9.85879854E-04   5.22658231E-11   6.21769631E-11   1.00261315E-10
   5.25000000E+01   5.00000000E-01   5.00000000E-01   9.06543717E-02   1.05453880E-01   2.80568059E-11   1.37101106E-13   1.18028568E-13   0.00000000E+00   4.99977361E-02   5.00002108E-02   3.64965119E-02   8.05404798E-02   6.68629342E-02   4.48864270E-10   1.13526801E-09   9.89130743E-09   6.57064521E-02   6.52064488E-02   4.78646102E-11   1.00000001E-03   9.85880921E-04   5.22658231E-11   6.21819039E-11   1.00360196E-10
   8.75000000E+01   5.00000000E-01   5.00000000E-01   9.06543720E-02   1.06929875E-01   2.80568205E-11   1.37898455E-13   1.19112104E-13   0.00000000E+00   4.99977376E-02   5.00007933E-02   3.64965120E-02   8.37654858E-02   6.34552785E-02   4.29066307E-10   6.08562386E-08   1.01729408E-08   6.59782734E-02   6.52064488E-02   4.86649816E-11   1.00000000E-03   9.85882465E-04   5.22658231E-11   6.21842908E-11   1.00387009E-10
   1.22500000E+02   5.00000000E-01   5.00000000E-01   9.06543723E-02   1.07679754E-01   2.80568348E-11   1.28017237E-13   1.12868501E-13   0.00000000E+00   4.99977384E-02   5.00010067E-02   3.64965121E-02   8.52598969E-02   6.18739185E-02   5.54282925E-10   1.85137902E-06   1.06590718E-08   6.59991454E-02   6.52064488E-02   4.95670032E-11   1.00000000E-03   9.85884340E-04   5.22658231E-11   6.21853519E-11   1.00385200E-10
   1.57500000E+02   5.00000000E-01   5.00000000E-01   9.06543725E-02   1.08076859E-01   2.80568502E-11   1.17122681E-13   1.05608293E-13   0.00000000E+00   4.99977388E-02   5.00010721E-02   3.64965122E-02   8.58208599E-02   6.12442615E-02   8.27389790E-10   3.00390710E-05   1.12908345E-08   6.58626747E-02   6.52064488E-02   5.05882687E-11   1.00000000E-03   9.85886504E-04   5.22658231E-11   6.21857228E-11   1.00374412E-10
   1.92500000E+02   5.00000000E-01   5.00000000E-01   9.06543728E-02   1.08331952E-01   2.80568684E-11   1.09306441E-13   1.00272559E-13   0.00000000E+00   4.99977394E-02   5.00010832E-02   3.64965123E-02   8.57926904E-02   6.09445966E-02   1.35933624E-09   2.81460472E-04   1.20457817E-08   6.57230214E-02   6.52064488E-02   5.17479185E-11   1.00000000E-03   9.85888942E-04   5.22658231E-11   6.21856897E-11   1.00361103E-10
   2.27500000E+02   5.00000000E-01   5.00000000E-01   9.06543732E-02   1.08549925E-01   2.80568923E-11   1.06253539E-13   9.82911652E-14   0.00000000E+00   4.99977401E-02   5.00010763E-02   3.64965126E-02   8.50703008E-02   6.06400393E-02   2.34088859E-09   1.09644989E-03   1.28990307E-08   6.56907356E-02   6.52064488E-02   5.30671862E-11   1.00000000E-03   9.85891629E-04   5.22658231E-11   6.21853957E-11   1.00346667E-10
   2.62500000E+02   5.00000000E-01   5.00000000E-01   9.06543738E-02   1.08734516E-01   2.80569204E-11   1.05298477E-13   9.78324110E-14   0.00000000E+00   4.99977410E-02   5.00010556E-02   3.64965129E-02   8.39759411E-02   6.03798791E-02   4.04908007E-09   2.17751853E-03   1.38286778E-08   6.57078520E-02   6.52064488E-02   5.45717445E-11   1.00000000E-03   9.85894553E-04   5.22658231E-11   6.21849119E-11   1.00332221E-10
   2.97500000E+02   5.00000000E-01   5.00000000E-01   9.06543745E-02   1.08888082E-01   2.80569513E-11   1.04956144E-13   9.78229020E-14   0.00000000E+00   4.99977420E-02   5.00010238E-02   3.64965133E-02   8.28229913E-02   6.01782243E-02   6.87562593E-09   3.26118099E-03   1.48155443E-08   6.57380943E-02   6.52064488E-02   5.62925305E-11   1.00000000E-03   9.85897705E-04   5.22658231E-11   6.21842912E-11   1.00318308E-10
   3.32500000E+02   5.00000000E-01   5.00000000E-01   9.06543753E-02   1.09023595E-01   2.80569847E-11   1.04904592E-13   9.80299241E-14   0.00000000E+00   4.99977431E-02   5.00009855E-02   3.64965139E-02   8.17071420E-02   6.00049356E-02   1.13682820E-08   4.29327200E-03   1.58364481E-08   6.57752345E-02   6.52064488E-02   5.82666668E-11   1.00000000E-03   9.85901076E-04   5.22658231E-11   6.21835761E-11   1.00305004E-10
   3.67500000E+02   5.00000000E-01   5.00000000E-01   9.06543764E-02   1.09148879E-01   2.80570204E-11   1.05041520E-13   9.83807892E-14   0.00000000E+00   4.99977442E-02   5.00009434E-02   3.64965147E-02   8.06532941E-02   5.98434137E-02   1.82663146E-08   5.26637867E-03   1.68673342E-08   6.58172622E-02   6.52064488E-02   6.05389424E-11   1.00000000E-03   9.85904651E-04   5.22658231E-11   6.21827980E-11   1.00292234E-10
   4.02500000E+02   5.00000000E-01   5.00000000E-01   9.06543776E-02   1.09267462E-01   2.80570584E-11   1.05270209E-13   9.88037649E-14   0.00000000E+00   4.99977454E-02   5.00008991E-02   3.64965158E-02   7.96660409E-02   5.96873618E-02   2.84843937E-08   6.18160118E-03   1.78981632E-08   6.58626050E-02   6.52064488E-02   6.31637880E-11   1.00000000E-03   9.85908429E-04   5.22658231E-11   6.21819806E-11   1.00279911E-10
   4.37500000E+02   5.00000000E-01   5.00000000E-01   9.06543790E-02   1.09380769E-01   2.80570987E-11   1.05470063E-13   9.92051000E-14   0.00000000E+00   4.99977465E-02   5.00008534E-02   3.64965172E-02   7.87439292E-02   5.95351200E-02   4.31016541E-08   7.04137638E-03   1.89327911E-08   6.59097079E-02   6.52064488E-02   6.62078731E-11   1.00000000E-03   9.85912424E-04   5.22658231E-11   6.21811433E-11   1.00267968E-10
   4.72500000E+02   5.00000000E-01   5.00000000E-01   9.06543807E-02   1.09489410E-01   2.80571413E-11   1.05578472E-13   9.95338977E-14   0.00000000E+00   4.99977477E-02   5.00008068E-02   3.64965191E-02   7.78838905E-02   5.93866243E-02   6.33091548E-08   7.84822562E-03   1.99749866E-08   6.59570634E-02   6.52064488E-02   6.97535396E-11   1.00000000E-03   9.85916655E-04   5.22658231E-11   6.21803018E-11   1.00256370E-10
   5.07500000E+02   5.00000000E-01   5.00000000E-01   9.06543826E-02   1.09593786E-01   2.80571864E-11   1.05597244E-13   9.97895472E-14   0.00000000E+00   4.99977489E-02   5.00007600E-02   3.64965216E-02   7.70827086E-02   5.92419445E-02   9.05401635E-08   8.60468669E-03   2.10248365E-08   6.60032904E-02   6.52064488E-02   7.39033761E-11   1.00000000E-03   9.85921142E-04   5.22658231E-11   6.21794689E-11   1.00245101E-10
   5.42500000E+02   5.00000000E-01   5.00000000E-01   9.06543848E-02   1.09694380E-01   2.80572340E-11   1.05555595E-13   9.99939136E-14   0.00000000E+00   4.99977500E-02   5.00007131E-02   3.64965248E-02   7.63374144E-02   5.91005877E-02   1.26584964E-07   9.31352702E-03   2.20721879E-08   6.60471747E-02   6.52064488E-02   7.87863758E-11   1.00000000E-03   9.85925901E-04   5.22658231E-11   6.21786549E-11   1.00234155E-10
   5.77500000E+02   5.00000000E-01   5.00000000E-01   9.06543874E-02   1.09791723E-01   2.80572843E-11   1.05494618E-13   1.00179582E-13   0.00000000E+00   4.99977512E-02   5.00006665E-02   3.64965291E-02   7.56452194E-02   5.89616783E-02   1.73566846E-07   9.97765995E-03   2.30951851E-08   6.60876954E-02   6.52064488E-02   8.45663087E-11   1.00000000E-03   9.85930944E-04   5.22658231E-11   6.21778678E-11   1.00223536E-10
   6.12500000E+02   5.00000000E-01   5.00000000E-01   9.06543903E-02   1.09886122E-01   2.80573375E-11   1.05465409E-13   1.00388743E-13   0.00000000E+00   4.99977523E-02   5.00006204E-02   3.64965345E-02   7.50033676E-02   5.88245515E-02   2.33943527E-07   1.05998111E-02   2.40758859E-08   6.61240449E-02   6.52064488E-02   9.14532151E-11   1.00000000E-03   9.85936290E-04   5.22658231E-11   6.21771136E-11   1.00213248E-10
   6.47500000E+02   5.00000000E-01   5.00000000E-01   9.06543937E-02   1.09977506E-01   2.80573937E-11   1.05531665E-13   1.00675734E-13   0.00000000E+00   4.99977534E-02   5.00005749E-02   3.64965416E-02   7.44090236E-02   5.86890484E-02   3.10256663E-07   1.11823838E-02   2.50178825E-08   6.61556545E-02   6.52064488E-02   9.97193717E-11   1.00000000E-03   9.85941990E-04   5.22658231E-11   6.21763966E-11   1.00203300E-10
   6.82500000E+02   5.00000000E-01   5.00000000E-01   9.06543976E-02   1.10065677E-01   2.80574532E-11   1.05773114E-13   1.01110359E-13   0.00000000E+00   4.99977545E-02   5.00005301E-02   3.64965508E-02   7.38594157E-02   5.85550979E-02   4.05177279E-07   1.17276620E-02   2.59400843E-08   6.61822003E-02   6.52064488E-02   1.09721761E-10   1.00000000E-03   9.85948119E-04   5.22658231E-11   6.21757197E-11   1.00193699E-10
   7.17500000E+02   5.00000000E-01   5.00000000E-01   9.06544021E-02   1.10150730E-01   2.80575162E-11   1.06289393E-13   1.01781679E-13   0.00000000E+00   4.99977556E-02   5.00004861E-02   3.64965627E-02   7.33521305E-02   5.84218539E-02   5.22266729E-07   1.22382313E-02   2.68558299E-08   6.62035605E-02   6.52064488E-02   1.21934144E-10   1.00000000E-03   9.85954765E-04   5.22658231E-11   6.21750846E-11   1.00184452E-10
   7.52500000E+02   5.00000000E-01   5.00000000E-01   9.06544074E-02   1.10232958E-01   2.80575832E-11   1.07208869E-13   1.02806152E-13   0.00000000E+00   4.99977566E-02   5.00004429E-02   3.64965781E-02   7.28850285E-02   5.82880632E-02   6.65719565E-07   1.27167654E-02   2.77696562E-08   6.62197864E-02   6.52064488E-02   1.36993450E-10   1.00000000E-03   9.85962024E-04   5.22658231E-11   6.21744921E-11   1.00175559E-10
   7.87500000E+02   5.00000000E-01   5.00000000E-01   9.06544135E-02   1.10312738E-01   2.80576546E-11   1.08701760E-13   1.04339746E-13   0.00000000E+00   4.99977576E-02   5.00004005E-02   3.64965981E-02   7.24562292E-02   5.81523793E-02   8.40931727E-07   1.31657981E-02   2.86830846E-08   6.62310511E-02   6.52064488E-02   1.55767894E-10   1.00000000E-03   9.85970014E-04   5.22658231E-11   6.21739421E-11   1.00167016E-10
   8.22500000E+02   5.00000000E-01   5.00000000E-01   9.06544209E-02   1.10390487E-01   2.80577311E-11   1.11001759E-13   1.06597812E-13   0.00000000E+00   4.99977586E-02   5.00003589E-02   3.64966241E-02   7.20641140E-02   5.80135063E-02   1.05449097E-06   1.35876109E-02   2.95948593E-08   6.62376135E-02   6.52064488E-02   1.79458588E-10   1.00000000E-03   9.85978884E-04   5.22658231E-11   6.21734338E-11   1.00158817E-10
   8.57500000E+02   5.00000000E-01   5.00000000E-01   9.06544297E-02   1.10466695E-01   2.80578132E-11   1.14440010E-13   1.09886346E-13   0.00000000E+00   4.99977596E-02   5.00003182E-02   3.64966581E-02   7.17074112E-02   5.78701530E-02   1.31502331E-06   1.39841979E-02   3.05004283E-08   6.62397716E-02   6.52064488E-02   2.09753724E-10   9.99999999E-04   9.85988824E-04   5.22658231E-11   6.21729658E-11   1.00150949E-10
   8.92500000E+02   5.00000000E-01   5.00000000E-01   9.06544405E-02   1.10541881E-01   2.80579022E-11   1.19501285E-13   1.14653601E-13   0.00000000E+00   4.99977605E-02   5.00002783E-02   3.64967027E-02   7.13852597E-02   5.77211231E-02   1.63329424E-06   1.43571453E-02   3.13905576E-08   6.62378407E-02   6.52064488E-02   2.49066799E-10   9.99999998E-04   9.86000081E-04   5.22658231E-11   6.21725363E-11   1.00143399E-10
   9.27500000E+02   5.00000000E-01   5.00000000E-01   9.06544542E-02   1.10616581E-01   2.80579991E-11   1.26916583E-13   1.21575133E-13   0.00000000E+00   4.99977613E-02   5.00002391E-02   3.64967616E-02   7.10973547E-02   5.75652702E-02   2.02387696E-06   1.47075443E-02   3.22524542E-08   6.62321138E-02   6.52064488E-02   3.00911863E-10   9.99999997E-04   9.86012989E-04   5.22658231E-11   6.21721434E-11   1.00136151E-10
   9.62500000E+02   5.00000000E-01   5.00000000E-01   9.06544716E-02   1.10691337E-01   2.80581056E-11   1.37821382E-13   1.31698981E-13   0.00000000E+00   4.99977621E-02   5.00002006E-02   3.64968400E-02   7.08441118E-02   5.74014180E-02   2.50619458E-06   1.50359184E-02   3.30721468E-08   6.62228421E-02   6.52064488E-02   3.70506968E-10   9.99999995E-04   9.86028020E-04   5.22658231E-11   6.21717846E-11   1.00129188E-10
   9.97500000E+02   5.00000000E-01   5.00000000E-01   9.06544945E-02   1.10766634E-01   2.80582238E-11   1.54030985E-13   1.46698101E-13   0.00000000E+00   4.99977629E-02   5.00001627E-02   3.64969458E-02   7.06268969E-02   5.72282840E-02   3.10446384E-06   1.53420935E-02   3.38389935E-08   6.62102513E-02   6.52064488E-02   4.65766275E-10   9.99999993E-04   9.86045877E-04   5.22658231E-11   6.21714576E-11   1.00122491E-10
   1.03250000E+03   5.00000000E-01   5.00000000E-01   9.06545251E-02   1.10842778E-01   2.80583564E-11   1.78523755E-13   1.69313582E-13   0.00000000E+00   4.99977636E-02   5.00001253E-02   3.64970910E-02   7.04484799E-02   5.70444546E-02   3.84918734E-06   1.56248464E-02   3.45528709E-08   6.61945469E-02   6.52064488E-02   5.98970099E-10   9.99999990E-04   9.86067662E-04   5.22658231E-11   6.21711599E-11   1.00116040E-10
   1.06750000E+03   5.00000000E-01   5.00000000E-01   9.06545665E-02   1.10919898E-01   2.80585066E-11   2.16286576E-13   2.04131950E-13   0.00000000E+00   4.99977643E-02   5.00000882E-02   3.64972955E-02   7.03140246E-02   5.68478039E-02   4.78116340E-06   1.58815371E-02   3.52199745E-08   6.61758904E-02   6.52064488E-02   7.89648494E-10   9.99999986E-04   9.86095187E-04   5.22658231E-11   6.21708887E-11   1.00109814E-10
   1.10250000E+03   5.00000000E-01   5.00000000E-01   9.06546232E-02   1.10997810E-01   2.80586785E-11   2.75738737E-13   2.58902378E-13   0.00000000E+00   4.99977648E-02   5.00000512E-02   3.64975945E-02   7.02330617E-02   5.66347768E-02   5.95912746E-06   1.61070410E-02   3.58450519E-08   6.61543432E-02   6.52064488E-02   1.06969722E-09   9.99999982E-04   9.86131659E-04   5.22658231E-11   6.21706412E-11   1.00103790E-10
   1.13750000E+03   5.00000000E-01   5.00000000E-01   9.06546070E-02   1.09088017E-01   2.80584828E-11   3.14647806E-13   2.96158896E-13   3.53792292E-02   4.99977374E-02   4.99992311E-02   3.64981410E-02   6.78320150E-02   2.46200112E-02   3.85691591E-05   3.54204406E-02   4.87688685E-08   6.53418504E-02   6.52064488E-02   1.49006652E-09   9.99999980E-04   9.86201956E-04   5.22658231E-11   6.21703931E-11   1.00038613E-10
   1.17250000E+03   5.00000000E-01   5.00000000E-01   9.06547084E-02   1.09976118E-01   2.80587775E-11   4.49217822E-13   4.20742194E-13   0.00000000E+00   4.99977398E-02   4.99994061E-02   3.64988978E-02   6.83260962E-02   5.94625988E-02   1.17567164E-05   1.54752606E-02   4.09064455E-08   6.53407930E-02   6.52064488E-02   2.14546166E-09   9.99999971E-04   9.86276622E-04   5.22658231E-11   6.21702768E-11   1.00042140E-10
   1.20750000E+03   5.00000000E-01   5.00000000E-01   9.06548424E-02   1.10771618E-01   2.80590732E-11   6.58647710E-13   6.15317058E-13   0.00000000E+00   4.99977416E-02   4.99995205E-02   3.65005570E-02   6.89203161E-02   5.76550961E-02   1.36280883E-05   1.63698034E-02   4.00458016E-08   6.53404278E-02   6.52064488E-02   3.20393007E-09   9.99999965E-04   9.86435870E-04   5.22658231E-11   6.21701090E-11   1.00042994E-10
   1.24250000E+03   5.00000000E-01   5.00000000E-01   9.06550126E-02   1.11202592E-01   2.80594026E-11   9.48472805E-13   8.86879362E-13   0.00000000E+00   4.99977428E-02   4.99995625E-02   3.65062139E-02   6.99617224E-02   5.62838925E-02   1.81115473E-05   1.65598646E-02   4.00384034E-08   6.53403925E-02   6.52064488E-02   4.97548738E-09   9.99999960E-04   9.86938254E-04   5.22658231E-11   6.21699034E-11   1.00042104E-10
   1.27750000E+03   5.00000000E-01   5.00000000E-01   9.06552146E-02   1.11225624E-01   2.80597849E-11   1.24897945E-12   1.17400408E-12   0.00000000E+00   4.99977435E-02   4.99995404E-02   3.65669126E-02   7.29569195E-02   5.51962050E-02   2.92797539E-05   1.48554690E-02   4.03126198E-08   6.53407571E-02   6.52064488E-02   8.05418043E-09   9.99999954E-04   9.91187559E-04   5.22658231E-11   6.21696597E-11   1.00039826E-10
   1.31250000E+03   5.00000000E-01   5.00000000E-01   9.06554371E-02   1.11142043E-01   2.80602870E-11   1.39738845E-12   1.32617670E-12   0.00000000E+00   4.99977442E-02   4.99994973E-02   3.74052060E-02   7.71191119E-02   5.44070924E-02   3.31190950E-05   1.07200091E-02   3.95003721E-08   6.53533216E-02   6.52064488E-02   1.36074906E-08   9.99999948E-04   1.02334750E-03   5.22658231E-11   6.21694319E-11   1.00037346E-10
   1.34750000E+03   5.00000000E-01   5.00000000E-01   9.06556718E-02   1.11163014E-01   2.80610697E-11   1.30933272E-12   1.25835128E-12   0.00000000E+00   4.99977453E-02   4.99994608E-02   3.88643942E-02   7.78184373E-02   5.30900725E-02   2.12288732E-05   8.81554401E-03   3.78401105E-08   6.60511821E-02   6.52064488E-02   2.39838333E-08   9.99999941E-04   1.05034705E-03   5.22658231E-11   6.21692615E-11   1.00035194E-10
   1.38250000E+03   5.00000000E-01   5.00000000E-01   9.06558855E-02   1.10417315E-01   2.80619105E-11   1.07892334E-12   1.05094216E-12   7.69213917E-03   4.99977407E-02   4.99992306E-02   4.01989785E-02   7.69580820E-02   4.48155210E-02   6.62332580E-05   1.20842324E-02   4.25288375E-08   6.73390980E-02   6.52064488E-02   4.41417194E-08   9.99999935E-04   1.05938906E-03   5.22658231E-11   6.21691259E-11   1.00024174E-10
   1.41750000E+03   5.00000000E-01   5.00000000E-01   9.06561333E-02   1.10682856E-01   2.80630893E-11   8.56630630E-13   8.44668107E-13   4.14408044E-04   4.99977414E-02   4.99992247E-02   4.14131810E-02   7.66378424E-02   5.02794840E-02   6.05824593E-05   7.67513118E-03   4.03231219E-08   6.85213952E-02   6.52064488E-02   8.53567328E-08   9.99999928E-04   1.06185969E-03   5.22658231E-11   6.21690326E-11   1.00022235E-10
   1.45250000E+03   5.00000000E-01   5.00000000E-01   9.06563940E-02   1.10862558E-01   2.80645212E-11   6.79658518E-13   6.77123563E-13   3.31331117E-09   4.99977419E-02   4.99992038E-02   4.25632818E-02   7.64031496E-02   4.88218570E-02   7.37496909E-05   7.19647488E-03   3.92949298E-08   6.96244298E-02   6.52064488E-02   1.74016699E-07   9.99999923E-04   1.06176916E-03   5.22658231E-11   6.21689490E-11   1.00020142E-10
   1.48750000E+03   5.00000000E-01   5.00000000E-01   9.06566680E-02   1.10917468E-01   2.80662792E-11   5.46521170E-13   5.49079738E-13   1.68980053E-19   4.99977421E-02   4.99991649E-02   4.36866214E-02   7.61588966E-02   4.72369978E-02   1.02656727E-04   6.75992999E-03   3.89609847E-08   7.06801187E-02   6.52064488E-02   3.75243159E-07   9.99999919E-04   1.06038839E-03   5.22658231E-11   6.21688763E-11   1.00017717E-10
   1.52250000E+03   5.00000000E-01   5.00000000E-01   9.06569551E-02   1.10907722E-01   2.80684559E-11   4.46232330E-13   4.51333243E-13   3.50175790E-32   4.99977421E-02   4.99991179E-02   4.47996368E-02   7.58915331E-02   4.58313634E-02   1.49286834E-04   6.19461965E-03   3.89477993E-08   7.17029388E-02   6.52064488E-02   8.58774223E-07   9.99999918E-04   1.05825073E-03   5.22658231E-11   6.21688149E-11   1.00015179E-10
   1.55750000E+03   5.00000000E-01   5.00000000E-01   9.06572538E-02   1.10876040E-01   2.80711645E-11   3.69737026E-13   3.75917123E-13   1.11131063E-44   4.99977421E-02   4.99990687E-02   4.59025052E-02   7.56274098E-02   4.45060480E-02   2.36696661E-04   5.51805065E-03   3.92662185E-08   7.26934746E-02   6.52064488E-02   2.09345084E-06   9.99999919E-04   1.05553471E-03   5.22658231E-11   6.21687638E-11   1.00012666E-10
   1.59250000E+03   5.00000000E-01   5.00000000E-01   9.06575624E-02   1.10853274E-01   2.80745491E-11   3.10673345E-13   3.17112006E-13   6.64132114E-55   4.99977421E-02   4.99990222E-02   4.69952003E-02   7.54026770E-02   4.31793604E-02   4.36610614E-04   4.65033224E-03   3.99052328E-08   7.36533974E-02   6.52064489E-02   5.45635744E-06   9.99999923E-04   1.05248113E-03   5.22658231E-11   6.21687215E-11   1.00010319E-10
   1.62750000E+03   5.00000000E-01   5.00000000E-01   9.06578797E-02   1.10865208E-01   2.80787937E-11   2.64651580E-13   2.70910243E-13   1.72638012E-61   4.99977423E-02   4.99989830E-02   4.80840994E-02   7.52486814E-02   4.17726978E-02   8.44699562E-04   3.46516973E-03   4.02844831E-08   7.45861661E-02   6.52064489E-02   1.52623935E-05   9.99999928E-04   1.04932614E-03   5.22658231E-11   6.21686861E-11   1.00008304E-10
   1.66250000E+03   5.00000000E-01   5.00000000E-01   9.06582047E-02   1.10890336E-01   2.80841250E-11   2.28660214E-13   2.34527727E-13   6.01113084E-65   4.99977428E-02   4.99989501E-02   4.91751986E-02   7.52235167E-02   4.03358840E-02   1.31841022E-03   2.09228167E-03   3.98192282E-08   7.54917065E-02   6.52064489E-02   4.59562085E-05   9.99999935E-04   1.04623277E-03   5.22658231E-11   6.21686554E-11   1.00006634E-10
   1.69750000E+03   5.00000000E-01   5.00000000E-01   9.06585369E-02   1.10855355E-01   2.80908216E-11   2.00639501E-13   2.06039624E-13   8.87935844E-68   4.99977433E-02   4.99989134E-02   5.02980223E-02   7.53607891E-02   3.90482015E-02   1.44134888E-03   9.75369993E-04   3.88597484E-08   7.63766741E-02   6.52064490E-02   1.48961524E-04   9.99999942E-04   1.04357149E-03   5.22658231E-11   6.21686278E-11   1.00005026E-10
   1.73250000E+03   5.00000000E-01   5.00000000E-01   9.06588804E-02   1.10759023E-01   2.80992599E-11   1.79058765E-13   1.83994252E-13   1.09021616E-69   4.99977441E-02   4.99988722E-02   5.14646847E-02   7.53367933E-02   3.78603428E-02   1.39219535E-03   1.12732533E-04   3.64879970E-08   7.72547616E-02   6.52064490E-02   5.14347852E-04   9.99999949E-04   1.04115364E-03   5.22658231E-11   6.21686026E-11   1.00003439E-10
   1.76750000E+03   5.00000000E-01   5.00000000E-01   9.06592372E-02   1.10639548E-01   2.81098752E-11   1.62493113E-13   1.67003540E-13   2.65881486E-72   4.99977448E-02   4.99988238E-02   5.27479570E-02   7.48923358E-02   3.67301922E-02   9.34284614E-04   1.17189250E-06   3.29268590E-08   7.82829420E-02   6.52064491E-02   1.80095938E-03   9.99999955E-04   1.03913119E-03   5.22658231E-11   6.21685823E-11   1.00001588E-10
   1.80250000E+03   5.00000000E-01   5.00000000E-01   9.06596059E-02   1.10492508E-01   2.81231785E-11   1.49539883E-13   1.53670346E-13   5.20529533E-76   4.99977454E-02   4.99987695E-02   5.41545957E-02   7.41343784E-02   3.56439736E-02   4.19961346E-04   2.27127759E-09   2.89603690E-08   7.93843537E-02   6.52064492E-02   5.52707258E-03   9.99999961E-04   1.03708847E-03   5.22658231E-11   6.21685659E-11   9.99995755E-11
   1.83750000E+03   5.00000000E-01   5.00000000E-01   9.06599882E-02   1.10325825E-01   2.81398441E-11   1.38984056E-13   1.42768558E-13   1.47447847E-78   4.99977462E-02   4.99987146E-02   5.55841264E-02   7.30547823E-02   3.45872982E-02   3.23989989E-05   4.37447367E-13   2.33234958E-08   8.04375757E-02   6.52064493E-02   1.21515730E-02   9.99999966E-04   1.03455899E-03   5.22658231E-11   6.21685516E-11   9.99976504E-11
   1.87250000E+03   5.00000000E-01   5.00000000E-01   9.06603849E-02   1.10169512E-01   2.81606958E-11   1.29921474E-13   1.33377382E-13   2.50474022E-78   4.99977475E-02   4.99986671E-02   5.69584998E-02   7.14682697E-02   3.34504871E-02   2.44867011E-08   1.41649568E-17   1.61464357E-08   8.15055142E-02   6.52064494E-02   1.84237048E-02   9.99999971E-04   1.03121882E-03   5.22658231E-11   6.21685390E-11   9.99960857E-11
   1.90750000E+03   5.00000000E-01   5.00000000E-01   9.06607840E-02   1.10042372E-01   2.81866395E-11   1.21773482E-13   1.24902674E-13   7.60240945E-79   4.99977487E-02   4.99986262E-02   5.83265653E-02   6.98142929E-02   3.23312346E-02   1.26167983E-09   9.97686579E-20   1.35591810E-08   8.27093261E-02   6.52064496E-02   2.17425269E-02   9.99999974E-04   1.02755749E-03   5.22658231E-11   6.21685300E-11   9.99947731E-11
   1.94250000E+03   5.00000000E-01   5.00000000E-01   9.06611731E-02   1.10005607E-01   2.82188047E-11   1.14276200E-13   1.17073678E-13   5.37893642E-81   4.99977495E-02   4.99985950E-02   5.96118923E-02   6.81662347E-02   3.13793882E-02   1.03660512E-09   2.48358102E-20   1.30394007E-08   8.38502830E-02   6.52064498E-02   2.25363013E-02   9.99999977E-04   1.02346789E-03   5.22658231E-11   6.21685253E-11   9.99936669E-11
   1.97750000E+03   5.00000000E-01   5.00000000E-01   9.06615515E-02   1.10004084E-01   2.82586548E-11   1.07394554E-13   1.09858695E-13   8.36033610E-83   4.99977503E-02   4.99985716E-02   6.05844378E-02   6.67963796E-02   3.07907955E-02   9.61650735E-10   1.36638879E-20   1.27626874E-08   8.45781712E-02   6.52064500E-02   2.19969733E-02   9.99999979E-04   1.01890109E-03   5.22658231E-11   6.21685225E-11   9.99928309E-11
   2.01250000E+03   5.00000000E-01   5.00000000E-01   9.06619215E-02   1.10005551E-01   2.83079613E-11   1.01190141E-13   1.03328229E-13   1.24709889E-83   4.99977512E-02   4.99985535E-02   6.12179752E-02   6.58583492E-02   3.04573532E-02   9.03377086E-10   9.67804886E-21   1.25741652E-08   8.49831239E-02   6.52064504E-02   2.09110319E-02   9.99999981E-04   1.01453479E-03   5.22658231E-11   6.21685204E-11   9.99922241E-11
   2.04750000E+03   5.00000000E-01   5.00000000E-01   9.06622834E-02   1.10007578E-01   2.83688537E-11   9.57347883E-14   9.75644290E-14   6.69705115E-84   4.99977522E-02   4.99985391E-02   6.16451306E-02   6.52353769E-02   3.02233509E-02   8.51242571E-10   7.59455221E-21   1.24519392E-08   8.52606230E-02   6.52064508E-02   1.96618999E-02   9.99999982E-04   1.01077926E-03   5.22658231E-11   6.21685187E-11   9.99917621E-11
   2.08250000E+03   5.00000000E-01   5.00000000E-01   9.06626392E-02   1.10009875E-01   2.84439143E-11   9.10726562E-14   9.26209960E-14   6.91699054E-84   4.99977533E-02   4.99985273E-02   6.19543928E-02   6.48012891E-02   3.00363666E-02   8.00592227E-10   6.21354958E-21   1.23836795E-08   8.54772819E-02   6.52064514E-02   1.84105171E-02   9.99999983E-04   1.00762581E-03   5.22658231E-11   6.21685173E-11   9.99913882E-11
   2.11750000E+03   5.00000000E-01   5.00000000E-01   9.06629926E-02   1.10012426E-01   2.85362672E-11   8.71995854E-14   8.85004588E-14   1.00202957E-83   4.99977545E-02   4.99985171E-02   6.21926144E-02   6.44814069E-02   2.98771009E-02   7.50260120E-10   5.14885447E-21   1.23569164E-08   8.56574647E-02   6.52064521E-02   1.72150923E-02   9.99999984E-04   1.00497246E-03   5.22658231E-11   6.21685160E-11   9.99910692E-11
   2.15250000E+03   5.00000000E-01   5.00000000E-01   9.06633490E-02   1.10015336E-01   2.86496856E-11   8.40629465E-14   8.51531097E-14   1.73623408E-83   4.99977557E-02   4.99985081E-02   6.23855603E-02   6.42334911E-02   2.97362308E-02   7.02134606E-10   4.23773002E-21   1.23529577E-08   8.58127456E-02   6.52064531E-02   1.60904934E-02   9.99999985E-04   1.00272249E-03   5.22658231E-11   6.21685149E-11   9.99907859E-11
   2.18750000E+03   5.00000000E-01   5.00000000E-01   9.06637147E-02   1.10018742E-01   2.87887230E-11   8.15752418E-14   8.24908632E-14   3.31999638E-83   4.99977571E-02   4.99984999E-02   6.25485361E-02   6.40322164E-02   2.96084884E-02   6.60076387E-10   3.40992138E-21   1.23456684E-08   8.59496028E-02   6.52064543E-02   1.50362902E-02   9.99999985E-04   1.00079943E-03   5.22658231E-11   6.21685138E-11   9.99905273E-11
   2.22250000E+03   5.00000000E-01   5.00000000E-01   9.06640964E-02   1.10022627E-01   2.89588731E-11   7.96326164E-14   8.04067680E-14   6.71364027E-83   4.99977584E-02   4.99984924E-02   6.26910806E-02   6.38617625E-02   2.94906437E-02   6.26634985E-10   2.66043060E-21   1.23109464E-08   8.60722921E-02   6.52064557E-02   1.40485026E-02   9.99999985E-04   9.99144473E-04   5.22658231E-11   6.21685129E-11   9.99902874E-11
   2.25750000E+03   5.00000000E-01   5.00000000E-01   9.06645010E-02   1.10026684E-01   2.91667657E-11   7.81307325E-14   7.87920340E-14   1.40500336E-82   4.99977599E-02   4.99984853E-02   6.28185861E-02   6.37129822E-02   2.93811051E-02   5.99636977E-10   2.02037272E-21   1.22414680E-08   8.61834737E-02   6.52064576E-02   1.31209178E-02   9.99999984E-04   9.97711798E-04   5.22658231E-11   6.21685120E-11   9.99900624E-11
   2.29250000E+03   5.00000000E-01   5.00000000E-01   9.06649356E-02   1.10030509E-01   2.94204068E-11   7.69755425E-14   7.75478116E-14   3.03057402E-82   4.99977614E-02   4.99984786E-02   6.29334999E-02   6.35813540E-02   2.92795631E-02   5.73826649E-10   1.51023862E-21   1.21469755E-08   8.62842622E-02   6.52064599E-02   1.22470969E-02   9.99999983E-04   9.96464983E-04   5.22658231E-11   6.21685112E-11   9.99898504E-11
   2.32750000E+03   5.00000000E-01   5.00000000E-01   9.06654072E-02   1.10033862E-01   2.97294739E-11   7.60879188E-14   7.65904386E-14   6.77461230E-82   4.99977629E-02   4.99984723E-02   6.30371464E-02   6.34645071E-02   2.91857790E-02   5.45255215E-10   1.12200297E-21   1.20406362E-08   8.63753386E-02   6.52064628E-02   1.14252399E-02   9.99999981E-04   9.95375085E-04   5.22658231E-11   6.21685104E-11   9.99896499E-11
   2.36250000E+03   5.00000000E-01   5.00000000E-01   9.06659232E-02   1.10036667E-01   3.01056796E-11   7.54045132E-14   7.58526304E-14   1.57978116E-81   4.99977645E-02   4.99984661E-02   6.31307740E-02   6.33606821E-02   2.90990147E-02   5.12520995E-10   8.32535374E-22   1.19306170E-08   8.64577001E-02   6.52064664E-02   1.06556821E-02   9.99999979E-04   9.94419007E-04   5.22658231E-11   6.21685097E-11   9.99894600E-11
   2.39750000E+03   5.00000000E-01   5.00000000E-01   9.06664911E-02   1.10038876E-01   3.05632239E-11   7.48761162E-14   7.52819196E-14   3.86285894E-81   4.99977662E-02   4.99984602E-02   6.32157103E-02   6.32682351E-02   2.90182343E-02   4.75535588E-10   6.17809787E-22   1.18202469E-08   8.65325969E-02   6.52064709E-02   9.93261468E-03   9.99999976E-04   9.93578037E-04   5.22658231E-11   6.21685089E-11   9.99892797E-11