 TITLE = "Mineral Volumes" 
VARIABLES = "X"          "Y"              "Z"            "Forsterite"     "Enstatite(alph" "Anorthite"      "Ferropargasite" "Anhydrite"      "Clinochlore"    "Albite(low)"    "Fayalite"       "Epidote"        "Kaolinite"      "Muscovite(orde" "Sudoite"        "Saponite(Mg)"   "Scolecite"      "Pyrite"         "Quartz(alpha)" 
 ZONE I=         100 , J=           1 , K=           1  F=POINT
   1.75000000E+01   5.00000000E-01   5.00000000E-01   2.79903344E-01   2.09993101E-01   9.97776681E-03   6.99382318E-02   6.79772951E-04   9.47773414E-04   1.28614362E-01   2.78977203E-02   9.99999997E-04   9.78585207E-04   4.36411317E-04   0.00000000E+00   4.10074244E-04   6.65809042E-04   0.00000000E+00   1.20609907E-06
   5.25000000E+01   5.00000000E-01   5.00000000E-01   2.79903344E-01   2.09993101E-01   9.97776681E-03   6.99382318E-02   7.91445528E-02   4.19028754E-04   1.28979985E-01   2.78977260E-02   9.99999997E-04   9.78686090E-04   4.97016009E-04   0.00000000E+00   4.28355656E-04   6.65939618E-04   0.00000000E+00   1.56716494E-06
   8.75000000E+01   5.00000000E-01   5.00000000E-01   2.79903344E-01   2.09993102E-01   9.97776682E-03   6.99382318E-02   1.68880982E-01   2.68202463E-04   1.29149571E-01   2.78977342E-02   9.99999996E-04   9.78729802E-04   4.73541322E-04   0.00000000E+00   5.22315703E-04   6.65983004E-04   0.00000000E+00   1.73536360E-06
   1.22500000E+02   5.00000000E-01   5.00000000E-01   2.79903344E-01   2.09993102E-01   9.97776682E-03   6.99382318E-02   2.00087644E-01   2.08766903E-04   1.29237232E-01   2.78977449E-02   9.99999995E-04   9.78769986E-04   4.54215821E-04   0.00000000E+00   5.61781504E-04   6.66001651E-04   0.00000000E+00   1.81044414E-06
   1.57500000E+02   5.00000000E-01   5.00000000E-01   2.79903344E-01   2.09993102E-01   9.97776682E-03   6.99382318E-02   2.08023608E-01   1.81021816E-04   1.29283040E-01   2.78977578E-02   9.99999995E-04   9.78813510E-04   4.42412282E-04   0.00000000E+00   5.84234334E-04   6.66015296E-04   0.00000000E+00   1.83622588E-06
   1.92500000E+02   5.00000000E-01   5.00000000E-01   2.79903344E-01   2.09993103E-01   9.97776682E-03   6.99382318E-02   2.09965244E-01   1.67443498E-04   1.29305203E-01   2.78977727E-02   9.99999993E-04   9.78861643E-04   4.36125863E-04   0.00000000E+00   6.00439009E-04   6.66028565E-04   0.00000000E+00   1.83398690E-06
   2.27500000E+02   5.00000000E-01   5.00000000E-01   2.79903344E-01   2.09993103E-01   9.97776682E-03   6.99382318E-02   2.10489899E-01   1.61298731E-04   1.29313066E-01   2.78977894E-02   9.99999992E-04   9.78914580E-04   4.33536052E-04   0.00000000E+00   6.14090710E-04   6.66042256E-04   0.00000000E+00   1.81512250E-06
   2.62500000E+02   5.00000000E-01   5.00000000E-01   2.79903344E-01   2.09993103E-01   9.97776682E-03   6.99382318E-02   2.10663160E-01   1.59507730E-04   1.29311839E-01   2.78978077E-02   9.99999991E-04   9.78972311E-04   4.33394117E-04   0.00000000E+00   6.26683570E-04   6.66056322E-04   0.00000000E+00   1.78616450E-06
   2.97500000E+02   5.00000000E-01   5.00000000E-01   2.79903344E-01   2.09993104E-01   9.97776682E-03   6.99382318E-02   2.10730331E-01   1.60488517E-04   1.29304599E-01   2.78978275E-02   9.99999990E-04   9.79034818E-04   4.34880631E-04   0.00000000E+00   6.38903756E-04   6.66070573E-04   0.00000000E+00   1.75102632E-06
   3.32500000E+02   5.00000000E-01   5.00000000E-01   2.79903344E-01   2.09993104E-01   9.97776682E-03   6.99382318E-02   2.10748492E-01   1.63361266E-04   1.29293240E-01   2.78978485E-02   9.99999989E-04   9.79102115E-04   4.37458181E-04   0.00000000E+00   6.51092697E-04   6.66084828E-04   0.00000000E+00   1.71212615E-06
   3.67500000E+02   5.00000000E-01   5.00000000E-01   2.79903344E-01   2.09993104E-01   9.97776682E-03   6.99382318E-02   2.10732325E-01   1.67608377E-04   1.29278971E-01   2.78978707E-02   9.99999987E-04   9.79174252E-04   4.40769733E-04   0.00000000E+00   6.63423643E-04   6.66098941E-04   0.00000000E+00   1.67099482E-06
   4.02500000E+02   5.00000000E-01   5.00000000E-01   2.79903344E-01   2.09993105E-01   9.97776682E-03   6.99382318E-02   2.10687112E-01   1.72912415E-04   1.29262588E-01   2.78978938E-02   9.99999985E-04   9.79251301E-04   4.44573433E-04   0.00000000E+00   6.75976826E-04   6.66112795E-04   0.00000000E+00   1.62862262E-06
   4.37500000E+02   5.00000000E-01   5.00000000E-01   2.79903344E-01   2.09993105E-01   9.97776682E-03   6.99382318E-02   2.10616055E-01   1.79070356E-04   1.29244634E-01   2.78979177E-02   9.99999984E-04   9.79333356E-04   4.48702003E-04   0.00000000E+00   6.88776483E-04   6.66126299E-04   0.00000000E+00   1.58566403E-06
   4.72500000E+02   5.00000000E-01   5.00000000E-01   2.79903344E-01   2.09993106E-01   9.97776682E-03   6.99382318E-02   2.10521848E-01   1.85947344E-04   1.29225494E-01   2.78979424E-02   9.99999982E-04   9.79420521E-04   4.53036588E-04   0.00000000E+00   7.01807817E-04   6.66139377E-04   0.00000000E+00   1.54256231E-06
   5.07500000E+02   5.00000000E-01   5.00000000E-01   2.79903344E-01   2.09993106E-01   9.97776682E-03   6.99382318E-02   2.10406997E-01   1.93458441E-04   1.29205454E-01   2.78979676E-02   9.99999980E-04   9.79512898E-04   4.57486740E-04   0.00000000E+00   7.15015509E-04   6.66151968E-04   0.00000000E+00   1.49962920E-06
   5.42500000E+02   5.00000000E-01   5.00000000E-01   2.79903344E-01   2.09993107E-01   9.97776682E-03   6.99382318E-02   2.10273877E-01   2.01536927E-04   1.29184738E-01   2.78979934E-02   9.99999978E-04   9.79610597E-04   4.61984821E-04   0.00000000E+00   7.28329184E-04   6.66164021E-04   0.00000000E+00   1.45709029E-06
   5.77500000E+02   5.00000000E-01   5.00000000E-01   2.79903344E-01   2.09993107E-01   9.97776682E-03   6.99382318E-02   2.10124730E-01   2.10129542E-04   1.29163534E-01   2.78980196E-02   9.99999978E-04   9.79713726E-04   4.66477817E-04   0.00000000E+00   7.41657009E-04   6.66175493E-04   0.00000000E+00   1.41511617E-06
   6.12500000E+02   5.00000000E-01   5.00000000E-01   2.79903344E-01   2.09993107E-01   9.97776682E-03   6.99382318E-02   2.09961664E-01   2.19188617E-04   1.29142001E-01   2.78980461E-02   9.99999976E-04   9.79822390E-04   4.70923289E-04   0.00000000E+00   7.54890593E-04   6.66186349E-04   0.00000000E+00   1.37384181E-06
   6.47500000E+02   5.00000000E-01   5.00000000E-01   2.79903344E-01   2.09993108E-01   9.97776682E-03   6.99382318E-02   2.09786645E-01   2.28666816E-04   1.29120290E-01   2.78980728E-02   9.99999975E-04   9.79936699E-04   4.75286836E-04   0.00000000E+00   7.67907866E-04   6.66196562E-04   0.00000000E+00   1.33337877E-06
   6.82500000E+02   5.00000000E-01   5.00000000E-01   2.79903344E-01   2.09993108E-01   9.97776682E-03   6.99382318E-02   2.09601496E-01   2.38363341E-04   1.29098317E-01   2.78980996E-02   9.99999974E-04   9.80055870E-04   4.79164927E-04   5.92594235E-07   7.80615953E-04   6.66205839E-04   0.00000000E+00   1.29389677E-06
   7.17500000E+02   5.00000000E-01   5.00000000E-01   2.79903344E-01   2.09993109E-01   9.97776682E-03   6.99382318E-02   2.09407904E-01   2.48305941E-04   1.29076457E-01   2.78981265E-02   9.99999971E-04   9.80180635E-04   4.82841954E-04   1.27629399E-06   7.92896356E-04   6.66214384E-04   0.00000000E+00   1.25545800E-06
   7.52500000E+02   5.00000000E-01   5.00000000E-01   2.79903344E-01   2.09993110E-01   9.97776682E-03   6.99382318E-02   2.09207411E-01   2.58434662E-04   1.29054839E-01   2.78981533E-02   9.99999970E-04   9.80311117E-04   4.86316478E-04   2.03726196E-06   8.04573333E-04   6.66222201E-04   0.00000000E+00   1.21812593E-06
   7.87500000E+02   5.00000000E-01   5.00000000E-01   2.79903344E-01   2.09993110E-01   9.97776682E-03   6.99382318E-02   2.09001427E-01   2.68675120E-04   1.29033581E-01   2.78981799E-02   9.99999969E-04   9.80447410E-04   4.89578020E-04   2.88125314E-06   8.15499065E-04   6.66229286E-04   0.00000000E+00   1.18196095E-06
   8.22500000E+02   5.00000000E-01   5.00000000E-01   2.79903344E-01   2.09993111E-01   9.97776682E-03   6.99382318E-02   2.08791235E-01   2.78942598E-04   1.29012799E-01   2.78982063E-02   9.99999967E-04   9.80589625E-04   4.92621139E-04   3.81392439E-06   8.25529038E-04   6.66235645E-04   0.00000000E+00   1.14701944E-06
   8.57500000E+02   5.00000000E-01   5.00000000E-01   2.79903344E-01   2.09993111E-01   9.97776682E-03   6.99382318E-02   2.08577992E-01   2.89142726E-04   1.28992605E-01   2.78982322E-02   9.99999965E-04   9.80737890E-04   4.95445687E-04   4.84073846E-06   8.34523663E-04   6.66241288E-04   0.00000000E+00   1.11335304E-06
   8.92500000E+02   5.00000000E-01   5.00000000E-01   2.79903344E-01   2.09993112E-01   9.97776683E-03   6.99382318E-02   2.08362741E-01   2.99172728E-04   1.28973109E-01   2.78982576E-02   9.99999966E-04   9.80892354E-04   4.98056732E-04   5.96688336E-06   8.42351379E-04   6.66246232E-04   0.00000000E+00   1.08100776E-06
   9.27500000E+02   5.00000000E-01   5.00000000E-01   2.79903344E-01   2.09993113E-01   9.97776683E-03   6.99382318E-02   2.08146413E-01   3.08923299E-04   1.28954412E-01   2.78982823E-02   9.99999966E-04   9.81053196E-04   5.00464270E-04   7.19718557E-06   8.48891726E-04   6.66250498E-04   0.00000000E+00   1.05002306E-06
   9.62500000E+02   5.00000000E-01   5.00000000E-01   2.79903344E-01   2.09993113E-01   9.97776683E-03   6.99382318E-02   2.07929840E-01   3.18281013E-04   1.28936607E-01   2.78983062E-02   9.99999966E-04   9.81220621E-04   5.02682694E-04   8.53603729E-06   8.54038190E-04   6.66254114E-04   0.00000000E+00   1.02043101E-06
   9.97500000E+02   5.00000000E-01   5.00000000E-01   2.79903344E-01   2.09993114E-01   9.97776683E-03   6.99382318E-02   2.07713759E-01   3.27131283E-04   1.28919780E-01   2.78983291E-02   9.99999967E-04   9.81394870E-04   5.04730014E-04   9.98733322E-06   8.57700882E-04   6.66257109E-04   0.00000000E+00   9.92255513E-07
   1.03250000E+03   5.00000000E-01   5.00000000E-01   2.79903344E-01   2.09993115E-01   9.97776683E-03   6.99382318E-02   2.07498818E-01   3.35361583E-04   1.28904002E-01   2.78983509E-02   9.99999969E-04   9.81576211E-04   5.06626920E-04   1.15544155E-05   8.59809020E-04   6.66259516E-04   0.00000000E+00   9.65511589E-07
   1.06750000E+03   5.00000000E-01   5.00000000E-01   2.79903344E-01   2.09993115E-01   9.97776684E-03   6.99382318E-02   2.07285585E-01   3.42865196E-04   1.28889334E-01   2.78983715E-02   9.99999969E-04   9.81764944E-04   5.08395556E-04   1.32400463E-05   8.60312935E-04   6.66261368E-04   0.00000000E+00   9.40204777E-07
   1.10250000E+03   5.00000000E-01   5.00000000E-01   2.79903344E-01   2.09993116E-01   9.97776684E-03   6.99382318E-02   2.07074555E-01   3.49544618E-04   1.28875821E-01   2.78983907E-02   9.99999970E-04   9.81961394E-04   5.10058380E-04   1.50463843E-05   8.59185909E-04   6.66262697E-04   0.00000000E+00   9.16330800E-07
   1.13750000E+03   5.00000000E-01   5.00000000E-01   2.79903344E-01   2.09993117E-01   9.97776684E-03   6.99382318E-02   2.06866156E-01   3.55315386E-04   1.28863494E-01   2.78984084E-02   9.99999970E-04   9.82165905E-04   5.11636777E-04   1.69749742E-05   8.56425271E-04   6.66263535E-04   0.00000000E+00   8.93875226E-07
   1.17250000E+03   5.00000000E-01   5.00000000E-01   2.79903344E-01   2.09993117E-01   9.97776685E-03   6.99382318E-02   2.06660755E-01   3.60108912E-04   1.28852371E-01   2.78984245E-02   9.99999971E-04   9.82378831E-04   5.13149957E-04   1.90267926E-05   8.52053416E-04   6.66263909E-04   0.00000000E+00   8.72813562E-07
   1.20750000E+03   5.00000000E-01   5.00000000E-01   2.79903344E-01   2.09993118E-01   9.97776685E-03   6.99382318E-02   2.06458660E-01   3.63875517E-04   1.28842450E-01   2.78984388E-02   9.99999972E-04   9.82600527E-04   5.14613782E-04   2.12022313E-05   8.46117756E-04   6.66263844E-04   0.00000000E+00   8.53111129E-07
   1.24250000E+03   5.00000000E-01   5.00000000E-01   2.79903344E-01   2.09993119E-01   9.97776685E-03   6.99382318E-02   2.06260134E-01   3.66585909E-04   1.28833716E-01   2.78984513E-02   9.99999973E-04   9.82831339E-04   5.16040045E-04   2.35011944E-05   8.38690600E-04   6.66263357E-04   0.00000000E+00   8.34724161E-07
   1.27750000E+03   5.00000000E-01   5.00000000E-01   2.79903344E-01   2.09993120E-01   9.97776686E-03   6.99382318E-02   2.06065392E-01   3.68232876E-04   1.28826137E-01   2.78984618E-02   9.99999974E-04   9.83071591E-04   5.17435693E-04   2.59231140E-05   8.29867598E-04   6.66262462E-04   0.00000000E+00   8.17600183E-07
   1.31250000E+03   5.00000000E-01   5.00000000E-01   2.79903345E-01   2.09993121E-01   9.97776686E-03   6.99382318E-02   2.05874609E-01   3.68830820E-04   1.28819669E-01   2.78984704E-02   9.99999975E-04   9.83321576E-04   5.18802764E-04   2.84670623E-05   8.19766252E-04   6.66261169E-04   0.00000000E+00   8.01678046E-07
   1.34750000E+03   5.00000000E-01   5.00000000E-01   2.79903345E-01   2.09993122E-01   9.97776687E-03   6.99382318E-02   2.05687923E-01   3.68414950E-04   1.28814253E-01   2.78984770E-02   9.99999975E-04   9.83581546E-04   5.20138420E-04   3.11318650E-05   8.08523327E-04   6.66259479E-04   0.00000000E+00   7.86889303E-07
   1.38250000E+03   5.00000000E-01   5.00000000E-01   2.79903346E-01   2.09993123E-01   9.97776688E-03   6.99382318E-02   2.05505440E-01   3.67039402E-04   1.28809816E-01   2.78984816E-02   9.99999974E-04   9.83851703E-04   5.21435371E-04   3.39162061E-05   7.96291656E-04   6.66257391E-04   0.00000000E+00   7.73159510E-07
   1.41750000E+03   5.00000000E-01   5.00000000E-01   2.79903347E-01   2.09993123E-01   9.97776688E-03   6.99382318E-02   2.05327238E-01   3.64774711E-04   1.28806278E-01   2.78984842E-02   9.99999972E-04   9.84132194E-04   5.22682485E-04   3.68187683E-05   7.83236297E-04   6.66254900E-04   0.00000000E+00   7.60409429E-07
   1.45250000E+03   5.00000000E-01   5.00000000E-01   2.79903348E-01   2.09993124E-01   9.97776689E-03   6.99382318E-02   2.05153368E-01   3.61704641E-04   1.28803550E-01   2.78984848E-02   9.99999969E-04   9.84423107E-04   5.23865631E-04   3.98383611E-05   7.69530273E-04   6.66251999E-04   0.00000000E+00   7.48556359E-07
   1.48750000E+03   5.00000000E-01   5.00000000E-01   2.79903350E-01   2.09993125E-01   9.97776690E-03   6.99382318E-02   2.04983858E-01   3.57922790E-04   1.28801535E-01   2.78984836E-02   9.99999965E-04   9.84724472E-04   5.24968550E-04   4.29740607E-05   7.55349964E-04   6.66248678E-04   0.00000000E+00   7.37515808E-07
   1.52250000E+03   5.00000000E-01   5.00000000E-01   2.79903352E-01   2.09993126E-01   9.97776691E-03   6.99382318E-02   2.04818717E-01   3.53528664E-04   1.28800136E-01   2.78984804E-02   9.99999958E-04   9.85036257E-04   5.25973934E-04   4.62253361E-05   7.40870779E-04   6.66244927E-04   0.00000000E+00   7.27202818E-07
   1.55750000E+03   5.00000000E-01   5.00000000E-01   2.79903356E-01   2.09993127E-01   9.97776692E-03   6.99382318E-02   2.04657937E-01   3.48624288E-04   1.28799250E-01   2.78984755E-02   9.99999947E-04   9.85358379E-04   5.26864269E-04   4.95921500E-05   7.26262746E-04   6.66240737E-04   0.00000000E+00   7.17533423E-07
   1.59250000E+03   5.00000000E-01   5.00000000E-01   2.79903360E-01   2.09993128E-01   9.97776693E-03   6.99382318E-02   2.04501493E-01   3.43310797E-04   1.28798778E-01   2.78984689E-02   9.99999932E-04   9.85690702E-04   5.27622696E-04   5.30750445E-05   7.11686774E-04   6.66236101E-04   0.00000000E+00   7.08426053E-07
   1.62750000E+03   5.00000000E-01   5.00000000E-01   2.79903365E-01   2.09993130E-01   9.97776694E-03   6.99382318E-02   2.04349348E-01   3.37685573E-04   1.28798622E-01   2.78984607E-02   9.99999910E-04   9.86033049E-04   5.28233675E-04   5.66751861E-05   6.97291476E-04   6.66231014E-04   0.00000000E+00   6.99802721E-07
   1.66250000E+03   5.00000000E-01   5.00000000E-01   2.79903372E-01   2.09993131E-01   9.97776695E-03   6.99382318E-02   2.04201454E-01   3.31840034E-04   1.28798690E-01   2.78984510E-02   9.99999879E-04   9.86385202E-04   5.28683417E-04   6.03943914E-05   6.83210658E-04   6.66225472E-04   0.00000000E+00   6.91590029E-07
   1.69750000E+03   5.00000000E-01   5.00000000E-01   2.79903380E-01   2.09993132E-01   9.97776696E-03   6.99382318E-02   2.04057753E-01   3.25857836E-04   1.28798894E-01   2.78984399E-02   9.99999836E-04   9.86746914E-04   5.28960219E-04   6.42351024E-05   6.69561777E-04   6.66219479E-04   0.00000000E+00   6.83719924E-07
   1.73250000E+03   5.00000000E-01   5.00000000E-01   2.79903389E-01   2.09993133E-01   9.97776697E-03   6.99382318E-02   2.03918180E-01   3.19813755E-04   1.28799154E-01   2.78984276E-02   9.99999780E-04   9.87117912E-04   5.29054569E-04   6.82003456E-05   6.56445094E-04   6.66213037E-04   0.00000000E+00   6.76130236E-07
   1.76750000E+03   5.00000000E-01   5.00000000E-01   2.79903400E-01   2.09993134E-01   9.97776699E-03   6.99382318E-02   2.03782661E-01   3.13773125E-04   1.28799396E-01   2.78984141E-02   9.99999704E-04   9.87497901E-04   5.28959118E-04   7.22936533E-05   6.43943604E-04   6.66206156E-04   0.00000000E+00   6.68765107E-07
   1.80250000E+03   5.00000000E-01   5.00000000E-01   2.79903412E-01   2.09993135E-01   9.97776700E-03   6.99382318E-02   2.03651120E-01   3.07791676E-04   1.28799557E-01   2.78983996E-02   9.99999605E-04   9.87886571E-04   5.28668550E-04   7.65189701E-05   6.32123620E-04   6.66198846E-04   0.00000000E+00   6.61575035E-07
   1.83750000E+03   5.00000000E-01   5.00000000E-01   2.79903425E-01   2.09993137E-01   9.97776702E-03   6.99382318E-02   2.03523476E-01   3.01915793E-04   1.28799579E-01   2.78983841E-02   9.99999476E-04   9.88283599E-04   5.28179365E-04   8.08805475E-05   6.21035883E-04   6.66191121E-04   0.00000000E+00   6.54516886E-07
   1.87250000E+03   5.00000000E-01   5.00000000E-01   2.79903440E-01   2.09993138E-01   9.97776704E-03   6.99382318E-02   2.03399644E-01   2.96183014E-04   1.28799413E-01   2.78983678E-02   9.99999313E-04   9.88688647E-04   5.27489621E-04   8.53828276E-05   6.10717085E-04   6.66182999E-04   0.00000000E+00   6.47553671E-07
   1.90750000E+03   5.00000000E-01   5.00000000E-01   2.79903455E-01   2.09993139E-01   9.97776706E-03   6.99382318E-02   2.03279539E-01   2.90622811E-04   1.28799020E-01   2.78983508E-02   9.99999109E-04   9.89101372E-04   5.26598645E-04   9.00303244E-05   6.01191538E-04   6.66174498E-04   0.00000000E+00   6.40654220E-07
   1.94250000E+03   5.00000000E-01   5.00000000E-01   2.79903472E-01   2.09993140E-01   9.97776708E-03   6.99382318E-02   2.03163072E-01   2.85257460E-04   1.28798367E-01   2.78983332E-02   9.99998855E-04   9.89521418E-04   5.25506745E-04   9.48275084E-05   5.92473084E-04   6.66165640E-04   0.00000000E+00   6.33792718E-07
   1.97750000E+03   5.00000000E-01   5.00000000E-01   2.79903489E-01   2.09993142E-01   9.97776710E-03   6.99382318E-02   2.03050157E-01   2.80102839E-04   1.28797426E-01   2.78983151E-02   9.99998545E-04   9.89948418E-04   5.24214993E-04   9.97787034E-05   5.84567042E-04   6.66156448E-04   0.00000000E+00   6.26948295E-07
   2.01250000E+03   5.00000000E-01   5.00000000E-01   2.79903507E-01   2.09993143E-01   9.97776712E-03   6.99382318E-02   2.02940705E-01   2.75169498E-04   1.28796178E-01   2.78982965E-02   9.99998167E-04   9.90381997E-04   5.22724940E-04   1.04887987E-04   5.77471958E-04   6.66146946E-04   0.00000000E+00   6.20104451E-07
   2.04750000E+03   5.00000000E-01   5.00000000E-01   2.79903526E-01   2.09993144E-01   9.97776714E-03   6.99382318E-02   2.02834628E-01   2.70463392E-04   1.28794608E-01   2.78982777E-02   9.99997713E-04   9.90821768E-04   5.21038488E-04   1.10159098E-04   5.71181427E-04   6.66137158E-04   0.00000000E+00   6.13248558E-07
   2.08250000E+03   5.00000000E-01   5.00000000E-01   2.79903545E-01   2.09993146E-01   9.97776716E-03   6.99382318E-02   2.02731841E-01   2.65986754E-04   1.28792707E-01   2.78982585E-02   9.99997171E-04   9.91267329E-04   5.19157711E-04   1.15595376E-04   5.65685604E-04   6.66127110E-04   0.00000000E+00   6.06371342E-07
   2.11750000E+03   5.00000000E-01   5.00000000E-01   2.79903566E-01   2.09993147E-01   9.97776719E-03   6.99382318E-02   2.02632259E-01   2.61738898E-04   1.28790468E-01   2.78982393E-02   9.99996530E-04   9.91718267E-04   5.17084734E-04   1.21199686E-04   5.60972526E-04   6.66116829E-04   0.00000000E+00   5.99466277E-07
   2.15250000E+03   5.00000000E-01   5.00000000E-01   2.79903586E-01   2.09993148E-01   9.97776722E-03   6.99382318E-02   2.02535796E-01   2.57656665E-04   1.28787888E-01   2.78982199E-02   9.99995777E-04   9.92174418E-04   5.14835371E-04   1.26979899E-04   5.57098560E-04   6.66106342E-04   0.00000000E+00   5.92526995E-07
   2.18750000E+03   5.00000000E-01   5.00000000E-01   2.79903607E-01   2.09993150E-01   9.97776724E-03   6.99382318E-02   2.02442373E-01   2.53747616E-04   1.28784968E-01   2.78982006E-02   9.99994901E-04   9.92635287E-04   5.12408151E-04   1.32940081E-04   5.54021948E-04   6.66095676E-04   0.00000000E+00   5.85550388E-07
   2.22250000E+03   5.00000000E-01   5.00000000E-01   2.79903629E-01   2.09993151E-01   9.97776727E-03   6.99382318E-02   2.02351908E-01   2.50044067E-04   1.28781708E-01   2.78981813E-02   9.99993891E-04   9.93100243E-04   5.09795630E-04   1.39078742E-04   5.51692158E-04   6.66084854E-04   0.00000000E+00   5.78536242E-07
   2.25750000E+03   5.00000000E-01   5.00000000E-01   2.79903651E-01   2.09993153E-01   9.97776730E-03   6.99382318E-02   2.02264324E-01   2.46545537E-04   1.28778114E-01   2.78981621E-02   9.99992736E-04   9.93568768E-04   5.06997563E-04   1.45395586E-04   5.50100058E-04   6.66073901E-04   0.00000000E+00   5.71485365E-07
   2.29250000E+03   5.00000000E-01   5.00000000E-01   2.79903673E-01   2.09993154E-01   9.97776734E-03   6.99382318E-02   2.02179545E-01   2.43251134E-04   1.28774192E-01   2.78981432E-02   9.99991430E-04   9.94040326E-04   5.04014011E-04   1.51889905E-04   5.49232036E-04   6.66062842E-04   0.00000000E+00   5.64399528E-07
   2.32750000E+03   5.00000000E-01   5.00000000E-01   2.79903696E-01   2.09993156E-01   9.97776737E-03   6.99382318E-02   2.02097496E-01   2.40154208E-04   1.28769950E-01   2.78981245E-02   9.99989967E-04   9.94514387E-04   5.00846334E-04   1.58560692E-04   5.49083568E-04   6.66051702E-04   0.00000000E+00   5.57280963E-07
   2.36250000E+03   5.00000000E-01   5.00000000E-01   2.79903720E-01   2.09993157E-01   9.97776740E-03   6.99382318E-02   2.02018105E-01   2.37240499E-04   1.28765395E-01   2.78981061E-02   9.99988352E-04   9.94990448E-04   4.97497706E-04   1.65407019E-04   5.49660648E-04   6.66040506E-04   0.00000000E+00   5.50132282E-07
   2.39750000E+03   5.00000000E-01   5.00000000E-01   2.79903744E-01   2.09993159E-01   9.97776744E-03   6.99382318E-02   2.01941301E-01   2.34497497E-04   1.28760536E-01   2.78980881E-02   9.99986596E-04   9.95467978E-04   4.93970856E-04   1.72427581E-04   5.50969089E-04   6.66029278E-04   0.00000000E+00   5.42956712E-07
   2.43250000E+03   5.00000000E-01   5.00000000E-01   2.79903770E-01   2.09993161E-01   9.97776748E-03   6.99382318E-02   2.01867016E-01   2.31927501E-04   1.28755381E-01   2.78980704E-02   9.99984722E-04   9.95946339E-04   4.90265138E-04   1.79619273E-04   5.53002021E-04   6.66018040E-04   0.00000000E+00   5.35756756E-07
   2.46750000E+03   5.00000000E-01   5.00000000E-01   2.79903797E-01   2.09993163E-01   9.97776751E-03   6.99382318E-02   2.01795184E-01   2.29524932E-04   1.28749937E-01   2.78980532E-02   9.99982765E-04   9.96424917E-04   4.86381677E-04   1.86978864E-04   5.55768238E-04   6.66006813E-04   0.00000000E+00   5.28534772E-07
   2.50250000E+03   5.00000000E-01   5.00000000E-01   2.79903827E-01   2.09993164E-01   9.97776755E-03   6.99382318E-02   2.01725740E-01   2.27283139E-04   1.28744214E-01   2.78980365E-02   9.99980773E-04   9.96903085E-04   4.82322117E-04   1.94502845E-04   5.59279882E-04   6.65995620E-04   0.00000000E+00   5.21292757E-07
   2.53750000E+03   5.00000000E-01   5.00000000E-01   2.79903860E-01   2.09993166E-01   9.97776759E-03   6.99382318E-02   2.01658619E-01   2.25196143E-04   1.28738218E-01   2.78980202E-02   9.99978806E-04   9.97380194E-04   4.78088069E-04   2.02187187E-04   5.63552524E-04   6.65984481E-04   0.00000000E+00   5.14032370E-07
   2.57250000E+03   5.00000000E-01   5.00000000E-01   2.79903896E-01   2.09993168E-01   9.97776764E-03   6.99382318E-02   2.01593760E-01   2.23257729E-04   1.28731956E-01   2.78980045E-02   9.99976938E-04   9.97855578E-04   4.73681296E-04   2.10027747E-04   5.68605044E-04   6.65973414E-04   0.00000000E+00   5.06754877E-07
   2.60750000E+03   5.00000000E-01   5.00000000E-01   2.79903938E-01   2.09993170E-01   9.97776768E-03   6.99382318E-02   2.01531102E-01   2.21462805E-04   1.28725435E-01   2.78979893E-02   9.99975258E-04   9.98328548E-04   4.69103331E-04   2.18019987E-04   5.74459448E-04   6.65962438E-04   0.00000000E+00   4.99461036E-07
   2.64250000E+03   5.00000000E-01   5.00000000E-01   2.79903985E-01   2.09993172E-01   9.97776772E-03   6.99382318E-02   2.01470586E-01   2.19806407E-04   1.28718659E-01   2.78979745E-02   9.99973859E-04   9.98798391E-04   4.64355994E-04   2.26159034E-04   5.81140623E-04   6.65951571E-04   0.00000000E+00   4.92151064E-07
   2.67750000E+03   5.00000000E-01   5.00000000E-01   2.79904038E-01   2.09993174E-01   9.97776777E-03   6.99382318E-02   2.01412153E-01   2.18264934E-04   1.28711634E-01   2.78979604E-02   9.99972842E-04   9.99264498E-04   4.59445038E-04   2.34441864E-04   5.88698584E-04   6.65940830E-04   0.00000000E+00   4.84823905E-07
   2.71250000E+03   5.00000000E-01   5.00000000E-01   2.79904099E-01   2.09993176E-01   9.97776782E-03   6.99382318E-02   2.01355746E-01   2.16847990E-04   1.28704363E-01   2.78979467E-02   9.99972302E-04   9.99726028E-04   4.54369649E-04   2.42862132E-04   5.97144314E-04   6.65930228E-04   0.00000000E+00   4.77478971E-07
   2.74750000E+03   5.00000000E-01   5.00000000E-01   2.79904145E-01   2.09993178E-01   9.97776786E-03   6.99382318E-02   2.01301310E-01   2.15573152E-04   1.28696849E-01   2.78979336E-02   9.99971821E-04   1.00018207E-03   4.49129466E-04   2.51407911E-04   6.06505062E-04   6.65919780E-04   0.00000000E+00   4.70114321E-07
   2.78250000E+03   5.00000000E-01   5.00000000E-01   2.79904193E-01   2.09993180E-01   9.97776791E-03   6.99382318E-02   2.01248790E-01   2.14436163E-04   1.28689096E-01   2.78979211E-02   9.99971275E-04   1.00063174E-03   4.43726855E-04   2.60073823E-04   6.16813750E-04   6.65909498E-04   0.00000000E+00   4.62730128E-07
   2.81750000E+03   5.00000000E-01   5.00000000E-01   2.79904241E-01   2.09993182E-01   9.97776796E-03   6.99382318E-02   2.01198131E-01   2.13434711E-04   1.28681107E-01   2.78979091E-02   9.99970798E-04   1.00107419E-03   4.38164418E-04   2.68853383E-04   6.28104099E-04   6.65899396E-04   0.00000000E+00   4.55322927E-07
   2.85250000E+03   5.00000000E-01   5.00000000E-01   2.79904291E-01   2.09993184E-01   9.97776802E-03   6.99382318E-02   2.01149279E-01   2.12570884E-04   1.28672883E-01   2.78978977E-02   9.99970577E-04   1.00150858E-03   4.32444578E-04   2.77738344E-04   6.40410077E-04   6.65889484E-04   0.00000000E+00   4.47889473E-07
   2.88750000E+03   5.00000000E-01   5.00000000E-01   2.79904342E-01   2.09993186E-01   9.97776807E-03   6.99382318E-02   2.01102181E-01   2.11847937E-04   1.28664425E-01   2.78978868E-02   9.99970735E-04   1.00193404E-03   4.26569925E-04   2.86719996E-04   6.53765200E-04   6.65879771E-04   0.00000000E+00   4.40427305E-07
   2.92250000E+03   5.00000000E-01   5.00000000E-01   2.79904394E-01   2.09993189E-01   9.97776812E-03   6.99382318E-02   2.01056785E-01   2.11269071E-04   1.28655736E-01   2.78978765E-02   9.99971313E-04   1.00234970E-03   4.20543336E-04   2.95789679E-04   6.68201769E-04   6.65870268E-04   0.00000000E+00   4.32939038E-07
   2.95750000E+03   5.00000000E-01   5.00000000E-01   2.79904445E-01   2.09993191E-01   9.97776818E-03   6.99382318E-02   2.01013040E-01   2.10838050E-04   1.28646817E-01   2.78978667E-02   9.99972291E-04   1.00275468E-03   4.14368011E-04   3.04938485E-04   6.83750023E-04   6.65860981E-04   0.00000000E+00   4.25415561E-07
   2.99250000E+03   5.00000000E-01   5.00000000E-01   2.79904496E-01   2.09993193E-01   9.97776823E-03   6.99382318E-02   2.00970895E-01   2.10558455E-04   1.28637669E-01   2.78978574E-02   9.99973610E-04   1.00314808E-03   4.08047490E-04   3.14157614E-04   7.00437218E-04   6.65851918E-04   0.00000000E+00   4.17853595E-07
   3.02750000E+03   5.00000000E-01   5.00000000E-01   2.79904547E-01   2.09993196E-01   9.97776829E-03   6.99382318E-02   2.00930297E-01   2.10434457E-04   1.28628293E-01   2.78978485E-02   9.99975193E-04   1.00352902E-03   4.01585630E-04   3.23438060E-04   7.18286644E-04   6.65843084E-04   0.00000000E+00   4.10249806E-07
   3.06250000E+03   5.00000000E-01   5.00000000E-01   2.79904597E-01   2.09993198E-01   9.97776835E-03   6.99382318E-02   2.00891199E-01   2.10470606E-04   1.28618692E-01   2.78978402E-02   9.99976949E-04   1.00389661E-03   3.94986684E-04   3.32770663E-04   7.37316575E-04   6.65834485E-04   0.00000000E+00   4.02600888E-07
   3.09750000E+03   5.00000000E-01   5.00000000E-01   2.79904646E-01   2.09993200E-01   9.97776840E-03   6.99382318E-02   2.00853550E-01   2.10671749E-04   1.28608868E-01   2.78978322E-02   9.99978781E-04   1.00424999E-03   3.88255364E-04   3.42146114E-04   7.57539182E-04   6.65826125E-04   0.00000000E+00   3.94903653E-07
   3.13250000E+03   5.00000000E-01   5.00000000E-01   2.79904695E-01   2.09993203E-01   9.97776846E-03   6.99382318E-02   2.00817301E-01   2.11043036E-04   1.28598824E-01   2.78978248E-02   9.99980601E-04   1.00458829E-03   3.81396877E-04   3.51554952E-04   7.78959414E-04   6.65818007E-04   0.00000000E+00   3.87156385E-07
   3.16750000E+03   5.00000000E-01   5.00000000E-01   2.79904741E-01   2.09993206E-01   9.97776852E-03   6.99382318E-02   2.00782404E-01   2.11589795E-04   1.28588564E-01   2.78978177E-02   9.99982315E-04   1.00491068E-03   3.74416926E-04   3.60987666E-04   8.01573870E-04   6.65810134E-04   0.00000000E+00   3.79364299E-07