 TITLE = "Mineral Volumes" 
VARIABLES = "X"          "Y"              "Z"            "Forsterite"     "Fayalite"       "Brucite"        "Lizardite"      "Chrysotile"     "Hematite"       "Magnetite(am)"  "Saponite(Ca)"   "Saponite(K)"    "Saponite(Mg)"   "Saponite(Na)"   "Beidellite(Ca)" "Beidellite(K)"  "Beidellite(Mg)" "Beidellite(Na)" "Enstatite(alph" "Ferrosilite(al" "Anorthite"      "Albite(low)"    "Clinochlore"    "Sudoite"        "Montmor(MgCa)"  "Montmor(MgK)"   "Montmor(MgMg)"  "Montmor(MgNa)"  "Kaolinite"      "Tremolite"      "Pargasite"      "Anhydrite"      "Epidote"        "Scolecite"      "Pyrite"         "FeS(am)"        "Quartz(alpha)" 
 ZONE I=         200 , J=           1 , K=           1  F=POINT
   8.75000000E+00   5.00000000E-01   5.00000000E-01   1.07707357E-01   1.09122793E-01   0.00000000E+00   0.00000000E+00   0.00000000E+00   1.92276482E-04   0.00000000E+00   1.00725333E-10   2.54197574E-04   1.38461969E-10   3.32129791E-05   9.80450719E-11   9.97996272E-11   9.80592562E-11   9.80397714E-11   4.99975427E-02   4.99978438E-02   6.51877053E-02   6.88408140E-02   2.00080272E-02   2.13378451E-10   9.95676814E-11   9.95603583E-11   9.95708830E-11   9.95667144E-11   9.98657411E-04   6.49363285E-02   6.47683039E-02   0.00000000E+00   8.23575378E-03   8.54681875E-11   9.31504119E-11   9.49430099E-11   1.00101095E-10
   2.62500000E+01   5.00000000E-01   5.00000000E-01   1.07707357E-01   1.09126864E-01   0.00000000E+00   0.00000000E+00   0.00000000E+00   1.92276481E-04   0.00000000E+00   1.00896716E-10   1.25698533E-03   1.48828021E-10   1.70600470E-04   9.80450939E-11   9.97996576E-11   9.80593559E-11   9.80400340E-11   4.99975400E-02   4.99979340E-02   6.51877053E-02   6.89825873E-02   1.95744790E-02   1.69540950E-10   9.95681354E-11   9.95711075E-11   9.95727919E-11   9.95744011E-11   9.98657525E-04   6.49684607E-02   6.47683039E-02   0.00000000E+00   8.23575378E-03   8.54682331E-11   9.31504119E-11   9.49430781E-11   1.00159495E-10
   4.37500000E+01   5.00000000E-01   5.00000000E-01   1.07707357E-01   1.09130196E-01   0.00000000E+00   0.00000000E+00   0.00000000E+00   1.92276480E-04   0.00000000E+00   1.00965691E-10   1.51251677E-03   1.53058998E-10   2.32684409E-04   9.80453758E-11   9.98000294E-11   9.80606345E-11   9.80433173E-11   4.99975385E-02   4.99980011E-02   6.51877053E-02   6.94128889E-02   1.90415211E-02   1.13828846E-10   9.95714950E-11   9.96464616E-11   9.95869054E-11   9.96296106E-11   9.98658293E-04   6.49835236E-02   6.47683039E-02   0.00000000E+00   8.23575378E-03   8.54685019E-11   9.31504119E-11   9.49431072E-11   1.00207628E-10
   6.12500000E+01   5.00000000E-01   5.00000000E-01   1.07707357E-01   1.09133831E-01   0.00000000E+00   0.00000000E+00   0.00000000E+00   1.92276480E-04   0.00000000E+00   1.01033481E-10   1.84596283E-03   1.57460069E-10   3.25710493E-04   9.80461928E-11   9.98010441E-11   9.80643332E-11   9.80525271E-11   4.99975380E-02   4.99980700E-02   6.51877053E-02   7.00144667E-02   1.83007433E-02   6.49329868E-11   9.95791427E-11   9.98070613E-11   9.96189987E-11   9.97508251E-11   9.98659720E-04   6.49955349E-02   6.47683039E-02   0.00000000E+00   8.23575378E-03   8.54689943E-11   9.31504119E-11   9.49431303E-11   1.00244998E-10
   7.87500000E+01   5.00000000E-01   5.00000000E-01   1.07707357E-01   1.09138125E-01   0.00000000E+00   0.00000000E+00   0.00000000E+00   1.92276480E-04   0.00000000E+00   1.01122112E-10   2.25709910E-03   1.63263527E-10   4.59922781E-04   9.80475039E-11   9.98025657E-11   9.80702593E-11   9.80667744E-11   4.99975381E-02   4.99981410E-02   6.51877053E-02   7.06204659E-02   1.75259661E-02   3.72060690E-11   9.95896696E-11   1.00011813E-10   9.96631276E-11   9.99108605E-11   9.98661435E-04   6.50157203E-02   6.47683039E-02   0.00000000E+00   8.23575379E-03   8.54695850E-11   9.31504119E-11   9.49431503E-11   1.00271885E-10
   9.62500000E+01   5.00000000E-01   5.00000000E-01   1.07707357E-01   1.09143199E-01   0.00000000E+00   0.00000000E+00   0.00000000E+00   1.92276480E-04   0.00000000E+00   1.01224005E-10   2.59762348E-03   1.70058472E-10   6.14890734E-04   9.80490832E-11   9.98042617E-11   9.80773836E-11   9.80832344E-11   4.99975383E-02   4.99982132E-02   6.51877053E-02   7.11360906E-02   1.68589306E-02   2.47185837E-11   9.96009758E-11   1.00212703E-10   9.97104705E-11   1.00074587E-10   9.98663137E-04   6.50410592E-02   6.47683039E-02   0.00000000E+00   8.23575379E-03   8.54701731E-11   9.31504119E-11   9.49431673E-11   1.00290163E-10
   1.13750000E+02   5.00000000E-01   5.00000000E-01   1.07707357E-01   1.09149069E-01   0.00000000E+00   0.00000000E+00   0.00000000E+00   1.92276479E-04   0.00000000E+00   1.01329012E-10   2.80277125E-03   1.77241112E-10   7.72463062E-04   9.80506338E-11   9.98057751E-11   9.80843635E-11   9.80985965E-11   4.99975387E-02   4.99982865E-02   6.51877053E-02   7.15214036E-02   1.63622775E-02   1.92055785E-11   9.96112551E-11   1.00375377E-10   9.97534553E-11   1.00214633E-10   9.98664567E-04   6.50684404E-02   6.47683039E-02   0.00000000E+00   8.23575379E-03   8.54706802E-11   9.31504119E-11   9.49431820E-11   1.00302180E-10
   1.31250000E+02   5.00000000E-01   5.00000000E-01   1.07707357E-01   1.09155769E-01   0.00000000E+00   0.00000000E+00   0.00000000E+00   1.92276479E-04   0.00000000E+00   1.01432922E-10   2.87522121E-03   1.84549598E-10   9.22853369E-04   9.80519404E-11   9.98068942E-11   9.80902289E-11   9.81106981E-11   4.99975393E-02   4.99983612E-02   6.51877053E-02   7.17780723E-02   1.60360081E-02   1.66519173E-11   9.96195592E-11   1.00486990E-10   9.97881199E-11   1.00318784E-10   9.98665590E-04   6.50960103E-02   6.47683039E-02   0.00000000E+00   8.23575379E-03   8.54710676E-11   9.31504119E-11   9.49431944E-11   1.00310002E-10
   1.48750000E+02   5.00000000E-01   5.00000000E-01   1.07707357E-01   1.09163365E-01   0.00000000E+00   0.00000000E+00   0.00000000E+00   1.92276479E-04   0.00000000E+00   1.01535627E-10   2.84316662E-03   1.91985630E-10   1.06220021E-03   9.80529195E-11   9.98075786E-11   9.80946079E-11   9.81189118E-11   4.99975399E-02   4.99984378E-02   6.51877053E-02   7.19288972E-02   1.58500442E-02   1.54130321E-11   9.96257328E-11   1.00550895E-10   9.98138284E-11   1.00387320E-10   9.98666200E-04   6.51228142E-02   6.47683039E-02   0.00000000E+00   8.23575380E-03   8.54713327E-11   9.31504119E-11   9.49432049E-11   1.00315171E-10
   1.66250000E+02   5.00000000E-01   5.00000000E-01   1.07707357E-01   1.09171903E-01   0.00000000E+00   0.00000000E+00   0.00000000E+00   1.92276479E-04   0.00000000E+00   1.01637773E-10   2.74209295E-03   1.99600520E-10   1.19039799E-03   9.80535992E-11   9.98079054E-11   9.80976312E-11   9.81237727E-11   4.99975406E-02   4.99985165E-02   6.51877053E-02   7.20035224E-02   1.57643507E-02   1.47915015E-11   9.96301330E-11   1.00578714E-10   9.98320913E-11   1.00427678E-10   9.98666476E-04   6.51483195E-02   6.47683039E-02   0.00000000E+00   8.23575380E-03   8.54714975E-11   9.31504119E-11   9.49432133E-11   1.00318704E-10
   1.83750000E+02   5.00000000E-01   5.00000000E-01   1.07707357E-01   1.09181358E-01   0.00000000E+00   0.00000000E+00   0.00000000E+00   1.92276479E-04   0.00000000E+00   1.01739089E-10   2.60396430E-03   2.07369739E-10   1.30945756E-03   9.80540673E-11   9.98079981E-11   9.80996980E-11   9.81263495E-11   4.99975414E-02   4.99985967E-02   6.51877053E-02   7.20299080E-02   1.57410154E-02   1.44726285E-11   9.96333312E-11   1.00583820E-10   9.98453113E-11   1.00449551E-10   9.98666535E-04   6.51721969E-02   6.47683039E-02   0.00000000E+00   8.23575380E-03   8.54715948E-11   9.31504119E-11   9.49432195E-11   1.00321188E-10
   2.01250000E+02   5.00000000E-01   5.00000000E-01   1.07707357E-01   1.09191704E-01   0.00000000E+00   0.00000000E+00   0.00000000E+00   1.92276478E-04   0.00000000E+00   1.01840127E-10   2.44508557E-03   2.15322672E-10   1.41946437E-03   9.80543848E-11   9.98079386E-11   9.81010854E-11   9.81273686E-11   4.99975423E-02   4.99986778E-02   6.51877053E-02   7.20256751E-02   1.57573830E-02   1.43053218E-11   9.96357135E-11   1.00574803E-10   9.98551109E-11   1.00459321E-10   9.98666451E-04   6.51946555E-02   6.47683039E-02   0.00000000E+00   8.23575380E-03   8.54716455E-11   9.31504119E-11   9.49432235E-11   1.00322985E-10
   2.18750000E+02   5.00000000E-01   5.00000000E-01   1.07707357E-01   1.09202931E-01   0.00000000E+00   0.00000000E+00   0.00000000E+00   1.92276478E-04   0.00000000E+00   1.01942043E-10   2.27395213E-03   2.23534357E-10   1.51920358E-03   9.80545811E-11   9.98077698E-11   9.81019265E-11   9.81272015E-11   4.99975432E-02   4.99987598E-02   6.51877053E-02   7.20006816E-02   1.58012461E-02   1.42146153E-11   9.96374787E-11   1.00556282E-10   9.98623254E-11   1.00460388E-10   9.98666260E-04   6.52164158E-02   6.47683039E-02   0.00000000E+00   8.23575380E-03   8.54716603E-11   9.31504119E-11   9.49432255E-11   1.00324331E-10
   2.36250000E+02   5.00000000E-01   5.00000000E-01   1.07707357E-01   1.09214917E-01   0.00000000E+00   0.00000000E+00   0.00000000E+00   1.92276478E-04   0.00000000E+00   1.02043914E-10   2.10056161E-03   2.31915260E-10   1.61001815E-03   9.80546984E-11   9.98075399E-11   9.81024127E-11   9.81263074E-11   4.99975442E-02   4.99988418E-02   6.51877053E-02   7.19639319E-02   1.58602960E-02   1.41633351E-11   9.96388627E-11   1.00532722E-10   9.98679449E-11   1.00456327E-10   9.98666008E-04   6.52381660E-02   6.47683039E-02   0.00000000E+00   8.23575381E-03   8.54716523E-11   9.31504119E-11   9.49432255E-11   1.00325346E-10
   2.53750000E+02   5.00000000E-01   5.00000000E-01   1.07707357E-01   1.09227541E-01   0.00000000E+00   0.00000000E+00   0.00000000E+00   1.92276478E-04   0.00000000E+00   1.02144628E-10   1.92789355E-03   2.40358082E-10   1.69054305E-03   9.80547491E-11   9.98072662E-11   9.81026003E-11   9.81248431E-11   4.99975452E-02   4.99989232E-02   6.51877053E-02   7.19194914E-02   1.59298414E-02   1.41322721E-11   9.96399468E-11   1.00505874E-10   9.98723102E-11   1.00448490E-10   9.98665712E-04   6.52605283E-02   6.47683039E-02   0.00000000E+00   8.23575381E-03   8.54716259E-11   9.31504119E-11   9.49432237E-11   1.00326110E-10
   2.71250000E+02   5.00000000E-01   5.00000000E-01   1.07707357E-01   1.09240672E-01   0.00000000E+00   0.00000000E+00   0.00000000E+00   1.92276478E-04   0.00000000E+00   1.02242658E-10   1.75884383E-03   2.48724558E-10   1.76003608E-03   9.80547411E-11   9.98069605E-11   9.81025252E-11   9.81229146E-11   4.99975463E-02   4.99990037E-02   6.51877053E-02   7.18697871E-02   1.60067884E-02   1.41116668E-11   9.96407758E-11   1.00476784E-10   9.98756103E-11   1.00437685E-10   9.98665382E-04   6.52837555E-02   6.47683039E-02   0.00000000E+00   8.23575381E-03   8.54715841E-11   9.31504119E-11   9.49432203E-11   1.00326676E-10
   2.88750000E+02   5.00000000E-01   5.00000000E-01   1.07707357E-01   1.09254187E-01   0.00000000E+00   0.00000000E+00   0.00000000E+00   1.92276477E-04   0.00000000E+00   1.02336363E-10   1.59616967E-03   2.56870357E-10   1.81853476E-03   9.80546850E-11   9.98066350E-11   9.81022360E-11   9.81206429E-11   4.99975474E-02   4.99990830E-02   6.51877053E-02   7.18166254E-02   1.60885399E-02   1.40966480E-11   9.96413959E-11   1.00446367E-10   9.98780391E-11   1.00424664E-10   9.98665031E-04   6.53076022E-02   6.47683039E-02   0.00000000E+00   8.23575381E-03   8.54715302E-11   9.31504119E-11   9.49432155E-11   1.00327075E-10
   3.06250000E+02   5.00000000E-01   5.00000000E-01   1.07707357E-01   1.09267992E-01   0.00000000E+00   0.00000000E+00   0.00000000E+00   1.92276477E-04   0.00000000E+00   1.02424513E-10   1.44215222E-03   2.64689383E-10   1.86668269E-03   9.80545944E-11   9.98063025E-11   9.81017933E-11   9.81181626E-11   4.99975486E-02   4.99991607E-02   6.51877053E-02   7.17614045E-02   1.61728976E-02   1.40848208E-11   9.96418588E-11   1.00415470E-10   9.98798127E-11   1.00410177E-10   9.98664673E-04   6.53314306E-02   6.47683039E-02   0.00000000E+00   8.23575381E-03   8.54714679E-11   9.31504119E-11   9.49432095E-11   1.00327325E-10
   3.23750000E+02   5.00000000E-01   5.00000000E-01   1.07707357E-01   1.09282040E-01   0.00000000E+00   0.00000000E+00   0.00000000E+00   1.92276477E-04   0.00000000E+00   1.02506597E-10   1.29842510E-03   2.72139393E-10   1.90549414E-03   9.80544837E-11   9.98059742E-11   9.81012620E-11   9.81156052E-11   4.99975498E-02   4.99992369E-02   6.51877053E-02   7.17051975E-02   1.62580743E-02   1.40750298E-11   9.96422180E-11   1.00384836E-10   9.98811553E-11   1.00394934E-10   9.98664318E-04   6.53544635E-02   6.47683039E-02   0.00000000E+00   8.23575381E-03   8.54714011E-11   9.31504119E-11   9.49432025E-11   1.00327430E-10
   3.41250000E+02   5.00000000E-01   5.00000000E-01   1.07707357E-01   1.09296321E-01   0.00000000E+00   0.00000000E+00   0.00000000E+00   1.92276477E-04   0.00000000E+00   1.02582830E-10   1.16592082E-03   2.79242257E-10   1.93610072E-03   9.80543662E-11   9.98056593E-11   9.81007016E-11   9.81130823E-11   4.99975511E-02   4.99993115E-02   6.51877053E-02   7.16488065E-02   1.63427126E-02   1.40667027E-11   9.96425237E-11   1.00355060E-10   9.98822756E-11   1.00379544E-10   9.98663976E-04   6.53760157E-02   6.47683039E-02   0.00000000E+00   8.23575382E-03   8.54713333E-11   9.31504119E-11   9.49431946E-11   1.00327392E-10
   3.58750000E+02   5.00000000E-01   5.00000000E-01   1.07707358E-01   1.09310856E-01   0.00000000E+00   0.00000000E+00   0.00000000E+00   1.92276477E-04   0.00000000E+00   1.02653984E-10   1.04484391E-03   2.86069458E-10   1.95937515E-03   9.80542514E-11   9.98053632E-11   9.81001547E-11   9.81106675E-11   4.99975524E-02   4.99993846E-02   6.51877053E-02   7.15927195E-02   1.64260304E-02   1.40595182E-11   9.96428126E-11   1.00326503E-10   9.98833267E-11   1.00364419E-10   9.98663653E-04   6.53956412E-02   6.47683039E-02   0.00000000E+00   8.23575382E-03   8.54712668E-11   9.31504119E-11   9.49431860E-11   1.00327209E-10
   3.76250000E+02   5.00000000E-01   5.00000000E-01   1.07707358E-01   1.09325675E-01   0.00000000E+00   0.00000000E+00   0.00000000E+00   1.92276476E-04   0.00000000E+00   1.02721138E-10   9.34937583E-04   2.92719706E-10   1.97600248E-03   9.80541454E-11   9.98050882E-11   9.80996479E-11   9.81084011E-11   4.99975537E-02   4.99994564E-02   6.51877053E-02   7.15372195E-02   1.65076226E-02   1.40532687E-11   9.96431091E-11   1.00299346E-10   9.98844098E-11   1.00349810E-10   9.98663353E-04   6.54131465E-02   6.47683039E-02   0.00000000E+00   8.23575382E-03   8.54712035E-11   9.31504119E-11   9.49431768E-11   1.00326878E-10
   3.93750000E+02   5.00000000E-01   5.00000000E-01   1.07707358E-01   1.09340810E-01   0.00000000E+00   0.00000000E+00   0.00000000E+00   1.92276476E-04   0.00000000E+00   1.02785480E-10   8.35598108E-04   2.99301888E-10   1.98636558E-03   9.80540504E-11   9.98048341E-11   9.80991908E-11   9.81062920E-11   4.99975551E-02   4.99995268E-02   6.51877053E-02   7.14824054E-02   1.65874384E-02   1.40477926E-11   9.96434239E-11   1.00273607E-10   9.98855687E-11   1.00335801E-10   9.98663074E-04   6.54285585E-02   6.47683039E-02   0.00000000E+00   8.23575382E-03   8.54711439E-11   9.31504119E-11   9.49431670E-11   1.00326399E-10
   4.11250000E+02   5.00000000E-01   5.00000000E-01   1.07707358E-01   1.09356276E-01   0.00000000E+00   0.00000000E+00   0.00000000E+00   1.92276476E-04   0.00000000E+00   1.02848171E-10   7.46053707E-04   3.05921749E-10   1.99065169E-03   9.80539658E-11   9.98045988E-11   9.80987806E-11   9.81043279E-11   4.99975566E-02   4.99995958E-02   6.51877053E-02   7.14282629E-02   1.66656367E-02   1.40429549E-11   9.96437566E-11   1.00249194E-10   9.98868016E-11   1.00322363E-10   9.98662816E-04   6.54420668E-02   6.47683039E-02   0.00000000E+00   8.23575383E-03   8.54710879E-11   9.31504119E-11   9.49431569E-11   1.00325775E-10
   4.28750000E+02   5.00000000E-01   5.00000000E-01   1.07707358E-01   1.09372073E-01   0.00000000E+00   0.00000000E+00   0.00000000E+00   1.92276475E-04   0.00000000E+00   1.02910242E-10   6.65483721E-04   3.12672948E-10   1.98896459E-03   9.80538892E-11   9.98043799E-11   9.80984068E-11   9.81024847E-11   4.99975581E-02   4.99996634E-02   6.51877053E-02   7.13747343E-02   1.67424548E-02   1.40386423E-11   9.96441004E-11   1.00225963E-10   9.98880793E-11   1.00309401E-10   9.98662576E-04   6.54539688E-02   6.47683039E-02   0.00000000E+00   8.23575383E-03   8.54710353E-11   9.31504119E-11   9.49431465E-11   1.00325010E-10
   4.46250000E+02   5.00000000E-01   5.00000000E-01   1.07707358E-01   1.09388179E-01   0.00000000E+00   0.00000000E+00   0.00000000E+00   1.92276475E-04   0.00000000E+00   1.02972549E-10   5.93056347E-04   3.19631445E-10   1.98130619E-03   9.80538170E-11   9.98041743E-11   9.80980534E-11   9.81007316E-11   4.99975597E-02   4.99997295E-02   6.51877053E-02   7.13217352E-02   1.68181864E-02   1.40347588E-11   9.96444432E-11   1.00203744E-10   9.98893512E-11   1.00296779E-10   9.98662350E-04   6.54646340E-02   6.47683039E-02   0.00000000E+00   8.23575383E-03   8.54709853E-11   9.31504119E-11   9.49431359E-11   1.00324108E-10
   4.63750000E+02   5.00000000E-01   5.00000000E-01   1.07707359E-01   1.09404548E-01   0.00000000E+00   0.00000000E+00   0.00000000E+00   1.92276475E-04   0.00000000E+00   1.03035732E-10   5.27977129E-04   3.26851205E-10   1.96764507E-03   9.80537452E-11   9.98039790E-11   9.80977016E-11   9.80990357E-11   4.99975613E-02   4.99997941E-02   6.51877053E-02   7.12691812E-02   1.68931239E-02   1.40312246E-11   9.96447699E-11   1.00182363E-10   9.98905552E-11   1.00284347E-10   9.98662136E-04   6.54744769E-02   6.47683039E-02   0.00000000E+00   8.23575383E-03   8.54709370E-11   9.31504119E-11   9.49431251E-11   1.00323076E-10
   4.81250000E+02   5.00000000E-01   5.00000000E-01   1.07707359E-01   1.09421112E-01   0.00000000E+00   0.00000000E+00   0.00000000E+00   1.92276475E-04   0.00000000E+00   1.03100183E-10   4.69513819E-04   3.34360775E-10   1.94797100E-03   9.80536693E-11   9.98037913E-11   9.80973328E-11   9.80973664E-11   4.99975630E-02   4.99998569E-02   6.51877054E-02   7.12170111E-02   1.69675150E-02   1.40279757E-11   9.96450653E-11   1.00161663E-10   9.98916274E-11   1.00271961E-10   9.98661930E-04   6.54839320E-02   6.47683039E-02   0.00000000E+00   8.23575384E-03   8.54708895E-11   9.31504119E-11   9.49431143E-11   1.00321922E-10
   4.98750000E+02   5.00000000E-01   5.00000000E-01   1.07707359E-01   1.09438039E-01   0.00000000E+00   0.00000000E+00   0.00000000E+00   1.92276474E-04   0.00000000E+00   1.03167202E-10   4.15868020E-04   3.42287489E-10   1.91566983E-03   9.80535555E-11   9.98035951E-11   9.80967965E-11   9.80955000E-11   4.99975648E-02   4.99999189E-02   6.51877054E-02   7.11631112E-02   1.70456731E-02   1.40247813E-11   9.96451694E-11   1.00140423E-10   9.98919039E-11   1.00258195E-10   9.98661718E-04   6.54934337E-02   6.47683039E-02   0.00000000E+00   8.23575384E-03   8.54708356E-11   9.31504119E-11   9.49431035E-11   1.00320675E-10
   5.16250000E+02   5.00000000E-01   5.00000000E-01   1.07707360E-01   1.09455087E-01   0.00000000E+00   0.00000000E+00   0.00000000E+00   1.92276474E-04   0.00000000E+00   1.03236247E-10   3.68167937E-04   3.50572612E-10   1.87901688E-03   9.80534249E-11   9.98034011E-11   9.80961871E-11   9.80935856E-11   4.99975666E-02   4.99999792E-02   6.51877054E-02   7.11092351E-02   1.71234190E-02   1.40217806E-11   9.96451846E-11   1.00119495E-10   9.98918113E-11   1.00244044E-10   9.98661508E-04   6.55035233E-02   6.47683039E-02   0.00000000E+00   8.23575384E-03   8.54707799E-11   9.31504119E-11   9.49430927E-11   1.00319336E-10
   5.33750000E+02   5.00000000E-01   5.00000000E-01   1.07707360E-01   1.09472072E-01   0.00000000E+00   0.00000000E+00   0.00000000E+00   1.92276473E-04   0.00000000E+00   1.03306550E-10   3.25601292E-04   3.59118003E-10   1.83754440E-03   9.80532826E-11   9.98032119E-11   9.80955271E-11   9.80916591E-11   4.99975685E-02   5.00000374E-02   6.51877054E-02   7.10559824E-02   1.72004352E-02   1.40189916E-11   9.96451402E-11   1.00099099E-10   9.98914713E-11   1.00229791E-10   9.98661303E-04   6.55145199E-02   6.47683039E-02   0.00000000E+00   8.23575385E-03   8.54707236E-11   9.31504119E-11   9.49430820E-11   1.00317905E-10
   5.51250000E+02   5.00000000E-01   5.00000000E-01   1.07707360E-01   1.09488866E-01   0.00000000E+00   0.00000000E+00   0.00000000E+00   1.92276473E-04   0.00000000E+00   1.03377348E-10   2.87512651E-04   3.67826770E-10   1.79082053E-03   9.80531274E-11   9.98030268E-11   9.80948111E-11   9.80897146E-11   4.99975705E-02   5.00000933E-02   6.51877054E-02   7.10034400E-02   1.72768979E-02   1.40163951E-11   9.96450335E-11   1.00079211E-10   9.98908723E-11   1.00215429E-10   9.98661103E-04   6.55266340E-02   6.47683039E-02   0.00000000E+00   8.23575385E-03   8.54706665E-11   9.31504119E-11   9.49430714E-11   1.00316388E-10
   5.68750000E+02   5.00000000E-01   5.00000000E-01   1.07707361E-01   1.09505371E-01   0.00000000E+00   0.00000000E+00   0.00000000E+00   1.92276473E-04   0.00000000E+00   1.03447827E-10   2.53444587E-04   3.76599017E-10   1.73912778E-03   9.80529588E-11   9.98028457E-11   9.80940371E-11   9.80877512E-11   4.99975725E-02   5.00001467E-02   6.51877054E-02   7.09516374E-02   1.73528189E-02   1.40139772E-11   9.96448615E-11   1.00059807E-10   9.98900030E-11   1.00200951E-10   9.98660908E-04   6.55399292E-02   6.47683039E-02   0.00000000E+00   8.23575385E-03   8.54706083E-11   9.31504119E-11   9.49430609E-11   1.00314789E-10
   5.86250000E+02   5.00000000E-01   5.00000000E-01   1.07707361E-01   1.09521520E-01   0.00000000E+00   0.00000000E+00   0.00000000E+00   1.92276472E-04   0.00000000E+00   1.03517181E-10   2.23025501E-04   3.85338527E-10   1.68305374E-03   9.80527780E-11   9.98026690E-11   9.80932107E-11   9.80857786E-11   4.99975746E-02   5.00001975E-02   6.51877054E-02   7.09006292E-02   1.74280863E-02   1.40117333E-11   9.96446275E-11   1.00040903E-10   9.98888776E-11   1.00186400E-10   9.98660717E-04   6.55543002E-02   6.47683039E-02   0.00000000E+00   8.23575386E-03   8.54705495E-11   9.31504119E-11   9.49430506E-11   1.00313113E-10
   6.03750000E+02   5.00000000E-01   5.00000000E-01   1.07707362E-01   1.09537281E-01   0.00000000E+00   0.00000000E+00   0.00000000E+00   1.92276472E-04   0.00000000E+00   1.03584715E-10   1.95932515E-04   3.93964048E-10   1.62335528E-03   9.80525879E-11   9.98024978E-11   9.80923450E-11   9.80838154E-11   4.99975768E-02   5.00002459E-02   6.51877054E-02   7.08505019E-02   1.75025011E-02   1.40096636E-11   9.96443415E-11   1.00022551E-10   9.98875370E-11   1.00171869E-10   9.98660531E-04   6.55694911E-02   6.47683039E-02   0.00000000E+00   8.23575386E-03   8.54704903E-11   9.31504119E-11   9.49430404E-11   1.00311363E-10
   6.21250000E+02   5.00000000E-01   5.00000000E-01   1.07707363E-01   1.09552651E-01   0.00000000E+00   0.00000000E+00   0.00000000E+00   1.92276471E-04   0.00000000E+00   1.03649929E-10   1.71872335E-04   4.02418263E-10   1.56087022E-03   9.80523926E-11   9.98023334E-11   9.80914577E-11   9.80818855E-11   4.99975790E-02   5.00002918E-02   6.51877054E-02   7.08013642E-02   1.75758131E-02   1.40077691E-11   9.96440184E-11   1.00004825E-10   9.98860436E-11   1.00157481E-10   9.98660353E-04   6.55851438E-02   6.47683039E-02   5.87135099E-29   8.23575387E-03   8.54704317E-11   9.31504119E-11   9.49430305E-11   1.00309544E-10
   6.38750000E+02   5.00000000E-01   5.00000000E-01   1.07707363E-01   1.09567653E-01   0.00000000E+00   0.00000000E+00   0.00000000E+00   1.92276471E-04   0.00000000E+00   1.03712553E-10   1.50569180E-04   4.10671397E-10   1.49643283E-03   9.80521965E-11   9.98021772E-11   9.80905688E-11   9.80800135E-11   4.99975812E-02   5.00003353E-02   6.51877054E-02   7.07533362E-02   1.76477570E-02   1.40060494E-11   9.96436763E-11   9.99878031E-11   9.98844723E-11   1.00143377E-10   9.98660183E-04   6.56008625E-02   6.47683039E-02   1.21233377E-28   8.23575387E-03   8.54703743E-11   9.31504119E-11   9.49430208E-11   1.00307660E-10
   6.56250000E+02   5.00000000E-01   5.00000000E-01   1.07707364E-01   1.09582318E-01   0.00000000E+00   0.00000000E+00   0.00000000E+00   1.92276470E-04   0.00000000E+00   1.03772540E-10   1.31758577E-04   4.18719126E-10   1.43080215E-03   9.80520041E-11   9.98020301E-11   9.80896973E-11   9.80782216E-11   4.99975835E-02   5.00003766E-02   6.51877054E-02   7.07065367E-02   1.77180843E-02   1.40045003E-11   9.96433345E-11   9.99715573E-11   9.98829022E-11   1.00129690E-10   9.98660022E-04   6.56162731E-02   6.47683039E-02   2.50676157E-28   8.23575388E-03   8.54703189E-11   9.31504119E-11   9.49430114E-11   1.00305713E-10
   6.73750000E+02   5.00000000E-01   5.00000000E-01   1.07707365E-01   1.09596675E-01   0.00000000E+00   0.00000000E+00   0.00000000E+00   1.92276470E-04   0.00000000E+00   1.03830021E-10   1.15186583E-04   4.26576216E-10   1.36462342E-03   9.80518191E-11   9.98018930E-11   9.80888601E-11   9.80765273E-11   4.99975859E-02   5.00004156E-02   6.51877054E-02   7.06610760E-02   1.77865814E-02   1.40031140E-11   9.96430111E-11   9.99561427E-11   9.98814086E-11   1.00116539E-10   9.98659871E-04   6.56310666E-02   6.47683039E-02   5.19077129E-28   8.23575388E-03   8.54702664E-11   9.31504119E-11   9.49430023E-11   1.00303708E-10
   6.91250000E+02   5.00000000E-01   5.00000000E-01   1.07707366E-01   1.09610738E-01   0.00000000E+00   0.00000000E+00   0.00000000E+00   1.92276469E-04   0.00000000E+00   1.03885242E-10   1.00610873E-04   4.34268398E-10   1.29839655E-03   9.80516446E-11   9.98017660E-11   9.80880699E-11   9.80749420E-11   4.99975883E-02   5.00004526E-02   6.51877054E-02   7.06170473E-02   1.78530857E-02   1.40018794E-11   9.96427224E-11   9.99415927E-11   9.98800577E-11   1.00104019E-10   9.98659731E-04   6.56450233E-02   6.47683039E-02   1.07646674E-27   8.23575389E-03   8.54702172E-11   9.31504119E-11   9.49429934E-11   1.00301647E-10
   7.08750000E+02   5.00000000E-01   5.00000000E-01   1.07707366E-01   1.09624501E-01   0.00000000E+00   0.00000000E+00   0.00000000E+00   1.92276469E-04   0.00000000E+00   1.03938502E-10   8.78051551E-05   4.41823923E-10   1.23250393E-03   9.80514824E-11   9.98016493E-11   9.80873355E-11   9.80734716E-11   4.99975909E-02   5.00004873E-02   6.51877054E-02   7.05745269E-02   1.79174777E-02   1.40007835E-11   9.96424817E-11   9.99279202E-11   9.98789043E-11   1.00092195E-10   9.98659601E-04   6.56580170E-02   6.47683039E-02   3.96447727E-13   8.23575389E-03   8.54701717E-11   9.31504119E-11   9.49429849E-11   1.00299534E-10
   7.26250000E+02   5.00000000E-01   5.00000000E-01   1.07707367E-01   1.09637931E-01   0.00000000E+00   0.00000000E+00   0.00000000E+00   1.92276468E-04   0.00000000E+00   1.03990095E-10   7.65616239E-05   4.49265980E-10   1.16723068E-03   9.80513340E-11   9.98015424E-11   9.80866625E-11   9.80721175E-11   4.99975934E-02   5.00005199E-02   6.51877054E-02   7.05335754E-02   1.79796741E-02   1.39998126E-11   9.96422998E-11   9.99151204E-11   9.98779926E-11   1.00081110E-10   9.98659482E-04   6.56700097E-02   6.47683039E-02   1.59816185E-12   8.23575390E-03   8.54701303E-11   9.31504119E-11   9.49429766E-11   1.00297372E-10
   7.43750000E+02   5.00000000E-01   5.00000000E-01   1.07707369E-01   1.09650968E-01   0.00000000E+00   0.00000000E+00   0.00000000E+00   1.92276467E-04   0.00000000E+00   1.04040258E-10   6.66923204E-05   4.56606503E-10   1.10278748E-03   9.80511999E-11   9.98014449E-11   9.80860536E-11   9.80708778E-11   4.99975961E-02   5.00005502E-02   6.51877054E-02   7.04942392E-02   1.80396197E-02   1.39989530E-11   9.96421853E-11   9.99031749E-11   9.98773565E-11   1.00070787E-10   9.98659373E-04   6.56810387E-02   6.47683039E-02   3.76832138E-12   8.23575390E-03   8.54700929E-11   9.31504119E-11   9.49429685E-11   1.00295164E-10
   7.61250000E+02   5.00000000E-01   5.00000000E-01   1.07707370E-01   1.09663526E-01   0.00000000E+00   0.00000000E+00   0.00000000E+00   1.92276467E-04   0.00000000E+00   1.04089139E-10   5.80294588E-05   4.63841389E-10   1.03933411E-03   9.80510805E-11   9.98013563E-11   9.80855094E-11   9.80697481E-11   4.99975987E-02   5.00005781E-02   6.51877054E-02   7.04565534E-02   1.80972793E-02   1.39981920E-11   9.96421445E-11   9.98920558E-11   9.98770224E-11   1.00061234E-10   9.98659272E-04   6.56912007E-02   6.47683039E-02   7.43300058E-12   8.23575391E-03   8.54700597E-11   9.31504119E-11   9.49429608E-11   1.00292913E-10
   7.78750000E+02   5.00000000E-01   5.00000000E-01   1.07707371E-01   1.09675499E-01   0.00000000E+00   0.00000000E+00   0.00000000E+00   1.92276466E-04   0.00000000E+00   1.04136766E-10   5.04249165E-05   4.70947192E-10   9.77001451E-04   9.80509755E-11   9.98012758E-11   9.80850296E-11   9.80687234E-11   4.99976015E-02   5.00006034E-02   6.51877054E-02   7.04205439E-02   1.81526296E-02   1.39975181E-11   9.96421828E-11   9.98817300E-11   9.98770111E-11   1.00052448E-10   9.98659181E-04   6.57006345E-02   6.47683039E-02   1.33599025E-11   8.23575392E-03   8.54700306E-11   9.31504119E-11   9.49429533E-11   1.00290622E-10
   7.96250000E+02   5.00000000E-01   5.00000000E-01   1.07707373E-01   1.09686762E-01   0.00000000E+00   0.00000000E+00   0.00000000E+00   1.92276465E-04   0.00000000E+00   1.04183029E-10   4.37491491E-05   4.77879391E-10   9.15911769E-04   9.80508850E-11   9.98012028E-11   9.80846136E-11   9.80677982E-11   4.99976043E-02   5.00006260E-02   6.51877054E-02   7.03862295E-02   1.82056525E-02   1.39969213E-11   9.96423044E-11   9.98721618E-11   9.98773399E-11   1.00044420E-10   9.98659097E-04   6.57094999E-02   6.47683039E-02   2.26622513E-11   8.23575393E-03   8.54700056E-11   9.31504119E-11   9.49429461E-11   1.00288294E-10